<event>
 4    1  0.5847355E+003  0.2282565E+02  0.7546771E-02  0.1494699E+00
          2   -1    0    0  501    0  0.00000000000E+00  0.00000000000E+00  0.28806714982E+02  0.28806714982E+02  0.00000000000E+00 0.  1.
         -2   -1    0    0    0  501 -0.00000000000E+00 -0.00000000000E+00 -0.16514070888E+03  0.16514070888E+03  0.00000000000E+00 0.  1.
          2    1    1    2  502    0 -0.58555195437E+01 -0.22061807340E+02  0.23342420304E+02  0.32647802956E+02  0.00000000000E+00 0.  1.
         -2    1    1    2    0  502  0.58555195437E+01  0.22061807340E+02 -0.15967641420E+03  0.16129962091E+03  0.00000000000E+00 0.  1.
</event>
<event>
 4    1  0.5847355E+003  0.3870751E+02  0.7546771E-02  0.1356231E+00
          2   -1    0    0  501    0  0.00000000000E+00  0.00000000000E+00  0.14058694926E+03  0.14058694926E+03  0.00000000000E+00 0.  1.
         -2   -1    0    0    0  501 -0.00000000000E+00 -0.00000000000E+00 -0.17024810196E+02  0.17024810196E+02  0.00000000000E+00 0.  1.
          2    1    1    2  502    0 -0.17284623151E+02  0.34633992117E+02  0.10997625835E+03  0.11658923196E+03  0.00000000000E+00 0.  1.
         -2    1    1    2    0  502  0.17284623151E+02 -0.34633992117E+02  0.13585880709E+02  0.41022527495E+02  0.00000000000E+00 0.  1.
</event>
<event>
 4    1  0.5847355E+003  0.4300081E+02  0.7546771E-02  0.1331745E+00
          2   -1    0    0  501    0  0.00000000000E+00  0.00000000000E+00  0.16035778242E+04  0.16035778242E+04  0.00000000000E+00 0.  1.
         -2   -1    0    0    0  501 -0.00000000000E+00 -0.00000000000E+00 -0.16818077505E+02  0.16818077505E+02  0.00000000000E+00 0.  1.
          2    1    1    2  502    0  0.40800474829E+02 -0.13579077158E+02  0.15753100744E+04  0.15758968559E+04  0.00000000000E+00 0.  1.
         -2    1    1    2    0  502 -0.40800474829E+02  0.13579077158E+02  0.11449672372E+02  0.44499045834E+02  0.00000000000E+00 0.  1.
</event>
<event>
 4    1  0.5847355E+003  0.3380969E+02  0.7546771E-02  0.1389130E+00
          2   -1    0    0  501    0  0.00000000000E+00  0.00000000000E+00  0.22683099739E+04  0.22683099739E+04  0.00000000000E+00 0. -1.
         -2   -1    0    0    0  501 -0.00000000000E+00 -0.00000000000E+00 -0.94141854811E+01  0.94141854811E+01  0.00000000000E+00 0. -1.
          2    1    1    2  502    0  0.13954489650E+02  0.30795576531E+02  0.22374091088E+04  0.22376645448E+04  0.00000000000E+00 0. -1.
         -2    1    1    2    0  502 -0.13954489650E+02 -0.30795576531E+02  0.21486679703E+02  0.40059614576E+02  0.00000000000E+00 0. -1.
</event>
<event>
 4    1  0.5847355E+003  0.2466094E+02  0.7546771E-02  0.1472632E+00
          2   -1    0    0  501    0  0.00000000000E+00  0.00000000000E+00  0.44852567848E+03  0.44852567848E+03  0.00000000000E+00 0. -1.
         -2   -1    0    0    0  501 -0.00000000000E+00 -0.00000000000E+00 -0.13827196304E+01  0.13827196304E+01  0.00000000000E+00 0.  1.
          2    1    1    2  502    0  0.35100468055E+01 -0.24409865501E+02  0.25489316964E+03  0.25608336512E+03  0.00000000000E+00 0. -1.
         -2    1    1    2    0  502 -0.35100468055E+01  0.24409865501E+02  0.19224978921E+03  0.19382503299E+03  0.00000000000E+00 0.  1.
</event>
<event>
 4    1  0.5847355E+003  0.2062548E+02  0.7546771E-02  0.1524680E+00
          2   -1    0    0  501    0  0.00000000000E+00  0.00000000000E+00  0.49252349592E+03  0.49252349592E+03  0.00000000000E+00 0. -1.
         -2   -1    0    0    0  501 -0.00000000000E+00 -0.00000000000E+00 -0.14568805464E+01  0.14568805464E+01  0.00000000000E+00 0. -1.
          2    1    1    2  502    0  0.20371846660E+02 -0.32246626574E+01  0.40313024323E+03  0.40365753256E+03  0.00000000000E+00 0. -1.
         -2    1    1    2    0  502 -0.20371846660E+02  0.32246626574E+01  0.87936372147E+02  0.90322843910E+02  0.00000000000E+00 0. -1.
</event>
<event>
 4    1  0.5847355E+003  0.5898363E+02  0.7546771E-02  0.1263326E+00
          2   -1    0    0  501    0  0.00000000000E+00  0.00000000000E+00  0.20094481722E+03  0.20094481722E+03  0.00000000000E+00 0. -1.
         -2   -1    0    0    0  501 -0.00000000000E+00 -0.00000000000E+00 -0.62235181439E+02  0.62235181439E+02  0.00000000000E+00 0. -1.
          2    1    1    2  502    0 -0.49574388665E+02 -0.31960103249E+02  0.18115246491E+03  0.19051321150E+03  0.00000000000E+00 0. -1.
         -2    1    1    2    0  502  0.49574388665E+02  0.31960103249E+02 -0.42442829134E+02  0.72666787160E+02  0.00000000000E+00 0. -1.
</event>
<event>
 4    1  0.5847355E+003  0.2257779E+02  0.7546771E-02  0.1497869E+00
          2   -1    0    0  501    0  0.00000000000E+00  0.00000000000E+00  0.18869574884E+04  0.18869574884E+04  0.00000000000E+00 0.  1.
         -2   -1    0    0    0  501 -0.00000000000E+00 -0.00000000000E+00 -0.42893637101E+00  0.42893637101E+00  0.00000000000E+00 0.  1.
          2    1    1    2  502    0  0.93619354379E+01  0.20545332254E+02  0.15174397907E+04  0.15176077474E+04  0.00000000000E+00 0.  1.
         -2    1    1    2    0  502 -0.93619354379E+01 -0.20545332254E+02  0.36908876133E+03  0.36977867739E+03  0.00000000000E+00 0.  1.
</event>
<event>
 4    1  0.5847355E+003  0.2106005E+02  0.7546771E-02  0.1518409E+00
          2   -1    0    0  501    0  0.00000000000E+00  0.00000000000E+00  0.89123932609E+03  0.89123932609E+03  0.00000000000E+00 0. -1.
         -2   -1    0    0    0  501 -0.00000000000E+00 -0.00000000000E+00 -0.81469769849E+02  0.81469769849E+02  0.00000000000E+00 0.  1.
          2    1    1    2  502    0 -0.19001273054E+02 -0.90817142141E+01  0.88975162429E+03  0.89000083081E+03  0.00000000000E+00 0. -1.
         -2    1    1    2    0  502  0.19001273054E+02  0.90817142141E+01 -0.79982068052E+02  0.82708265129E+02  0.00000000000E+00 0.  1.
</event>
<event>
 4    1  0.5847355E+003  0.4944229E+02  0.7546771E-02  0.1300609E+00
          2   -1    0    0  501    0  0.00000000000E+00  0.00000000000E+00  0.18710763823E+04  0.18710763823E+04  0.00000000000E+00 0.  1.
         -2   -1    0    0    0  501 -0.00000000000E+00 -0.00000000000E+00 -0.34457240593E+01  0.34457240593E+01  0.00000000000E+00 0. -1.
          2    1    1    2  502    0  0.16916003075E+02  0.46458468131E+02  0.16723137868E+04  0.16730445128E+04  0.00000000000E+00 0.  1.
         -2    1    1    2    0  502 -0.16916003075E+02 -0.46458468131E+02  0.19531687144E+03  0.20147759352E+03  0.00000000000E+00 0. -1.
</event>
<event>
 4    1  0.5847355E+003  0.3277376E+02  0.7546771E-02  0.1396928E+00
          2   -1    0    0  501    0  0.00000000000E+00  0.00000000000E+00  0.72676538486E+03  0.72676538486E+03  0.00000000000E+00 0. -1.
         -2   -1    0    0    0  501 -0.00000000000E+00 -0.00000000000E+00 -0.73395708582E+03  0.73395708582E+03  0.00000000000E+00 0. -1.
          2    1    1    2  502    0 -0.30964697136E+01  0.32627155192E+02  0.72602966214E+03  0.72676900710E+03  0.00000000000E+00 0. -1.
         -2    1    1    2    0  502  0.30964697136E+01 -0.32627155192E+02 -0.73322136311E+03  0.73395346358E+03  0.00000000000E+00 0. -1.
</event>
<event>
 4    1  0.5847355E+003  0.2212271E+02  0.7546771E-02  0.1503818E+00
          2   -1    0    0  501    0  0.00000000000E+00  0.00000000000E+00  0.10309016938E+04  0.10309016938E+04  0.00000000000E+00 0. -1.
         -2   -1    0    0    0  501 -0.00000000000E+00 -0.00000000000E+00 -0.83756320214E+03  0.83756320214E+03  0.00000000000E+00 0.  1.
          2    1    1    2  502    0 -0.18716826140E+02 -0.11793848384E+02  0.10306368875E+04  0.10308742931E+04  0.00000000000E+00 0. -1.
         -2    1    1    2    0  502  0.18716826140E+02  0.11793848384E+02 -0.83729839576E+03  0.83759060285E+03  0.00000000000E+00 0.  1.
</event>
<event>
 4    1  0.5847355E+003  0.2087420E+02  0.7546771E-02  0.1521069E+00
          2   -1    0    0  501    0  0.00000000000E+00  0.00000000000E+00  0.14159723480E+04  0.14159723480E+04  0.00000000000E+00 0.  1.
         -2   -1    0    0    0  501 -0.00000000000E+00 -0.00000000000E+00 -0.73657615055E+01  0.73657615055E+01  0.00000000000E+00 0.  1.
          2    1    1    2  502    0 -0.51728335891E+01 -0.20223105366E+02  0.14009477085E+04  0.14011032133E+04  0.00000000000E+00 0.  1.
         -2    1    1    2    0  502  0.51728335891E+01  0.20223105366E+02  0.76588779317E+01  0.22234896203E+02  0.00000000000E+00 0.  1.
</event>
<event>
 4    1  0.5847355E+003  0.2294292E+02  0.7546771E-02  0.1493216E+00
          2   -1    0    0  501    0  0.00000000000E+00  0.00000000000E+00  0.80149852942E+03  0.80149852942E+03  0.00000000000E+00 0.  1.
         -2   -1    0    0    0  501 -0.00000000000E+00 -0.00000000000E+00 -0.10020634219E+01  0.10020634219E+01  0.00000000000E+00 0.  1.
          2    1    1    2  502    0  0.13468750825E+02  0.18573371654E+02  0.63579644245E+03  0.63621025897E+03  0.00000000000E+00 0.  1.
         -2    1    1    2    0  502 -0.13468750825E+02 -0.18573371654E+02  0.16470002355E+03  0.16629033388E+03  0.00000000000E+00 0.  1.
</event>
<event>
 4    1  0.5847355E+003  0.3739911E+02  0.7546771E-02  0.1364440E+00
          2   -1    0    0  501    0  0.00000000000E+00  0.00000000000E+00  0.13293152522E+04  0.13293152522E+04  0.00000000000E+00 0.  1.
         -2   -1    0    0    0  501 -0.00000000000E+00 -0.00000000000E+00 -0.25917132500E+01  0.25917132500E+01  0.00000000000E+00 0. -1.
          2    1    1    2  502    0 -0.30889653170E+02  0.21083701013E+02  0.11766288962E+04  0.11772231107E+04  0.00000000000E+00 0.  1.
         -2    1    1    2    0  502  0.30889653170E+02 -0.21083701013E+02  0.15009464276E+03  0.15468385471E+03  0.00000000000E+00 0. -1.
</event>
<event>
 4    1  0.5847355E+003  0.2842807E+02  0.7546771E-02  0.1433767E+00
          2   -1    0    0  501    0  0.00000000000E+00  0.00000000000E+00  0.43679155582E+03  0.43679155582E+03  0.00000000000E+00 0.  1.
         -2   -1    0    0    0  501 -0.00000000000E+00 -0.00000000000E+00 -0.14403615924E+02  0.14403615924E+02  0.00000000000E+00 0. -1.
          2    1    1    2  502    0 -0.24171358521E+02 -0.14963306546E+02  0.42180422163E+03  0.42276111044E+03  0.00000000000E+00 0.  1.
         -2    1    1    2    0  502  0.24171358521E+02  0.14963306546E+02  0.58371827263E+00  0.28434061310E+02  0.00000000000E+00 0. -1.
</event>
<event>
 4    1  0.5847355E+003  0.2494820E+02  0.7546771E-02  0.1469384E+00
          2   -1    0    0  501    0  0.00000000000E+00  0.00000000000E+00  0.11437043206E+04  0.11437043206E+04  0.00000000000E+00 0. -1.
         -2   -1    0    0    0  501 -0.00000000000E+00 -0.00000000000E+00 -0.22654728725E+01  0.22654728725E+01  0.00000000000E+00 0.  1.
          2    1    1    2  502    0  0.11278257585E+02  0.22253392610E+02  0.10701643961E+04  0.10704551589E+04  0.00000000000E+00 0. -1.
         -2    1    1    2    0  502 -0.11278257585E+02 -0.22253392610E+02  0.71274451618E+02  0.75514634543E+02  0.00000000000E+00 0.  1.
</event>
<event>
 4    1  0.5847355E+003  0.3484549E+02  0.7546771E-02  0.1381653E+00
          2   -1    0    0  501    0  0.00000000000E+00  0.00000000000E+00  0.43185146474E+03  0.43185146474E+03  0.00000000000E+00 0.  1.
         -2   -1    0    0    0  501 -0.00000000000E+00 -0.00000000000E+00 -0.60944129429E+01  0.60944129429E+01  0.00000000000E+00 0.  1.
          2    1    1    2  502    0  0.25996658071E+02 -0.23203057453E+02  0.37358943269E+03  0.37521097042E+03  0.00000000000E+00 0.  1.
         -2    1    1    2    0  502 -0.25996658071E+02  0.23203057453E+02  0.52167619109E+02  0.62734907265E+02  0.00000000000E+00 0.  1.
</event>
<event>
 4    1  0.5847355E+003  0.2293529E+02  0.7546771E-02  0.1493312E+00
          2   -1    0    0  501    0  0.00000000000E+00  0.00000000000E+00  0.41768048342E+03  0.41768048342E+03  0.00000000000E+00 0. -1.
         -2   -1    0    0    0  501 -0.00000000000E+00 -0.00000000000E+00 -0.91782634459E+02  0.91782634459E+02  0.00000000000E+00 0.  1.
          2    1    1    2  502    0 -0.22877907527E+02  0.16213519227E+01  0.41592678878E+03  0.41655866460E+03  0.00000000000E+00 0. -1.
         -2    1    1    2    0  502  0.22877907527E+02 -0.16213519227E+01 -0.90028939813E+02  0.92904453277E+02  0.00000000000E+00 0.  1.
</event>
<event>
 4    1  0.5847355E+003  0.2657499E+02  0.7546771E-02  0.1451925E+00
          2   -1    0    0  501    0  0.00000000000E+00  0.00000000000E+00  0.11860859034E+04  0.11860859034E+04  0.00000000000E+00 0. -1.
         -2   -1    0    0    0  501 -0.00000000000E+00 -0.00000000000E+00 -0.92362257450E+00  0.92362257450E+00  0.00000000000E+00 0.  1.
          2    1    1    2  502    0  0.16204127041E+02 -0.21063147853E+02  0.94636823211E+03  0.94674128497E+03  0.00000000000E+00 0. -1.
         -2    1    1    2    0  502 -0.16204127041E+02  0.21063147853E+02  0.23879404872E+03  0.24026824100E+03  0.00000000000E+00 0.  1.
</event>
<event>
 4    1  0.5847355E+003  0.2572422E+02  0.7546771E-02  0.1460862E+00
          2   -1    0    0  501    0  0.00000000000E+00  0.00000000000E+00  0.13537069351E+03  0.13537069351E+03  0.00000000000E+00 0. -1.
         -2   -1    0    0    0  501 -0.00000000000E+00 -0.00000000000E+00 -0.45444225453E+03  0.45444225453E+03  0.00000000000E+00 0.  1.
          2    1    1    2  502    0  0.23624879745E+02 -0.10178443808E+02  0.13378028705E+03  0.13623105690E+03  0.00000000000E+00 0. -1.
         -2    1    1    2    0  502 -0.23624879745E+02  0.10178443808E+02 -0.45285184808E+03  0.45358189114E+03  0.00000000000E+00 0.  1.
</event>
<event>
 4    1  0.5847355E+003  0.3467067E+02  0.7546771E-02  0.1382893E+00
          2   -1    0    0  501    0  0.00000000000E+00  0.00000000000E+00  0.10503205619E+03  0.10503205619E+03  0.00000000000E+00 0.  1.
         -2   -1    0    0    0  501 -0.00000000000E+00 -0.00000000000E+00 -0.15149793953E+02  0.15149793953E+02  0.00000000000E+00 0. -1.
          2    1    1    2  502    0  0.21324207441E+02  0.27337401849E+02  0.74658334415E+02  0.82315990308E+02  0.00000000000E+00 0.  1.
         -2    1    1    2    0  502 -0.21324207441E+02 -0.27337401849E+02  0.15223927826E+02  0.37865859839E+02  0.00000000000E+00 0. -1.
</event>
<event>
 4    1  0.5847355E+003  0.2466781E+02  0.7546771E-02  0.1472554E+00
          2   -1    0    0  501    0  0.00000000000E+00  0.00000000000E+00  0.20669195109E+02  0.20669195109E+02  0.00000000000E+00 0.  1.
         -2   -1    0    0    0  501 -0.00000000000E+00 -0.00000000000E+00 -0.13768734194E+03  0.13768734194E+03  0.00000000000E+00 0.  1.
          2    1    1    2  502    0 -0.24341853008E+02  0.39968938767E+01  0.11695859057E+02  0.27300074864E+02  0.00000000000E+00 0.  1.
         -2    1    1    2    0  502  0.24341853008E+02 -0.39968938767E+01 -0.12871400589E+03  0.13105646219E+03  0.00000000000E+00 0.  1.
</event>
<event>
 4    1  0.5847355E+003  0.2109286E+02  0.7546771E-02  0.1517943E+00
          2   -1    0    0  501    0  0.00000000000E+00  0.00000000000E+00  0.20550897725E+01  0.20550897725E+01  0.00000000000E+00 0.  1.
         -2   -1    0    0    0  501 -0.00000000000E+00 -0.00000000000E+00 -0.22520208403E+03  0.22520208403E+03  0.00000000000E+00 0. -1.
          2    1    1    2  502    0 -0.18134522765E+02  0.10772545704E+02 -0.89225692105E+02  0.91684964899E+02  0.00000000000E+00 0.  1.
         -2    1    1    2    0  502  0.18134522765E+02 -0.10772545704E+02 -0.13392130215E+03  0.13557220890E+03  0.00000000000E+00 0. -1.
</event>
<event>
 4    1  0.5847355E+003  0.2066962E+02  0.7546771E-02  0.1524034E+00
          2   -1    0    0  501    0  0.00000000000E+00  0.00000000000E+00  0.68893635481E+03  0.68893635481E+03  0.00000000000E+00 0. -1.
         -2   -1    0    0    0  501 -0.00000000000E+00 -0.00000000000E+00 -0.27760147490E+02  0.27760147490E+02  0.00000000000E+00 0. -1.
          2    1    1    2  502    0  0.20186077212E+02  0.44447145367E+01  0.68491117376E+03  0.68522299228E+03  0.00000000000E+00 0. -1.
         -2    1    1    2    0  502 -0.20186077212E+02 -0.44447145367E+01 -0.23734966448E+02  0.31473510017E+02  0.00000000000E+00 0. -1.
</event>
<event>
 4    1  0.5847355E+003  0.2191596E+02  0.7546771E-02  0.1506578E+00
          2   -1    0    0  501    0  0.00000000000E+00  0.00000000000E+00  0.91602547084E+03  0.91602547084E+03  0.00000000000E+00 0.  1.
         -2   -1    0    0    0  501 -0.00000000000E+00 -0.00000000000E+00 -0.15128190358E+01  0.15128190358E+01  0.00000000000E+00 0.  1.
          2    1    1    2  502    0  0.37381165001E+01 -0.21594808906E+02  0.82809440653E+03  0.82838436454E+03  0.00000000000E+00 0.  1.
         -2    1    1    2    0  502 -0.37381165001E+01  0.21594808906E+02  0.86418245276E+02  0.89153925338E+02  0.00000000000E+00 0.  1.
</event>
<event>
 4    1  0.5847355E+003  0.3400676E+02  0.7546771E-02  0.1387684E+00
          2   -1    0    0  501    0  0.00000000000E+00  0.00000000000E+00  0.75281214222E+02  0.75281214222E+02  0.00000000000E+00 0.  1.
         -2   -1    0    0    0  501 -0.00000000000E+00 -0.00000000000E+00 -0.10461846141E+03  0.10461846141E+03  0.00000000000E+00 0. -1.
          2    1    1    2  502    0  0.14964249250E+02 -0.30537370294E+02  0.68415182759E+02  0.76400896409E+02  0.00000000000E+00 0.  1.
         -2    1    1    2    0  502 -0.14964249250E+02  0.30537370294E+02 -0.97752429951E+02  0.10349877923E+03  0.00000000000E+00 0. -1.
</event>
<event>
 4    1  0.5847355E+003  0.2353058E+02  0.7546771E-02  0.1485941E+00
          2   -1    0    0  501    0  0.00000000000E+00  0.00000000000E+00  0.30881267575E+02  0.30881267575E+02  0.00000000000E+00 0. -1.
         -2   -1    0    0    0  501 -0.00000000000E+00 -0.00000000000E+00 -0.16529527550E+03  0.16529527550E+03  0.00000000000E+00 0.  1.
          2    1    1    2  502    0  0.10907551357E+02 -0.20849787031E+02  0.25408789930E+02  0.34630837437E+02  0.00000000000E+00 0. -1.
         -2    1    1    2    0  502 -0.10907551357E+02  0.20849787031E+02 -0.15982279786E+03  0.16154570564E+03  0.00000000000E+00 0.  1.
</event>
<event>
 4    1  0.5847355E+003  0.2164010E+02  0.7546771E-02  0.1510319E+00
          2   -1    0    0  501    0  0.00000000000E+00  0.00000000000E+00  0.71912788523E+03  0.71912788523E+03  0.00000000000E+00 0.  1.
         -2   -1    0    0    0  501 -0.00000000000E+00 -0.00000000000E+00 -0.14064118041E+01  0.14064118041E+01  0.00000000000E+00 0. -1.
          2    1    1    2  502    0  0.53166443392E+01 -0.20976820893E+02  0.62286062184E+03  0.62323643023E+03  0.00000000000E+00 0.  1.
         -2    1    1    2    0  502 -0.53166443392E+01  0.20976820893E+02  0.94860851581E+02  0.97297866804E+02  0.00000000000E+00 0. -1.
</event>
<event>
 4    1  0.5847355E+003  0.2266803E+02  0.7546771E-02  0.1496709E+00
          2   -1    0    0  501    0  0.00000000000E+00  0.00000000000E+00  0.50553362819E+03  0.50553362819E+03  0.00000000000E+00 0. -1.
         -2   -1    0    0    0  501 -0.00000000000E+00 -0.00000000000E+00 -0.88422120175E+02  0.88422120175E+02  0.00000000000E+00 0.  1.
          2    1    1    2  502    0  0.15035395677E+01  0.22618106271E+02  0.50382178498E+03  0.50433146876E+03  0.00000000000E+00 0. -1.
         -2    1    1    2    0  502 -0.15035395677E+01 -0.22618106271E+02 -0.86710276967E+02  0.89624279602E+02  0.00000000000E+00 0.  1.
</event>
<event>
 4    1  0.5847355E+003  0.3304672E+02  0.7546771E-02  0.1394841E+00
          2   -1    0    0  501    0  0.00000000000E+00  0.00000000000E+00  0.94215067122E+03  0.94215067122E+03  0.00000000000E+00 0.  1.
         -2   -1    0    0    0  501 -0.00000000000E+00 -0.00000000000E+00 -0.73735860672E+01  0.73735860672E+01  0.00000000000E+00 0. -1.
          2    1    1    2  502    0  0.98719840800E+01  0.31537750544E+02  0.90323935187E+03  0.90384368812E+03  0.00000000000E+00 0.  1.
         -2    1    1    2    0  502 -0.98719840800E+01 -0.31537750544E+02  0.31537733275E+02  0.45680569164E+02  0.00000000000E+00 0. -1.
</event>
<event>
 4    1  0.5847355E+003  0.3017353E+02  0.7546771E-02  0.1418094E+00
          2   -1    0    0  501    0  0.00000000000E+00  0.00000000000E+00  0.82494707948E+03  0.82494707948E+03  0.00000000000E+00 0. -1.
         -2   -1    0    0    0  501 -0.00000000000E+00 -0.00000000000E+00 -0.82519332083E+01  0.82519332083E+01  0.00000000000E+00 0.  1.
          2    1    1    2  502    0 -0.22962392421E+02 -0.19574740655E+02  0.79608897471E+03  0.79666059121E+03  0.00000000000E+00 0. -1.
         -2    1    1    2    0  502  0.22962392421E+02  0.19574740655E+02  0.20606171560E+02  0.36538421473E+02  0.00000000000E+00 0.  1.
</event>
<event>
 4    1  0.5847355E+003  0.2528726E+02  0.7546771E-02  0.1465615E+00
          2   -1    0    0  501    0  0.00000000000E+00  0.00000000000E+00  0.35447381378E+03  0.35447381378E+03  0.00000000000E+00 0. -1.
         -2   -1    0    0    0  501 -0.00000000000E+00 -0.00000000000E+00 -0.65522052378E+02  0.65522052378E+02  0.00000000000E+00 0. -1.
          2    1    1    2  502    0  0.26867961738E+01  0.25144119164E+02  0.35156284512E+03  0.35247110473E+03  0.00000000000E+00 0. -1.
         -2    1    1    2    0  502 -0.26867961738E+01 -0.25144119164E+02 -0.62611083715E+02  0.67524761429E+02  0.00000000000E+00 0. -1.
</event>
<event>
 4    1  0.5847355E+003  0.2214240E+02  0.7546771E-02  0.1503557E+00
          2   -1    0    0  501    0  0.00000000000E+00  0.00000000000E+00  0.62959430719E+03  0.62959430719E+03  0.00000000000E+00 0. -1.
         -2   -1    0    0    0  501 -0.00000000000E+00 -0.00000000000E+00 -0.84974921088E+00  0.84974921088E+00  0.00000000000E+00 0.  1.
          2    1    1    2  502    0  0.17544882495E+02  0.13507883760E+02  0.40549991575E+03  0.40610401069E+03  0.00000000000E+00 0. -1.
         -2    1    1    2    0  502 -0.17544882495E+02 -0.13507883760E+02  0.22324464223E+03  0.22434004571E+03  0.00000000000E+00 0.  1.
</event>
<event>
 4    1  0.5847355E+003  0.3746689E+02  0.7546771E-02  0.1364005E+00
          2   -1    0    0  501    0  0.00000000000E+00  0.00000000000E+00  0.18115821546E+04  0.18115821546E+04  0.00000000000E+00 0.  1.
         -2   -1    0    0    0  501 -0.00000000000E+00 -0.00000000000E+00 -0.13533340156E+02  0.13533340156E+02  0.00000000000E+00 0.  1.
          2    1    1    2  502    0 -0.34979738411E+02  0.13423321520E+02  0.17850717041E+04  0.17854648573E+04  0.00000000000E+00 0.  1.
         -2    1    1    2    0  502  0.34979738411E+02 -0.13423321520E+02  0.12977110296E+02  0.39650637467E+02  0.00000000000E+00 0.  1.
</event>
<event>
 4    1  0.5847355E+003  0.2955312E+02  0.7546771E-02  0.1423520E+00
          2   -1    0    0  501    0  0.00000000000E+00  0.00000000000E+00  0.79241050090E+03  0.79241050090E+03  0.00000000000E+00 0.  1.
         -2   -1    0    0    0  501 -0.00000000000E+00 -0.00000000000E+00 -0.67278938034E+01  0.67278938034E+01  0.00000000000E+00 0.  1.
          2    1    1    2  502    0 -0.43062610573E+01 -0.29237694276E+02  0.75821803151E+03  0.75879375983E+03  0.00000000000E+00 0.  1.
         -2    1    1    2    0  502  0.43062610573E+01  0.29237694276E+02  0.27464575587E+02  0.40344634874E+02  0.00000000000E+00 0.  1.
</event>
<event>
 4    1  0.5847355E+003  0.2108855E+02  0.7546771E-02  0.1518004E+00
          2   -1    0    0  501    0  0.00000000000E+00  0.00000000000E+00  0.10214853727E+04  0.10214853727E+04  0.00000000000E+00 0. -1.
         -2   -1    0    0    0  501 -0.00000000000E+00 -0.00000000000E+00 -0.14619985642E+01  0.14619985642E+01  0.00000000000E+00 0. -1.
          2    1    1    2  502    0  0.41231710540E+01 -0.20681543835E+02  0.93861540392E+03  0.93885227980E+03  0.00000000000E+00 0. -1.
         -2    1    1    2    0  502 -0.41231710540E+01  0.20681543835E+02  0.81407970197E+02  0.84095091454E+02  0.00000000000E+00 0. -1.
</event>
<event>
 4    1  0.5847355E+003  0.2671648E+02  0.7546771E-02  0.1450477E+00
          2   -1    0    0  501    0  0.00000000000E+00  0.00000000000E+00  0.95722663683E+03  0.95722663683E+03  0.00000000000E+00 0.  1.
         -2   -1    0    0    0  501 -0.00000000000E+00 -0.00000000000E+00 -0.12406320732E+02  0.12406320732E+02  0.00000000000E+00 0.  1.
          2    1    1    2  502    0  0.17484063837E+02 -0.20200931116E+02  0.94243126738E+03  0.94280987683E+03  0.00000000000E+00 0.  1.
         -2    1    1    2    0  502 -0.17484063837E+02  0.20200931116E+02  0.23890487137E+01  0.26823080732E+02  0.00000000000E+00 0.  1.
</event>
<event>
 4    1  0.5847355E+003  0.2008906E+02  0.7546771E-02  0.1532679E+00
          2   -1    0    0  501    0  0.00000000000E+00  0.00000000000E+00  0.37175599460E+02  0.37175599460E+02  0.00000000000E+00 0. -1.
         -2   -1    0    0    0  501 -0.00000000000E+00 -0.00000000000E+00 -0.27250810228E+02  0.27250810228E+02  0.00000000000E+00 0. -1.
          2    1    1    2  502    0 -0.17204622889E+02  0.10371665262E+02  0.29948594345E+02  0.36062290448E+02  0.00000000000E+00 0. -1.
         -2    1    1    2    0  502  0.17204622889E+02 -0.10371665262E+02 -0.20023805113E+02  0.28364119241E+02  0.00000000000E+00 0. -1.
</event>
<event>
 4    1  0.5847355E+003  0.2018595E+02  0.7546771E-02  0.1531212E+00
          2   -1    0    0  501    0  0.00000000000E+00  0.00000000000E+00  0.92428940974E+03  0.92428940974E+03  0.00000000000E+00 0.  1.
         -2   -1    0    0    0  501 -0.00000000000E+00 -0.00000000000E+00 -0.84130376944E+01  0.84130376944E+01  0.00000000000E+00 0. -1.
          2    1    1    2  502    0  0.17739338423E+02 -0.96326764048E+01  0.91190642855E+03  0.91212981917E+03  0.00000000000E+00 0.  1.
         -2    1    1    2    0  502 -0.17739338423E+02  0.96326764048E+01  0.39699434931E+01  0.20572628265E+02  0.00000000000E+00 0. -1.
</event>
<event>
 4    1  0.5847355E+003  0.5734540E+02  0.7546771E-02  0.1269129E+00
          2   -1    0    0  501    0  0.00000000000E+00  0.00000000000E+00  0.51422796166E+03  0.51422796166E+03  0.00000000000E+00 0. -1.
         -2   -1    0    0    0  501 -0.00000000000E+00 -0.00000000000E+00 -0.73319517449E+01  0.73319517449E+01  0.00000000000E+00 0. -1.
          2    1    1    2  502    0 -0.51821702398E+02  0.24556177423E+02  0.34667032860E+03  0.35138129065E+03  0.00000000000E+00 0. -1.
         -2    1    1    2    0  502  0.51821702398E+02 -0.24556177423E+02  0.16022568132E+03  0.17017862276E+03  0.00000000000E+00 0. -1.
</event>
<event>
 4    1  0.5847355E+003  0.3073069E+02  0.7546771E-02  0.1413351E+00
          2   -1    0    0  501    0  0.00000000000E+00  0.00000000000E+00  0.17887761357E+02  0.17887761357E+02  0.00000000000E+00 0. -1.
         -2   -1    0    0    0  501 -0.00000000000E+00 -0.00000000000E+00 -0.77714901842E+02  0.77714901842E+02  0.00000000000E+00 0. -1.
          2    1    1    2  502    0  0.26092059559E+02 -0.16235106848E+02 -0.56982178348E+02  0.64740581675E+02  0.00000000000E+00 0. -1.
         -2    1    1    2    0  502 -0.26092059559E+02  0.16235106848E+02 -0.28449621368E+01  0.30862081524E+02  0.00000000000E+00 0. -1.
</event>
<event>
 4    1  0.5847355E+003  0.2188575E+02  0.7546771E-02  0.1506985E+00
          2   -1    0    0  501    0  0.00000000000E+00  0.00000000000E+00  0.17679913831E+03  0.17679913831E+03  0.00000000000E+00 0.  1.
         -2   -1    0    0    0  501 -0.00000000000E+00 -0.00000000000E+00 -0.36932736649E+01  0.36932736649E+01  0.00000000000E+00 0.  1.
          2    1    1    2  502    0  0.20233045473E+02  0.83432460751E+01  0.13313673558E+03  0.13492359410E+03  0.00000000000E+00 0.  1.
         -2    1    1    2    0  502 -0.20233045473E+02 -0.83432460751E+01  0.39969129064E+02  0.45568817873E+02  0.00000000000E+00 0.  1.
</event>
<event>
 4    1  0.5847355E+003  0.2063540E+02  0.7546771E-02  0.1524535E+00
          2   -1    0    0  501    0  0.00000000000E+00  0.00000000000E+00  0.28921951732E+03  0.28921951732E+03  0.00000000000E+00 0.  1.
         -2   -1    0    0    0  501 -0.00000000000E+00 -0.00000000000E+00 -0.31247888187E+03  0.31247888187E+03  0.00000000000E+00 0. -1.
          2    1    1    2  502    0  0.10116487071E+02 -0.17985448308E+02  0.28850992521E+03  0.28924694744E+03  0.00000000000E+00 0.  1.
         -2    1    1    2    0  502 -0.10116487071E+02  0.17985448308E+02 -0.31176928976E+03  0.31245145174E+03  0.00000000000E+00 0. -1.
</event>
<event>
 4    1  0.5847355E+003  0.2066653E+02  0.7546771E-02  0.1524080E+00
          2   -1    0    0  501    0  0.00000000000E+00  0.00000000000E+00  0.13321298974E+03  0.13321298974E+03  0.00000000000E+00 0. -1.
         -2   -1    0    0    0  501 -0.00000000000E+00 -0.00000000000E+00 -0.79455345297E+01  0.79455345297E+01  0.00000000000E+00 0.  1.
          2    1    1    2  502    0  0.10568133079E+02  0.17760063898E+02  0.11714357758E+03  0.11895260852E+03  0.00000000000E+00 0. -1.
         -2    1    1    2    0  502 -0.10568133079E+02 -0.17760063898E+02  0.81238776335E+01  0.22205915749E+02  0.00000000000E+00 0.  1.
</event>
<event>
 4    1  0.5847355E+003  0.8865363E+02  0.7546771E-02  0.1185069E+00
          2   -1    0    0  501    0  0.00000000000E+00  0.00000000000E+00  0.13214769036E+04  0.13214769036E+04  0.00000000000E+00 0. -1.
         -2   -1    0    0    0  501 -0.00000000000E+00 -0.00000000000E+00 -0.15480249396E+02  0.15480249396E+02  0.00000000000E+00 0.  1.
          2    1    1    2  502    0  0.17766333636E+02 -0.86855185988E+02  0.11775737196E+04  0.11809061482E+04  0.00000000000E+00 0. -1.
         -2    1    1    2    0  502 -0.17766333636E+02  0.86855185988E+02  0.12842293464E+03  0.15605100476E+03  0.00000000000E+00 0.  1.
</event>
<event>
 4    1  0.5847355E+003  0.2122492E+02  0.7546771E-02  0.1516078E+00
          2   -1    0    0  501    0  0.00000000000E+00  0.00000000000E+00  0.92045260329E+02  0.92045260329E+02  0.00000000000E+00 0. -1.
         -2   -1    0    0    0  501 -0.00000000000E+00 -0.00000000000E+00 -0.12030776714E+02  0.12030776714E+02  0.00000000000E+00 0. -1.
          2    1    1    2  502    0 -0.17699287541E+02  0.11714619325E+02  0.80086147512E+02  0.82850999443E+02  0.00000000000E+00 0. -1.
         -2    1    1    2    0  502  0.17699287541E+02 -0.11714619325E+02 -0.71663896363E-01  0.21225037600E+02  0.00000000000E+00 0. -1.
</event>
<event>
 4    1  0.5847355E+003  0.2502125E+02  0.7546771E-02  0.1468566E+00
          2   -1    0    0  501    0  0.00000000000E+00  0.00000000000E+00  0.17351914408E+04  0.17351914408E+04  0.00000000000E+00 0.  1.
         -2   -1    0    0    0  501 -0.00000000000E+00 -0.00000000000E+00 -0.49338382348E+00  0.49338382348E+00  0.00000000000E+00 0. -1.
          2    1    1    2  502    0 -0.14078679046E+02 -0.20684627321E+02  0.13172201144E+04  0.13174577386E+04  0.00000000000E+00 0.  1.
         -2    1    1    2    0  502  0.14078679046E+02  0.20684627321E+02  0.41747794253E+03  0.41822708606E+03  0.00000000000E+00 0. -1.
</event>
<event>
 4    1  0.5847355E+003  0.2294336E+02  0.7546771E-02  0.1493211E+00
          2   -1    0    0  501    0  0.00000000000E+00  0.00000000000E+00  0.52926281584E+02  0.52926281584E+02  0.00000000000E+00 0. -1.
         -2   -1    0    0    0  501 -0.00000000000E+00 -0.00000000000E+00 -0.13132028678E+02  0.13132028678E+02  0.00000000000E+00 0.  1.
          2    1    1    2  502    0  0.22734024714E+02 -0.30922246726E+01  0.36166299920E+02  0.42829884229E+02  0.00000000000E+00 0. -1.
         -2    1    1    2    0  502 -0.22734024714E+02  0.30922246726E+01  0.36279529860E+01  0.23228426033E+02  0.00000000000E+00 0.  1.
</event>
<event>
 4    1  0.5847355E+003  0.2022648E+02  0.7546771E-02  0.1530601E+00
          2   -1    0    0  501    0  0.00000000000E+00  0.00000000000E+00  0.27347945254E+01  0.27347945254E+01  0.00000000000E+00 0.  1.
         -2   -1    0    0    0  501 -0.00000000000E+00 -0.00000000000E+00 -0.28923931298E+03  0.28923931298E+03  0.00000000000E+00 0. -1.
          2    1    1    2  502    0  0.20155073596E+02 -0.16980934778E+01 -0.41814903203E+02  0.46449936953E+02  0.00000000000E+00 0.  1.
         -2    1    1    2    0  502 -0.20155073596E+02  0.16980934778E+01 -0.24468961525E+03  0.24552417055E+03  0.00000000000E+00 0. -1.
</event>
<event>
 4    1  0.5847355E+003  0.3817679E+02  0.7546771E-02  0.1359514E+00
          2   -1    0    0  501    0  0.00000000000E+00  0.00000000000E+00  0.65665643303E+03  0.65665643303E+03  0.00000000000E+00 0.  1.
         -2   -1    0    0    0  501 -0.00000000000E+00 -0.00000000000E+00 -0.82217194440E+02  0.82217194440E+02  0.00000000000E+00 0. -1.
          2    1    1    2  502    0 -0.16663722469E+02  0.34348036534E+02  0.65163567496E+03  0.65275303151E+03  0.00000000000E+00 0.  1.
         -2    1    1    2    0  502  0.16663722469E+02 -0.34348036534E+02 -0.77196436372E+02  0.86120595961E+02  0.00000000000E+00 0. -1.
</event>
<event>
 4    1  0.5847355E+003  0.2675611E+02  0.7546771E-02  0.1450074E+00
          2   -1    0    0  501    0  0.00000000000E+00  0.00000000000E+00  0.12144381885E+04  0.12144381885E+04  0.00000000000E+00 0.  1.
         -2   -1    0    0    0  501 -0.00000000000E+00 -0.00000000000E+00 -0.81105841990E+00  0.81105841990E+00  0.00000000000E+00 0.  1.
          2    1    1    2  502    0 -0.85772114923E+01  0.25344046747E+02  0.92440678313E+03  0.92479391756E+03  0.00000000000E+00 0.  1.
         -2    1    1    2    0  502  0.85772114923E+01 -0.25344046747E+02  0.28922034691E+03  0.29045532932E+03  0.00000000000E+00 0.  1.
</event>
<event>
 4    1  0.5847355E+003  0.2228795E+02  0.7546771E-02  0.1501638E+00
          2   -1    0    0  501    0  0.00000000000E+00  0.00000000000E+00  0.13353617478E+04  0.13353617478E+04  0.00000000000E+00 0. -1.
         -2   -1    0    0    0  501 -0.00000000000E+00 -0.00000000000E+00 -0.15330117317E+01  0.15330117317E+01  0.00000000000E+00 0. -1.
          2    1    1    2  502    0 -0.20145924542E+01 -0.22196717532E+02  0.12486330759E+04  0.12488319788E+04  0.00000000000E+00 0. -1.
         -2    1    1    2    0  502  0.20145924542E+01  0.22196717532E+02  0.85195660145E+02  0.88062780785E+02  0.00000000000E+00 0. -1.
</event>
<event>
 4    1  0.5847355E+003  0.2045694E+02  0.7546771E-02  0.1527161E+00
          2   -1    0    0  501    0  0.00000000000E+00  0.00000000000E+00  0.47814416721E+03  0.47814416721E+03  0.00000000000E+00 0.  1.
         -2   -1    0    0    0  501 -0.00000000000E+00 -0.00000000000E+00 -0.15419471300E+01  0.15419471300E+01  0.00000000000E+00 0.  1.
          2    1    1    2  502    0 -0.11930746431E+02 -0.16617574369E+02  0.39601246588E+03  0.39654048926E+03  0.00000000000E+00 0.  1.
         -2    1    1    2    0  502  0.11930746431E+02  0.16617574369E+02  0.80589754200E+02  0.83145625082E+02  0.00000000000E+00 0.  1.
</event>
<event>
 4    1  0.5847355E+003  0.2074873E+02  0.7546771E-02  0.1522883E+00
          2   -1    0    0  501    0  0.00000000000E+00  0.00000000000E+00  0.13682457236E+04  0.13682457236E+04  0.00000000000E+00 0. -1.
         -2   -1    0    0    0  501 -0.00000000000E+00 -0.00000000000E+00 -0.34426083011E+00  0.34426083011E+00  0.00000000000E+00 0.  1.
          2    1    1    2  502    0  0.16978225680E+02  0.11926842878E+02  0.88466208803E+03  0.88490537331E+03  0.00000000000E+00 0.  1.
         -2    1    1    2    0  502 -0.16978225680E+02 -0.11926842878E+02  0.48323937472E+03  0.48368461110E+03  0.00000000000E+00 0. -1.
</event>
<event>
 4    1  0.5847355E+003  0.2203820E+02  0.7546771E-02  0.1504942E+00
          2   -1    0    0  501    0  0.00000000000E+00  0.00000000000E+00  0.98165822881E+03  0.98165822881E+03  0.00000000000E+00 0. -1.
         -2   -1    0    0    0  501 -0.00000000000E+00 -0.00000000000E+00 -0.15294556835E+02  0.15294556835E+02  0.00000000000E+00 0. -1.
          2    1    1    2  502    0 -0.77634108960E+01 -0.20625506503E+02  0.97352945486E+03  0.97377886687E+03  0.00000000000E+00 0. -1.
         -2    1    1    2    0  502  0.77634108960E+01  0.20625506503E+02 -0.71657828882E+01  0.23173918780E+02  0.00000000000E+00 0. -1.
</event>
<event>
 4    1  0.5847355E+003  0.2282797E+02  0.7546771E-02  0.1494670E+00
          2   -1    0    0  501    0  0.00000000000E+00  0.00000000000E+00  0.34831581341E+02  0.34831581341E+02  0.00000000000E+00 0. -1.
         -2   -1    0    0    0  501 -0.00000000000E+00 -0.00000000000E+00 -0.20263341970E+02  0.20263341970E+02  0.00000000000E+00 0. -1.
          2    1    1    2  502    0 -0.79248610170E+01 -0.21408241648E+02  0.21375671020E+02  0.31273559826E+02  0.00000000000E+00 0. -1.
         -2    1    1    2    0  502  0.79248610170E+01  0.21408241648E+02 -0.68074316494E+01  0.23821363485E+02  0.00000000000E+00 0. -1.
</event>
<event>
 4    1  0.5847355E+003  0.2720563E+02  0.7546771E-02  0.1445553E+00
          2   -1    0    0  501    0  0.00000000000E+00  0.00000000000E+00  0.12665079359E+04  0.12665079359E+04  0.00000000000E+00 0. -1.
         -2   -1    0    0    0  501 -0.00000000000E+00 -0.00000000000E+00 -0.53117055139E+01  0.53117055139E+01  0.00000000000E+00 0. -1.
          2    1    1    2  502    0 -0.16107025322E+02 -0.21925096438E+02  0.12305071648E+04  0.12308078764E+04  0.00000000000E+00 0. -1.
         -2    1    1    2    0  502  0.16107025322E+02  0.21925096438E+02  0.30689065587E+02  0.41011764960E+02  0.00000000000E+00 0. -1.
</event>
<event>
 4    1  0.5847355E+003  0.1017642E+03  0.7546771E-02  0.1160786E+00
          2   -1    0    0  501    0  0.00000000000E+00  0.00000000000E+00  0.27348277031E+04  0.27348277031E+04  0.00000000000E+00 0.  1.
         -2   -1    0    0    0  501 -0.00000000000E+00 -0.00000000000E+00 -0.18271214551E+02  0.18271214551E+02  0.00000000000E+00 0. -1.
          2    1    1    2  502    0  0.60107771003E+00  0.10176243424E+03  0.25839104966E+04  0.25859136507E+04  0.00000000000E+00 0.  1.
         -2    1    1    2    0  502 -0.60107771003E+00 -0.10176243424E+03  0.13264599200E+03  0.16718526702E+03  0.00000000000E+00 0. -1.
</event>
<event>
 4    1  0.5847355E+003  0.2602914E+02  0.7546771E-02  0.1457612E+00
          2   -1    0    0  501    0  0.00000000000E+00  0.00000000000E+00  0.17626250763E+04  0.17626250763E+04  0.00000000000E+00 0. -1.
         -2   -1    0    0    0  501 -0.00000000000E+00 -0.00000000000E+00 -0.40890426856E+00  0.40890426856E+00  0.00000000000E+00 0.  1.
          2    1    1    2  502    0  0.14159256173E+02  0.21841037029E+02  0.66521938289E+03  0.66572843023E+03  0.00000000000E+00 0. -1.
         -2    1    1    2    0  502 -0.14159256173E+02 -0.21841037029E+02  0.10969967892E+04  0.10973055504E+04  0.00000000000E+00 0.  1.
</event>
<event>
 4    1  0.5847355E+003  0.2282048E+02  0.7546771E-02  0.1494765E+00
          2   -1    0    0  501    0  0.00000000000E+00  0.00000000000E+00  0.38231321285E+02  0.38231321285E+02  0.00000000000E+00 0. -1.
         -2   -1    0    0    0  501 -0.00000000000E+00 -0.00000000000E+00 -0.24593282988E+03  0.24593282988E+03  0.00000000000E+00 0. -1.
          2    1    1    2  502    0 -0.12982052304E+02  0.18768079352E+02  0.34240468333E+02  0.41148318997E+02  0.00000000000E+00 0. -1.
         -2    1    1    2    0  502  0.12982052304E+02 -0.18768079352E+02 -0.24194197693E+03  0.24301583217E+03  0.00000000000E+00 0. -1.
</event>
<event>
 4    1  0.5847355E+003  0.2254363E+02  0.7546771E-02  0.1498310E+00
          2   -1    0    0  501    0  0.00000000000E+00  0.00000000000E+00  0.25419665255E+03  0.25419665255E+03  0.00000000000E+00 0. -1.
         -2   -1    0    0    0  501 -0.00000000000E+00 -0.00000000000E+00 -0.69136961096E+03  0.69136961096E+03  0.00000000000E+00 0.  1.
          2    1    1    2  502    0  0.15991227714E+02  0.15890119292E+02  0.25351256155E+03  0.25451293507E+03  0.00000000000E+00 0. -1.
         -2    1    1    2    0  502 -0.15991227714E+02 -0.15890119292E+02 -0.69068551997E+03  0.69105332844E+03  0.00000000000E+00 0.  1.
</event>
<event>
 4    1  0.5847355E+003  0.2127311E+02  0.7546771E-02  0.1515401E+00
          2   -1    0    0  501    0  0.00000000000E+00  0.00000000000E+00  0.57959533426E+02  0.57959533426E+02  0.00000000000E+00 0.  1.
         -2   -1    0    0    0  501 -0.00000000000E+00 -0.00000000000E+00 -0.20751862344E+02  0.20751862344E+02  0.00000000000E+00 0. -1.
          2    1    1    2  502    0 -0.19776154612E+02 -0.78389433591E+01  0.49686039585E+02  0.54048569397E+02  0.00000000000E+00 0.  1.
         -2    1    1    2    0  502  0.19776154612E+02  0.78389433591E+01 -0.12478368503E+02  0.24662826373E+02  0.00000000000E+00 0. -1.
</event>
<event>
 4    1  0.5847355E+003  0.3822545E+02  0.7546771E-02  0.1359210E+00
          2   -1    0    0  501    0  0.00000000000E+00  0.00000000000E+00  0.81394965154E+01  0.81394965154E+01  0.00000000000E+00 0.  1.
         -2   -1    0    0    0  501 -0.00000000000E+00 -0.00000000000E+00 -0.30177834369E+03  0.30177834369E+03  0.00000000000E+00 0. -1.
          2    1    1    2  502    0 -0.32689436215E+02  0.19813778960E+02 -0.48187936064E+02  0.61508229196E+02  0.00000000000E+00 0.  1.
         -2    1    1    2    0  502  0.32689436215E+02 -0.19813778960E+02 -0.24545091111E+03  0.24840961101E+03  0.00000000000E+00 0. -1.
</event>
<event>
 4    1  0.5847355E+003  0.2569480E+02  0.7546771E-02  0.1461179E+00
          2   -1    0    0  501    0  0.00000000000E+00  0.00000000000E+00  0.47383771696E+03  0.47383771696E+03  0.00000000000E+00 0. -1.
         -2   -1    0    0    0  501 -0.00000000000E+00 -0.00000000000E+00 -0.11189774066E+02  0.11189774066E+02  0.00000000000E+00 0. -1.
          2    1    1    2  502    0  0.20591455534E+02  0.15369273792E+02  0.45823700899E+03  0.45895683787E+03  0.00000000000E+00 0. -1.
         -2    1    1    2    0  502 -0.20591455534E+02 -0.15369273792E+02  0.44109338972E+01  0.26070653151E+02  0.00000000000E+00 0. -1.
</event>
<event>
 4    1  0.5847355E+003  0.2023160E+02  0.7546771E-02  0.1530524E+00
          2   -1    0    0  501    0  0.00000000000E+00  0.00000000000E+00  0.12693076931E+04  0.12693076931E+04  0.00000000000E+00 0.  1.
         -2   -1    0    0    0  501 -0.00000000000E+00 -0.00000000000E+00 -0.41443611460E+02  0.41443611460E+02  0.00000000000E+00 0.  1.
          2    1    1    2  502    0  0.22771157845E+01  0.20103046750E+02  0.12667529710E+04  0.12669145224E+04  0.00000000000E+00 0.  1.
         -2    1    1    2    0  502 -0.22771157845E+01 -0.20103046750E+02 -0.38888889373E+02  0.43836782062E+02  0.00000000000E+00 0.  1.
</event>
<event>
 4    1  0.5847355E+003  0.3065012E+02  0.7546771E-02  0.1414029E+00
          2   -1    0    0  501    0  0.00000000000E+00  0.00000000000E+00  0.82782151321E+02  0.82782151321E+02  0.00000000000E+00 0.  1.
         -2   -1    0    0    0  501 -0.00000000000E+00 -0.00000000000E+00 -0.10349824536E+03  0.10349824536E+03  0.00000000000E+00 0.  1.
          2    1    1    2  502    0 -0.36413541672E+01  0.30433047629E+02  0.77527690296E+02  0.83366495733E+02  0.00000000000E+00 0.  1.
         -2    1    1    2    0  502  0.36413541672E+01 -0.30433047629E+02 -0.98243784337E+02  0.10291390095E+03  0.00000000000E+00 0.  1.
</event>
<event>
 4    1  0.5847355E+003  0.2761295E+02  0.7546771E-02  0.1441546E+00
          2   -1    0    0  501    0  0.00000000000E+00  0.00000000000E+00  0.24988261594E+03  0.24988261594E+03  0.00000000000E+00 0. -1.
         -2   -1    0    0    0  501 -0.00000000000E+00 -0.00000000000E+00 -0.54849916598E+02  0.54849916598E+02  0.00000000000E+00 0.  1.
          2    1    1    2  502    0 -0.26697838245E+02 -0.70498647693E+01  0.24558386212E+03  0.24713135878E+03  0.00000000000E+00 0. -1.
         -2    1    1    2    0  502  0.26697838245E+02  0.70498647693E+01 -0.50551162775E+02  0.57601173757E+02  0.00000000000E+00 0.  1.
</event>
<event>
 4    1  0.5847355E+003  0.2793311E+02  0.7546771E-02  0.1438454E+00
          2   -1    0    0  501    0  0.00000000000E+00  0.00000000000E+00  0.26062705780E+03  0.26062705780E+03  0.00000000000E+00 0.  1.
         -2   -1    0    0    0  501 -0.00000000000E+00 -0.00000000000E+00 -0.23433491878E+02  0.23433491878E+02  0.00000000000E+00 0.  1.
          2    1    1    2  502    0 -0.80294854797E+01 -0.26754172447E+02  0.25124452964E+03  0.25279254747E+03  0.00000000000E+00 0.  1.
         -2    1    1    2    0  502  0.80294854797E+01  0.26754172447E+02 -0.14050963724E+02  0.31268002207E+02  0.00000000000E+00 0.  1.
</event>
<event>
 4    1  0.5847355E+003  0.3952549E+02  0.7546771E-02  0.1351289E+00
          2   -1    0    0  501    0  0.00000000000E+00  0.00000000000E+00  0.18029082502E+04  0.18029082502E+04  0.00000000000E+00 0.  1.
         -2   -1    0    0    0  501 -0.00000000000E+00 -0.00000000000E+00 -0.10302455503E+01  0.10302455503E+01  0.00000000000E+00 0.  1.
          2    1    1    2  502    0 -0.12329566020E+01  0.39506255017E+02  0.12605007419E+04  0.12611202896E+04  0.00000000000E+00 0.  1.
         -2    1    1    2    0  502  0.12329566020E+01 -0.39506255017E+02  0.54137726276E+03  0.54281820621E+03  0.00000000000E+00 0.  1.
</event>
<event>
 4    1  0.5847355E+003  0.2183897E+02  0.7546771E-02  0.1507616E+00
          2   -1    0    0  501    0  0.00000000000E+00  0.00000000000E+00  0.31038962583E+01  0.31038962583E+01  0.00000000000E+00 0.  1.
         -2   -1    0    0    0  501 -0.00000000000E+00 -0.00000000000E+00 -0.23302554933E+03  0.23302554933E+03  0.00000000000E+00 0. -1.
          2    1    1    2  502    0  0.75235636231E+01 -0.20502110098E+02 -0.46057836024E+02  0.50973177135E+02  0.00000000000E+00 0.  1.
         -2    1    1    2    0  502 -0.75235636231E+01  0.20502110098E+02 -0.18386381705E+03  0.18515626846E+03  0.00000000000E+00 0. -1.
</event>
<event>
 4    1  0.5847355E+003  0.2125501E+02  0.7546771E-02  0.1515655E+00
          2   -1    0    0  501    0  0.00000000000E+00  0.00000000000E+00  0.17877169797E+02  0.17877169797E+02  0.00000000000E+00 0.  1.
         -2   -1    0    0    0  501 -0.00000000000E+00 -0.00000000000E+00 -0.62503435092E+02  0.62503435092E+02  0.00000000000E+00 0. -1.
          2    1    1    2  502    0  0.49626361798E+01  0.20667548523E+02  0.87059969708E+01  0.22968885543E+02  0.00000000000E+00 0.  1.
         -2    1    1    2    0  502 -0.49626361798E+01 -0.20667548523E+02 -0.53332262266E+02  0.57411719346E+02  0.00000000000E+00 0. -1.
</event>
<event>
 4    1  0.5847355E+003  0.2101834E+02  0.7546771E-02  0.1519003E+00
          2   -1    0    0  501    0  0.00000000000E+00  0.00000000000E+00  0.25033980531E+01  0.25033980531E+01  0.00000000000E+00 0. -1.
         -2   -1    0    0    0  501 -0.00000000000E+00 -0.00000000000E+00 -0.30320774259E+03  0.30320774259E+03  0.00000000000E+00 0.  1.
          2    1    1    2  502    0  0.19477862427E+02 -0.78983183436E+01 -0.51527151565E+02  0.55649060242E+02  0.00000000000E+00 0. -1.
         -2    1    1    2    0  502 -0.19477862427E+02  0.78983183436E+01 -0.24917719297E+03  0.25006208040E+03  0.00000000000E+00 0.  1.
</event>
<event>
 4    1  0.5847355E+003  0.2277967E+02  0.7546771E-02  0.1495283E+00
          2   -1    0    0  501    0  0.00000000000E+00  0.00000000000E+00  0.44940371049E+03  0.44940371049E+03  0.00000000000E+00 0.  1.
         -2   -1    0    0    0  501 -0.00000000000E+00 -0.00000000000E+00 -0.15918525531E+01  0.15918525531E+01  0.00000000000E+00 0. -1.
          2    1    1    2  502    0 -0.75729833162E+01  0.21484026335E+02  0.34207987382E+03  0.34283750311E+03  0.00000000000E+00 0.  1.
         -2    1    1    2    0  502  0.75729833162E+01 -0.21484026335E+02  0.10573198412E+03  0.10815805993E+03  0.00000000000E+00 0. -1.
</event>
<event>
 4    1  0.5847355E+003  0.2661543E+02  0.7546771E-02  0.1451510E+00
          2   -1    0    0  501    0  0.00000000000E+00  0.00000000000E+00  0.28557651957E+03  0.28557651957E+03  0.00000000000E+00 0. -1.
         -2   -1    0    0    0  501 -0.00000000000E+00 -0.00000000000E+00 -0.25158371489E+02  0.25158371489E+02  0.00000000000E+00 0.  1.
          2    1    1    2  502    0 -0.17555684019E+02 -0.20004478607E+02  0.27771844720E+03  0.27899089075E+03  0.00000000000E+00 0. -1.
         -2    1    1    2    0  502  0.17555684019E+02  0.20004478607E+02 -0.17300299122E+02  0.31744000306E+02  0.00000000000E+00 0.  1.
</event>
<event>
 4    1  0.5847355E+003  0.2044283E+02  0.7546771E-02  0.1527371E+00
          2   -1    0    0  501    0  0.00000000000E+00  0.00000000000E+00  0.20414473385E+03  0.20414473385E+03  0.00000000000E+00 0.  1.
         -2   -1    0    0    0  501 -0.00000000000E+00 -0.00000000000E+00 -0.20959806216E+01  0.20959806216E+01  0.00000000000E+00 0.  1.
          2    1    1    2  502    0  0.63818152670E+01  0.19421162073E+02  0.11676866305E+03  0.11854463199E+03  0.00000000000E+00 0.  1.
         -2    1    1    2    0  502 -0.63818152670E+01 -0.19421162073E+02  0.85280090175E+02  0.87696082482E+02  0.00000000000E+00 0.  1.
</event>
<event>
 4    1  0.5847355E+003  0.2080108E+02  0.7546771E-02  0.1522124E+00
          2   -1    0    0  501    0  0.00000000000E+00  0.00000000000E+00  0.89109821416E+02  0.89109821416E+02  0.00000000000E+00 0.  1.
         -2   -1    0    0    0  501 -0.00000000000E+00 -0.00000000000E+00 -0.18515391854E+02  0.18515391854E+02  0.00000000000E+00 0.  1.
          2    1    1    2  502    0  0.18132315169E+02  0.10193331863E+02  0.81518183365E+02  0.84130250725E+02  0.00000000000E+00 0.  1.
         -2    1    1    2    0  502 -0.18132315169E+02 -0.10193331863E+02 -0.10923753802E+02  0.23494962545E+02  0.00000000000E+00 0.  1.
</event>
<event>
 4    1  0.5847355E+003  0.2043885E+02  0.7546771E-02  0.1527430E+00
          2   -1    0    0  501    0  0.00000000000E+00  0.00000000000E+00  0.35277890516E+02  0.35277890516E+02  0.00000000000E+00 0. -1.
         -2   -1    0    0    0  501 -0.00000000000E+00 -0.00000000000E+00 -0.23680551270E+02  0.23680551270E+02  0.00000000000E+00 0. -1.
          2    1    1    2  502    0 -0.20405091152E+02 -0.11741987146E+01  0.26642465318E+02  0.33579271073E+02  0.00000000000E+00 0. -1.
         -2    1    1    2    0  502  0.20405091152E+02  0.11741987146E+01 -0.15045126072E+02  0.25379170713E+02  0.00000000000E+00 0. -1.
</event>
<event>
 4    1  0.5847355E+003  0.2313700E+02  0.7546771E-02  0.1490785E+00
          2   -1    0    0  501    0  0.00000000000E+00  0.00000000000E+00  0.14089176908E+03  0.14089176908E+03  0.00000000000E+00 0. -1.
         -2   -1    0    0    0  501 -0.00000000000E+00 -0.00000000000E+00 -0.69686046672E+01  0.69686046672E+01  0.00000000000E+00 0.  1.
          2    1    1    2  502    0 -0.15930602194E+02 -0.16779048286E+02  0.11681742673E+03  0.11908665641E+03  0.00000000000E+00 0. -1.
         -2    1    1    2    0  502  0.15930602194E+02  0.16779048286E+02  0.17105737684E+02  0.28773717336E+02  0.00000000000E+00 0.  1.
</event>
<event>
 4    1  0.5847355E+003  0.2635790E+02  0.7546771E-02  0.1454167E+00
          2   -1    0    0  501    0  0.00000000000E+00  0.00000000000E+00  0.11854999828E+04  0.11854999828E+04  0.00000000000E+00 0. -1.
         -2   -1    0    0    0  501 -0.00000000000E+00 -0.00000000000E+00 -0.25097639820E+02  0.25097639820E+02  0.00000000000E+00 0.  1.
          2    1    1    2  502    0  0.18866201287E+02  0.18406672638E+02  0.11783913701E+04  0.11786861161E+04  0.00000000000E+00 0. -1.
         -2    1    1    2    0  502 -0.18866201287E+02 -0.18406672638E+02 -0.17989027153E+02  0.31911506491E+02  0.00000000000E+00 0.  1.
</event>
<event>
 4    1  0.5847355E+003  0.4137975E+02  0.7546771E-02  0.1340585E+00
          2   -1    0    0  501    0  0.00000000000E+00  0.00000000000E+00  0.29675512720E+04  0.29675512720E+04  0.00000000000E+00 0.  1.
         -2   -1    0    0    0  501 -0.00000000000E+00 -0.00000000000E+00 -0.30421401904E+02  0.30421401904E+02  0.00000000000E+00 0.  1.
          2    1    1    2  502    0 -0.19090565520E+02 -0.36712863547E+02  0.29532675907E+04  0.29535574730E+04  0.00000000000E+00 0.  1.
         -2    1    1    2    0  502  0.19090565520E+02  0.36712863547E+02 -0.16137720630E+02  0.44415200876E+02  0.00000000000E+00 0.  1.
</event>
<event>
 4    1  0.5847355E+003  0.2084644E+02  0.7546771E-02  0.1521469E+00
          2   -1    0    0  501    0  0.00000000000E+00  0.00000000000E+00  0.60227258338E+03  0.60227258338E+03  0.00000000000E+00 0. -1.
         -2   -1    0    0    0  501 -0.00000000000E+00 -0.00000000000E+00 -0.10237719333E+01  0.10237719333E+01  0.00000000000E+00 0. -1.
          2    1    1    2  502    0 -0.20535916965E+02  0.35847223600E+01  0.46451608738E+03  0.46498362289E+03  0.00000000000E+00 0. -1.
         -2    1    1    2    0  502  0.20535916965E+02 -0.35847223600E+01  0.13673272406E+03  0.13831273242E+03  0.00000000000E+00 0. -1.
</event>
<event>
 4    1  0.5847355E+003  0.2776686E+02  0.7546771E-02  0.1440053E+00
          2   -1    0    0  501    0  0.00000000000E+00  0.00000000000E+00  0.13385979039E+04  0.13385979039E+04  0.00000000000E+00 0. -1.
         -2   -1    0    0    0  501 -0.00000000000E+00 -0.00000000000E+00 -0.57597814958E+00  0.57597814958E+00  0.00000000000E+00 0.  1.
          2    1    1    2  502    0 -0.25594784916E+02 -0.10765906206E+02  0.66724016790E+03  0.66781766928E+03  0.00000000000E+00 0. -1.
         -2    1    1    2    0  502  0.25594784916E+02  0.10765906206E+02  0.67078175782E+03  0.67135621273E+03  0.00000000000E+00 0.  1.
</event>
<event>
 4    1  0.5847355E+003  0.8869060E+02  0.7546771E-02  0.1184994E+00
          2   -1    0    0  501    0  0.00000000000E+00  0.00000000000E+00  0.85123128260E+02  0.85123128260E+02  0.00000000000E+00 0.  1.
         -2   -1    0    0    0  501 -0.00000000000E+00 -0.00000000000E+00 -0.15716059758E+03  0.15716059758E+03  0.00000000000E+00 0. -1.
          2    1    1    2  502    0  0.29097687396E+02 -0.83781541928E+02  0.41740579659E+02  0.98021926985E+02  0.00000000000E+00 0.  1.
         -2    1    1    2    0  502 -0.29097687396E+02  0.83781541928E+02 -0.11377804898E+03  0.14426179886E+03  0.00000000000E+00 0. -1.
</event>
<event>
 4    1  0.5847355E+003  0.2566091E+02  0.7546771E-02  0.1461544E+00
          2   -1    0    0  501    0  0.00000000000E+00  0.00000000000E+00  0.19205046920E+04  0.19205046920E+04  0.00000000000E+00 0. -1.
         -2   -1    0    0    0  501 -0.00000000000E+00 -0.00000000000E+00 -0.18840296771E+01  0.18840296771E+01  0.00000000000E+00 0. -1.
          2    1    1    2  502    0 -0.21830221479E+02  0.13487908961E+02  0.18286535088E+04  0.18288335456E+04  0.00000000000E+00 0. -1.
         -2    1    1    2    0  502  0.21830221479E+02 -0.13487908961E+02  0.89967153486E+02  0.93555176043E+02  0.00000000000E+00 0. -1.
</event>
<event>
 4    1  0.5847355E+003  0.3790550E+02  0.7546771E-02  0.1361217E+00
          2   -1    0    0  501    0  0.00000000000E+00  0.00000000000E+00  0.17267594219E+03  0.17267594219E+03  0.00000000000E+00 0.  1.
         -2   -1    0    0    0  501 -0.00000000000E+00 -0.00000000000E+00 -0.54713039246E+02  0.54713039246E+02  0.00000000000E+00 0. -1.
          2    1    1    2  502    0  0.19024009648E+02 -0.32785880035E+02  0.16367405342E+03  0.16800601964E+03  0.00000000000E+00 0.  1.
         -2    1    1    2    0  502 -0.19024009648E+02  0.32785880035E+02 -0.45711150481E+02  0.59382961791E+02  0.00000000000E+00 0. -1.
</event>
<event>
 4    1  0.5847355E+003  0.2106625E+02  0.7546771E-02  0.1518321E+00
          2   -1    0    0  501    0  0.00000000000E+00  0.00000000000E+00  0.45386043469E+03  0.45386043469E+03  0.00000000000E+00 0. -1.
         -2   -1    0    0    0  501 -0.00000000000E+00 -0.00000000000E+00 -0.14924032074E+01  0.14924032074E+01  0.00000000000E+00 0.  1.
          2    1    1    2  502    0  0.16825304424E+02 -0.12676588937E+02  0.35987721314E+03  0.36049326667E+03  0.00000000000E+00 0. -1.
         -2    1    1    2    0  502 -0.16825304424E+02  0.12676588937E+02  0.92490818341E+02  0.94859571228E+02  0.00000000000E+00 0.  1.
</event>
<event>
 4    1  0.5847355E+003  0.3873686E+02  0.7546771E-02  0.1356051E+00
          2   -1    0    0  501    0  0.00000000000E+00  0.00000000000E+00  0.37079285812E+03  0.37079285812E+03  0.00000000000E+00 0.  1.
         -2   -1    0    0    0  501 -0.00000000000E+00 -0.00000000000E+00 -0.28268915451E+02  0.28268915451E+02  0.00000000000E+00 0. -1.
          2    1    1    2  502    0 -0.32079953570E+02 -0.21712234677E+02  0.35595951096E+03  0.35806105345E+03  0.00000000000E+00 0.  1.
         -2    1    1    2    0  502  0.32079953570E+02  0.21712234677E+02 -0.13435568284E+02  0.41000720126E+02  0.00000000000E+00 0. -1.
</event>
<event>
 4    1  0.5847355E+003  0.2231453E+02  0.7546771E-02  0.1501290E+00
          2   -1    0    0  501    0  0.00000000000E+00  0.00000000000E+00  0.55869660812E+02  0.55869660812E+02  0.00000000000E+00 0. -1.
         -2   -1    0    0    0  501 -0.00000000000E+00 -0.00000000000E+00 -0.90572517681E+01  0.90572517681E+01  0.00000000000E+00 0.  1.
          2    1    1    2  502    0  0.20135814010E+02  0.96170085892E+01  0.19302069096E+02  0.29504368006E+02  0.00000000000E+00 0. -1.
         -2    1    1    2    0  502 -0.20135814010E+02 -0.96170085892E+01  0.27510339948E+02  0.35422544574E+02  0.00000000000E+00 0.  1.
</event>
<event>
 4    1  0.5847355E+003  0.2138304E+02  0.7546771E-02  0.1513866E+00
          2   -1    0    0  501    0  0.00000000000E+00  0.00000000000E+00  0.11877751941E+02  0.11877751941E+02  0.00000000000E+00 0. -1.
         -2   -1    0    0    0  501 -0.00000000000E+00 -0.00000000000E+00 -0.56124653759E+02  0.56124653759E+02  0.00000000000E+00 0.  1.
          2    1    1    2  502    0 -0.20936429853E+02 -0.43474510017E+01 -0.30671343957E+01  0.21601892015E+02  0.00000000000E+00 0. -1.
         -2    1    1    2    0  502  0.20936429853E+02  0.43474510017E+01 -0.41179767422E+02  0.46400513684E+02  0.00000000000E+00 0.  1.
</event>
<event>
 4    1  0.5847355E+003  0.2154704E+02  0.7546771E-02  0.1511596E+00
          2   -1    0    0  501    0  0.00000000000E+00  0.00000000000E+00  0.46376360845E+03  0.46376360845E+03  0.00000000000E+00 0. -1.
         -2   -1    0    0    0  501 -0.00000000000E+00 -0.00000000000E+00 -0.28903211299E+02  0.28903211299E+02  0.00000000000E+00 0. -1.
          2    1    1    2  502    0 -0.21516642354E+02  0.11442112924E+01  0.45945996412E+03  0.45996492664E+03  0.00000000000E+00 0. -1.
         -2    1    1    2    0  502  0.21516642354E+02 -0.11442112924E+01 -0.24599566966E+02  0.32701893104E+02  0.00000000000E+00 0. -1.
</event>
<event>
 4    1  0.5847355E+003  0.2862412E+02  0.7546771E-02  0.1431942E+00
          2   -1    0    0  501    0  0.00000000000E+00  0.00000000000E+00  0.11729888959E+02  0.11729888959E+02  0.00000000000E+00 0. -1.
         -2   -1    0    0    0  501 -0.00000000000E+00 -0.00000000000E+00 -0.17992258094E+03  0.17992258094E+03  0.00000000000E+00 0.  1.
          2    1    1    2  502    0 -0.18045350658E+02  0.22219486754E+02 -0.91449204212E+01  0.30049456592E+02  0.00000000000E+00 0. -1.
         -2    1    1    2    0  502  0.18045350658E+02 -0.22219486754E+02 -0.15904777156E+03  0.16160301331E+03  0.00000000000E+00 0.  1.
</event>
<event>
 4    1  0.5847355E+003  0.2060937E+02  0.7546771E-02  0.1524916E+00
          2   -1    0    0  501    0  0.00000000000E+00  0.00000000000E+00  0.78926039796E+03  0.78926039796E+03  0.00000000000E+00 0.  1.
         -2   -1    0    0    0  501 -0.00000000000E+00 -0.00000000000E+00 -0.90998876102E+01  0.90998876102E+01  0.00000000000E+00 0. -1.
          2    1    1    2  502    0 -0.19969031329E+02  0.50974293515E+01  0.77727699746E+03  0.77755017638E+03  0.00000000000E+00 0.  1.
         -2    1    1    2    0  502  0.19969031329E+02 -0.50974293515E+01  0.28835128902E+01  0.20810109197E+02  0.00000000000E+00 0. -1.
</event>
<event>
 4    1  0.5847355E+003  0.4140918E+02  0.7546771E-02  0.1340420E+00
          2   -1    0    0  501    0  0.00000000000E+00  0.00000000000E+00  0.19481505334E+04  0.19481505334E+04  0.00000000000E+00 0. -1.
         -2   -1    0    0    0  501 -0.00000000000E+00 -0.00000000000E+00 -0.59072815797E+01  0.59072815797E+01  0.00000000000E+00 0.  1.
          2    1    1    2  502    0  0.87855153888E+01  0.40466461855E+02  0.18724280803E+04  0.18728859111E+04  0.00000000000E+00 0. -1.
         -2    1    1    2    0  502 -0.87855153888E+01 -0.40466461855E+02  0.69815171446E+02  0.81171903882E+02  0.00000000000E+00 0.  1.
</event>
<event>
 4    1  0.5847355E+003  0.2200770E+02  0.7546771E-02  0.1505349E+00
          2   -1    0    0  501    0  0.00000000000E+00  0.00000000000E+00  0.11997045013E+01  0.11997045013E+01  0.00000000000E+00 0. -1.
         -2   -1    0    0    0  501 -0.00000000000E+00 -0.00000000000E+00 -0.65697054413E+03  0.65697054413E+03  0.00000000000E+00 0. -1.
          2    1    1    2  502    0 -0.21773879116E+02  0.31995455847E+01 -0.12356365113E+03  0.12550822597E+03  0.00000000000E+00 0. -1.
         -2    1    1    2    0  502  0.21773879116E+02 -0.31995455847E+01 -0.53220718850E+03  0.53266202267E+03  0.00000000000E+00 0. -1.
</event>
<event>
 4    1  0.5847355E+003  0.2172469E+02  0.7546771E-02  0.1509165E+00
          2   -1    0    0  501    0  0.00000000000E+00  0.00000000000E+00  0.17867198166E+03  0.17867198166E+03  0.00000000000E+00 0. -1.
         -2   -1    0    0    0  501 -0.00000000000E+00 -0.00000000000E+00 -0.97282617336E+01  0.97282617336E+01  0.00000000000E+00 0. -1.
          2    1    1    2  502    0  0.21430651772E+02 -0.35622056028E+01  0.16487217276E+03  0.16629731054E+03  0.00000000000E+00 0. -1.
         -2    1    1    2    0  502 -0.21430651772E+02  0.35622056028E+01  0.40715471652E+01  0.22102932847E+02  0.00000000000E+00 0. -1.
</event>
<event>
 4    1  0.5847355E+003  0.2650471E+02  0.7546771E-02  0.1452648E+00
          2   -1    0    0  501    0  0.00000000000E+00  0.00000000000E+00  0.15542104899E+03  0.15542104899E+03  0.00000000000E+00 0.  1.
         -2   -1    0    0    0  501 -0.00000000000E+00 -0.00000000000E+00 -0.46852421028E+01  0.46852421028E+01  0.00000000000E+00 0.  1.
          2    1    1    2  502    0 -0.93713664960E+01  0.24792685334E+02  0.90402831735E+02  0.94208129914E+02  0.00000000000E+00 0.  1.
         -2    1    1    2    0  502  0.93713664960E+01 -0.24792685334E+02  0.60332975150E+02  0.65898161177E+02  0.00000000000E+00 0.  1.
</event>
<event>
 4    1  0.5847355E+003  0.2246014E+02  0.7546771E-02  0.1499391E+00
          2   -1    0    0  501    0  0.00000000000E+00  0.00000000000E+00  0.95763717059E+03  0.95763717059E+03  0.00000000000E+00 0. -1.
         -2   -1    0    0    0  501 -0.00000000000E+00 -0.00000000000E+00 -0.66736192098E+00  0.66736192098E+00  0.00000000000E+00 0.  1.
          2    1    1    2  502    0 -0.19570147818E+02 -0.11021212071E+02  0.69840643304E+03  0.69876748887E+03  0.00000000000E+00 0. -1.
         -2    1    1    2    0  502  0.19570147818E+02  0.11021212071E+02  0.25856337563E+03  0.25953704363E+03  0.00000000000E+00 0.  1.
</event>
<event>
 4    1  0.5847355E+003  0.4380211E+02  0.7546771E-02  0.1327539E+00
          2   -1    0    0  501    0  0.00000000000E+00  0.00000000000E+00  0.67023835502E+03  0.67023835502E+03  0.00000000000E+00 0. -1.
         -2   -1    0    0    0  501 -0.00000000000E+00 -0.00000000000E+00 -0.72036436879E+01  0.72036436879E+01  0.00000000000E+00 0. -1.
          2    1    1    2  502    0  0.10260680830E+02  0.42583365365E+02  0.59446123688E+03  0.59607280321E+03  0.00000000000E+00 0. -1.
         -2    1    1    2    0  502 -0.10260680830E+02 -0.42583365365E+02  0.68573474446E+02  0.81369195489E+02  0.00000000000E+00 0. -1.
</event>
<event>
 4    1  0.5847355E+003  0.2488422E+02  0.7546771E-02  0.1470103E+00
          2   -1    0    0  501    0  0.00000000000E+00  0.00000000000E+00  0.54532407056E+03  0.54532407056E+03  0.00000000000E+00 0.  1.
         -2   -1    0    0    0  501 -0.00000000000E+00 -0.00000000000E+00 -0.11366124120E+01  0.11366124120E+01  0.00000000000E+00 0.  1.
          2    1    1    2  502    0  0.44662558401E+01 -0.24480125420E+02  0.26360600023E+03  0.26477792080E+03  0.00000000000E+00 0.  1.
         -2    1    1    2    0  502 -0.44662558401E+01  0.24480125420E+02  0.28058145792E+03  0.28168276218E+03  0.00000000000E+00 0.  1.
</event>
<event>
 4    1  0.5847355E+003  0.2052101E+02  0.7546771E-02  0.1526215E+00
          2   -1    0    0  501    0  0.00000000000E+00  0.00000000000E+00  0.10218681547E+04  0.10218681547E+04  0.00000000000E+00 0. -1.
         -2   -1    0    0    0  501 -0.00000000000E+00 -0.00000000000E+00 -0.21201302331E+01  0.21201302331E+01  0.00000000000E+00 0. -1.
          2    1    1    2  502    0  0.13136604550E+02  0.15765200159E+02  0.96942266117E+03  0.96963983412E+03  0.00000000000E+00 0. -1.
         -2    1    1    2    0  502 -0.13136604550E+02 -0.15765200159E+02  0.50325363288E+02  0.54348450808E+02  0.00000000000E+00 0. -1.
</event>
<event>
 4    1  0.5847355E+003  0.2425378E+02  0.7546771E-02  0.1477327E+00
          2   -1    0    0  501    0  0.00000000000E+00  0.00000000000E+00  0.92026938719E+01  0.92026938719E+01  0.00000000000E+00 0. -1.
         -2   -1    0    0    0  501 -0.00000000000E+00 -0.00000000000E+00 -0.75250697661E+02  0.75250697661E+02  0.00000000000E+00 0.  1.
          2    1    1    2  502    0 -0.76782125882E+01  0.23006323385E+02 -0.16639244437E+02  0.29412757770E+02  0.00000000000E+00 0. -1.
         -2    1    1    2    0  502  0.76782125882E+01 -0.23006323385E+02 -0.49408759352E+02  0.55040633762E+02  0.00000000000E+00 0.  1.
</event>
<event>
 4    1  0.5847355E+003  0.2399483E+02  0.7546771E-02  0.1480370E+00
          2   -1    0    0  501    0  0.00000000000E+00  0.00000000000E+00  0.98338040598E+03  0.98338040598E+03  0.00000000000E+00 0.  1.
         -2   -1    0    0    0  501 -0.00000000000E+00 -0.00000000000E+00 -0.77610040806E+01  0.77610040806E+01  0.00000000000E+00 0.  1.
          2    1    1    2  502    0  0.21575600402E+02  0.10499785617E+02  0.96432122366E+03  0.96461970457E+03  0.00000000000E+00 0.  1.
         -2    1    1    2    0  502 -0.21575600402E+02 -0.10499785617E+02  0.11298178232E+02  0.26521705489E+02  0.00000000000E+00 0.  1.
</event>
<event>
 4    1  0.5847355E+003  0.5057211E+02  0.7546771E-02  0.1295711E+00
          2   -1    0    0  501    0  0.00000000000E+00  0.00000000000E+00  0.83004925148E+03  0.83004925148E+03  0.00000000000E+00 0. -1.
         -2   -1    0    0    0  501 -0.00000000000E+00 -0.00000000000E+00 -0.10134588883E+02  0.10134588883E+02  0.00000000000E+00 0. -1.
          2    1    1    2  502    0 -0.48507894649E+02 -0.14301129700E+02  0.76041900542E+03  0.76209881378E+03  0.00000000000E+00 0. -1.
         -2    1    1    2    0  502  0.48507894649E+02  0.14301129700E+02  0.59495657172E+02  0.78085026582E+02  0.00000000000E+00 0. -1.
</event>
<event>
 4    1  0.5847355E+003  0.2601432E+02  0.7546771E-02  0.1457769E+00
          2   -1    0    0  501    0  0.00000000000E+00  0.00000000000E+00  0.71173751790E+03  0.71173751790E+03  0.00000000000E+00 0. -1.
         -2   -1    0    0    0  501 -0.00000000000E+00 -0.00000000000E+00 -0.11681571466E+01  0.11681571466E+01  0.00000000000E+00 0. -1.
          2    1    1    2  502    0  0.19172453169E+02 -0.17583000434E+02  0.50903058060E+03  0.50969488604E+03  0.00000000000E+00 0. -1.
         -2    1    1    2    0  502 -0.19172453169E+02  0.17583000434E+02  0.20153878015E+03  0.20321078901E+03  0.00000000000E+00 0. -1.
</event>
<event>
 4    1  0.5847355E+003  0.2252201E+02  0.7546771E-02  0.1498589E+00
          2   -1    0    0  501    0  0.00000000000E+00  0.00000000000E+00  0.60423387456E+01  0.60423387456E+01  0.00000000000E+00 0.  1.
         -2   -1    0    0    0  501 -0.00000000000E+00 -0.00000000000E+00 -0.14444039883E+03  0.14444039883E+03  0.00000000000E+00 0.  1.
          2    1    1    2  502    0  0.50271767110E+01  0.21953781385E+02 -0.20506372010E+02  0.30459026835E+02  0.00000000000E+00 0.  1.
         -2    1    1    2    0  502 -0.50271767110E+01 -0.21953781385E+02 -0.11789168808E+03  0.12002371074E+03  0.00000000000E+00 0.  1.
</event>
<event>
 4    1  0.5847355E+003  0.2109429E+02  0.7546771E-02  0.1517923E+00
          2   -1    0    0  501    0  0.00000000000E+00  0.00000000000E+00  0.11845788922E+03  0.11845788922E+03  0.00000000000E+00 0.  1.
         -2   -1    0    0    0  501 -0.00000000000E+00 -0.00000000000E+00 -0.45195835101E+01  0.45195835101E+01  0.00000000000E+00 0.  1.
          2    1    1    2  502    0 -0.19300997527E+02 -0.85112135861E+01  0.82237401818E+02  0.84899702708E+02  0.00000000000E+00 0.  1.
         -2    1    1    2    0  502  0.19300997527E+02  0.85112135861E+01  0.31700903890E+02  0.38077770020E+02  0.00000000000E+00 0.  1.
</event>
<event>
 4    1  0.5847355E+003  0.6633353E+02  0.7546771E-02  0.1239710E+00
          2   -1    0    0  501    0  0.00000000000E+00  0.00000000000E+00  0.14037343989E+04  0.14037343989E+04  0.00000000000E+00 0.  1.
         -2   -1    0    0    0  501 -0.00000000000E+00 -0.00000000000E+00 -0.14781597727E+02  0.14781597727E+02  0.00000000000E+00 0. -1.
          2    1    1    2  502    0  0.40206449313E+02 -0.52759629357E+02  0.13240560257E+04  0.13257165972E+04  0.00000000000E+00 0.  1.
         -2    1    1    2    0  502 -0.40206449313E+02  0.52759629357E+02  0.64896775475E+02  0.92799399369E+02  0.00000000000E+00 0. -1.
</event>
<event>
 4    1  0.5847355E+003  0.2840748E+02  0.7546771E-02  0.1433960E+00
          2   -1    0    0  501    0  0.00000000000E+00  0.00000000000E+00  0.72140803720E+03  0.72140803720E+03  0.00000000000E+00 0. -1.
         -2   -1    0    0    0  501 -0.00000000000E+00 -0.00000000000E+00 -0.18013519354E+02  0.18013519354E+02  0.00000000000E+00 0. -1.
          2    1    1    2  502    0  0.14029222352E+02 -0.24701536830E+02  0.70974469484E+03  0.71031297106E+03  0.00000000000E+00 0. -1.
         -2    1    1    2    0  502 -0.14029222352E+02  0.24701536830E+02 -0.63501769946E+01  0.29108585494E+02  0.00000000000E+00 0. -1.
</event>
<event>
 4    1  0.5847355E+003  0.2006381E+02  0.7546771E-02  0.1533062E+00
          2   -1    0    0  501    0  0.00000000000E+00  0.00000000000E+00  0.26241824786E+03  0.26241824786E+03  0.00000000000E+00 0.  1.
         -2   -1    0    0    0  501 -0.00000000000E+00 -0.00000000000E+00 -0.34367803303E+02  0.34367803303E+02  0.00000000000E+00 0. -1.
          2    1    1    2  502    0 -0.13546026995E+02 -0.14800732248E+02  0.25906863981E+03  0.25984440855E+03  0.00000000000E+00 0.  1.
         -2    1    1    2    0  502  0.13546026995E+02  0.14800732248E+02 -0.31018195251E+02  0.36941642614E+02  0.00000000000E+00 0. -1.
</event>
<event>
 4    1  0.5847355E+003  0.3255170E+02  0.7546771E-02  0.1398644E+00
          2   -1    0    0  501    0  0.00000000000E+00  0.00000000000E+00  0.60711441815E+00  0.60711441815E+00  0.00000000000E+00 0. -1.
         -2   -1    0    0    0  501 -0.00000000000E+00 -0.00000000000E+00 -0.18357637959E+04  0.18357637959E+04  0.00000000000E+00 0. -1.
          2    1    1    2  502    0 -0.15000149184E+02 -0.28889589464E+02 -0.71378222515E+03  0.71452409182E+03  0.00000000000E+00 0. -1.
         -2    1    1    2    0  502  0.15000149184E+02  0.28889589464E+02 -0.11213744564E+04  0.11218468185E+04  0.00000000000E+00 0. -1.
</event>
<event>
 4    1  0.5847355E+003  0.3497709E+02  0.7546771E-02  0.1380724E+00
          2   -1    0    0  501    0  0.00000000000E+00  0.00000000000E+00  0.15596460116E+04  0.15596460116E+04  0.00000000000E+00 0. -1.
         -2   -1    0    0    0  501 -0.00000000000E+00 -0.00000000000E+00 -0.84236940970E+00  0.84236940970E+00  0.00000000000E+00 0. -1.
          2    1    1    2  502    0  0.39146339839E+01 -0.34757338091E+02  0.98407139229E+03  0.98469279576E+03  0.00000000000E+00 0. -1.
         -2    1    1    2    0  502 -0.39146339839E+01  0.34757338091E+02  0.57473224992E+03  0.57579558526E+03  0.00000000000E+00 0. -1.
</event>
<event>
 4    1  0.5847355E+003  0.2828512E+02  0.7546771E-02  0.1435109E+00
          2   -1    0    0  501    0  0.00000000000E+00  0.00000000000E+00  0.28182985057E+03  0.28182985057E+03  0.00000000000E+00 0.  1.
         -2   -1    0    0    0  501 -0.00000000000E+00 -0.00000000000E+00 -0.33665606637E+01  0.33665606637E+01  0.00000000000E+00 0. -1.
          2    1    1    2  502    0  0.16427404092E+02 -0.23025815991E+02  0.19569349098E+03  0.19772705991E+03  0.00000000000E+00 0.  1.
         -2    1    1    2    0  502 -0.16427404092E+02  0.23025815991E+02  0.82769798918E+02  0.87469351319E+02  0.00000000000E+00 0. -1.
</event>
<event>
 4    1  0.5847355E+003  0.3560686E+02  0.7546771E-02  0.1376346E+00
          2   -1    0    0  501    0  0.00000000000E+00  0.00000000000E+00  0.11355964853E+03  0.11355964853E+03  0.00000000000E+00 0.  1.
         -2   -1    0    0    0  501 -0.00000000000E+00 -0.00000000000E+00 -0.13064365332E+03  0.13064365332E+03  0.00000000000E+00 0.  1.
          2    1    1    2  502    0  0.15361532937E+02  0.32122763976E+02  0.10822583972E+03  0.11393279178E+03  0.00000000000E+00 0.  1.
         -2    1    1    2    0  502 -0.15361532937E+02 -0.32122763976E+02 -0.12530984451E+03  0.13027051006E+03  0.00000000000E+00 0.  1.
</event>
<event>
 4    1  0.5847355E+003  0.2612935E+02  0.7546771E-02  0.1456556E+00
          2   -1    0    0  501    0  0.00000000000E+00  0.00000000000E+00  0.68557895901E+02  0.68557895901E+02  0.00000000000E+00 0. -1.
         -2   -1    0    0    0  501 -0.00000000000E+00 -0.00000000000E+00 -0.48194418542E+03  0.48194418542E+03  0.00000000000E+00 0.  1.
          2    1    1    2  502    0  0.21914760359E+02  0.14229765812E+02  0.65699232177E+02  0.70704540627E+02  0.00000000000E+00 0. -1.
         -2    1    1    2    0  502 -0.21914760359E+02 -0.14229765812E+02 -0.47908552169E+03  0.47979754069E+03  0.00000000000E+00 0.  1.
</event>
<event>
 4    1  0.5847355E+003  0.2768457E+02  0.7546771E-02  0.1440850E+00
          2   -1    0    0  501    0  0.00000000000E+00  0.00000000000E+00  0.87779601207E+03  0.87779601207E+03  0.00000000000E+00 0. -1.
         -2   -1    0    0    0  501 -0.00000000000E+00 -0.00000000000E+00 -0.24131658608E+01  0.24131658608E+01  0.00000000000E+00 0. -1.
          2    1    1    2  502    0 -0.12764783384E+02  0.24566147923E+02  0.78927362226E+03  0.78975900508E+03  0.00000000000E+00 0. -1.
         -2    1    1    2    0  502  0.12764783384E+02 -0.24566147923E+02  0.86109223957E+02  0.90450172853E+02  0.00000000000E+00 0. -1.
</event>
<event>
 4    1  0.5847355E+003  0.4159080E+02  0.7546771E-02  0.1339408E+00
          2   -1    0    0  501    0  0.00000000000E+00  0.00000000000E+00  0.28258676855E+04  0.28258676855E+04  0.00000000000E+00 0.  1.
         -2   -1    0    0    0  501 -0.00000000000E+00 -0.00000000000E+00 -0.12728613119E+02  0.12728613119E+02  0.00000000000E+00 0. -1.
          2    1    1    2  502    0 -0.33263824768E+02  0.24966236481E+02  0.27913196371E+04  0.27916294725E+04  0.00000000000E+00 0.  1.
         -2    1    1    2    0  502  0.33263824768E+02 -0.24966236481E+02  0.21819435240E+02  0.46966826127E+02  0.00000000000E+00 0. -1.
</event>
<event>
 4    1  0.5847355E+003  0.4221430E+02  0.7546771E-02  0.1335977E+00
          2   -1    0    0  501    0  0.00000000000E+00  0.00000000000E+00  0.23982864841E+04  0.23982864841E+04  0.00000000000E+00 0.  1.
         -2   -1    0    0    0  501 -0.00000000000E+00 -0.00000000000E+00 -0.23516292895E+03  0.23516292895E+03  0.00000000000E+00 0. -1.
          2    1    1    2  502    0  0.35845098797E+01  0.42061838078E+02  0.23962045946E+04  0.23965764136E+04  0.00000000000E+00 0.  1.
         -2    1    1    2    0  502 -0.35845098797E+01 -0.42061838078E+02 -0.23308103945E+03  0.23687299948E+03  0.00000000000E+00 0. -1.
</event>
<event>
 4    1  0.5847355E+003  0.2305382E+02  0.7546771E-02  0.1491823E+00
          2   -1    0    0  501    0  0.00000000000E+00  0.00000000000E+00  0.15247772120E+04  0.15247772120E+04  0.00000000000E+00 0.  1.
         -2   -1    0    0    0  501 -0.00000000000E+00 -0.00000000000E+00 -0.21057929074E+01  0.21057929074E+01  0.00000000000E+00 0. -1.
          2    1    1    2  502    0 -0.14859394047E+02  0.17626038789E+02  0.14587364406E+04  0.14589186001E+04  0.00000000000E+00 0.  1.
         -2    1    1    2    0  502  0.14859394047E+02 -0.17626038789E+02  0.63934978567E+02  0.67964404795E+02  0.00000000000E+00 0. -1.
</event>
<event>
 4    1  0.5847355E+003  0.3287379E+02  0.7546771E-02  0.1396161E+00
          2   -1    0    0  501    0  0.00000000000E+00  0.00000000000E+00  0.18505474848E+03  0.18505474848E+03  0.00000000000E+00 0.  1.
         -2   -1    0    0    0  501 -0.00000000000E+00 -0.00000000000E+00 -0.31179272558E+02  0.31179272558E+02  0.00000000000E+00 0.  1.
          2    1    1    2  502    0  0.31070371552E+02  0.10738631377E+02  0.17440520147E+03  0.17747636601E+03  0.00000000000E+00 0.  1.
         -2    1    1    2    0  502 -0.31070371552E+02 -0.10738631377E+02 -0.20529725548E+02  0.38757655029E+02  0.00000000000E+00 0.  1.
</event>
<event>
 4    1  0.5847355E+003  0.3704357E+02  0.7546771E-02  0.1366739E+00
          2   -1    0    0  501    0  0.00000000000E+00  0.00000000000E+00  0.25159993960E+02  0.25159993960E+02  0.00000000000E+00 0. -1.
         -2   -1    0    0    0  501 -0.00000000000E+00 -0.00000000000E+00 -0.38056301264E+03  0.38056301264E+03  0.00000000000E+00 0. -1.
          2    1    1    2  502    0 -0.35015013554E+02  0.12090271161E+02  0.10061693910E+02  0.38385720200E+02  0.00000000000E+00 0. -1.
         -2    1    1    2    0  502  0.35015013554E+02 -0.12090271161E+02 -0.36546471259E+03  0.36733728640E+03  0.00000000000E+00 0. -1.
</event>
<event>
 4    1  0.5847355E+003  0.3192585E+02  0.7546771E-02  0.1403567E+00
          2   -1    0    0  501    0  0.00000000000E+00  0.00000000000E+00  0.13555880693E+04  0.13555880693E+04  0.00000000000E+00 0. -1.
         -2   -1    0    0    0  501 -0.00000000000E+00 -0.00000000000E+00 -0.32133343398E+01  0.32133343398E+01  0.00000000000E+00 0. -1.
          2    1    1    2  502    0  0.28668760637E+02  0.14048550932E+02  0.12708116220E+04  0.12712125858E+04  0.00000000000E+00 0. -1.
         -2    1    1    2    0  502 -0.28668760637E+02 -0.14048550932E+02  0.81563112989E+02  0.87588817895E+02  0.00000000000E+00 0. -1.
</event>
<event>
 4    1  0.5847355E+003  0.4214791E+02  0.7546771E-02  0.1336339E+00
          2   -1    0    0  501    0  0.00000000000E+00  0.00000000000E+00  0.14560976721E+02  0.14560976721E+02  0.00000000000E+00 0.  1.
         -2   -1    0    0    0  501 -0.00000000000E+00 -0.00000000000E+00 -0.61648289648E+03  0.61648289648E+03  0.00000000000E+00 0.  1.
          2    1    1    2  502    0 -0.16036096049E+01  0.42117396237E+02 -0.18378985772E+02  0.45980797596E+02  0.00000000000E+00 0.  1.
         -2    1    1    2    0  502  0.16036096049E+01 -0.42117396237E+02 -0.58354293399E+03  0.58506307561E+03  0.00000000000E+00 0.  1.
</event>
<event>
 4    1  0.5847355E+003  0.2304991E+02  0.7546771E-02  0.1491872E+00
          2   -1    0    0  501    0  0.00000000000E+00  0.00000000000E+00  0.17019144040E+03  0.17019144040E+03  0.00000000000E+00 0.  1.
         -2   -1    0    0    0  501 -0.00000000000E+00 -0.00000000000E+00 -0.69696480411E+02  0.69696480411E+02  0.00000000000E+00 0.  1.
          2    1    1    2  502    0 -0.20740296026E+02 -0.10056773183E+02  0.16747446715E+03  0.16905323337E+03  0.00000000000E+00 0.  1.
         -2    1    1    2    0  502  0.20740296026E+02  0.10056773183E+02 -0.66979507157E+02  0.70834687443E+02  0.00000000000E+00 0.  1.
</event>
<event>
 4    1  0.5847355E+003  0.4289797E+02  0.7546771E-02  0.1332292E+00
          2   -1    0    0  501    0  0.00000000000E+00  0.00000000000E+00  0.90713613781E+03  0.90713613781E+03  0.00000000000E+00 0. -1.
         -2   -1    0    0    0  501 -0.00000000000E+00 -0.00000000000E+00 -0.22193163018E+01  0.22193163018E+01  0.00000000000E+00 0. -1.
          2    1    1    2  502    0  0.95274687913E+01 -0.41826589164E+02  0.58573782227E+03  0.58730659170E+03  0.00000000000E+00 0. -1.
         -2    1    1    2    0  502 -0.95274687913E+01  0.41826589164E+02  0.31917899924E+03  0.32204886240E+03  0.00000000000E+00 0. -1.
</event>
<event>
 4    1  0.5847355E+003  0.3110590E+02  0.7546771E-02  0.1410223E+00
          2   -1    0    0  501    0  0.00000000000E+00  0.00000000000E+00  0.29260625634E+03  0.29260625634E+03  0.00000000000E+00 0. -1.
         -2   -1    0    0    0  501 -0.00000000000E+00 -0.00000000000E+00 -0.21539769938E+02  0.21539769938E+02  0.00000000000E+00 0. -1.
          2    1    1    2  502    0 -0.28409538430E+02 -0.12667886472E+02  0.28004736491E+03  0.28176959349E+03  0.00000000000E+00 0. -1.
         -2    1    1    2    0  502  0.28409538430E+02  0.12667886472E+02 -0.89808785080E+01  0.32376432791E+02  0.00000000000E+00 0. -1.
</event>
<event>
 4    1  0.5847355E+003  0.3679982E+02  0.7546771E-02  0.1368333E+00
          2   -1    0    0  501    0  0.00000000000E+00  0.00000000000E+00  0.26862031768E+03  0.26862031768E+03  0.00000000000E+00 0.  1.
         -2   -1    0    0    0  501 -0.00000000000E+00 -0.00000000000E+00 -0.96477238005E+01  0.96477238005E+01  0.00000000000E+00 0.  1.
          2    1    1    2  502    0 -0.19073159312E+02  0.31471281059E+02  0.22562479928E+03  0.22860616131E+03  0.00000000000E+00 0.  1.
         -2    1    1    2    0  502  0.19073159312E+02 -0.31471281059E+02  0.33347794598E+02  0.49661880172E+02  0.00000000000E+00 0.  1.
</event>
<event>
 4    1  0.5847355E+003  0.2199102E+02  0.7546771E-02  0.1505572E+00
          2   -1    0    0  501    0  0.00000000000E+00  0.00000000000E+00  0.76604284022E+03  0.76604284022E+03  0.00000000000E+00 0.  1.
         -2   -1    0    0    0  501 -0.00000000000E+00 -0.00000000000E+00 -0.31218512809E+01  0.31218512809E+01  0.00000000000E+00 0.  1.
          2    1    1    2  502    0  0.64563939412E+01  0.21021887481E+02  0.72496367560E+03  0.72529713616E+03  0.00000000000E+00 0.  1.
         -2    1    1    2    0  502 -0.64563939412E+01 -0.21021887481E+02  0.37957313333E+02  0.43867555340E+02  0.00000000000E+00 0.  1.
</event>
<event>
 4    1  0.5847355E+003  0.2066456E+02  0.7546771E-02  0.1524108E+00
          2   -1    0    0  501    0  0.00000000000E+00  0.00000000000E+00  0.71828303407E+02  0.71828303407E+02  0.00000000000E+00 0.  1.
         -2   -1    0    0    0  501 -0.00000000000E+00 -0.00000000000E+00 -0.77477710355E+01  0.77477710355E+01  0.00000000000E+00 0.  1.
          2    1    1    2  502    0 -0.20140211394E+02  0.46255904111E+01  0.51232526775E+02  0.55243062926E+02  0.00000000000E+00 0.  1.
         -2    1    1    2    0  502  0.20140211394E+02 -0.46255904111E+01  0.12848005596E+02  0.24333011516E+02  0.00000000000E+00 0.  1.
</event>
<event>
 4    1  0.5847355E+003  0.2889072E+02  0.7546771E-02  0.1429487E+00
          2   -1    0    0  501    0  0.00000000000E+00  0.00000000000E+00  0.14507343123E+04  0.14507343123E+04  0.00000000000E+00 0. -1.
         -2   -1    0    0    0  501 -0.00000000000E+00 -0.00000000000E+00 -0.75411482196E+01  0.75411482196E+01  0.00000000000E+00 0. -1.
          2    1    1    2  502    0  0.23798408445E+02 -0.16380156602E+02  0.14223680515E+04  0.14226614311E+04  0.00000000000E+00 0. -1.
         -2    1    1    2    0  502 -0.23798408445E+02  0.16380156602E+02  0.20825112628E+02  0.35614029409E+02  0.00000000000E+00 0. -1.
</event>
<event>
 4    1  0.5847355E+003  0.6533528E+02  0.7546771E-02  0.1242708E+00
          2   -1    0    0  501    0  0.00000000000E+00  0.00000000000E+00  0.15651876080E+04  0.15651876080E+04  0.00000000000E+00 0. -1.
         -2   -1    0    0    0  501 -0.00000000000E+00 -0.00000000000E+00 -0.23819324406E+02  0.23819324406E+02  0.00000000000E+00 0. -1.
          2    1    1    2  502    0  0.30599668300E+02 -0.57726587152E+02  0.15183205744E+04  0.15197256545E+04  0.00000000000E+00 0. -1.
         -2    1    1    2    0  502 -0.30599668300E+02  0.57726587152E+02  0.23047709271E+02  0.69281277896E+02  0.00000000000E+00 0. -1.
</event>
<event>
 4    1  0.5847355E+003  0.2725810E+02  0.7546771E-02  0.1445033E+00
          2   -1    0    0  501    0  0.00000000000E+00  0.00000000000E+00  0.59398286763E+02  0.59398286763E+02  0.00000000000E+00 0.  1.
         -2   -1    0    0    0  501 -0.00000000000E+00 -0.00000000000E+00 -0.36558172983E+03  0.36558172983E+03  0.00000000000E+00 0. -1.
          2    1    1    2  502    0  0.18036852691E+02 -0.20437122754E+02  0.55731337751E+02  0.62040197042E+02  0.00000000000E+00 0.  1.
         -2    1    1    2    0  502 -0.18036852691E+02  0.20437122754E+02 -0.36191478082E+03  0.36293981955E+03  0.00000000000E+00 0. -1.
</event>
<event>
 4    1  0.5847355E+003  0.2306802E+02  0.7546771E-02  0.1491646E+00
          2   -1    0    0  501    0  0.00000000000E+00  0.00000000000E+00  0.29739193084E+03  0.29739193084E+03  0.00000000000E+00 0. -1.
         -2   -1    0    0    0  501 -0.00000000000E+00 -0.00000000000E+00 -0.36896332267E+02  0.36896332267E+02  0.00000000000E+00 0. -1.
          2    1    1    2  502    0 -0.22246744261E+02  0.61004773039E+01  0.29328863189E+03  0.29419441710E+03  0.00000000000E+00 0. -1.
         -2    1    1    2    0  502  0.22246744261E+02 -0.61004773039E+01 -0.32793033320E+02  0.40093846010E+02  0.00000000000E+00 0. -1.
</event>
<event>
 4    1  0.5847355E+003  0.3286230E+02  0.7546771E-02  0.1396249E+00
          2   -1    0    0  501    0  0.00000000000E+00  0.00000000000E+00  0.90561427174E+03  0.90561427174E+03  0.00000000000E+00 0. -1.
         -2   -1    0    0    0  501 -0.00000000000E+00 -0.00000000000E+00 -0.24822953387E+01  0.24822953387E+01  0.00000000000E+00 0.  1.
          2    1    1    2  502    0  0.81023850615E+01  0.31847794245E+02  0.77886024655E+03  0.77955321454E+03  0.00000000000E+00 0. -1.
         -2    1    1    2    0  502 -0.81023850615E+01 -0.31847794245E+02  0.12427172985E+03  0.12854335254E+03  0.00000000000E+00 0.  1.
</event>
<event>
 4    1  0.5847355E+003  0.2334902E+02  0.7546771E-02  0.1488161E+00
          2   -1    0    0  501    0  0.00000000000E+00  0.00000000000E+00  0.93463856181E+02  0.93463856181E+02  0.00000000000E+00 0. -1.
         -2   -1    0    0    0  501 -0.00000000000E+00 -0.00000000000E+00 -0.61477919502E+02  0.61477919502E+02  0.00000000000E+00 0.  1.
          2    1    1    2  502    0 -0.22158706285E+02 -0.73599294300E+01  0.89697063953E+02  0.92686245513E+02  0.00000000000E+00 0. -1.
         -2    1    1    2    0  502  0.22158706285E+02  0.73599294300E+01 -0.57711127274E+02  0.62255530170E+02  0.00000000000E+00 0.  1.
</event>
<event>
 4    1  0.5847355E+003  0.2387690E+02  0.7546771E-02  0.1481771E+00
          2   -1    0    0  501    0  0.00000000000E+00  0.00000000000E+00  0.80028579770E+03  0.80028579770E+03  0.00000000000E+00 0.  1.
         -2   -1    0    0    0  501 -0.00000000000E+00 -0.00000000000E+00 -0.12013960593E+01  0.12013960593E+01  0.00000000000E+00 0. -1.
          2    1    1    2  502    0 -0.14312777370E+02 -0.19111538042E+02  0.65521567296E+03  0.65565058116E+03  0.00000000000E+00 0.  1.
         -2    1    1    2    0  502  0.14312777370E+02  0.19111538042E+02  0.14386872867E+03  0.14583661259E+03  0.00000000000E+00 0. -1.
</event>
<event>
 4    1  0.5847355E+003  0.4831790E+02  0.7546771E-02  0.1305635E+00
          2   -1    0    0  501    0  0.00000000000E+00  0.00000000000E+00  0.38550766581E+03  0.38550766581E+03  0.00000000000E+00 0. -1.
         -2   -1    0    0    0  501 -0.00000000000E+00 -0.00000000000E+00 -0.16079901603E+02  0.16079901603E+02  0.00000000000E+00 0.  1.
          2    1    1    2  502    0 -0.34236889829E+02  0.34094795214E+02  0.34324984536E+03  0.34663392221E+03  0.00000000000E+00 0. -1.
         -2    1    1    2    0  502  0.34236889829E+02 -0.34094795214E+02  0.26177918841E+02  0.54953645199E+02  0.00000000000E+00 0.  1.
</event>
<event>
 4    1  0.5847355E+003  0.4143842E+02  0.7546771E-02  0.1340257E+00
          2   -1    0    0  501    0  0.00000000000E+00  0.00000000000E+00  0.32722276453E+02  0.32722276453E+02  0.00000000000E+00 0.  1.
         -2   -1    0    0    0  501 -0.00000000000E+00 -0.00000000000E+00 -0.52703846275E+02  0.52703846275E+02  0.00000000000E+00 0.  1.
          2    1    1    2  502    0  0.12667965756E+02  0.39454602960E+02 -0.71840463775E+01  0.42056552088E+02  0.00000000000E+00 0.  1.
         -2    1    1    2    0  502 -0.12667965756E+02 -0.39454602960E+02 -0.12797523445E+02  0.43369570640E+02  0.00000000000E+00 0.  1.
</event>
<event>
 4    1  0.5847355E+003  0.3825348E+02  0.7546771E-02  0.1359036E+00
          2   -1    0    0  501    0  0.00000000000E+00  0.00000000000E+00  0.13110337632E+04  0.13110337632E+04  0.00000000000E+00 0. -1.
         -2   -1    0    0    0  501 -0.00000000000E+00 -0.00000000000E+00 -0.10227875260E+02  0.10227875260E+02  0.00000000000E+00 0. -1.
          2    1    1    2  502    0 -0.27637416523E+02  0.26448094335E+02  0.12739454973E+04  0.12745196972E+04  0.00000000000E+00 0. -1.
         -2    1    1    2    0  502  0.27637416523E+02 -0.26448094335E+02  0.26860390628E+02  0.46741941238E+02  0.00000000000E+00 0. -1.
</event>
<event>
 4    1  0.5847355E+003  0.2188789E+02  0.7546771E-02  0.1506956E+00
          2   -1    0    0  501    0  0.00000000000E+00  0.00000000000E+00  0.55056724881E+02  0.55056724881E+02  0.00000000000E+00 0. -1.
         -2   -1    0    0    0  501 -0.00000000000E+00 -0.00000000000E+00 -0.99875374081E+01  0.99875374081E+01  0.00000000000E+00 0. -1.
          2    1    1    2  502    0  0.63916487025E+01 -0.20933847765E+02  0.10864692205E+02  0.24436053120E+02  0.00000000000E+00 0. -1.
         -2    1    1    2    0  502 -0.63916487025E+01  0.20933847765E+02  0.34204495268E+02  0.40608209169E+02  0.00000000000E+00 0. -1.
</event>
<event>
 4    1  0.5847355E+003  0.2251606E+02  0.7546771E-02  0.1498666E+00
          2   -1    0    0  501    0  0.00000000000E+00  0.00000000000E+00  0.26111399961E+02  0.26111399961E+02  0.00000000000E+00 0.  1.
         -2   -1    0    0    0  501 -0.00000000000E+00 -0.00000000000E+00 -0.11867582059E+03  0.11867582059E+03  0.00000000000E+00 0. -1.
          2    1    1    2  502    0  0.18378146116E+02 -0.13008330902E+02  0.19925163369E+02  0.30066344354E+02  0.00000000000E+00 0.  1.
         -2    1    1    2    0  502 -0.18378146116E+02  0.13008330902E+02 -0.11248958400E+03  0.11472087620E+03  0.00000000000E+00 0. -1.
</event>
<event>
 4    1  0.5847355E+003  0.2064316E+02  0.7546771E-02  0.1524421E+00
          2   -1    0    0  501    0  0.00000000000E+00  0.00000000000E+00  0.35756430660E+02  0.35756430660E+02  0.00000000000E+00 0. -1.
         -2   -1    0    0    0  501 -0.00000000000E+00 -0.00000000000E+00 -0.24872051575E+02  0.24872051575E+02  0.00000000000E+00 0. -1.
          2    1    1    2  502    0  0.10255568207E+01  0.20617672881E+02  0.27319605396E+02  0.34241802534E+02  0.00000000000E+00 0. -1.
         -2    1    1    2    0  502 -0.10255568207E+01 -0.20617672881E+02 -0.16435226310E+02  0.26386679701E+02  0.00000000000E+00 0. -1.
</event>
<event>
 4    1  0.5847355E+003  0.2164444E+02  0.7546771E-02  0.1510259E+00
          2   -1    0    0  501    0  0.00000000000E+00  0.00000000000E+00  0.65360234204E+02  0.65360234204E+02  0.00000000000E+00 0. -1.
         -2   -1    0    0    0  501 -0.00000000000E+00 -0.00000000000E+00 -0.89755687785E+01  0.89755687785E+01  0.00000000000E+00 0. -1.
          2    1    1    2  502    0  0.56106230211E+01 -0.20904611556E+02  0.44873319788E+02  0.49820645357E+02  0.00000000000E+00 0. -1.
         -2    1    1    2    0  502 -0.56106230211E+01  0.20904611556E+02  0.11511345637E+02  0.24515157625E+02  0.00000000000E+00 0. -1.
</event>
<event>
 4    1  0.5847355E+003  0.2929716E+02  0.7546771E-02  0.1425804E+00
          2   -1    0    0  501    0  0.00000000000E+00  0.00000000000E+00  0.17178039410E+04  0.17178039410E+04  0.00000000000E+00 0. -1.
         -2   -1    0    0    0  501 -0.00000000000E+00 -0.00000000000E+00 -0.27725341008E+01  0.27725341008E+01  0.00000000000E+00 0.  1.
          2    1    1    2  502    0 -0.11319251476E+02 -0.27022175783E+02  0.16364358191E+04  0.16366980520E+04  0.00000000000E+00 0. -1.
         -2    1    1    2    0  502  0.11319251476E+02  0.27022175783E+02  0.78595587824E+02  0.83878423110E+02  0.00000000000E+00 0.  1.
</event>
<event>
 4    1  0.5847355E+003  0.2416422E+02  0.7546771E-02  0.1478375E+00
          2   -1    0    0  501    0  0.00000000000E+00  0.00000000000E+00  0.29454378849E+03  0.29454378849E+03  0.00000000000E+00 0. -1.
         -2   -1    0    0    0  501 -0.00000000000E+00 -0.00000000000E+00 -0.72188837047E+01  0.72188837047E+01  0.00000000000E+00 0. -1.
          2    1    1    2  502    0  0.11110098706E+02 -0.21458683068E+02  0.27216731598E+03  0.27323791329E+03  0.00000000000E+00 0. -1.
         -2    1    1    2    0  502 -0.11110098706E+02  0.21458683068E+02  0.15157588812E+02  0.28524758909E+02  0.00000000000E+00 0. -1.
</event>
<event>
 4    1  0.5847355E+003  0.2305226E+02  0.7546771E-02  0.1491843E+00
          2   -1    0    0  501    0  0.00000000000E+00  0.00000000000E+00  0.37848880059E+03  0.37848880059E+03  0.00000000000E+00 0.  1.
         -2   -1    0    0    0  501 -0.00000000000E+00 -0.00000000000E+00 -0.29016224008E+03  0.29016224008E+03  0.00000000000E+00 0. -1.
          2    1    1    2  502    0 -0.14849960318E+02 -0.17631938216E+02  0.37767896131E+03  0.37838182354E+03  0.00000000000E+00 0.  1.
         -2    1    1    2    0  502  0.14849960318E+02  0.17631938216E+02 -0.28935240080E+03  0.29026921714E+03  0.00000000000E+00 0. -1.
</event>
<event>
 4    1  0.5847355E+003  0.2454709E+02  0.7546771E-02  0.1473934E+00
          2   -1    0    0  501    0  0.00000000000E+00  0.00000000000E+00  0.17517361021E+04  0.17517361021E+04  0.00000000000E+00 0.  1.
         -2   -1    0    0    0  501 -0.00000000000E+00 -0.00000000000E+00 -0.48512690514E+00  0.48512690514E+00  0.00000000000E+00 0. -1.
          2    1    1    2  502    0  0.10688758853E+02  0.22097739759E+02  0.13481987555E+04  0.13484222054E+04  0.00000000000E+00 0.  1.
         -2    1    1    2    0  502 -0.10688758853E+02 -0.22097739759E+02  0.40305221972E+03  0.40379902363E+03  0.00000000000E+00 0. -1.
</event>
<event>
 4    1  0.5847355E+003  0.2137259E+02  0.7546771E-02  0.1514011E+00
          2   -1    0    0  501    0  0.00000000000E+00  0.00000000000E+00  0.87283377417E+03  0.87283377417E+03  0.00000000000E+00 0. -1.
         -2   -1    0    0    0  501 -0.00000000000E+00 -0.00000000000E+00 -0.22735467166E+02  0.22735467166E+02  0.00000000000E+00 0.  1.
          2    1    1    2  502    0 -0.19247576857E+02 -0.92907631980E+01  0.86765008414E+03  0.86791327677E+03  0.00000000000E+00 0. -1.
         -2    1    1    2    0  502  0.19247576857E+02  0.92907631980E+01 -0.17551777130E+02  0.27655964566E+02  0.00000000000E+00 0.  1.
</event>
<event>
 4    1  0.5847355E+003  0.8055529E+02  0.7546771E-02  0.1202564E+00
          2   -1    0    0  501    0  0.00000000000E+00  0.00000000000E+00  0.36025851348E+03  0.36025851348E+03  0.00000000000E+00 0.  1.
         -2   -1    0    0    0  501 -0.00000000000E+00 -0.00000000000E+00 -0.23486895302E+03  0.23486895302E+03  0.00000000000E+00 0. -1.
          2    1    1    2  502    0 -0.79805189841E+02  0.10967516396E+02  0.34862059851E+03  0.35780647904E+03  0.00000000000E+00 0.  1.
         -2    1    1    2    0  502  0.79805189841E+02 -0.10967516396E+02 -0.22323103805E+03  0.23732098746E+03  0.00000000000E+00 0. -1.
</event>
<event>
 4    1  0.5847355E+003  0.2361190E+02  0.7546771E-02  0.1484954E+00
          2   -1    0    0  501    0  0.00000000000E+00  0.00000000000E+00  0.78503969164E+03  0.78503969164E+03  0.00000000000E+00 0.  1.
         -2   -1    0    0    0  501 -0.00000000000E+00 -0.00000000000E+00 -0.97036022597E+02  0.97036022597E+02  0.00000000000E+00 0. -1.
          2    1    1    2  502    0 -0.20246197062E+02 -0.12149623234E+02  0.78342280352E+03  0.78377854712E+03  0.00000000000E+00 0.  1.
         -2    1    1    2    0  502  0.20246197062E+02  0.12149623234E+02 -0.95419134477E+02  0.98297167124E+02  0.00000000000E+00 0. -1.
</event>
<event>
 4    1  0.5847355E+003  0.2123292E+02  0.7546771E-02  0.1515965E+00
          2   -1    0    0  501    0  0.00000000000E+00  0.00000000000E+00  0.51593815522E+00  0.51593815522E+00  0.00000000000E+00 0.  1.
         -2   -1    0    0    0  501 -0.00000000000E+00 -0.00000000000E+00 -0.89082351285E+03  0.89082351285E+03  0.00000000000E+00 0.  1.
          2    1    1    2  502    0  0.12880839730E+02 -0.16879596204E+02 -0.38358033263E+03  0.38416755248E+03  0.00000000000E+00 0.  1.
         -2    1    1    2    0  502 -0.12880839730E+02  0.16879596204E+02 -0.50672724207E+03  0.50717189853E+03  0.00000000000E+00 0.  1.
</event>
<event>
 4    1  0.5847355E+003  0.2033543E+02  0.7546771E-02  0.1528968E+00
          2   -1    0    0  501    0  0.00000000000E+00  0.00000000000E+00  0.18430434500E+04  0.18430434500E+04  0.00000000000E+00 0. -1.
         -2   -1    0    0    0  501 -0.00000000000E+00 -0.00000000000E+00 -0.22513050886E+00  0.22513050886E+00  0.00000000000E+00 0.  1.
          2    1    1    2  502    0  0.20334329421E+02 -0.21173188441E+00  0.97485854107E+03  0.97507061533E+03  0.00000000000E+00 0. -1.
         -2    1    1    2    0  502 -0.20334329421E+02  0.21173188441E+00  0.86795977841E+03  0.86819796516E+03  0.00000000000E+00 0.  1.
</event>
<event>
 4    1  0.5847355E+003  0.2298018E+02  0.7546771E-02  0.1492747E+00
          2   -1    0    0  501    0  0.00000000000E+00  0.00000000000E+00  0.25453798862E+02  0.25453798862E+02  0.00000000000E+00 0. -1.
         -2   -1    0    0    0  501 -0.00000000000E+00 -0.00000000000E+00 -0.41709010216E+02  0.41709010216E+02  0.00000000000E+00 0. -1.
          2    1    1    2  502    0  0.12219874384E+02  0.19461842723E+02  0.15679188269E+02  0.27819518272E+02  0.00000000000E+00 0. -1.
         -2    1    1    2    0  502 -0.12219874384E+02 -0.19461842723E+02 -0.31934399622E+02  0.39343290805E+02  0.00000000000E+00 0. -1.
</event>
<event>
 4    1  0.5847355E+003  0.3195881E+02  0.7546771E-02  0.1403305E+00
          2   -1    0    0  501    0  0.00000000000E+00  0.00000000000E+00  0.10160821819E+02  0.10160821819E+02  0.00000000000E+00 0.  1.
         -2   -1    0    0    0  501 -0.00000000000E+00 -0.00000000000E+00 -0.23957074725E+03  0.23957074725E+03  0.00000000000E+00 0.  1.
          2    1    1    2  502    0 -0.19116533389E+02  0.25611008721E+02 -0.19575893025E+02  0.37477742785E+02  0.00000000000E+00 0.  1.
         -2    1    1    2    0  502  0.19116533389E+02 -0.25611008721E+02 -0.20983403241E+03  0.21225382628E+03  0.00000000000E+00 0.  1.
</event>
<event>
 4    1  0.5847355E+003  0.3120498E+02  0.7546771E-02  0.1409406E+00
          2   -1    0    0  501    0  0.00000000000E+00  0.00000000000E+00  0.22093362407E+03  0.22093362407E+03  0.00000000000E+00 0.  1.
         -2   -1    0    0    0  501 -0.00000000000E+00 -0.00000000000E+00 -0.21040309941E+02  0.21040309941E+02  0.00000000000E+00 0.  1.
          2    1    1    2  502    0 -0.29221410857E+02 -0.10948065637E+02  0.20751789343E+03  0.20985096399E+03  0.00000000000E+00 0.  1.
         -2    1    1    2    0  502  0.29221410857E+02  0.10948065637E+02 -0.76245792979E+01  0.32122970024E+02  0.00000000000E+00 0.  1.
</event>
<event>
 4    1  0.5847355E+003  0.3156796E+02  0.7546771E-02  0.1406443E+00
          2   -1    0    0  501    0  0.00000000000E+00  0.00000000000E+00  0.57692920900E+01  0.57692920900E+01  0.00000000000E+00 0.  1.
         -2   -1    0    0    0  501 -0.00000000000E+00 -0.00000000000E+00 -0.50105250848E+03  0.50105250848E+03  0.00000000000E+00 0. -1.
          2    1    1    2  502    0  0.30031719154E+02  0.97278978335E+01 -0.42509674231E+02  0.52949112881E+02  0.00000000000E+00 0.  1.
         -2    1    1    2    0  502 -0.30031719154E+02 -0.97278978335E+01 -0.45277354216E+03  0.45387268769E+03  0.00000000000E+00 0. -1.
</event>
<event>
 4    1  0.5847355E+003  0.2579779E+02  0.7546771E-02  0.1460073E+00
          2   -1    0    0  501    0  0.00000000000E+00  0.00000000000E+00  0.29594382651E+03  0.29594382651E+03  0.00000000000E+00 0.  1.
         -2   -1    0    0    0  501 -0.00000000000E+00 -0.00000000000E+00 -0.15958377287E+02  0.15958377287E+02  0.00000000000E+00 0.  1.
          2    1    1    2  502    0  0.20042526914E+02 -0.16242626428E+02  0.28453860670E+03  0.28570569560E+03  0.00000000000E+00 0.  1.
         -2    1    1    2    0  502 -0.20042526914E+02  0.16242626428E+02 -0.45531574792E+01  0.26196508191E+02  0.00000000000E+00 0.  1.
</event>
<event>
 4    1  0.5847355E+003  0.2058482E+02  0.7546771E-02  0.1525276E+00
          2   -1    0    0  501    0  0.00000000000E+00  0.00000000000E+00  0.38788635400E+02  0.38788635400E+02  0.00000000000E+00 0. -1.
         -2   -1    0    0    0  501 -0.00000000000E+00 -0.00000000000E+00 -0.21039813450E+02  0.21039813450E+02  0.00000000000E+00 0.  1.
          2    1    1    2  502    0  0.23055358309E+01  0.20455299556E+02  0.29616521178E+02  0.36067618470E+02  0.00000000000E+00 0. -1.
         -2    1    1    2    0  502 -0.23055358309E+01 -0.20455299556E+02 -0.11867699229E+02  0.23760830380E+02  0.00000000000E+00 0.  1.
</event>
<event>
 4    1  0.5847355E+003  0.2128641E+02  0.7546771E-02  0.1515215E+00
          2   -1    0    0  501    0  0.00000000000E+00  0.00000000000E+00  0.12945186014E+02  0.12945186014E+02  0.00000000000E+00 0. -1.
         -2   -1    0    0    0  501 -0.00000000000E+00 -0.00000000000E+00 -0.44436822487E+02  0.44436822487E+02  0.00000000000E+00 0. -1.
          2    1    1    2  502    0  0.65890429495E+01  0.20240946715E+02 -0.25257411171E+01  0.21435736029E+02  0.00000000000E+00 0. -1.
         -2    1    1    2    0  502 -0.65890429495E+01 -0.20240946715E+02 -0.28965895355E+02  0.35946272472E+02  0.00000000000E+00 0. -1.
</event>
<event>
 4    1  0.5847355E+003  0.2219793E+02  0.7546771E-02  0.1502823E+00
          2   -1    0    0  501    0  0.00000000000E+00  0.00000000000E+00  0.28122385788E+03  0.28122385788E+03  0.00000000000E+00 0. -1.
         -2   -1    0    0    0  501 -0.00000000000E+00 -0.00000000000E+00 -0.18089153504E+01  0.18089153504E+01  0.00000000000E+00 0.  1.
          2    1    1    2  502    0 -0.20059678080E+02  0.95056365383E+01  0.11463946216E+03  0.11676880617E+03  0.00000000000E+00 0. -1.
         -2    1    1    2    0  502  0.20059678080E+02 -0.95056365383E+01  0.16477548037E+03  0.16626396706E+03  0.00000000000E+00 0.  1.
</event>
<event>
 4    1  0.5847355E+003  0.2622697E+02  0.7546771E-02  0.1455532E+00
          2   -1    0    0  501    0  0.00000000000E+00  0.00000000000E+00  0.46696390582E+02  0.46696390582E+02  0.00000000000E+00 0.  1.
         -2   -1    0    0    0  501 -0.00000000000E+00 -0.00000000000E+00 -0.16088876275E+02  0.16088876275E+02  0.00000000000E+00 0.  1.
          2    1    1    2  502    0 -0.26037567930E+02  0.31462843088E+01  0.24425952190E+02  0.35839659444E+02  0.00000000000E+00 0.  1.
         -2    1    1    2    0  502  0.26037567930E+02 -0.31462843088E+01  0.61815621168E+01  0.26945607413E+02  0.00000000000E+00 0.  1.
</event>
<event>
 4    1  0.5847355E+003  0.2428182E+02  0.7546771E-02  0.1477000E+00
          2   -1    0    0  501    0  0.00000000000E+00  0.00000000000E+00  0.37466416529E+03  0.37466416529E+03  0.00000000000E+00 0. -1.
         -2   -1    0    0    0  501 -0.00000000000E+00 -0.00000000000E+00 -0.19083888035E+01  0.19083888035E+01  0.00000000000E+00 0.  1.
          2    1    1    2  502    0  0.23343742715E+02 -0.66840482613E+01  0.26522932139E+03  0.26633850595E+03  0.00000000000E+00 0. -1.
         -2    1    1    2    0  502 -0.23343742715E+02  0.66840482613E+01  0.10752645510E+03  0.11023404815E+03  0.00000000000E+00 0.  1.
</event>
<event>
 4    1  0.5847355E+003  0.2219962E+02  0.7546771E-02  0.1502801E+00
          2   -1    0    0  501    0  0.00000000000E+00  0.00000000000E+00  0.85404945624E+03  0.85404945624E+03  0.00000000000E+00 0.  1.
         -2   -1    0    0    0  501 -0.00000000000E+00 -0.00000000000E+00 -0.39749294260E+02  0.39749294260E+02  0.00000000000E+00 0.  1.
          2    1    1    2  502    0  0.12538471140E+02  0.18319655049E+02  0.85079376573E+03  0.85108334187E+03  0.00000000000E+00 0.  1.
         -2    1    1    2    0  502 -0.12538471140E+02 -0.18319655049E+02 -0.36493603746E+02  0.42715408625E+02  0.00000000000E+00 0.  1.
</event>
<event>
 4    1  0.5847355E+003  0.2130842E+02  0.7546771E-02  0.1514907E+00
          2   -1    0    0  501    0  0.00000000000E+00  0.00000000000E+00  0.94210051064E+02  0.94210051064E+02  0.00000000000E+00 0.  1.
         -2   -1    0    0    0  501 -0.00000000000E+00 -0.00000000000E+00 -0.18527041725E+02  0.18527041725E+02  0.00000000000E+00 0.  1.
          2    1    1    2  502    0  0.32430118581E+00 -0.21305952899E+02  0.86327130136E+02  0.88918064519E+02  0.00000000000E+00 0.  1.
         -2    1    1    2    0  502 -0.32430118581E+00  0.21305952899E+02 -0.10644120796E+02  0.23819028270E+02  0.00000000000E+00 0.  1.
</event>
<event>
 4    1  0.5847355E+003  0.2165237E+02  0.7546771E-02  0.1510151E+00
          2   -1    0    0  501    0  0.00000000000E+00  0.00000000000E+00  0.36194970393E+03  0.36194970393E+03  0.00000000000E+00 0. -1.
         -2   -1    0    0    0  501 -0.00000000000E+00 -0.00000000000E+00 -0.11702737307E+03  0.11702737307E+03  0.00000000000E+00 0. -1.
          2    1    1    2  502    0 -0.21316988808E+02 -0.37961920090E+01  0.36062066829E+03  0.36127010876E+03  0.00000000000E+00 0. -1.
         -2    1    1    2    0  502  0.21316988808E+02  0.37961920090E+01 -0.11569833743E+03  0.11770696823E+03  0.00000000000E+00 0. -1.
</event>
<event>
 4    1  0.5847355E+003  0.2023557E+02  0.7546771E-02  0.1530465E+00
          2   -1    0    0  501    0  0.00000000000E+00  0.00000000000E+00  0.11382087637E+04  0.11382087637E+04  0.00000000000E+00 0. -1.
         -2   -1    0    0    0  501 -0.00000000000E+00 -0.00000000000E+00 -0.15674112044E+01  0.15674112044E+01  0.00000000000E+00 0.  1.
          2    1    1    2  502    0  0.20200596991E+02 -0.11892711919E+01  0.10685503122E+04  0.10687418997E+04  0.00000000000E+00 0. -1.
         -2    1    1    2    0  502 -0.20200596991E+02  0.11892711919E+01  0.68091040356E+02  0.71034275259E+02  0.00000000000E+00 0.  1.
</event>
<event>
 4    1  0.5847355E+003  0.1967891E+03  0.7546771E-02  0.1057436E+00
          2   -1    0    0  501    0  0.00000000000E+00  0.00000000000E+00  0.57733048108E+03  0.57733048108E+03  0.00000000000E+00 0. -1.
         -2   -1    0    0    0  501 -0.00000000000E+00 -0.00000000000E+00 -0.67853159026E+02  0.67853159026E+02  0.00000000000E+00 0.  1.
          2    1    1    2  502    0 -0.12595243830E+03 -0.15120158495E+03  0.28922754759E+03  0.34982640022E+03  0.00000000000E+00 0. -1.
         -2    1    1    2    0  502  0.12595243830E+03  0.15120158495E+03  0.22024977447E+03  0.29535723989E+03  0.00000000000E+00 0.  1.
</event>
<event>
 4    1  0.5847355E+003  0.2108753E+02  0.7546771E-02  0.1518019E+00
          2   -1    0    0  501    0  0.00000000000E+00  0.00000000000E+00  0.46130909581E+03  0.46130909581E+03  0.00000000000E+00 0. -1.
         -2   -1    0    0    0  501 -0.00000000000E+00 -0.00000000000E+00 -0.87370912469E+01  0.87370912469E+01  0.00000000000E+00 0. -1.
          2    1    1    2  502    0  0.16218197666E+02 -0.13477912360E+02  0.44796526601E+03  0.44846132900E+03  0.00000000000E+00 0. -1.
         -2    1    1    2    0  502 -0.16218197666E+02  0.13477912360E+02  0.46067385489E+01  0.21584858053E+02  0.00000000000E+00 0. -1.
</event>
<event>
 4    1  0.5847355E+003  0.2182418E+02  0.7546771E-02  0.1507815E+00
          2   -1    0    0  501    0  0.00000000000E+00  0.00000000000E+00  0.24224318555E+02  0.24224318555E+02  0.00000000000E+00 0.  1.
         -2   -1    0    0    0  501 -0.00000000000E+00 -0.00000000000E+00 -0.49498507279E+03  0.49498507279E+03  0.00000000000E+00 0.  1.
          2    1    1    2  502    0  0.75210483506E+01  0.20487284658E+02  0.19016049975E+02  0.28946591468E+02  0.00000000000E+00 0.  1.
         -2    1    1    2    0  502 -0.75210483506E+01 -0.20487284658E+02 -0.48977680421E+03  0.49026279988E+03  0.00000000000E+00 0.  1.
</event>
<event>
 4    1  0.5847355E+003  0.2593326E+02  0.7546771E-02  0.1458628E+00
          2   -1    0    0  501    0  0.00000000000E+00  0.00000000000E+00  0.25044120586E+02  0.25044120586E+02  0.00000000000E+00 0.  1.
         -2   -1    0    0    0  501 -0.00000000000E+00 -0.00000000000E+00 -0.75814537328E+03  0.75814537328E+03  0.00000000000E+00 0.  1.
          2    1    1    2  502    0  0.24602576209E+02 -0.82004309451E+01  0.18046335973E+02  0.31594367628E+02  0.00000000000E+00 0.  1.
         -2    1    1    2    0  502 -0.24602576209E+02  0.82004309451E+01 -0.75114758866E+03  0.75159512624E+03  0.00000000000E+00 0.  1.
</event>
<event>
 4    1  0.5847355E+003  0.3051368E+02  0.7546771E-02  0.1415184E+00
          2   -1    0    0  501    0  0.00000000000E+00  0.00000000000E+00  0.22409665328E+04  0.22409665328E+04  0.00000000000E+00 0.  1.
         -2   -1    0    0    0  501 -0.00000000000E+00 -0.00000000000E+00 -0.25926275573E+03  0.25926275573E+03  0.00000000000E+00 0.  1.
          2    1    1    2  502    0  0.17373935573E+02 -0.25084473878E+02  0.22399644409E+04  0.22401722659E+04  0.00000000000E+00 0.  1.
         -2    1    1    2    0  502 -0.17373935573E+02  0.25084473878E+02 -0.25826066389E+03  0.26005702255E+03  0.00000000000E+00 0.  1.
</event>
<event>
 4    1  0.5847355E+003  0.5095607E+02  0.7546771E-02  0.1294080E+00
          2   -1    0    0  501    0  0.00000000000E+00  0.00000000000E+00  0.41320026158E+04  0.41320026158E+04  0.00000000000E+00 0. -1.
         -2   -1    0    0    0  501 -0.00000000000E+00 -0.00000000000E+00 -0.65519623558E+00  0.65519623558E+00  0.00000000000E+00 0.  1.
          2    1    1    2  502    0  0.21044485701E+02  0.46407416832E+02  0.16477347433E+04  0.16485224606E+04  0.00000000000E+00 0. -1.
         -2    1    1    2    0  502 -0.21044485701E+02 -0.46407416832E+02  0.24836126762E+04  0.24841353514E+04  0.00000000000E+00 0.  1.
</event>
<event>
 4    1  0.5847355E+003  0.2561268E+02  0.7546771E-02  0.1462065E+00
          2   -1    0    0  501    0  0.00000000000E+00  0.00000000000E+00  0.14282527802E+04  0.14282527802E+04  0.00000000000E+00 0.  1.
         -2   -1    0    0    0  501 -0.00000000000E+00 -0.00000000000E+00 -0.70647501756E+00  0.70647501756E+00  0.00000000000E+00 0.  1.
          2    1    1    2  502    0  0.57870348025E+01  0.24950342265E+02  0.11363793182E+04  0.11366679217E+04  0.00000000000E+00 0.  1.
         -2    1    1    2    0  502 -0.57870348025E+01 -0.24950342265E+02  0.29116698703E+03  0.29229133358E+03  0.00000000000E+00 0.  1.
</event>
<event>
 4    1  0.5847355E+003  0.2321685E+02  0.7546771E-02  0.1489793E+00
          2   -1    0    0  501    0  0.00000000000E+00  0.00000000000E+00  0.41843642958E+03  0.41843642958E+03  0.00000000000E+00 0. -1.
         -2   -1    0    0    0  501 -0.00000000000E+00 -0.00000000000E+00 -0.12436962521E+02  0.12436962521E+02  0.00000000000E+00 0. -1.
          2    1    1    2  502    0 -0.18534817623E+01  0.23142742742E+02  0.40697439268E+03  0.40763608554E+03  0.00000000000E+00 0. -1.
         -2    1    1    2    0  502  0.18534817623E+01 -0.23142742742E+02 -0.97492562045E+00  0.23237306562E+02  0.00000000000E+00 0. -1.
</event>
<event>
 4    1  0.5847355E+003  0.3534751E+02  0.7546771E-02  0.1378136E+00
          2   -1    0    0  501    0  0.00000000000E+00  0.00000000000E+00  0.53546246285E+02  0.53546246285E+02  0.00000000000E+00 0.  1.
         -2   -1    0    0    0  501 -0.00000000000E+00 -0.00000000000E+00 -0.19357582859E+03  0.19357582859E+03  0.00000000000E+00 0. -1.
          2    1    1    2  502    0  0.27108484034E+02 -0.22684275639E+02  0.45860053314E+02  0.57901560928E+02  0.00000000000E+00 0.  1.
         -2    1    1    2    0  502 -0.27108484034E+02  0.22684275639E+02 -0.18588963562E+03  0.18922051395E+03  0.00000000000E+00 0. -1.
</event>
<event>
 4    1  0.5847355E+003  0.2027967E+02  0.7546771E-02  0.1529803E+00
          2   -1    0    0  501    0  0.00000000000E+00  0.00000000000E+00  0.28949849259E+03  0.28949849259E+03  0.00000000000E+00 0.  1.
         -2   -1    0    0    0  501 -0.00000000000E+00 -0.00000000000E+00 -0.37573398646E+03  0.37573398646E+03  0.00000000000E+00 0. -1.
          2    1    1    2  502    0  0.19756693095E+02 -0.45758115620E+01  0.28886910311E+03  0.28958008168E+03  0.00000000000E+00 0.  1.
         -2    1    1    2    0  502 -0.19756693095E+02  0.45758115620E+01 -0.37510459698E+03  0.37565239737E+03  0.00000000000E+00 0. -1.
</event>
<event>
 4    1  0.5847355E+003  0.2063362E+02  0.7546771E-02  0.1524561E+00
          2   -1    0    0  501    0  0.00000000000E+00  0.00000000000E+00  0.94407519771E+03  0.94407519771E+03  0.00000000000E+00 0.  1.
         -2   -1    0    0    0  501 -0.00000000000E+00 -0.00000000000E+00 -0.46317129088E+00  0.46317129088E+00  0.00000000000E+00 0.  1.
          2    1    1    2  502    0  0.13786399807E+02  0.15351902093E+02  0.39514144247E+03  0.39567980145E+03  0.00000000000E+00 0.  1.
         -2    1    1    2    0  502 -0.13786399807E+02 -0.15351902093E+02  0.54847058395E+03  0.54885856755E+03  0.00000000000E+00 0.  1.
</event>
<event>
 4    1  0.5847355E+003  0.2191539E+02  0.7546771E-02  0.1506586E+00
          2   -1    0    0  501    0  0.00000000000E+00  0.00000000000E+00  0.62535862310E+03  0.62535862310E+03  0.00000000000E+00 0. -1.
         -2   -1    0    0    0  501 -0.00000000000E+00 -0.00000000000E+00 -0.27830144720E+01  0.27830144720E+01  0.00000000000E+00 0.  1.
          2    1    1    2  502    0  0.74609005227E+01 -0.20606289961E+02  0.57853147157E+03  0.57894641187E+03  0.00000000000E+00 0. -1.
         -2    1    1    2    0  502 -0.74609005227E+01  0.20606289961E+02  0.44044137065E+02  0.49195225707E+02  0.00000000000E+00 0.  1.
</event>
<event>
 4    1  0.5847355E+003  0.3585058E+02  0.7546771E-02  0.1374680E+00
          2   -1    0    0  501    0  0.00000000000E+00  0.00000000000E+00  0.34026565350E+02  0.34026565350E+02  0.00000000000E+00 0.  1.
         -2   -1    0    0    0  501 -0.00000000000E+00 -0.00000000000E+00 -0.80838315108E+02  0.80838315108E+02  0.00000000000E+00 0.  1.
          2    1    1    2  502    0 -0.41124711777E+01 -0.35613921500E+02  0.18513583483E+02  0.40348687676E+02  0.00000000000E+00 0.  1.
         -2    1    1    2    0  502  0.41124711777E+01  0.35613921500E+02 -0.65325333241E+02  0.74516192782E+02  0.00000000000E+00 0.  1.
</event>
<event>
 4    1  0.5847355E+003  0.2012059E+02  0.7546771E-02  0.1532200E+00
          2   -1    0    0  501    0  0.00000000000E+00  0.00000000000E+00  0.19774145671E+03  0.19774145671E+03  0.00000000000E+00 0. -1.
         -2   -1    0    0    0  501 -0.00000000000E+00 -0.00000000000E+00 -0.40407459624E+01  0.40407459624E+01  0.00000000000E+00 0.  1.
          2    1    1    2  502    0 -0.10680582304E+02  0.17051779398E+02  0.16771396280E+03  0.16891658100E+03  0.00000000000E+00 0. -1.
         -2    1    1    2    0  502  0.10680582304E+02 -0.17051779398E+02  0.25986747950E+02  0.32865621674E+02  0.00000000000E+00 0.  1.
</event>
<event>
 4    1  0.5847355E+003  0.2268923E+02  0.7546771E-02  0.1496438E+00
          2   -1    0    0  501    0  0.00000000000E+00  0.00000000000E+00  0.14515931239E+04  0.14515931239E+04  0.00000000000E+00 0.  1.
         -2   -1    0    0    0  501 -0.00000000000E+00 -0.00000000000E+00 -0.46430636565E+00  0.46430636565E+00  0.00000000000E+00 0.  1.
          2    1    1    2  502    0 -0.10965166629E+02 -0.19863690979E+02  0.10784038595E+04  0.10786425197E+04  0.00000000000E+00 0.  1.
         -2    1    1    2    0  502  0.10965166629E+02  0.19863690979E+02  0.37272495798E+03  0.37341491052E+03  0.00000000000E+00 0.  1.
</event>
<event>
 4    1  0.5847355E+003  0.2026462E+02  0.7546771E-02  0.1530028E+00
          2   -1    0    0  501    0  0.00000000000E+00  0.00000000000E+00  0.36254270358E+01  0.36254270358E+01  0.00000000000E+00 0.  1.
         -2   -1    0    0    0  501 -0.00000000000E+00 -0.00000000000E+00 -0.24281854441E+03  0.24281854441E+03  0.00000000000E+00 0. -1.
          2    1    1    2  502    0  0.18027248231E+02 -0.92559846742E+01 -0.29592468369E+02  0.35865988279E+02  0.00000000000E+00 0.  1.
         -2    1    1    2    0  502 -0.18027248231E+02  0.92559846742E+01 -0.20960064901E+03  0.21057798317E+03  0.00000000000E+00 0. -1.
</event>
<event>
 4    1  0.5847355E+003  0.2112789E+02  0.7546771E-02  0.1517447E+00
          2   -1    0    0  501    0  0.00000000000E+00  0.00000000000E+00  0.10056902995E+01  0.10056902995E+01  0.00000000000E+00 0. -1.
         -2   -1    0    0    0  501 -0.00000000000E+00 -0.00000000000E+00 -0.50211643810E+03  0.50211643810E+03  0.00000000000E+00 0.  1.
          2    1    1    2  502    0 -0.20869018252E+02 -0.32972214090E+01 -0.16487010935E+03  0.16621835203E+03  0.00000000000E+00 0. -1.
         -2    1    1    2    0  502  0.20869018252E+02  0.32972214090E+01 -0.33624063845E+03  0.33690377638E+03  0.00000000000E+00 0.  1.
</event>
<event>
 4    1  0.5847355E+003  0.2829844E+02  0.7546771E-02  0.1434984E+00
          2   -1    0    0  501    0  0.00000000000E+00  0.00000000000E+00  0.22849496250E+04  0.22849496250E+04  0.00000000000E+00 0.  1.
         -2   -1    0    0    0  501 -0.00000000000E+00 -0.00000000000E+00 -0.59154971907E+00  0.59154971907E+00  0.00000000000E+00 0.  1.
          2    1    1    2  502    0  0.93362405124E+01 -0.26713967735E+02  0.18717132652E+04  0.18719271750E+04  0.00000000000E+00 0.  1.
         -2    1    1    2    0  502 -0.93362405124E+01  0.26713967735E+02  0.41264481014E+03  0.41361399975E+03  0.00000000000E+00 0.  1.
</event>
<event>
 4    1  0.5847355E+003  0.3357956E+02  0.7546771E-02  0.1390834E+00
          2   -1    0    0  501    0  0.00000000000E+00  0.00000000000E+00  0.22139584450E+03  0.22139584450E+03  0.00000000000E+00 0.  1.
         -2   -1    0    0    0  501 -0.00000000000E+00 -0.00000000000E+00 -0.35584859775E+02  0.35584859775E+02  0.00000000000E+00 0. -1.
          2    1    1    2  502    0 -0.12519325353E+02 -0.31158524769E+02  0.21184585642E+03  0.21449068524E+03  0.00000000000E+00 0.  1.
         -2    1    1    2    0  502  0.12519325353E+02  0.31158524769E+02 -0.26034871696E+02  0.42490019032E+02  0.00000000000E+00 0. -1.
</event>
<event>
 4    1  0.5847355E+003  0.2688816E+02  0.7546771E-02  0.1448735E+00
          2   -1    0    0  501    0  0.00000000000E+00  0.00000000000E+00  0.77224894698E+03  0.77224894698E+03  0.00000000000E+00 0. -1.
         -2   -1    0    0    0  501 -0.00000000000E+00 -0.00000000000E+00 -0.97068014008E+01  0.97068014008E+01  0.00000000000E+00 0. -1.
          2    1    1    2  502    0 -0.22118451952E+02  0.15288802456E+02  0.75291666845E+03  0.75339663062E+03  0.00000000000E+00 0. -1.
         -2    1    1    2    0  502  0.22118451952E+02 -0.15288802456E+02  0.96254771267E+01  0.28559117760E+02  0.00000000000E+00 0. -1.
</event>
<event>
 4    1  0.5847355E+003  0.2266576E+02  0.7546771E-02  0.1496738E+00
          2   -1    0    0  501    0  0.00000000000E+00  0.00000000000E+00  0.12753147683E+04  0.12753147683E+04  0.00000000000E+00 0. -1.
         -2   -1    0    0    0  501 -0.00000000000E+00 -0.00000000000E+00 -0.80151785924E+01  0.80151785924E+01  0.00000000000E+00 0. -1.
          2    1    1    2  502    0 -0.15425667170E+02  0.16606790880E+02  0.12589823343E+04  0.12591863463E+04  0.00000000000E+00 0. -1.
         -2    1    1    2    0  502  0.15425667170E+02 -0.16606790880E+02  0.83172554240E+01  0.24143600576E+02  0.00000000000E+00 0. -1.
</event>
<event>
 4    1  0.5847355E+003  0.2008707E+02  0.7546771E-02  0.1532709E+00
          2   -1    0    0  501    0  0.00000000000E+00  0.00000000000E+00  0.12008985080E+04  0.12008985080E+04  0.00000000000E+00 0. -1.
         -2   -1    0    0    0  501 -0.00000000000E+00 -0.00000000000E+00 -0.49050607206E+00  0.49050607206E+00  0.00000000000E+00 0. -1.
          2    1    1    2  502    0  0.68139087381E+00  0.20075512753E+02  0.93734966240E+03  0.93756486715E+03  0.00000000000E+00 0. -1.
         -2    1    1    2    0  502 -0.68139087381E+00 -0.20075512753E+02  0.26305833949E+03  0.26382414688E+03  0.00000000000E+00 0. -1.
</event>
<event>
 4    1  0.5847355E+003  0.2214988E+02  0.7546771E-02  0.1503458E+00
          2   -1    0    0  501    0  0.00000000000E+00  0.00000000000E+00  0.37366019679E+03  0.37366019679E+03  0.00000000000E+00 0. -1.
         -2   -1    0    0    0  501 -0.00000000000E+00 -0.00000000000E+00 -0.61661116795E+02  0.61661116795E+02  0.00000000000E+00 0.  1.
          2    1    1    2  502    0  0.10404861703E+02 -0.19553925756E+02  0.37133030858E+03  0.37199034292E+03  0.00000000000E+00 0. -1.
         -2    1    1    2    0  502 -0.10404861703E+02  0.19553925756E+02 -0.59331228584E+02  0.63330970661E+02  0.00000000000E+00 0.  1.
</event>
<event>
 4    1  0.5847355E+003  0.2085106E+02  0.7546771E-02  0.1521402E+00
          2   -1    0    0  501    0  0.00000000000E+00  0.00000000000E+00  0.63832054830E+01  0.63832054830E+01  0.00000000000E+00 0.  1.
         -2   -1    0    0    0  501 -0.00000000000E+00 -0.00000000000E+00 -0.54624587771E+03  0.54624587771E+03  0.00000000000E+00 0.  1.
          2    1    1    2  502    0  0.99486763738E+01 -0.18324583889E+02 -0.11416861339E+02  0.23772068887E+02  0.00000000000E+00 0.  1.
         -2    1    1    2    0  502 -0.99486763738E+01  0.18324583889E+02 -0.52844581088E+03  0.52885701430E+03  0.00000000000E+00 0.  1.
</event>
<event>
 4    1  0.5847355E+003  0.2146041E+02  0.7546771E-02  0.1512792E+00
          2   -1    0    0  501    0  0.00000000000E+00  0.00000000000E+00  0.53132097754E+03  0.53132097754E+03  0.00000000000E+00 0. -1.
         -2   -1    0    0    0  501 -0.00000000000E+00 -0.00000000000E+00 -0.17201586911E+02  0.17201586911E+02  0.00000000000E+00 0.  1.
          2    1    1    2  502    0 -0.10139104945E+02 -0.18914218667E+02  0.52432155094E+03  0.52476055292E+03  0.00000000000E+00 0. -1.
         -2    1    1    2    0  502  0.10139104945E+02  0.18914218667E+02 -0.10202160316E+02  0.23762011531E+02  0.00000000000E+00 0.  1.
</event>
<event>
 4    1  0.5847355E+003  0.3010736E+02  0.7546771E-02  0.1418666E+00
          2   -1    0    0  501    0  0.00000000000E+00  0.00000000000E+00  0.49717963841E+02  0.49717963841E+02  0.00000000000E+00 0. -1.
         -2   -1    0    0    0  501 -0.00000000000E+00 -0.00000000000E+00 -0.57413317023E+02  0.57413317023E+02  0.00000000000E+00 0.  1.
          2    1    1    2  502    0  0.23790492224E+02  0.18451717561E+02  0.40403008693E+02  0.50387066918E+02  0.00000000000E+00 0. -1.
         -2    1    1    2    0  502 -0.23790492224E+02 -0.18451717561E+02 -0.48098361875E+02  0.56744213945E+02  0.00000000000E+00 0.  1.
</event>
<event>
 4    1  0.5847355E+003  0.5113847E+02  0.7546771E-02  0.1293310E+00
          2   -1    0    0  501    0  0.00000000000E+00  0.00000000000E+00  0.12952632981E+04  0.12952632981E+04  0.00000000000E+00 0.  1.
         -2   -1    0    0    0  501 -0.00000000000E+00 -0.00000000000E+00 -0.56839216609E+02  0.56839216609E+02  0.00000000000E+00 0.  1.
          2    1    1    2  502    0 -0.43109342813E+02 -0.27508686047E+02  0.12831476107E+04  0.12841662408E+04  0.00000000000E+00 0.  1.
         -2    1    1    2    0  502  0.43109342813E+02  0.27508686047E+02 -0.44723529199E+02  0.67936273888E+02  0.00000000000E+00 0.  1.
</event>
<event>
 4    1  0.5847355E+003  0.3727712E+02  0.7546771E-02  0.1365225E+00
          2   -1    0    0  501    0  0.00000000000E+00  0.00000000000E+00  0.48179765304E+03  0.48179765304E+03  0.00000000000E+00 0. -1.
         -2   -1    0    0    0  501 -0.00000000000E+00 -0.00000000000E+00 -0.73050133826E+02  0.73050133826E+02  0.00000000000E+00 0. -1.
          2    1    1    2  502    0 -0.30219928156E+02  0.21825211280E+02  0.47626587754E+03  0.47772248222E+03  0.00000000000E+00 0. -1.
         -2    1    1    2    0  502  0.30219928156E+02 -0.21825211280E+02 -0.67518358331E+02  0.77125304647E+02  0.00000000000E+00 0. -1.
</event>
<event>
 4    1  0.5847355E+003  0.2316872E+02  0.7546771E-02  0.1490390E+00
          2   -1    0    0  501    0  0.00000000000E+00  0.00000000000E+00  0.19783700641E+03  0.19783700641E+03  0.00000000000E+00 0.  1.
         -2   -1    0    0    0  501 -0.00000000000E+00 -0.00000000000E+00 -0.33517932646E+03  0.33517932646E+03  0.00000000000E+00 0. -1.
          2    1    1    2  502    0 -0.22656172063E+02  0.48463799619E+01  0.19675611666E+03  0.19811551927E+03  0.00000000000E+00 0.  1.
         -2    1    1    2    0  502  0.22656172063E+02 -0.48463799619E+01 -0.33409843671E+03  0.33490081359E+03  0.00000000000E+00 0. -1.
</event>
<event>
 4    1  0.5847355E+003  0.3362450E+02  0.7546771E-02  0.1390500E+00
          2   -1    0    0  501    0  0.00000000000E+00  0.00000000000E+00  0.28628150949E+03  0.28628150949E+03  0.00000000000E+00 0. -1.
         -2   -1    0    0    0  501 -0.00000000000E+00 -0.00000000000E+00 -0.40114887953E+01  0.40114887953E+01  0.00000000000E+00 0. -1.
          2    1    1    2  502    0 -0.32084965258E+02 -0.10057938138E+02  0.15920941984E+03  0.16272137684E+03  0.00000000000E+00 0. -1.
         -2    1    1    2    0  502  0.32084965258E+02  0.10057938138E+02  0.12306060085E+03  0.12757162144E+03  0.00000000000E+00 0. -1.
</event>
<event>
 4    1  0.5847355E+003  0.2046611E+02  0.7546771E-02  0.1527026E+00
          2   -1    0    0  501    0  0.00000000000E+00  0.00000000000E+00  0.15211391731E+01  0.15211391731E+01  0.00000000000E+00 0. -1.
         -2   -1    0    0    0  501 -0.00000000000E+00 -0.00000000000E+00 -0.50527767542E+03  0.50527767542E+03  0.00000000000E+00 0.  1.
          2    1    1    2  502    0  0.12244274907E+02 -0.16399373828E+02 -0.80945158477E+02  0.83492397324E+02  0.00000000000E+00 0. -1.
         -2    1    1    2    0  502 -0.12244274907E+02  0.16399373828E+02 -0.42281137777E+03  0.42330641727E+03  0.00000000000E+00 0.  1.
</event>
<event>
 4    1  0.5847355E+003  0.2186233E+02  0.7546771E-02  0.1507300E+00
          2   -1    0    0  501    0  0.00000000000E+00  0.00000000000E+00  0.30399348107E+01  0.30399348107E+01  0.00000000000E+00 0. -1.
         -2   -1    0    0    0  501 -0.00000000000E+00 -0.00000000000E+00 -0.20164899345E+03  0.20164899345E+03  0.00000000000E+00 0.  1.
          2    1    1    2  502    0  0.16969360435E+02  0.13784134595E+02 -0.51269001437E+02  0.55735734215E+02  0.00000000000E+00 0. -1.
         -2    1    1    2    0  502 -0.16969360435E+02 -0.13784134595E+02 -0.14734005720E+03  0.14895319405E+03  0.00000000000E+00 0.  1.
</event>
<event>
 4    1  0.5847355E+003  0.2153704E+02  0.7546771E-02  0.1511734E+00
          2   -1    0    0  501    0  0.00000000000E+00  0.00000000000E+00  0.12795385268E+03  0.12795385268E+03  0.00000000000E+00 0.  1.
         -2   -1    0    0    0  501 -0.00000000000E+00 -0.00000000000E+00 -0.37401347723E+02  0.37401347723E+02  0.00000000000E+00 0.  1.
          2    1    1    2  502    0  0.88806987295E+01  0.19620838677E+02  0.12384503199E+03  0.12570376314E+03  0.00000000000E+00 0.  1.
         -2    1    1    2    0  502 -0.88806987295E+01 -0.19620838677E+02 -0.33292527033E+02  0.39651437257E+02  0.00000000000E+00 0.  1.
</event>
<event>
 4    1  0.5847355E+003  0.2217966E+02  0.7546771E-02  0.1503064E+00
          2   -1    0    0  501    0  0.00000000000E+00  0.00000000000E+00  0.82118396006E+03  0.82118396006E+03  0.00000000000E+00 0. -1.
         -2   -1    0    0    0  501 -0.00000000000E+00 -0.00000000000E+00 -0.16675131010E+02  0.16675131010E+02  0.00000000000E+00 0.  1.
          2    1    1    2  502    0 -0.20407116042E+02 -0.86883325734E+01  0.81359005121E+03  0.81389232023E+03  0.00000000000E+00 0. -1.
         -2    1    1    2    0  502  0.20407116042E+02  0.86883325734E+01 -0.90812221654E+01  0.23966770832E+02  0.00000000000E+00 0.  1.
</event>
<event>
 4    1  0.5847355E+003  0.4907265E+02  0.7546771E-02  0.1302244E+00
          2   -1    0    0  501    0  0.00000000000E+00  0.00000000000E+00  0.16955456990E+03  0.16955456990E+03  0.00000000000E+00 0.  1.
         -2   -1    0    0    0  501 -0.00000000000E+00 -0.00000000000E+00 -0.17091289571E+02  0.17091289571E+02  0.00000000000E+00 0.  1.
          2    1    1    2  502    0  0.24482673790E+02  0.42529064137E+02  0.37865479983E+02  0.61983200842E+02  0.00000000000E+00 0.  1.
         -2    1    1    2    0  502 -0.24482673790E+02 -0.42529064137E+02  0.11459780034E+03  0.12466265863E+03  0.00000000000E+00 0.  1.
</event>
<event>
 4    1  0.5847355E+003  0.3607971E+02  0.7546771E-02  0.1373127E+00
          2   -1    0    0  501    0  0.00000000000E+00  0.00000000000E+00  0.96656740822E+02  0.96656740822E+02  0.00000000000E+00 0.  1.
         -2   -1    0    0    0  501 -0.00000000000E+00 -0.00000000000E+00 -0.33639345776E+02  0.33639345776E+02  0.00000000000E+00 0.  1.
          2    1    1    2  502    0  0.10664046583E+02  0.34467722376E+02  0.81957176108E+02  0.89547331009E+02  0.00000000000E+00 0.  1.
         -2    1    1    2    0  502 -0.10664046583E+02 -0.34467722376E+02 -0.18939781063E+02  0.40748755588E+02  0.00000000000E+00 0.  1.
</event>
<event>
 4    1  0.5847355E+003  0.2964819E+02  0.7546771E-02  0.1422679E+00
          2   -1    0    0  501    0  0.00000000000E+00  0.00000000000E+00  0.22238697841E+03  0.22238697841E+03  0.00000000000E+00 0. -1.
         -2   -1    0    0    0  501 -0.00000000000E+00 -0.00000000000E+00 -0.11376434703E+03  0.11376434703E+03  0.00000000000E+00 0.  1.
          2    1    1    2  502    0  0.29647586326E+02 -0.18953844835E+00  0.21944134872E+03  0.22143513909E+03  0.00000000000E+00 0. -1.
         -2    1    1    2    0  502 -0.29647586326E+02  0.18953844835E+00 -0.11081871733E+03  0.11471618635E+03  0.00000000000E+00 0.  1.
</event>
<event>
 4    1  0.5847355E+003  0.2616260E+02  0.7546771E-02  0.1456206E+00
          2   -1    0    0  501    0  0.00000000000E+00  0.00000000000E+00  0.13210940361E+04  0.13210940361E+04  0.00000000000E+00 0.  1.
         -2   -1    0    0    0  501 -0.00000000000E+00 -0.00000000000E+00 -0.37383534655E+01  0.37383534655E+01  0.00000000000E+00 0. -1.
          2    1    1    2  502    0 -0.62195229106E+01 -0.25412582011E+02  0.12734789135E+04  0.12737476300E+04  0.00000000000E+00 0.  1.
         -2    1    1    2    0  502  0.62195229106E+01  0.25412582011E+02  0.43876769069E+02  0.51084759505E+02  0.00000000000E+00 0. -1.
</event>
<event>
 4    1  0.5847355E+003  0.2596268E+02  0.7546771E-02  0.1458316E+00
          2   -1    0    0  501    0  0.00000000000E+00  0.00000000000E+00  0.16412093562E+04  0.16412093562E+04  0.00000000000E+00 0.  1.
         -2   -1    0    0    0  501 -0.00000000000E+00 -0.00000000000E+00 -0.53599951429E+02  0.53599951429E+02  0.00000000000E+00 0. -1.
          2    1    1    2  502    0  0.22966631304E+02 -0.12107620801E+02  0.16379564931E+04  0.16381622429E+04  0.00000000000E+00 0.  1.
         -2    1    1    2    0  502 -0.22966631304E+02  0.12107620801E+02 -0.50347088371E+02  0.56647064729E+02  0.00000000000E+00 0. -1.
</event>
<event>
 4    1  0.5847355E+003  0.3732562E+02  0.7546771E-02  0.1364913E+00
          2   -1    0    0  501    0  0.00000000000E+00  0.00000000000E+00  0.15385660005E+02  0.15385660005E+02  0.00000000000E+00 0. -1.
         -2   -1    0    0    0  501 -0.00000000000E+00 -0.00000000000E+00 -0.10646737241E+03  0.10646737241E+03  0.00000000000E+00 0.  1.
          2    1    1    2  502    0  0.15957417233E+02 -0.33742595594E+02 -0.21984571100E+02  0.43318856040E+02  0.00000000000E+00 0. -1.
         -2    1    1    2    0  502 -0.15957417233E+02  0.33742595594E+02 -0.69097141304E+02  0.78534176373E+02  0.00000000000E+00 0.  1.
</event>
<event>
 4    1  0.5847355E+003  0.2317103E+02  0.7546771E-02  0.1490362E+00
          2   -1    0    0  501    0  0.00000000000E+00  0.00000000000E+00  0.11293580747E+03  0.11293580747E+03  0.00000000000E+00 0. -1.
         -2   -1    0    0    0  501 -0.00000000000E+00 -0.00000000000E+00 -0.48775911730E+02  0.48775911730E+02  0.00000000000E+00 0.  1.
          2    1    1    2  502    0 -0.15355316720E+02  0.17352540208E+02  0.10889445857E+03  0.11133238302E+03  0.00000000000E+00 0. -1.
         -2    1    1    2    0  502  0.15355316720E+02 -0.17352540208E+02 -0.44734562822E+02  0.50379336182E+02  0.00000000000E+00 0.  1.
</event>
<event>
 4    1  0.5847355E+003  0.2338003E+02  0.7546771E-02  0.1487780E+00
          2   -1    0    0  501    0  0.00000000000E+00  0.00000000000E+00  0.39537206607E+02  0.39537206607E+02  0.00000000000E+00 0. -1.
         -2   -1    0    0    0  501 -0.00000000000E+00 -0.00000000000E+00 -0.61411202687E+02  0.61411202687E+02  0.00000000000E+00 0.  1.
          2    1    1    2  502    0  0.79700527138E+01 -0.21979628715E+02  0.33493731583E+02  0.40846736394E+02  0.00000000000E+00 0. -1.
         -2    1    1    2    0  502 -0.79700527138E+01  0.21979628715E+02 -0.55367727664E+02  0.60101672900E+02  0.00000000000E+00 0.  1.
</event>
<event>
 4    1  0.5847355E+003  0.5324265E+02  0.7546771E-02  0.1284694E+00
          2   -1    0    0  501    0  0.00000000000E+00  0.00000000000E+00  0.14923772687E+04  0.14923772687E+04  0.00000000000E+00 0.  1.
         -2   -1    0    0    0  501 -0.00000000000E+00 -0.00000000000E+00 -0.18771743861E+03  0.18771743861E+03  0.00000000000E+00 0. -1.
          2    1    1    2  502    0  0.43239954186E+02  0.31065842064E+02  0.14881162566E+04  0.14890684247E+04  0.00000000000E+00 0.  1.
         -2    1    1    2    0  502 -0.43239954186E+02 -0.31065842064E+02 -0.18345642658E+03  0.19102628258E+03  0.00000000000E+00 0. -1.
</event>
<event>
 4    1  0.5847355E+003  0.2761488E+02  0.7546771E-02  0.1441527E+00
          2   -1    0    0  501    0  0.00000000000E+00  0.00000000000E+00  0.57045140982E+02  0.57045140982E+02  0.00000000000E+00 0.  1.
         -2   -1    0    0    0  501 -0.00000000000E+00 -0.00000000000E+00 -0.16818023032E+02  0.16818023032E+02  0.00000000000E+00 0. -1.
          2    1    1    2  502    0  0.23677338593E+02  0.14211456165E+02  0.36840586989E+02  0.46041402008E+02  0.00000000000E+00 0.  1.
         -2    1    1    2    0  502 -0.23677338593E+02 -0.14211456165E+02  0.33865309617E+01  0.27821762006E+02  0.00000000000E+00 0. -1.
</event>
<event>
 4    1  0.5847355E+003  0.2203351E+02  0.7546771E-02  0.1505004E+00
          2   -1    0    0  501    0  0.00000000000E+00  0.00000000000E+00  0.17127285234E+02  0.17127285234E+02  0.00000000000E+00 0. -1.
         -2   -1    0    0    0  501 -0.00000000000E+00 -0.00000000000E+00 -0.16177749472E+03  0.16177749472E+03  0.00000000000E+00 0. -1.
          2    1    1    2  502    0 -0.12975420889E+02 -0.17807700225E+02  0.89136820795E+01  0.23768244840E+02  0.00000000000E+00 0. -1.
         -2    1    1    2    0  502  0.12975420889E+02  0.17807700225E+02 -0.15356389157E+03  0.15513653512E+03  0.00000000000E+00 0. -1.
</event>
<event>
 4    1  0.5847355E+003  0.2996974E+02  0.7546771E-02  0.1419860E+00
          2   -1    0    0  501    0  0.00000000000E+00  0.00000000000E+00  0.64095001091E+02  0.64095001091E+02  0.00000000000E+00 0. -1.
         -2   -1    0    0    0  501 -0.00000000000E+00 -0.00000000000E+00 -0.19501207488E+02  0.19501207488E+02  0.00000000000E+00 0. -1.
          2    1    1    2  502    0  0.83660662292E-01 -0.29969612527E+02  0.12372258706E+00  0.29969984674E+02  0.00000000000E+00 0. -1.
         -2    1    1    2    0  502 -0.83660662292E-01  0.29969612527E+02  0.44470071016E+02  0.53626223904E+02  0.00000000000E+00 0. -1.
</event>
<event>
 4    1  0.5847355E+003  0.2107921E+02  0.7546771E-02  0.1518137E+00
          2   -1    0    0  501    0  0.00000000000E+00  0.00000000000E+00  0.21192933810E+02  0.21192933810E+02  0.00000000000E+00 0.  1.
         -2   -1    0    0    0  501 -0.00000000000E+00 -0.00000000000E+00 -0.10803564882E+03  0.10803564882E+03  0.00000000000E+00 0. -1.
          2    1    1    2  502    0  0.72936181011E+01 -0.19777164984E+02  0.14585347415E+02  0.25633288494E+02  0.00000000000E+00 0.  1.
         -2    1    1    2    0  502 -0.72936181011E+01  0.19777164984E+02 -0.10142806243E+03  0.10359529414E+03  0.00000000000E+00 0. -1.
</event>
<event>
 4    1  0.5847355E+003  0.2734460E+02  0.7546771E-02  0.1444177E+00
          2   -1    0    0  501    0  0.00000000000E+00  0.00000000000E+00  0.96245321676E+03  0.96245321676E+03  0.00000000000E+00 0.  1.
         -2   -1    0    0    0  501 -0.00000000000E+00 -0.00000000000E+00 -0.17107902339E+02  0.17107902339E+02  0.00000000000E+00 0.  1.
          2    1    1    2  502    0  0.18188287127E+02 -0.20418451168E+02  0.95120315699E+03  0.95159611853E+03  0.00000000000E+00 0.  1.
         -2    1    1    2    0  502 -0.18188287127E+02  0.20418451168E+02 -0.58578425755E+01  0.27965000561E+02  0.00000000000E+00 0.  1.
</event>
<event>
 4    1  0.5847355E+003  0.2049506E+02  0.7546771E-02  0.1526598E+00
          2   -1    0    0  501    0  0.00000000000E+00  0.00000000000E+00  0.24709117079E+03  0.24709117079E+03  0.00000000000E+00 0.  1.
         -2   -1    0    0    0  501 -0.00000000000E+00 -0.00000000000E+00 -0.12073682981E+02  0.12073682981E+02  0.00000000000E+00 0. -1.
          2    1    1    2  502    0  0.17380316722E+02  0.10861490808E+02  0.23762266781E+03  0.23850488391E+03  0.00000000000E+00 0.  1.
         -2    1    1    2    0  502 -0.17380316722E+02 -0.10861490808E+02 -0.26051799976E+01  0.20659969863E+02  0.00000000000E+00 0. -1.
</event>
<event>
 4    1  0.5847355E+003  0.2275551E+02  0.7546771E-02  0.1495591E+00
          2   -1    0    0  501    0  0.00000000000E+00  0.00000000000E+00  0.58188846121E+03  0.58188846121E+03  0.00000000000E+00 0.  1.
         -2   -1    0    0    0  501 -0.00000000000E+00 -0.00000000000E+00 -0.17556887922E+02  0.17556887922E+02  0.00000000000E+00 0. -1.
          2    1    1    2  502    0  0.19239334792E+02 -0.12151598875E+02  0.57419385578E+03  0.57464458353E+03  0.00000000000E+00 0.  1.
         -2    1    1    2    0  502 -0.19239334792E+02  0.12151598875E+02 -0.98622824959E+01  0.24800765603E+02  0.00000000000E+00 0. -1.
</event>
<event>
 4    1  0.5847355E+003  0.3000127E+02  0.7546771E-02  0.1419586E+00
          2   -1    0    0  501    0  0.00000000000E+00  0.00000000000E+00  0.14523959701E+04  0.14523959701E+04  0.00000000000E+00 0. -1.
         -2   -1    0    0    0  501 -0.00000000000E+00 -0.00000000000E+00 -0.53244613023E+01  0.53244613023E+01  0.00000000000E+00 0. -1.
          2    1    1    2  502    0  0.22929817880E+02  0.19346819330E+02  0.14086679445E+04  0.14089873860E+04  0.00000000000E+00 0. -1.
         -2    1    1    2    0  502 -0.22929817880E+02 -0.19346819330E+02  0.38403564302E+02  0.48733045434E+02  0.00000000000E+00 0. -1.
</event>
<event>
 4    1  0.5847355E+003  0.2678591E+02  0.7546771E-02  0.1449771E+00
          2   -1    0    0  501    0  0.00000000000E+00  0.00000000000E+00  0.11158409041E+04  0.11158409041E+04  0.00000000000E+00 0.  1.
         -2   -1    0    0    0  501 -0.00000000000E+00 -0.00000000000E+00 -0.14463208910E+01  0.14463208910E+01  0.00000000000E+00 0. -1.
          2    1    1    2  502    0 -0.26774496122E+02 -0.78184196585E+00  0.97353641918E+03  0.97390484361E+03  0.00000000000E+00 0.  1.
         -2    1    1    2    0  502  0.26774496122E+02  0.78184196585E+00  0.14085816401E+03  0.14338238138E+03  0.00000000000E+00 0. -1.
</event>
<event>
 4    1  0.5847355E+003  0.2214497E+02  0.7546771E-02  0.1503523E+00
          2   -1    0    0  501    0  0.00000000000E+00  0.00000000000E+00  0.58098109936E+02  0.58098109936E+02  0.00000000000E+00 0.  1.
         -2   -1    0    0    0  501 -0.00000000000E+00 -0.00000000000E+00 -0.10708782808E+02  0.10708782808E+02  0.00000000000E+00 0.  1.
          2    1    1    2  502    0  0.21851654890E+02  0.35923194101E+01  0.39526942961E+02  0.45307602011E+02  0.00000000000E+00 0.  1.
         -2    1    1    2    0  502 -0.21851654890E+02 -0.35923194101E+01  0.78623841663E+01  0.23499290733E+02  0.00000000000E+00 0.  1.
</event>
<event>
 4    1  0.5847355E+003  0.2945847E+02  0.7546771E-02  0.1424361E+00
          2   -1    0    0  501    0  0.00000000000E+00  0.00000000000E+00  0.14370653017E+04  0.14370653017E+04  0.00000000000E+00 0.  1.
         -2   -1    0    0    0  501 -0.00000000000E+00 -0.00000000000E+00 -0.32456821104E+01  0.32456821104E+01  0.00000000000E+00 0.  1.
          2    1    1    2  502    0  0.26530194598E+02  0.12804310372E+02  0.13666267558E+04  0.13669442166E+04  0.00000000000E+00 0.  1.
         -2    1    1    2    0  502 -0.26530194598E+02 -0.12804310372E+02  0.67192863855E+02  0.73366767289E+02  0.00000000000E+00 0.  1.
</event>
<event>
 4    1  0.5847355E+003  0.2168249E+02  0.7546771E-02  0.1509740E+00
          2   -1    0    0  501    0  0.00000000000E+00  0.00000000000E+00  0.65255256232E+00  0.65255256232E+00  0.00000000000E+00 0.  1.
         -2   -1    0    0    0  501 -0.00000000000E+00 -0.00000000000E+00 -0.77125092081E+03  0.77125092081E+03  0.00000000000E+00 0.  1.
          2    1    1    2  502    0  0.85829821867E+01 -0.19911374936E+02 -0.28624384773E+03  0.28706387930E+03  0.00000000000E+00 0.  1.
         -2    1    1    2    0  502 -0.85829821867E+01  0.19911374936E+02 -0.48435452052E+03  0.48483959408E+03  0.00000000000E+00 0.  1.
</event>
<event>
 4    1  0.5847355E+003  0.2217064E+02  0.7546771E-02  0.1503184E+00
          2   -1    0    0  501    0  0.00000000000E+00  0.00000000000E+00  0.46564845367E+01  0.46564845367E+01  0.00000000000E+00 0. -1.
         -2   -1    0    0    0  501 -0.00000000000E+00 -0.00000000000E+00 -0.11695103733E+03  0.11695103733E+03  0.00000000000E+00 0. -1.
          2    1    1    2  502    0 -0.74433246090E+01  0.20883826184E+02 -0.37170821694E+02  0.43280564492E+02  0.00000000000E+00 0. -1.
         -2    1    1    2    0  502  0.74433246090E+01 -0.20883826184E+02 -0.75123731102E+02  0.78326957378E+02  0.00000000000E+00 0. -1.
</event>
<event>
 4    1  0.5847355E+003  0.2639652E+02  0.7546771E-02  0.1453766E+00
          2   -1    0    0  501    0  0.00000000000E+00  0.00000000000E+00  0.70638139202E+03  0.70638139202E+03  0.00000000000E+00 0. -1.
         -2   -1    0    0    0  501 -0.00000000000E+00 -0.00000000000E+00 -0.28445040544E+02  0.28445040544E+02  0.00000000000E+00 0.  1.
          2    1    1    2  502    0 -0.59532643892E+01 -0.25716428906E+02  0.69995470449E+03  0.70045225705E+03  0.00000000000E+00 0. -1.
         -2    1    1    2    0  502  0.59532643892E+01  0.25716428906E+02 -0.22018353015E+02  0.34374175511E+02  0.00000000000E+00 0.  1.
</event>
<event>
 4    1  0.5847355E+003  0.2820912E+02  0.7546771E-02  0.1435826E+00
          2   -1    0    0  501    0  0.00000000000E+00  0.00000000000E+00  0.23710927770E+03  0.23710927770E+03  0.00000000000E+00 0. -1.
         -2   -1    0    0    0  501 -0.00000000000E+00 -0.00000000000E+00 -0.32691576672E+02  0.32691576672E+02  0.00000000000E+00 0.  1.
          2    1    1    2  502    0  0.12017280087E+01  0.28183506811E+02  0.22999748330E+03  0.23172094539E+03  0.00000000000E+00 0. -1.
         -2    1    1    2    0  502 -0.12017280087E+01 -0.28183506811E+02 -0.25579782279E+02  0.38079908979E+02  0.00000000000E+00 0.  1.
</event>
<event>
 4    1  0.5847355E+003  0.2174127E+02  0.7546771E-02  0.1508939E+00
          2   -1    0    0  501    0  0.00000000000E+00  0.00000000000E+00  0.95116818129E+03  0.95116818129E+03  0.00000000000E+00 0. -1.
         -2   -1    0    0    0  501 -0.00000000000E+00 -0.00000000000E+00 -0.99312787317E+01  0.99312787317E+01  0.00000000000E+00 0. -1.
          2    1    1    2  502    0  0.15057151986E+02  0.15683268667E+02  0.93899081476E+03  0.93924247825E+03  0.00000000000E+00 0. -1.
         -2    1    1    2    0  502 -0.15057151986E+02 -0.15683268667E+02  0.22460878021E+01  0.21856981777E+02  0.00000000000E+00 0. -1.
</event>
<event>
 4    1  0.5847355E+003  0.2228631E+02  0.7546771E-02  0.1501660E+00
          2   -1    0    0  501    0  0.00000000000E+00  0.00000000000E+00  0.26427246106E+03  0.26427246106E+03  0.00000000000E+00 0. -1.
         -2   -1    0    0    0  501 -0.00000000000E+00 -0.00000000000E+00 -0.27259509971E+01  0.27259509971E+01  0.00000000000E+00 0.  1.
          2    1    1    2  502    0  0.12994656549E+02 -0.18105761750E+02  0.20516767409E+03  0.20637454833E+03  0.00000000000E+00 0. -1.
         -2    1    1    2    0  502 -0.12994656549E+02  0.18105761750E+02  0.56378835970E+02  0.60623863723E+02  0.00000000000E+00 0.  1.
</event>
<event>
 4    1  0.5847355E+003  0.2053572E+02  0.7546771E-02  0.1525998E+00
          2   -1    0    0  501    0  0.00000000000E+00  0.00000000000E+00  0.76767471000E+03  0.76767471000E+03  0.00000000000E+00 0. -1.
         -2   -1    0    0    0  501 -0.00000000000E+00 -0.00000000000E+00 -0.38299366081E+01  0.38299366081E+01  0.00000000000E+00 0. -1.
          2    1    1    2  502    0  0.16062900032E+02  0.12794493489E+02  0.73893951547E+03  0.73922481245E+03  0.00000000000E+00 0. -1.
         -2    1    1    2    0  502 -0.16062900032E+02 -0.12794493489E+02  0.24905257927E+02  0.32279834161E+02  0.00000000000E+00 0. -1.
</event>
<event>
 4    1  0.5847355E+003  0.2162028E+02  0.7546771E-02  0.1510590E+00
          2   -1    0    0  501    0  0.00000000000E+00  0.00000000000E+00  0.40981075095E+03  0.40981075095E+03  0.00000000000E+00 0.  1.
         -2   -1    0    0    0  501 -0.00000000000E+00 -0.00000000000E+00 -0.41412860080E+03  0.41412860080E+03  0.00000000000E+00 0.  1.
          2    1    1    2  502    0 -0.10139307301E+02  0.19095315755E+02  0.40924302495E+03  0.40981372611E+03  0.00000000000E+00 0.  1.
         -2    1    1    2    0  502  0.10139307301E+02 -0.19095315755E+02 -0.41356087480E+03  0.41412562563E+03  0.00000000000E+00 0.  1.
</event>
<event>
 4    1  0.5847355E+003  0.2635690E+02  0.7546771E-02  0.1454177E+00
          2   -1    0    0  501    0  0.00000000000E+00  0.00000000000E+00  0.35592244806E+03  0.35592244806E+03  0.00000000000E+00 0.  1.
         -2   -1    0    0    0  501 -0.00000000000E+00 -0.00000000000E+00 -0.49866147617E+01  0.49866147617E+01  0.00000000000E+00 0. -1.
          2    1    1    2  502    0 -0.21949557076E+02 -0.14591203086E+02  0.31624488694E+03  0.31734132220E+03  0.00000000000E+00 0.  1.
         -2    1    1    2    0  502  0.21949557076E+02  0.14591203086E+02  0.34690946367E+02  0.43567740625E+02  0.00000000000E+00 0. -1.
</event>
<event>
 4    1  0.5847355E+003  0.3344491E+02  0.7546771E-02  0.1391838E+00
          2   -1    0    0  501    0  0.00000000000E+00  0.00000000000E+00  0.24639024893E+04  0.24639024893E+04  0.00000000000E+00 0. -1.
         -2   -1    0    0    0  501 -0.00000000000E+00 -0.00000000000E+00 -0.65412791997E+00  0.65412791997E+00  0.00000000000E+00 0. -1.
          2    1    1    2  502    0 -0.29333430185E+02 -0.16065868110E+02  0.19132610804E+04  0.19135533764E+04  0.00000000000E+00 0. -1.
         -2    1    1    2    0  502  0.29333430185E+02  0.16065868110E+02  0.54998728089E+03  0.55100324082E+03  0.00000000000E+00 0. -1.
</event>
<event>
 4    1  0.5847355E+003  0.2029985E+02  0.7546771E-02  0.1529500E+00
          2   -1    0    0  501    0  0.00000000000E+00  0.00000000000E+00  0.30623541518E+02  0.30623541518E+02  0.00000000000E+00 0.  1.
         -2   -1    0    0    0  501 -0.00000000000E+00 -0.00000000000E+00 -0.41943410091E+02  0.41943410091E+02  0.00000000000E+00 0. -1.
          2    1    1    2  502    0  0.59981786122E+01 -0.19393447081E+02  0.24242057903E+02  0.31619002320E+02  0.00000000000E+00 0.  1.
         -2    1    1    2    0  502 -0.59981786122E+01  0.19393447081E+02 -0.35561926476E+02  0.40947949289E+02  0.00000000000E+00 0. -1.
</event>
<event>
 4    1  0.5847355E+003  0.2500828E+02  0.7546771E-02  0.1468711E+00
          2   -1    0    0  501    0  0.00000000000E+00  0.00000000000E+00  0.18090912321E+04  0.18090912321E+04  0.00000000000E+00 0.  1.
         -2   -1    0    0    0  501 -0.00000000000E+00 -0.00000000000E+00 -0.71585053587E+01  0.71585053587E+01  0.00000000000E+00 0.  1.
          2    1    1    2  502    0 -0.99265228308E-01  0.25008087435E+02  0.17868918189E+04  0.17870668110E+04  0.00000000000E+00 0.  1.
         -2    1    1    2    0  502  0.99265228308E-01 -0.25008087435E+02  0.15040907803E+02  0.29182926486E+02  0.00000000000E+00 0.  1.
</event>
<event>
 4    1  0.5847355E+003  0.2974610E+02  0.7546771E-02  0.1421816E+00
          2   -1    0    0  501    0  0.00000000000E+00  0.00000000000E+00  0.23472493767E+03  0.23472493767E+03  0.00000000000E+00 0.  1.
         -2   -1    0    0    0  501 -0.00000000000E+00 -0.00000000000E+00 -0.60308113870E+02  0.60308113870E+02  0.00000000000E+00 0.  1.
          2    1    1    2  502    0 -0.29609522965E+02 -0.28471978707E+01  0.23004018009E+03  0.23195541564E+03  0.00000000000E+00 0.  1.
         -2    1    1    2    0  502  0.29609522965E+02  0.28471978707E+01 -0.55623356293E+02  0.63077635904E+02  0.00000000000E+00 0.  1.
</event>
<event>
 4    1  0.5847355E+003  0.2365665E+02  0.7546771E-02  0.1484413E+00
          2   -1    0    0  501    0  0.00000000000E+00  0.00000000000E+00  0.17374913088E+03  0.17374913088E+03  0.00000000000E+00 0.  1.
         -2   -1    0    0    0  501 -0.00000000000E+00 -0.00000000000E+00 -0.37885881399E+02  0.37885881399E+02  0.00000000000E+00 0. -1.
          2    1    1    2  502    0 -0.22543035528E+02  0.71727640582E+01  0.16915108254E+03  0.17079732351E+03  0.00000000000E+00 0.  1.
         -2    1    1    2    0  502  0.22543035528E+02 -0.71727640582E+01 -0.33287833051E+02  0.40837688773E+02  0.00000000000E+00 0. -1.
</event>
<event>
 4    1  0.5847355E+003  0.2174099E+02  0.7546771E-02  0.1508943E+00
          2   -1    0    0  501    0  0.00000000000E+00  0.00000000000E+00  0.57112351081E+03  0.57112351081E+03  0.00000000000E+00 0.  1.
         -2   -1    0    0    0  501 -0.00000000000E+00 -0.00000000000E+00 -0.35805166036E+02  0.35805166036E+02  0.00000000000E+00 0.  1.
          2    1    1    2  502    0  0.18148930839E+02  0.11970258820E+02  0.56759580507E+03  0.56801203220E+03  0.00000000000E+00 0.  1.
         -2    1    1    2    0  502 -0.18148930839E+02 -0.11970258820E+02 -0.32277460301E+02  0.38916644644E+02  0.00000000000E+00 0.  1.
</event>
<event>
 4    1  0.5847355E+003  0.2218378E+02  0.7546771E-02  0.1503010E+00
          2   -1    0    0  501    0  0.00000000000E+00  0.00000000000E+00  0.16320520334E+02  0.16320520334E+02  0.00000000000E+00 0.  1.
         -2   -1    0    0    0  501 -0.00000000000E+00 -0.00000000000E+00 -0.15964154731E+03  0.15964154731E+03  0.00000000000E+00 0.  1.
          2    1    1    2  502    0  0.11655260462E+02  0.18875248071E+02  0.75770315871E+01  0.23442088087E+02  0.00000000000E+00 0.  1.
         -2    1    1    2    0  502 -0.11655260462E+02 -0.18875248071E+02 -0.15089805857E+03  0.15251997956E+03  0.00000000000E+00 0.  1.
</event>
<event>
 4    1  0.5847355E+003  0.6244213E+02  0.7546771E-02  0.1251753E+00
          2   -1    0    0  501    0  0.00000000000E+00  0.00000000000E+00  0.34858481464E+04  0.34858481464E+04  0.00000000000E+00 0. -1.
         -2   -1    0    0    0  501 -0.00000000000E+00 -0.00000000000E+00 -0.35244789797E+01  0.35244789797E+01  0.00000000000E+00 0. -1.
          2    1    1    2  502    0  0.61016212409E+02 -0.13268062604E+02  0.31826572157E+04  0.31832696983E+04  0.00000000000E+00 0. -1.
         -2    1    1    2    0  502 -0.61016212409E+02  0.13268062604E+02  0.29966645177E+03  0.30610292710E+03  0.00000000000E+00 0. -1.
</event>
<event>
 4    1  0.5847355E+003  0.2294905E+02  0.7546771E-02  0.1493139E+00
          2   -1    0    0  501    0  0.00000000000E+00  0.00000000000E+00  0.32130604745E+02  0.32130604745E+02  0.00000000000E+00 0. -1.
         -2   -1    0    0    0  501 -0.00000000000E+00 -0.00000000000E+00 -0.79206726111E+02  0.79206726111E+02  0.00000000000E+00 0. -1.
          2    1    1    2  502    0  0.22217356405E+02 -0.57487466130E+01  0.26037004737E+02  0.34707126486E+02  0.00000000000E+00 0. -1.
         -2    1    1    2    0  502 -0.22217356405E+02  0.57487466130E+01 -0.73113126103E+02  0.76630204370E+02  0.00000000000E+00 0. -1.
</event>
<event>
 4    1  0.5847355E+003  0.3030385E+02  0.7546771E-02  0.1416974E+00
          2   -1    0    0  501    0  0.00000000000E+00  0.00000000000E+00  0.72554823093E+02  0.72554823093E+02  0.00000000000E+00 0.  1.
         -2   -1    0    0    0  501 -0.00000000000E+00 -0.00000000000E+00 -0.15843963052E+02  0.15843963052E+02  0.00000000000E+00 0. -1.
          2    1    1    2  502    0 -0.17587172287E+02  0.24678225455E+02  0.48178717757E+02  0.56916713586E+02  0.00000000000E+00 0.  1.
         -2    1    1    2    0  502  0.17587172287E+02 -0.24678225455E+02  0.85321422834E+01  0.31482072559E+02  0.00000000000E+00 0. -1.
</event>
<event>
 4    1  0.5847355E+003  0.2410350E+02  0.7546771E-02  0.1479088E+00
          2   -1    0    0  501    0  0.00000000000E+00  0.00000000000E+00  0.19016091240E+02  0.19016091240E+02  0.00000000000E+00 0. -1.
         -2   -1    0    0    0  501 -0.00000000000E+00 -0.00000000000E+00 -0.90639553708E+02  0.90639553708E+02  0.00000000000E+00 0.  1.
          2    1    1    2  502    0  0.71076802545E+01  0.23031712054E+02  0.88293311057E+01  0.25669748081E+02  0.00000000000E+00 0. -1.
         -2    1    1    2    0  502 -0.71076802545E+01 -0.23031712054E+02 -0.80452793573E+02  0.83985896867E+02  0.00000000000E+00 0.  1.
</event>
<event>
 4    1  0.5847355E+003  0.2502490E+02  0.7546771E-02  0.1468525E+00
          2   -1    0    0  501    0  0.00000000000E+00  0.00000000000E+00  0.67272059714E+02  0.67272059714E+02  0.00000000000E+00 0. -1.
         -2   -1    0    0    0  501 -0.00000000000E+00 -0.00000000000E+00 -0.21400757661E+02  0.21400757661E+02  0.00000000000E+00 0. -1.
          2    1    1    2  502    0 -0.21629534227E+02 -0.12586066622E+02  0.56262014466E+02  0.61576457317E+02  0.00000000000E+00 0. -1.
         -2    1    1    2    0  502  0.21629534227E+02  0.12586066622E+02 -0.10390712413E+02  0.27096360058E+02  0.00000000000E+00 0. -1.
</event>
<event>
 4    1  0.5847355E+003  0.2649162E+02  0.7546771E-02  0.1452783E+00
          2   -1    0    0  501    0  0.00000000000E+00  0.00000000000E+00  0.48625089704E+03  0.48625089704E+03  0.00000000000E+00 0.  1.
         -2   -1    0    0    0  501 -0.00000000000E+00 -0.00000000000E+00 -0.65717900030E+02  0.65717900030E+02  0.00000000000E+00 0.  1.
          2    1    1    2  502    0 -0.14824404195E+02 -0.21955474504E+02  0.48320348072E+03  0.48392913696E+03  0.00000000000E+00 0.  1.
         -2    1    1    2    0  502  0.14824404195E+02  0.21955474504E+02 -0.62670483706E+02  0.68039660113E+02  0.00000000000E+00 0.  1.
</event>
<event>
 4    1  0.5847355E+003  0.4876479E+02  0.7546771E-02  0.1303619E+00
          2   -1    0    0  501    0  0.00000000000E+00  0.00000000000E+00  0.55370826369E+02  0.55370826369E+02  0.00000000000E+00 0. -1.
         -2   -1    0    0    0  501 -0.00000000000E+00 -0.00000000000E+00 -0.52206724149E+03  0.52206724149E+03  0.00000000000E+00 0. -1.
          2    1    1    2  502    0  0.44511427508E+02  0.19918277941E+02  0.43240536428E+02  0.65174757119E+02  0.00000000000E+00 0. -1.
         -2    1    1    2    0  502 -0.44511427508E+02 -0.19918277941E+02 -0.50993695155E+03  0.51226331074E+03  0.00000000000E+00 0. -1.
</event>
<event>
 4    1  0.5847355E+003  0.4772198E+02  0.7546771E-02  0.1308363E+00
          2   -1    0    0  501    0  0.00000000000E+00  0.00000000000E+00  0.55539086788E+03  0.55539086788E+03  0.00000000000E+00 0. -1.
         -2   -1    0    0    0  501 -0.00000000000E+00 -0.00000000000E+00 -0.12383154474E+02  0.12383154474E+02  0.00000000000E+00 0.  1.
          2    1    1    2  502    0 -0.39781069651E+02 -0.26360075270E+02  0.50367825440E+03  0.50593395915E+03  0.00000000000E+00 0. -1.
         -2    1    1    2    0  502  0.39781069651E+02  0.26360075270E+02  0.39329459011E+02  0.61840063203E+02  0.00000000000E+00 0.  1.
</event>
<event>
 4    1  0.5847355E+003  0.4884496E+02  0.7546771E-02  0.1303259E+00
          2   -1    0    0  501    0  0.00000000000E+00  0.00000000000E+00  0.76709321373E+03  0.76709321373E+03  0.00000000000E+00 0. -1.
         -2   -1    0    0    0  501 -0.00000000000E+00 -0.00000000000E+00 -0.70702771166E+01  0.70702771166E+01  0.00000000000E+00 0. -1.
          2    1    1    2  502    0 -0.38620784322E+01 -0.48692040063E+02  0.66970251422E+03  0.67148141297E+03  0.00000000000E+00 0. -1.
         -2    1    1    2    0  502  0.38620784322E+01  0.48692040063E+02  0.90320422398E+02  0.10268207788E+03  0.00000000000E+00 0. -1.
</event>
<event>
 4    1  0.5847355E+003  0.2098481E+02  0.7546771E-02  0.1519482E+00
          2   -1    0    0  501    0  0.00000000000E+00  0.00000000000E+00  0.61271865617E+03  0.61271865617E+03  0.00000000000E+00 0.  1.
         -2   -1    0    0    0  501 -0.00000000000E+00 -0.00000000000E+00 -0.23359013985E+02  0.23359013985E+02  0.00000000000E+00 0. -1.
          2    1    1    2  502    0  0.12387863234E+02 -0.16938219804E+02  0.60778777432E+03  0.60814993304E+03  0.00000000000E+00 0.  1.
         -2    1    1    2    0  502 -0.12387863234E+02  0.16938219804E+02 -0.18428132142E+02  0.27927737106E+02  0.00000000000E+00 0. -1.
</event>
<event>
 4    1  0.5847355E+003  0.2258598E+02  0.7546771E-02  0.1497764E+00
          2   -1    0    0  501    0  0.00000000000E+00  0.00000000000E+00  0.28798299414E+02  0.28798299414E+02  0.00000000000E+00 0.  1.
         -2   -1    0    0    0  501 -0.00000000000E+00 -0.00000000000E+00 -0.52482921179E+02  0.52482921179E+02  0.00000000000E+00 0.  1.
          2    1    1    2  502    0  0.42758531271E+00  0.22581930466E+02  0.21236376978E+02  0.31001776077E+02  0.00000000000E+00 0.  1.
         -2    1    1    2    0  502 -0.42758531271E+00 -0.22581930466E+02 -0.44920998742E+02  0.50279444516E+02  0.00000000000E+00 0.  1.
</event>
<event>
 4    1  0.5847355E+003  0.2886343E+02  0.7546771E-02  0.1429737E+00
          2   -1    0    0  501    0  0.00000000000E+00  0.00000000000E+00  0.19110530239E+04  0.19110530239E+04  0.00000000000E+00 0.  1.
         -2   -1    0    0    0  501 -0.00000000000E+00 -0.00000000000E+00 -0.54642220831E+00  0.54642220831E+00  0.00000000000E+00 0. -1.
          2    1    1    2  502    0 -0.19403197557E+02 -0.21368501245E+02  0.52546295975E+03  0.52625508928E+03  0.00000000000E+00 0. -1.
         -2    1    1    2    0  502  0.19403197557E+02  0.21368501245E+02  0.13850436420E+04  0.13853443569E+04  0.00000000000E+00 0.  1.
</event>
<event>
 4    1  0.5847355E+003  0.2281638E+02  0.7546771E-02  0.1494817E+00
          2   -1    0    0  501    0  0.00000000000E+00  0.00000000000E+00  0.67758312985E+03  0.67758312985E+03  0.00000000000E+00 0.  1.
         -2   -1    0    0    0  501 -0.00000000000E+00 -0.00000000000E+00 -0.92963709098E+01  0.92963709098E+01  0.00000000000E+00 0.  1.
          2    1    1    2  502    0  0.65173729169E+01 -0.21865754428E+02  0.66308530505E+03  0.66347773824E+03  0.00000000000E+00 0.  1.
         -2    1    1    2    0  502 -0.65173729169E+01  0.21865754428E+02  0.52014538889E+01  0.23401762519E+02  0.00000000000E+00 0.  1.
</event>
<event>
 4    1  0.5847355E+003  0.4030284E+02  0.7546771E-02  0.1346720E+00
          2   -1    0    0  501    0  0.00000000000E+00  0.00000000000E+00  0.11174463171E+04  0.11174463171E+04  0.00000000000E+00 0. -1.
         -2   -1    0    0    0  501 -0.00000000000E+00 -0.00000000000E+00 -0.29004416065E+01  0.29004416065E+01  0.00000000000E+00 0. -1.
          2    1    1    2  502    0  0.39706878734E+02  0.69052548618E+01  0.95291372680E+03  0.95376563656E+03  0.00000000000E+00 0. -1.
         -2    1    1    2    0  502 -0.39706878734E+02 -0.69052548618E+01  0.16163214869E+03  0.16658112214E+03  0.00000000000E+00 0. -1.
</event>
<event>
 4    1  0.5847355E+003  0.2307226E+02  0.7546771E-02  0.1491593E+00
          2   -1    0    0  501    0  0.00000000000E+00  0.00000000000E+00  0.18455237132E+03  0.18455237132E+03  0.00000000000E+00 0. -1.
         -2   -1    0    0    0  501 -0.00000000000E+00 -0.00000000000E+00 -0.31427540587E+01  0.31427540587E+01  0.00000000000E+00 0. -1.
          2    1    1    2  502    0  0.20491771342E+02  0.10602658293E+02  0.11761069014E+03  0.11985242380E+03  0.00000000000E+00 0. -1.
         -2    1    1    2    0  502 -0.20491771342E+02 -0.10602658293E+02  0.63798927119E+02  0.67842701576E+02  0.00000000000E+00 0. -1.
</event>
<event>
 4    1  0.5847355E+003  0.3293420E+02  0.7546771E-02  0.1395699E+00
          2   -1    0    0  501    0  0.00000000000E+00  0.00000000000E+00  0.17813135790E+04  0.17813135790E+04  0.00000000000E+00 0. -1.
         -2   -1    0    0    0  501 -0.00000000000E+00 -0.00000000000E+00 -0.81117332316E+00  0.81117332316E+00  0.00000000000E+00 0.  1.
          2    1    1    2  502    0 -0.21219786478E+02 -0.25186945585E+02  0.13351986219E+04  0.13356047400E+04  0.00000000000E+00 0. -1.
         -2    1    1    2    0  502  0.21219786478E+02  0.25186945585E+02  0.44530378379E+03  0.44652001234E+03  0.00000000000E+00 0.  1.
</event>
<event>
 4    1  0.5847355E+003  0.2983264E+02  0.7546771E-02  0.1421057E+00
          2   -1    0    0  501    0  0.00000000000E+00  0.00000000000E+00  0.40359946461E+03  0.40359946461E+03  0.00000000000E+00 0. -1.
         -2   -1    0    0    0  501 -0.00000000000E+00 -0.00000000000E+00 -0.92433836417E+01  0.92433836417E+01  0.00000000000E+00 0.  1.
          2    1    1    2  502    0  0.22140856340E+02 -0.19994216271E+02  0.37730220245E+03  0.37847977248E+03  0.00000000000E+00 0. -1.
         -2    1    1    2    0  502 -0.22140856340E+02  0.19994216271E+02  0.17053878514E+02  0.34363075766E+02  0.00000000000E+00 0.  1.
</event>
<event>
 4    1  0.5847355E+003  0.5306816E+02  0.7546771E-02  0.1285391E+00
          2   -1    0    0  501    0  0.00000000000E+00  0.00000000000E+00  0.34486198190E+03  0.34486198190E+03  0.00000000000E+00 0.  1.
         -2   -1    0    0    0  501 -0.00000000000E+00 -0.00000000000E+00 -0.48519504599E+02  0.48519504599E+02  0.00000000000E+00 0.  1.
          2    1    1    2  502    0 -0.49266673713E+02 -0.19723709102E+02  0.32754751967E+03  0.33181863643E+03  0.00000000000E+00 0.  1.
         -2    1    1    2    0  502  0.49266673713E+02  0.19723709102E+02 -0.31205042370E+02  0.61562850070E+02  0.00000000000E+00 0.  1.
</event>
<event>
 4    1  0.5847355E+003  0.2404275E+02  0.7546771E-02  0.1479803E+00
          2   -1    0    0  501    0  0.00000000000E+00  0.00000000000E+00  0.28710978473E+01  0.28710978473E+01  0.00000000000E+00 0.  1.
         -2   -1    0    0    0  501 -0.00000000000E+00 -0.00000000000E+00 -0.45708386812E+03  0.45708386812E+03  0.00000000000E+00 0.  1.
          2    1    1    2  502    0  0.23152307856E+02  0.64826443535E+01 -0.55080512044E+02  0.60099224986E+02  0.00000000000E+00 0.  1.
         -2    1    1    2    0  502 -0.23152307856E+02 -0.64826443535E+01 -0.39913225823E+03  0.39985574098E+03  0.00000000000E+00 0.  1.
</event>
<event>
 4    1  0.5847355E+003  0.2645198E+02  0.7546771E-02  0.1453192E+00
          2   -1    0    0  501    0  0.00000000000E+00  0.00000000000E+00  0.76487116677E+03  0.76487116677E+03  0.00000000000E+00 0.  1.
         -2   -1    0    0    0  501 -0.00000000000E+00 -0.00000000000E+00 -0.26280295564E+01  0.26280295564E+01  0.00000000000E+00 0.  1.
          2    1    1    2  502    0 -0.39037341650E+01  0.26162345752E+02  0.69096339072E+03  0.69146953280E+03  0.00000000000E+00 0.  1.
         -2    1    1    2    0  502  0.39037341650E+01 -0.26162345752E+02  0.71279746491E+02  0.76029663524E+02  0.00000000000E+00 0.  1.
</event>
<event>
 4    1  0.5847355E+003  0.4852924E+02  0.7546771E-02  0.1304678E+00
          2   -1    0    0  501    0  0.00000000000E+00  0.00000000000E+00  0.14901159358E+04  0.14901159358E+04  0.00000000000E+00 0. -1.
         -2   -1    0    0    0  501 -0.00000000000E+00 -0.00000000000E+00 -0.19677066674E+01  0.19677066674E+01  0.00000000000E+00 0.  1.
          2    1    1    2  502    0  0.42614845554E+02 -0.23217699940E+02  0.10750299616E+04  0.10761247628E+04  0.00000000000E+00 0. -1.
         -2    1    1    2    0  502 -0.42614845554E+02  0.23217699940E+02  0.41311826753E+03  0.41595887972E+03  0.00000000000E+00 0.  1.
</event>
<event>
 4    1  0.5847355E+003  0.5203103E+02  0.7546771E-02  0.1289599E+00
          2   -1    0    0  501    0  0.00000000000E+00  0.00000000000E+00  0.59246040700E+03  0.59246040700E+03  0.00000000000E+00 0. -1.
         -2   -1    0    0    0  501 -0.00000000000E+00 -0.00000000000E+00 -0.19519181205E+02  0.19519181205E+02  0.00000000000E+00 0. -1.
          2    1    1    2  502    0 -0.47319927998E+02  0.21634530630E+02  0.55425952021E+03  0.55669636630E+03  0.00000000000E+00 0. -1.
         -2    1    1    2    0  502  0.47319927998E+02 -0.21634530630E+02  0.18681705585E+02  0.55283221911E+02  0.00000000000E+00 0. -1.
</event>
<event>
 4    1  0.5847355E+003  0.2596923E+02  0.7546771E-02  0.1458246E+00
          2   -1    0    0  501    0  0.00000000000E+00  0.00000000000E+00  0.36857971270E+02  0.36857971270E+02  0.00000000000E+00 0.  1.
         -2   -1    0    0    0  501 -0.00000000000E+00 -0.00000000000E+00 -0.13969516702E+03  0.13969516702E+03  0.00000000000E+00 0.  1.
          2    1    1    2  502    0  0.19983104318E+02  0.16585428458E+02  0.30873911558E+02  0.40343516335E+02  0.00000000000E+00 0.  1.
         -2    1    1    2    0  502 -0.19983104318E+02 -0.16585428458E+02 -0.13371110731E+03  0.13620962196E+03  0.00000000000E+00 0.  1.
</event>
<event>
 4    1  0.5847355E+003  0.2981332E+02  0.7546771E-02  0.1421226E+00
          2   -1    0    0  501    0  0.00000000000E+00  0.00000000000E+00  0.90503287408E+02  0.90503287408E+02  0.00000000000E+00 0.  1.
         -2   -1    0    0    0  501 -0.00000000000E+00 -0.00000000000E+00 -0.11570567147E+04  0.11570567147E+04  0.00000000000E+00 0.  1.
          2    1    1    2  502    0 -0.27451404589E+02 -0.11629901784E+02  0.87850345544E+02  0.92771317990E+02  0.00000000000E+00 0.  1.
         -2    1    1    2    0  502  0.27451404589E+02  0.11629901784E+02 -0.11544037729E+04  0.11547886842E+04  0.00000000000E+00 0.  1.
</event>
<event>
 4    1  0.5847355E+003  0.2136175E+02  0.7546771E-02  0.1514162E+00
          2   -1    0    0  501    0  0.00000000000E+00  0.00000000000E+00  0.11455949894E+03  0.11455949894E+03  0.00000000000E+00 0.  1.
         -2   -1    0    0    0  501 -0.00000000000E+00 -0.00000000000E+00 -0.40367930394E+01  0.40367930394E+01  0.00000000000E+00 0.  1.
          2    1    1    2  502    0 -0.93482218896E+01  0.19207666759E+02  0.48434637425E+02  0.52936167384E+02  0.00000000000E+00 0.  1.
         -2    1    1    2    0  502  0.93482218896E+01 -0.19207666759E+02  0.62088068472E+02  0.65660124591E+02  0.00000000000E+00 0.  1.
</event>
<event>
 4    1  0.5847355E+003  0.2065086E+02  0.7546771E-02  0.1524309E+00
          2   -1    0    0  501    0  0.00000000000E+00  0.00000000000E+00  0.65710535343E+03  0.65710535343E+03  0.00000000000E+00 0.  1.
         -2   -1    0    0    0  501 -0.00000000000E+00 -0.00000000000E+00 -0.89651613756E+00  0.89651613756E+00  0.00000000000E+00 0.  1.
          2    1    1    2  502    0  0.96052272971E+01 -0.18281073202E+02  0.50097627773E+03  0.50140172405E+03  0.00000000000E+00 0.  1.
         -2    1    1    2    0  502 -0.96052272971E+01  0.18281073202E+02  0.15523255956E+03  0.15660014552E+03  0.00000000000E+00 0.  1.
</event>
<event>
 4    1  0.5847355E+003  0.2332265E+02  0.7546771E-02  0.1488486E+00
          2   -1    0    0  501    0  0.00000000000E+00  0.00000000000E+00  0.32121050433E+02  0.32121050433E+02  0.00000000000E+00 0.  1.
         -2   -1    0    0    0  501 -0.00000000000E+00 -0.00000000000E+00 -0.34028170764E+02  0.34028170764E+02  0.00000000000E+00 0.  1.
          2    1    1    2  502    0  0.23322605310E+02  0.44596120538E-01  0.22488527067E+02  0.32398761657E+02  0.00000000000E+00 0.  1.
         -2    1    1    2    0  502 -0.23322605310E+02 -0.44596120538E-01 -0.24395647398E+02  0.33750459541E+02  0.00000000000E+00 0.  1.
</event>
<event>
 4    1  0.5847355E+003  0.2300247E+02  0.7546771E-02  0.1492467E+00
          2   -1    0    0  501    0  0.00000000000E+00  0.00000000000E+00  0.29467547528E+02  0.29467547528E+02  0.00000000000E+00 0. -1.
         -2   -1    0    0    0  501 -0.00000000000E+00 -0.00000000000E+00 -0.57031703674E+02  0.57031703674E+02  0.00000000000E+00 0.  1.
          2    1    1    2  502    0 -0.22024197260E+02 -0.66368813007E+01  0.22017563783E+02  0.31841585596E+02  0.00000000000E+00 0. -1.
         -2    1    1    2    0  502  0.22024197260E+02  0.66368813007E+01 -0.49581719929E+02  0.54657665606E+02  0.00000000000E+00 0.  1.
</event>
<event>
 4    1  0.5847355E+003  0.3737870E+02  0.7546771E-02  0.1364571E+00
          2   -1    0    0  501    0  0.00000000000E+00  0.00000000000E+00  0.61920987063E+03  0.61920987063E+03  0.00000000000E+00 0.  1.
         -2   -1    0    0    0  501 -0.00000000000E+00 -0.00000000000E+00 -0.92139195943E+01  0.92139195943E+01  0.00000000000E+00 0. -1.
          2    1    1    2  502    0  0.19813381898E+02  0.31695383086E+02  0.57803939076E+03  0.57924666998E+03  0.00000000000E+00 0.  1.
         -2    1    1    2    0  502 -0.19813381898E+02 -0.31695383086E+02  0.31956560283E+02  0.49177120253E+02  0.00000000000E+00 0. -1.
</event>
<event>
 4    1  0.5847355E+003  0.3922034E+02  0.7546771E-02  0.1353116E+00
          2   -1    0    0  501    0  0.00000000000E+00  0.00000000000E+00  0.56086891675E+03  0.56086891675E+03  0.00000000000E+00 0.  1.
         -2   -1    0    0    0  501 -0.00000000000E+00 -0.00000000000E+00 -0.77168157289E+01  0.77168157289E+01  0.00000000000E+00 0. -1.
          2    1    1    2  502    0 -0.35964232590E+02  0.15646366325E+02  0.50482539503E+03  0.50634663451E+03  0.00000000000E+00 0.  1.
         -2    1    1    2    0  502  0.35964232590E+02 -0.15646366325E+02  0.48326705991E+02  0.62239097977E+02  0.00000000000E+00 0. -1.
</event>
<event>
 4    1  0.6546149E+003  0.2647275E+02  0.7546771E-02  0.1452978E+00
          2   -1    0    0  501    0  0.00000000000E+00  0.00000000000E+00  0.54701153826E+03  0.54701153826E+03  0.00000000000E+00 0. -1.
         -2   -1    0    0    0  501 -0.00000000000E+00 -0.00000000000E+00 -0.33180806559E+03  0.33180806559E+03  0.00000000000E+00 0. -1.
          2    1    1    2  502    0  0.26442945202E+02  0.12558801055E+01  0.54616240800E+03  0.54680360505E+03  0.00000000000E+00 0. -1.
         -2    1    1    2    0  502 -0.26442945202E+02 -0.12558801055E+01 -0.33095893533E+03  0.33201599880E+03  0.00000000000E+00 0. -1.
</event>
<event>
 4    1  0.5847355E+003  0.2212909E+02  0.7546771E-02  0.1503734E+00
          2   -1    0    0  501    0  0.00000000000E+00  0.00000000000E+00  0.14829978634E+03  0.14829978634E+03  0.00000000000E+00 0. -1.
         -2   -1    0    0    0  501 -0.00000000000E+00 -0.00000000000E+00 -0.14049238016E+02  0.14049238016E+02  0.00000000000E+00 0.  1.
          2    1    1    2  502    0  0.12985655231E+01 -0.22090959135E+02  0.13812231655E+03  0.13988377704E+03  0.00000000000E+00 0. -1.
         -2    1    1    2    0  502 -0.12985655231E+01  0.22090959135E+02 -0.38717682294E+01  0.22465247320E+02  0.00000000000E+00 0.  1.
</event>
<event>
 4    1  0.5847355E+003  0.2340539E+02  0.7546771E-02  0.1487469E+00
          2   -1    0    0  501    0  0.00000000000E+00  0.00000000000E+00  0.63433011665E+01  0.63433011665E+01  0.00000000000E+00 0. -1.
         -2   -1    0    0    0  501 -0.00000000000E+00 -0.00000000000E+00 -0.12112579979E+03  0.12112579979E+03  0.00000000000E+00 0. -1.
          2    1    1    2  502    0  0.16736486629E+02 -0.16361606172E+02 -0.23246169713E+02  0.32987824231E+02  0.00000000000E+00 0. -1.
         -2    1    1    2    0  502 -0.16736486629E+02  0.16361606172E+02 -0.91536328909E+02  0.94481276724E+02  0.00000000000E+00 0. -1.
</event>
<event>
 4    1  0.5847355E+003  0.2457825E+02  0.7546771E-02  0.1473577E+00
          2   -1    0    0  501    0  0.00000000000E+00  0.00000000000E+00  0.49985250634E+02  0.49985250634E+02  0.00000000000E+00 0. -1.
         -2   -1    0    0    0  501 -0.00000000000E+00 -0.00000000000E+00 -0.12258868274E+02  0.12258868274E+02  0.00000000000E+00 0. -1.
          2    1    1    2  502    0 -0.11215552043E+02  0.21870095784E+02  0.15160610597E+02  0.28877912164E+02  0.00000000000E+00 0. -1.
         -2    1    1    2    0  502  0.11215552043E+02 -0.21870095784E+02  0.22565771763E+02  0.33366206744E+02  0.00000000000E+00 0. -1.
</event>
<event>
 4    1  0.5847355E+003  0.3256485E+02  0.7546771E-02  0.1398542E+00
          2   -1    0    0  501    0  0.00000000000E+00  0.00000000000E+00  0.25045162286E+03  0.25045162286E+03  0.00000000000E+00 0. -1.
         -2   -1    0    0    0  501 -0.00000000000E+00 -0.00000000000E+00 -0.42843357660E+01  0.42843357660E+01  0.00000000000E+00 0. -1.
          2    1    1    2  502    0  0.21099743920E+02  0.24804623578E+02  0.10930889573E+03  0.11405657907E+03  0.00000000000E+00 0. -1.
         -2    1    1    2    0  502 -0.21099743920E+02 -0.24804623578E+02  0.13685839136E+03  0.14067937955E+03  0.00000000000E+00 0. -1.
</event>
<event>
 4    1  0.5847355E+003  0.2831909E+02  0.7546771E-02  0.1434789E+00
          2   -1    0    0  501    0  0.00000000000E+00  0.00000000000E+00  0.81712167836E+03  0.81712167836E+03  0.00000000000E+00 0.  1.
         -2   -1    0    0    0  501 -0.00000000000E+00 -0.00000000000E+00 -0.23663222499E+01  0.23663222499E+01  0.00000000000E+00 0.  1.
          2    1    1    2  502    0  0.13389625741E+02  0.24953737929E+02  0.72083553816E+03  0.72139160252E+03  0.00000000000E+00 0.  1.
         -2    1    1    2    0  502 -0.13389625741E+02 -0.24953737929E+02  0.93919817948E+02  0.98096398087E+02  0.00000000000E+00 0.  1.
</event>
<event>
 4    1  0.5847355E+003  0.2219250E+02  0.7546771E-02  0.1502895E+00
          2   -1    0    0  501    0  0.00000000000E+00  0.00000000000E+00  0.14355874987E+03  0.14355874987E+03  0.00000000000E+00 0.  1.
         -2   -1    0    0    0  501 -0.00000000000E+00 -0.00000000000E+00 -0.17997680567E+02  0.17997680567E+02  0.00000000000E+00 0. -1.
          2    1    1    2  502    0 -0.15552609542E+02 -0.15831093929E+02  0.13545314059E+03  0.13725909986E+03  0.00000000000E+00 0.  1.
         -2    1    1    2    0  502  0.15552609542E+02  0.15831093929E+02 -0.98920712912E+01  0.24297330573E+02  0.00000000000E+00 0. -1.
</event>
<event>
 4    1  0.5847355E+003  0.2203835E+02  0.7546771E-02  0.1504940E+00
          2   -1    0    0  501    0  0.00000000000E+00  0.00000000000E+00  0.31838289479E+02  0.31838289479E+02  0.00000000000E+00 0. -1.
         -2   -1    0    0    0  501 -0.00000000000E+00 -0.00000000000E+00 -0.11325027084E+04  0.11325027084E+04  0.00000000000E+00 0. -1.
          2    1    1    2  502    0 -0.76387532530E+01  0.20672160386E+02  0.27904064282E+02  0.35557356056E+02  0.00000000000E+00 0. -1.
         -2    1    1    2    0  502  0.76387532530E+01 -0.20672160386E+02 -0.11285684832E+04  0.11287836419E+04  0.00000000000E+00 0. -1.
</event>
<event>
 4    1  0.5847355E+003  0.2065742E+02  0.7546771E-02  0.1524213E+00
          2   -1    0    0  501    0  0.00000000000E+00  0.00000000000E+00  0.12597196651E+02  0.12597196651E+02  0.00000000000E+00 0. -1.
         -2   -1    0    0    0  501 -0.00000000000E+00 -0.00000000000E+00 -0.87028231781E+02  0.87028231781E+02  0.00000000000E+00 0.  1.
          2    1    1    2  502    0  0.17823114209E+02 -0.10443456732E+02  0.17136609378E+01  0.20728382050E+02  0.00000000000E+00 0. -1.
         -2    1    1    2    0  502 -0.17823114209E+02  0.10443456732E+02 -0.76144696067E+02  0.78897046382E+02  0.00000000000E+00 0.  1.
</event>
<event>
 4    1  0.5847355E+003  0.3090433E+02  0.7546771E-02  0.1411897E+00
          2   -1    0    0  501    0  0.00000000000E+00  0.00000000000E+00  0.78090260127E+03  0.78090260127E+03  0.00000000000E+00 0. -1.
         -2   -1    0    0    0  501 -0.00000000000E+00 -0.00000000000E+00 -0.50947037086E+02  0.50947037086E+02  0.00000000000E+00 0.  1.
          2    1    1    2  502    0 -0.30856549558E+02  0.17178978763E+01  0.77587989225E+03  0.77649512878E+03  0.00000000000E+00 0. -1.
         -2    1    1    2    0  502  0.30856549558E+02 -0.17178978763E+01 -0.45924328056E+02  0.55354509583E+02  0.00000000000E+00 0.  1.
</event>
<event>
 4    1  0.5847355E+003  0.2609428E+02  0.7546771E-02  0.1456925E+00
          2   -1    0    0  501    0  0.00000000000E+00  0.00000000000E+00  0.14415091290E+03  0.14415091290E+03  0.00000000000E+00 0.  1.
         -2   -1    0    0    0  501 -0.00000000000E+00 -0.00000000000E+00 -0.36912601576E+02  0.36912601576E+02  0.00000000000E+00 0.  1.
          2    1    1    2  502    0  0.20075072124E+02 -0.16670416022E+02  0.13816015436E+03  0.14060277217E+03  0.00000000000E+00 0.  1.
         -2    1    1    2    0  502 -0.20075072124E+02  0.16670416022E+02 -0.30921843032E+02  0.40460742302E+02  0.00000000000E+00 0.  1.
</event>
<event>
 4    1  0.5847355E+003  0.2353708E+02  0.7546771E-02  0.1485862E+00
          2   -1    0    0  501    0  0.00000000000E+00  0.00000000000E+00  0.21972951520E+01  0.21972951520E+01  0.00000000000E+00 0.  1.
         -2   -1    0    0    0  501 -0.00000000000E+00 -0.00000000000E+00 -0.25609379934E+03  0.25609379934E+03  0.00000000000E+00 0.  1.
          2    1    1    2  502    0 -0.29962744338E+01 -0.23345585073E+02 -0.11087197424E+03  0.11334279278E+03  0.00000000000E+00 0.  1.
         -2    1    1    2    0  502  0.29962744338E+01  0.23345585073E+02 -0.14302452995E+03  0.14494830172E+03  0.00000000000E+00 0.  1.
</event>
<event>
 4    1  0.5847355E+003  0.3318333E+02  0.7546771E-02  0.1393805E+00
          2   -1    0    0  501    0  0.00000000000E+00  0.00000000000E+00  0.11151570160E+02  0.11151570160E+02  0.00000000000E+00 0.  1.
         -2   -1    0    0    0  501 -0.00000000000E+00 -0.00000000000E+00 -0.50029269492E+03  0.50029269492E+03  0.00000000000E+00 0.  1.
          2    1    1    2  502    0  0.29061627488E+02 -0.16017333492E+02 -0.15469979719E+02  0.36612203389E+02  0.00000000000E+00 0.  1.
         -2    1    1    2    0  502 -0.29061627488E+02  0.16017333492E+02 -0.47367114505E+03  0.47483206169E+03  0.00000000000E+00 0.  1.
</event>
<event>
 4    1  0.5847355E+003  0.2298445E+02  0.7546771E-02  0.1492693E+00
          2   -1    0    0  501    0  0.00000000000E+00  0.00000000000E+00  0.53895669758E+03  0.53895669758E+03  0.00000000000E+00 0.  1.
         -2   -1    0    0    0  501 -0.00000000000E+00 -0.00000000000E+00 -0.32543866945E+02  0.32543866945E+02  0.00000000000E+00 0.  1.
          2    1    1    2  502    0 -0.62158127584E+01 -0.22128006999E+02  0.53462049392E+03  0.53511434063E+03  0.00000000000E+00 0.  1.
         -2    1    1    2    0  502  0.62158127584E+01  0.22128006999E+02 -0.28207663283E+02  0.36386223903E+02  0.00000000000E+00 0.  1.
</event>
<event>
 4    1  0.5847355E+003  0.3049001E+02  0.7546771E-02  0.1415385E+00
          2   -1    0    0  501    0  0.00000000000E+00  0.00000000000E+00  0.24692651115E+03  0.24692651115E+03  0.00000000000E+00 0. -1.
         -2   -1    0    0    0  501 -0.00000000000E+00 -0.00000000000E+00 -0.18133956208E+03  0.18133956208E+03  0.00000000000E+00 0. -1.
          2    1    1    2  502    0  0.18041878496E+02  0.24579087186E+02  0.24469201037E+03  0.24658430779E+03  0.00000000000E+00 0. -1.
         -2    1    1    2    0  502 -0.18041878496E+02 -0.24579087186E+02 -0.17910506131E+03  0.18168176544E+03  0.00000000000E+00 0. -1.
</event>
<event>
 4    1  0.5847355E+003  0.2703405E+02  0.7546771E-02  0.1447266E+00
          2   -1    0    0  501    0  0.00000000000E+00  0.00000000000E+00  0.18464560343E+03  0.18464560343E+03  0.00000000000E+00 0.  1.
         -2   -1    0    0    0  501 -0.00000000000E+00 -0.00000000000E+00 -0.11953295744E+03  0.11953295744E+03  0.00000000000E+00 0.  1.
          2    1    1    2  502    0  0.19805221273E+01 -0.26961401996E+02  0.18210635765E+03  0.18410205094E+03  0.00000000000E+00 0.  1.
         -2    1    1    2    0  502 -0.19805221273E+01  0.26961401996E+02 -0.11699371167E+03  0.12007650992E+03  0.00000000000E+00 0.  1.
</event>
<event>
 4    1  0.5847355E+003  0.2076218E+02  0.7546771E-02  0.1522688E+00
          2   -1    0    0  501    0  0.00000000000E+00  0.00000000000E+00  0.67508196125E+00  0.67508196125E+00  0.00000000000E+00 0. -1.
         -2   -1    0    0    0  501 -0.00000000000E+00 -0.00000000000E+00 -0.86148909197E+03  0.86148909197E+03  0.00000000000E+00 0.  1.
          2    1    1    2  502    0  0.39638790713E+01 -0.20380279720E+02 -0.21110830409E+03  0.21212681159E+03  0.00000000000E+00 0. -1.
         -2    1    1    2    0  502 -0.39638790713E+01  0.20380279720E+02 -0.64970570592E+03  0.65003736234E+03  0.00000000000E+00 0.  1.
</event>
<event>
 4    1  0.5847355E+003  0.2703966E+02  0.7546771E-02  0.1447210E+00
          2   -1    0    0  501    0  0.00000000000E+00  0.00000000000E+00  0.44810859699E+03  0.44810859699E+03  0.00000000000E+00 0. -1.
         -2   -1    0    0    0  501 -0.00000000000E+00 -0.00000000000E+00 -0.19960271891E+01  0.19960271891E+01  0.00000000000E+00 0.  1.
          2    1    1    2  502    0 -0.10249845702E+02  0.25021665801E+02  0.31921607902E+03  0.32035924866E+03  0.00000000000E+00 0. -1.
         -2    1    1    2    0  502  0.10249845702E+02 -0.25021665801E+02  0.12689649078E+03  0.12974537552E+03  0.00000000000E+00 0.  1.
</event>
<event>
 4    1  0.5847355E+003  0.3387039E+02  0.7546771E-02  0.1388683E+00
          2   -1    0    0  501    0  0.00000000000E+00  0.00000000000E+00  0.93729894675E+03  0.93729894675E+03  0.00000000000E+00 0. -1.
         -2   -1    0    0    0  501 -0.00000000000E+00 -0.00000000000E+00 -0.10238767798E+03  0.10238767798E+03  0.00000000000E+00 0. -1.
          2    1    1    2  502    0  0.40326452389E+01 -0.33629463149E+02  0.93418249309E+03  0.93479630584E+03  0.00000000000E+00 0. -1.
         -2    1    1    2    0  502 -0.40326452389E+01  0.33629463149E+02 -0.99271224322E+02  0.10489031889E+03  0.00000000000E+00 0. -1.
</event>
<event>
 4    1  0.5847355E+003  0.2560283E+02  0.7546771E-02  0.1462171E+00
          2   -1    0    0  501    0  0.00000000000E+00  0.00000000000E+00  0.57598933466E+02  0.57598933466E+02  0.00000000000E+00 0.  1.
         -2   -1    0    0    0  501 -0.00000000000E+00 -0.00000000000E+00 -0.13128328189E+02  0.13128328189E+02  0.00000000000E+00 0. -1.
          2    1    1    2  502    0  0.14458309730E+02 -0.21129650779E+02  0.35138610939E+02  0.43476739079E+02  0.00000000000E+00 0.  1.
         -2    1    1    2    0  502 -0.14458309730E+02  0.21129650779E+02  0.93319943385E+01  0.27250522575E+02  0.00000000000E+00 0. -1.
</event>
<event>
 4    1  0.5847355E+003  0.2074408E+02  0.7546771E-02  0.1522950E+00
          2   -1    0    0  501    0  0.00000000000E+00  0.00000000000E+00  0.44808599230E+03  0.44808599230E+03  0.00000000000E+00 0.  1.
         -2   -1    0    0    0  501 -0.00000000000E+00 -0.00000000000E+00 -0.11870215958E+03  0.11870215958E+03  0.00000000000E+00 0. -1.
          2    1    1    2  502    0  0.14604633309E+01 -0.20692605661E+02  0.44693728271E+03  0.44741843007E+03  0.00000000000E+00 0.  1.
         -2    1    1    2    0  502 -0.14604633309E+01  0.20692605661E+02 -0.11755344999E+03  0.11936972182E+03  0.00000000000E+00 0. -1.
</event>
<event>
 4    1  0.5847355E+003  0.2347770E+02  0.7546771E-02  0.1486585E+00
          2   -1    0    0  501    0  0.00000000000E+00  0.00000000000E+00  0.77679455679E+03  0.77679455679E+03  0.00000000000E+00 0. -1.
         -2   -1    0    0    0  501 -0.00000000000E+00 -0.00000000000E+00 -0.29191375102E+01  0.29191375102E+01  0.00000000000E+00 0. -1.
          2    1    1    2  502    0  0.86388036104E+01 -0.21830565346E+02  0.72611749317E+03  0.72649694866E+03  0.00000000000E+00 0. -1.
         -2    1    1    2    0  502 -0.86388036104E+01  0.21830565346E+02  0.47757926103E+02  0.53216745643E+02  0.00000000000E+00 0. -1.
</event>
<event>
 4    1  0.5847355E+003  0.3068052E+02  0.7546771E-02  0.1413773E+00
          2   -1    0    0  501    0  0.00000000000E+00  0.00000000000E+00  0.19972080009E+02  0.19972080009E+02  0.00000000000E+00 0. -1.
         -2   -1    0    0    0  501 -0.00000000000E+00 -0.00000000000E+00 -0.21143292995E+03  0.21143292995E+03  0.00000000000E+00 0. -1.
          2    1    1    2  502    0 -0.56524202067E+01  0.30155342685E+02  0.62644646626E+01  0.31313544420E+02  0.00000000000E+00 0. -1.
         -2    1    1    2    0  502  0.56524202067E+01 -0.30155342685E+02 -0.19772531460E+03  0.20009146553E+03  0.00000000000E+00 0. -1.
</event>
<event>
 4    1  0.5847355E+003  0.2309925E+02  0.7546771E-02  0.1491256E+00
          2   -1    0    0  501    0  0.00000000000E+00  0.00000000000E+00  0.15648220680E+04  0.15648220680E+04  0.00000000000E+00 0.  1.
         -2   -1    0    0    0  501 -0.00000000000E+00 -0.00000000000E+00 -0.10576814119E+01  0.10576814119E+01  0.00000000000E+00 0.  1.
          2    1    1    2  502    0 -0.14528965283E+01  0.23053510885E+02  0.14263773702E+04  0.14265643965E+04  0.00000000000E+00 0.  1.
         -2    1    1    2    0  502  0.14528965283E+01 -0.23053510885E+02  0.13738701642E+03  0.13931535290E+03  0.00000000000E+00 0.  1.
</event>
<event>
 4    1  0.5847355E+003  0.2006828E+02  0.7546771E-02  0.1532994E+00
          2   -1    0    0  501    0  0.00000000000E+00  0.00000000000E+00  0.10241167614E+04  0.10241167614E+04  0.00000000000E+00 0.  1.
         -2   -1    0    0    0  501 -0.00000000000E+00 -0.00000000000E+00 -0.80197776841E+01  0.80197776841E+01  0.00000000000E+00 0.  1.
          2    1    1    2  502    0 -0.11692600739E+02 -0.16310092492E+02  0.10113049531E+04  0.10115040505E+04  0.00000000000E+00 0.  1.
         -2    1    1    2    0  502  0.11692600739E+02  0.16310092492E+02  0.47920306699E+01  0.20632488630E+02  0.00000000000E+00 0.  1.
</event>
<event>
 4    1  0.5847355E+003  0.5619500E+02  0.7546771E-02  0.1273339E+00
          2   -1    0    0  501    0  0.00000000000E+00  0.00000000000E+00  0.37271049901E+02  0.37271049901E+02  0.00000000000E+00 0.  1.
         -2   -1    0    0    0  501 -0.00000000000E+00 -0.00000000000E+00 -0.24108098458E+03  0.24108098458E+03  0.00000000000E+00 0.  1.
          2    1    1    2  502    0 -0.44013254768E+02 -0.34938680752E+02  0.10177295375E+02  0.57109152936E+02  0.00000000000E+00 0.  1.
         -2    1    1    2    0  502  0.44013254768E+02  0.34938680752E+02 -0.21398723005E+03  0.22124288155E+03  0.00000000000E+00 0.  1.
</event>
<event>
 4    1  0.5847355E+003  0.2095570E+02  0.7546771E-02  0.1519898E+00
          2   -1    0    0  501    0  0.00000000000E+00  0.00000000000E+00  0.16276384071E+04  0.16276384071E+04  0.00000000000E+00 0. -1.
         -2   -1    0    0    0  501 -0.00000000000E+00 -0.00000000000E+00 -0.12204270996E+01  0.12204270996E+01  0.00000000000E+00 0.  1.
          2    1    1    2  502    0  0.20955681074E+02 -0.26273728169E-01  0.15319989562E+04  0.15321422725E+04  0.00000000000E+00 0. -1.
         -2    1    1    2    0  502 -0.20955681074E+02  0.26273728169E-01  0.94419023837E+02  0.96716561776E+02  0.00000000000E+00 0.  1.
</event>
<event>
 4    1  0.5847355E+003  0.2102797E+02  0.7546771E-02  0.1518866E+00
          2   -1    0    0  501    0  0.00000000000E+00  0.00000000000E+00  0.11027089330E+04  0.11027089330E+04  0.00000000000E+00 0. -1.
         -2   -1    0    0    0  501 -0.00000000000E+00 -0.00000000000E+00 -0.67082325381E+00  0.67082325381E+00  0.00000000000E+00 0. -1.
          2    1    1    2  502    0  0.14213909325E+02  0.15496454345E+02  0.90091479303E+03  0.90116016314E+03  0.00000000000E+00 0. -1.
         -2    1    1    2    0  502 -0.14213909325E+02 -0.15496454345E+02  0.20112331676E+03  0.20221959316E+03  0.00000000000E+00 0. -1.
</event>
<event>
 4    1  0.5847355E+003  0.2008065E+02  0.7546771E-02  0.1532806E+00
          2   -1    0    0  501    0  0.00000000000E+00  0.00000000000E+00  0.13024233198E+04  0.13024233198E+04  0.00000000000E+00 0. -1.
         -2   -1    0    0    0  501 -0.00000000000E+00 -0.00000000000E+00 -0.40924695328E+00  0.40924695328E+00  0.00000000000E+00 0. -1.
          2    1    1    2  502    0 -0.60177803484E+01  0.19157722712E+02  0.32957071418E+03  0.33018190088E+03  0.00000000000E+00 0. -1.
         -2    1    1    2    0  502  0.60177803484E+01 -0.19157722712E+02  0.97244335864E+03  0.97265066585E+03  0.00000000000E+00 0. -1.
</event>
<event>
 4    1  0.5847355E+003  0.2660753E+02  0.7546771E-02  0.1451591E+00
          2   -1    0    0  501    0  0.00000000000E+00  0.00000000000E+00  0.14711425133E+03  0.14711425133E+03  0.00000000000E+00 0.  1.
         -2   -1    0    0    0  501 -0.00000000000E+00 -0.00000000000E+00 -0.94821669569E+02  0.94821669569E+02  0.00000000000E+00 0.  1.
          2    1    1    2  502    0 -0.26586155504E+02 -0.10664109830E+01  0.14400464460E+03  0.14644213384E+03  0.00000000000E+00 0.  1.
         -2    1    1    2    0  502  0.26586155504E+02  0.10664109830E+01 -0.91712062839E+02  0.95493787060E+02  0.00000000000E+00 0.  1.
</event>
<event>
 4    1  0.5847355E+003  0.2325541E+02  0.7546771E-02  0.1489316E+00
          2   -1    0    0  501    0  0.00000000000E+00  0.00000000000E+00  0.90103922550E+00  0.90103922550E+00  0.00000000000E+00 0. -1.
         -2   -1    0    0    0  501 -0.00000000000E+00 -0.00000000000E+00 -0.67146839594E+03  0.67146839594E+03  0.00000000000E+00 0. -1.
          2    1    1    2  502    0 -0.14329555923E+02 -0.18316061202E+02 -0.22576755352E+03  0.22696211687E+03  0.00000000000E+00 0. -1.
         -2    1    1    2    0  502  0.14329555923E+02  0.18316061202E+02 -0.44479980319E+03  0.44540731829E+03  0.00000000000E+00 0. -1.
</event>
<event>
 4    1  0.5847355E+003  0.2511508E+02  0.7546771E-02  0.1467520E+00
          2   -1    0    0  501    0  0.00000000000E+00  0.00000000000E+00  0.13467109736E+04  0.13467109736E+04  0.00000000000E+00 0.  1.
         -2   -1    0    0    0  501 -0.00000000000E+00 -0.00000000000E+00 -0.25608196079E+02  0.25608196079E+02  0.00000000000E+00 0. -1.
          2    1    1    2  502    0  0.20491386425E+02  0.14521367122E+02  0.13404070592E+04  0.13406423279E+04  0.00000000000E+00 0.  1.
         -2    1    1    2    0  502 -0.20491386425E+02 -0.14521367122E+02 -0.19304281608E+02  0.31676841843E+02  0.00000000000E+00 0. -1.
</event>
<event>
 4    1  0.5847355E+003  0.3806384E+02  0.7546771E-02  0.1360221E+00
          2   -1    0    0  501    0  0.00000000000E+00  0.00000000000E+00  0.15667031457E+04  0.15667031457E+04  0.00000000000E+00 0.  1.
         -2   -1    0    0    0  501 -0.00000000000E+00 -0.00000000000E+00 -0.12053123435E+01  0.12053123435E+01  0.00000000000E+00 0. -1.
          2    1    1    2  502    0  0.37981974125E+02 -0.24947767655E+01  0.40453883697E+03  0.40632563897E+03  0.00000000000E+00 0. -1.
         -2    1    1    2    0  502 -0.37981974125E+02  0.24947767655E+01  0.11609589963E+04  0.11615828190E+04  0.00000000000E+00 0.  1.
</event>
<event>
 4    1  0.5847355E+003  0.3223630E+02  0.7546771E-02  0.1401109E+00
          2   -1    0    0  501    0  0.00000000000E+00  0.00000000000E+00  0.41317321334E+03  0.41317321334E+03  0.00000000000E+00 0.  1.
         -2   -1    0    0    0  501 -0.00000000000E+00 -0.00000000000E+00 -0.25152982031E+01  0.25152982031E+01  0.00000000000E+00 0.  1.
          2    1    1    2  502    0 -0.35177649403E+01 -0.32043771738E+02  0.20355315703E+03  0.20608994569E+03  0.00000000000E+00 0.  1.
         -2    1    1    2    0  502  0.35177649403E+01  0.32043771738E+02  0.20710475811E+03  0.20959856586E+03  0.00000000000E+00 0.  1.
</event>
<event>
 4    1  0.5847355E+003  0.4442220E+02  0.7546771E-02  0.1324354E+00
          2   -1    0    0  501    0  0.00000000000E+00  0.00000000000E+00  0.10071798351E+04  0.10071798351E+04  0.00000000000E+00 0.  1.
         -2   -1    0    0    0  501 -0.00000000000E+00 -0.00000000000E+00 -0.23136783630E+02  0.23136783630E+02  0.00000000000E+00 0.  1.
          2    1    1    2  502    0  0.12331731247E+02 -0.42676226175E+02  0.98488513853E+03  0.98588643767E+03  0.00000000000E+00 0.  1.
         -2    1    1    2    0  502 -0.12331731247E+02  0.42676226175E+02 -0.84208708840E+00  0.44430181035E+02  0.00000000000E+00 0.  1.
</event>
<event>
 4    1  0.5847355E+003  0.2070574E+02  0.7546771E-02  0.1523508E+00
          2   -1    0    0  501    0  0.00000000000E+00  0.00000000000E+00  0.50808239976E+03  0.50808239976E+03  0.00000000000E+00 0. -1.
         -2   -1    0    0    0  501 -0.00000000000E+00 -0.00000000000E+00 -0.11173841544E+02  0.11173841544E+02  0.00000000000E+00 0.  1.
          2    1    1    2  502    0  0.36649337594E+01 -0.20378807752E+02  0.49808681840E+03  0.49851700694E+03  0.00000000000E+00 0. -1.
         -2    1    1    2    0  502 -0.36649337594E+01  0.20378807752E+02 -0.11782601852E+01  0.20739234362E+02  0.00000000000E+00 0.  1.
</event>
<event>
 4    1  0.5847355E+003  0.2022656E+02  0.7546771E-02  0.1530600E+00
          2   -1    0    0  501    0  0.00000000000E+00  0.00000000000E+00  0.16472981492E+03  0.16472981492E+03  0.00000000000E+00 0.  1.
         -2   -1    0    0    0  501 -0.00000000000E+00 -0.00000000000E+00 -0.30369257042E+02  0.30369257042E+02  0.00000000000E+00 0.  1.
          2    1    1    2  502    0  0.20129525213E+02  0.19788982894E+01  0.16065603733E+03  0.16192429143E+03  0.00000000000E+00 0.  1.
         -2    1    1    2    0  502 -0.20129525213E+02 -0.19788982894E+01 -0.26295479453E+02  0.33174780533E+02  0.00000000000E+00 0.  1.
</event>
<event>
 4    1  0.5847355E+003  0.5403248E+02  0.7546771E-02  0.1281576E+00
          2   -1    0    0  501    0  0.00000000000E+00  0.00000000000E+00  0.28595136183E+04  0.28595136183E+04  0.00000000000E+00 0. -1.
         -2   -1    0    0    0  501 -0.00000000000E+00 -0.00000000000E+00 -0.44359204170E+02  0.44359204170E+02  0.00000000000E+00 0.  1.
          2    1    1    2  502    0  0.54956606954E+01 -0.53752269218E+02  0.28427073124E+04  0.28432207745E+04  0.00000000000E+00 0. -1.
         -2    1    1    2    0  502 -0.54956606954E+01  0.53752269218E+02 -0.27552898178E+02  0.60652048033E+02  0.00000000000E+00 0.  1.
</event>
<event>
 4    1  0.5847355E+003  0.4916592E+02  0.7546771E-02  0.1301830E+00
          2   -1    0    0  501    0  0.00000000000E+00  0.00000000000E+00  0.90996421332E+03  0.90996421332E+03  0.00000000000E+00 0.  1.
         -2   -1    0    0    0  501 -0.00000000000E+00 -0.00000000000E+00 -0.48417936870E+01  0.48417936870E+01  0.00000000000E+00 0. -1.
          2    1    1    2  502    0 -0.41055536705E+02 -0.27050524470E+02  0.75985534251E+03  0.76144430493E+03  0.00000000000E+00 0.  1.
         -2    1    1    2    0  502  0.41055536705E+02  0.27050524470E+02  0.14526707712E+03  0.15336170208E+03  0.00000000000E+00 0. -1.
</event>
<event>
 4    1  0.5847355E+003  0.2445560E+02  0.7546771E-02  0.1474987E+00
          2   -1    0    0  501    0  0.00000000000E+00  0.00000000000E+00  0.22455134759E+03  0.22455134759E+03  0.00000000000E+00 0. -1.
         -2   -1    0    0    0  501 -0.00000000000E+00 -0.00000000000E+00 -0.57196127277E+01  0.57196127277E+01  0.00000000000E+00 0. -1.
          2    1    1    2  502    0 -0.29213614948E+00  0.24453851834E+02  0.19357780154E+03  0.19511648178E+03  0.00000000000E+00 0. -1.
         -2    1    1    2    0  502  0.29213614948E+00 -0.24453851834E+02  0.25253933324E+02  0.35154478540E+02  0.00000000000E+00 0. -1.
</event>
<event>
 4    1  0.5847355E+003  0.2360639E+02  0.7546771E-02  0.1485021E+00
          2   -1    0    0  501    0  0.00000000000E+00  0.00000000000E+00  0.10879494649E+04  0.10879494649E+04  0.00000000000E+00 0.  1.
         -2   -1    0    0    0  501 -0.00000000000E+00 -0.00000000000E+00 -0.67791720699E+01  0.67791720699E+01  0.00000000000E+00 0.  1.
          2    1    1    2  502    0 -0.61107390109E+01  0.22801765717E+02  0.10668648123E+04  0.10671259483E+04  0.00000000000E+00 0.  1.
         -2    1    1    2    0  502  0.61107390109E+01 -0.22801765717E+02  0.14305480467E+02  0.27602688682E+02  0.00000000000E+00 0.  1.
</event>
<event>
 4    1  0.5847355E+003  0.2226724E+02  0.7546771E-02  0.1501910E+00
          2   -1    0    0  501    0  0.00000000000E+00  0.00000000000E+00  0.12302704708E+03  0.12302704708E+03  0.00000000000E+00 0.  1.
         -2   -1    0    0    0  501 -0.00000000000E+00 -0.00000000000E+00 -0.41727671968E+01  0.41727671968E+01  0.00000000000E+00 0.  1.
          2    1    1    2  502    0 -0.85658709426E+01 -0.20553730676E+02  0.71180854812E+02  0.74582464973E+02  0.00000000000E+00 0.  1.
         -2    1    1    2    0  502  0.85658709426E+01  0.20553730676E+02  0.47673425068E+02  0.52617349301E+02  0.00000000000E+00 0.  1.
</event>
<event>
 4    1  0.5847355E+003  0.2569871E+02  0.7546771E-02  0.1461137E+00
          2   -1    0    0  501    0  0.00000000000E+00  0.00000000000E+00  0.17986077483E+03  0.17986077483E+03  0.00000000000E+00 0. -1.
         -2   -1    0    0    0  501 -0.00000000000E+00 -0.00000000000E+00 -0.49572391757E+02  0.49572391757E+02  0.00000000000E+00 0.  1.
          2    1    1    2  502    0 -0.15294321715E+02  0.20652057132E+02  0.17553047748E+03  0.17740172565E+03  0.00000000000E+00 0. -1.
         -2    1    1    2    0  502  0.15294321715E+02 -0.20652057132E+02 -0.45242094400E+02  0.52031440940E+02  0.00000000000E+00 0.  1.
</event>
<event>
 4    1  0.5847355E+003  0.2207757E+02  0.7546771E-02  0.1504418E+00
          2   -1    0    0  501    0  0.00000000000E+00  0.00000000000E+00  0.11621517460E+04  0.11621517460E+04  0.00000000000E+00 0. -1.
         -2   -1    0    0    0  501 -0.00000000000E+00 -0.00000000000E+00 -0.81310065730E+02  0.81310065730E+02  0.00000000000E+00 0. -1.
          2    1    1    2  502    0 -0.20919520015E+01  0.21978239206E+02  0.11605461764E+04  0.11607561531E+04  0.00000000000E+00 0. -1.
         -2    1    1    2    0  502  0.20919520015E+01 -0.21978239206E+02 -0.79704496174E+02  0.82705658647E+02  0.00000000000E+00 0. -1.
</event>
<event>
 4    1  0.5847355E+003  0.2183713E+02  0.7546771E-02  0.1507640E+00
          2   -1    0    0  501    0  0.00000000000E+00  0.00000000000E+00  0.96898370839E+03  0.96898370839E+03  0.00000000000E+00 0. -1.
         -2   -1    0    0    0  501 -0.00000000000E+00 -0.00000000000E+00 -0.23729240979E+02  0.23729240979E+02  0.00000000000E+00 0.  1.
          2    1    1    2  502    0  0.21808065719E+02  0.11263471757E+01  0.96380973652E+03  0.96405708783E+03  0.00000000000E+00 0. -1.
         -2    1    1    2    0  502 -0.21808065719E+02 -0.11263471757E+01 -0.18555269113E+02  0.28655861533E+02  0.00000000000E+00 0.  1.
</event>
<event>
 4    1  0.5847355E+003  0.3597014E+02  0.7546771E-02  0.1373868E+00
          2   -1    0    0  501    0  0.00000000000E+00  0.00000000000E+00  0.19717712357E+04  0.19717712357E+04  0.00000000000E+00 0.  1.
         -2   -1    0    0    0  501 -0.00000000000E+00 -0.00000000000E+00 -0.88967020630E+02  0.88967020630E+02  0.00000000000E+00 0.  1.
          2    1    1    2  502    0 -0.24130707301E+02 -0.26675078883E+02  0.19679643967E+04  0.19682930975E+04  0.00000000000E+00 0.  1.
         -2    1    1    2    0  502  0.24130707301E+02  0.26675078883E+02 -0.85160181611E+02  0.92445158880E+02  0.00000000000E+00 0.  1.
</event>
<event>
 4    1  0.5847355E+003  0.2727235E+02  0.7546771E-02  0.1444891E+00
          2   -1    0    0  501    0  0.00000000000E+00  0.00000000000E+00  0.13200627107E+04  0.13200627107E+04  0.00000000000E+00 0.  1.
         -2   -1    0    0    0  501 -0.00000000000E+00 -0.00000000000E+00 -0.23475405780E+01  0.23475405780E+01  0.00000000000E+00 0.  1.
          2    1    1    2  502    0  0.36868143504E+01 -0.27021996171E+02  0.12352773808E+04  0.12355784024E+04  0.00000000000E+00 0.  1.
         -2    1    1    2    0  502 -0.36868143504E+01  0.27021996171E+02  0.82437789313E+02  0.86831848903E+02  0.00000000000E+00 0.  1.
</event>
<event>
 4    1  0.5847355E+003  0.2697272E+02  0.7546771E-02  0.1447882E+00
          2   -1    0    0  501    0  0.00000000000E+00  0.00000000000E+00  0.39761378672E+02  0.39761378672E+02  0.00000000000E+00 0.  1.
         -2   -1    0    0    0  501 -0.00000000000E+00 -0.00000000000E+00 -0.18089853751E+03  0.18089853751E+03  0.00000000000E+00 0.  1.
          2    1    1    2  502    0  0.12771972333E+02  0.23757191920E+02  0.34032892500E+02  0.43425398295E+02  0.00000000000E+00 0.  1.
         -2    1    1    2    0  502 -0.12771972333E+02 -0.23757191920E+02 -0.17517005134E+03  0.17723451789E+03  0.00000000000E+00 0.  1.
</event>
<event>
 4    1  0.5847355E+003  0.8623366E+02  0.7546771E-02  0.1190071E+00
          2   -1    0    0  501    0  0.00000000000E+00  0.00000000000E+00  0.23291328893E+04  0.23291328893E+04  0.00000000000E+00 0.  1.
         -2   -1    0    0    0  501 -0.00000000000E+00 -0.00000000000E+00 -0.34013731206E+01  0.34013731206E+01  0.00000000000E+00 0. -1.
          2    1    1    2  502    0  0.71390352521E+02  0.48370046948E+02  0.14517305674E+04  0.14542894775E+04  0.00000000000E+00 0.  1.
         -2    1    1    2    0  502 -0.71390352521E+02 -0.48370046948E+02  0.87400094878E+03  0.87824478498E+03  0.00000000000E+00 0. -1.
</event>
<event>
 4    1  0.5847355E+003  0.2053898E+02  0.7546771E-02  0.1525950E+00
          2   -1    0    0  501    0  0.00000000000E+00  0.00000000000E+00  0.29782095275E+03  0.29782095275E+03  0.00000000000E+00 0.  1.
         -2   -1    0    0    0  501 -0.00000000000E+00 -0.00000000000E+00 -0.49181050873E+01  0.49181050873E+01  0.00000000000E+00 0. -1.
          2    1    1    2  502    0  0.89695042287E+01  0.18476952086E+02  0.27417644240E+03  0.27494466958E+03  0.00000000000E+00 0.  1.
         -2    1    1    2    0  502 -0.89695042287E+01 -0.18476952086E+02  0.18726405268E+02  0.27794388260E+02  0.00000000000E+00 0. -1.
</event>
<event>
 4    1  0.5847355E+003  0.2102223E+02  0.7546771E-02  0.1518948E+00
          2   -1    0    0  501    0  0.00000000000E+00  0.00000000000E+00  0.91817448387E+03  0.91817448387E+03  0.00000000000E+00 0.  1.
         -2   -1    0    0    0  501 -0.00000000000E+00 -0.00000000000E+00 -0.10123843812E+01  0.10123843812E+01  0.00000000000E+00 0.  1.
          2    1    1    2  502    0 -0.19687020806E+02  0.73726085205E+01  0.79145161697E+03  0.79173075988E+03  0.00000000000E+00 0.  1.
         -2    1    1    2    0  502  0.19687020806E+02 -0.73726085205E+01  0.12571048252E+03  0.12745610837E+03  0.00000000000E+00 0.  1.
</event>
<event>
 4    1  0.5847355E+003  0.2541303E+02  0.7546771E-02  0.1464235E+00
          2   -1    0    0  501    0  0.00000000000E+00  0.00000000000E+00  0.26297706843E+03  0.26297706843E+03  0.00000000000E+00 0. -1.
         -2   -1    0    0    0  501 -0.00000000000E+00 -0.00000000000E+00 -0.24335794969E+03  0.24335794969E+03  0.00000000000E+00 0. -1.
          2    1    1    2  502    0 -0.22747633025E+02  0.11329927637E+02  0.26169642784E+03  0.26292744705E+03  0.00000000000E+00 0. -1.
         -2    1    1    2    0  502  0.22747633025E+02 -0.11329927637E+02 -0.24207730910E+03  0.24340757107E+03  0.00000000000E+00 0. -1.
</event>
<event>
 4    1  0.5847355E+003  0.2204278E+02  0.7546771E-02  0.1504881E+00
          2   -1    0    0  501    0  0.00000000000E+00  0.00000000000E+00  0.42239926529E+01  0.42239926529E+01  0.00000000000E+00 0.  1.
         -2   -1    0    0    0  501 -0.00000000000E+00 -0.00000000000E+00 -0.42336033830E+03  0.42336033830E+03  0.00000000000E+00 0.  1.
          2    1    1    2  502    0 -0.84342826932E+01 -0.20365341035E+02 -0.27117653555E+02  0.34946407174E+02  0.00000000000E+00 0.  1.
         -2    1    1    2    0  502  0.84342826932E+01  0.20365341035E+02 -0.39201869210E+03  0.39263792378E+03  0.00000000000E+00 0.  1.
</event>
<event>
 4    1  0.5847355E+003  0.2486134E+02  0.7546771E-02  0.1470361E+00
          2   -1    0    0  501    0  0.00000000000E+00  0.00000000000E+00  0.47615343464E+03  0.47615343464E+03  0.00000000000E+00 0. -1.
         -2   -1    0    0    0  501 -0.00000000000E+00 -0.00000000000E+00 -0.14612010022E+01  0.14612010022E+01  0.00000000000E+00 0. -1.
          2    1    1    2  502    0  0.24815862272E+02  0.15031119320E+01  0.31713538327E+03  0.31810837412E+03  0.00000000000E+00 0. -1.
         -2    1    1    2    0  502 -0.24815862272E+02 -0.15031119320E+01  0.15755685037E+03  0.15950626152E+03  0.00000000000E+00 0. -1.
</event>
<event>
 4    1  0.5847355E+003  0.2661804E+02  0.7546771E-02  0.1451483E+00
          2   -1    0    0  501    0  0.00000000000E+00  0.00000000000E+00  0.94326497363E+03  0.94326497363E+03  0.00000000000E+00 0. -1.
         -2   -1    0    0    0  501 -0.00000000000E+00 -0.00000000000E+00 -0.84365801983E+00  0.84365801983E+00  0.00000000000E+00 0. -1.
          2    1    1    2  502    0  0.22014589133E+02 -0.14962543982E+02  0.62753706829E+03  0.62810133891E+03  0.00000000000E+00 0. -1.
         -2    1    1    2    0  502 -0.22014589133E+02  0.14962543982E+02  0.31488424732E+03  0.31600729274E+03  0.00000000000E+00 0. -1.
</event>
<event>
 4    1  0.5847355E+003  0.2031754E+02  0.7546771E-02  0.1529236E+00
          2   -1    0    0  501    0  0.00000000000E+00  0.00000000000E+00  0.32084874945E+03  0.32084874945E+03  0.00000000000E+00 0. -1.
         -2   -1    0    0    0  501 -0.00000000000E+00 -0.00000000000E+00 -0.59606037338E+01  0.59606037338E+01  0.00000000000E+00 0.  1.
          2    1    1    2  502    0 -0.74990482745E+01 -0.18882974021E+02  0.30214260017E+03  0.30282495483E+03  0.00000000000E+00 0. -1.
         -2    1    1    2    0  502  0.74990482745E+01  0.18882974021E+02  0.12745545545E+02  0.23984398349E+02  0.00000000000E+00 0.  1.
</event>
<event>
 4    1  0.5847355E+003  0.2287201E+02  0.7546771E-02  0.1494112E+00
          2   -1    0    0  501    0  0.00000000000E+00  0.00000000000E+00  0.14674619425E+03  0.14674619425E+03  0.00000000000E+00 0.  1.
         -2   -1    0    0    0  501 -0.00000000000E+00 -0.00000000000E+00 -0.24421078310E+02  0.24421078310E+02  0.00000000000E+00 0. -1.
          2    1    1    2  502    0  0.19516353353E+02 -0.11926472084E+02  0.14025339273E+03  0.14210609754E+03  0.00000000000E+00 0.  1.
         -2    1    1    2    0  502 -0.19516353353E+02  0.11926472084E+02 -0.17928276795E+02  0.29061175018E+02  0.00000000000E+00 0. -1.
</event>
<event>
 4    1  0.5847355E+003  0.2240721E+02  0.7546771E-02  0.1500079E+00
          2   -1    0    0  501    0  0.00000000000E+00  0.00000000000E+00  0.12078339709E+04  0.12078339709E+04  0.00000000000E+00 0. -1.
         -2   -1    0    0    0  501 -0.00000000000E+00 -0.00000000000E+00 -0.25325932955E+01  0.25325932955E+01  0.00000000000E+00 0.  1.
          2    1    1    2  502    0  0.19469277875E+02  0.11091908931E+02  0.11559432279E+04  0.11561603822E+04  0.00000000000E+00 0. -1.
         -2    1    1    2    0  502 -0.19469277875E+02 -0.11091908931E+02  0.49358149672E+02  0.54206181970E+02  0.00000000000E+00 0.  1.
</event>
<event>
 4    1  0.5847355E+003  0.2023312E+02  0.7546771E-02  0.1530501E+00
          2   -1    0    0  501    0  0.00000000000E+00  0.00000000000E+00  0.87725930431E+02  0.87725930431E+02  0.00000000000E+00 0. -1.
         -2   -1    0    0    0  501 -0.00000000000E+00 -0.00000000000E+00 -0.66440811302E+01  0.66440811302E+01  0.00000000000E+00 0.  1.
          2    1    1    2  502    0 -0.20088980478E+02  0.24107929552E+01  0.66283155905E+02  0.69302495020E+02  0.00000000000E+00 0. -1.
         -2    1    1    2    0  502  0.20088980478E+02 -0.24107929552E+01  0.14798693396E+02  0.25067516541E+02  0.00000000000E+00 0.  1.
</event>
<event>
 4    1  0.5847355E+003  0.3425653E+02  0.7546771E-02  0.1385867E+00
          2   -1    0    0  501    0  0.00000000000E+00  0.00000000000E+00  0.42439572427E+03  0.42439572427E+03  0.00000000000E+00 0. -1.
         -2   -1    0    0    0  501 -0.00000000000E+00 -0.00000000000E+00 -0.45641632104E+03  0.45641632104E+03  0.00000000000E+00 0.  1.
          2    1    1    2  502    0  0.34214292336E+02 -0.17005501284E+01  0.42305963019E+03  0.42444429596E+03  0.00000000000E+00 0. -1.
         -2    1    1    2    0  502 -0.34214292336E+02  0.17005501284E+01 -0.45508022696E+03  0.45636774935E+03  0.00000000000E+00 0.  1.
</event>
<event>
 4    1  0.5847355E+003  0.2461948E+02  0.7546771E-02  0.1473106E+00
          2   -1    0    0  501    0  0.00000000000E+00  0.00000000000E+00  0.12588891786E+03  0.12588891786E+03  0.00000000000E+00 0.  1.
         -2   -1    0    0    0  501 -0.00000000000E+00 -0.00000000000E+00 -0.48695282895E+01  0.48695282895E+01  0.00000000000E+00 0.  1.
          2    1    1    2  502    0  0.15110930087E+02 -0.19436507845E+02  0.53572602052E+02  0.58958813895E+02  0.00000000000E+00 0.  1.
         -2    1    1    2    0  502 -0.15110930087E+02  0.19436507845E+02  0.67446787516E+02  0.71799632252E+02  0.00000000000E+00 0.  1.
</event>
<event>
 4    1  0.5847355E+003  0.2765820E+02  0.7546771E-02  0.1441106E+00
          2   -1    0    0  501    0  0.00000000000E+00  0.00000000000E+00  0.35970635346E+02  0.35970635346E+02  0.00000000000E+00 0.  1.
         -2   -1    0    0    0  501 -0.00000000000E+00 -0.00000000000E+00 -0.73862759566E+02  0.73862759566E+02  0.00000000000E+00 0. -1.
          2    1    1    2  502    0  0.27187067159E+02 -0.50832342631E+01  0.27395252082E+02  0.38929111574E+02  0.00000000000E+00 0.  1.
         -2    1    1    2    0  502 -0.27187067159E+02  0.50832342631E+01 -0.65287376303E+02  0.70904283339E+02  0.00000000000E+00 0. -1.
</event>
<event>
 4    1  0.5847355E+003  0.2396070E+02  0.7546771E-02  0.1480775E+00
          2   -1    0    0  501    0  0.00000000000E+00  0.00000000000E+00  0.46642065886E+02  0.46642065886E+02  0.00000000000E+00 0.  1.
         -2   -1    0    0    0  501 -0.00000000000E+00 -0.00000000000E+00 -0.21796427480E+02  0.21796427480E+02  0.00000000000E+00 0.  1.
          2    1    1    2  502    0 -0.11988386092E+00 -0.23960397074E+02  0.34999136223E+02  0.42415263013E+02  0.00000000000E+00 0.  1.
         -2    1    1    2    0  502  0.11988386092E+00  0.23960397074E+02 -0.10153497817E+02  0.26023230353E+02  0.00000000000E+00 0.  1.
</event>
<event>
 4    1  0.5847355E+003  0.2448131E+02  0.7546771E-02  0.1474690E+00
          2   -1    0    0  501    0  0.00000000000E+00  0.00000000000E+00  0.29705231404E+03  0.29705231404E+03  0.00000000000E+00 0.  1.
         -2   -1    0    0    0  501 -0.00000000000E+00 -0.00000000000E+00 -0.30170234934E+02  0.30170234934E+02  0.00000000000E+00 0.  1.
          2    1    1    2  502    0 -0.17493447129E+02  0.17126402675E+02  0.29148698695E+03  0.29251324402E+03  0.00000000000E+00 0.  1.
         -2    1    1    2    0  502  0.17493447129E+02 -0.17126402675E+02 -0.24604907843E+02  0.34709304963E+02  0.00000000000E+00 0.  1.
</event>
<event>
 4    1  0.5847355E+003  0.3196536E+02  0.7546771E-02  0.1403253E+00
          2   -1    0    0  501    0  0.00000000000E+00  0.00000000000E+00  0.20993019900E+02  0.20993019900E+02  0.00000000000E+00 0. -1.
         -2   -1    0    0    0  501 -0.00000000000E+00 -0.00000000000E+00 -0.78645842786E+02  0.78645842786E+02  0.00000000000E+00 0.  1.
          2    1    1    2  502    0 -0.44672485161E+01  0.31651660974E+02  0.19294616342E+01  0.32023534688E+02  0.00000000000E+00 0. -1.
         -2    1    1    2    0  502  0.44672485161E+01 -0.31651660974E+02 -0.59582284521E+02  0.67615327999E+02  0.00000000000E+00 0.  1.
</event>
<event>
 4    1  0.5847355E+003  0.2264057E+02  0.7546771E-02  0.1497062E+00
          2   -1    0    0  501    0  0.00000000000E+00  0.00000000000E+00  0.57996884224E+03  0.57996884224E+03  0.00000000000E+00 0. -1.
         -2   -1    0    0    0  501 -0.00000000000E+00 -0.00000000000E+00 -0.68336927325E+02  0.68336927325E+02  0.00000000000E+00 0.  1.
          2    1    1    2  502    0 -0.21199337585E+01  0.22541102453E+02  0.57786581161E+03  0.57830916614E+03  0.00000000000E+00 0. -1.
         -2    1    1    2    0  502  0.21199337585E+01 -0.22541102453E+02 -0.66233896695E+02  0.69996603420E+02  0.00000000000E+00 0.  1.
</event>
<event>
 4    1  0.5847355E+003  0.2559031E+02  0.7546771E-02  0.1462307E+00
          2   -1    0    0  501    0  0.00000000000E+00  0.00000000000E+00  0.57415645412E+03  0.57415645412E+03  0.00000000000E+00 0.  1.
         -2   -1    0    0    0  501 -0.00000000000E+00 -0.00000000000E+00 -0.23714490361E+01  0.23714490361E+01  0.00000000000E+00 0.  1.
          2    1    1    2  502    0 -0.23777035218E+02  0.94613181707E+01  0.49357105210E+03  0.49423400067E+03  0.00000000000E+00 0.  1.
         -2    1    1    2    0  502  0.23777035218E+02 -0.94613181707E+01  0.78213952980E+02  0.82293902484E+02  0.00000000000E+00 0.  1.
</event>
<event>
 4    1  0.5847355E+003  0.4446468E+02  0.7546771E-02  0.1324138E+00
          2   -1    0    0  501    0  0.00000000000E+00  0.00000000000E+00  0.28420092192E+04  0.28420092192E+04  0.00000000000E+00 0.  1.
         -2   -1    0    0    0  501 -0.00000000000E+00 -0.00000000000E+00 -0.10097245547E+02  0.10097245547E+02  0.00000000000E+00 0.  1.
          2    1    1    2  502    0  0.18712705404E+02 -0.40335372114E+02  0.27920070223E+04  0.27923610655E+04  0.00000000000E+00 0.  1.
         -2    1    1    2    0  502 -0.18712705404E+02  0.40335372114E+02  0.39904951332E+02  0.59745399219E+02  0.00000000000E+00 0.  1.
</event>
<event>
 4    1  0.5847355E+003  0.4252535E+02  0.7546771E-02  0.1334291E+00
          2   -1    0    0  501    0  0.00000000000E+00  0.00000000000E+00  0.17315546399E+03  0.17315546399E+03  0.00000000000E+00 0.  1.
         -2   -1    0    0    0  501 -0.00000000000E+00 -0.00000000000E+00 -0.19420752092E+02  0.19420752092E+02  0.00000000000E+00 0.  1.
          2    1    1    2  502    0 -0.11930852652E+02  0.40817404796E+02  0.14233148919E+03  0.14854850586E+03  0.00000000000E+00 0.  1.
         -2    1    1    2    0  502  0.11930852652E+02 -0.40817404796E+02  0.11403222713E+02  0.44027710223E+02  0.00000000000E+00 0.  1.
</event>
<event>
 4    1  0.5847355E+003  0.2096365E+02  0.7546771E-02  0.1519784E+00
          2   -1    0    0  501    0  0.00000000000E+00  0.00000000000E+00  0.16515092558E+03  0.16515092558E+03  0.00000000000E+00 0.  1.
         -2   -1    0    0    0  501 -0.00000000000E+00 -0.00000000000E+00 -0.25166745225E+02  0.25166745225E+02  0.00000000000E+00 0.  1.
          2    1    1    2  502    0  0.12017200940E+02 -0.17177357828E+02  0.15997951345E+03  0.16134720160E+03  0.00000000000E+00 0.  1.
         -2    1    1    2    0  502 -0.12017200940E+02  0.17177357828E+02 -0.19995333095E+02  0.28970469205E+02  0.00000000000E+00 0.  1.
</event>
<event>
 4    1  0.5847355E+003  0.2038625E+02  0.7546771E-02  0.1528211E+00
          2   -1    0    0  501    0  0.00000000000E+00  0.00000000000E+00  0.13736360116E+04  0.13736360116E+04  0.00000000000E+00 0. -1.
         -2   -1    0    0    0  501 -0.00000000000E+00 -0.00000000000E+00 -0.89225810801E+01  0.89225810801E+01  0.00000000000E+00 0. -1.
          2    1    1    2  502    0  0.10144084768E+02 -0.17683229625E+02  0.13618147109E+04  0.13619672925E+04  0.00000000000E+00 0. -1.
         -2    1    1    2    0  502 -0.10144084768E+02  0.17683229625E+02  0.28987195865E+01  0.20591300128E+02  0.00000000000E+00 0. -1.
</event>
<event>
 4    1  0.5847355E+003  0.2485943E+02  0.7546771E-02  0.1470382E+00
          2   -1    0    0  501    0  0.00000000000E+00  0.00000000000E+00  0.18776594621E+02  0.18776594621E+02  0.00000000000E+00 0. -1.
         -2   -1    0    0    0  501 -0.00000000000E+00 -0.00000000000E+00 -0.26427313347E+03  0.26427313347E+03  0.00000000000E+00 0. -1.
          2    1    1    2  502    0 -0.91664421230E+01 -0.23107737098E+02  0.96708350530E+01  0.26674261482E+02  0.00000000000E+00 0. -1.
         -2    1    1    2    0  502  0.91664421230E+01  0.23107737098E+02 -0.25516737390E+03  0.25637546661E+03  0.00000000000E+00 0. -1.
</event>
<event>
 4    1  0.5847355E+003  0.2033361E+02  0.7546771E-02  0.1528995E+00
          2   -1    0    0  501    0  0.00000000000E+00  0.00000000000E+00  0.37004898291E+02  0.37004898291E+02  0.00000000000E+00 0.  1.
         -2   -1    0    0    0  501 -0.00000000000E+00 -0.00000000000E+00 -0.17808702632E+02  0.17808702632E+02  0.00000000000E+00 0.  1.
          2    1    1    2  502    0  0.11688041341E+02 -0.16638674442E+02  0.26327699231E+02  0.33265651119E+02  0.00000000000E+00 0.  1.
         -2    1    1    2    0  502 -0.11688041341E+02  0.16638674442E+02 -0.71315035709E+01  0.21547949804E+02  0.00000000000E+00 0.  1.
</event>
<event>
 4    1  0.5847355E+003  0.2048108E+02  0.7546771E-02  0.1526804E+00
          2   -1    0    0  501    0  0.00000000000E+00  0.00000000000E+00  0.12318533399E+03  0.12318533399E+03  0.00000000000E+00 0. -1.
         -2   -1    0    0    0  501 -0.00000000000E+00 -0.00000000000E+00 -0.10243068229E+03  0.10243068229E+03  0.00000000000E+00 0. -1.
          2    1    1    2  502    0 -0.16613744655E+02  0.11977392280E+02  0.12129437696E+03  0.12301138289E+03  0.00000000000E+00 0. -1.
         -2    1    1    2    0  502  0.16613744655E+02 -0.11977392280E+02 -0.10053972527E+03  0.10260463339E+03  0.00000000000E+00 0. -1.
</event>
<event>
 4    1  0.5847355E+003  0.3901053E+02  0.7546771E-02  0.1354384E+00
          2   -1    0    0  501    0  0.00000000000E+00  0.00000000000E+00  0.45207511487E+03  0.45207511487E+03  0.00000000000E+00 0. -1.
         -2   -1    0    0    0  501 -0.00000000000E+00 -0.00000000000E+00 -0.51893956371E+01  0.51893956371E+01  0.00000000000E+00 0. -1.
          2    1    1    2  502    0  0.20323735900E+02  0.33298158670E+02  0.35895666199E+03  0.36107022420E+03  0.00000000000E+00 0. -1.
         -2    1    1    2    0  502 -0.20323735900E+02 -0.33298158670E+02  0.87929057236E+02  0.96194286307E+02  0.00000000000E+00 0. -1.
</event>
<event>
 4    1  0.5847355E+003  0.2058443E+02  0.7546771E-02  0.1525282E+00
          2   -1    0    0  501    0  0.00000000000E+00  0.00000000000E+00  0.87280155418E+02  0.87280155418E+02  0.00000000000E+00 0. -1.
         -2   -1    0    0    0  501 -0.00000000000E+00 -0.00000000000E+00 -0.86139052295E+01  0.86139052295E+01  0.00000000000E+00 0. -1.
          2    1    1    2  502    0  0.30859116046E+01 -0.20351807509E+02  0.71007621659E+02  0.73931057432E+02  0.00000000000E+00 0. -1.
         -2    1    1    2    0  502 -0.30859116046E+01  0.20351807509E+02  0.76586285298E+01  0.21963003216E+02  0.00000000000E+00 0. -1.
</event>
<event>
 4    1  0.5847355E+003  0.3837429E+02  0.7546771E-02  0.1358285E+00
          2   -1    0    0  501    0  0.00000000000E+00  0.00000000000E+00  0.43392292009E+03  0.43392292009E+03  0.00000000000E+00 0. -1.
         -2   -1    0    0    0  501 -0.00000000000E+00 -0.00000000000E+00 -0.39347887614E+01  0.39347887614E+01  0.00000000000E+00 0.  1.
          2    1    1    2  502    0  0.28929523155E+02 -0.25212446997E+02  0.13380556701E+03  0.13919954941E+03  0.00000000000E+00 0.  1.
         -2    1    1    2    0  502 -0.28929523155E+02  0.25212446997E+02  0.29618256432E+03  0.29865815944E+03  0.00000000000E+00 0. -1.
</event>
<event>
 4    1  0.5847355E+003  0.3557589E+02  0.7546771E-02  0.1376559E+00
          2   -1    0    0  501    0  0.00000000000E+00  0.00000000000E+00  0.36466810630E+03  0.36466810630E+03  0.00000000000E+00 0. -1.
         -2   -1    0    0    0  501 -0.00000000000E+00 -0.00000000000E+00 -0.24246816397E+02  0.24246816397E+02  0.00000000000E+00 0. -1.
          2    1    1    2  502    0 -0.35540786286E+02 -0.15800363056E+01  0.35021363097E+03  0.35201595322E+03  0.00000000000E+00 0. -1.
         -2    1    1    2    0  502  0.35540786286E+02  0.15800363056E+01 -0.97923410710E+01  0.36898969473E+02  0.00000000000E+00 0. -1.
</event>
<event>
 4    1  0.5847355E+003  0.2253628E+02  0.7546771E-02  0.1498405E+00
          2   -1    0    0  501    0  0.00000000000E+00  0.00000000000E+00  0.24608647667E+02  0.24608647667E+02  0.00000000000E+00 0. -1.
         -2   -1    0    0    0  501 -0.00000000000E+00 -0.00000000000E+00 -0.87022248624E+02  0.87022248624E+02  0.00000000000E+00 0. -1.
          2    1    1    2  502    0 -0.95183170622E+01 -0.20427567069E+02  0.17542723626E+02  0.28559254337E+02  0.00000000000E+00 0. -1.
         -2    1    1    2    0  502  0.95183170622E+01  0.20427567069E+02 -0.79956324583E+02  0.83071641954E+02  0.00000000000E+00 0. -1.
</event>
<event>
 4    1  0.5847355E+003  0.4563743E+02  0.7546771E-02  0.1318282E+00
          2   -1    0    0  501    0  0.00000000000E+00  0.00000000000E+00  0.78284571007E+03  0.78284571007E+03  0.00000000000E+00 0.  1.
         -2   -1    0    0    0  501 -0.00000000000E+00 -0.00000000000E+00 -0.67286790705E+01  0.67286790705E+01  0.00000000000E+00 0. -1.
          2    1    1    2  502    0  0.33844548100E+02  0.30615714245E+02  0.69502941007E+03  0.69652613465E+03  0.00000000000E+00 0.  1.
         -2    1    1    2    0  502 -0.33844548100E+02 -0.30615714245E+02  0.81087620927E+02  0.93048254483E+02  0.00000000000E+00 0. -1.
</event>
<event>
 4    1  0.5847355E+003  0.2551596E+02  0.7546771E-02  0.1463113E+00
          2   -1    0    0  501    0  0.00000000000E+00  0.00000000000E+00  0.32570685042E+03  0.32570685042E+03  0.00000000000E+00 0.  1.
         -2   -1    0    0    0  501 -0.00000000000E+00 -0.00000000000E+00 -0.92014979460E+01  0.92014979460E+01  0.00000000000E+00 0. -1.
          2    1    1    2  502    0 -0.24594126326E+02  0.67965711157E+01  0.30640568095E+03  0.30746626766E+03  0.00000000000E+00 0.  1.
         -2    1    1    2    0  502  0.24594126326E+02 -0.67965711157E+01  0.10099671522E+02  0.27442080706E+02  0.00000000000E+00 0. -1.
</event>
<event>
 4    1  0.5847355E+003  0.4733917E+02  0.7546771E-02  0.1310140E+00
          2   -1    0    0  501    0  0.00000000000E+00  0.00000000000E+00  0.21330518064E+04  0.21330518064E+04  0.00000000000E+00 0.  1.
         -2   -1    0    0    0  501 -0.00000000000E+00 -0.00000000000E+00 -0.15300638328E+01  0.15300638328E+01  0.00000000000E+00 0.  1.
          2    1    1    2  502    0  0.17244077692E+02  0.44086722707E+02  0.16632131056E+04  0.16638866644E+04  0.00000000000E+00 0.  1.
         -2    1    1    2    0  502 -0.17244077692E+02 -0.44086722707E+02  0.46830863704E+03  0.47069520591E+03  0.00000000000E+00 0.  1.
</event>
<event>
 4    1  0.5847355E+003  0.2059132E+02  0.7546771E-02  0.1525180E+00
          2   -1    0    0  501    0  0.00000000000E+00  0.00000000000E+00  0.14831822883E+04  0.14831822883E+04  0.00000000000E+00 0.  1.
         -2   -1    0    0    0  501 -0.00000000000E+00 -0.00000000000E+00 -0.30319968130E+00  0.30319968130E+00  0.00000000000E+00 0.  1.
          2    1    1    2  502    0 -0.18514120400E+02  0.90127667774E+01  0.91875208684E+03  0.91898280707E+03  0.00000000000E+00 0.  1.
         -2    1    1    2    0  502  0.18514120400E+02 -0.90127667774E+01  0.56412700180E+03  0.56450268093E+03  0.00000000000E+00 0.  1.
</event>
<event>
 4    1  0.5847355E+003  0.2949654E+02  0.7546771E-02  0.1424023E+00
          2   -1    0    0  501    0  0.00000000000E+00  0.00000000000E+00  0.13586080325E+02  0.13586080325E+02  0.00000000000E+00 0. -1.
         -2   -1    0    0    0  501 -0.00000000000E+00 -0.00000000000E+00 -0.12842731180E+03  0.12842731180E+03  0.00000000000E+00 0.  1.
          2    1    1    2  502    0 -0.11909340398E+02  0.26985428388E+02 -0.71432567651E+01  0.30349165577E+02  0.00000000000E+00 0. -1.
         -2    1    1    2    0  502  0.11909340398E+02 -0.26985428388E+02 -0.10769797471E+03  0.11166422655E+03  0.00000000000E+00 0.  1.
</event>
<event>
 4    1  0.5847355E+003  0.2728518E+02  0.7546771E-02  0.1444764E+00
          2   -1    0    0  501    0  0.00000000000E+00  0.00000000000E+00  0.16319503472E+04  0.16319503472E+04  0.00000000000E+00 0.  1.
         -2   -1    0    0    0  501 -0.00000000000E+00 -0.00000000000E+00 -0.13157727929E+01  0.13157727929E+01  0.00000000000E+00 0.  1.
          2    1    1    2  502    0  0.23497442526E+02  0.13869067422E+02  0.14753723178E+04  0.14756245990E+04  0.00000000000E+00 0.  1.
         -2    1    1    2    0  502 -0.23497442526E+02 -0.13869067422E+02  0.15526225663E+03  0.15764152108E+03  0.00000000000E+00 0.  1.
</event>
<event>
 4    1  0.5847355E+003  0.3235529E+02  0.7546771E-02  0.1400175E+00
          2   -1    0    0  501    0  0.00000000000E+00  0.00000000000E+00  0.89323298660E+02  0.89323298660E+02  0.00000000000E+00 0. -1.
         -2   -1    0    0    0  501 -0.00000000000E+00 -0.00000000000E+00 -0.14750632896E+02  0.14750632896E+02  0.00000000000E+00 0.  1.
          2    1    1    2  502    0 -0.31112550900E+02 -0.88810941127E+01  0.60873557198E+02  0.68938049161E+02  0.00000000000E+00 0. -1.
         -2    1    1    2    0  502  0.31112550900E+02  0.88810941127E+01  0.13699108566E+02  0.35135882395E+02  0.00000000000E+00 0.  1.
</event>
<event>
 4    1  0.5847355E+003  0.2512780E+02  0.7546771E-02  0.1467379E+00
          2   -1    0    0  501    0  0.00000000000E+00  0.00000000000E+00  0.66072932746E+03  0.66072932746E+03  0.00000000000E+00 0.  1.
         -2   -1    0    0    0  501 -0.00000000000E+00 -0.00000000000E+00 -0.18460456312E+02  0.18460456312E+02  0.00000000000E+00 0. -1.
          2    1    1    2  502    0 -0.24863882315E+01 -0.25004485276E+02  0.65182283145E+03  0.65230699062E+03  0.00000000000E+00 0.  1.
         -2    1    1    2    0  502  0.24863882315E+01  0.25004485276E+02 -0.95539603007E+01  0.26882793154E+02  0.00000000000E+00 0. -1.
</event>
<event>
 4    1  0.5847355E+003  0.3421972E+02  0.7546771E-02  0.1386133E+00
          2   -1    0    0  501    0  0.00000000000E+00  0.00000000000E+00  0.20054849021E+04  0.20054849021E+04  0.00000000000E+00 0. -1.
         -2   -1    0    0    0  501 -0.00000000000E+00 -0.00000000000E+00 -0.68924435983E+00  0.68924435983E+00  0.00000000000E+00 0. -1.
          2    1    1    2  502    0 -0.21337310362E+02 -0.26752732934E+02  0.13945649075E+04  0.13949846848E+04  0.00000000000E+00 0. -1.
         -2    1    1    2    0  502  0.21337310362E+02  0.26752732934E+02  0.61023075018E+03  0.61118946163E+03  0.00000000000E+00 0. -1.
</event>
<event>
 4    1  0.5847355E+003  0.2054824E+02  0.7546771E-02  0.1525814E+00
          2   -1    0    0  501    0  0.00000000000E+00  0.00000000000E+00  0.15435571941E+03  0.15435571941E+03  0.00000000000E+00 0. -1.
         -2   -1    0    0    0  501 -0.00000000000E+00 -0.00000000000E+00 -0.67549380254E+02  0.67549380254E+02  0.00000000000E+00 0.  1.
          2    1    1    2  502    0  0.16283225670E+01 -0.20483621783E+02  0.15208597204E+03  0.15346782427E+03  0.00000000000E+00 0. -1.
         -2    1    1    2    0  502 -0.16283225670E+01  0.20483621783E+02 -0.65279632875E+02  0.68437275399E+02  0.00000000000E+00 0.  1.
</event>
<event>
 4    1  0.5847355E+003  0.2581632E+02  0.7546771E-02  0.1459875E+00
          2   -1    0    0  501    0  0.00000000000E+00  0.00000000000E+00  0.69516522973E+03  0.69516522973E+03  0.00000000000E+00 0. -1.
         -2   -1    0    0    0  501 -0.00000000000E+00 -0.00000000000E+00 -0.15372800149E+01  0.15372800149E+01  0.00000000000E+00 0. -1.
          2    1    1    2  502    0 -0.12265429508E+02 -0.22716548837E+02  0.56051558012E+03  0.56110979132E+03  0.00000000000E+00 0. -1.
         -2    1    1    2    0  502  0.12265429508E+02  0.22716548837E+02  0.13311236959E+03  0.13559271843E+03  0.00000000000E+00 0. -1.
</event>
<event>
 4    1  0.5847355E+003  0.3406174E+02  0.7546771E-02  0.1387282E+00
          2   -1    0    0  501    0  0.00000000000E+00  0.00000000000E+00  0.22742047839E+04  0.22742047839E+04  0.00000000000E+00 0.  1.
         -2   -1    0    0    0  501 -0.00000000000E+00 -0.00000000000E+00 -0.12601247473E+03  0.12601247473E+03  0.00000000000E+00 0. -1.
          2    1    1    2  502    0  0.33442998886E+01  0.33897162155E+02  0.22717730208E+04  0.22720283581E+04  0.00000000000E+00 0.  1.
         -2    1    1    2    0  502 -0.33442998886E+01 -0.33897162155E+02 -0.12358071161E+03  0.12818890055E+03  0.00000000000E+00 0. -1.
</event>
<event>
 4    1  0.5847355E+003  0.3424013E+02  0.7546771E-02  0.1385985E+00
          2   -1    0    0  501    0  0.00000000000E+00  0.00000000000E+00  0.12723994597E+04  0.12723994597E+04  0.00000000000E+00 0. -1.
         -2   -1    0    0    0  501 -0.00000000000E+00 -0.00000000000E+00 -0.12754843650E+02  0.12754843650E+02  0.00000000000E+00 0.  1.
          2    1    1    2  502    0 -0.24184274796E+02 -0.24238552434E+02  0.12487548479E+04  0.12492241820E+04  0.00000000000E+00 0. -1.
         -2    1    1    2    0  502  0.24184274796E+02  0.24238552434E+02  0.10889768084E+02  0.35930121352E+02  0.00000000000E+00 0.  1.
</event>
<event>
 4    1  0.5847355E+003  0.2002408E+02  0.7546771E-02  0.1533668E+00
          2   -1    0    0  501    0  0.00000000000E+00  0.00000000000E+00  0.14548833196E+04  0.14548833196E+04  0.00000000000E+00 0.  1.
         -2   -1    0    0    0  501 -0.00000000000E+00 -0.00000000000E+00 -0.37353526161E+02  0.37353526161E+02  0.00000000000E+00 0.  1.
          2    1    1    2  502    0 -0.17190186864E+02  0.10269439394E+02  0.14521257494E+04  0.14522638039E+04  0.00000000000E+00 0.  1.
         -2    1    1    2    0  502  0.17190186864E+02 -0.10269439394E+02 -0.34595955966E+02  0.39973041904E+02  0.00000000000E+00 0.  1.
</event>
<event>
 4    1  0.5847355E+003  0.2846707E+02  0.7546771E-02  0.1433403E+00
          2   -1    0    0  501    0  0.00000000000E+00  0.00000000000E+00  0.15112162900E+04  0.15112162900E+04  0.00000000000E+00 0. -1.
         -2   -1    0    0    0  501 -0.00000000000E+00 -0.00000000000E+00 -0.13376110608E+01  0.13376110608E+01  0.00000000000E+00 0.  1.
          2    1    1    2  502    0 -0.27188281816E+02  0.84363155602E+01  0.13403125756E+04  0.13406148494E+04  0.00000000000E+00 0. -1.
         -2    1    1    2    0  502  0.27188281816E+02 -0.84363155602E+01  0.16956610331E+03  0.17193905165E+03  0.00000000000E+00 0.  1.
</event>
<event>
 4    1  0.5847355E+003  0.2160705E+02  0.7546771E-02  0.1510771E+00
          2   -1    0    0  501    0  0.00000000000E+00  0.00000000000E+00  0.17016263648E+04  0.17016263648E+04  0.00000000000E+00 0. -1.
         -2   -1    0    0    0  501 -0.00000000000E+00 -0.00000000000E+00 -0.85043387046E+00  0.85043387046E+00  0.00000000000E+00 0.  1.
          2    1    1    2  502    0  0.14391502568E+02  0.16116744409E+02  0.15509854302E+04  0.15511359288E+04  0.00000000000E+00 0. -1.
         -2    1    1    2    0  502 -0.14391502568E+02 -0.16116744409E+02  0.14979050071E+03  0.15134086989E+03  0.00000000000E+00 0.  1.
</event>
<event>
 4    1  0.5847355E+003  0.2445498E+02  0.7546771E-02  0.1474994E+00
          2   -1    0    0  501    0  0.00000000000E+00  0.00000000000E+00  0.19659635539E+04  0.19659635539E+04  0.00000000000E+00 0. -1.
         -2   -1    0    0    0  501 -0.00000000000E+00 -0.00000000000E+00 -0.38828908057E+00  0.38828908057E+00  0.00000000000E+00 0. -1.
          2    1    1    2  502    0 -0.46832848444E+01  0.24002353514E+02  0.14403216859E+04  0.14405292795E+04  0.00000000000E+00 0. -1.
         -2    1    1    2    0  502  0.46832848444E+01 -0.24002353514E+02  0.52525357893E+03  0.52582256352E+03  0.00000000000E+00 0. -1.
</event>
<event>
 4    1  0.5847355E+003  0.2681818E+02  0.7546771E-02  0.1449443E+00
          2   -1    0    0  501    0  0.00000000000E+00  0.00000000000E+00  0.93286396192E+01  0.93286396192E+01  0.00000000000E+00 0. -1.
         -2   -1    0    0    0  501 -0.00000000000E+00 -0.00000000000E+00 -0.77142974591E+02  0.77142974591E+02  0.00000000000E+00 0. -1.
          2    1    1    2  502    0 -0.24474663781E+02 -0.10963800923E+02 -0.34957762499E+02  0.44059723749E+02  0.00000000000E+00 0. -1.
         -2    1    1    2    0  502  0.24474663781E+02  0.10963800923E+02 -0.32856572472E+02  0.42411890461E+02  0.00000000000E+00 0. -1.
</event>
<event>
 4    1  0.5847355E+003  0.2189132E+02  0.7546771E-02  0.1506910E+00
          2   -1    0    0  501    0  0.00000000000E+00  0.00000000000E+00  0.19311717694E+03  0.19311717694E+03  0.00000000000E+00 0.  1.
         -2   -1    0    0    0  501 -0.00000000000E+00 -0.00000000000E+00 -0.35711197076E+01  0.35711197076E+01  0.00000000000E+00 0.  1.
          2    1    1    2  502    0  0.16328251000E+02 -0.14581418679E+02  0.40451220045E+02  0.45994899223E+02  0.00000000000E+00 0.  1.
         -2    1    1    2    0  502 -0.16328251000E+02  0.14581418679E+02  0.14909483718E+03  0.15069339742E+03  0.00000000000E+00 0.  1.
</event>
<event>
 4    1  0.5847355E+003  0.3902869E+02  0.7546771E-02  0.1354274E+00
          2   -1    0    0  501    0  0.00000000000E+00  0.00000000000E+00  0.20967559374E+04  0.20967559374E+04  0.00000000000E+00 0. -1.
         -2   -1    0    0    0  501 -0.00000000000E+00 -0.00000000000E+00 -0.11048992042E+01  0.11048992042E+01  0.00000000000E+00 0. -1.
          2    1    1    2  502    0 -0.35489234749E+02 -0.16240460357E+02  0.16616941888E+04  0.16621524646E+04  0.00000000000E+00 0. -1.
         -2    1    1    2    0  502  0.35489234749E+02  0.16240460357E+02  0.43395684933E+03  0.43570837199E+03  0.00000000000E+00 0. -1.
</event>
<event>
 4    1  0.5847355E+003  0.2574082E+02  0.7546771E-02  0.1460684E+00
          2   -1    0    0  501    0  0.00000000000E+00  0.00000000000E+00  0.32797745884E+03  0.32797745884E+03  0.00000000000E+00 0. -1.
         -2   -1    0    0    0  501 -0.00000000000E+00 -0.00000000000E+00 -0.32814982172E+02  0.32814982172E+02  0.00000000000E+00 0. -1.
          2    1    1    2  502    0 -0.22227593952E+02 -0.12981666106E+02  0.32233627900E+03  0.32336243806E+03  0.00000000000E+00 0. -1.
         -2    1    1    2    0  502  0.22227593952E+02  0.12981666106E+02 -0.27173802333E+02  0.37430002953E+02  0.00000000000E+00 0. -1.
</event>
<event>
 4    1  0.5847355E+003  0.2943751E+02  0.7546771E-02  0.1424548E+00
          2   -1    0    0  501    0  0.00000000000E+00  0.00000000000E+00  0.25503086854E+04  0.25503086854E+04  0.00000000000E+00 0.  1.
         -2   -1    0    0    0  501 -0.00000000000E+00 -0.00000000000E+00 -0.39170326321E+00  0.39170326321E+00  0.00000000000E+00 0.  1.
          2    1    1    2  502    0  0.27927770645E+02  0.93062320575E+01  0.81066238537E+03  0.81119668970E+03  0.00000000000E+00 0.  1.
         -2    1    1    2    0  502 -0.27927770645E+02 -0.93062320575E+01  0.17392545968E+04  0.17395036990E+04  0.00000000000E+00 0.  1.
</event>
<event>
 4    1  0.5847355E+003  0.3151237E+02  0.7546771E-02  0.1406894E+00
          2   -1    0    0  501    0  0.00000000000E+00  0.00000000000E+00  0.12857646199E+03  0.12857646199E+03  0.00000000000E+00 0. -1.
         -2   -1    0    0    0  501 -0.00000000000E+00 -0.00000000000E+00 -0.18893502797E+02  0.18893502797E+02  0.00000000000E+00 0. -1.
          2    1    1    2  502    0  0.18342099108E+02  0.25624144148E+02  0.11153698862E+03  0.11590310261E+03  0.00000000000E+00 0. -1.
         -2    1    1    2    0  502 -0.18342099108E+02 -0.25624144148E+02 -0.18540294262E+01  0.31566862183E+02  0.00000000000E+00 0. -1.
</event>
<event>
 4    1  0.5847355E+003  0.4465865E+02  0.7546771E-02  0.1323155E+00
          2   -1    0    0  501    0  0.00000000000E+00  0.00000000000E+00  0.20141036020E+02  0.20141036020E+02  0.00000000000E+00 0. -1.
         -2   -1    0    0    0  501 -0.00000000000E+00 -0.00000000000E+00 -0.10221505302E+03  0.10221505302E+03  0.00000000000E+00 0. -1.
          2    1    1    2  502    0 -0.23668554538E+02 -0.37870764700E+02 -0.30223260155E+02  0.53924398441E+02  0.00000000000E+00 0. -1.
         -2    1    1    2    0  502  0.23668554538E+02  0.37870764700E+02 -0.51850756847E+02  0.68431690601E+02  0.00000000000E+00 0. -1.
</event>
<event>
 4    1  0.5847355E+003  0.2204985E+02  0.7546771E-02  0.1504787E+00
          2   -1    0    0  501    0  0.00000000000E+00  0.00000000000E+00  0.23385843417E+02  0.23385843417E+02  0.00000000000E+00 0. -1.
         -2   -1    0    0    0  501 -0.00000000000E+00 -0.00000000000E+00 -0.26031248436E+02  0.26031248436E+02  0.00000000000E+00 0.  1.
          2    1    1    2  502    0  0.62733716179E+01 -0.21138607625E+02  0.97641827413E+01  0.24115040708E+02  0.00000000000E+00 0. -1.
         -2    1    1    2    0  502 -0.62733716179E+01  0.21138607625E+02 -0.12409587760E+02  0.25302051145E+02  0.00000000000E+00 0.  1.
</event>
<event>
 4    1  0.5847355E+003  0.2135002E+02  0.7546771E-02  0.1514326E+00
          2   -1    0    0  501    0  0.00000000000E+00  0.00000000000E+00  0.22979621622E+04  0.22979621622E+04  0.00000000000E+00 0. -1.
         -2   -1    0    0    0  501 -0.00000000000E+00 -0.00000000000E+00 -0.21353463846E+00  0.21353463846E+00  0.00000000000E+00 0. -1.
          2    1    1    2  502    0 -0.16066436741E+02 -0.14060328635E+02  0.14551987386E+04  0.14553553490E+04  0.00000000000E+00 0. -1.
         -2    1    1    2    0  502  0.16066436741E+02  0.14060328635E+02  0.84254988902E+03  0.84282034783E+03  0.00000000000E+00 0. -1.
</event>
<event>
 4    1  0.5847355E+003  0.2411169E+02  0.7546771E-02  0.1478991E+00
          2   -1    0    0  501    0  0.00000000000E+00  0.00000000000E+00  0.10076977276E+04  0.10076977276E+04  0.00000000000E+00 0. -1.
         -2   -1    0    0    0  501 -0.00000000000E+00 -0.00000000000E+00 -0.26128081221E+02  0.26128081221E+02  0.00000000000E+00 0.  1.
          2    1    1    2  502    0 -0.14280308775E+02 -0.19427975869E+02  0.10019589117E+04  0.10022489881E+04  0.00000000000E+00 0. -1.
         -2    1    1    2    0  502  0.14280308775E+02  0.19427975869E+02 -0.20389265319E+02  0.31576820697E+02  0.00000000000E+00 0.  1.
</event>
<event>
 4    1  0.5847355E+003  0.3180547E+02  0.7546771E-02  0.1404530E+00
          2   -1    0    0  501    0  0.00000000000E+00  0.00000000000E+00  0.12187946676E+02  0.12187946676E+02  0.00000000000E+00 0.  1.
         -2   -1    0    0    0  501 -0.00000000000E+00 -0.00000000000E+00 -0.18460984496E+03  0.18460984496E+03  0.00000000000E+00 0. -1.
          2    1    1    2  502    0  0.25486253045E+02 -0.19027315026E+02 -0.13209286228E+02  0.34439411349E+02  0.00000000000E+00 0.  1.
         -2    1    1    2    0  502 -0.25486253045E+02  0.19027315026E+02 -0.15921261205E+03  0.16235838028E+03  0.00000000000E+00 0. -1.
</event>
<event>
 4    1  0.5847355E+003  0.2377581E+02  0.7546771E-02  0.1482979E+00
          2   -1    0    0  501    0  0.00000000000E+00  0.00000000000E+00  0.56250734549E+02  0.56250734549E+02  0.00000000000E+00 0. -1.
         -2   -1    0    0    0  501 -0.00000000000E+00 -0.00000000000E+00 -0.16831583281E+03  0.16831583281E+03  0.00000000000E+00 0. -1.
          2    1    1    2  502    0 -0.15456595943E+01 -0.23725510940E+02  0.52847161601E+02  0.57949214164E+02  0.00000000000E+00 0. -1.
         -2    1    1    2    0  502  0.15456595943E+01  0.23725510940E+02 -0.16491225986E+03  0.16661735320E+03  0.00000000000E+00 0. -1.
</event>
<event>
 4    1  0.5847355E+003  0.3241853E+02  0.7546771E-02  0.1399681E+00
          2   -1    0    0  501    0  0.00000000000E+00  0.00000000000E+00  0.29950999799E+02  0.29950999799E+02  0.00000000000E+00 0. -1.
         -2   -1    0    0    0  501 -0.00000000000E+00 -0.00000000000E+00 -0.21083695308E+03  0.21083695308E+03  0.00000000000E+00 0. -1.
          2    1    1    2  502    0 -0.28334760828E+02  0.15751269791E+02  0.19476865528E+02  0.37819432333E+02  0.00000000000E+00 0. -1.
         -2    1    1    2    0  502  0.28334760828E+02 -0.15751269791E+02 -0.20036281881E+03  0.20296852054E+03  0.00000000000E+00 0. -1.
</event>
<event>
 4    1  0.5847355E+003  0.2356029E+02  0.7546771E-02  0.1485580E+00
          2   -1    0    0  501    0  0.00000000000E+00  0.00000000000E+00  0.33645546832E+03  0.33645546832E+03  0.00000000000E+00 0. -1.
         -2   -1    0    0    0  501 -0.00000000000E+00 -0.00000000000E+00 -0.19293019309E+01  0.19293019309E+01  0.00000000000E+00 0. -1.
          2    1    1    2  502    0  0.20273325906E+02  0.12003322149E+02  0.23166007863E+03  0.23285506118E+03  0.00000000000E+00 0. -1.
         -2    1    1    2    0  502 -0.20273325906E+02 -0.12003322149E+02  0.10286608776E+03  0.10552970907E+03  0.00000000000E+00 0. -1.
</event>
<event>
 4    1  0.5847355E+003  0.2877436E+02  0.7546771E-02  0.1430555E+00
          2   -1    0    0  501    0  0.00000000000E+00  0.00000000000E+00  0.46243075539E+03  0.46243075539E+03  0.00000000000E+00 0.  1.
         -2   -1    0    0    0  501 -0.00000000000E+00 -0.00000000000E+00 -0.70361805335E+01  0.70361805335E+01  0.00000000000E+00 0. -1.
          2    1    1    2  502    0 -0.28102931065E+02  0.61797270060E+01  0.43037645124E+03  0.43133728513E+03  0.00000000000E+00 0.  1.
         -2    1    1    2    0  502  0.28102931065E+02 -0.61797270060E+01  0.25018123611E+02  0.38129650790E+02  0.00000000000E+00 0. -1.
</event>
<event>
 4    1  0.5847355E+003  0.2602889E+02  0.7546771E-02  0.1457615E+00
          2   -1    0    0  501    0  0.00000000000E+00  0.00000000000E+00  0.22086563268E+01  0.22086563268E+01  0.00000000000E+00 0. -1.
         -2   -1    0    0    0  501 -0.00000000000E+00 -0.00000000000E+00 -0.61929529503E+03  0.61929529503E+03  0.00000000000E+00 0. -1.
          2    1    1    2  502    0 -0.22080705214E+02  0.13782071271E+02 -0.87782390090E+02  0.91560095245E+02  0.00000000000E+00 0. -1.
         -2    1    1    2    0  502  0.22080705214E+02 -0.13782071271E+02 -0.52930424862E+03  0.52994385611E+03  0.00000000000E+00 0. -1.
</event>
<event>
 4    1  0.5847355E+003  0.9011435E+02  0.7546771E-02  0.1182137E+00
          2   -1    0    0  501    0  0.00000000000E+00  0.00000000000E+00  0.80151217373E+03  0.80151217373E+03  0.00000000000E+00 0.  1.
         -2   -1    0    0    0  501 -0.00000000000E+00 -0.00000000000E+00 -0.11911079918E+03  0.11911079918E+03  0.00000000000E+00 0.  1.
          2    1    1    2  502    0 -0.88514612465E+02 -0.16904409257E+02  0.78150005487E+03  0.78667841679E+03  0.00000000000E+00 0.  1.
         -2    1    1    2    0  502  0.88514612465E+02  0.16904409257E+02 -0.99098680322E+02  0.13394455612E+03  0.00000000000E+00 0.  1.
</event>
<event>
 4    1  0.5847355E+003  0.2683086E+02  0.7546771E-02  0.1449315E+00
          2   -1    0    0  501    0  0.00000000000E+00  0.00000000000E+00  0.19409078379E+03  0.19409078379E+03  0.00000000000E+00 0.  1.
         -2   -1    0    0    0  501 -0.00000000000E+00 -0.00000000000E+00 -0.82492418131E+01  0.82492418131E+01  0.00000000000E+00 0. -1.
          2    1    1    2  502    0  0.10607320021E+02  0.24645077584E+02  0.16797604788E+03  0.17010540188E+03  0.00000000000E+00 0.  1.
         -2    1    1    2    0  502 -0.10607320021E+02 -0.24645077584E+02  0.17865494092E+02  0.32234623718E+02  0.00000000000E+00 0. -1.
</event>
<event>
 4    1  0.5847355E+003  0.2573943E+02  0.7546771E-02  0.1460699E+00
          2   -1    0    0  501    0  0.00000000000E+00  0.00000000000E+00  0.20526936314E+03  0.20526936314E+03  0.00000000000E+00 0.  1.
         -2   -1    0    0    0  501 -0.00000000000E+00 -0.00000000000E+00 -0.96194723380E+02  0.96194723380E+02  0.00000000000E+00 0.  1.
          2    1    1    2  502    0  0.17018247737E+02 -0.19310549673E+02  0.20271908500E+03  0.20434663077E+03  0.00000000000E+00 0.  1.
         -2    1    1    2    0  502 -0.17018247737E+02  0.19310549673E+02 -0.93644445245E+02  0.97117455743E+02  0.00000000000E+00 0.  1.
</event>
<event>
 4    1  0.5847355E+003  0.3686663E+02  0.7546771E-02  0.1367895E+00
          2   -1    0    0  501    0  0.00000000000E+00  0.00000000000E+00  0.13627085786E+04  0.13627085786E+04  0.00000000000E+00 0.  1.
         -2   -1    0    0    0  501 -0.00000000000E+00 -0.00000000000E+00 -0.10026848957E+03  0.10026848957E+03  0.00000000000E+00 0.  1.
          2    1    1    2  502    0 -0.27819271360E+01 -0.36761515871E+02  0.13590613674E+04  0.13595613073E+04  0.00000000000E+00 0.  1.
         -2    1    1    2    0  502  0.27819271360E+01  0.36761515871E+02 -0.96621278318E+02  0.10341576085E+03  0.00000000000E+00 0.  1.
</event>
<event>
 4    1  0.5847355E+003  0.2822718E+02  0.7546771E-02  0.1435656E+00
          2   -1    0    0  501    0  0.00000000000E+00  0.00000000000E+00  0.17584238394E+02  0.17584238394E+02  0.00000000000E+00 0. -1.
         -2   -1    0    0    0  501 -0.00000000000E+00 -0.00000000000E+00 -0.16398818719E+03  0.16398818719E+03  0.00000000000E+00 0.  1.
          2    1    1    2  502    0 -0.22697440808E+02 -0.16780933710E+02  0.40297566427E+01  0.28513373950E+02  0.00000000000E+00 0. -1.
         -2    1    1    2    0  502  0.22697440808E+02  0.16780933710E+02 -0.15043370544E+03  0.15305905163E+03  0.00000000000E+00 0.  1.
</event>
<event>
 4    1  0.5847355E+003  0.3882995E+02  0.7546771E-02  0.1355482E+00
          2   -1    0    0  501    0  0.00000000000E+00  0.00000000000E+00  0.53707969441E+03  0.53707969441E+03  0.00000000000E+00 0.  1.
         -2   -1    0    0    0  501 -0.00000000000E+00 -0.00000000000E+00 -0.83564650731E+01  0.83564650731E+01  0.00000000000E+00 0.  1.
          2    1    1    2  502    0  0.38451454810E+02  0.54083580673E+01  0.48659787956E+03  0.48814471328E+03  0.00000000000E+00 0.  1.
         -2    1    1    2    0  502 -0.38451454810E+02 -0.54083580673E+01  0.42125349781E+02  0.57291446204E+02  0.00000000000E+00 0.  1.
</event>
<event>
 4    1  0.5847355E+003  0.2863341E+02  0.7546771E-02  0.1431856E+00
          2   -1    0    0  501    0  0.00000000000E+00  0.00000000000E+00  0.19605530209E+04  0.19605530209E+04  0.00000000000E+00 0. -1.
         -2   -1    0    0    0  501 -0.00000000000E+00 -0.00000000000E+00 -0.29837992862E+01  0.29837992862E+01  0.00000000000E+00 0. -1.
          2    1    1    2  502    0  0.11426152872E+02 -0.26254812100E+02  0.18891589520E+04  0.18893759334E+04  0.00000000000E+00 0. -1.
         -2    1    1    2    0  502 -0.11426152872E+02  0.26254812100E+02  0.68410269692E+02  0.74160886774E+02  0.00000000000E+00 0. -1.
</event>
<event>
 4    1  0.5847355E+003  0.3501977E+02  0.7546771E-02  0.1380424E+00
          2   -1    0    0  501    0  0.00000000000E+00  0.00000000000E+00  0.43849418705E+03  0.43849418705E+03  0.00000000000E+00 0.  1.
         -2   -1    0    0    0  501 -0.00000000000E+00 -0.00000000000E+00 -0.52046415557E+01  0.52046415557E+01  0.00000000000E+00 0.  1.
          2    1    1    2  502    0 -0.32583975208E+02  0.12832325185E+02  0.36754021198E+03  0.36920480960E+03  0.00000000000E+00 0.  1.
         -2    1    1    2    0  502  0.32583975208E+02 -0.12832325185E+02  0.65749333517E+02  0.74494019008E+02  0.00000000000E+00 0.  1.
</event>
<event>
 4    1  0.5847355E+003  0.3074207E+02  0.7546771E-02  0.1413255E+00
          2   -1    0    0  501    0  0.00000000000E+00  0.00000000000E+00  0.80879495452E+02  0.80879495452E+02  0.00000000000E+00 0. -1.
         -2   -1    0    0    0  501 -0.00000000000E+00 -0.00000000000E+00 -0.63008756699E+02  0.63008756699E+02  0.00000000000E+00 0. -1.
          2    1    1    2  502    0 -0.13027735742E+01  0.30714455782E+02  0.73866685236E+02  0.80008513302E+02  0.00000000000E+00 0. -1.
         -2    1    1    2    0  502  0.13027735742E+01 -0.30714455782E+02 -0.55995946483E+02  0.63879738849E+02  0.00000000000E+00 0. -1.
</event>
<event>
 4    1  0.5847355E+003  0.2688948E+02  0.7546771E-02  0.1448721E+00
          2   -1    0    0  501    0  0.00000000000E+00  0.00000000000E+00  0.16089259397E+04  0.16089259397E+04  0.00000000000E+00 0.  1.
         -2   -1    0    0    0  501 -0.00000000000E+00 -0.00000000000E+00 -0.91542068459E+01  0.91542068459E+01  0.00000000000E+00 0. -1.
          2    1    1    2  502    0  0.12895311333E+02  0.23595661741E+02  0.15888174651E+04  0.15890449905E+04  0.00000000000E+00 0.  1.
         -2    1    1    2    0  502 -0.12895311333E+02 -0.23595661741E+02  0.10954267772E+02  0.29035156101E+02  0.00000000000E+00 0. -1.
</event>
<event>
 4    1  0.5847355E+003  0.2761418E+02  0.7546771E-02  0.1441534E+00
          2   -1    0    0  501    0  0.00000000000E+00  0.00000000000E+00  0.13334724742E+04  0.13334724742E+04  0.00000000000E+00 0.  1.
         -2   -1    0    0    0  501 -0.00000000000E+00 -0.00000000000E+00 -0.65046006881E+00  0.65046006881E+00  0.00000000000E+00 0.  1.
          2    1    1    2  502    0  0.63658971644E+00 -0.27606844436E+02  0.89831119588E+03  0.89873552715E+03  0.00000000000E+00 0.  1.
         -2    1    1    2    0  502 -0.63658971644E+00  0.27606844436E+02  0.43451081827E+03  0.43538740715E+03  0.00000000000E+00 0.  1.
</event>
<event>
 4    1  0.5847355E+003  0.2444425E+02  0.7546771E-02  0.1475117E+00
          2   -1    0    0  501    0  0.00000000000E+00  0.00000000000E+00  0.37266420569E+01  0.37266420569E+01  0.00000000000E+00 0.  1.
         -2   -1    0    0    0  501 -0.00000000000E+00 -0.00000000000E+00 -0.25736650333E+03  0.25736650333E+03  0.00000000000E+00 0. -1.
          2    1    1    2  502    0 -0.16708789309E+02 -0.17842027860E+02 -0.46663278200E+02  0.52678108647E+02  0.00000000000E+00 0.  1.
         -2    1    1    2    0  502  0.16708789309E+02  0.17842027860E+02 -0.20697658307E+03  0.20841503674E+03  0.00000000000E+00 0. -1.
</event>
<event>
 4    1  0.5847355E+003  0.3139371E+02  0.7546771E-02  0.1407860E+00
          2   -1    0    0  501    0  0.00000000000E+00  0.00000000000E+00  0.17791802253E+04  0.17791802253E+04  0.00000000000E+00 0.  1.
         -2   -1    0    0    0  501 -0.00000000000E+00 -0.00000000000E+00 -0.23561443050E+02  0.23561443050E+02  0.00000000000E+00 0.  1.
          2    1    1    2  502    0 -0.29437918658E+02  0.10907528390E+02  0.17685213229E+04  0.17687999420E+04  0.00000000000E+00 0.  1.
         -2    1    1    2    0  502  0.29437918658E+02 -0.10907528390E+02 -0.12902540678E+02  0.33941726333E+02  0.00000000000E+00 0.  1.
</event>
<event>
 4    1  0.5847355E+003  0.2403956E+02  0.7546771E-02  0.1479841E+00
          2   -1    0    0  501    0  0.00000000000E+00  0.00000000000E+00  0.13250074354E+03  0.13250074354E+03  0.00000000000E+00 0.  1.
         -2   -1    0    0    0  501 -0.00000000000E+00 -0.00000000000E+00 -0.88745565043E+01  0.88745565043E+01  0.00000000000E+00 0. -1.
          2    1    1    2  502    0 -0.23052418498E+02 -0.68181052531E+01  0.11222186591E+03  0.11476779925E+03  0.00000000000E+00 0.  1.
         -2    1    1    2    0  502  0.23052418498E+02  0.68181052531E+01  0.11404321127E+02  0.26607500789E+02  0.00000000000E+00 0. -1.
</event>
<event>
 4    1  0.5847355E+003  0.2829539E+02  0.7546771E-02  0.1435012E+00
          2   -1    0    0  501    0  0.00000000000E+00  0.00000000000E+00  0.19629309215E+02  0.19629309215E+02  0.00000000000E+00 0. -1.
         -2   -1    0    0    0  501 -0.00000000000E+00 -0.00000000000E+00 -0.78278427490E+02  0.78278427490E+02  0.00000000000E+00 0.  1.
          2    1    1    2  502    0 -0.10440229303E+01  0.28276121579E+02  0.45543547394E+01  0.28659574011E+02  0.00000000000E+00 0. -1.
         -2    1    1    2    0  502  0.10440229303E+01 -0.28276121579E+02 -0.63203473014E+02  0.69248162694E+02  0.00000000000E+00 0.  1.
</event>
<event>
 4    1  0.5847355E+003  0.2030026E+02  0.7546771E-02  0.1529494E+00
          2   -1    0    0  501    0  0.00000000000E+00  0.00000000000E+00  0.94722777614E+03  0.94722777614E+03  0.00000000000E+00 0.  1.
         -2   -1    0    0    0  501 -0.00000000000E+00 -0.00000000000E+00 -0.43612412233E+00  0.43612412233E+00  0.00000000000E+00 0.  1.
          2    1    1    2  502    0 -0.31755268616E+01  0.20050354781E+02  0.49680370973E+03  0.49721828878E+03  0.00000000000E+00 0.  1.
         -2    1    1    2    0  502  0.31755268616E+01 -0.20050354781E+02  0.44998794229E+03  0.45044561148E+03  0.00000000000E+00 0.  1.
</event>
<event>
 4    1  0.5847355E+003  0.2282402E+02  0.7546771E-02  0.1494720E+00
          2   -1    0    0  501    0  0.00000000000E+00  0.00000000000E+00  0.88605072340E+02  0.88605072340E+02  0.00000000000E+00 0.  1.
         -2   -1    0    0    0  501 -0.00000000000E+00 -0.00000000000E+00 -0.10151367727E+02  0.10151367727E+02  0.00000000000E+00 0.  1.
          2    1    1    2  502    0  0.19288043172E+02 -0.12202748186E+02  0.71259459578E+02  0.74825438535E+02  0.00000000000E+00 0.  1.
         -2    1    1    2    0  502 -0.19288043172E+02  0.12202748186E+02  0.71942450348E+01  0.23931001531E+02  0.00000000000E+00 0.  1.
</event>
<event>
 4    1  0.5847355E+003  0.2979479E+02  0.7546771E-02  0.1421388E+00
          2   -1    0    0  501    0  0.00000000000E+00  0.00000000000E+00  0.13366257531E+02  0.13366257531E+02  0.00000000000E+00 0.  1.
         -2   -1    0    0    0  501 -0.00000000000E+00 -0.00000000000E+00 -0.66896070213E+02  0.66896070213E+02  0.00000000000E+00 0. -1.
          2    1    1    2  502    0  0.23905310341E+02  0.17783829142E+02 -0.30165856142E+02  0.42399378748E+02  0.00000000000E+00 0.  1.
         -2    1    1    2    0  502 -0.23905310341E+02 -0.17783829142E+02 -0.23363956541E+02  0.37862948996E+02  0.00000000000E+00 0. -1.
</event>
<event>
 4    1  0.5847355E+003  0.4274827E+02  0.7546771E-02  0.1333092E+00
          2   -1    0    0  501    0  0.00000000000E+00  0.00000000000E+00  0.43089941180E+03  0.43089941180E+03  0.00000000000E+00 0. -1.
         -2   -1    0    0    0  501 -0.00000000000E+00 -0.00000000000E+00 -0.48323861269E+02  0.48323861269E+02  0.00000000000E+00 0.  1.
          2    1    1    2  502    0 -0.26516099773E+02 -0.33530746882E+02  0.42014378429E+03  0.42231293375E+03  0.00000000000E+00 0. -1.
         -2    1    1    2    0  502  0.26516099773E+02  0.33530746882E+02 -0.37568233760E+02  0.56910339320E+02  0.00000000000E+00 0.  1.
</event>
<event>
 4    1  0.5847355E+003  0.2241202E+02  0.7546771E-02  0.1500016E+00
          2   -1    0    0  501    0  0.00000000000E+00  0.00000000000E+00  0.10291095033E+03  0.10291095033E+03  0.00000000000E+00 0.  1.
         -2   -1    0    0    0  501 -0.00000000000E+00 -0.00000000000E+00 -0.49177940271E+01  0.49177940271E+01  0.00000000000E+00 0.  1.
          2    1    1    2  502    0 -0.20390736847E+02 -0.93013932616E+01  0.44326792575E+02  0.49670540623E+02  0.00000000000E+00 0.  1.
         -2    1    1    2    0  502  0.20390736847E+02  0.93013932616E+01  0.53666363723E+02  0.58158203729E+02  0.00000000000E+00 0.  1.
</event>
<event>
 4    1  0.5847355E+003  0.4230628E+02  0.7546771E-02  0.1335476E+00
          2   -1    0    0  501    0  0.00000000000E+00  0.00000000000E+00  0.38696565258E+03  0.38696565258E+03  0.00000000000E+00 0.  1.
         -2   -1    0    0    0  501 -0.00000000000E+00 -0.00000000000E+00 -0.22038325293E+03  0.22038325293E+03  0.00000000000E+00 0.  1.
          2    1    1    2  502    0 -0.41242914062E+02 -0.94256929733E+01  0.38376208541E+03  0.38608698481E+03  0.00000000000E+00 0.  1.
         -2    1    1    2    0  502  0.41242914062E+02  0.94256929733E+01 -0.21717968575E+03  0.22126192070E+03  0.00000000000E+00 0.  1.
</event>
<event>
 4    1  0.5847355E+003  0.2161790E+02  0.7546771E-02  0.1510623E+00
          2   -1    0    0  501    0  0.00000000000E+00  0.00000000000E+00  0.22725340661E+02  0.22725340661E+02  0.00000000000E+00 0.  1.
         -2   -1    0    0    0  501 -0.00000000000E+00 -0.00000000000E+00 -0.40953451537E+02  0.40953451537E+02  0.00000000000E+00 0.  1.
          2    1    1    2  502    0  0.14022698157E+02 -0.16452889362E+02  0.13351532068E+02  0.25408601704E+02  0.00000000000E+00 0.  1.
         -2    1    1    2    0  502 -0.14022698157E+02  0.16452889362E+02 -0.31579642944E+02  0.38270190494E+02  0.00000000000E+00 0.  1.
</event>
<event>
 4    1  0.5847355E+003  0.2945734E+02  0.7546771E-02  0.1424372E+00
          2   -1    0    0  501    0  0.00000000000E+00  0.00000000000E+00  0.14714188970E+04  0.14714188970E+04  0.00000000000E+00 0.  1.
         -2   -1    0    0    0  501 -0.00000000000E+00 -0.00000000000E+00 -0.64401499517E+00  0.64401499517E+00  0.00000000000E+00 0.  1.
          2    1    1    2  502    0 -0.20630450056E+02  0.21026633374E+02  0.94908625523E+03  0.94954328740E+03  0.00000000000E+00 0.  1.
         -2    1    1    2    0  502  0.20630450056E+02 -0.21026633374E+02  0.52168862680E+03  0.52251962462E+03  0.00000000000E+00 0.  1.
</event>
<event>
 4    1  0.5847355E+003  0.2252971E+02  0.7546771E-02  0.1498490E+00
          2   -1    0    0  501    0  0.00000000000E+00  0.00000000000E+00  0.14539093802E+04  0.14539093802E+04  0.00000000000E+00 0.  1.
         -2   -1    0    0    0  501 -0.00000000000E+00 -0.00000000000E+00 -0.51790281692E+00  0.51790281692E+00  0.00000000000E+00 0.  1.
          2    1    1    2  502    0 -0.11446460846E+02  0.19405319744E+02  0.11418436238E+04  0.11420658690E+04  0.00000000000E+00 0.  1.
         -2    1    1    2    0  502  0.11446460846E+02 -0.19405319744E+02  0.31154785354E+03  0.31236141398E+03  0.00000000000E+00 0.  1.
</event>
<event>
 4    1  0.5847355E+003  0.4330492E+02  0.7546771E-02  0.1330136E+00
          2   -1    0    0  501    0  0.00000000000E+00  0.00000000000E+00  0.42388229557E+02  0.42388229557E+02  0.00000000000E+00 0. -1.
         -2   -1    0    0    0  501 -0.00000000000E+00 -0.00000000000E+00 -0.91181899756E+02  0.91181899756E+02  0.00000000000E+00 0.  1.
          2    1    1    2  502    0  0.42919702008E+02  0.57632520379E+01  0.23521172040E+02  0.49280436571E+02  0.00000000000E+00 0. -1.
         -2    1    1    2    0  502 -0.42919702008E+02 -0.57632520379E+01 -0.72314842240E+02  0.84289692743E+02  0.00000000000E+00 0.  1.
</event>
<event>
 4    1  0.5847355E+003  0.2594966E+02  0.7546771E-02  0.1458454E+00
          2   -1    0    0  501    0  0.00000000000E+00  0.00000000000E+00  0.99007375715E+02  0.99007375715E+02  0.00000000000E+00 0.  1.
         -2   -1    0    0    0  501 -0.00000000000E+00 -0.00000000000E+00 -0.65884929258E+02  0.65884929258E+02  0.00000000000E+00 0. -1.
          2    1    1    2  502    0  0.23363255464E+02  0.11293492324E+02  0.94635993988E+02  0.98129282240E+02  0.00000000000E+00 0.  1.
         -2    1    1    2    0  502 -0.23363255464E+02 -0.11293492324E+02 -0.61513547531E+02  0.66763022734E+02  0.00000000000E+00 0. -1.
</event>
<event>
 4    1  0.5847355E+003  0.2225077E+02  0.7546771E-02  0.1502127E+00
          2   -1    0    0  501    0  0.00000000000E+00  0.00000000000E+00  0.16021040953E+03  0.16021040953E+03  0.00000000000E+00 0.  1.
         -2   -1    0    0    0  501 -0.00000000000E+00 -0.00000000000E+00 -0.32216633470E+02  0.32216633470E+02  0.00000000000E+00 0. -1.
          2    1    1    2  502    0  0.19808504580E+02 -0.10135074043E+02  0.15547959733E+03  0.15706368697E+03  0.00000000000E+00 0.  1.
         -2    1    1    2    0  502 -0.19808504580E+02  0.10135074043E+02 -0.27485821262E+02  0.35363356034E+02  0.00000000000E+00 0. -1.
</event>
<event>
 4    1  0.5847355E+003  0.3479816E+02  0.7546771E-02  0.1381988E+00
          2   -1    0    0  501    0  0.00000000000E+00  0.00000000000E+00  0.12432171075E+03  0.12432171075E+03  0.00000000000E+00 0.  1.
         -2   -1    0    0    0  501 -0.00000000000E+00 -0.00000000000E+00 -0.10012384332E+02  0.10012384332E+02  0.00000000000E+00 0. -1.
          2    1    1    2  502    0  0.17633936138E+02 -0.29999274453E+02  0.68230041298E+02  0.76591453224E+02  0.00000000000E+00 0.  1.
         -2    1    1    2    0  502 -0.17633936138E+02  0.29999274453E+02  0.46079285118E+02  0.57742641855E+02  0.00000000000E+00 0. -1.
</event>
<event>
 4    1  0.5847355E+003  0.3147248E+02  0.7546771E-02  0.1407218E+00
          2   -1    0    0  501    0  0.00000000000E+00  0.00000000000E+00  0.61419133629E+03  0.61419133629E+03  0.00000000000E+00 0.  1.
         -2   -1    0    0    0  501 -0.00000000000E+00 -0.00000000000E+00 -0.23724378981E+01  0.23724378981E+01  0.00000000000E+00 0.  1.
          2    1    1    2  502    0 -0.62956435478E+01 -0.30836376874E+02  0.48036203297E+03  0.48139194010E+03  0.00000000000E+00 0.  1.
         -2    1    1    2    0  502  0.62956435478E+01  0.30836376874E+02  0.13145686542E+03  0.13517183410E+03  0.00000000000E+00 0.  1.
</event>
<event>
 4    1  0.5847355E+003  0.2135062E+02  0.7546771E-02  0.1514317E+00
          2   -1    0    0  501    0  0.00000000000E+00  0.00000000000E+00  0.10006230662E+02  0.10006230662E+02  0.00000000000E+00 0. -1.
         -2   -1    0    0    0  501 -0.00000000000E+00 -0.00000000000E+00 -0.99125302466E+02  0.99125302466E+02  0.00000000000E+00 0. -1.
          2    1    1    2  502    0 -0.20923042827E+02 -0.42515077281E+01 -0.44466517638E+01  0.21808754000E+02  0.00000000000E+00 0. -1.
         -2    1    1    2    0  502  0.20923042827E+02  0.42515077281E+01 -0.84672420041E+02  0.87322779128E+02  0.00000000000E+00 0. -1.
</event>
<event>
 4    1  0.5847355E+003  0.2631685E+02  0.7546771E-02  0.1454594E+00
          2   -1    0    0  501    0  0.00000000000E+00  0.00000000000E+00  0.53216947026E+03  0.53216947026E+03  0.00000000000E+00 0.  1.
         -2   -1    0    0    0  501 -0.00000000000E+00 -0.00000000000E+00 -0.21342811233E+02  0.21342811233E+02  0.00000000000E+00 0.  1.
          2    1    1    2  502    0  0.24979232996E+02 -0.82834022381E+01  0.52359887710E+03  0.52425982197E+03  0.00000000000E+00 0.  1.
         -2    1    1    2    0  502 -0.24979232996E+02  0.82834022381E+01 -0.12772218072E+02  0.29252459523E+02  0.00000000000E+00 0.  1.
</event>
<event>
 4    1  0.5847355E+003  0.2006918E+02  0.7546771E-02  0.1532981E+00
          2   -1    0    0  501    0  0.00000000000E+00  0.00000000000E+00  0.62490991997E+02  0.62490991997E+02  0.00000000000E+00 0. -1.
         -2   -1    0    0    0  501 -0.00000000000E+00 -0.00000000000E+00 -0.67106006526E+01  0.67106006526E+01  0.00000000000E+00 0.  1.
          2    1    1    2  502    0  0.11850107131E+02 -0.16197125307E+02  0.34770242057E+02  0.40146502213E+02  0.00000000000E+00 0. -1.
         -2    1    1    2    0  502 -0.11850107131E+02  0.16197125307E+02  0.21010149288E+02  0.29055090437E+02  0.00000000000E+00 0.  1.
</event>
<event>
 4    1  0.5847355E+003  0.2840693E+02  0.7546771E-02  0.1433965E+00
          2   -1    0    0  501    0  0.00000000000E+00  0.00000000000E+00  0.20623738138E+04  0.20623738138E+04  0.00000000000E+00 0. -1.
         -2   -1    0    0    0  501 -0.00000000000E+00 -0.00000000000E+00 -0.57773376941E+00  0.57773376941E+00  0.00000000000E+00 0. -1.
          2    1    1    2  502    0  0.28342307752E+02  0.19149531590E+01  0.16168845422E+04  0.16171340625E+04  0.00000000000E+00 0. -1.
         -2    1    1    2    0  502 -0.28342307752E+02 -0.19149531590E+01  0.44491153787E+03  0.44581748506E+03  0.00000000000E+00 0. -1.
</event>
<event>
 4    1  0.5847355E+003  0.3192091E+02  0.7546771E-02  0.1403607E+00
          2   -1    0    0  501    0  0.00000000000E+00  0.00000000000E+00  0.14132816418E+03  0.14132816418E+03  0.00000000000E+00 0. -1.
         -2   -1    0    0    0  501 -0.00000000000E+00 -0.00000000000E+00 -0.19886060736E+02  0.19886060736E+02  0.00000000000E+00 0. -1.
          2    1    1    2  502    0  0.31828470601E+02  0.24275348373E+01  0.12507792985E+03  0.12908692033E+03  0.00000000000E+00 0. -1.
         -2    1    1    2    0  502 -0.31828470601E+02 -0.24275348373E+01 -0.36358264021E+01  0.32127304583E+02  0.00000000000E+00 0. -1.
</event>
<event>
 4    1  0.5847355E+003  0.2367196E+02  0.7546771E-02  0.1484228E+00
          2   -1    0    0  501    0  0.00000000000E+00  0.00000000000E+00  0.14137964197E+04  0.14137964197E+04  0.00000000000E+00 0.  1.
         -2   -1    0    0    0  501 -0.00000000000E+00 -0.00000000000E+00 -0.17177217744E+01  0.17177217744E+01  0.00000000000E+00 0. -1.
          2    1    1    2  502    0  0.19963885319E+02 -0.12720264437E+02  0.13267938780E+04  0.13270050326E+04  0.00000000000E+00 0.  1.
         -2    1    1    2    0  502 -0.19963885319E+02  0.12720264437E+02  0.85284819955E+02  0.88509108905E+02  0.00000000000E+00 0. -1.
</event>
<event>
 4    1  0.5847355E+003  0.2751066E+02  0.7546771E-02  0.1442545E+00
          2   -1    0    0  501    0  0.00000000000E+00  0.00000000000E+00  0.34133288946E+03  0.34133288946E+03  0.00000000000E+00 0. -1.
         -2   -1    0    0    0  501 -0.00000000000E+00 -0.00000000000E+00 -0.35715545105E+01  0.35715545105E+01  0.00000000000E+00 0.  1.
          2    1    1    2  502    0 -0.25969080443E+02  0.90798223687E+01  0.27507242687E+03  0.27644470756E+03  0.00000000000E+00 0. -1.
         -2    1    1    2    0  502  0.25969080443E+02 -0.90798223687E+01  0.62688908078E+02  0.68459736410E+02  0.00000000000E+00 0.  1.
</event>
<event>
 4    1  0.5847355E+003  0.2893003E+02  0.7546771E-02  0.1429128E+00
          2   -1    0    0  501    0  0.00000000000E+00  0.00000000000E+00  0.11873396962E+04  0.11873396962E+04  0.00000000000E+00 0. -1.
         -2   -1    0    0    0  501 -0.00000000000E+00 -0.00000000000E+00 -0.28525014556E+02  0.28525014556E+02  0.00000000000E+00 0. -1.
          2    1    1    2  502    0 -0.23128616762E+02 -0.17378546823E+02  0.11797812858E+04  0.11801359367E+04  0.00000000000E+00 0. -1.
         -2    1    1    2    0  502  0.23128616762E+02  0.17378546823E+02 -0.20966604170E+02  0.35728774026E+02  0.00000000000E+00 0. -1.
</event>
<event>
 4    1  0.5847355E+003  0.2428598E+02  0.7546771E-02  0.1476952E+00
          2   -1    0    0  501    0  0.00000000000E+00  0.00000000000E+00  0.16216522178E+01  0.16216522178E+01  0.00000000000E+00 0. -1.
         -2   -1    0    0    0  501 -0.00000000000E+00 -0.00000000000E+00 -0.36370857630E+03  0.36370857630E+03  0.00000000000E+00 0. -1.
          2    1    1    2  502    0 -0.11722020751E+02  0.21269758448E+02 -0.18119843121E+03  0.18281870765E+03  0.00000000000E+00 0. -1.
         -2    1    1    2    0  502  0.11722020751E+02 -0.21269758448E+02 -0.18088849287E+03  0.18251152086E+03  0.00000000000E+00 0. -1.
</event>
<event>
 4    1  0.5847355E+003  0.2182253E+02  0.7546771E-02  0.1507838E+00
          2   -1    0    0  501    0  0.00000000000E+00  0.00000000000E+00  0.23773058014E+03  0.23773058014E+03  0.00000000000E+00 0. -1.
         -2   -1    0    0    0  501 -0.00000000000E+00 -0.00000000000E+00 -0.73262907332E+01  0.73262907332E+01  0.00000000000E+00 0.  1.
          2    1    1    2  502    0  0.15759529318E+02  0.15095036582E+02  0.21964448076E+03  0.22072589523E+03  0.00000000000E+00 0. -1.
         -2    1    1    2    0  502 -0.15759529318E+02 -0.15095036582E+02  0.10759808639E+02  0.24330975642E+02  0.00000000000E+00 0.  1.
</event>
<event>
 4    1  0.5847355E+003  0.2830094E+02  0.7546771E-02  0.1434960E+00
          2   -1    0    0  501    0  0.00000000000E+00  0.00000000000E+00  0.31324049472E+03  0.31324049472E+03  0.00000000000E+00 0. -1.
         -2   -1    0    0    0  501 -0.00000000000E+00 -0.00000000000E+00 -0.78920582096E+01  0.78920582096E+01  0.00000000000E+00 0. -1.
          2    1    1    2  502    0  0.28237586283E+02  0.18925445684E+01  0.28469140049E+03  0.28609462860E+03  0.00000000000E+00 0. -1.
         -2    1    1    2    0  502 -0.28237586283E+02 -0.18925445684E+01  0.20657036029E+02  0.35037924333E+02  0.00000000000E+00 0. -1.
</event>
<event>
 4    1  0.5847355E+003  0.3902081E+02  0.7546771E-02  0.1354321E+00
          2   -1    0    0  501    0  0.00000000000E+00  0.00000000000E+00  0.28222093448E+03  0.28222093448E+03  0.00000000000E+00 0. -1.
         -2   -1    0    0    0  501 -0.00000000000E+00 -0.00000000000E+00 -0.37897571083E+03  0.37897571083E+03  0.00000000000E+00 0. -1.
          2    1    1    2  502    0 -0.27760768521E+02 -0.27421952222E+02  0.27985927853E+03  0.28256652228E+03  0.00000000000E+00 0. -1.
         -2    1    1    2    0  502  0.27760768521E+02  0.27421952222E+02 -0.37661405488E+03  0.37863012303E+03  0.00000000000E+00 0. -1.
</event>
<event>
 4    1  0.5847355E+003  0.2139375E+02  0.7546771E-02  0.1513717E+00
          2   -1    0    0  501    0  0.00000000000E+00  0.00000000000E+00  0.27262698520E+02  0.27262698520E+02  0.00000000000E+00 0. -1.
         -2   -1    0    0    0  501 -0.00000000000E+00 -0.00000000000E+00 -0.64887448202E+03  0.64887448202E+03  0.00000000000E+00 0. -1.
          2    1    1    2  502    0  0.21338604215E+02  0.15350626222E+01  0.22860640134E+02  0.31309763883E+02  0.00000000000E+00 0. -1.
         -2    1    1    2    0  502 -0.21338604215E+02 -0.15350626222E+01 -0.64447242363E+03  0.64482741665E+03  0.00000000000E+00 0. -1.
</event>
<event>
 4    1  0.5847355E+003  0.2342623E+02  0.7546771E-02  0.1487214E+00
          2   -1    0    0  501    0  0.00000000000E+00  0.00000000000E+00  0.14217066152E+04  0.14217066152E+04  0.00000000000E+00 0. -1.
         -2   -1    0    0    0  501 -0.00000000000E+00 -0.00000000000E+00 -0.68559622278E+00  0.68559622278E+00  0.00000000000E+00 0.  1.
          2    1    1    2  502    0  0.21736890908E+02  0.87347466411E+01  0.11806410880E+04  0.11808734762E+04  0.00000000000E+00 0. -1.
         -2    1    1    2    0  502 -0.21736890908E+02 -0.87347466411E+01  0.24037993097E+03  0.24151873517E+03  0.00000000000E+00 0.  1.
</event>
<event>
 4    1  0.5847355E+003  0.2179680E+02  0.7546771E-02  0.1508186E+00
          2   -1    0    0  501    0  0.00000000000E+00  0.00000000000E+00  0.52981242759E+03  0.52981242759E+03  0.00000000000E+00 0.  1.
         -2   -1    0    0    0  501 -0.00000000000E+00 -0.00000000000E+00 -0.40691110716E+02  0.40691110716E+02  0.00000000000E+00 0. -1.
          2    1    1    2  502    0 -0.37977254466E+01 -0.21463409042E+02  0.52665178778E+03  0.52710265245E+03  0.00000000000E+00 0.  1.
         -2    1    1    2    0  502  0.37977254466E+01  0.21463409042E+02 -0.37530470909E+02  0.43400885855E+02  0.00000000000E+00 0. -1.
</event>
<event>
 4    1  0.5847355E+003  0.3167997E+02  0.7546771E-02  0.1405538E+00
          2   -1    0    0  501    0  0.00000000000E+00  0.00000000000E+00  0.21808232762E+03  0.21808232762E+03  0.00000000000E+00 0. -1.
         -2   -1    0    0    0  501 -0.00000000000E+00 -0.00000000000E+00 -0.12491168495E+02  0.12491168495E+02  0.00000000000E+00 0.  1.
          2    1    1    2  502    0  0.22984052831E+02 -0.21802613692E+02  0.19441609748E+03  0.19698030259E+03  0.00000000000E+00 0. -1.
         -2    1    1    2    0  502 -0.22984052831E+02  0.21802613692E+02  0.11175061641E+02  0.33593193523E+02  0.00000000000E+00 0.  1.
</event>
<event>
 4    1  0.5847355E+003  0.3147148E+02  0.7546771E-02  0.1407226E+00
          2   -1    0    0  501    0  0.00000000000E+00  0.00000000000E+00  0.56223492374E+01  0.56223492374E+01  0.00000000000E+00 0.  1.
         -2   -1    0    0    0  501 -0.00000000000E+00 -0.00000000000E+00 -0.44449878045E+03  0.44449878045E+03  0.00000000000E+00 0. -1.
          2    1    1    2  502    0 -0.16753175769E+02 -0.26641791930E+02 -0.44573242515E+02  0.54563980096E+02  0.00000000000E+00 0.  1.
         -2    1    1    2    0  502  0.16753175769E+02  0.26641791930E+02 -0.39430318870E+03  0.39555714959E+03  0.00000000000E+00 0. -1.
</event>
<event>
 4    1  0.5847355E+003  0.2136651E+02  0.7546771E-02  0.1514096E+00
          2   -1    0    0  501    0  0.00000000000E+00  0.00000000000E+00  0.11720526257E+04  0.11720526257E+04  0.00000000000E+00 0.  1.
         -2   -1    0    0    0  501 -0.00000000000E+00 -0.00000000000E+00 -0.11693847672E+01  0.11693847672E+01  0.00000000000E+00 0. -1.
          2    1    1    2  502    0 -0.34556622856E+00 -0.21363715884E+02  0.10644946109E+04  0.10647090234E+04  0.00000000000E+00 0.  1.
         -2    1    1    2    0  502  0.34556622856E+00  0.21363715884E+02  0.10638863003E+03  0.10851298712E+03  0.00000000000E+00 0. -1.
</event>
<event>
 4    1  0.5847355E+003  0.2125299E+02  0.7546771E-02  0.1515683E+00
          2   -1    0    0  501    0  0.00000000000E+00  0.00000000000E+00  0.22319171791E+03  0.22319171791E+03  0.00000000000E+00 0. -1.
         -2   -1    0    0    0  501 -0.00000000000E+00 -0.00000000000E+00 -0.21754472374E+01  0.21754472374E+01  0.00000000000E+00 0. -1.
          2    1    1    2  502    0  0.13299120562E+02 -0.16577781020E+02  0.14026189852E+03  0.14186292542E+03  0.00000000000E+00 0. -1.
         -2    1    1    2    0  502 -0.13299120562E+02  0.16577781020E+02  0.80754372146E+02  0.83504239724E+02  0.00000000000E+00 0. -1.
</event>
<event>
 4    1  0.5847355E+003  0.2086294E+02  0.7546771E-02  0.1521231E+00
          2   -1    0    0  501    0  0.00000000000E+00  0.00000000000E+00  0.53405434305E+03  0.53405434305E+03  0.00000000000E+00 0.  1.
         -2   -1    0    0    0  501 -0.00000000000E+00 -0.00000000000E+00 -0.52560088629E+02  0.52560088629E+02  0.00000000000E+00 0. -1.
          2    1    1    2  502    0  0.16778974578E+02  0.12398725939E+02  0.53177139614E+03  0.53218049583E+03  0.00000000000E+00 0.  1.
         -2    1    1    2    0  502 -0.16778974578E+02 -0.12398725939E+02 -0.50277141716E+02  0.54433935848E+02  0.00000000000E+00 0. -1.
</event>
<event>
 4    1  0.5847355E+003  0.8368794E+02  0.7546771E-02  0.1195535E+00
          2   -1    0    0  501    0  0.00000000000E+00  0.00000000000E+00  0.30858824929E+02  0.30858824929E+02  0.00000000000E+00 0.  1.
         -2   -1    0    0    0  501 -0.00000000000E+00 -0.00000000000E+00 -0.81454241338E+03  0.81454241338E+03  0.00000000000E+00 0. -1.
          2    1    1    2  502    0 -0.27421771953E+02  0.79067799773E+02 -0.32828107109E+02  0.89896357848E+02  0.00000000000E+00 0.  1.
         -2    1    1    2    0  502  0.27421771953E+02 -0.79067799773E+02 -0.75085548134E+03  0.75550488046E+03  0.00000000000E+00 0. -1.
</event>
<event>
 4    1  0.5847355E+003  0.2462976E+02  0.7546771E-02  0.1472988E+00
          2   -1    0    0  501    0  0.00000000000E+00  0.00000000000E+00  0.16229429287E+03  0.16229429287E+03  0.00000000000E+00 0.  1.
         -2   -1    0    0    0  501 -0.00000000000E+00 -0.00000000000E+00 -0.12163936697E+02  0.12163936697E+02  0.00000000000E+00 0. -1.
          2    1    1    2  502    0  0.22809247389E+02  0.92931951424E+01  0.14766547222E+03  0.14970543386E+03  0.00000000000E+00 0.  1.
         -2    1    1    2    0  502 -0.22809247389E+02 -0.92931951424E+01  0.24648839571E+01  0.24752795707E+02  0.00000000000E+00 0. -1.
</event>
<event>
 4    1  0.5847355E+003  0.2132492E+02  0.7546771E-02  0.1514676E+00
          2   -1    0    0  501    0  0.00000000000E+00  0.00000000000E+00  0.31341584563E+01  0.31341584563E+01  0.00000000000E+00 0. -1.
         -2   -1    0    0    0  501 -0.00000000000E+00 -0.00000000000E+00 -0.17463573698E+03  0.17463573698E+03  0.00000000000E+00 0. -1.
          2    1    1    2  502    0 -0.21259433443E+02  0.16699822898E+01 -0.49193961660E+02  0.53617144786E+02  0.00000000000E+00 0. -1.
         -2    1    1    2    0  502  0.21259433443E+02 -0.16699822898E+01 -0.12230761686E+03  0.12415275065E+03  0.00000000000E+00 0. -1.
</event>
<event>
 4    1  0.5847355E+003  0.4163452E+02  0.7546771E-02  0.1339165E+00
          2   -1    0    0  501    0  0.00000000000E+00  0.00000000000E+00  0.44271885467E+03  0.44271885467E+03  0.00000000000E+00 0. -1.
         -2   -1    0    0    0  501 -0.00000000000E+00 -0.00000000000E+00 -0.55931308339E+01  0.55931308339E+01  0.00000000000E+00 0. -1.
          2    1    1    2  502    0  0.40638843954E+02  0.90508408490E+01  0.34132954242E+03  0.34385940424E+03  0.00000000000E+00 0. -1.
         -2    1    1    2    0  502 -0.40638843954E+02 -0.90508408490E+01  0.95796181412E+02  0.10445258126E+03  0.00000000000E+00 0. -1.
</event>
<event>
 4    1  0.5847355E+003  0.2522748E+02  0.7546771E-02  0.1466275E+00
          2   -1    0    0  501    0  0.00000000000E+00  0.00000000000E+00  0.19125936122E+03  0.19125936122E+03  0.00000000000E+00 0. -1.
         -2   -1    0    0    0  501 -0.00000000000E+00 -0.00000000000E+00 -0.77115601443E+03  0.77115601443E+03  0.00000000000E+00 0. -1.
          2    1    1    2  502    0  0.22955422575E+02 -0.10462988528E+02  0.19022002880E+03  0.19188560371E+03  0.00000000000E+00 0. -1.
         -2    1    1    2    0  502 -0.22955422575E+02  0.10462988528E+02 -0.77011668200E+03  0.77052977194E+03  0.00000000000E+00 0. -1.
</event>
<event>
 4    1  0.5847355E+003  0.2430961E+02  0.7546771E-02  0.1476677E+00
          2   -1    0    0  501    0  0.00000000000E+00  0.00000000000E+00  0.66711391035E+01  0.66711391035E+01  0.00000000000E+00 0. -1.
         -2   -1    0    0    0  501 -0.00000000000E+00 -0.00000000000E+00 -0.91083713247E+02  0.91083713247E+02  0.00000000000E+00 0. -1.
          2    1    1    2  502    0  0.46566884650E+01  0.23859433276E+02 -0.34109392019E+02  0.41885653004E+02  0.00000000000E+00 0. -1.
         -2    1    1    2    0  502 -0.46566884650E+01 -0.23859433276E+02 -0.50303182125E+02  0.55869199346E+02  0.00000000000E+00 0. -1.
</event>
<event>
 4    1  0.5847355E+003  0.2242281E+02  0.7546771E-02  0.1499876E+00
          2   -1    0    0  501    0  0.00000000000E+00  0.00000000000E+00  0.13657378687E+04  0.13657378687E+04  0.00000000000E+00 0.  1.
         -2   -1    0    0    0  501 -0.00000000000E+00 -0.00000000000E+00 -0.93252977169E+01  0.93252977169E+01  0.00000000000E+00 0.  1.
          2    1    1    2  502    0 -0.86734017273E+01  0.20677393924E+02  0.13520301915E+04  0.13522161148E+04  0.00000000000E+00 0.  1.
         -2    1    1    2    0  502  0.86734017273E+01 -0.20677393924E+02  0.43823795208E+01  0.22847051610E+02  0.00000000000E+00 0.  1.
</event>
<event>
 4    1  0.5847355E+003  0.2475634E+02  0.7546771E-02  0.1471548E+00
          2   -1    0    0  501    0  0.00000000000E+00  0.00000000000E+00  0.36300878440E+01  0.36300878440E+01  0.00000000000E+00 0.  1.
         -2   -1    0    0    0  501 -0.00000000000E+00 -0.00000000000E+00 -0.20813976524E+03  0.20813976524E+03  0.00000000000E+00 0.  1.
          2    1    1    2  502    0  0.24059697096E+02 -0.58315968251E+01 -0.56240475107E+02  0.61448088548E+02  0.00000000000E+00 0.  1.
         -2    1    1    2    0  502 -0.24059697096E+02  0.58315968251E+01 -0.14826920229E+03  0.15032176454E+03  0.00000000000E+00 0.  1.
</event>
<event>
 4    1  0.5847355E+003  0.2413091E+02  0.7546771E-02  0.1478765E+00
          2   -1    0    0  501    0  0.00000000000E+00  0.00000000000E+00  0.13317572476E+02  0.13317572476E+02  0.00000000000E+00 0.  1.
         -2   -1    0    0    0  501 -0.00000000000E+00 -0.00000000000E+00 -0.91991336766E+02  0.91991336766E+02  0.00000000000E+00 0. -1.
          2    1    1    2  502    0  0.16540601717E+02  0.17570127721E+02 -0.11963112777E+01  0.24160547468E+02  0.00000000000E+00 0.  1.
         -2    1    1    2    0  502 -0.16540601717E+02 -0.17570127721E+02 -0.77477453013E+02  0.81148361774E+02  0.00000000000E+00 0. -1.
</event>
<event>
 4    1  0.5847355E+003  0.2015710E+02  0.7546771E-02  0.1531648E+00
          2   -1    0    0  501    0  0.00000000000E+00  0.00000000000E+00  0.12824353377E+04  0.12824353377E+04  0.00000000000E+00 0.  1.
         -2   -1    0    0    0  501 -0.00000000000E+00 -0.00000000000E+00 -0.69314611223E+00  0.69314611223E+00  0.00000000000E+00 0. -1.
          2    1    1    2  502    0  0.72936897947E+01 -0.18791239222E+02  0.11135939436E+04  0.11137763599E+04  0.00000000000E+00 0.  1.
         -2    1    1    2    0  502 -0.72936897947E+01  0.18791239222E+02  0.16814824794E+03  0.16935212390E+03  0.00000000000E+00 0. -1.
</event>
<event>
 4    1  0.5847355E+003  0.2530264E+02  0.7546771E-02  0.1465446E+00
          2   -1    0    0  501    0  0.00000000000E+00  0.00000000000E+00  0.36922164938E+03  0.36922164938E+03  0.00000000000E+00 0. -1.
         -2   -1    0    0    0  501 -0.00000000000E+00 -0.00000000000E+00 -0.13798135190E+02  0.13798135190E+02  0.00000000000E+00 0.  1.
          2    1    1    2  502    0 -0.42813842308E+00 -0.25299017673E+02  0.35678448127E+03  0.35768056932E+03  0.00000000000E+00 0. -1.
         -2    1    1    2    0  502  0.42813842308E+00  0.25299017673E+02 -0.13609670813E+01  0.25339215243E+02  0.00000000000E+00 0.  1.
</event>
<event>
 4    1  0.5847355E+003  0.3567995E+02  0.7546771E-02  0.1375845E+00
          2   -1    0    0  501    0  0.00000000000E+00  0.00000000000E+00  0.83112796429E+02  0.83112796429E+02  0.00000000000E+00 0. -1.
         -2   -1    0    0    0  501 -0.00000000000E+00 -0.00000000000E+00 -0.28275035257E+02  0.28275035257E+02  0.00000000000E+00 0. -1.
          2    1    1    2  502    0  0.27191737408E+02  0.23101267246E+02  0.65121509736E+02  0.74255438602E+02  0.00000000000E+00 0. -1.
         -2    1    1    2    0  502 -0.27191737408E+02 -0.23101267246E+02 -0.10283748564E+02  0.37132393085E+02  0.00000000000E+00 0. -1.
</event>
<event>
 4    1  0.5847355E+003  0.4998338E+02  0.7546771E-02  0.1298245E+00
          2   -1    0    0  501    0  0.00000000000E+00  0.00000000000E+00  0.52178762874E+02  0.52178762874E+02  0.00000000000E+00 0.  1.
         -2   -1    0    0    0  501 -0.00000000000E+00 -0.00000000000E+00 -0.12922097199E+03  0.12922097199E+03  0.00000000000E+00 0.  1.
          2    1    1    2  502    0  0.69495395626E+01  0.49497898581E+02  0.33439344128E+02  0.60137573943E+02  0.00000000000E+00 0.  1.
         -2    1    1    2    0  502 -0.69495395626E+01 -0.49497898581E+02 -0.11048155325E+03  0.12126216092E+03  0.00000000000E+00 0.  1.
</event>
<event>
 4    1  0.5847355E+003  0.2012264E+02  0.7546771E-02  0.1532169E+00
          2   -1    0    0  501    0  0.00000000000E+00  0.00000000000E+00  0.69326044375E+02  0.69326044375E+02  0.00000000000E+00 0.  1.
         -2   -1    0    0    0  501 -0.00000000000E+00 -0.00000000000E+00 -0.58962088678E+01  0.58962088678E+01  0.00000000000E+00 0. -1.
          2    1    1    2  502    0 -0.19959037945E+02 -0.25607591122E+01  0.35360409014E+02  0.40685122693E+02  0.00000000000E+00 0.  1.
         -2    1    1    2    0  502  0.19959037945E+02  0.25607591122E+01  0.28069426493E+02  0.34537130549E+02  0.00000000000E+00 0. -1.
</event>
<event>
 4    1  0.5847355E+003  0.2281763E+02  0.7546771E-02  0.1494801E+00
          2   -1    0    0  501    0  0.00000000000E+00  0.00000000000E+00  0.49787746070E+03  0.49787746070E+03  0.00000000000E+00 0.  1.
         -2   -1    0    0    0  501 -0.00000000000E+00 -0.00000000000E+00 -0.43402961369E+01  0.43402961369E+01  0.00000000000E+00 0. -1.
          2    1    1    2  502    0  0.19848755207E+02 -0.11254836573E+02  0.46554556595E+03  0.46610440719E+03  0.00000000000E+00 0.  1.
         -2    1    1    2    0  502 -0.19848755207E+02  0.11254836573E+02  0.27991598613E+02  0.36113349644E+02  0.00000000000E+00 0. -1.
</event>
<event>
 4    1  0.5847355E+003  0.5100288E+02  0.7546771E-02  0.1293882E+00
          2   -1    0    0  501    0  0.00000000000E+00  0.00000000000E+00  0.66789551311E+03  0.66789551311E+03  0.00000000000E+00 0.  1.
         -2   -1    0    0    0  501 -0.00000000000E+00 -0.00000000000E+00 -0.39075963651E+01  0.39075963651E+01  0.00000000000E+00 0.  1.
          2    1    1    2  502    0 -0.39290024560E+02 -0.32520577430E+02  0.35124465013E+03  0.35492830013E+03  0.00000000000E+00 0.  1.
         -2    1    1    2    0  502  0.39290024560E+02  0.32520577430E+02  0.31274326661E+03  0.31687480934E+03  0.00000000000E+00 0.  1.
</event>
<event>
 4    1  0.5847355E+003  0.2262279E+02  0.7546771E-02  0.1497290E+00
          2   -1    0    0  501    0  0.00000000000E+00  0.00000000000E+00  0.47593259314E+03  0.47593259314E+03  0.00000000000E+00 0. -1.
         -2   -1    0    0    0  501 -0.00000000000E+00 -0.00000000000E+00 -0.13254971075E+01  0.13254971075E+01  0.00000000000E+00 0. -1.
          2    1    1    2  502    0  0.22277282316E+02  0.39386896344E+01  0.34096996625E+03  0.34171963430E+03  0.00000000000E+00 0. -1.
         -2    1    1    2    0  502 -0.22277282316E+02 -0.39386896344E+01  0.13363712979E+03  0.13553845595E+03  0.00000000000E+00 0. -1.
</event>
<event>
 4    1  0.5847355E+003  0.5316673E+02  0.7546771E-02  0.1284997E+00
          2   -1    0    0  501    0  0.00000000000E+00  0.00000000000E+00  0.77336117664E+03  0.77336117664E+03  0.00000000000E+00 0. -1.
         -2   -1    0    0    0  501 -0.00000000000E+00 -0.00000000000E+00 -0.10605785223E+03  0.10605785223E+03  0.00000000000E+00 0.  1.
          2    1    1    2  502    0  0.25328481310E+02 -0.46745798681E+02  0.76571786198E+03  0.76756142804E+03  0.00000000000E+00 0. -1.
         -2    1    1    2    0  502 -0.25328481310E+02  0.46745798681E+02 -0.98414537563E+02  0.11185760083E+03  0.00000000000E+00 0.  1.
</event>
<event>
 4    1  0.5847355E+003  0.2124745E+02  0.7546771E-02  0.1515761E+00
          2   -1    0    0  501    0  0.00000000000E+00  0.00000000000E+00  0.40950553608E+03  0.40950553608E+03  0.00000000000E+00 0.  1.
         -2   -1    0    0    0  501 -0.00000000000E+00 -0.00000000000E+00 -0.14934475852E+01  0.14934475852E+01  0.00000000000E+00 0.  1.
          2    1    1    2  502    0  0.16993984612E+02 -0.12753762641E+02  0.30915624974E+03  0.30988552843E+03  0.00000000000E+00 0.  1.
         -2    1    1    2    0  502 -0.16993984612E+02  0.12753762641E+02  0.98855838750E+02  0.10111345523E+03  0.00000000000E+00 0.  1.
</event>
<event>
 4    1  0.5847355E+003  0.2154787E+02  0.7546771E-02  0.1511585E+00
          2   -1    0    0  501    0  0.00000000000E+00  0.00000000000E+00  0.46717618600E+03  0.46717618600E+03  0.00000000000E+00 0.  1.
         -2   -1    0    0    0  501 -0.00000000000E+00 -0.00000000000E+00 -0.31691061981E+01  0.31691061981E+01  0.00000000000E+00 0.  1.
          2    1    1    2  502    0  0.58340618350E+01 -0.20743056964E+02  0.42684078705E+03  0.42738433310E+03  0.00000000000E+00 0.  1.
         -2    1    1    2    0  502 -0.58340618350E+01  0.20743056964E+02  0.37166292752E+02  0.42960959098E+02  0.00000000000E+00 0.  1.
</event>
<event>
 4    1  0.5847355E+003  0.3053761E+02  0.7546771E-02  0.1414981E+00
          2   -1    0    0  501    0  0.00000000000E+00  0.00000000000E+00  0.70102215644E+03  0.70102215644E+03  0.00000000000E+00 0. -1.
         -2   -1    0    0    0  501 -0.00000000000E+00 -0.00000000000E+00 -0.14122244550E+02  0.14122244550E+02  0.00000000000E+00 0.  1.
          2    1    1    2  502    0 -0.20248649046E+02 -0.22859085804E+02  0.68376469039E+03  0.68444627065E+03  0.00000000000E+00 0. -1.
         -2    1    1    2    0  502  0.20248649046E+02  0.22859085804E+02  0.31352214988E+01  0.30698130331E+02  0.00000000000E+00 0.  1.
</event>
<event>
 4    1  0.5847355E+003  0.2055417E+02  0.7546771E-02  0.1525726E+00
          2   -1    0    0  501    0  0.00000000000E+00  0.00000000000E+00  0.16956969918E+04  0.16956969918E+04  0.00000000000E+00 0. -1.
         -2   -1    0    0    0  501 -0.00000000000E+00 -0.00000000000E+00 -0.45933456897E+00  0.45933456897E+00  0.00000000000E+00 0. -1.
          2    1    1    2  502    0  0.16909916334E+02 -0.11684545890E+02  0.14213087583E+04  0.14214573720E+04  0.00000000000E+00 0. -1.
         -2    1    1    2    0  502 -0.16909916334E+02  0.11684545890E+02  0.27392889894E+03  0.27469895442E+03  0.00000000000E+00 0. -1.
</event>
<event>
 4    1  0.5847355E+003  0.3052855E+02  0.7546771E-02  0.1415058E+00
          2   -1    0    0  501    0  0.00000000000E+00  0.00000000000E+00  0.23764424035E+02  0.23764424035E+02  0.00000000000E+00 0.  1.
         -2   -1    0    0    0  501 -0.00000000000E+00 -0.00000000000E+00 -0.30462926313E+03  0.30462926313E+03  0.00000000000E+00 0.  1.
          2    1    1    2  502    0 -0.27670349301E+02  0.12897435513E+02  0.12831069082E+02  0.33115380219E+02  0.00000000000E+00 0.  1.
         -2    1    1    2    0  502  0.27670349301E+02 -0.12897435513E+02 -0.29369590817E+03  0.29527830694E+03  0.00000000000E+00 0.  1.
</event>
<event>
 4    1  0.5847355E+003  0.2550767E+02  0.7546771E-02  0.1463203E+00
          2   -1    0    0  501    0  0.00000000000E+00  0.00000000000E+00  0.44439191639E+03  0.44439191639E+03  0.00000000000E+00 0. -1.
         -2   -1    0    0    0  501 -0.00000000000E+00 -0.00000000000E+00 -0.16552417328E+03  0.16552417328E+03  0.00000000000E+00 0.  1.
          2    1    1    2  502    0  0.25433976549E+01  0.25380553521E+02  0.44304019320E+03  0.44377387728E+03  0.00000000000E+00 0. -1.
         -2    1    1    2    0  502 -0.25433976549E+01 -0.25380553521E+02 -0.16417245009E+03  0.16614221239E+03  0.00000000000E+00 0.  1.
</event>
<event>
 4    1  0.5847355E+003  0.3641247E+02  0.7546771E-02  0.1370896E+00
          2   -1    0    0  501    0  0.00000000000E+00  0.00000000000E+00  0.10365618102E+04  0.10365618102E+04  0.00000000000E+00 0.  1.
         -2   -1    0    0    0  501 -0.00000000000E+00 -0.00000000000E+00 -0.22038543083E+01  0.22038543083E+01  0.00000000000E+00 0.  1.
          2    1    1    2  502    0  0.34547610126E+02 -0.11503510918E+02  0.85361996403E+03  0.85439622607E+03  0.00000000000E+00 0.  1.
         -2    1    1    2    0  502 -0.34547610126E+02  0.11503510918E+02  0.18073799191E+03  0.18436943848E+03  0.00000000000E+00 0.  1.
</event>
<event>
 4    1  0.5847355E+003  0.2458792E+02  0.7546771E-02  0.1473466E+00
          2   -1    0    0  501    0  0.00000000000E+00  0.00000000000E+00  0.16256807871E+03  0.16256807871E+03  0.00000000000E+00 0.  1.
         -2   -1    0    0    0  501 -0.00000000000E+00 -0.00000000000E+00 -0.72680470979E+01  0.72680470979E+01  0.00000000000E+00 0. -1.
          2    1    1    2  502    0 -0.16521734908E+02 -0.18209832793E+02  0.13699123758E+03  0.13918033233E+03  0.00000000000E+00 0.  1.
         -2    1    1    2    0  502  0.16521734908E+02  0.18209832793E+02  0.18308794035E+02  0.30655793477E+02  0.00000000000E+00 0. -1.
</event>
<event>
 4    1  0.5847355E+003  0.2086865E+02  0.7546771E-02  0.1521148E+00
          2   -1    0    0  501    0  0.00000000000E+00  0.00000000000E+00  0.16331721552E+03  0.16331721552E+03  0.00000000000E+00 0. -1.
         -2   -1    0    0    0  501 -0.00000000000E+00 -0.00000000000E+00 -0.17302493950E+02  0.17302493950E+02  0.00000000000E+00 0. -1.
          2    1    1    2  502    0  0.15652096854E+02  0.13802630045E+02  0.15606708876E+03  0.15745614286E+03  0.00000000000E+00 0. -1.
         -2    1    1    2    0  502 -0.15652096854E+02 -0.13802630045E+02 -0.10052367184E+02  0.23163566610E+02  0.00000000000E+00 0. -1.
</event>
<event>
 4    1  0.5847355E+003  0.2472002E+02  0.7546771E-02  0.1471960E+00
          2   -1    0    0  501    0  0.00000000000E+00  0.00000000000E+00  0.23262115546E+03  0.23262115546E+03  0.00000000000E+00 0.  1.
         -2   -1    0    0    0  501 -0.00000000000E+00 -0.00000000000E+00 -0.13570165205E+02  0.13570165205E+02  0.00000000000E+00 0.  1.
          2    1    1    2  502    0  0.83515354898E+01  0.23266525536E+02  0.22006640970E+03  0.22145045503E+03  0.00000000000E+00 0.  1.
         -2    1    1    2    0  502 -0.83515354898E+01 -0.23266525536E+02 -0.10154194469E+01  0.24740865631E+02  0.00000000000E+00 0.  1.
</event>
<event>
 4    1  0.5847355E+003  0.2033478E+02  0.7546771E-02  0.1528978E+00
          2   -1    0    0  501    0  0.00000000000E+00  0.00000000000E+00  0.13719628565E+02  0.13719628565E+02  0.00000000000E+00 0.  1.
         -2   -1    0    0    0  501 -0.00000000000E+00 -0.00000000000E+00 -0.46600481719E+02  0.46600481719E+02  0.00000000000E+00 0. -1.
          2    1    1    2  502    0  0.19448415230E+02 -0.59382296641E+01  0.14847787619E+01  0.20388918423E+02  0.00000000000E+00 0.  1.
         -2    1    1    2    0  502 -0.19448415230E+02  0.59382296641E+01 -0.34365631916E+02  0.39931191862E+02  0.00000000000E+00 0. -1.
</event>
<event>
 4    1  0.5847355E+003  0.2569291E+02  0.7546771E-02  0.1461199E+00
          2   -1    0    0  501    0  0.00000000000E+00  0.00000000000E+00  0.35206765545E+02  0.35206765545E+02  0.00000000000E+00 0. -1.
         -2   -1    0    0    0  501 -0.00000000000E+00 -0.00000000000E+00 -0.18758421303E+02  0.18758421303E+02  0.00000000000E+00 0.  1.
          2    1    1    2  502    0 -0.17377264719E+02  0.18925015977E+02  0.87971286641E+01  0.27157227980E+02  0.00000000000E+00 0. -1.
         -2    1    1    2    0  502  0.17377264719E+02 -0.18925015977E+02  0.76512155782E+01  0.26807958868E+02  0.00000000000E+00 0.  1.
</event>
<event>
 4    1  0.5847355E+003  0.2224383E+02  0.7546771E-02  0.1502218E+00
          2   -1    0    0  501    0  0.00000000000E+00  0.00000000000E+00  0.42502349287E+02  0.42502349287E+02  0.00000000000E+00 0.  1.
         -2   -1    0    0    0  501 -0.00000000000E+00 -0.00000000000E+00 -0.11210202419E+03  0.11210202419E+03  0.00000000000E+00 0. -1.
          2    1    1    2  502    0 -0.18392516599E+02  0.12510123468E+02  0.38378567170E+02  0.44358790267E+02  0.00000000000E+00 0.  1.
         -2    1    1    2    0  502  0.18392516599E+02 -0.12510123468E+02 -0.10797824207E+03  0.11024558321E+03  0.00000000000E+00 0. -1.
</event>
<event>
 4    1  0.5847355E+003  0.2427742E+02  0.7546771E-02  0.1477052E+00
          2   -1    0    0  501    0  0.00000000000E+00  0.00000000000E+00  0.21205527054E+02  0.21205527054E+02  0.00000000000E+00 0.  1.
         -2   -1    0    0    0  501 -0.00000000000E+00 -0.00000000000E+00 -0.49287786777E+02  0.49287786777E+02  0.00000000000E+00 0.  1.
          2    1    1    2  502    0 -0.12182494452E+00 -0.24277116195E+02  0.92345033313E+01  0.25974396313E+02  0.00000000000E+00 0.  1.
         -2    1    1    2    0  502  0.12182494452E+00  0.24277116195E+02 -0.37316763055E+02  0.44518917518E+02  0.00000000000E+00 0.  1.
</event>
<event>
 4    1  0.5847355E+003  0.2076092E+02  0.7546771E-02  0.1522706E+00
          2   -1    0    0  501    0  0.00000000000E+00  0.00000000000E+00  0.64989254314E+00  0.64989254314E+00  0.00000000000E+00 0. -1.
         -2   -1    0    0    0  501 -0.00000000000E+00 -0.00000000000E+00 -0.15673844987E+04  0.15673844987E+04  0.00000000000E+00 0. -1.
          2    1    1    2  502    0  0.19896339550E+01  0.20665361715E+02 -0.18789203941E+03  0.18903553711E+03  0.00000000000E+00 0. -1.
         -2    1    1    2    0  502 -0.19896339550E+01 -0.20665361715E+02 -0.13788425668E+04  0.13789988542E+04  0.00000000000E+00 0. -1.
</event>
<event>
 4    1  0.5847355E+003  0.2152304E+02  0.7546771E-02  0.1511927E+00
          2   -1    0    0  501    0  0.00000000000E+00  0.00000000000E+00  0.33148576276E+02  0.33148576276E+02  0.00000000000E+00 0.  1.
         -2   -1    0    0    0  501 -0.00000000000E+00 -0.00000000000E+00 -0.90694542587E+02  0.90694542587E+02  0.00000000000E+00 0.  1.
          2    1    1    2  502    0  0.20899300639E+02 -0.51439883168E+01  0.28178516101E+02  0.35458005480E+02  0.00000000000E+00 0.  1.
         -2    1    1    2    0  502 -0.20899300639E+02  0.51439883168E+01 -0.85724482411E+02  0.88385113383E+02  0.00000000000E+00 0.  1.
</event>
<event>
 4    1  0.5847355E+003  0.2543203E+02  0.7546771E-02  0.1464028E+00
          2   -1    0    0  501    0  0.00000000000E+00  0.00000000000E+00  0.74336714194E+03  0.74336714194E+03  0.00000000000E+00 0. -1.
         -2   -1    0    0    0  501 -0.00000000000E+00 -0.00000000000E+00 -0.48486799550E+02  0.48486799550E+02  0.00000000000E+00 0. -1.
          2    1    1    2  502    0  0.24475965261E+02  0.69076138029E+01  0.73979867459E+03  0.74023568337E+03  0.00000000000E+00 0. -1.
         -2    1    1    2    0  502 -0.24475965261E+02 -0.69076138029E+01 -0.44918332200E+02  0.51618258122E+02  0.00000000000E+00 0. -1.
</event>
<event>
 4    1  0.5847355E+003  0.2127798E+02  0.7546771E-02  0.1515333E+00
          2   -1    0    0  501    0  0.00000000000E+00  0.00000000000E+00  0.15268943102E+03  0.15268943102E+03  0.00000000000E+00 0.  1.
         -2   -1    0    0    0  501 -0.00000000000E+00 -0.00000000000E+00 -0.57838942252E+01  0.57838942252E+01  0.00000000000E+00 0.  1.
          2    1    1    2  502    0 -0.19912877215E+02  0.74986368052E+01  0.12876755383E+03  0.13051373550E+03  0.00000000000E+00 0.  1.
         -2    1    1    2    0  502  0.19912877215E+02 -0.74986368052E+01  0.18137982956E+02  0.27959589744E+02  0.00000000000E+00 0.  1.
</event>
<event>
 4    1  0.5847355E+003  0.2898238E+02  0.7546771E-02  0.1428650E+00
          2   -1    0    0  501    0  0.00000000000E+00  0.00000000000E+00  0.16945287035E+04  0.16945287035E+04  0.00000000000E+00 0. -1.
         -2   -1    0    0    0  501 -0.00000000000E+00 -0.00000000000E+00 -0.49160154056E+01  0.49160154056E+01  0.00000000000E+00 0. -1.
          2    1    1    2  502    0  0.23156025784E+02  0.17429197428E+02  0.16505502724E+04  0.16508047069E+04  0.00000000000E+00 0. -1.
         -2    1    1    2    0  502 -0.23156025784E+02 -0.17429197428E+02  0.39062415728E+02  0.48640012085E+02  0.00000000000E+00 0. -1.
</event>
<event>
 4    1  0.5847355E+003  0.3514546E+02  0.7546771E-02  0.1379543E+00
          2   -1    0    0  501    0  0.00000000000E+00  0.00000000000E+00  0.10166305656E+02  0.10166305656E+02  0.00000000000E+00 0.  1.
         -2   -1    0    0    0  501 -0.00000000000E+00 -0.00000000000E+00 -0.26980355615E+03  0.26980355615E+03  0.00000000000E+00 0.  1.
          2    1    1    2  502    0  0.35106284497E+02  0.16589956248E+01 -0.26033857440E+02  0.43737457755E+02  0.00000000000E+00 0.  1.
         -2    1    1    2    0  502 -0.35106284497E+02 -0.16589956248E+01 -0.23360339305E+03  0.23623240405E+03  0.00000000000E+00 0.  1.
</event>
<event>
 4    1  0.5847355E+003  0.5924824E+02  0.7546771E-02  0.1262408E+00
          2   -1    0    0  501    0  0.00000000000E+00  0.00000000000E+00  0.11638172485E+04  0.11638172485E+04  0.00000000000E+00 0. -1.
         -2   -1    0    0    0  501 -0.00000000000E+00 -0.00000000000E+00 -0.29443024772E+03  0.29443024772E+03  0.00000000000E+00 0.  1.
          2    1    1    2  502    0  0.37111883859E+02  0.46185081904E+02  0.11600729413E+04  0.11615849443E+04  0.00000000000E+00 0. -1.
         -2    1    1    2    0  502 -0.37111883859E+02 -0.46185081904E+02 -0.29068594049E+03  0.29666255193E+03  0.00000000000E+00 0.  1.
</event>
<event>
 4    1  0.5847355E+003  0.3416126E+02  0.7546771E-02  0.1386558E+00
          2   -1    0    0  501    0  0.00000000000E+00  0.00000000000E+00  0.11866565064E+04  0.11866565064E+04  0.00000000000E+00 0. -1.
         -2   -1    0    0    0  501 -0.00000000000E+00 -0.00000000000E+00 -0.15534021526E+01  0.15534021526E+01  0.00000000000E+00 0. -1.
          2    1    1    2  502    0 -0.66577811216E+01 -0.33506198206E+02  0.95242413488E+03  0.95303658066E+03  0.00000000000E+00 0. -1.
         -2    1    1    2    0  502  0.66577811216E+01  0.33506198206E+02  0.23267896934E+03  0.23517332787E+03  0.00000000000E+00 0. -1.
</event>
<event>
 4    1  0.5847355E+003  0.2575285E+02  0.7546771E-02  0.1460555E+00
          2   -1    0    0  501    0  0.00000000000E+00  0.00000000000E+00  0.80814681277E+03  0.80814681277E+03  0.00000000000E+00 0. -1.
         -2   -1    0    0    0  501 -0.00000000000E+00 -0.00000000000E+00 -0.59378232939E+02  0.59378232939E+02  0.00000000000E+00 0. -1.
          2    1    1    2  502    0  0.14548323538E+02 -0.21249832371E+02  0.80513891287E+03  0.80555066762E+03  0.00000000000E+00 0. -1.
         -2    1    1    2    0  502 -0.14548323538E+02  0.21249832371E+02 -0.56370333032E+02  0.61974378091E+02  0.00000000000E+00 0. -1.
</event>
<event>
 4    1  0.5847355E+003  0.3131579E+02  0.7546771E-02  0.1408497E+00
          2   -1    0    0  501    0  0.00000000000E+00  0.00000000000E+00  0.15016221601E+04  0.15016221601E+04  0.00000000000E+00 0. -1.
         -2   -1    0    0    0  501 -0.00000000000E+00 -0.00000000000E+00 -0.10858295348E+01  0.10858295348E+01  0.00000000000E+00 0. -1.
          2    1    1    2  502    0 -0.28944052008E+00  0.31314453758E+02  0.12246000112E+04  0.12250003535E+04  0.00000000000E+00 0. -1.
         -2    1    1    2    0  502  0.28944052008E+00 -0.31314453758E+02  0.27593631944E+03  0.27770763615E+03  0.00000000000E+00 0. -1.
</event>
<event>
 4    1  0.5847355E+003  0.2124942E+02  0.7546771E-02  0.1515733E+00
          2   -1    0    0  501    0  0.00000000000E+00  0.00000000000E+00  0.10952454523E+03  0.10952454523E+03  0.00000000000E+00 0. -1.
         -2   -1    0    0    0  501 -0.00000000000E+00 -0.00000000000E+00 -0.45744523243E+01  0.45744523243E+01  0.00000000000E+00 0.  1.
          2    1    1    2  502    0  0.12667368064E+02  0.17060933019E+02  0.70402926532E+02  0.73539851192E+02  0.00000000000E+00 0. -1.
         -2    1    1    2    0  502 -0.12667368064E+02 -0.17060933019E+02  0.34547166373E+02  0.40559146361E+02  0.00000000000E+00 0.  1.
</event>
<event>
 4    1  0.5847355E+003  0.2402260E+02  0.7546771E-02  0.1480042E+00
          2   -1    0    0  501    0  0.00000000000E+00  0.00000000000E+00  0.37650970580E+01  0.37650970580E+01  0.00000000000E+00 0. -1.
         -2   -1    0    0    0  501 -0.00000000000E+00 -0.00000000000E+00 -0.26107252041E+03  0.26107252041E+03  0.00000000000E+00 0. -1.
          2    1    1    2  502    0  0.13116718711E+02 -0.20125535534E+02 -0.43563676414E+02  0.49748159694E+02  0.00000000000E+00 0. -1.
         -2    1    1    2    0  502 -0.13116718711E+02  0.20125535534E+02 -0.21374374694E+03  0.21508945778E+03  0.00000000000E+00 0. -1.
</event>
<event>
 4    1  0.5847355E+003  0.2202247E+02  0.7546771E-02  0.1505152E+00
          2   -1    0    0  501    0  0.00000000000E+00  0.00000000000E+00  0.17249114470E+04  0.17249114470E+04  0.00000000000E+00 0.  1.
         -2   -1    0    0    0  501 -0.00000000000E+00 -0.00000000000E+00 -0.45306083360E+00  0.45306083360E+00  0.00000000000E+00 0. -1.
          2    1    1    2  502    0 -0.14844543776E+02 -0.16267406133E+02  0.13936054721E+04  0.13937794663E+04  0.00000000000E+00 0.  1.
         -2    1    1    2    0  502  0.14844543776E+02  0.16267406133E+02  0.33085291407E+03  0.33158504148E+03  0.00000000000E+00 0. -1.
</event>
<event>
 4    1  0.5847355E+003  0.6772179E+02  0.7546771E-02  0.1235636E+00
          2   -1    0    0  501    0  0.00000000000E+00  0.00000000000E+00  0.39237870328E+01  0.39237870328E+01  0.00000000000E+00 0.  1.
         -2   -1    0    0    0  501 -0.00000000000E+00 -0.00000000000E+00 -0.13260689944E+04  0.13260689944E+04  0.00000000000E+00 0.  1.
          2    1    1    2  502    0 -0.64578512138E+02  0.20392557459E+02 -0.43208280556E+03  0.43735773858E+03  0.00000000000E+00 0.  1.
         -2    1    1    2    0  502  0.64578512138E+02 -0.20392557459E+02 -0.89006240183E+03  0.89263504288E+03  0.00000000000E+00 0.  1.
</event>
<event>
 4    1  0.5847355E+003  0.3278143E+02  0.7546771E-02  0.1396869E+00
          2   -1    0    0  501    0  0.00000000000E+00  0.00000000000E+00  0.40952409821E+02  0.40952409821E+02  0.00000000000E+00 0. -1.
         -2   -1    0    0    0  501 -0.00000000000E+00 -0.00000000000E+00 -0.37322961631E+02  0.37322961631E+02  0.00000000000E+00 0.  1.
          2    1    1    2  502    0 -0.26714334353E+02  0.18999110295E+02  0.23141261956E+02  0.40126548031E+02  0.00000000000E+00 0. -1.
         -2    1    1    2    0  502  0.26714334353E+02 -0.18999110295E+02 -0.19511813766E+02  0.38148823421E+02  0.00000000000E+00 0.  1.
</event>
<event>
 4    1  0.5847355E+003  0.3504850E+02  0.7546771E-02  0.1380223E+00
          2   -1    0    0  501    0  0.00000000000E+00  0.00000000000E+00  0.22425684037E+02  0.22425684037E+02  0.00000000000E+00 0.  1.
         -2   -1    0    0    0  501 -0.00000000000E+00 -0.00000000000E+00 -0.39221959686E+03  0.39221959686E+03  0.00000000000E+00 0. -1.
          2    1    1    2  502    0 -0.44853681993E+01  0.34760302776E+02  0.74044479020E+01  0.35822102475E+02  0.00000000000E+00 0.  1.
         -2    1    1    2    0  502  0.44853681993E+01 -0.34760302776E+02 -0.37719836072E+03  0.37882317842E+03  0.00000000000E+00 0. -1.
</event>
<event>
 4    1  0.5847355E+003  0.2063521E+02  0.7546771E-02  0.1524537E+00
          2   -1    0    0  501    0  0.00000000000E+00  0.00000000000E+00  0.12411959894E+02  0.12411959894E+02  0.00000000000E+00 0.  1.
         -2   -1    0    0    0  501 -0.00000000000E+00 -0.00000000000E+00 -0.58608340589E+03  0.58608340589E+03  0.00000000000E+00 0. -1.
          2    1    1    2  502    0  0.64670899561E+01  0.19595624135E+02  0.35216222722E+01  0.20933551088E+02  0.00000000000E+00 0.  1.
         -2    1    1    2    0  502 -0.64670899561E+01 -0.19595624135E+02 -0.57719306827E+03  0.57756181469E+03  0.00000000000E+00 0. -1.
</event>
<event>
 4    1  0.5847355E+003  0.2084205E+02  0.7546771E-02  0.1521532E+00
          2   -1    0    0  501    0  0.00000000000E+00  0.00000000000E+00  0.39862099313E+03  0.39862099313E+03  0.00000000000E+00 0. -1.
         -2   -1    0    0    0  501 -0.00000000000E+00 -0.00000000000E+00 -0.63466921201E+02  0.63466921201E+02  0.00000000000E+00 0.  1.
          2    1    1    2  502    0 -0.20306136254E+02 -0.46959293637E+01  0.39662887952E+03  0.39717610577E+03  0.00000000000E+00 0. -1.
         -2    1    1    2    0  502  0.20306136254E+02  0.46959293637E+01 -0.61474807594E+02  0.64911808562E+02  0.00000000000E+00 0.  1.
</event>
<event>
 4    1  0.5847355E+003  0.2543402E+02  0.7546771E-02  0.1464006E+00
          2   -1    0    0  501    0  0.00000000000E+00  0.00000000000E+00  0.46948612151E+02  0.46948612151E+02  0.00000000000E+00 0. -1.
         -2   -1    0    0    0  501 -0.00000000000E+00 -0.00000000000E+00 -0.34963449491E+03  0.34963449491E+03  0.00000000000E+00 0. -1.
          2    1    1    2  502    0  0.11405026606E+02  0.22733557938E+02  0.43002126259E+02  0.49960706072E+02  0.00000000000E+00 0. -1.
         -2    1    1    2    0  502 -0.11405026606E+02 -0.22733557938E+02 -0.34568800901E+03  0.34662240099E+03  0.00000000000E+00 0. -1.
</event>
<event>
 4    1  0.5847355E+003  0.2562173E+02  0.7546771E-02  0.1461967E+00
          2   -1    0    0  501    0  0.00000000000E+00  0.00000000000E+00  0.10022575912E+03  0.10022575912E+03  0.00000000000E+00 0.  1.
         -2   -1    0    0    0  501 -0.00000000000E+00 -0.00000000000E+00 -0.39091355322E+02  0.39091355322E+02  0.00000000000E+00 0. -1.
          2    1    1    2  502    0 -0.20532780926E+02  0.15325722262E+02  0.94122581966E+02  0.97547595006E+02  0.00000000000E+00 0.  1.
         -2    1    1    2    0  502  0.20532780926E+02 -0.15325722262E+02 -0.32988178166E+02  0.41769519439E+02  0.00000000000E+00 0. -1.
</event>
<event>
 4    1  0.5847355E+003  0.3537763E+02  0.7546771E-02  0.1377928E+00
          2   -1    0    0  501    0  0.00000000000E+00  0.00000000000E+00  0.51292594400E+03  0.51292594400E+03  0.00000000000E+00 0. -1.
         -2   -1    0    0    0  501 -0.00000000000E+00 -0.00000000000E+00 -0.56765974641E+02  0.56765974641E+02  0.00000000000E+00 0. -1.
          2    1    1    2  502    0 -0.19805862801E+02  0.29313896266E+02  0.50673668199E+03  0.50797011879E+03  0.00000000000E+00 0. -1.
         -2    1    1    2    0  502  0.19805862801E+02 -0.29313896266E+02 -0.50576712631E+02  0.61721799845E+02  0.00000000000E+00 0. -1.
</event>
<event>
 4    1  0.5847355E+003  0.2993622E+02  0.7546771E-02  0.1420152E+00
          2   -1    0    0  501    0  0.00000000000E+00  0.00000000000E+00  0.12238093032E+02  0.12238093032E+02  0.00000000000E+00 0. -1.
         -2   -1    0    0    0  501 -0.00000000000E+00 -0.00000000000E+00 -0.12837155569E+03  0.12837155569E+03  0.00000000000E+00 0.  1.
          2    1    1    2  502    0 -0.18189137663E+02  0.23776725756E+02 -0.11988471586E+02  0.32247493973E+02  0.00000000000E+00 0. -1.
         -2    1    1    2    0  502  0.18189137663E+02 -0.23776725756E+02 -0.10414499107E+03  0.10836215475E+03  0.00000000000E+00 0.  1.
</event>
<event>
 4    1  0.5847355E+003  0.2103970E+02  0.7546771E-02  0.1518699E+00
          2   -1    0    0  501    0  0.00000000000E+00  0.00000000000E+00  0.99527821440E+02  0.99527821440E+02  0.00000000000E+00 0.  1.
         -2   -1    0    0    0  501 -0.00000000000E+00 -0.00000000000E+00 -0.85497746562E+02  0.85497746562E+02  0.00000000000E+00 0.  1.
          2    1    1    2  502    0 -0.18713073041E+02  0.96171663089E+01  0.97089374591E+02  0.99342919471E+02  0.00000000000E+00 0.  1.
         -2    1    1    2    0  502  0.18713073041E+02 -0.96171663089E+01 -0.83059299713E+02  0.85682648531E+02  0.00000000000E+00 0.  1.
</event>
<event>
 4    1  0.5847355E+003  0.3417773E+02  0.7546771E-02  0.1386438E+00
          2   -1    0    0  501    0  0.00000000000E+00  0.00000000000E+00  0.16925655898E+04  0.16925655898E+04  0.00000000000E+00 0. -1.
         -2   -1    0    0    0  501 -0.00000000000E+00 -0.00000000000E+00 -0.19164821598E+01  0.19164821598E+01  0.00000000000E+00 0.  1.
          2    1    1    2  502    0 -0.33768320100E+02 -0.52742424712E+01  0.15230587358E+04  0.15234421649E+04  0.00000000000E+00 0. -1.
         -2    1    1    2    0  502  0.33768320100E+02  0.52742424712E+01  0.16759037184E+03  0.17103990707E+03  0.00000000000E+00 0.  1.
</event>
<event>
 4    1  0.5847355E+003  0.2381443E+02  0.7546771E-02  0.1482517E+00
          2   -1    0    0  501    0  0.00000000000E+00  0.00000000000E+00  0.12188885609E+04  0.12188885609E+04  0.00000000000E+00 0. -1.
         -2   -1    0    0    0  501 -0.00000000000E+00 -0.00000000000E+00 -0.11252322603E+01  0.11252322603E+01  0.00000000000E+00 0. -1.
          2    1    1    2  502    0 -0.12365216303E+01 -0.23782310902E+02  0.10760454343E+04  0.10763089259E+04  0.00000000000E+00 0. -1.
         -2    1    1    2    0  502  0.12365216303E+01  0.23782310902E+02  0.14171789429E+03  0.14370486721E+03  0.00000000000E+00 0. -1.
</event>
<event>
 4    1  0.5847355E+003  0.2669631E+02  0.7546771E-02  0.1450683E+00
          2   -1    0    0  501    0  0.00000000000E+00  0.00000000000E+00  0.13923862046E+02  0.13923862046E+02  0.00000000000E+00 0.  1.
         -2   -1    0    0    0  501 -0.00000000000E+00 -0.00000000000E+00 -0.55437256657E+02  0.55437256657E+02  0.00000000000E+00 0.  1.
          2    1    1    2  502    0  0.20146751524E+02 -0.17515750775E+02 -0.11151770264E+02  0.28931904573E+02  0.00000000000E+00 0.  1.
         -2    1    1    2    0  502 -0.20146751524E+02  0.17515750775E+02 -0.30361624347E+02  0.40429214130E+02  0.00000000000E+00 0.  1.
</event>
<event>
 4    1  0.5847355E+003  0.2165055E+02  0.7546771E-02  0.1510176E+00
          2   -1    0    0  501    0  0.00000000000E+00  0.00000000000E+00  0.19973206598E+03  0.19973206598E+03  0.00000000000E+00 0. -1.
         -2   -1    0    0    0  501 -0.00000000000E+00 -0.00000000000E+00 -0.83230004858E+02  0.83230004858E+02  0.00000000000E+00 0.  1.
          2    1    1    2  502    0  0.18780850538E+02  0.10771533104E+02  0.19772309929E+03  0.19890492770E+03  0.00000000000E+00 0. -1.
         -2    1    1    2    0  502 -0.18780850538E+02 -0.10771533104E+02 -0.81221038163E+02  0.84057143138E+02  0.00000000000E+00 0.  1.
</event>
<event>
 4    1  0.5847355E+003  0.2259983E+02  0.7546771E-02  0.1497585E+00
          2   -1    0    0  501    0  0.00000000000E+00  0.00000000000E+00  0.32558012226E+02  0.32558012226E+02  0.00000000000E+00 0. -1.
         -2   -1    0    0    0  501 -0.00000000000E+00 -0.00000000000E+00 -0.16711611816E+03  0.16711611816E+03  0.00000000000E+00 0.  1.
          2    1    1    2  502    0 -0.20078861728E+02 -0.10372630599E+02  0.27756627647E+02  0.35793610215E+02  0.00000000000E+00 0. -1.
         -2    1    1    2    0  502  0.20078861728E+02  0.10372630599E+02 -0.16231473358E+03  0.16388052017E+03  0.00000000000E+00 0.  1.
</event>
<event>
 4    1  0.5847355E+003  0.6641447E+02  0.7546771E-02  0.1239469E+00
          2   -1    0    0  501    0  0.00000000000E+00  0.00000000000E+00  0.12291412289E+04  0.12291412289E+04  0.00000000000E+00 0.  1.
         -2   -1    0    0    0  501 -0.00000000000E+00 -0.00000000000E+00 -0.45840177673E+01  0.45840177673E+01  0.00000000000E+00 0. -1.
          2    1    1    2  502    0  0.53312210869E+02  0.39606699156E+02  0.89973399002E+03  0.90218187481E+03  0.00000000000E+00 0.  1.
         -2    1    1    2    0  502 -0.53312210869E+02 -0.39606699156E+02  0.32482322112E+03  0.33154337186E+03  0.00000000000E+00 0. -1.
</event>
<event>
 4    1  0.5847355E+003  0.2380280E+02  0.7546771E-02  0.1482656E+00
          2   -1    0    0  501    0  0.00000000000E+00  0.00000000000E+00  0.41858070385E+03  0.41858070385E+03  0.00000000000E+00 0.  1.
         -2   -1    0    0    0  501 -0.00000000000E+00 -0.00000000000E+00 -0.22984823908E+01  0.22984823908E+01  0.00000000000E+00 0.  1.
          2    1    1    2  502    0 -0.21616733038E+02 -0.99644385734E+01  0.34307015213E+03  0.34389490032E+03  0.00000000000E+00 0.  1.
         -2    1    1    2    0  502  0.21616733038E+02  0.99644385734E+01  0.73212069325E+02  0.76984285917E+02  0.00000000000E+00 0.  1.
</event>
<event>
 4    1  0.5847355E+003  0.2966626E+02  0.7546771E-02  0.1422519E+00
          2   -1    0    0  501    0  0.00000000000E+00  0.00000000000E+00  0.54599276697E+01  0.54599276697E+01  0.00000000000E+00 0. -1.
         -2   -1    0    0    0  501 -0.00000000000E+00 -0.00000000000E+00 -0.82968242262E+03  0.82968242262E+03  0.00000000000E+00 0.  1.
          2    1    1    2  502    0  0.28228706342E+02 -0.91228881553E+01 -0.37291261913E+02  0.47652126554E+02  0.00000000000E+00 0. -1.
         -2    1    1    2    0  502 -0.28228706342E+02  0.91228881553E+01 -0.78693123303E+03  0.78749022373E+03  0.00000000000E+00 0.  1.
</event>
<event>
 4    1  0.5847355E+003  0.2399669E+02  0.7546771E-02  0.1480348E+00
          2   -1    0    0  501    0  0.00000000000E+00  0.00000000000E+00  0.14837709052E+04  0.14837709052E+04  0.00000000000E+00 0. -1.
         -2   -1    0    0    0  501 -0.00000000000E+00 -0.00000000000E+00 -0.65967472674E+00  0.65967472674E+00  0.00000000000E+00 0.  1.
          2    1    1    2  502    0  0.44949598136E+01  0.23571942848E+02  0.12177839359E+04  0.12180203429E+04  0.00000000000E+00 0. -1.
         -2    1    1    2    0  502 -0.44949598136E+01 -0.23571942848E+02  0.26532729457E+03  0.26641023703E+03  0.00000000000E+00 0.  1.
</event>
<event>
 4    1  0.5847355E+003  0.2024760E+02  0.7546771E-02  0.1530284E+00
          2   -1    0    0  501    0  0.00000000000E+00  0.00000000000E+00  0.74192034870E+03  0.74192034870E+03  0.00000000000E+00 0. -1.
         -2   -1    0    0    0  501 -0.00000000000E+00 -0.00000000000E+00 -0.60379743869E+00  0.60379743869E+00  0.00000000000E+00 0.  1.
          2    1    1    2  502    0 -0.65068304361E+01  0.19173589858E+02  0.47879474828E+03  0.47922267932E+03  0.00000000000E+00 0. -1.
         -2    1    1    2    0  502  0.65068304361E+01 -0.19173589858E+02  0.26252180298E+03  0.26330146682E+03  0.00000000000E+00 0.  1.
</event>
<event>
 4    1  0.5847355E+003  0.4014572E+02  0.7546771E-02  0.1347634E+00
          2   -1    0    0  501    0  0.00000000000E+00  0.00000000000E+00  0.81816317297E+03  0.81816317297E+03  0.00000000000E+00 0. -1.
         -2   -1    0    0    0  501 -0.00000000000E+00 -0.00000000000E+00 -0.40518594054E+01  0.40518594054E+01  0.00000000000E+00 0. -1.
          2    1    1    2  502    0 -0.37999684067E+02  0.12950018150E+02  0.70174674162E+03  0.70289413735E+03  0.00000000000E+00 0. -1.
         -2    1    1    2    0  502  0.37999684067E+02 -0.12950018150E+02  0.11236457195E+03  0.11932089502E+03  0.00000000000E+00 0. -1.
</event>
<event>
 4    1  0.5847355E+003  0.3398403E+02  0.7546771E-02  0.1387850E+00
          2   -1    0    0  501    0  0.00000000000E+00  0.00000000000E+00  0.48846668589E+03  0.48846668589E+03  0.00000000000E+00 0. -1.
         -2   -1    0    0    0  501 -0.00000000000E+00 -0.00000000000E+00 -0.95782171151E+02  0.95782171151E+02  0.00000000000E+00 0.  1.
          2    1    1    2  502    0 -0.19529002811E+02  0.27812448446E+02  0.48483863588E+03  0.48602820605E+03  0.00000000000E+00 0. -1.
         -2    1    1    2    0  502  0.19529002811E+02 -0.27812448446E+02 -0.92154121134E+02  0.98220650992E+02  0.00000000000E+00 0.  1.
</event>
<event>
 4    1  0.5847355E+003  0.3325122E+02  0.7546771E-02  0.1393293E+00
          2   -1    0    0  501    0  0.00000000000E+00  0.00000000000E+00  0.11810406198E+04  0.11810406198E+04  0.00000000000E+00 0. -1.
         -2   -1    0    0    0  501 -0.00000000000E+00 -0.00000000000E+00 -0.98870153352E+00  0.98870153352E+00  0.00000000000E+00 0. -1.
          2    1    1    2  502    0  0.20166527890E+01 -0.33190010719E+02  0.72626906206E+03  0.72702984410E+03  0.00000000000E+00 0. -1.
         -2    1    1    2    0  502 -0.20166527890E+01  0.33190010719E+02  0.45378285624E+03  0.45499947727E+03  0.00000000000E+00 0. -1.
</event>
<event>
 4    1  0.5847355E+003  0.2655059E+02  0.7546771E-02  0.1452176E+00
          2   -1    0    0  501    0  0.00000000000E+00  0.00000000000E+00  0.13429044906E+04  0.13429044906E+04  0.00000000000E+00 0. -1.
         -2   -1    0    0    0  501 -0.00000000000E+00 -0.00000000000E+00 -0.56249399972E+00  0.56249399972E+00  0.00000000000E+00 0. -1.
          2    1    1    2  502    0 -0.82386214374E+01 -0.25240024091E+02  0.84475580990E+03  0.84517294802E+03  0.00000000000E+00 0. -1.
         -2    1    1    2    0  502  0.82386214374E+01  0.25240024091E+02  0.49758618666E+03  0.49829403655E+03  0.00000000000E+00 0. -1.
</event>
<event>
 4    1  0.5847355E+003  0.2264837E+02  0.7546771E-02  0.1496961E+00
          2   -1    0    0  501    0  0.00000000000E+00  0.00000000000E+00  0.72088262547E+03  0.72088262547E+03  0.00000000000E+00 0.  1.
         -2   -1    0    0    0  501 -0.00000000000E+00 -0.00000000000E+00 -0.15131048118E+01  0.15131048118E+01  0.00000000000E+00 0. -1.
          2    1    1    2  502    0  0.18271696960E+02 -0.13382584241E+02  0.62257569671E+03  0.62298751721E+03  0.00000000000E+00 0.  1.
         -2    1    1    2    0  502 -0.18271696960E+02  0.13382584241E+02  0.96793823948E+02  0.99408213067E+02  0.00000000000E+00 0. -1.
</event>
<event>
 4    1  0.5847355E+003  0.3598558E+02  0.7546771E-02  0.1373764E+00
          2   -1    0    0  501    0  0.00000000000E+00  0.00000000000E+00  0.17583242204E+04  0.17583242204E+04  0.00000000000E+00 0.  1.
         -2   -1    0    0    0  501 -0.00000000000E+00 -0.00000000000E+00 -0.18633701208E+03  0.18633701208E+03  0.00000000000E+00 0.  1.
          2    1    1    2  502    0 -0.34613021639E+02  0.98438047880E+01  0.17564008072E+04  0.17567694093E+04  0.00000000000E+00 0.  1.
         -2    1    1    2    0  502  0.34613021639E+02 -0.98438047880E+01 -0.18441359891E+03  0.18789182319E+03  0.00000000000E+00 0.  1.
</event>
<event>
 4    1  0.5847355E+003  0.2121726E+02  0.7546771E-02  0.1516185E+00
          2   -1    0    0  501    0  0.00000000000E+00  0.00000000000E+00  0.72849183494E+03  0.72849183494E+03  0.00000000000E+00 0. -1.
         -2   -1    0    0    0  501 -0.00000000000E+00 -0.00000000000E+00 -0.21303311248E+01  0.21303311248E+01  0.00000000000E+00 0.  1.
          2    1    1    2  502    0 -0.89446149621E+01  0.19239701129E+02  0.67098157506E+03  0.67131694922E+03  0.00000000000E+00 0. -1.
         -2    1    1    2    0  502  0.89446149621E+01 -0.19239701129E+02  0.55379928750E+02  0.59305216842E+02  0.00000000000E+00 0.  1.
</event>
<event>
 4    1  0.5847355E+003  0.3094249E+02  0.7546771E-02  0.1411579E+00
          2   -1    0    0  501    0  0.00000000000E+00  0.00000000000E+00  0.12834712357E+01  0.12834712357E+01  0.00000000000E+00 0. -1.
         -2   -1    0    0    0  501 -0.00000000000E+00 -0.00000000000E+00 -0.75493910346E+03  0.75493910346E+03  0.00000000000E+00 0.  1.
          2    1    1    2  502    0  0.30901379297E+02 -0.15942408840E+01 -0.41803079338E+03  0.41917440411E+03  0.00000000000E+00 0. -1.
         -2    1    1    2    0  502 -0.30901379297E+02  0.15942408840E+01 -0.33562483884E+03  0.33704817058E+03  0.00000000000E+00 0.  1.
</event>
<event>
 4    1  0.5847355E+003  0.2132013E+02  0.7546771E-02  0.1514743E+00
          2   -1    0    0  501    0  0.00000000000E+00  0.00000000000E+00  0.68575825948E+01  0.68575825948E+01  0.00000000000E+00 0. -1.
         -2   -1    0    0    0  501 -0.00000000000E+00 -0.00000000000E+00 -0.15902099026E+03  0.15902099026E+03  0.00000000000E+00 0. -1.
          2    1    1    2  502    0  0.20922077871E+02 -0.41005653394E+01 -0.12744399565E+02  0.24838834490E+02  0.00000000000E+00 0. -1.
         -2    1    1    2    0  502 -0.20922077871E+02  0.41005653394E+01 -0.13941900810E+03  0.14103973837E+03  0.00000000000E+00 0. -1.
</event>
<event>
 4    1  0.5847355E+003  0.2838973E+02  0.7546771E-02  0.1434126E+00
          2   -1    0    0  501    0  0.00000000000E+00  0.00000000000E+00  0.62589209979E+03  0.62589209979E+03  0.00000000000E+00 0.  1.
         -2   -1    0    0    0  501 -0.00000000000E+00 -0.00000000000E+00 -0.17219608785E+01  0.17219608785E+01  0.00000000000E+00 0.  1.
          2    1    1    2  502    0 -0.20704332246E+02 -0.19424399966E+02  0.46966977105E+03  0.47052701360E+03  0.00000000000E+00 0.  1.
         -2    1    1    2    0  502  0.20704332246E+02  0.19424399966E+02  0.15450036786E+03  0.15708704707E+03  0.00000000000E+00 0.  1.
</event>
<event>
 4    1  0.5847355E+003  0.2387302E+02  0.7546771E-02  0.1481817E+00
          2   -1    0    0  501    0  0.00000000000E+00  0.00000000000E+00  0.32776997241E+02  0.32776997241E+02  0.00000000000E+00 0.  1.
         -2   -1    0    0    0  501 -0.00000000000E+00 -0.00000000000E+00 -0.55095663028E+02  0.55095663028E+02  0.00000000000E+00 0. -1.
          2    1    1    2  502    0 -0.18403787469E+02 -0.15205978182E+02  0.25188691027E+02  0.34704341534E+02  0.00000000000E+00 0.  1.
         -2    1    1    2    0  502  0.18403787469E+02  0.15205978182E+02 -0.47507356814E+02  0.53168318735E+02  0.00000000000E+00 0. -1.
</event>
<event>
 4    1  0.5847355E+003  0.2135458E+02  0.7546771E-02  0.1514262E+00
          2   -1    0    0  501    0  0.00000000000E+00  0.00000000000E+00  0.21305461909E+03  0.21305461909E+03  0.00000000000E+00 0.  1.
         -2   -1    0    0    0  501 -0.00000000000E+00 -0.00000000000E+00 -0.29821456052E+02  0.29821456052E+02  0.00000000000E+00 0. -1.
          2    1    1    2  502    0 -0.21182568107E+02 -0.27049763390E+01  0.20861548556E+03  0.20970560055E+03  0.00000000000E+00 0.  1.
         -2    1    1    2    0  502  0.21182568107E+02  0.27049763390E+01 -0.25382322514E+02  0.33170474595E+02  0.00000000000E+00 0. -1.
</event>
<event>
 4    1  0.5847355E+003  0.2024357E+02  0.7546771E-02  0.1530344E+00
          2   -1    0    0  501    0  0.00000000000E+00  0.00000000000E+00  0.23258388111E+03  0.23258388111E+03  0.00000000000E+00 0. -1.
         -2   -1    0    0    0  501 -0.00000000000E+00 -0.00000000000E+00 -0.16686101555E+03  0.16686101555E+03  0.00000000000E+00 0. -1.
          2    1    1    2  502    0  0.10772834383E+02 -0.17139083622E+02  0.23152660684E+03  0.23240992196E+03  0.00000000000E+00 0. -1.
         -2    1    1    2    0  502 -0.10772834383E+02  0.17139083622E+02 -0.16580374129E+03  0.16703497470E+03  0.00000000000E+00 0. -1.
</event>
<event>
 4    1  0.5847355E+003  0.3279604E+02  0.7546771E-02  0.1396757E+00
          2   -1    0    0  501    0  0.00000000000E+00  0.00000000000E+00  0.13469792601E+04  0.13469792601E+04  0.00000000000E+00 0. -1.
         -2   -1    0    0    0  501 -0.00000000000E+00 -0.00000000000E+00 -0.13004647457E+02  0.13004647457E+02  0.00000000000E+00 0.  1.
          2    1    1    2  502    0 -0.29766524541E+02 -0.13767142997E+02  0.13257720910E+04  0.13261776719E+04  0.00000000000E+00 0. -1.
         -2    1    1    2    0  502  0.29766524541E+02  0.13767142997E+02  0.82025216931E+01  0.33806235692E+02  0.00000000000E+00 0.  1.
</event>
<event>
 4    1  0.5847355E+003  0.2480315E+02  0.7546771E-02  0.1471018E+00
          2   -1    0    0  501    0  0.00000000000E+00  0.00000000000E+00  0.10963393777E+04  0.10963393777E+04  0.00000000000E+00 0.  1.
         -2   -1    0    0    0  501 -0.00000000000E+00 -0.00000000000E+00 -0.13082182601E+01  0.13082182601E+01  0.00000000000E+00 0. -1.
          2    1    1    2  502    0  0.24166405058E+02  0.55840086030E+01  0.96225644879E+03  0.96257605909E+03  0.00000000000E+00 0.  1.
         -2    1    1    2    0  502 -0.24166405058E+02 -0.55840086030E+01  0.13277471061E+03  0.13507153684E+03  0.00000000000E+00 0. -1.
</event>
<event>
 4    1  0.5847355E+003  0.5827669E+02  0.7546771E-02  0.1265803E+00
          2   -1    0    0  501    0  0.00000000000E+00  0.00000000000E+00  0.99074729445E+03  0.99074729445E+03  0.00000000000E+00 0.  1.
         -2   -1    0    0    0  501 -0.00000000000E+00 -0.00000000000E+00 -0.71424453778E+01  0.71424453778E+01  0.00000000000E+00 0. -1.
          2    1    1    2  502    0  0.36949728374E+02  0.45065396654E+02  0.85162013559E+03  0.85361175469E+03  0.00000000000E+00 0.  1.
         -2    1    1    2    0  502 -0.36949728374E+02 -0.45065396654E+02  0.13198471348E+03  0.14427798514E+03  0.00000000000E+00 0. -1.
</event>
<event>
 4    1  0.5847355E+003  0.2843512E+02  0.7546771E-02  0.1433701E+00
          2   -1    0    0  501    0  0.00000000000E+00  0.00000000000E+00  0.26418587935E+03  0.26418587935E+03  0.00000000000E+00 0. -1.
         -2   -1    0    0    0  501 -0.00000000000E+00 -0.00000000000E+00 -0.70053532436E+01  0.70053532436E+01  0.00000000000E+00 0. -1.
          2    1    1    2  502    0 -0.26083092214E+02  0.11323792617E+02  0.23034225269E+03  0.23209073517E+03  0.00000000000E+00 0. -1.
         -2    1    1    2    0  502  0.26083092214E+02 -0.11323792617E+02  0.26838273419E+02  0.39100497424E+02  0.00000000000E+00 0. -1.
</event>
<event>
 4    1  0.5847355E+003  0.2618584E+02  0.7546771E-02  0.1455962E+00
          2   -1    0    0  501    0  0.00000000000E+00  0.00000000000E+00  0.74678368216E+03  0.74678368216E+03  0.00000000000E+00 0. -1.
         -2   -1    0    0    0  501 -0.00000000000E+00 -0.00000000000E+00 -0.11497997043E+02  0.11497997043E+02  0.00000000000E+00 0.  1.
          2    1    1    2  502    0  0.22649986030E+02  0.13140630211E+02  0.73133011685E+03  0.73179876868E+03  0.00000000000E+00 0. -1.
         -2    1    1    2    0  502 -0.22649986030E+02 -0.13140630211E+02  0.39555682671E+01  0.26482910524E+02  0.00000000000E+00 0.  1.
</event>
<event>
 4    1  0.5847355E+003  0.2369198E+02  0.7546771E-02  0.1483987E+00
          2   -1    0    0  501    0  0.00000000000E+00  0.00000000000E+00  0.29971558097E+01  0.29971558097E+01  0.00000000000E+00 0. -1.
         -2   -1    0    0    0  501 -0.00000000000E+00 -0.00000000000E+00 -0.35194787908E+03  0.35194787908E+03  0.00000000000E+00 0.  1.
          2    1    1    2  502    0 -0.23632085614E+02  0.16836372222E+01 -0.53081937110E+02  0.58129185029E+02  0.00000000000E+00 0. -1.
         -2    1    1    2    0  502  0.23632085614E+02 -0.16836372222E+01 -0.29586878616E+03  0.29681584986E+03  0.00000000000E+00 0.  1.
</event>
<event>
 4    1  0.5847355E+003  0.2207685E+02  0.7546771E-02  0.1504427E+00
          2   -1    0    0  501    0  0.00000000000E+00  0.00000000000E+00  0.10361904815E+04  0.10361904815E+04  0.00000000000E+00 0. -1.
         -2   -1    0    0    0  501 -0.00000000000E+00 -0.00000000000E+00 -0.47079454830E+00  0.47079454830E+00  0.00000000000E+00 0.  1.
          2    1    1    2  502    0  0.21052695479E+02  0.66461572827E+01  0.53352245210E+03  0.53397902046E+03  0.00000000000E+00 0.  1.
         -2    1    1    2    0  502 -0.21052695479E+02 -0.66461572827E+01  0.50219723488E+03  0.50268225562E+03  0.00000000000E+00 0. -1.
</event>
<event>
 4    1  0.5847355E+003  0.2675150E+02  0.7546771E-02  0.1450120E+00
          2   -1    0    0  501    0  0.00000000000E+00  0.00000000000E+00  0.14775872897E+03  0.14775872897E+03  0.00000000000E+00 0.  1.
         -2   -1    0    0    0  501 -0.00000000000E+00 -0.00000000000E+00 -0.93883055111E+01  0.93883055111E+01  0.00000000000E+00 0.  1.
          2    1    1    2  502    0 -0.22989125024E+02  0.13680020772E+02  0.12385518090E+03  0.12671128077E+03  0.00000000000E+00 0.  1.
         -2    1    1    2    0  502  0.22989125024E+02 -0.13680020772E+02  0.14515242560E+02  0.30435753716E+02  0.00000000000E+00 0.  1.
</event>
<event>
 4    1  0.5847355E+003  0.4511180E+02  0.7546771E-02  0.1320881E+00
          2   -1    0    0  501    0  0.00000000000E+00  0.00000000000E+00  0.25998041996E+03  0.25998041996E+03  0.00000000000E+00 0.  1.
         -2   -1    0    0    0  501 -0.00000000000E+00 -0.00000000000E+00 -0.12969149373E+02  0.12969149373E+02  0.00000000000E+00 0.  1.
          2    1    1    2  502    0 -0.44572173097E+02 -0.69567414561E+01  0.20943373510E+03  0.21423716826E+03  0.00000000000E+00 0.  1.
         -2    1    1    2    0  502  0.44572173097E+02  0.69567414561E+01  0.37577535483E+02  0.58712401069E+02  0.00000000000E+00 0.  1.
</event>
<event>
 4    1  0.5847355E+003  0.4854483E+02  0.7546771E-02  0.1304608E+00
          2   -1    0    0  501    0  0.00000000000E+00  0.00000000000E+00  0.92694127761E+02  0.92694127761E+02  0.00000000000E+00 0. -1.
         -2   -1    0    0    0  501 -0.00000000000E+00 -0.00000000000E+00 -0.25881091412E+02  0.25881091412E+02  0.00000000000E+00 0. -1.
          2    1    1    2  502    0  0.30742357503E+02  0.37570035865E+02  0.41290720108E+02  0.63730084786E+02  0.00000000000E+00 0. -1.
         -2    1    1    2    0  502 -0.30742357503E+02 -0.37570035865E+02  0.25522316241E+02  0.54845134388E+02  0.00000000000E+00 0. -1.
</event>
<event>
 4    1  0.5847355E+003  0.2286584E+02  0.7546771E-02  0.1494190E+00
          2   -1    0    0  501    0  0.00000000000E+00  0.00000000000E+00  0.44606100485E+03  0.44606100485E+03  0.00000000000E+00 0. -1.
         -2   -1    0    0    0  501 -0.00000000000E+00 -0.00000000000E+00 -0.67627840915E+01  0.67627840915E+01  0.00000000000E+00 0. -1.
          2    1    1    2  502    0  0.61407640043E+01  0.22025835581E+02  0.42550692558E+03  0.42612086329E+03  0.00000000000E+00 0. -1.
         -2    1    1    2    0  502 -0.61407640043E+01 -0.22025835581E+02  0.13791295180E+02  0.26702925652E+02  0.00000000000E+00 0. -1.
</event>
<event>
 4    1  0.5847355E+003  0.2292708E+02  0.7546771E-02  0.1493416E+00
          2   -1    0    0  501    0  0.00000000000E+00  0.00000000000E+00  0.33187146268E+03  0.33187146268E+03  0.00000000000E+00 0.  1.
         -2   -1    0    0    0  501 -0.00000000000E+00 -0.00000000000E+00 -0.25879962004E+01  0.25879962004E+01  0.00000000000E+00 0. -1.
          2    1    1    2  502    0  0.83629963605E+01  0.21347398650E+02  0.26880614820E+03  0.26978212774E+03  0.00000000000E+00 0.  1.
         -2    1    1    2    0  502 -0.83629963605E+01 -0.21347398650E+02  0.60477318278E+02  0.64677331140E+02  0.00000000000E+00 0. -1.
</event>
<event>
 4    1  0.5847355E+003  0.2108138E+02  0.7546771E-02  0.1518106E+00
          2   -1    0    0  501    0  0.00000000000E+00  0.00000000000E+00  0.10622378228E+04  0.10622378228E+04  0.00000000000E+00 0.  1.
         -2   -1    0    0    0  501 -0.00000000000E+00 -0.00000000000E+00 -0.13746028820E+02  0.13746028820E+02  0.00000000000E+00 0. -1.
          2    1    1    2  502    0 -0.14659804305E+02  0.15149737642E+02  0.10539871824E+04  0.10541979914E+04  0.00000000000E+00 0.  1.
         -2    1    1    2    0  502  0.14659804305E+02 -0.15149737642E+02 -0.54953883953E+01  0.21785860243E+02  0.00000000000E+00 0. -1.
</event>
<event>
 4    1  0.5847355E+003  0.3235535E+02  0.7546771E-02  0.1400174E+00
          2   -1    0    0  501    0  0.00000000000E+00  0.00000000000E+00  0.11126033498E+03  0.11126033498E+03  0.00000000000E+00 0.  1.
         -2   -1    0    0    0  501 -0.00000000000E+00 -0.00000000000E+00 -0.42229828917E+02  0.42229828917E+02  0.00000000000E+00 0.  1.
          2    1    1    2  502    0  0.32145302285E+02 -0.36807639451E+01  0.10217252417E+03  0.10717319243E+03  0.00000000000E+00 0.  1.
         -2    1    1    2    0  502 -0.32145302285E+02  0.36807639451E+01 -0.33142018099E+02  0.46316971467E+02  0.00000000000E+00 0.  1.
</event>
<event>
 4    1  0.5847355E+003  0.3133715E+02  0.7546771E-02  0.1408322E+00
          2   -1    0    0  501    0  0.00000000000E+00  0.00000000000E+00  0.57035097214E+00  0.57035097214E+00  0.00000000000E+00 0. -1.
         -2   -1    0    0    0  501 -0.00000000000E+00 -0.00000000000E+00 -0.17695254179E+04  0.17695254179E+04  0.00000000000E+00 0. -1.
          2    1    1    2  502    0  0.20718011719E+02 -0.23511294151E+02 -0.73909252008E+03  0.73975656144E+03  0.00000000000E+00 0. -1.
         -2    1    1    2    0  502 -0.20718011719E+02  0.23511294151E+02 -0.10298625469E+04  0.10303392074E+04  0.00000000000E+00 0. -1.
</event>
<event>
 4    1  0.5847355E+003  0.4508450E+02  0.7546771E-02  0.1321017E+00
          2   -1    0    0  501    0  0.00000000000E+00  0.00000000000E+00  0.37294265774E+03  0.37294265774E+03  0.00000000000E+00 0. -1.
         -2   -1    0    0    0  501 -0.00000000000E+00 -0.00000000000E+00 -0.11709444359E+02  0.11709444359E+02  0.00000000000E+00 0. -1.
          2    1    1    2  502    0 -0.33209152678E+02 -0.30492032839E+02  0.32123137688E+03  0.32437973022E+03  0.00000000000E+00 0. -1.
         -2    1    1    2    0  502  0.33209152678E+02  0.30492032839E+02  0.40001836508E+02  0.60272371882E+02  0.00000000000E+00 0. -1.
</event>
<event>
 4    1  0.5847355E+003  0.3025187E+02  0.7546771E-02  0.1417420E+00
          2   -1    0    0  501    0  0.00000000000E+00  0.00000000000E+00  0.18815479128E+03  0.18815479128E+03  0.00000000000E+00 0.  1.
         -2   -1    0    0    0  501 -0.00000000000E+00 -0.00000000000E+00 -0.47031138779E+02  0.47031138779E+02  0.00000000000E+00 0.  1.
          2    1    1    2  502    0 -0.20219609509E+02 -0.22502073075E+02  0.18190815614E+03  0.18440648896E+03  0.00000000000E+00 0.  1.
         -2    1    1    2    0  502  0.20219609509E+02  0.22502073075E+02 -0.40784503636E+02  0.50779441098E+02  0.00000000000E+00 0.  1.
</event>
<event>
 4    1  0.5847355E+003  0.2745864E+02  0.7546771E-02  0.1443055E+00
          2   -1    0    0  501    0  0.00000000000E+00  0.00000000000E+00  0.13097895720E+04  0.13097895720E+04  0.00000000000E+00 0. -1.
         -2   -1    0    0    0  501 -0.00000000000E+00 -0.00000000000E+00 -0.65142163478E+00  0.65142163478E+00  0.00000000000E+00 0. -1.
          2    1    1    2  502    0 -0.20247114648E+01 -0.27383892089E+02  0.87803796741E+03  0.87846721578E+03  0.00000000000E+00 0. -1.
         -2    1    1    2    0  502  0.20247114648E+01  0.27383892089E+02  0.43110018300E+03  0.43197377789E+03  0.00000000000E+00 0. -1.
</event>
<event>
 4    1  0.5847355E+003  0.2819555E+02  0.7546771E-02  0.1435955E+00
          2   -1    0    0  501    0  0.00000000000E+00  0.00000000000E+00  0.27969788584E+03  0.27969788584E+03  0.00000000000E+00 0.  1.
         -2   -1    0    0    0  501 -0.00000000000E+00 -0.00000000000E+00 -0.15148535152E+02  0.15148535152E+02  0.00000000000E+00 0.  1.
          2    1    1    2  502    0 -0.17444112277E+02  0.22151571143E+02  0.26514956190E+03  0.26664448116E+03  0.00000000000E+00 0.  1.
         -2    1    1    2    0  502  0.17444112277E+02 -0.22151571143E+02 -0.60021120533E+00  0.28201939839E+02  0.00000000000E+00 0.  1.
</event>
<event>
 4    1  0.5847355E+003  0.4752234E+02  0.7546771E-02  0.1309287E+00
          2   -1    0    0  501    0  0.00000000000E+00  0.00000000000E+00  0.50502785371E+02  0.50502785371E+02  0.00000000000E+00 0. -1.
         -2   -1    0    0    0  501 -0.00000000000E+00 -0.00000000000E+00 -0.13841596179E+03  0.13841596179E+03  0.00000000000E+00 0. -1.
          2    1    1    2  502    0 -0.21061230880E+02  0.42600442717E+02  0.33760679264E+02  0.58293710041E+02  0.00000000000E+00 0. -1.
         -2    1    1    2    0  502  0.21061230880E+02 -0.42600442717E+02 -0.12167385568E+03  0.13062503712E+03  0.00000000000E+00 0. -1.
</event>
<event>
 4    1  0.5847355E+003  0.2758748E+02  0.7546771E-02  0.1441794E+00
          2   -1    0    0  501    0  0.00000000000E+00  0.00000000000E+00  0.41930255684E+03  0.41930255684E+03  0.00000000000E+00 0.  1.
         -2   -1    0    0    0  501 -0.00000000000E+00 -0.00000000000E+00 -0.33311118429E+01  0.33311118429E+01  0.00000000000E+00 0.  1.
          2    1    1    2  502    0 -0.27579747818E+02 -0.65317035981E+00  0.35054423653E+03  0.35162811447E+03  0.00000000000E+00 0.  1.
         -2    1    1    2    0  502  0.27579747818E+02  0.65317035981E+00  0.65427208461E+02  0.71005554207E+02  0.00000000000E+00 0.  1.
</event>
<event>
 4    1  0.5847355E+003  0.2179426E+02  0.7546771E-02  0.1508220E+00
          2   -1    0    0  501    0  0.00000000000E+00  0.00000000000E+00  0.13003548311E+04  0.13003548311E+04  0.00000000000E+00 0. -1.
         -2   -1    0    0    0  501 -0.00000000000E+00 -0.00000000000E+00 -0.45774818631E+00  0.45774818631E+00  0.00000000000E+00 0.  1.
          2    1    1    2  502    0 -0.20852576673E+02 -0.63371855674E+01  0.94227918071E+03  0.94253119008E+03  0.00000000000E+00 0. -1.
         -2    1    1    2    0  502  0.20852576673E+02  0.63371855674E+01  0.35761790223E+03  0.35828138923E+03  0.00000000000E+00 0.  1.
</event>
<event>
 4    1  0.5847355E+003  0.3374232E+02  0.7546771E-02  0.1389627E+00
          2   -1    0    0  501    0  0.00000000000E+00  0.00000000000E+00  0.20548195634E+03  0.20548195634E+03  0.00000000000E+00 0.  1.
         -2   -1    0    0    0  501 -0.00000000000E+00 -0.00000000000E+00 -0.20138762611E+02  0.20138762611E+02  0.00000000000E+00 0.  1.
          2    1    1    2  502    0 -0.12157187831E+01  0.33720411038E+02  0.18871731660E+03  0.19171011887E+03  0.00000000000E+00 0.  1.
         -2    1    1    2    0  502  0.12157187831E+01 -0.33720411038E+02 -0.33741228688E+01  0.33910600081E+02  0.00000000000E+00 0.  1.
</event>
<event>
 4    1  0.5847355E+003  0.2830180E+02  0.7546771E-02  0.1434952E+00
          2   -1    0    0  501    0  0.00000000000E+00  0.00000000000E+00  0.13912486778E+01  0.13912486778E+01  0.00000000000E+00 0. -1.
         -2   -1    0    0    0  501 -0.00000000000E+00 -0.00000000000E+00 -0.62459208691E+03  0.62459208691E+03  0.00000000000E+00 0.  1.
          2    1    1    2  502    0 -0.23002914629E+02  0.16488090979E+02 -0.39913833198E+03  0.40014047443E+03  0.00000000000E+00 0. -1.
         -2    1    1    2    0  502  0.23002914629E+02 -0.16488090979E+02 -0.22406250625E+03  0.22584286115E+03  0.00000000000E+00 0.  1.
</event>
<event>
 4    1  0.5847355E+003  0.7445876E+02  0.7546771E-02  0.1217331E+00
          2   -1    0    0  501    0  0.00000000000E+00  0.00000000000E+00  0.43098566996E+02  0.43098566996E+02  0.00000000000E+00 0.  1.
         -2   -1    0    0    0  501 -0.00000000000E+00 -0.00000000000E+00 -0.13672739860E+03  0.13672739860E+03  0.00000000000E+00 0.  1.
          2    1    1    2  502    0 -0.73656132033E+02  0.10903259451E+02 -0.24944008880E+02  0.78525858363E+02  0.00000000000E+00 0.  1.
         -2    1    1    2    0  502  0.73656132033E+02 -0.10903259451E+02 -0.68684822722E+02  0.10130010723E+03  0.00000000000E+00 0.  1.
</event>
<event>
 4    1  0.5847355E+003  0.2655668E+02  0.7546771E-02  0.1452113E+00
          2   -1    0    0  501    0  0.00000000000E+00  0.00000000000E+00  0.31490748542E+03  0.31490748542E+03  0.00000000000E+00 0. -1.
         -2   -1    0    0    0  501 -0.00000000000E+00 -0.00000000000E+00 -0.61648028110E+01  0.61648028110E+01  0.00000000000E+00 0. -1.
          2    1    1    2  502    0  0.25416649857E+02 -0.76974727733E+01  0.28247041064E+03  0.28371603773E+03  0.00000000000E+00 0. -1.
         -2    1    1    2    0  502 -0.25416649857E+02  0.76974727733E+01  0.26272271962E+02  0.37356250495E+02  0.00000000000E+00 0. -1.
</event>
<event>
 4    1  0.5847355E+003  0.2500257E+02  0.7546771E-02  0.1468775E+00
          2   -1    0    0  501    0  0.00000000000E+00  0.00000000000E+00  0.63958933390E+01  0.63958933390E+01  0.00000000000E+00 0. -1.
         -2   -1    0    0    0  501 -0.00000000000E+00 -0.00000000000E+00 -0.18594642759E+03  0.18594642759E+03  0.00000000000E+00 0. -1.
          2    1    1    2  502    0 -0.20295724826E+01 -0.24920056423E+02 -0.23537839985E+02  0.34338874293E+02  0.00000000000E+00 0. -1.
         -2    1    1    2    0  502  0.20295724826E+01  0.24920056423E+02 -0.15601269427E+03  0.15800344664E+03  0.00000000000E+00 0. -1.
</event>
<event>
 4    1  0.5847355E+003  0.2090428E+02  0.7546771E-02  0.1520636E+00
          2   -1    0    0  501    0  0.00000000000E+00  0.00000000000E+00  0.93778343130E+02  0.93778343130E+02  0.00000000000E+00 0. -1.
         -2   -1    0    0    0  501 -0.00000000000E+00 -0.00000000000E+00 -0.73214169390E+01  0.73214169390E+01  0.00000000000E+00 0. -1.
          2    1    1    2  502    0 -0.20483337061E+02  0.41739315769E+01  0.73707056399E+02  0.76614091165E+02  0.00000000000E+00 0. -1.
         -2    1    1    2    0  502  0.20483337061E+02 -0.41739315769E+01  0.12749869791E+02  0.24485668904E+02  0.00000000000E+00 0. -1.
</event>
<event>
 4    1  0.5847355E+003  0.2321239E+02  0.7546771E-02  0.1489848E+00
          2   -1    0    0  501    0  0.00000000000E+00  0.00000000000E+00  0.14194401271E+04  0.14194401271E+04  0.00000000000E+00 0. -1.
         -2   -1    0    0    0  501 -0.00000000000E+00 -0.00000000000E+00 -0.42513102692E+01  0.42513102692E+01  0.00000000000E+00 0.  1.
          2    1    1    2  502    0 -0.20049702098E+02  0.11697209704E+02  0.13869170156E+04  0.13871112513E+04  0.00000000000E+00 0. -1.
         -2    1    1    2    0  502  0.20049702098E+02 -0.11697209704E+02  0.28271801212E+02  0.36580186069E+02  0.00000000000E+00 0.  1.
</event>
<event>
 4    1  0.5847355E+003  0.2076436E+02  0.7546771E-02  0.1522656E+00
          2   -1    0    0  501    0  0.00000000000E+00  0.00000000000E+00  0.14158366729E+03  0.14158366729E+03  0.00000000000E+00 0.  1.
         -2   -1    0    0    0  501 -0.00000000000E+00 -0.00000000000E+00 -0.19025490013E+02  0.19025490013E+02  0.00000000000E+00 0.  1.
          2    1    1    2  502    0  0.12495769542E+02  0.16583553581E+02  0.13487673912E+03  0.13646572193E+03  0.00000000000E+00 0.  1.
         -2    1    1    2    0  502 -0.12495769542E+02 -0.16583553581E+02 -0.12318561842E+02  0.24143435375E+02  0.00000000000E+00 0.  1.
</event>
<event>
 4    1  0.5847355E+003  0.2062486E+02  0.7546771E-02  0.1524689E+00
          2   -1    0    0  501    0  0.00000000000E+00  0.00000000000E+00  0.77058754321E+02  0.77058754321E+02  0.00000000000E+00 0. -1.
         -2   -1    0    0    0  501 -0.00000000000E+00 -0.00000000000E+00 -0.73149716244E+01  0.73149716244E+01  0.00000000000E+00 0. -1.
          2    1    1    2  502    0 -0.18980735855E+02 -0.80694480608E+01  0.13975644021E+02  0.24913910801E+02  0.00000000000E+00 0. -1.
         -2    1    1    2    0  502  0.18980735855E+02  0.80694480608E+01  0.55768138676E+02  0.59459815144E+02  0.00000000000E+00 0. -1.
</event>
<event>
 4    1  0.5847355E+003  0.2159980E+02  0.7546771E-02  0.1510871E+00
          2   -1    0    0  501    0  0.00000000000E+00  0.00000000000E+00  0.13670206777E+04  0.13670206777E+04  0.00000000000E+00 0. -1.
         -2   -1    0    0    0  501 -0.00000000000E+00 -0.00000000000E+00 -0.13351839195E+02  0.13351839195E+02  0.00000000000E+00 0. -1.
          2    1    1    2  502    0 -0.15162502621E+02  0.15383425115E+02  0.13581425422E+04  0.13583142921E+04  0.00000000000E+00 0. -1.
         -2    1    1    2    0  502  0.15162502621E+02 -0.15383425115E+02 -0.44737037192E+01  0.22058224747E+02  0.00000000000E+00 0. -1.
</event>
<event>
 4    1  0.5847355E+003  0.2548795E+02  0.7546771E-02  0.1463418E+00
          2   -1    0    0  501    0  0.00000000000E+00  0.00000000000E+00  0.10346768450E+04  0.10346768450E+04  0.00000000000E+00 0. -1.
         -2   -1    0    0    0  501 -0.00000000000E+00 -0.00000000000E+00 -0.37871420875E+01  0.37871420875E+01  0.00000000000E+00 0.  1.
          2    1    1    2  502    0  0.25478000481E+02 -0.71224524716E+00  0.98968640911E+03  0.99001455756E+03  0.00000000000E+00 0. -1.
         -2    1    1    2    0  502 -0.25478000481E+02  0.71224524716E+00  0.41203293828E+02  0.48449429554E+02  0.00000000000E+00 0.  1.
</event>
<event>
 4    1  0.5847355E+003  0.2228861E+02  0.7546771E-02  0.1501630E+00
          2   -1    0    0  501    0  0.00000000000E+00  0.00000000000E+00  0.13508785533E+04  0.13508785533E+04  0.00000000000E+00 0.  1.
         -2   -1    0    0    0  501 -0.00000000000E+00 -0.00000000000E+00 -0.35114560048E+01  0.35114560048E+01  0.00000000000E+00 0.  1.
          2    1    1    2  502    0 -0.22273464755E+02  0.82145222324E+00  0.13144374735E+04  0.13146264313E+04  0.00000000000E+00 0.  1.
         -2    1    1    2    0  502  0.22273464755E+02 -0.82145222324E+00  0.32929623797E+02  0.39763578050E+02  0.00000000000E+00 0.  1.
</event>
<event>
 4    1  0.5847355E+003  0.2523168E+02  0.7546771E-02  0.1466228E+00
          2   -1    0    0  501    0  0.00000000000E+00  0.00000000000E+00  0.52997068895E+03  0.52997068895E+03  0.00000000000E+00 0. -1.
         -2   -1    0    0    0  501 -0.00000000000E+00 -0.00000000000E+00 -0.95014552946E+01  0.95014552946E+01  0.00000000000E+00 0.  1.
          2    1    1    2  502    0 -0.26784388643E+01 -0.25089112575E+02  0.51234333969E+03  0.51296426321E+03  0.00000000000E+00 0. -1.
         -2    1    1    2    0  502  0.26784388643E+01  0.25089112575E+02  0.81258939730E+01  0.26507881043E+02  0.00000000000E+00 0.  1.
</event>
<event>
 4    1  0.5847355E+003  0.2142669E+02  0.7546771E-02  0.1513259E+00
          2   -1    0    0  501    0  0.00000000000E+00  0.00000000000E+00  0.89594844588E+03  0.89594844588E+03  0.00000000000E+00 0. -1.
         -2   -1    0    0    0  501 -0.00000000000E+00 -0.00000000000E+00 -0.18362235798E+01  0.18362235798E+01  0.00000000000E+00 0.  1.
          2    1    1    2  502    0  0.20835354705E+02  0.49991226819E+01  0.82820173820E+03  0.82847886056E+03  0.00000000000E+00 0. -1.
         -2    1    1    2    0  502 -0.20835354705E+02 -0.49991226819E+01  0.65910484100E+02  0.69305808902E+02  0.00000000000E+00 0.  1.
</event>
<event>
 4    1  0.5847355E+003  0.2003805E+02  0.7546771E-02  0.1533455E+00
          2   -1    0    0  501    0  0.00000000000E+00  0.00000000000E+00  0.19566564389E+01  0.19566564389E+01  0.00000000000E+00 0. -1.
         -2   -1    0    0    0  501 -0.00000000000E+00 -0.00000000000E+00 -0.30960499266E+03  0.30960499266E+03  0.00000000000E+00 0. -1.
          2    1    1    2  502    0  0.42523265738E+01 -0.19581651362E+02 -0.63365101029E+02  0.66457951968E+02  0.00000000000E+00 0. -1.
         -2    1    1    2    0  502 -0.42523265738E+01  0.19581651362E+02 -0.24428323519E+03  0.24510369713E+03  0.00000000000E+00 0. -1.
</event>
<event>
 4    1  0.5847355E+003  0.2908160E+02  0.7546771E-02  0.1427749E+00
          2   -1    0    0  501    0  0.00000000000E+00  0.00000000000E+00  0.36536793068E+03  0.36536793068E+03  0.00000000000E+00 0.  1.
         -2   -1    0    0    0  501 -0.00000000000E+00 -0.00000000000E+00 -0.24402793774E+01  0.24402793774E+01  0.00000000000E+00 0. -1.
          2    1    1    2  502    0 -0.75408613933E+00 -0.29071807238E+02  0.13975488457E+03  0.14274861255E+03  0.00000000000E+00 0.  1.
         -2    1    1    2    0  502  0.75408613933E+00  0.29071807238E+02  0.22317276673E+03  0.22505959751E+03  0.00000000000E+00 0. -1.
</event>
<event>
 4    1  0.5847355E+003  0.3226599E+02  0.7546771E-02  0.1400875E+00
          2   -1    0    0  501    0  0.00000000000E+00  0.00000000000E+00  0.18573848103E+03  0.18573848103E+03  0.00000000000E+00 0.  1.
         -2   -1    0    0    0  501 -0.00000000000E+00 -0.00000000000E+00 -0.81457082787E+01  0.81457082787E+01  0.00000000000E+00 0. -1.
          2    1    1    2  502    0  0.26501820890E+02  0.18405092651E+02  0.14293556718E+03  0.14653214770E+03  0.00000000000E+00 0.  1.
         -2    1    1    2    0  502 -0.26501820890E+02 -0.18405092651E+02  0.34657205569E+02  0.47352041601E+02  0.00000000000E+00 0. -1.
</event>
<event>
 4    1  0.5847355E+003  0.7931919E+02  0.7546771E-02  0.1205437E+00
          2   -1    0    0  501    0  0.00000000000E+00  0.00000000000E+00  0.47348232608E+03  0.47348232608E+03  0.00000000000E+00 0.  1.
         -2   -1    0    0    0  501 -0.00000000000E+00 -0.00000000000E+00 -0.42382169491E+02  0.42382169491E+02  0.00000000000E+00 0. -1.
          2    1    1    2  502    0 -0.25619190964E+02 -0.75067903816E+02  0.42925701040E+03  0.43652389866E+03  0.00000000000E+00 0.  1.
         -2    1    1    2    0  502  0.25619190964E+02  0.75067903816E+02  0.18431461878E+01  0.79340596903E+02  0.00000000000E+00 0. -1.
</event>
<event>
 4    1  0.5847355E+003  0.2536508E+02  0.7546771E-02  0.1464760E+00
          2   -1    0    0  501    0  0.00000000000E+00  0.00000000000E+00  0.55555859181E+02  0.55555859181E+02  0.00000000000E+00 0.  1.
         -2   -1    0    0    0  501 -0.00000000000E+00 -0.00000000000E+00 -0.67474272901E+02  0.67474272901E+02  0.00000000000E+00 0.  1.
          2    1    1    2  502    0  0.24995213341E+02  0.43158292874E+01  0.50028480830E+02  0.56091318103E+02  0.00000000000E+00 0.  1.
         -2    1    1    2    0  502 -0.24995213341E+02 -0.43158292874E+01 -0.61946894550E+02  0.66938813978E+02  0.00000000000E+00 0.  1.
</event>
<event>
 4    1  0.5847355E+003  0.6921336E+02  0.7546771E-02  0.1231380E+00
          2   -1    0    0  501    0  0.00000000000E+00  0.00000000000E+00  0.63475262304E+03  0.63475262304E+03  0.00000000000E+00 0.  1.
         -2   -1    0    0    0  501 -0.00000000000E+00 -0.00000000000E+00 -0.14280364989E+02  0.14280364989E+02  0.00000000000E+00 0.  1.
          2    1    1    2  502    0  0.43236195955E+02 -0.54047388228E+02  0.53307074292E+03  0.53754525928E+03  0.00000000000E+00 0.  1.
         -2    1    1    2    0  502 -0.43236195955E+02  0.54047388228E+02  0.87401515130E+02  0.11148772875E+03  0.00000000000E+00 0.  1.
</event>
<event>
 4    1  0.5847355E+003  0.2463342E+02  0.7546771E-02  0.1472946E+00
          2   -1    0    0  501    0  0.00000000000E+00  0.00000000000E+00  0.12627417615E+04  0.12627417615E+04  0.00000000000E+00 0. -1.
         -2   -1    0    0    0  501 -0.00000000000E+00 -0.00000000000E+00 -0.39210040008E+02  0.39210040008E+02  0.00000000000E+00 0.  1.
          2    1    1    2  502    0 -0.23452971071E+02 -0.75341720495E+01  0.12587403845E+04  0.12589813983E+04  0.00000000000E+00 0. -1.
         -2    1    1    2    0  502  0.23452971071E+02  0.75341720495E+01 -0.35208663032E+02  0.42970403221E+02  0.00000000000E+00 0.  1.
</event>
<event>
 4    1  0.5847355E+003  0.9964778E+02  0.7546771E-02  0.1164420E+00
          2   -1    0    0  501    0  0.00000000000E+00  0.00000000000E+00  0.12778530464E+03  0.12778530464E+03  0.00000000000E+00 0. -1.
         -2   -1    0    0    0  501 -0.00000000000E+00 -0.00000000000E+00 -0.11272660643E+03  0.11272660643E+03  0.00000000000E+00 0.  1.
          2    1    1    2  502    0 -0.75480988588E+02  0.65056133595E+02  0.74557221998E+02  0.12445263962E+03  0.00000000000E+00 0. -1.
         -2    1    1    2    0  502  0.75480988588E+02 -0.65056133595E+02 -0.59498523787E+02  0.11605927145E+03  0.00000000000E+00 0.  1.
</event>
<event>
 4    1  0.5847355E+003  0.2124263E+02  0.7546771E-02  0.1515829E+00
          2   -1    0    0  501    0  0.00000000000E+00  0.00000000000E+00  0.49432840305E+03  0.49432840305E+03  0.00000000000E+00 0. -1.
         -2   -1    0    0    0  501 -0.00000000000E+00 -0.00000000000E+00 -0.85225334797E+01  0.85225334797E+01  0.00000000000E+00 0.  1.
          2    1    1    2  502    0 -0.17936701637E+02  0.11380864621E+02  0.48048196769E+03  0.48095131835E+03  0.00000000000E+00 0. -1.
         -2    1    1    2    0  502  0.17936701637E+02 -0.11380864621E+02  0.53239018752E+01  0.21899618177E+02  0.00000000000E+00 0.  1.
</event>
<event>
 4    1  0.5847355E+003  0.2583254E+02  0.7546771E-02  0.1459702E+00
          2   -1    0    0  501    0  0.00000000000E+00  0.00000000000E+00  0.67943694322E+03  0.67943694322E+03  0.00000000000E+00 0. -1.
         -2   -1    0    0    0  501 -0.00000000000E+00 -0.00000000000E+00 -0.89461436009E+01  0.89461436009E+01  0.00000000000E+00 0. -1.
          2    1    1    2  502    0 -0.25733127806E+02  0.22640767246E+01  0.65999399148E+03  0.66049934799E+03  0.00000000000E+00 0. -1.
         -2    1    1    2    0  502  0.25733127806E+02 -0.22640767246E+01  0.10496808144E+02  0.27883738833E+02  0.00000000000E+00 0. -1.
</event>
<event>
 4    1  0.5847355E+003  0.2124976E+02  0.7546771E-02  0.1515729E+00
          2   -1    0    0  501    0  0.00000000000E+00  0.00000000000E+00  0.32926589088E+03  0.32926589088E+03  0.00000000000E+00 0.  1.
         -2   -1    0    0    0  501 -0.00000000000E+00 -0.00000000000E+00 -0.67434105773E+01  0.67434105773E+01  0.00000000000E+00 0.  1.
          2    1    1    2  502    0 -0.15256790554E+01  0.21194918556E+02  0.31121256158E+03  0.31193719040E+03  0.00000000000E+00 0.  1.
         -2    1    1    2    0  502  0.15256790554E+01 -0.21194918556E+02  0.11309918719E+02  0.24072111054E+02  0.00000000000E+00 0.  1.
</event>
<event>
 4    1  0.5847355E+003  0.3994621E+02  0.7546771E-02  0.1348801E+00
          2   -1    0    0  501    0  0.00000000000E+00  0.00000000000E+00  0.21485205830E+03  0.21485205830E+03  0.00000000000E+00 0. -1.
         -2   -1    0    0    0  501 -0.00000000000E+00 -0.00000000000E+00 -0.15249070740E+02  0.15249070740E+02  0.00000000000E+00 0.  1.
          2    1    1    2  502    0  0.10203059769E+02 -0.38621205551E+02  0.18220178503E+03  0.18652932857E+03  0.00000000000E+00 0. -1.
         -2    1    1    2    0  502 -0.10203059769E+02  0.38621205551E+02  0.17401202524E+02  0.43571800469E+02  0.00000000000E+00 0.  1.
</event>
<event>
 4    1  0.5847355E+003  0.2424490E+02  0.7546771E-02  0.1477431E+00
          2   -1    0    0  501    0  0.00000000000E+00  0.00000000000E+00  0.75729025230E+03  0.75729025230E+03  0.00000000000E+00 0. -1.
         -2   -1    0    0    0  501 -0.00000000000E+00 -0.00000000000E+00 -0.12443307311E+03  0.12443307311E+03  0.00000000000E+00 0.  1.
          2    1    1    2  502    0  0.22144023926E+02  0.98720560649E+01  0.75591306221E+03  0.75630177370E+03  0.00000000000E+00 0. -1.
         -2    1    1    2    0  502 -0.22144023926E+02 -0.98720560649E+01 -0.12305588303E+03  0.12542155171E+03  0.00000000000E+00 0.  1.
</event>
<event>
 4    1  0.5847355E+003  0.2022055E+02  0.7546771E-02  0.1530691E+00
          2   -1    0    0  501    0  0.00000000000E+00  0.00000000000E+00  0.71446016289E+03  0.71446016289E+03  0.00000000000E+00 0.  1.
         -2   -1    0    0    0  501 -0.00000000000E+00 -0.00000000000E+00 -0.10910480999E+02  0.10910480999E+02  0.00000000000E+00 0. -1.
          2    1    1    2  502    0  0.20167985408E+02  0.14570563891E+01  0.70482022288E+03  0.70511021637E+03  0.00000000000E+00 0.  1.
         -2    1    1    2    0  502 -0.20167985408E+02 -0.14570563891E+01 -0.12705409921E+01  0.20260427517E+02  0.00000000000E+00 0. -1.
</event>
<event>
 4    1  0.5847355E+003  0.2617255E+02  0.7546771E-02  0.1456102E+00
          2   -1    0    0  501    0  0.00000000000E+00  0.00000000000E+00  0.16215284927E+03  0.16215284927E+03  0.00000000000E+00 0. -1.
         -2   -1    0    0    0  501 -0.00000000000E+00 -0.00000000000E+00 -0.18549959752E+03  0.18549959752E+03  0.00000000000E+00 0.  1.
          2    1    1    2  502    0  0.20141283269E+02  0.16713193040E+02  0.16016215937E+03  0.16228653490E+03  0.00000000000E+00 0. -1.
         -2    1    1    2    0  502 -0.20141283269E+02 -0.16713193040E+02 -0.18350890762E+03  0.18536591189E+03  0.00000000000E+00 0.  1.
</event>
<event>
 4    1  0.5847355E+003  0.4283722E+02  0.7546771E-02  0.1332616E+00
          2   -1    0    0  501    0  0.00000000000E+00  0.00000000000E+00  0.13047602633E+04  0.13047602633E+04  0.00000000000E+00 0. -1.
         -2   -1    0    0    0  501 -0.00000000000E+00 -0.00000000000E+00 -0.23569505785E+02  0.23569505785E+02  0.00000000000E+00 0.  1.
          2    1    1    2  502    0  0.90183468960E+01  0.41877164854E+02  0.12846398945E+04  0.12853539147E+04  0.00000000000E+00 0. -1.
         -2    1    1    2    0  502 -0.90183468960E+01 -0.41877164854E+02 -0.34491369465E+01  0.42975854414E+02  0.00000000000E+00 0.  1.
</event>
<event>
 4    1  0.5847355E+003  0.4631322E+02  0.7546771E-02  0.1315000E+00
          2   -1    0    0  501    0  0.00000000000E+00  0.00000000000E+00  0.17946498714E+02  0.17946498714E+02  0.00000000000E+00 0. -1.
         -2   -1    0    0    0  501 -0.00000000000E+00 -0.00000000000E+00 -0.16486629353E+03  0.16486629353E+03  0.00000000000E+00 0. -1.
          2    1    1    2  502    0 -0.35824997141E+02  0.29351053287E+02 -0.25520221356E+02  0.52879073813E+02  0.00000000000E+00 0. -1.
         -2    1    1    2    0  502  0.35824997141E+02 -0.29351053287E+02 -0.12139957346E+03  0.12993371843E+03  0.00000000000E+00 0. -1.
</event>
<event>
 4    1  0.5847355E+003  0.2301827E+02  0.7546771E-02  0.1492269E+00
          2   -1    0    0  501    0  0.00000000000E+00  0.00000000000E+00  0.22643838125E+02  0.22643838125E+02  0.00000000000E+00 0. -1.
         -2   -1    0    0    0  501 -0.00000000000E+00 -0.00000000000E+00 -0.45903689579E+02  0.45903689579E+02  0.00000000000E+00 0. -1.
          2    1    1    2  502    0  0.13540119417E+02  0.18614673570E+02  0.12368098119E+02  0.26130647849E+02  0.00000000000E+00 0. -1.
         -2    1    1    2    0  502 -0.13540119417E+02 -0.18614673570E+02 -0.35627949572E+02  0.42416879855E+02  0.00000000000E+00 0. -1.
</event>
<event>
 4    1  0.5847355E+003  0.2690445E+02  0.7546771E-02  0.1448570E+00
          2   -1    0    0  501    0  0.00000000000E+00  0.00000000000E+00  0.29206983934E+02  0.29206983934E+02  0.00000000000E+00 0. -1.
         -2   -1    0    0    0  501 -0.00000000000E+00 -0.00000000000E+00 -0.13573206581E+04  0.13573206581E+04  0.00000000000E+00 0. -1.
          2    1    1    2  502    0  0.37908578578E+01  0.26636046660E+02  0.22848642152E+02  0.35297450803E+02  0.00000000000E+00 0. -1.
         -2    1    1    2    0  502 -0.37908578578E+01 -0.26636046660E+02 -0.13509623163E+04  0.13512301912E+04  0.00000000000E+00 0. -1.
</event>
<event>
 4    1  0.5847355E+003  0.3245566E+02  0.7546771E-02  0.1399391E+00
          2   -1    0    0  501    0  0.00000000000E+00  0.00000000000E+00  0.23464196787E+04  0.23464196787E+04  0.00000000000E+00 0.  1.
         -2   -1    0    0    0  501 -0.00000000000E+00 -0.00000000000E+00 -0.11689363170E+03  0.11689363170E+03  0.00000000000E+00 0. -1.
          2    1    1    2  502    0  0.20874998155E+02  0.24851643761E+02  0.23440523338E+04  0.23442770130E+04  0.00000000000E+00 0.  1.
         -2    1    1    2    0  502 -0.20874998155E+02 -0.24851643761E+02 -0.11452628680E+03  0.11903629747E+03  0.00000000000E+00 0. -1.
</event>
<event>
 4    1  0.5847355E+003  0.2487261E+02  0.7546771E-02  0.1470234E+00
          2   -1    0    0  501    0  0.00000000000E+00  0.00000000000E+00  0.85185546309E+03  0.85185546309E+03  0.00000000000E+00 0. -1.
         -2   -1    0    0    0  501 -0.00000000000E+00 -0.00000000000E+00 -0.66575164222E+01  0.66575164222E+01  0.00000000000E+00 0.  1.
          2    1    1    2  502    0 -0.11305955461E+02  0.22154508454E+02  0.82776687118E+03  0.82814047112E+03  0.00000000000E+00 0. -1.
         -2    1    1    2    0  502  0.11305955461E+02 -0.22154508454E+02  0.17431075488E+02  0.30372508398E+02  0.00000000000E+00 0.  1.
</event>
<event>
 4    1  0.5847355E+003  0.3162810E+02  0.7546771E-02  0.1405957E+00
          2   -1    0    0  501    0  0.00000000000E+00  0.00000000000E+00  0.14157676094E+04  0.14157676094E+04  0.00000000000E+00 0.  1.
         -2   -1    0    0    0  501 -0.00000000000E+00 -0.00000000000E+00 -0.41425352672E+01  0.41425352672E+01  0.00000000000E+00 0.  1.
          2    1    1    2  502    0 -0.30660174611E+02  0.77646744104E+01  0.13523925131E+04  0.13527623021E+04  0.00000000000E+00 0.  1.
         -2    1    1    2    0  502  0.30660174611E+02 -0.77646744104E+01  0.59232561034E+02  0.67147842575E+02  0.00000000000E+00 0.  1.
</event>
<event>
 4    1  0.5847355E+003  0.2647897E+02  0.7546771E-02  0.1452913E+00
          2   -1    0    0  501    0  0.00000000000E+00  0.00000000000E+00  0.18919106693E+04  0.18919106693E+04  0.00000000000E+00 0. -1.
         -2   -1    0    0    0  501 -0.00000000000E+00 -0.00000000000E+00 -0.43452683235E+02  0.43452683235E+02  0.00000000000E+00 0. -1.
          2    1    1    2  502    0  0.20086472017E+01  0.26402676001E+02  0.18877752790E+04  0.18879609741E+04  0.00000000000E+00 0. -1.
         -2    1    1    2    0  502 -0.20086472017E+01 -0.26402676001E+02 -0.39317292865E+02  0.47402378441E+02  0.00000000000E+00 0. -1.
</event>
<event>
 4    1  0.5847355E+003  0.2425865E+02  0.7546771E-02  0.1477270E+00
          2   -1    0    0  501    0  0.00000000000E+00  0.00000000000E+00  0.51698056131E+02  0.51698056131E+02  0.00000000000E+00 0.  1.
         -2   -1    0    0    0  501 -0.00000000000E+00 -0.00000000000E+00 -0.73907035630E+02  0.73907035630E+02  0.00000000000E+00 0. -1.
          2    1    1    2  502    0  0.11242472428E+02 -0.21496253178E+02  0.46659562155E+02  0.52588942065E+02  0.00000000000E+00 0.  1.
         -2    1    1    2    0  502 -0.11242472428E+02  0.21496253178E+02 -0.68868541654E+02  0.73016149697E+02  0.00000000000E+00 0. -1.
</event>
<event>
 4    1  0.5847355E+003  0.2021225E+02  0.7546771E-02  0.1530815E+00
          2   -1    0    0  501    0  0.00000000000E+00  0.00000000000E+00  0.62096369540E+03  0.62096369540E+03  0.00000000000E+00 0.  1.
         -2   -1    0    0    0  501 -0.00000000000E+00 -0.00000000000E+00 -0.10981311427E+03  0.10981311427E+03  0.00000000000E+00 0. -1.
          2    1    1    2  502    0 -0.14074317398E+02  0.14506848544E+02  0.61986750591E+03  0.62019695255E+03  0.00000000000E+00 0.  1.
         -2    1    1    2    0  502  0.14074317398E+02 -0.14506848544E+02 -0.10871692479E+03  0.11057985712E+03  0.00000000000E+00 0. -1.
</event>
<event>
 4    1  0.5847355E+003  0.4765466E+02  0.7546771E-02  0.1308674E+00
          2   -1    0    0  501    0  0.00000000000E+00  0.00000000000E+00  0.26232195310E+03  0.26232195310E+03  0.00000000000E+00 0. -1.
         -2   -1    0    0    0  501 -0.00000000000E+00 -0.00000000000E+00 -0.15250827652E+02  0.15250827652E+02  0.00000000000E+00 0. -1.
          2    1    1    2  502    0 -0.52179270125E+01 -0.47368134214E+02  0.21479194037E+03  0.22001487347E+03  0.00000000000E+00 0. -1.
         -2    1    1    2    0  502  0.52179270125E+01  0.47368134214E+02  0.32279185082E+02  0.57557907283E+02  0.00000000000E+00 0. -1.
</event>
<event>
 4    1  0.5847355E+003  0.2141604E+02  0.7546771E-02  0.1513407E+00
          2   -1    0    0  501    0  0.00000000000E+00  0.00000000000E+00  0.40410537565E+02  0.40410537565E+02  0.00000000000E+00 0.  1.
         -2   -1    0    0    0  501 -0.00000000000E+00 -0.00000000000E+00 -0.13512056449E+03  0.13512056449E+03  0.00000000000E+00 0.  1.
          2    1    1    2  502    0 -0.13909291612E+02  0.16284301259E+02  0.36643692839E+02  0.42442986294E+02  0.00000000000E+00 0.  1.
         -2    1    1    2    0  502  0.13909291612E+02 -0.16284301259E+02 -0.13135371977E+03  0.13308811576E+03  0.00000000000E+00 0.  1.
</event>
<event>
 4    1  0.5847355E+003  0.2313650E+02  0.7546771E-02  0.1490791E+00
          2   -1    0    0  501    0  0.00000000000E+00  0.00000000000E+00  0.13561902385E+04  0.13561902385E+04  0.00000000000E+00 0. -1.
         -2   -1    0    0    0  501 -0.00000000000E+00 -0.00000000000E+00 -0.16559018760E+01  0.16559018760E+01  0.00000000000E+00 0.  1.
          2    1    1    2  502    0 -0.22332335339E+02 -0.60468339536E+01  0.12697754353E+04  0.12699862020E+04  0.00000000000E+00 0. -1.
         -2    1    1    2    0  502  0.22332335339E+02  0.60468339536E+01  0.84758901365E+02  0.87859938329E+02  0.00000000000E+00 0.  1.
</event>
<event>
 4    1  0.5847355E+003  0.4516920E+02  0.7546771E-02  0.1320595E+00
          2   -1    0    0  501    0  0.00000000000E+00  0.00000000000E+00  0.27716271520E+04  0.27716271520E+04  0.00000000000E+00 0. -1.
         -2   -1    0    0    0  501 -0.00000000000E+00 -0.00000000000E+00 -0.59290967985E+01  0.59290967985E+01  0.00000000000E+00 0.  1.
          2    1    1    2  502    0  0.42787006336E+02 -0.14475099989E+02  0.26825597250E+04  0.26829399797E+04  0.00000000000E+00 0. -1.
         -2    1    1    2    0  502 -0.42787006336E+02  0.14475099989E+02  0.83138330189E+02  0.94616269095E+02  0.00000000000E+00 0.  1.
</event>
<event>
 4    1  0.5847355E+003  0.2010900E+02  0.7546771E-02  0.1532376E+00
          2   -1    0    0  501    0  0.00000000000E+00  0.00000000000E+00  0.16358970124E+03  0.16358970124E+03  0.00000000000E+00 0.  1.
         -2   -1    0    0    0  501 -0.00000000000E+00 -0.00000000000E+00 -0.36766203362E+02  0.36766203362E+02  0.00000000000E+00 0. -1.
          2    1    1    2  502    0  0.23810831272E+01 -0.19967536340E+02  0.16016352724E+03  0.16142096370E+03  0.00000000000E+00 0.  1.
         -2    1    1    2    0  502 -0.23810831272E+01  0.19967536340E+02 -0.33340029368E+02  0.38934940896E+02  0.00000000000E+00 0. -1.
</event>
<event>
 4    1  0.5847355E+003  0.3541394E+02  0.7546771E-02  0.1377676E+00
          2   -1    0    0  501    0  0.00000000000E+00  0.00000000000E+00  0.28467755574E+02  0.28467755574E+02  0.00000000000E+00 0. -1.
         -2   -1    0    0    0  501 -0.00000000000E+00 -0.00000000000E+00 -0.10448203642E+04  0.10448203642E+04  0.00000000000E+00 0. -1.
          2    1    1    2  502    0  0.10373653467E+02  0.33860510502E+02  0.17032074855E+02  0.39296799254E+02  0.00000000000E+00 0. -1.
         -2    1    1    2    0  502 -0.10373653467E+02 -0.33860510502E+02 -0.10333846835E+04  0.10339913205E+04  0.00000000000E+00 0. -1.
</event>
<event>
 4    1  0.5847355E+003  0.2060770E+02  0.7546771E-02  0.1524940E+00
          2   -1    0    0  501    0  0.00000000000E+00  0.00000000000E+00  0.55348462297E+02  0.55348462297E+02  0.00000000000E+00 0. -1.
         -2   -1    0    0    0  501 -0.00000000000E+00 -0.00000000000E+00 -0.80589504500E+01  0.80589504500E+01  0.00000000000E+00 0. -1.
          2    1    1    2  502    0  0.18082552668E+02 -0.98842413529E+01  0.16704801477E+02  0.26527859516E+02  0.00000000000E+00 0. -1.
         -2    1    1    2    0  502 -0.18082552668E+02  0.98842413529E+01  0.30584710370E+02  0.36879553231E+02  0.00000000000E+00 0. -1.
</event>
<event>
 4    1  0.5847355E+003  0.2781137E+02  0.7546771E-02  0.1439624E+00
          2   -1    0    0  501    0  0.00000000000E+00  0.00000000000E+00  0.53531689878E+03  0.53531689878E+03  0.00000000000E+00 0. -1.
         -2   -1    0    0    0  501 -0.00000000000E+00 -0.00000000000E+00 -0.15534665515E+02  0.15534665515E+02  0.00000000000E+00 0. -1.
          2    1    1    2  502    0  0.16058300603E+02  0.22706899102E+02  0.52219560700E+03  0.52293567889E+03  0.00000000000E+00 0. -1.
         -2    1    1    2    0  502 -0.16058300603E+02 -0.22706899102E+02 -0.24133737377E+01  0.27915885404E+02  0.00000000000E+00 0. -1.
</event>
<event>
 4    1  0.5847355E+003  0.2737377E+02  0.7546771E-02  0.1443889E+00
          2   -1    0    0  501    0  0.00000000000E+00  0.00000000000E+00  0.18401896932E+03  0.18401896932E+03  0.00000000000E+00 0. -1.
         -2   -1    0    0    0  501 -0.00000000000E+00 -0.00000000000E+00 -0.64639817879E+01  0.64639817879E+01  0.00000000000E+00 0.  1.
          2    1    1    2  502    0 -0.94860687661E+01 -0.25677571974E+02  0.14671449247E+03  0.14924632493E+03  0.00000000000E+00 0. -1.
         -2    1    1    2    0  502  0.94860687661E+01  0.25677571974E+02  0.30840495059E+02  0.41236626179E+02  0.00000000000E+00 0.  1.
</event>
<event>
 4    1  0.5847355E+003  0.2560462E+02  0.7546771E-02  0.1462152E+00
          2   -1    0    0  501    0  0.00000000000E+00  0.00000000000E+00  0.15157322546E+04  0.15157322546E+04  0.00000000000E+00 0. -1.
         -2   -1    0    0    0  501 -0.00000000000E+00 -0.00000000000E+00 -0.14964113535E+01  0.14964113535E+01  0.00000000000E+00 0.  1.
          2    1    1    2  502    0  0.11354068941E+02 -0.22949544911E+02  0.13967681705E+04  0.13970028341E+04  0.00000000000E+00 0. -1.
         -2    1    1    2    0  502 -0.11354068941E+02  0.22949544911E+02  0.11746767276E+03  0.12022583182E+03  0.00000000000E+00 0.  1.
</event>
<event>
 4    1  0.5847355E+003  0.2358838E+02  0.7546771E-02  0.1485239E+00
          2   -1    0    0  501    0  0.00000000000E+00  0.00000000000E+00  0.84988279563E+02  0.84988279563E+02  0.00000000000E+00 0.  1.
         -2   -1    0    0    0  501 -0.00000000000E+00 -0.00000000000E+00 -0.39336740956E+02  0.39336740956E+02  0.00000000000E+00 0.  1.
          2    1    1    2  502    0  0.10429699017E+02 -0.21157340857E+02  0.79580080997E+02  0.83002415538E+02  0.00000000000E+00 0.  1.
         -2    1    1    2    0  502 -0.10429699017E+02  0.21157340857E+02 -0.33928542389E+02  0.41322604981E+02  0.00000000000E+00 0.  1.
</event>
<event>
 4    1  0.5847355E+003  0.2358828E+02  0.7546771E-02  0.1485240E+00
          2   -1    0    0  501    0  0.00000000000E+00  0.00000000000E+00  0.10271378374E+02  0.10271378374E+02  0.00000000000E+00 0. -1.
         -2   -1    0    0    0  501 -0.00000000000E+00 -0.00000000000E+00 -0.55650452790E+02  0.55650452790E+02  0.00000000000E+00 0. -1.
          2    1    1    2  502    0  0.23236864065E+02 -0.40565126575E+01 -0.17314664116E+02  0.29260976401E+02  0.00000000000E+00 0. -1.
         -2    1    1    2    0  502 -0.23236864065E+02  0.40565126575E+01 -0.28064410300E+02  0.36660854763E+02  0.00000000000E+00 0. -1.
</event>
<event>
 4    1  0.5847355E+003  0.7132202E+02  0.7546771E-02  0.1225567E+00
          2   -1    0    0  501    0  0.00000000000E+00  0.00000000000E+00  0.14216006873E+04  0.14216006873E+04  0.00000000000E+00 0.  1.
         -2   -1    0    0    0  501 -0.00000000000E+00 -0.00000000000E+00 -0.52861562495E+01  0.52861562495E+01  0.00000000000E+00 0. -1.
          2    1    1    2  502    0  0.37829444067E+02  0.60462911287E+02  0.11136869438E+04  0.11159683863E+04  0.00000000000E+00 0.  1.
         -2    1    1    2    0  502 -0.37829444067E+02 -0.60462911287E+02  0.30262758725E+03  0.31091845723E+03  0.00000000000E+00 0. -1.
</event>
<event>
 4    1  0.5847355E+003  0.2104009E+02  0.7546771E-02  0.1518693E+00
          2   -1    0    0  501    0  0.00000000000E+00  0.00000000000E+00  0.97977382171E+02  0.97977382171E+02  0.00000000000E+00 0.  1.
         -2   -1    0    0    0  501 -0.00000000000E+00 -0.00000000000E+00 -0.11625469367E+03  0.11625469367E+03  0.00000000000E+00 0. -1.
          2    1    1    2  502    0 -0.11248121927E+02 -0.17781033380E+02  0.95875221294E+02  0.98156729027E+02  0.00000000000E+00 0.  1.
         -2    1    1    2    0  502  0.11248121927E+02  0.17781033380E+02 -0.11415253279E+03  0.11607534682E+03  0.00000000000E+00 0. -1.
</event>
<event>
 4    1  0.5847355E+003  0.2462834E+02  0.7546771E-02  0.1473004E+00
          2   -1    0    0  501    0  0.00000000000E+00  0.00000000000E+00  0.52374040371E+02  0.52374040371E+02  0.00000000000E+00 0. -1.
         -2   -1    0    0    0  501 -0.00000000000E+00 -0.00000000000E+00 -0.12489970156E+02  0.12489970156E+02  0.00000000000E+00 0.  1.
          2    1    1    2  502    0  0.24440029924E+02 -0.30397495952E+01  0.28690180768E+02  0.37811130806E+02  0.00000000000E+00 0. -1.
         -2    1    1    2    0  502 -0.24440029924E+02  0.30397495952E+01  0.11193889446E+02  0.27052879722E+02  0.00000000000E+00 0.  1.
</event>
<event>
 4    1  0.5847355E+003  0.2116281E+02  0.7546771E-02  0.1516953E+00
          2   -1    0    0  501    0  0.00000000000E+00  0.00000000000E+00  0.76515369476E+02  0.76515369476E+02  0.00000000000E+00 0.  1.
         -2   -1    0    0    0  501 -0.00000000000E+00 -0.00000000000E+00 -0.48631687416E+02  0.48631687416E+02  0.00000000000E+00 0. -1.
          2    1    1    2  502    0  0.19689910875E+02 -0.77570663538E+01  0.72629037331E+02  0.75649466173E+02  0.00000000000E+00 0.  1.
         -2    1    1    2    0  502 -0.19689910875E+02  0.77570663538E+01 -0.44745355271E+02  0.49497590719E+02  0.00000000000E+00 0. -1.
</event>
<event>
 4    1  0.5847355E+003  0.2503429E+02  0.7546771E-02  0.1468420E+00
          2   -1    0    0  501    0  0.00000000000E+00  0.00000000000E+00  0.70911264926E+03  0.70911264926E+03  0.00000000000E+00 0.  1.
         -2   -1    0    0    0  501 -0.00000000000E+00 -0.00000000000E+00 -0.12037822031E+02  0.12037822031E+02  0.00000000000E+00 0.  1.
          2    1    1    2  502    0  0.73617522245E+00  0.25023460301E+02  0.69562384605E+03  0.69607417041E+03  0.00000000000E+00 0.  1.
         -2    1    1    2    0  502 -0.73617522245E+00 -0.25023460301E+02  0.14509811767E+01  0.25076300879E+02  0.00000000000E+00 0.  1.
</event>
<event>
 4    1  0.5847355E+003  0.3210919E+02  0.7546771E-02  0.1402111E+00
          2   -1    0    0  501    0  0.00000000000E+00  0.00000000000E+00  0.42027618138E+03  0.42027618138E+03  0.00000000000E+00 0. -1.
         -2   -1    0    0    0  501 -0.00000000000E+00 -0.00000000000E+00 -0.37474258648E+03  0.37474258648E+03  0.00000000000E+00 0. -1.
          2    1    1    2  502    0  0.16490077265E+02  0.27551360865E+02  0.41897295224E+03  0.42020154074E+03  0.00000000000E+00 0. -1.
         -2    1    1    2    0  502 -0.16490077265E+02 -0.27551360865E+02 -0.37343935734E+03  0.37481722712E+03  0.00000000000E+00 0. -1.
</event>
<event>
 4    1  0.5847355E+003  0.2427064E+02  0.7546771E-02  0.1477131E+00
          2   -1    0    0  501    0  0.00000000000E+00  0.00000000000E+00  0.21240776615E+01  0.21240776615E+01  0.00000000000E+00 0.  1.
         -2   -1    0    0    0  501 -0.00000000000E+00 -0.00000000000E+00 -0.31375239184E+03  0.31375239184E+03  0.00000000000E+00 0.  1.
          2    1    1    2  502    0 -0.22145416923E+02 -0.99319854149E+01 -0.10199999224E+03  0.10484780514E+03  0.00000000000E+00 0.  1.
         -2    1    1    2    0  502  0.22145416923E+02  0.99319854149E+01 -0.20962832194E+03  0.21102866437E+03  0.00000000000E+00 0.  1.
</event>
<event>
 4    1  0.5847355E+003  0.2052230E+02  0.7546771E-02  0.1526196E+00
          2   -1    0    0  501    0  0.00000000000E+00  0.00000000000E+00  0.95197184409E+03  0.95197184409E+03  0.00000000000E+00 0.  1.
         -2   -1    0    0    0  501 -0.00000000000E+00 -0.00000000000E+00 -0.58578798193E+02  0.58578798193E+02  0.00000000000E+00 0.  1.
          2    1    1    2  502    0 -0.43749718350E+01  0.20050541640E+02  0.95006019701E+03  0.95028182269E+03  0.00000000000E+00 0.  1.
         -2    1    1    2    0  502  0.43749718350E+01 -0.20050541640E+02 -0.56667151116E+02  0.60268819586E+02  0.00000000000E+00 0.  1.
</event>
<event>
 4    1  0.5847355E+003  0.2260927E+02  0.7546771E-02  0.1497464E+00
          2   -1    0    0  501    0  0.00000000000E+00  0.00000000000E+00  0.12412160974E+04  0.12412160974E+04  0.00000000000E+00 0.  1.
         -2   -1    0    0    0  501 -0.00000000000E+00 -0.00000000000E+00 -0.11399175418E+01  0.11399175418E+01  0.00000000000E+00 0. -1.
          2    1    1    2  502    0 -0.19804602146E+02  0.10906732608E+02  0.11164806158E+04  0.11167095166E+04  0.00000000000E+00 0.  1.
         -2    1    1    2    0  502  0.19804602146E+02 -0.10906732608E+02  0.12359556406E+03  0.12564649831E+03  0.00000000000E+00 0. -1.
</event>
<event>
 4    1  0.5847355E+003  0.3103998E+02  0.7546771E-02  0.1410769E+00
          2   -1    0    0  501    0  0.00000000000E+00  0.00000000000E+00  0.35019782803E+01  0.35019782803E+01  0.00000000000E+00 0. -1.
         -2   -1    0    0    0  501 -0.00000000000E+00 -0.00000000000E+00 -0.37015154683E+03  0.37015154683E+03  0.00000000000E+00 0. -1.
          2    1    1    2  502    0 -0.17133348225E+01  0.30992656255E+02 -0.88663418276E+02  0.93939778573E+02  0.00000000000E+00 0. -1.
         -2    1    1    2    0  502  0.17133348225E+01 -0.30992656255E+02 -0.27798615027E+03  0.27971374654E+03  0.00000000000E+00 0. -1.
</event>
<event>
 4    1  0.5847355E+003  0.2031208E+02  0.7546771E-02  0.1529317E+00
          2   -1    0    0  501    0  0.00000000000E+00  0.00000000000E+00  0.20705282881E+03  0.20705282881E+03  0.00000000000E+00 0.  1.
         -2   -1    0    0    0  501 -0.00000000000E+00 -0.00000000000E+00 -0.22549125160E+01  0.22549125160E+01  0.00000000000E+00 0.  1.
          2    1    1    2  502    0 -0.18850858897E+02 -0.75647772318E+01  0.13809095854E+03  0.13957683750E+03  0.00000000000E+00 0.  1.
         -2    1    1    2    0  502  0.18850858897E+02  0.75647772318E+01  0.66706957750E+02  0.69730903823E+02  0.00000000000E+00 0.  1.
</event>
<event>
 4    1  0.5847355E+003  0.2206893E+02  0.7546771E-02  0.1504533E+00
          2   -1    0    0  501    0  0.00000000000E+00  0.00000000000E+00  0.10496826808E+04  0.10496826808E+04  0.00000000000E+00 0. -1.
         -2   -1    0    0    0  501 -0.00000000000E+00 -0.00000000000E+00 -0.55648835092E+00  0.55648835092E+00  0.00000000000E+00 0. -1.
          2    1    1    2  502    0 -0.21943266362E+02  0.23517931931E+01  0.73865833341E+03  0.73898793724E+03  0.00000000000E+00 0. -1.
         -2    1    1    2    0  502  0.21943266362E+02 -0.23517931931E+01  0.31046785901E+03  0.31125123188E+03  0.00000000000E+00 0. -1.
</event>
<event>
 4    1  0.5847355E+003  0.2101683E+02  0.7546771E-02  0.1519025E+00
          2   -1    0    0  501    0  0.00000000000E+00  0.00000000000E+00  0.45208171767E+01  0.45208171767E+01  0.00000000000E+00 0.  1.
         -2   -1    0    0    0  501 -0.00000000000E+00 -0.00000000000E+00 -0.20935192037E+03  0.20935192037E+03  0.00000000000E+00 0. -1.
          2    1    1    2  502    0 -0.19074554553E+02 -0.88243046599E+01 -0.24322912614E+02  0.32145156123E+02  0.00000000000E+00 0.  1.
         -2    1    1    2    0  502  0.19074554553E+02  0.88243046599E+01 -0.18050819058E+03  0.18172758142E+03  0.00000000000E+00 0. -1.
</event>
<event>
 4    1  0.5847355E+003  0.2318268E+02  0.7546771E-02  0.1490217E+00
          2   -1    0    0  501    0  0.00000000000E+00  0.00000000000E+00  0.10388609523E+04  0.10388609523E+04  0.00000000000E+00 0. -1.
         -2   -1    0    0    0  501 -0.00000000000E+00 -0.00000000000E+00 -0.18484416550E+01  0.18484416550E+01  0.00000000000E+00 0.  1.
          2    1    1    2  502    0 -0.89227721355E+01 -0.21396742307E+02  0.96008021549E+03  0.96036006613E+03  0.00000000000E+00 0. -1.
         -2    1    1    2    0  502  0.89227721355E+01  0.21396742307E+02  0.76932295154E+02  0.80349327823E+02  0.00000000000E+00 0.  1.
</event>
<event>
 4    1  0.5847355E+003  0.2678011E+02  0.7546771E-02  0.1449830E+00
          2   -1    0    0  501    0  0.00000000000E+00  0.00000000000E+00  0.14842199931E+03  0.14842199931E+03  0.00000000000E+00 0.  1.
         -2   -1    0    0    0  501 -0.00000000000E+00 -0.00000000000E+00 -0.48659453044E+01  0.48659453044E+01  0.00000000000E+00 0.  1.
          2    1    1    2  502    0 -0.11830428464E+02 -0.24025285393E+02  0.65375394503E+02  0.70647827867E+02  0.00000000000E+00 0.  1.
         -2    1    1    2    0  502  0.11830428464E+02  0.24025285393E+02  0.78180659503E+02  0.82640116749E+02  0.00000000000E+00 0.  1.
</event>
<event>
 4    1  0.5847355E+003  0.2055517E+02  0.7546771E-02  0.1525712E+00
          2   -1    0    0  501    0  0.00000000000E+00  0.00000000000E+00  0.18512011622E+03  0.18512011622E+03  0.00000000000E+00 0. -1.
         -2   -1    0    0    0  501 -0.00000000000E+00 -0.00000000000E+00 -0.24434291544E+01  0.24434291544E+01  0.00000000000E+00 0. -1.
          2    1    1    2  502    0 -0.78752303356E+01  0.18986724751E+02  0.11541487980E+03  0.11723100891E+03  0.00000000000E+00 0. -1.
         -2    1    1    2    0  502  0.78752303356E+01 -0.18986724751E+02  0.67261807265E+02  0.70332536469E+02  0.00000000000E+00 0. -1.
</event>
<event>
 4    1  0.5847355E+003  0.4015682E+02  0.7546771E-02  0.1347569E+00
          2   -1    0    0  501    0  0.00000000000E+00  0.00000000000E+00  0.14854302669E+04  0.14854302669E+04  0.00000000000E+00 0. -1.
         -2   -1    0    0    0  501 -0.00000000000E+00 -0.00000000000E+00 -0.11414759044E+01  0.11414759044E+01  0.00000000000E+00 0. -1.
          2    1    1    2  502    0 -0.81434587150E+01 -0.39322436582E+02  0.90660777539E+03  0.90749668227E+03  0.00000000000E+00 0. -1.
         -2    1    1    2    0  502  0.81434587150E+01  0.39322436582E+02  0.57768101563E+03  0.57907506056E+03  0.00000000000E+00 0. -1.
</event>
<event>
 4    1  0.5847355E+003  0.3467608E+02  0.7546771E-02  0.1382855E+00
          2   -1    0    0  501    0  0.00000000000E+00  0.00000000000E+00  0.28726683706E+03  0.28726683706E+03  0.00000000000E+00 0.  1.
         -2   -1    0    0    0  501 -0.00000000000E+00 -0.00000000000E+00 -0.16823031801E+02  0.16823031801E+02  0.00000000000E+00 0. -1.
          2    1    1    2  502    0 -0.29459324826E+02 -0.18291494546E+02  0.26700097698E+03  0.26924329574E+03  0.00000000000E+00 0.  1.
         -2    1    1    2    0  502  0.29459324826E+02  0.18291494546E+02  0.34428282810E+01  0.34846573124E+02  0.00000000000E+00 0. -1.
</event>
<event>
 4    1  0.5847355E+003  0.2742871E+02  0.7546771E-02  0.1443349E+00
          2   -1    0    0  501    0  0.00000000000E+00  0.00000000000E+00  0.41122936382E+03  0.41122936382E+03  0.00000000000E+00 0. -1.
         -2   -1    0    0    0  501 -0.00000000000E+00 -0.00000000000E+00 -0.12131289052E+03  0.12131289052E+03  0.00000000000E+00 0.  1.
          2    1    1    2  502    0 -0.13879214129E+02 -0.23658007254E+02  0.40921396808E+03  0.41013218060E+03  0.00000000000E+00 0. -1.
         -2    1    1    2    0  502  0.13879214129E+02  0.23658007254E+02 -0.11929749478E+03  0.12241007374E+03  0.00000000000E+00 0.  1.
</event>
<event>
 4    1  0.5847355E+003  0.2308769E+02  0.7546771E-02  0.1491400E+00
          2   -1    0    0  501    0  0.00000000000E+00  0.00000000000E+00  0.28859121997E+03  0.28859121997E+03  0.00000000000E+00 0.  1.
         -2   -1    0    0    0  501 -0.00000000000E+00 -0.00000000000E+00 -0.34512920535E+01  0.34512920535E+01  0.00000000000E+00 0. -1.
          2    1    1    2  502    0 -0.22984895117E+02 -0.21762410653E+01  0.24212440399E+03  0.24322267254E+03  0.00000000000E+00 0.  1.
         -2    1    1    2    0  502  0.22984895117E+02  0.21762410653E+01  0.43015523923E+02  0.48819839482E+02  0.00000000000E+00 0. -1.
</event>
<event>
 4    1  0.5847355E+003  0.3036863E+02  0.7546771E-02  0.1416420E+00
          2   -1    0    0  501    0  0.00000000000E+00  0.00000000000E+00  0.16908174426E+04  0.16908174426E+04  0.00000000000E+00 0.  1.
         -2   -1    0    0    0  501 -0.00000000000E+00 -0.00000000000E+00 -0.37187780974E+02  0.37187780974E+02  0.00000000000E+00 0.  1.
          2    1    1    2  502    0  0.81903026390E+00  0.30357587790E+02  0.16844576944E+04  0.16847314261E+04  0.00000000000E+00 0.  1.
         -2    1    1    2    0  502 -0.81903026390E+00 -0.30357587790E+02 -0.30828032733E+02  0.43273797490E+02  0.00000000000E+00 0.  1.
</event>
<event>
 4    1  0.5847355E+003  0.2539389E+02  0.7546771E-02  0.1464445E+00
          2   -1    0    0  501    0  0.00000000000E+00  0.00000000000E+00  0.56740981064E+03  0.56740981064E+03  0.00000000000E+00 0.  1.
         -2   -1    0    0    0  501 -0.00000000000E+00 -0.00000000000E+00 -0.16879439722E+01  0.16879439722E+01  0.00000000000E+00 0.  1.
          2    1    1    2  502    0  0.22094221185E+02 -0.12517789414E+02  0.44550439226E+03  0.44622753521E+03  0.00000000000E+00 0.  1.
         -2    1    1    2    0  502 -0.22094221185E+02  0.12517789414E+02  0.12021747442E+03  0.12287021940E+03  0.00000000000E+00 0.  1.
</event>
<event>
 4    1  0.5847355E+003  0.2545681E+02  0.7546771E-02  0.1463757E+00
          2   -1    0    0  501    0  0.00000000000E+00  0.00000000000E+00  0.33373151724E+02  0.33373151724E+02  0.00000000000E+00 0.  1.
         -2   -1    0    0    0  501 -0.00000000000E+00 -0.00000000000E+00 -0.24301968017E+02  0.24301968017E+02  0.00000000000E+00 0.  1.
          2    1    1    2  502    0  0.23661783342E+02 -0.93898335898E+01  0.17463017874E+02  0.30870794597E+02  0.00000000000E+00 0.  1.
         -2    1    1    2    0  502 -0.23661783342E+02  0.93898335898E+01 -0.83918341673E+01  0.26804325145E+02  0.00000000000E+00 0.  1.
</event>
<event>
 4    1  0.5847355E+003  0.3032912E+02  0.7546771E-02  0.1416758E+00
          2   -1    0    0  501    0  0.00000000000E+00  0.00000000000E+00  0.17874680167E+03  0.17874680167E+03  0.00000000000E+00 0. -1.
         -2   -1    0    0    0  501 -0.00000000000E+00 -0.00000000000E+00 -0.87805661604E+01  0.87805661604E+01  0.00000000000E+00 0. -1.
          2    1    1    2  502    0  0.10974726925E+02 -0.28273850419E+02  0.14530732183E+03  0.14843878545E+03  0.00000000000E+00 0. -1.
         -2    1    1    2    0  502 -0.10974726925E+02  0.28273850419E+02  0.24658913678E+02  0.39088582378E+02  0.00000000000E+00 0. -1.
</event>
<event>
 4    1  0.5847355E+003  0.2791716E+02  0.7546771E-02  0.1438606E+00
          2   -1    0    0  501    0  0.00000000000E+00  0.00000000000E+00  0.15345592647E+02  0.15345592647E+02  0.00000000000E+00 0.  1.
         -2   -1    0    0    0  501 -0.00000000000E+00 -0.00000000000E+00 -0.16497028320E+03  0.16497028320E+03  0.00000000000E+00 0.  1.
          2    1    1    2  502    0 -0.15251103603E+02  0.23383153165E+02  0.19451050370E+00  0.27917841023E+02  0.00000000000E+00 0.  1.
         -2    1    1    2    0  502  0.15251103603E+02 -0.23383153165E+02 -0.14981920106E+03  0.15239803482E+03  0.00000000000E+00 0.  1.
</event>
<event>
 4    1  0.5847355E+003  0.5833246E+02  0.7546771E-02  0.1265606E+00
          2   -1    0    0  501    0  0.00000000000E+00  0.00000000000E+00  0.11633772394E+04  0.11633772394E+04  0.00000000000E+00 0. -1.
         -2   -1    0    0    0  501 -0.00000000000E+00 -0.00000000000E+00 -0.13780169324E+02  0.13780169324E+02  0.00000000000E+00 0. -1.
          2    1    1    2  502    0  0.49207144953E+02 -0.31326231519E+02  0.10971935827E+04  0.10987431155E+04  0.00000000000E+00 0. -1.
         -2    1    1    2    0  502 -0.49207144953E+02  0.31326231519E+02  0.52403487371E+02  0.78414293240E+02  0.00000000000E+00 0. -1.
</event>
<event>
 4    1  0.5847355E+003  0.2128499E+02  0.7546771E-02  0.1515235E+00
          2   -1    0    0  501    0  0.00000000000E+00  0.00000000000E+00  0.56986110054E+01  0.56986110054E+01  0.00000000000E+00 0. -1.
         -2   -1    0    0    0  501 -0.00000000000E+00 -0.00000000000E+00 -0.80215410887E+02  0.80215410887E+02  0.00000000000E+00 0.  1.
          2    1    1    2  502    0 -0.17881840425E+02  0.11545131113E+02 -0.41309869195E+02  0.46471018520E+02  0.00000000000E+00 0. -1.
         -2    1    1    2    0  502  0.17881840425E+02 -0.11545131113E+02 -0.33206930687E+02  0.39443003373E+02  0.00000000000E+00 0.  1.
</event>
<event>
 4    1  0.5847355E+003  0.2900794E+02  0.7546771E-02  0.1428418E+00
          2   -1    0    0  501    0  0.00000000000E+00  0.00000000000E+00  0.19800672216E+01  0.19800672216E+01  0.00000000000E+00 0.  1.
         -2   -1    0    0    0  501 -0.00000000000E+00 -0.00000000000E+00 -0.10750032486E+04  0.10750032486E+04  0.00000000000E+00 0.  1.
          2    1    1    2  502    0  0.26077237846E+02  0.12705825739E+02 -0.11777263470E+03  0.12129243103E+03  0.00000000000E+00 0.  1.
         -2    1    1    2    0  502 -0.26077237846E+02 -0.12705825739E+02 -0.95525054664E+03  0.95569088476E+03  0.00000000000E+00 0.  1.
</event>
<event>
 4    1  0.5847355E+003  0.2778958E+02  0.7546771E-02  0.1439834E+00
          2   -1    0    0  501    0  0.00000000000E+00  0.00000000000E+00  0.19329355283E+04  0.19329355283E+04  0.00000000000E+00 0. -1.
         -2   -1    0    0    0  501 -0.00000000000E+00 -0.00000000000E+00 -0.86856457695E+00  0.86856457695E+00  0.00000000000E+00 0.  1.
          2    1    1    2  502    0 -0.16742057033E+02  0.22180273872E+02  0.16765676719E+04  0.16767979662E+04  0.00000000000E+00 0. -1.
         -2    1    1    2    0  502  0.16742057033E+02 -0.22180273872E+02  0.25549929182E+03  0.25700612667E+03  0.00000000000E+00 0.  1.
</event>
<event>
 4    1  0.5847355E+003  0.2204115E+02  0.7546771E-02  0.1504903E+00
          2   -1    0    0  501    0  0.00000000000E+00  0.00000000000E+00  0.10039530489E+01  0.10039530489E+01  0.00000000000E+00 0. -1.
         -2   -1    0    0    0  501 -0.00000000000E+00 -0.00000000000E+00 -0.48451103441E+03  0.48451103441E+03  0.00000000000E+00 0. -1.
          2    1    1    2  502    0  0.14520238925E+02 -0.16582360044E+02 -0.25038062337E+03  0.25134889808E+03  0.00000000000E+00 0. -1.
         -2    1    1    2    0  502 -0.14520238925E+02  0.16582360044E+02 -0.23312645798E+03  0.23416608938E+03  0.00000000000E+00 0. -1.
</event>
<event>
 4    1  0.5847355E+003  0.3655330E+02  0.7546771E-02  0.1369960E+00
          2   -1    0    0  501    0  0.00000000000E+00  0.00000000000E+00  0.23632676947E+04  0.23632676947E+04  0.00000000000E+00 0.  1.
         -2   -1    0    0    0  501 -0.00000000000E+00 -0.00000000000E+00 -0.12523861892E+01  0.12523861892E+01  0.00000000000E+00 0.  1.
          2    1    1    2  502    0  0.27287355581E+02  0.24321669830E+02  0.20566450893E+04  0.20569698993E+04  0.00000000000E+00 0.  1.
         -2    1    1    2    0  502 -0.27287355581E+02 -0.24321669830E+02  0.30537021925E+03  0.30755018160E+03  0.00000000000E+00 0.  1.
</event>
<event>
 4    1  0.5847355E+003  0.3591325E+02  0.7546771E-02  0.1374254E+00
          2   -1    0    0  501    0  0.00000000000E+00  0.00000000000E+00  0.38591943253E+03  0.38591943253E+03  0.00000000000E+00 0.  1.
         -2   -1    0    0    0  501 -0.00000000000E+00 -0.00000000000E+00 -0.47486256510E+01  0.47486256510E+01  0.00000000000E+00 0.  1.
          2    1    1    2  502    0 -0.32922824723E+02  0.14347434290E+02  0.29689581541E+03  0.29906000480E+03  0.00000000000E+00 0.  1.
         -2    1    1    2    0  502  0.32922824723E+02 -0.14347434290E+02  0.84274991461E+02  0.91608053380E+02  0.00000000000E+00 0.  1.
</event>
<event>
 4    1  0.5847355E+003  0.3832137E+02  0.7546771E-02  0.1358613E+00
          2   -1    0    0  501    0  0.00000000000E+00  0.00000000000E+00  0.57361769821E+02  0.57361769821E+02  0.00000000000E+00 0. -1.
         -2   -1    0    0    0  501 -0.00000000000E+00 -0.00000000000E+00 -0.36983874250E+02  0.36983874250E+02  0.00000000000E+00 0. -1.
          2    1    1    2  502    0  0.36526471848E+02 -0.11590693170E+02  0.36359250740E+02  0.52825395675E+02  0.00000000000E+00 0. -1.
         -2    1    1    2    0  502 -0.36526471848E+02  0.11590693170E+02 -0.15981355169E+02  0.41520248396E+02  0.00000000000E+00 0. -1.
</event>
<event>
 4    1  0.5847355E+003  0.2069543E+02  0.7546771E-02  0.1523658E+00
          2   -1    0    0  501    0  0.00000000000E+00  0.00000000000E+00  0.12585757422E+04  0.12585757422E+04  0.00000000000E+00 0. -1.
         -2   -1    0    0    0  501 -0.00000000000E+00 -0.00000000000E+00 -0.44253253432E+00  0.44253253432E+00  0.00000000000E+00 0. -1.
          2    1    1    2  502    0  0.19672408138E+02 -0.64263038640E+01  0.93162625328E+03  0.93185609233E+03  0.00000000000E+00 0. -1.
         -2    1    1    2    0  502 -0.19672408138E+02  0.64263038640E+01  0.32650695635E+03  0.32716218237E+03  0.00000000000E+00 0. -1.
</event>
<event>
 4    1  0.5847355E+003  0.2308739E+02  0.7546771E-02  0.1491404E+00
          2   -1    0    0  501    0  0.00000000000E+00  0.00000000000E+00  0.11344501390E+04  0.11344501390E+04  0.00000000000E+00 0.  1.
         -2   -1    0    0    0  501 -0.00000000000E+00 -0.00000000000E+00 -0.47215179854E+01  0.47215179854E+01  0.00000000000E+00 0.  1.
          2    1    1    2  502    0 -0.23086383450E+02  0.21566746787E+00  0.11053668550E+04  0.11056079377E+04  0.00000000000E+00 0.  1.
         -2    1    1    2    0  502  0.23086383450E+02 -0.21566746787E+00  0.24361765988E+02  0.33563719330E+02  0.00000000000E+00 0.  1.
</event>
<event>
 4    1  0.5847355E+003  0.2113371E+02  0.7546771E-02  0.1517364E+00
          2   -1    0    0  501    0  0.00000000000E+00  0.00000000000E+00  0.32655204562E+01  0.32655204562E+01  0.00000000000E+00 0. -1.
         -2   -1    0    0    0  501 -0.00000000000E+00 -0.00000000000E+00 -0.26106892874E+03  0.26106892874E+03  0.00000000000E+00 0. -1.
          2    1    1    2  502    0  0.15653377056E+02 -0.14198785684E+02 -0.37705801825E+02  0.43224544178E+02  0.00000000000E+00 0. -1.
         -2    1    1    2    0  502 -0.15653377056E+02  0.14198785684E+02 -0.22009760646E+03  0.22110990502E+03  0.00000000000E+00 0. -1.
</event>
<event>
 4    1  0.5847355E+003  0.3163832E+02  0.7546771E-02  0.1405874E+00
          2   -1    0    0  501    0  0.00000000000E+00  0.00000000000E+00  0.38015655537E+03  0.38015655537E+03  0.00000000000E+00 0. -1.
         -2   -1    0    0    0  501 -0.00000000000E+00 -0.00000000000E+00 -0.45231911893E+01  0.45231911893E+01  0.00000000000E+00 0.  1.
          2    1    1    2  502    0  0.97950062060E+01 -0.30083896618E+02  0.31215082958E+03  0.31375009703E+03  0.00000000000E+00 0. -1.
         -2    1    1    2    0  502 -0.97950062060E+01  0.30083896618E+02  0.63482534606E+02  0.70929649529E+02  0.00000000000E+00 0.  1.
</event>
<event>
 4    1  0.5847355E+003  0.2270084E+02  0.7546771E-02  0.1496289E+00
          2   -1    0    0  501    0  0.00000000000E+00  0.00000000000E+00  0.97261148220E+01  0.97261148220E+01  0.00000000000E+00 0. -1.
         -2   -1    0    0    0  501 -0.00000000000E+00 -0.00000000000E+00 -0.17734126460E+03  0.17734126460E+03  0.00000000000E+00 0. -1.
          2    1    1    2  502    0 -0.18527641351E+02 -0.13116965359E+02 -0.54828674766E+01  0.23353588804E+02  0.00000000000E+00 0. -1.
         -2    1    1    2    0  502  0.18527641351E+02  0.13116965359E+02 -0.16213228230E+03  0.16371379062E+03  0.00000000000E+00 0. -1.
</event>
<event>
 4    1  0.5847355E+003  0.1321268E+03  0.7546771E-02  0.1117489E+00
          2   -1    0    0  501    0  0.00000000000E+00  0.00000000000E+00  0.34830050127E+04  0.34830050127E+04  0.00000000000E+00 0.  1.
         -2   -1    0    0    0  501 -0.00000000000E+00 -0.00000000000E+00 -0.50482922337E+02  0.50482922337E+02  0.00000000000E+00 0.  1.
          2    1    1    2  502    0 -0.75673589906E+02 -0.10830968630E+03  0.33930073248E+04  0.33955789178E+04  0.00000000000E+00 0.  1.
         -2    1    1    2    0  502  0.75673589906E+02  0.10830968630E+03  0.39514765547E+02  0.13790901730E+03  0.00000000000E+00 0.  1.
</event>
<event>
 4    1  0.5847355E+003  0.2027157E+02  0.7546771E-02  0.1529924E+00
          2   -1    0    0  501    0  0.00000000000E+00  0.00000000000E+00  0.11762577748E+02  0.11762577748E+02  0.00000000000E+00 0.  1.
         -2   -1    0    0    0  501 -0.00000000000E+00 -0.00000000000E+00 -0.34936884102E+02  0.34936884102E+02  0.00000000000E+00 0.  1.
          2    1    1    2  502    0  0.17222284841E+02 -0.10692501561E+02 -0.11465632239E+02  0.23289426944E+02  0.00000000000E+00 0.  1.
         -2    1    1    2    0  502 -0.17222284841E+02  0.10692501561E+02 -0.11708674115E+02  0.23410034906E+02  0.00000000000E+00 0.  1.
</event>
<event>
 4    1  0.5847355E+003  0.7404131E+02  0.7546771E-02  0.1218400E+00
          2   -1    0    0  501    0  0.00000000000E+00  0.00000000000E+00  0.10928492978E+04  0.10928492978E+04  0.00000000000E+00 0.  1.
         -2   -1    0    0    0  501 -0.00000000000E+00 -0.00000000000E+00 -0.50285729147E+01  0.50285729147E+01  0.00000000000E+00 0.  1.
          2    1    1    2  502    0  0.68060367538E+02  0.29152977740E+02  0.51684164798E+03  0.52211818473E+03  0.00000000000E+00 0.  1.
         -2    1    1    2    0  502 -0.68060367538E+02 -0.29152977740E+02  0.57097907695E+03  0.57575968603E+03  0.00000000000E+00 0.  1.
</event>
<event>
 4    1  0.5847355E+003  0.2944856E+02  0.7546771E-02  0.1424450E+00
          2   -1    0    0  501    0  0.00000000000E+00  0.00000000000E+00  0.83269034654E+01  0.83269034654E+01  0.00000000000E+00 0. -1.
         -2   -1    0    0    0  501 -0.00000000000E+00 -0.00000000000E+00 -0.61850294849E+03  0.61850294849E+03  0.00000000000E+00 0. -1.
          2    1    1    2  502    0 -0.19615032600E+02 -0.21965156629E+02 -0.19275735602E+02  0.35196187188E+02  0.00000000000E+00 0. -1.
         -2    1    1    2    0  502  0.19615032600E+02  0.21965156629E+02 -0.59090030943E+03  0.59163366477E+03  0.00000000000E+00 0. -1.
</event>
<event>
 4    1  0.5847355E+003  0.3941634E+02  0.7546771E-02  0.1351940E+00
          2   -1    0    0  501    0  0.00000000000E+00  0.00000000000E+00  0.30619030664E+01  0.30619030664E+01  0.00000000000E+00 0.  1.
         -2   -1    0    0    0  501 -0.00000000000E+00 -0.00000000000E+00 -0.50753577696E+03  0.50753577696E+03  0.00000000000E+00 0. -1.
          2    1    1    2  502    0  0.39407811868E+02 -0.81906062394E+00 -0.25622311271E+03  0.25923720794E+03  0.00000000000E+00 0.  1.
         -2    1    1    2    0  502 -0.39407811868E+02  0.81906062394E+00 -0.24825076119E+03  0.25136047208E+03  0.00000000000E+00 0. -1.
</event>
<event>
 4    1  0.5847355E+003  0.2619167E+02  0.7546771E-02  0.1455901E+00
          2   -1    0    0  501    0  0.00000000000E+00  0.00000000000E+00  0.79606574395E+03  0.79606574395E+03  0.00000000000E+00 0. -1.
         -2   -1    0    0    0  501 -0.00000000000E+00 -0.00000000000E+00 -0.21701910586E+02  0.21701910586E+02  0.00000000000E+00 0. -1.
          2    1    1    2  502    0  0.13409691994E+01 -0.26157315659E+02  0.78786551117E+03  0.78830074658E+03  0.00000000000E+00 0. -1.
         -2    1    1    2    0  502 -0.13409691994E+01  0.26157315659E+02 -0.13501677809E+02  0.29466907957E+02  0.00000000000E+00 0. -1.
</event>
<event>
 4    1  0.5847355E+003  0.2095904E+02  0.7546771E-02  0.1519850E+00
          2   -1    0    0  501    0  0.00000000000E+00  0.00000000000E+00  0.81447117555E+03  0.81447117555E+03  0.00000000000E+00 0. -1.
         -2   -1    0    0    0  501 -0.00000000000E+00 -0.00000000000E+00 -0.11628187050E+01  0.11628187050E+01  0.00000000000E+00 0.  1.
          2    1    1    2  502    0  0.20876996822E+02 -0.18527050231E+01  0.70527366954E+03  0.70558502709E+03  0.00000000000E+00 0. -1.
         -2    1    1    2    0  502 -0.20876996822E+02  0.18527050231E+01  0.10803468731E+03  0.11004896716E+03  0.00000000000E+00 0.  1.
</event>
<event>
 4    1  0.5847355E+003  0.3266605E+02  0.7546771E-02  0.1397758E+00
          2   -1    0    0  501    0  0.00000000000E+00  0.00000000000E+00  0.45844954816E+02  0.45844954816E+02  0.00000000000E+00 0.  1.
         -2   -1    0    0    0  501 -0.00000000000E+00 -0.00000000000E+00 -0.28316500650E+03  0.28316500650E+03  0.00000000000E+00 0. -1.
          2    1    1    2  502    0  0.22113440730E+02 -0.24043016978E+02  0.38938993510E+02  0.50826333154E+02  0.00000000000E+00 0.  1.
         -2    1    1    2    0  502 -0.22113440730E+02  0.24043016978E+02 -0.27625904519E+03  0.27818362816E+03  0.00000000000E+00 0. -1.
</event>
<event>
 4    1  0.5847355E+003  0.2585255E+02  0.7546771E-02  0.1459488E+00
          2   -1    0    0  501    0  0.00000000000E+00  0.00000000000E+00  0.12568881848E+02  0.12568881848E+02  0.00000000000E+00 0. -1.
         -2   -1    0    0    0  501 -0.00000000000E+00 -0.00000000000E+00 -0.53392789216E+02  0.53392789216E+02  0.00000000000E+00 0. -1.
          2    1    1    2  502    0 -0.18157505972E+02 -0.18402704500E+02 -0.18307205982E+02  0.31678199868E+02  0.00000000000E+00 0. -1.
         -2    1    1    2    0  502  0.18157505972E+02  0.18402704500E+02 -0.22516701386E+02  0.34283471197E+02  0.00000000000E+00 0. -1.
</event>
<event>
 4    1  0.5847355E+003  0.3181449E+02  0.7546771E-02  0.1404457E+00
          2   -1    0    0  501    0  0.00000000000E+00  0.00000000000E+00  0.21805332494E+03  0.21805332494E+03  0.00000000000E+00 0. -1.
         -2   -1    0    0    0  501 -0.00000000000E+00 -0.00000000000E+00 -0.49724625636E+01  0.49724625636E+01  0.00000000000E+00 0.  1.
          2    1    1    2  502    0 -0.26741651946E+02  0.17234981917E+02  0.77784333426E+02  0.84039056854E+02  0.00000000000E+00 0. -1.
         -2    1    1    2    0  502  0.26741651946E+02 -0.17234981917E+02  0.13529652895E+03  0.13898673065E+03  0.00000000000E+00 0.  1.
</event>
<event>
 4    1  0.5847355E+003  0.2509372E+02  0.7546771E-02  0.1467758E+00
          2   -1    0    0  501    0  0.00000000000E+00  0.00000000000E+00  0.19333485826E+03  0.19333485826E+03  0.00000000000E+00 0. -1.
         -2   -1    0    0    0  501 -0.00000000000E+00 -0.00000000000E+00 -0.73842660248E+02  0.73842660248E+02  0.00000000000E+00 0.  1.
          2    1    1    2  502    0  0.24578126062E+02  0.50606615521E+01  0.19035550160E+03  0.19200237386E+03  0.00000000000E+00 0. -1.
         -2    1    1    2    0  502 -0.24578126062E+02 -0.50606615521E+01 -0.70863303596E+02  0.75175144647E+02  0.00000000000E+00 0.  1.
</event>
<event>
 4    1  0.5847355E+003  0.2018014E+02  0.7546771E-02  0.1531300E+00
          2   -1    0    0  501    0  0.00000000000E+00  0.00000000000E+00  0.65719378453E+01  0.65719378453E+01  0.00000000000E+00 0. -1.
         -2   -1    0    0    0  501 -0.00000000000E+00 -0.00000000000E+00 -0.62091734789E+02  0.62091734789E+02  0.00000000000E+00 0.  1.
          2    1    1    2  502    0 -0.59503068982E+01 -0.19282933397E+02 -0.29303916149E+02  0.35580291936E+02  0.00000000000E+00 0. -1.
         -2    1    1    2    0  502  0.59503068982E+01  0.19282933397E+02 -0.26215880795E+02  0.33083380698E+02  0.00000000000E+00 0.  1.
</event>
<event>
 4    1  0.5847355E+003  0.2019245E+02  0.7546771E-02  0.1531114E+00
          2   -1    0    0  501    0  0.00000000000E+00  0.00000000000E+00  0.52793435743E+02  0.52793435743E+02  0.00000000000E+00 0. -1.
         -2   -1    0    0    0  501 -0.00000000000E+00 -0.00000000000E+00 -0.10126168610E+02  0.10126168610E+02  0.00000000000E+00 0. -1.
          2    1    1    2  502    0 -0.40693686686E+01 -0.19778150513E+02  0.36658835258E+02  0.41852182757E+02  0.00000000000E+00 0. -1.
         -2    1    1    2    0  502  0.40693686686E+01  0.19778150513E+02  0.60084318757E+01  0.21067421596E+02  0.00000000000E+00 0. -1.
</event>
<event>
 4    1  0.5847355E+003  0.3659809E+02  0.7546771E-02  0.1369663E+00
          2   -1    0    0  501    0  0.00000000000E+00  0.00000000000E+00  0.15577394023E+04  0.15577394023E+04  0.00000000000E+00 0.  1.
         -2   -1    0    0    0  501 -0.00000000000E+00 -0.00000000000E+00 -0.13225864381E+01  0.13225864381E+01  0.00000000000E+00 0. -1.
          2    1    1    2  502    0  0.39438213595E+01 -0.36384976952E+02  0.12393016872E+04  0.12398419626E+04  0.00000000000E+00 0.  1.
         -2    1    1    2    0  502 -0.39438213595E+01  0.36384976952E+02  0.31711512862E+03  0.31922002612E+03  0.00000000000E+00 0. -1.
</event>
<event>
 4    1  0.5847355E+003  0.2506576E+02  0.7546771E-02  0.1468069E+00
          2   -1    0    0  501    0  0.00000000000E+00  0.00000000000E+00  0.51190939376E+01  0.51190939376E+01  0.00000000000E+00 0.  1.
         -2   -1    0    0    0  501 -0.00000000000E+00 -0.00000000000E+00 -0.50611184999E+03  0.50611184999E+03  0.00000000000E+00 0.  1.
          2    1    1    2  502    0  0.34029125764E+00  0.25063451321E+02 -0.28023648625E+02  0.37598101980E+02  0.00000000000E+00 0.  1.
         -2    1    1    2    0  502 -0.34029125764E+00 -0.25063451321E+02 -0.47296910742E+03  0.47363284194E+03  0.00000000000E+00 0.  1.
</event>
<event>
 4    1  0.5847355E+003  0.3815877E+02  0.7546771E-02  0.1359627E+00
          2   -1    0    0  501    0  0.00000000000E+00  0.00000000000E+00  0.12775498138E+04  0.12775498138E+04  0.00000000000E+00 0. -1.
         -2   -1    0    0    0  501 -0.00000000000E+00 -0.00000000000E+00 -0.32197303621E+01  0.32197303621E+01  0.00000000000E+00 0. -1.
          2    1    1    2  502    0 -0.53699592149E+01 -0.37779027349E+02  0.11518725904E+04  0.11525044711E+04  0.00000000000E+00 0. -1.
         -2    1    1    2    0  502  0.53699592149E+01  0.37779027349E+02  0.12245749309E+03  0.12826507312E+03  0.00000000000E+00 0. -1.
</event>
<event>
 4    1  0.5847355E+003  0.2448802E+02  0.7546771E-02  0.1474613E+00
          2   -1    0    0  501    0  0.00000000000E+00  0.00000000000E+00  0.60002049220E+02  0.60002049220E+02  0.00000000000E+00 0.  1.
         -2   -1    0    0    0  501 -0.00000000000E+00 -0.00000000000E+00 -0.10697776514E+02  0.10697776514E+02  0.00000000000E+00 0. -1.
          2    1    1    2  502    0 -0.15148382645E+02  0.19240316692E+02  0.33718738456E+02  0.41672732167E+02  0.00000000000E+00 0.  1.
         -2    1    1    2    0  502  0.15148382645E+02 -0.19240316692E+02  0.15585534250E+02  0.29027093568E+02  0.00000000000E+00 0. -1.
</event>
<event>
 4    1  0.5847355E+003  0.2034016E+02  0.7546771E-02  0.1528898E+00
          2   -1    0    0  501    0  0.00000000000E+00  0.00000000000E+00  0.10104366575E+03  0.10104366575E+03  0.00000000000E+00 0.  1.
         -2   -1    0    0    0  501 -0.00000000000E+00 -0.00000000000E+00 -0.70212361395E+01  0.70212361395E+01  0.00000000000E+00 0. -1.
          2    1    1    2  502    0  0.15494609431E+02 -0.13177218993E+02  0.81896364753E+02  0.84384456990E+02  0.00000000000E+00 0.  1.
         -2    1    1    2    0  502 -0.15494609431E+02  0.13177218993E+02  0.12126064862E+02  0.23680444904E+02  0.00000000000E+00 0. -1.
</event>
<event>
 4    1  0.5847355E+003  0.2509663E+02  0.7546771E-02  0.1467725E+00
          2   -1    0    0  501    0  0.00000000000E+00  0.00000000000E+00  0.37334383004E+02  0.37334383004E+02  0.00000000000E+00 0.  1.
         -2   -1    0    0    0  501 -0.00000000000E+00 -0.00000000000E+00 -0.11039638097E+03  0.11039638097E+03  0.00000000000E+00 0. -1.
          2    1    1    2  502    0  0.16521042011E+02 -0.18891694669E+02  0.31456642870E+02  0.40241288961E+02  0.00000000000E+00 0.  1.
         -2    1    1    2    0  502 -0.16521042011E+02  0.18891694669E+02 -0.10451864084E+03  0.10748947502E+03  0.00000000000E+00 0. -1.
</event>
<event>
 4    1  0.5847355E+003  0.3747488E+02  0.7546771E-02  0.1363954E+00
          2   -1    0    0  501    0  0.00000000000E+00  0.00000000000E+00  0.27861791960E+04  0.27861791960E+04  0.00000000000E+00 0.  1.
         -2   -1    0    0    0  501 -0.00000000000E+00 -0.00000000000E+00 -0.56408042594E+00  0.56408042594E+00  0.00000000000E+00 0.  1.
          2    1    1    2  502    0  0.36808541499E+02  0.70353927782E+01  0.93824596502E+03  0.93899406620E+03  0.00000000000E+00 0.  1.
         -2    1    1    2    0  502 -0.36808541499E+02 -0.70353927782E+01  0.18473691505E+04  0.18477492102E+04  0.00000000000E+00 0.  1.
</event>
<event>
 4    1  0.5847355E+003  0.2459868E+02  0.7546771E-02  0.1473343E+00
          2   -1    0    0  501    0  0.00000000000E+00  0.00000000000E+00  0.12965135527E+03  0.12965135527E+03  0.00000000000E+00 0.  1.
         -2   -1    0    0    0  501 -0.00000000000E+00 -0.00000000000E+00 -0.12351397231E+03  0.12351397231E+03  0.00000000000E+00 0. -1.
          2    1    1    2  502    0  0.15610491211E+02  0.19010727488E+02  0.12723680233E+03  0.12959282026E+03  0.00000000000E+00 0.  1.
         -2    1    1    2    0  502 -0.15610491211E+02 -0.19010727488E+02 -0.12109941937E+03  0.12357250733E+03  0.00000000000E+00 0. -1.
</event>
<event>
 4    1  0.5847355E+003  0.5199101E+02  0.7546771E-02  0.1289763E+00
          2   -1    0    0  501    0  0.00000000000E+00  0.00000000000E+00  0.27881345229E+01  0.27881345229E+01  0.00000000000E+00 0.  1.
         -2   -1    0    0    0  501 -0.00000000000E+00 -0.00000000000E+00 -0.10439960439E+04  0.10439960439E+04  0.00000000000E+00 0. -1.
          2    1    1    2  502    0  0.76515037708E+01  0.51424892437E+02 -0.38078144171E+03  0.38431441740E+03  0.00000000000E+00 0.  1.
         -2    1    1    2    0  502 -0.76515037708E+01 -0.51424892437E+02 -0.66042646766E+03  0.66246976102E+03  0.00000000000E+00 0. -1.
</event>
<event>
 4    1  0.5847355E+003  0.2264753E+02  0.7546771E-02  0.1496972E+00
          2   -1    0    0  501    0  0.00000000000E+00  0.00000000000E+00  0.11931909605E+03  0.11931909605E+03  0.00000000000E+00 0.  1.
         -2   -1    0    0    0  501 -0.00000000000E+00 -0.00000000000E+00 -0.81523123202E+02  0.81523123202E+02  0.00000000000E+00 0. -1.
          2    1    1    2  502    0 -0.16908534943E+02  0.15066926599E+02  0.11663568154E+03  0.11881411128E+03  0.00000000000E+00 0.  1.
         -2    1    1    2    0  502  0.16908534943E+02 -0.15066926599E+02 -0.78839708692E+02  0.82028107973E+02  0.00000000000E+00 0. -1.
</event>
<event>
 4    1  0.5847355E+003  0.3903013E+02  0.7546771E-02  0.1354265E+00
          2   -1    0    0  501    0  0.00000000000E+00  0.00000000000E+00  0.10170214774E+04  0.10170214774E+04  0.00000000000E+00 0. -1.
         -2   -1    0    0    0  501 -0.00000000000E+00 -0.00000000000E+00 -0.33533053663E+01  0.33533053663E+01  0.00000000000E+00 0.  1.
          2    1    1    2  502    0 -0.38750532607E+02 -0.46634320827E+01  0.88633931389E+03  0.88719824770E+03  0.00000000000E+00 0. -1.
         -2    1    1    2    0  502  0.38750532607E+02  0.46634320827E+01  0.12732885816E+03  0.13317653509E+03  0.00000000000E+00 0.  1.
</event>
<event>
 4    1  0.5847355E+003  0.2456915E+02  0.7546771E-02  0.1473681E+00
          2   -1    0    0  501    0  0.00000000000E+00  0.00000000000E+00  0.20526971594E+03  0.20526971594E+03  0.00000000000E+00 0. -1.
         -2   -1    0    0    0  501 -0.00000000000E+00 -0.00000000000E+00 -0.60395063505E+01  0.60395063505E+01  0.00000000000E+00 0. -1.
          2    1    1    2  502    0 -0.37786101325E+01 -0.24276844866E+02  0.17529538927E+03  0.17700880371E+03  0.00000000000E+00 0. -1.
         -2    1    1    2    0  502  0.37786101325E+01  0.24276844866E+02  0.23934820321E+02  0.34300418583E+02  0.00000000000E+00 0. -1.
</event>
<event>
 4    1  0.5847355E+003  0.3026591E+02  0.7546771E-02  0.1417299E+00
          2   -1    0    0  501    0  0.00000000000E+00  0.00000000000E+00  0.82970803354E+02  0.82970803354E+02  0.00000000000E+00 0.  1.
         -2   -1    0    0    0  501 -0.00000000000E+00 -0.00000000000E+00 -0.17250989406E+02  0.17250989406E+02  0.00000000000E+00 0. -1.
          2    1    1    2  502    0 -0.29146661673E+02  0.81546111908E+01  0.62927163591E+02  0.69827311906E+02  0.00000000000E+00 0.  1.
         -2    1    1    2    0  502  0.29146661673E+02 -0.81546111908E+01  0.27926503572E+01  0.30394480854E+02  0.00000000000E+00 0. -1.
</event>
<event>
 4    1  0.5847355E+003  0.3887006E+02  0.7546771E-02  0.1355237E+00
          2   -1    0    0  501    0  0.00000000000E+00  0.00000000000E+00  0.33869493374E+02  0.33869493374E+02  0.00000000000E+00 0. -1.
         -2   -1    0    0    0  501 -0.00000000000E+00 -0.00000000000E+00 -0.24848763117E+03  0.24848763117E+03  0.00000000000E+00 0.  1.
          2    1    1    2  502    0 -0.15754860070E+02  0.35534011868E+02  0.20570835705E+02  0.43977731829E+02  0.00000000000E+00 0. -1.
         -2    1    1    2    0  502  0.15754860070E+02 -0.35534011868E+02 -0.23518897350E+03  0.23837939271E+03  0.00000000000E+00 0.  1.
</event>
<event>
 4    1  0.5847355E+003  0.2524125E+02  0.7546771E-02  0.1466122E+00
          2   -1    0    0  501    0  0.00000000000E+00  0.00000000000E+00  0.12750067728E+03  0.12750067728E+03  0.00000000000E+00 0.  1.
         -2   -1    0    0    0  501 -0.00000000000E+00 -0.00000000000E+00 -0.11455674616E+02  0.11455674616E+02  0.00000000000E+00 0. -1.
          2    1    1    2  502    0 -0.24615716136E+02  0.55845675817E+01  0.11019117295E+03  0.11304519217E+03  0.00000000000E+00 0.  1.
         -2    1    1    2    0  502  0.24615716136E+02 -0.55845675817E+01  0.58538297082E+01  0.25911159723E+02  0.00000000000E+00 0. -1.
</event>
<event>
 4    1  0.5847355E+003  0.2990387E+02  0.7546771E-02  0.1420434E+00
          2   -1    0    0  501    0  0.00000000000E+00  0.00000000000E+00  0.44120746215E+03  0.44120746215E+03  0.00000000000E+00 0. -1.
         -2   -1    0    0    0  501 -0.00000000000E+00 -0.00000000000E+00 -0.57505436363E+01  0.57505436363E+01  0.00000000000E+00 0. -1.
          2    1    1    2  502    0 -0.29832620820E+02 -0.20630837549E+01  0.39756248107E+03  0.39868555020E+03  0.00000000000E+00 0. -1.
         -2    1    1    2    0  502  0.29832620820E+02  0.20630837549E+01  0.37894437439E+02  0.48272455587E+02  0.00000000000E+00 0. -1.
</event>
<event>
 4    1  0.5847355E+003  0.2933340E+02  0.7546771E-02  0.1425479E+00
          2   -1    0    0  501    0  0.00000000000E+00  0.00000000000E+00  0.12313246307E+04  0.12313246307E+04  0.00000000000E+00 0.  1.
         -2   -1    0    0    0  501 -0.00000000000E+00 -0.00000000000E+00 -0.11646635952E+01  0.11646635952E+01  0.00000000000E+00 0. -1.
          2    1    1    2  502    0  0.18799531376E+01 -0.29273095492E+02  0.10048269933E+04  0.10052550596E+04  0.00000000000E+00 0.  1.
         -2    1    1    2    0  502 -0.18799531376E+01  0.29273095492E+02  0.22533297375E+03  0.22723423467E+03  0.00000000000E+00 0. -1.
</event>
<event>
 4    1  0.5847355E+003  0.9701919E+02  0.7546771E-02  0.1169076E+00
          2   -1    0    0  501    0  0.00000000000E+00  0.00000000000E+00  0.18082230060E+04  0.18082230060E+04  0.00000000000E+00 0.  1.
         -2   -1    0    0    0  501 -0.00000000000E+00 -0.00000000000E+00 -0.28955467859E+02  0.28955467859E+02  0.00000000000E+00 0. -1.
          2    1    1    2  502    0  0.77152639456E+02  0.58823410874E+02  0.17215650962E+04  0.17242966983E+04  0.00000000000E+00 0.  1.
         -2    1    1    2    0  502 -0.77152639456E+02 -0.58823410874E+02  0.57702441969E+02  0.11288177555E+03  0.00000000000E+00 0. -1.
</event>
<event>
 4    1  0.5847355E+003  0.2137687E+02  0.7546771E-02  0.1513952E+00
          2   -1    0    0  501    0  0.00000000000E+00  0.00000000000E+00  0.16034267682E+03  0.16034267682E+03  0.00000000000E+00 0.  1.
         -2   -1    0    0    0  501 -0.00000000000E+00 -0.00000000000E+00 -0.52301274024E+01  0.52301274024E+01  0.00000000000E+00 0. -1.
          2    1    1    2  502    0  0.15824234254E+02 -0.14372334709E+02  0.13340413312E+03  0.13510600700E+03  0.00000000000E+00 0.  1.
         -2    1    1    2    0  502 -0.15824234254E+02  0.14372334709E+02  0.21708416301E+02  0.30466797223E+02  0.00000000000E+00 0. -1.
</event>
<event>
 4    1  0.5847355E+003  0.2018644E+02  0.7546771E-02  0.1531205E+00
          2   -1    0    0  501    0  0.00000000000E+00  0.00000000000E+00  0.77804744977E+03  0.77804744977E+03  0.00000000000E+00 0.  1.
         -2   -1    0    0    0  501 -0.00000000000E+00 -0.00000000000E+00 -0.82332124782E+01  0.82332124782E+01  0.00000000000E+00 0. -1.
          2    1    1    2  502    0 -0.12017005436E+02  0.16219864286E+02  0.76533763480E+03  0.76560380593E+03  0.00000000000E+00 0.  1.
         -2    1    1    2    0  502  0.12017005436E+02 -0.16219864286E+02  0.44766024882E+01  0.20676856312E+02  0.00000000000E+00 0. -1.
</event>
<event>
 4    1  0.5847355E+003  0.2116369E+02  0.7546771E-02  0.1516940E+00
          2   -1    0    0  501    0  0.00000000000E+00  0.00000000000E+00  0.43748452855E+01  0.43748452855E+01  0.00000000000E+00 0.  1.
         -2   -1    0    0    0  501 -0.00000000000E+00 -0.00000000000E+00 -0.26437371318E+03  0.26437371318E+03  0.00000000000E+00 0.  1.
          2    1    1    2  502    0 -0.97846152866E+01  0.18766011030E+02 -0.24814267778E+02  0.32613643643E+02  0.00000000000E+00 0.  1.
         -2    1    1    2    0  502  0.97846152866E+01 -0.18766011030E+02 -0.23518460011E+03  0.23613491482E+03  0.00000000000E+00 0.  1.
</event>
<event>
 4    1  0.5847355E+003  0.2917011E+02  0.7546771E-02  0.1426948E+00
          2   -1    0    0  501    0  0.00000000000E+00  0.00000000000E+00  0.54040135908E+03  0.54040135908E+03  0.00000000000E+00 0. -1.
         -2   -1    0    0    0  501 -0.00000000000E+00 -0.00000000000E+00 -0.19129903093E+01  0.19129903093E+01  0.00000000000E+00 0. -1.
          2    1    1    2  502    0 -0.16707759310E+02 -0.23911207429E+02  0.38329503059E+03  0.38440340209E+03  0.00000000000E+00 0. -1.
         -2    1    1    2    0  502  0.16707759310E+02  0.23911207429E+02  0.15519333818E+03  0.15791094730E+03  0.00000000000E+00 0. -1.
</event>
<event>
 4    1  0.5847355E+003  0.2605154E+02  0.7546771E-02  0.1457375E+00
          2   -1    0    0  501    0  0.00000000000E+00  0.00000000000E+00  0.51337690889E+02  0.51337690889E+02  0.00000000000E+00 0. -1.
         -2   -1    0    0    0  501 -0.00000000000E+00 -0.00000000000E+00 -0.74823115392E+02  0.74823115392E+02  0.00000000000E+00 0.  1.
          2    1    1    2  502    0  0.79568493627E+01  0.24806676271E+02  0.45494439861E+02  0.52425439413E+02  0.00000000000E+00 0. -1.
         -2    1    1    2    0  502 -0.79568493627E+01 -0.24806676271E+02 -0.68979864364E+02  0.73735366867E+02  0.00000000000E+00 0.  1.
</event>
<event>
 4    1  0.5847355E+003  0.3694796E+02  0.7546771E-02  0.1367363E+00
          2   -1    0    0  501    0  0.00000000000E+00  0.00000000000E+00  0.20710628816E+04  0.20710628816E+04  0.00000000000E+00 0. -1.
         -2   -1    0    0    0  501 -0.00000000000E+00 -0.00000000000E+00 -0.67351824954E+01  0.67351824954E+01  0.00000000000E+00 0.  1.
          2    1    1    2  502    0 -0.34610612530E+02 -0.12932809653E+02  0.20189169790E+04  0.20192550409E+04  0.00000000000E+00 0. -1.
         -2    1    1    2    0  502  0.34610612530E+02  0.12932809653E+02  0.45410720090E+02  0.58543023191E+02  0.00000000000E+00 0.  1.
</event>
<event>
 4    1  0.5847355E+003  0.1054841E+03  0.7546771E-02  0.1154630E+00
          2   -1    0    0  501    0  0.00000000000E+00  0.00000000000E+00  0.15548418227E+04  0.15548418227E+04  0.00000000000E+00 0. -1.
         -2   -1    0    0    0  501 -0.00000000000E+00 -0.00000000000E+00 -0.10789187666E+03  0.10789187666E+03  0.00000000000E+00 0. -1.
          2    1    1    2  502    0 -0.10481943320E+03 -0.11822862126E+02  0.15267972249E+04  0.15304367545E+04  0.00000000000E+00 0. -1.
         -2    1    1    2    0  502  0.10481943320E+03  0.11822862126E+02 -0.79847278920E+02  0.13229694477E+03  0.00000000000E+00 0. -1.
</event>
<event>
 4    1  0.5847355E+003  0.2109739E+02  0.7546771E-02  0.1517879E+00
          2   -1    0    0  501    0  0.00000000000E+00  0.00000000000E+00  0.12626721291E+04  0.12626721291E+04  0.00000000000E+00 0. -1.
         -2   -1    0    0    0  501 -0.00000000000E+00 -0.00000000000E+00 -0.20478440336E+01  0.20478440336E+01  0.00000000000E+00 0.  1.
          2    1    1    2  502    0 -0.21093301340E+02 -0.41558326059E+00  0.12056779348E+04  0.12058625057E+04  0.00000000000E+00 0. -1.
         -2    1    1    2    0  502  0.21093301340E+02  0.41558326059E+00  0.54946350264E+02  0.58857467480E+02  0.00000000000E+00 0.  1.
</event>
<event>
 4    1  0.5847355E+003  0.2134262E+02  0.7546771E-02  0.1514429E+00
          2   -1    0    0  501    0  0.00000000000E+00  0.00000000000E+00  0.13498567693E+04  0.13498567693E+04  0.00000000000E+00 0. -1.
         -2   -1    0    0    0  501 -0.00000000000E+00 -0.00000000000E+00 -0.11960245423E+02  0.11960245423E+02  0.00000000000E+00 0. -1.
          2    1    1    2  502    0 -0.13579785190E+02  0.16465019798E+02  0.13401823989E+04  0.13403523305E+04  0.00000000000E+00 0. -1.
         -2    1    1    2    0  502  0.13579785190E+02 -0.16465019798E+02 -0.22858750914E+01  0.21464684197E+02  0.00000000000E+00 0. -1.
</event>
<event>
 4    1  0.5847355E+003  0.2294785E+02  0.7546771E-02  0.1493154E+00
          2   -1    0    0  501    0  0.00000000000E+00  0.00000000000E+00  0.10202614424E+04  0.10202614424E+04  0.00000000000E+00 0.  1.
         -2   -1    0    0    0  501 -0.00000000000E+00 -0.00000000000E+00 -0.52615917029E+00  0.52615917029E+00  0.00000000000E+00 0.  1.
          2    1    1    2  502    0 -0.22736882162E+02 -0.31045249458E+01  0.58027728237E+03  0.58073085704E+03  0.00000000000E+00 0.  1.
         -2    1    1    2    0  502  0.22736882162E+02  0.31045249458E+01  0.43945800088E+03  0.44005674455E+03  0.00000000000E+00 0.  1.
</event>
<event>
 4    1  0.5847355E+003  0.2940889E+02  0.7546771E-02  0.1424804E+00
          2   -1    0    0  501    0  0.00000000000E+00  0.00000000000E+00  0.87306316594E+03  0.87306316594E+03  0.00000000000E+00 0. -1.
         -2   -1    0    0    0  501 -0.00000000000E+00 -0.00000000000E+00 -0.37339988927E+01  0.37339988927E+01  0.00000000000E+00 0. -1.
          2    1    1    2  502    0 -0.99804861201E+01 -0.27663562289E+02  0.81043633924E+03  0.81096975451E+03  0.00000000000E+00 0. -1.
         -2    1    1    2    0  502  0.99804861201E+01  0.27663562289E+02  0.58892827813E+02  0.65827410321E+02  0.00000000000E+00 0. -1.
</event>
<event>
 4    1  0.5847355E+003  0.2259313E+02  0.7546771E-02  0.1497671E+00
          2   -1    0    0  501    0  0.00000000000E+00  0.00000000000E+00  0.12227977514E+03  0.12227977514E+03  0.00000000000E+00 0. -1.
         -2   -1    0    0    0  501 -0.00000000000E+00 -0.00000000000E+00 -0.14913753344E+03  0.14913753344E+03  0.00000000000E+00 0. -1.
          2    1    1    2  502    0 -0.20764634377E+02 -0.89038912380E+01  0.12036701714E+03  0.12246904970E+03  0.00000000000E+00 0. -1.
         -2    1    1    2    0  502  0.20764634377E+02  0.89038912380E+01 -0.14722477544E+03  0.14894825888E+03  0.00000000000E+00 0. -1.
</event>
<event>
 4    1  0.5847355E+003  0.2109481E+02  0.7546771E-02  0.1517915E+00
          2   -1    0    0  501    0  0.00000000000E+00  0.00000000000E+00  0.16025683659E+04  0.16025683659E+04  0.00000000000E+00 0. -1.
         -2   -1    0    0    0  501 -0.00000000000E+00 -0.00000000000E+00 -0.31313157965E+00  0.31313157965E+00  0.00000000000E+00 0. -1.
          2    1    1    2  502    0  0.20626801225E+02  0.44188351799E+01  0.10708174506E+04  0.10710252114E+04  0.00000000000E+00 0. -1.
         -2    1    1    2    0  502 -0.20626801225E+02 -0.44188351799E+01  0.53143778380E+03  0.53185628612E+03  0.00000000000E+00 0. -1.
</event>
<event>
 4    1  0.5847355E+003  0.2017898E+02  0.7546771E-02  0.1531317E+00
          2   -1    0    0  501    0  0.00000000000E+00  0.00000000000E+00  0.41693449679E+03  0.41693449679E+03  0.00000000000E+00 0. -1.
         -2   -1    0    0    0  501 -0.00000000000E+00 -0.00000000000E+00 -0.20966273347E+01  0.20966273347E+01  0.00000000000E+00 0. -1.
          2    1    1    2  502    0 -0.22990239243E+01 -0.20047588657E+02  0.36055020579E+03  0.36111444476E+03  0.00000000000E+00 0. -1.
         -2    1    1    2    0  502  0.22990239243E+01  0.20047588657E+02  0.54287663670E+02  0.57916679366E+02  0.00000000000E+00 0. -1.
</event>
<event>
 4    1  0.5847355E+003  0.2110789E+02  0.7546771E-02  0.1517730E+00
          2   -1    0    0  501    0  0.00000000000E+00  0.00000000000E+00  0.76365509801E+03  0.76365509801E+03  0.00000000000E+00 0.  1.
         -2   -1    0    0    0  501 -0.00000000000E+00 -0.00000000000E+00 -0.25969163613E+02  0.25969163613E+02  0.00000000000E+00 0.  1.
          2    1    1    2  502    0 -0.88447518324E+01 -0.19165425432E+02  0.75919488975E+03  0.75948826442E+03  0.00000000000E+00 0.  1.
         -2    1    1    2    0  502  0.88447518324E+01  0.19165425432E+02 -0.21508955355E+02  0.30135997203E+02  0.00000000000E+00 0.  1.
</event>
<event>
 4    1  0.5847355E+003  0.2147609E+02  0.7546771E-02  0.1512575E+00
          2   -1    0    0  501    0  0.00000000000E+00  0.00000000000E+00  0.36358693953E+03  0.36358693953E+03  0.00000000000E+00 0. -1.
         -2   -1    0    0    0  501 -0.00000000000E+00 -0.00000000000E+00 -0.41131063182E+01  0.41131063182E+01  0.00000000000E+00 0.  1.
          2    1    1    2  502    0  0.21443232581E+02 -0.11876106882E+01  0.33262976028E+03  0.33332233658E+03  0.00000000000E+00 0. -1.
         -2    1    1    2    0  502 -0.21443232581E+02  0.11876106882E+01  0.26844072937E+02  0.34377709268E+02  0.00000000000E+00 0.  1.
</event>
<event>
 4    1  0.5847355E+003  0.2209975E+02  0.7546771E-02  0.1504123E+00
          2   -1    0    0  501    0  0.00000000000E+00  0.00000000000E+00  0.55554420205E+01  0.55554420205E+01  0.00000000000E+00 0.  1.
         -2   -1    0    0    0  501 -0.00000000000E+00 -0.00000000000E+00 -0.11906229272E+03  0.11906229272E+03  0.00000000000E+00 0.  1.
          2    1    1    2  502    0  0.18602407672E+02 -0.11931028838E+02 -0.24883392800E+02  0.33280358435E+02  0.00000000000E+00 0.  1.
         -2    1    1    2    0  502 -0.18602407672E+02  0.11931028838E+02 -0.88623457902E+02  0.91337376308E+02  0.00000000000E+00 0.  1.
</event>
<event>
 4    1  0.6171965E+003  0.2515269E+02  0.7546771E-02  0.1467102E+00
          2   -1    0    0  501    0  0.00000000000E+00  0.00000000000E+00  0.10797747140E+04  0.10797747140E+04  0.00000000000E+00 0.  1.
         -2   -1    0    0    0  501 -0.00000000000E+00 -0.00000000000E+00 -0.58721658710E+03  0.58721658710E+03  0.00000000000E+00 0. -1.
          2    1    1    2  502    0  0.25088923557E+02 -0.17899441855E+01  0.10793587849E+04  0.10796518164E+04  0.00000000000E+00 0.  1.
         -2    1    1    2    0  502 -0.25088923557E+02  0.17899441855E+01 -0.58680065806E+03  0.58733948470E+03  0.00000000000E+00 0. -1.
</event>
<event>
 4    1  0.5847355E+003  0.2170480E+02  0.7546771E-02  0.1509435E+00
          2   -1    0    0  501    0  0.00000000000E+00  0.00000000000E+00  0.40073060248E+03  0.40073060248E+03  0.00000000000E+00 0. -1.
         -2   -1    0    0    0  501 -0.00000000000E+00 -0.00000000000E+00 -0.48106477858E+01  0.48106477858E+01  0.00000000000E+00 0. -1.
          2    1    1    2  502    0 -0.21143028820E+02  0.49062068478E+01  0.37422184839E+03  0.37485075743E+03  0.00000000000E+00 0. -1.
         -2    1    1    2    0  502  0.21143028820E+02 -0.49062068478E+01  0.21698106303E+02  0.30690492834E+02  0.00000000000E+00 0. -1.
</event>
<event>
 4    1  0.5847355E+003  0.3090980E+02  0.7546771E-02  0.1411851E+00
          2   -1    0    0  501    0  0.00000000000E+00  0.00000000000E+00  0.32369929075E+03  0.32369929075E+03  0.00000000000E+00 0. -1.
         -2   -1    0    0    0  501 -0.00000000000E+00 -0.00000000000E+00 -0.20215242432E+03  0.20215242432E+03  0.00000000000E+00 0.  1.
          2    1    1    2  502    0  0.24622944936E+02  0.18684925857E+02  0.32177279060E+03  0.32325399401E+03  0.00000000000E+00 0. -1.
         -2    1    1    2    0  502 -0.24622944936E+02 -0.18684925857E+02 -0.20022592417E+03  0.20259772107E+03  0.00000000000E+00 0.  1.
</event>
<event>
 4    1  0.5847355E+003  0.2063395E+02  0.7546771E-02  0.1524556E+00
          2   -1    0    0  501    0  0.00000000000E+00  0.00000000000E+00  0.61573726875E+02  0.61573726875E+02  0.00000000000E+00 0.  1.
         -2   -1    0    0    0  501 -0.00000000000E+00 -0.00000000000E+00 -0.75922182661E+01  0.75922182661E+01  0.00000000000E+00 0.  1.
          2    1    1    2  502    0  0.10779351849E+02  0.17594468900E+02  0.37322168066E+02  0.42646265854E+02  0.00000000000E+00 0.  1.
         -2    1    1    2    0  502 -0.10779351849E+02 -0.17594468900E+02  0.16659340543E+02  0.26519679287E+02  0.00000000000E+00 0.  1.
</event>
<event>
 4    1  0.5847355E+003  0.2078344E+02  0.7546771E-02  0.1522379E+00
          2   -1    0    0  501    0  0.00000000000E+00  0.00000000000E+00  0.40317625788E+02  0.40317625788E+02  0.00000000000E+00 0. -1.
         -2   -1    0    0    0  501 -0.00000000000E+00 -0.00000000000E+00 -0.72289114584E+02  0.72289114584E+02  0.00000000000E+00 0.  1.
          2    1    1    2  502    0 -0.17061147184E+02 -0.11868815654E+02  0.35978134293E+02  0.41549701268E+02  0.00000000000E+00 0. -1.
         -2    1    1    2    0  502  0.17061147184E+02  0.11868815654E+02 -0.67949623089E+02  0.71057039104E+02  0.00000000000E+00 0.  1.
</event>
<event>
 4    1  0.5847355E+003  0.2241666E+02  0.7546771E-02  0.1499956E+00
          2   -1    0    0  501    0  0.00000000000E+00  0.00000000000E+00  0.40942951278E+03  0.40942951278E+03  0.00000000000E+00 0. -1.
         -2   -1    0    0    0  501 -0.00000000000E+00 -0.00000000000E+00 -0.14052368199E+04  0.14052368199E+04  0.00000000000E+00 0. -1.
          2    1    1    2  502    0 -0.21634206743E+02  0.58709064658E+01  0.40903319403E+03  0.40964699469E+03  0.00000000000E+00 0. -1.
         -2    1    1    2    0  502  0.21634206743E+02 -0.58709064658E+01 -0.14048405012E+04  0.14050193380E+04  0.00000000000E+00 0. -1.
</event>
<event>
 4    1  0.5847355E+003  0.2200353E+02  0.7546771E-02  0.1505405E+00
          2   -1    0    0  501    0  0.00000000000E+00  0.00000000000E+00  0.10307025891E+04  0.10307025891E+04  0.00000000000E+00 0.  1.
         -2   -1    0    0    0  501 -0.00000000000E+00 -0.00000000000E+00 -0.67880733602E+00  0.67880733602E+00  0.00000000000E+00 0.  1.
          2    1    1    2  502    0  0.21010670342E+02 -0.65350703065E+01  0.80120950017E+03  0.80151158355E+03  0.00000000000E+00 0.  1.
         -2    1    1    2    0  502 -0.21010670342E+02  0.65350703065E+01  0.22881428164E+03  0.22986981292E+03  0.00000000000E+00 0.  1.
</event>
<event>
 4    1  0.5847355E+003  0.2120651E+02  0.7546771E-02  0.1516337E+00
          2   -1    0    0  501    0  0.00000000000E+00  0.00000000000E+00  0.32585652476E+00  0.32585652476E+00  0.00000000000E+00 0.  1.
         -2   -1    0    0    0  501 -0.00000000000E+00 -0.00000000000E+00 -0.13894467670E+04  0.13894467670E+04  0.00000000000E+00 0.  1.
          2    1    1    2  502    0  0.19371303245E+02  0.86295224686E+01 -0.63758083372E+03  0.63793340998E+03  0.00000000000E+00 0.  1.
         -2    1    1    2    0  502 -0.19371303245E+02 -0.86295224686E+01 -0.75154007676E+03  0.75183921355E+03  0.00000000000E+00 0.  1.
</event>
<event>
 4    1  0.5847355E+003  0.5727532E+02  0.7546771E-02  0.1269382E+00
          2   -1    0    0  501    0  0.00000000000E+00  0.00000000000E+00  0.22756131615E+04  0.22756131615E+04  0.00000000000E+00 0.  1.
         -2   -1    0    0    0  501 -0.00000000000E+00 -0.00000000000E+00 -0.14523150097E+01  0.14523150097E+01  0.00000000000E+00 0.  1.
          2    1    1    2  502    0 -0.22591937961E+00 -0.57274843590E+02  0.10391559738E+04  0.10407332015E+04  0.00000000000E+00 0.  1.
         -2    1    1    2    0  502  0.22591937961E+00  0.57274843590E+02  0.12350048727E+04  0.12363322751E+04  0.00000000000E+00 0.  1.
</event>
<event>
 4    1  0.5847355E+003  0.2787326E+02  0.7546771E-02  0.1439028E+00
          2   -1    0    0  501    0  0.00000000000E+00  0.00000000000E+00  0.45986917884E+03  0.45986917884E+03  0.00000000000E+00 0.  1.
         -2   -1    0    0    0  501 -0.00000000000E+00 -0.00000000000E+00 -0.18356059962E+01  0.18356059962E+01  0.00000000000E+00 0.  1.
          2    1    1    2  502    0 -0.27512041416E+02 -0.44728179015E+01  0.29416118351E+03  0.29547879857E+03  0.00000000000E+00 0.  1.
         -2    1    1    2    0  502  0.27512041416E+02  0.44728179015E+01  0.16387238934E+03  0.16622598627E+03  0.00000000000E+00 0.  1.
</event>
<event>
 4    1  0.5847355E+003  0.2022433E+02  0.7546771E-02  0.1530634E+00
          2   -1    0    0  501    0  0.00000000000E+00  0.00000000000E+00  0.29805904236E+02  0.29805904236E+02  0.00000000000E+00 0.  1.
         -2   -1    0    0    0  501 -0.00000000000E+00 -0.00000000000E+00 -0.24063393598E+02  0.24063393598E+02  0.00000000000E+00 0.  1.
          2    1    1    2  502    0  0.16004498478E+02 -0.12364441761E+02  0.20527711994E+02  0.28816841453E+02  0.00000000000E+00 0.  1.
         -2    1    1    2    0  502 -0.16004498478E+02  0.12364441761E+02 -0.14785201357E+02  0.25052456382E+02  0.00000000000E+00 0.  1.
</event>
<event>
 4    1  0.5847355E+003  0.3057849E+02  0.7546771E-02  0.1414635E+00
          2   -1    0    0  501    0  0.00000000000E+00  0.00000000000E+00  0.88666360393E+03  0.88666360393E+03  0.00000000000E+00 0. -1.
         -2   -1    0    0    0  501 -0.00000000000E+00 -0.00000000000E+00 -0.15613630058E+01  0.15613630058E+01  0.00000000000E+00 0. -1.
          2    1    1    2  502    0  0.28851656517E+02 -0.10130457611E+02  0.69557328027E+03  0.69624509512E+03  0.00000000000E+00 0. -1.
         -2    1    1    2    0  502 -0.28851656517E+02  0.10130457611E+02  0.18952896066E+03  0.19197987182E+03  0.00000000000E+00 0. -1.
</event>
<event>
 4    1  0.5847355E+003  0.2966707E+02  0.7546771E-02  0.1422512E+00
          2   -1    0    0  501    0  0.00000000000E+00  0.00000000000E+00  0.25669316404E+03  0.25669316404E+03  0.00000000000E+00 0.  1.
         -2   -1    0    0    0  501 -0.00000000000E+00 -0.00000000000E+00 -0.31997647338E+02  0.31997647338E+02  0.00000000000E+00 0. -1.
          2    1    1    2  502    0  0.16295480299E+02 -0.24790970147E+02  0.24874033516E+03  0.25050327187E+03  0.00000000000E+00 0.  1.
         -2    1    1    2    0  502 -0.16295480299E+02  0.24790970147E+02 -0.24044818462E+02  0.38187539511E+02  0.00000000000E+00 0. -1.
</event>
<event>
 4    1  0.5847355E+003  0.2465039E+02  0.7546771E-02  0.1472753E+00
          2   -1    0    0  501    0  0.00000000000E+00  0.00000000000E+00  0.41731927035E+02  0.41731927035E+02  0.00000000000E+00 0. -1.
         -2   -1    0    0    0  501 -0.00000000000E+00 -0.00000000000E+00 -0.15819006110E+02  0.15819006110E+02  0.00000000000E+00 0.  1.
          2    1    1    2  502    0 -0.15641874349E+02 -0.19051865381E+02  0.21072488806E+02  0.32429794821E+02  0.00000000000E+00 0. -1.
         -2    1    1    2    0  502  0.15641874349E+02  0.19051865381E+02  0.48404321191E+01  0.25121138325E+02  0.00000000000E+00 0.  1.
</event>
<event>
 4    1  0.5847355E+003  0.2066491E+02  0.7546771E-02  0.1524103E+00
          2   -1    0    0  501    0  0.00000000000E+00  0.00000000000E+00  0.22944126980E+03  0.22944126980E+03  0.00000000000E+00 0.  1.
         -2   -1    0    0    0  501 -0.00000000000E+00 -0.00000000000E+00 -0.20697918122E+01  0.20697918122E+01  0.00000000000E+00 0.  1.
          2    1    1    2  502    0  0.34972767272E+01 -0.20366827244E+02  0.15043221364E+03  0.15184495216E+03  0.00000000000E+00 0.  1.
         -2    1    1    2    0  502 -0.34972767272E+01  0.20366827244E+02  0.76939264346E+02  0.79666109448E+02  0.00000000000E+00 0.  1.
</event>
<event>
 4    1  0.5847355E+003  0.2095987E+02  0.7546771E-02  0.1519839E+00
          2   -1    0    0  501    0  0.00000000000E+00  0.00000000000E+00  0.50820745026E+03  0.50820745026E+03  0.00000000000E+00 0. -1.
         -2   -1    0    0    0  501 -0.00000000000E+00 -0.00000000000E+00 -0.35646890058E+01  0.35646890058E+01  0.00000000000E+00 0. -1.
          2    1    1    2  502    0  0.20718254647E+02  0.31733053263E+01  0.47503027127E+03  0.47549245479E+03  0.00000000000E+00 0. -1.
         -2    1    1    2    0  502 -0.20718254647E+02 -0.31733053263E+01  0.29612489981E+02  0.36279684469E+02  0.00000000000E+00 0. -1.
</event>
<event>
 4    1  0.5847355E+003  0.6139895E+02  0.7546771E-02  0.1255152E+00
          2   -1    0    0  501    0  0.00000000000E+00  0.00000000000E+00  0.89358961775E+02  0.89358961775E+02  0.00000000000E+00 0.  1.
         -2   -1    0    0    0  501 -0.00000000000E+00 -0.00000000000E+00 -0.52041128494E+03  0.52041128494E+03  0.00000000000E+00 0.  1.
          2    1    1    2  502    0 -0.40808752962E+02 -0.45874571275E+02  0.76739955827E+02  0.98279455780E+02  0.00000000000E+00 0.  1.
         -2    1    1    2    0  502  0.40808752962E+02  0.45874571275E+02 -0.50779227899E+03  0.51149079094E+03  0.00000000000E+00 0.  1.
</event>
<event>
 4    1  0.5847355E+003  0.5178418E+02  0.7546771E-02  0.1290617E+00
          2   -1    0    0  501    0  0.00000000000E+00  0.00000000000E+00  0.47484797226E+03  0.47484797226E+03  0.00000000000E+00 0. -1.
         -2   -1    0    0    0  501 -0.00000000000E+00 -0.00000000000E+00 -0.64266941204E+01  0.64266941204E+01  0.00000000000E+00 0. -1.
          2    1    1    2  502    0  0.79437342159E+01 -0.51171261106E+02  0.31801227422E+03  0.32220088056E+03  0.00000000000E+00 0. -1.
         -2    1    1    2    0  502 -0.79437342159E+01  0.51171261106E+02  0.15040900392E+03  0.15907378583E+03  0.00000000000E+00 0. -1.
</event>
<event>
 4    1  0.5847355E+003  0.2924999E+02  0.7546771E-02  0.1426228E+00
          2   -1    0    0  501    0  0.00000000000E+00  0.00000000000E+00  0.11744281857E+04  0.11744281857E+04  0.00000000000E+00 0. -1.
         -2   -1    0    0    0  501 -0.00000000000E+00 -0.00000000000E+00 -0.19512628188E+02  0.19512628188E+02  0.00000000000E+00 0.  1.
          2    1    1    2  502    0  0.14809732536E+02 -0.25223670337E+02  0.11631784219E+04  0.11635461327E+04  0.00000000000E+00 0. -1.
         -2    1    1    2    0  502 -0.14809732536E+02  0.25223670337E+02 -0.82628643131E+01  0.30394681274E+02  0.00000000000E+00 0.  1.
</event>
<event>
 4    1  0.5847355E+003  0.8833701E+02  0.7546771E-02  0.1185713E+00
          2   -1    0    0  501    0  0.00000000000E+00  0.00000000000E+00  0.16558210258E+04  0.16558210258E+04  0.00000000000E+00 0.  1.
         -2   -1    0    0    0  501 -0.00000000000E+00 -0.00000000000E+00 -0.50244839006E+01  0.50244839006E+01  0.00000000000E+00 0.  1.
          2    1    1    2  502    0 -0.54870210497E+02 -0.69229239004E+02  0.10322521264E+04  0.10360250383E+04  0.00000000000E+00 0.  1.
         -2    1    1    2    0  502  0.54870210497E+02  0.69229239004E+02  0.61854441559E+03  0.62482047148E+03  0.00000000000E+00 0.  1.
</event>
<event>
 4    1  0.5847355E+003  0.3977641E+02  0.7546771E-02  0.1349801E+00
          2   -1    0    0  501    0  0.00000000000E+00  0.00000000000E+00  0.25597225391E+04  0.25597225391E+04  0.00000000000E+00 0. -1.
         -2   -1    0    0    0  501 -0.00000000000E+00 -0.00000000000E+00 -0.11913782194E+01  0.11913782194E+01  0.00000000000E+00 0. -1.
          2    1    1    2  502    0  0.37098858653E+02  0.14347026352E+02  0.21674909572E+04  0.21678559020E+04  0.00000000000E+00 0. -1.
         -2    1    1    2    0  502 -0.37098858653E+02 -0.14347026352E+02  0.39104020366E+03  0.39305801525E+03  0.00000000000E+00 0. -1.
</event>
<event>
 4    1  0.5847355E+003  0.2641858E+02  0.7546771E-02  0.1453538E+00
          2   -1    0    0  501    0  0.00000000000E+00  0.00000000000E+00  0.15603990251E+03  0.15603990251E+03  0.00000000000E+00 0.  1.
         -2   -1    0    0    0  501 -0.00000000000E+00 -0.00000000000E+00 -0.16354110795E+02  0.16354110795E+02  0.00000000000E+00 0.  1.
          2    1    1    2  502    0 -0.23340959652E+02 -0.12375007541E+02  0.14331292293E+03  0.14572760578E+03  0.00000000000E+00 0.  1.
         -2    1    1    2    0  502  0.23340959652E+02  0.12375007541E+02 -0.36271312152E+01  0.26666407519E+02  0.00000000000E+00 0.  1.
</event>
<event>
 4    1  0.5847355E+003  0.2170295E+02  0.7546771E-02  0.1509461E+00
          2   -1    0    0  501    0  0.00000000000E+00  0.00000000000E+00  0.42529753237E+03  0.42529753237E+03  0.00000000000E+00 0.  1.
         -2   -1    0    0    0  501 -0.00000000000E+00 -0.00000000000E+00 -0.17435570377E+02  0.17435570377E+02  0.00000000000E+00 0.  1.
          2    1    1    2  502    0  0.16642116486E+02 -0.13930474447E+02  0.41815162265E+03  0.41871445841E+03  0.00000000000E+00 0.  1.
         -2    1    1    2    0  502 -0.16642116486E+02  0.13930474447E+02 -0.10289660653E+02  0.24018644338E+02  0.00000000000E+00 0.  1.
</event>
<event>
 4    1  0.5847355E+003  0.3375235E+02  0.7546771E-02  0.1389553E+00
          2   -1    0    0  501    0  0.00000000000E+00  0.00000000000E+00  0.19473097537E+03  0.19473097537E+03  0.00000000000E+00 0. -1.
         -2   -1    0    0    0  501 -0.00000000000E+00 -0.00000000000E+00 -0.90343388926E+01  0.90343388926E+01  0.00000000000E+00 0.  1.
          2    1    1    2  502    0  0.15673156719E+02 -0.29892698156E+02  0.15333307553E+03  0.15700399134E+03  0.00000000000E+00 0. -1.
         -2    1    1    2    0  502 -0.15673156719E+02  0.29892698156E+02  0.32363560953E+02  0.46761322930E+02  0.00000000000E+00 0.  1.
</event>
<event>
 4    1  0.5847355E+003  0.5319253E+02  0.7546771E-02  0.1284894E+00
          2   -1    0    0  501    0  0.00000000000E+00  0.00000000000E+00  0.21944205882E+03  0.21944205882E+03  0.00000000000E+00 0. -1.
         -2   -1    0    0    0  501 -0.00000000000E+00 -0.00000000000E+00 -0.46471124990E+02  0.46471124990E+02  0.00000000000E+00 0.  1.
          2    1    1    2  502    0  0.20380983025E+02  0.49133087712E+02  0.19950180907E+03  0.20647134571E+03  0.00000000000E+00 0. -1.
         -2    1    1    2    0  502 -0.20380983025E+02 -0.49133087712E+02 -0.26530875231E+02  0.59441838108E+02  0.00000000000E+00 0.  1.
</event>
<event>
 4    1  0.5847355E+003  0.2063151E+02  0.7546771E-02  0.1524592E+00
          2   -1    0    0  501    0  0.00000000000E+00  0.00000000000E+00  0.27607700873E+03  0.27607700873E+03  0.00000000000E+00 0. -1.
         -2   -1    0    0    0  501 -0.00000000000E+00 -0.00000000000E+00 -0.22582556832E+02  0.22582556832E+02  0.00000000000E+00 0.  1.
          2    1    1    2  502    0 -0.19191566722E+02 -0.75725117296E+01  0.27088918495E+03  0.27167371917E+03  0.00000000000E+00 0. -1.
         -2    1    1    2    0  502  0.19191566722E+02  0.75725117296E+01 -0.17394733053E+02  0.26985846386E+02  0.00000000000E+00 0.  1.
</event>
<event>
 4    1  0.5847355E+003  0.2194327E+02  0.7546771E-02  0.1506212E+00
          2   -1    0    0  501    0  0.00000000000E+00  0.00000000000E+00  0.23652007440E+03  0.23652007440E+03  0.00000000000E+00 0. -1.
         -2   -1    0    0    0  501 -0.00000000000E+00 -0.00000000000E+00 -0.25738796933E+01  0.25738796933E+01  0.00000000000E+00 0. -1.
          2    1    1    2  502    0 -0.12945982413E+01 -0.21905048770E+02  0.17163295507E+03  0.17302999282E+03  0.00000000000E+00 0. -1.
         -2    1    1    2    0  502  0.12945982413E+01  0.21905048770E+02  0.62313239637E+02  0.66063961282E+02  0.00000000000E+00 0. -1.
</event>
<event>
 4    1  0.5847355E+003  0.3081370E+02  0.7546771E-02  0.1412654E+00
          2   -1    0    0  501    0  0.00000000000E+00  0.00000000000E+00  0.17731313550E+02  0.17731313550E+02  0.00000000000E+00 0.  1.
         -2   -1    0    0    0  501 -0.00000000000E+00 -0.00000000000E+00 -0.91416681358E+02  0.91416681358E+02  0.00000000000E+00 0.  1.
          2    1    1    2  502    0 -0.80792936941E+01  0.29735657858E+02 -0.17181509084E+01  0.30861567967E+02  0.00000000000E+00 0.  1.
         -2    1    1    2    0  502  0.80792936941E+01 -0.29735657858E+02 -0.71967216900E+02  0.78286426941E+02  0.00000000000E+00 0.  1.
</event>
<event>
 4    1  0.5847355E+003  0.2377145E+02  0.7546771E-02  0.1483032E+00
          2   -1    0    0  501    0  0.00000000000E+00  0.00000000000E+00  0.12445040107E+03  0.12445040107E+03  0.00000000000E+00 0. -1.
         -2   -1    0    0    0  501 -0.00000000000E+00 -0.00000000000E+00 -0.31163484785E+02  0.31163484785E+02  0.00000000000E+00 0. -1.
          2    1    1    2  502    0 -0.23489982861E+02 -0.36472879734E+01  0.11855899648E+03  0.12091864063E+03  0.00000000000E+00 0. -1.
         -2    1    1    2    0  502  0.23489982861E+02  0.36472879734E+01 -0.25272080194E+02  0.34695245231E+02  0.00000000000E+00 0. -1.
</event>
<event>
 4    1  0.5847355E+003  0.3969680E+02  0.7546771E-02  0.1350272E+00
          2   -1    0    0  501    0  0.00000000000E+00  0.00000000000E+00  0.50732721306E+03  0.50732721306E+03  0.00000000000E+00 0.  1.
         -2   -1    0    0    0  501 -0.00000000000E+00 -0.00000000000E+00 -0.19240077009E+03  0.19240077009E+03  0.00000000000E+00 0. -1.
          2    1    1    2  502    0 -0.37797470323E+02  0.12132072736E+02  0.50449158783E+03  0.50605098374E+03  0.00000000000E+00 0.  1.
         -2    1    1    2    0  502  0.37797470323E+02 -0.12132072736E+02 -0.18956514486E+03  0.19367699941E+03  0.00000000000E+00 0. -1.
</event>
<event>
 4    1  0.5847355E+003  0.3704402E+02  0.7546771E-02  0.1366736E+00
          2   -1    0    0  501    0  0.00000000000E+00  0.00000000000E+00  0.69864081438E+02  0.69864081438E+02  0.00000000000E+00 0.  1.
         -2   -1    0    0    0  501 -0.00000000000E+00 -0.00000000000E+00 -0.18228076922E+03  0.18228076922E+03  0.00000000000E+00 0. -1.
          2    1    1    2  502    0  0.20121215365E+02 -0.31102996118E+02  0.62877989494E+02  0.72978772517E+02  0.00000000000E+00 0.  1.
         -2    1    1    2    0  502 -0.20121215365E+02  0.31102996118E+02 -0.17529467727E+03  0.17916607814E+03  0.00000000000E+00 0. -1.
</event>
<event>
 4    1  0.5847355E+003  0.2796215E+02  0.7546771E-02  0.1438175E+00
          2   -1    0    0  501    0  0.00000000000E+00  0.00000000000E+00  0.64382963158E+03  0.64382963158E+03  0.00000000000E+00 0.  1.
         -2   -1    0    0    0  501 -0.00000000000E+00 -0.00000000000E+00 -0.10024237882E+02  0.10024237882E+02  0.00000000000E+00 0.  1.
          2    1    1    2  502    0 -0.22566310596E+02 -0.16511925710E+02  0.62338710871E+03  0.62401391761E+03  0.00000000000E+00 0.  1.
         -2    1    1    2    0  502  0.22566310596E+02  0.16511925710E+02  0.10418284992E+02  0.29839951856E+02  0.00000000000E+00 0.  1.
</event>
<event>
 4    1  0.5847355E+003  0.2115893E+02  0.7546771E-02  0.1517008E+00
          2   -1    0    0  501    0  0.00000000000E+00  0.00000000000E+00  0.27802569186E+03  0.27802569186E+03  0.00000000000E+00 0. -1.
         -2   -1    0    0    0  501 -0.00000000000E+00 -0.00000000000E+00 -0.55791820657E+02  0.55791820657E+02  0.00000000000E+00 0. -1.
          2    1    1    2  502    0  0.16241007599E+02  0.13562083750E+02  0.27559936476E+03  0.27641040194E+03  0.00000000000E+00 0. -1.
         -2    1    1    2    0  502 -0.16241007599E+02 -0.13562083750E+02 -0.53365493552E+02  0.57407110583E+02  0.00000000000E+00 0. -1.
</event>
<event>
 4    1  0.5847355E+003  0.2099270E+02  0.7546771E-02  0.1519369E+00
          2   -1    0    0  501    0  0.00000000000E+00  0.00000000000E+00  0.49923541848E+03  0.49923541848E+03  0.00000000000E+00 0. -1.
         -2   -1    0    0    0  501 -0.00000000000E+00 -0.00000000000E+00 -0.89642138829E+00  0.89642138829E+00  0.00000000000E+00 0. -1.
          2    1    1    2  502    0  0.13709042966E+02  0.15898286585E+02  0.28006658031E+03  0.28085224368E+03  0.00000000000E+00 0. -1.
         -2    1    1    2    0  502 -0.13709042966E+02 -0.15898286585E+02  0.21827241679E+03  0.21927959619E+03  0.00000000000E+00 0. -1.
</event>
<event>
 4    1  0.5847355E+003  0.2753786E+02  0.7546771E-02  0.1442279E+00
          2   -1    0    0  501    0  0.00000000000E+00  0.00000000000E+00  0.20327936660E+04  0.20327936660E+04  0.00000000000E+00 0. -1.
         -2   -1    0    0    0  501 -0.00000000000E+00 -0.00000000000E+00 -0.45120450350E+00  0.45120450350E+00  0.00000000000E+00 0. -1.
          2    1    1    2  502    0 -0.24496283576E+02 -0.12580375385E+02  0.14392779051E+04  0.14395413234E+04  0.00000000000E+00 0. -1.
         -2    1    1    2    0  502  0.24496283576E+02  0.12580375385E+02  0.59306455646E+03  0.59370354714E+03  0.00000000000E+00 0. -1.
</event>
<event>
 4    1  0.5847355E+003  0.2272743E+02  0.7546771E-02  0.1495949E+00
          2   -1    0    0  501    0  0.00000000000E+00  0.00000000000E+00  0.25846862667E+03  0.25846862667E+03  0.00000000000E+00 0.  1.
         -2   -1    0    0    0  501 -0.00000000000E+00 -0.00000000000E+00 -0.36556491549E+01  0.36556491549E+01  0.00000000000E+00 0.  1.
          2    1    1    2  502    0  0.53665553364E+01 -0.22084754204E+02  0.21564994687E+03  0.21684426640E+03  0.00000000000E+00 0.  1.
         -2    1    1    2    0  502 -0.53665553364E+01  0.22084754204E+02  0.39163030644E+02  0.45280009427E+02  0.00000000000E+00 0.  1.
</event>
<event>
 4    1  0.5847355E+003  0.2188126E+02  0.7546771E-02  0.1507045E+00
          2   -1    0    0  501    0  0.00000000000E+00  0.00000000000E+00  0.63457174799E+03  0.63457174799E+03  0.00000000000E+00 0. -1.
         -2   -1    0    0    0  501 -0.00000000000E+00 -0.00000000000E+00 -0.89762189360E+00  0.89762189360E+00  0.00000000000E+00 0. -1.
          2    1    1    2  502    0 -0.19201397072E+02  0.10492637477E+02  0.18996684372E+03  0.19122288253E+03  0.00000000000E+00 0. -1.
         -2    1    1    2    0  502  0.19201397072E+02 -0.10492637477E+02  0.44370728238E+03  0.44424648736E+03  0.00000000000E+00 0. -1.
</event>
<event>
 4    1  0.5847355E+003  0.3182050E+02  0.7546771E-02  0.1404409E+00
          2   -1    0    0  501    0  0.00000000000E+00  0.00000000000E+00  0.40735743357E+03  0.40735743357E+03  0.00000000000E+00 0. -1.
         -2   -1    0    0    0  501 -0.00000000000E+00 -0.00000000000E+00 -0.29383071090E+02  0.29383071090E+02  0.00000000000E+00 0.  1.
          2    1    1    2  502    0  0.23185719900E+02 -0.21793731186E+02  0.39791692756E+03  0.39918720617E+03  0.00000000000E+00 0. -1.
         -2    1    1    2    0  502 -0.23185719900E+02  0.21793731186E+02 -0.19942565078E+02  0.37553298499E+02  0.00000000000E+00 0.  1.
</event>
<event>
 4    1  0.5847355E+003  0.2354957E+02  0.7546771E-02  0.1485710E+00
          2   -1    0    0  501    0  0.00000000000E+00  0.00000000000E+00  0.41815055624E+03  0.41815055624E+03  0.00000000000E+00 0. -1.
         -2   -1    0    0    0  501 -0.00000000000E+00 -0.00000000000E+00 -0.91102041049E+01  0.91102041049E+01  0.00000000000E+00 0. -1.
          2    1    1    2  502    0  0.18982901647E+02 -0.13936706238E+02  0.40198894346E+03  0.40267815063E+03  0.00000000000E+00 0. -1.
         -2    1    1    2    0  502 -0.18982901647E+02  0.13936706238E+02  0.70514086725E+01  0.24582609706E+02  0.00000000000E+00 0. -1.
</event>
<event>
 4    1  0.5847355E+003  0.2987865E+02  0.7546771E-02  0.1420654E+00
          2   -1    0    0  501    0  0.00000000000E+00  0.00000000000E+00  0.43338993597E+03  0.43338993597E+03  0.00000000000E+00 0.  1.
         -2   -1    0    0    0  501 -0.00000000000E+00 -0.00000000000E+00 -0.54046113179E+03  0.54046113179E+03  0.00000000000E+00 0. -1.
          2    1    1    2  502    0  0.11681533041E+02 -0.27500462541E+02  0.43246112876E+03  0.43349205477E+03  0.00000000000E+00 0.  1.
         -2    1    1    2    0  502 -0.11681533041E+02  0.27500462541E+02 -0.53953232458E+03  0.54035901299E+03  0.00000000000E+00 0. -1.
</event>
<event>
 4    1  0.5847355E+003  0.2437863E+02  0.7546771E-02  0.1475876E+00
          2   -1    0    0  501    0  0.00000000000E+00  0.00000000000E+00  0.35687154783E+03  0.35687154783E+03  0.00000000000E+00 0. -1.
         -2   -1    0    0    0  501 -0.00000000000E+00 -0.00000000000E+00 -0.10802029257E+02  0.10802029257E+02  0.00000000000E+00 0. -1.
          2    1    1    2  502    0  0.19580346721E+02  0.14523354321E+02  0.34210758928E+03  0.34297510178E+03  0.00000000000E+00 0. -1.
         -2    1    1    2    0  502 -0.19580346721E+02 -0.14523354321E+02  0.39619292853E+01  0.24698475299E+02  0.00000000000E+00 0. -1.
</event>
<event>
 4    1  0.5847355E+003  0.3282315E+02  0.7546771E-02  0.1396549E+00
          2   -1    0    0  501    0  0.00000000000E+00  0.00000000000E+00  0.11661339121E+03  0.11661339121E+03  0.00000000000E+00 0.  1.
         -2   -1    0    0    0  501 -0.00000000000E+00 -0.00000000000E+00 -0.11719210192E+02  0.11719210192E+02  0.00000000000E+00 0. -1.
          2    1    1    2  502    0 -0.24093638609E+02 -0.22290257328E+02  0.81967759444E+02  0.88295371235E+02  0.00000000000E+00 0.  1.
         -2    1    1    2    0  502  0.24093638609E+02  0.22290257328E+02  0.22926421572E+02  0.40037230165E+02  0.00000000000E+00 0. -1.
</event>
<event>
 4    1  0.5847355E+003  0.3562153E+02  0.7546771E-02  0.1376246E+00
          2   -1    0    0  501    0  0.00000000000E+00  0.00000000000E+00  0.98165659445E+01  0.98165659445E+01  0.00000000000E+00 0. -1.
         -2   -1    0    0    0  501 -0.00000000000E+00 -0.00000000000E+00 -0.13662106347E+04  0.13662106347E+04  0.00000000000E+00 0.  1.
          2    1    1    2  502    0  0.33371160375E+02  0.12460303995E+02 -0.23539303099E+02  0.42696514035E+02  0.00000000000E+00 0. -1.
         -2    1    1    2    0  502 -0.33371160375E+02 -0.12460303995E+02 -0.13328547656E+04  0.13333306866E+04  0.00000000000E+00 0.  1.
</event>
<event>
 4    1  0.5847355E+003  0.2139936E+02  0.7546771E-02  0.1513639E+00
          2   -1    0    0  501    0  0.00000000000E+00  0.00000000000E+00  0.13360604529E+03  0.13360604529E+03  0.00000000000E+00 0.  1.
         -2   -1    0    0    0  501 -0.00000000000E+00 -0.00000000000E+00 -0.20938772531E+02  0.20938772531E+02  0.00000000000E+00 0.  1.
          2    1    1    2  502    0 -0.31070897478E+01  0.21172588851E+02  0.12699921169E+03  0.12878948830E+03  0.00000000000E+00 0.  1.
         -2    1    1    2    0  502  0.31070897478E+01 -0.21172588851E+02 -0.14331938933E+02  0.25755329525E+02  0.00000000000E+00 0.  1.
</event>
<event>
 4    1  0.5847355E+003  0.2719632E+02  0.7546771E-02  0.1445646E+00
          2   -1    0    0  501    0  0.00000000000E+00  0.00000000000E+00  0.67834158249E+03  0.67834158249E+03  0.00000000000E+00 0. -1.
         -2   -1    0    0    0  501 -0.00000000000E+00 -0.00000000000E+00 -0.23277967984E+01  0.23277967984E+01  0.00000000000E+00 0. -1.
          2    1    1    2  502    0 -0.71127641984E+00  0.27187021671E+02  0.58614546800E+03  0.58677606437E+03  0.00000000000E+00 0. -1.
         -2    1    1    2    0  502  0.71127641984E+00 -0.27187021671E+02  0.89868317688E+02  0.93893314914E+02  0.00000000000E+00 0. -1.
</event>
<event>
 4    1  0.5847355E+003  0.2127710E+02  0.7546771E-02  0.1515345E+00
          2   -1    0    0  501    0  0.00000000000E+00  0.00000000000E+00  0.63513333001E+03  0.63513333001E+03  0.00000000000E+00 0. -1.
         -2   -1    0    0    0  501 -0.00000000000E+00 -0.00000000000E+00 -0.81449064943E+00  0.81449064943E+00  0.00000000000E+00 0.  1.
          2    1    1    2  502    0  0.17356889956E+01 -0.21206191893E+02  0.42952035005E+03  0.43004702800E+03  0.00000000000E+00 0. -1.
         -2    1    1    2    0  502 -0.17356889956E+01  0.21206191893E+02  0.20479848931E+03  0.20590079266E+03  0.00000000000E+00 0.  1.
</event>
<event>
 4    1  0.5847355E+003  0.2343452E+02  0.7546771E-02  0.1487113E+00
          2   -1    0    0  501    0  0.00000000000E+00  0.00000000000E+00  0.12100128635E+04  0.12100128635E+04  0.00000000000E+00 0. -1.
         -2   -1    0    0    0  501 -0.00000000000E+00 -0.00000000000E+00 -0.48268079111E+00  0.48268079111E+00  0.00000000000E+00 0. -1.
          2    1    1    2  502    0 -0.16628135637E+02  0.16513064852E+02  0.45686869593E+03  0.45746932304E+03  0.00000000000E+00 0. -1.
         -2    1    1    2    0  502  0.16628135637E+02 -0.16513064852E+02  0.75266148680E+03  0.75302622127E+03  0.00000000000E+00 0. -1.
</event>
<event>
 4    1  0.5847355E+003  0.4120147E+02  0.7546771E-02  0.1341586E+00
          2   -1    0    0  501    0  0.00000000000E+00  0.00000000000E+00  0.16223700521E+03  0.16223700521E+03  0.00000000000E+00 0. -1.
         -2   -1    0    0    0  501 -0.00000000000E+00 -0.00000000000E+00 -0.25844532054E+02  0.25844532054E+02  0.00000000000E+00 0. -1.
          2    1    1    2  502    0  0.21940163102E+02 -0.34873915696E+02  0.14074418030E+03  0.14665089512E+03  0.00000000000E+00 0. -1.
         -2    1    1    2    0  502 -0.21940163102E+02  0.34873915696E+02 -0.43517071446E+01  0.41430642138E+02  0.00000000000E+00 0. -1.
</event>
<event>
 4    1  0.5847355E+003  0.2569120E+02  0.7546771E-02  0.1461217E+00
          2   -1    0    0  501    0  0.00000000000E+00  0.00000000000E+00  0.13493320072E+02  0.13493320072E+02  0.00000000000E+00 0. -1.
         -2   -1    0    0    0  501 -0.00000000000E+00 -0.00000000000E+00 -0.52452896155E+02  0.52452896155E+02  0.00000000000E+00 0. -1.
          2    1    1    2  502    0 -0.24715751273E+02 -0.70120813819E+01 -0.10917426196E+02  0.27914652801E+02  0.00000000000E+00 0. -1.
         -2    1    1    2    0  502  0.24715751273E+02  0.70120813819E+01 -0.28042149888E+02  0.38031563426E+02  0.00000000000E+00 0. -1.
</event>
<event>
 4    1  0.5847355E+003  0.2226542E+02  0.7546771E-02  0.1501934E+00
          2   -1    0    0  501    0  0.00000000000E+00  0.00000000000E+00  0.78814751689E+03  0.78814751689E+03  0.00000000000E+00 0.  1.
         -2   -1    0    0    0  501 -0.00000000000E+00 -0.00000000000E+00 -0.63118942310E+00  0.63118942310E+00  0.00000000000E+00 0.  1.
          2    1    1    2  502    0 -0.20824814465E+02  0.78788079318E+01  0.37055532790E+03  0.37122365165E+03  0.00000000000E+00 0.  1.
         -2    1    1    2    0  502  0.20824814465E+02 -0.78788079318E+01  0.41696099956E+03  0.41755505466E+03  0.00000000000E+00 0.  1.
</event>
<event>
 4    1  0.5847355E+003  0.6011710E+02  0.7546771E-02  0.1259435E+00
          2   -1    0    0  501    0  0.00000000000E+00  0.00000000000E+00  0.12132355292E+03  0.12132355292E+03  0.00000000000E+00 0. -1.
         -2   -1    0    0    0  501 -0.00000000000E+00 -0.00000000000E+00 -0.29789109596E+02  0.29789109596E+02  0.00000000000E+00 0.  1.
          2    1    1    2  502    0  0.13158633099E+02  0.58659318754E+02  0.46062806475E+02  0.75735377744E+02  0.00000000000E+00 0. -1.
         -2    1    1    2    0  502 -0.13158633099E+02 -0.58659318754E+02  0.45471636845E+02  0.75377284768E+02  0.00000000000E+00 0.  1.
</event>
<event>
 4    1  0.5847355E+003  0.2732080E+02  0.7546771E-02  0.1444412E+00
          2   -1    0    0  501    0  0.00000000000E+00  0.00000000000E+00  0.19625622258E+04  0.19625622258E+04  0.00000000000E+00 0. -1.
         -2   -1    0    0    0  501 -0.00000000000E+00 -0.00000000000E+00 -0.19067083443E+02  0.19067083443E+02  0.00000000000E+00 0. -1.
          2    1    1    2  502    0  0.24989611813E+02  0.11042894794E+02  0.19526305229E+04  0.19528216471E+04  0.00000000000E+00 0. -1.
         -2    1    1    2    0  502 -0.24989611813E+02 -0.11042894794E+02 -0.91353805346E+01  0.28807662202E+02  0.00000000000E+00 0. -1.
</event>
<event>
 4    1  0.5847355E+003  0.3338010E+02  0.7546771E-02  0.1392324E+00
          2   -1    0    0  501    0  0.00000000000E+00  0.00000000000E+00  0.11302510283E+03  0.11302510283E+03  0.00000000000E+00 0. -1.
         -2   -1    0    0    0  501 -0.00000000000E+00 -0.00000000000E+00 -0.10069566551E+02  0.10069566551E+02  0.00000000000E+00 0.  1.
          2    1    1    2  502    0  0.56224538145E+01 -0.32903179986E+02  0.60393495892E+02  0.69004388166E+02  0.00000000000E+00 0. -1.
         -2    1    1    2    0  502 -0.56224538145E+01  0.32903179986E+02  0.42562040390E+02  0.54090281218E+02  0.00000000000E+00 0.  1.
</event>
<event>
 4    1  0.5847355E+003  0.3711366E+02  0.7546771E-02  0.1366284E+00
          2   -1    0    0  501    0  0.00000000000E+00  0.00000000000E+00  0.60586137530E+03  0.60586137530E+03  0.00000000000E+00 0.  1.
         -2   -1    0    0    0  501 -0.00000000000E+00 -0.00000000000E+00 -0.24685909994E+02  0.24685909994E+02  0.00000000000E+00 0. -1.
          2    1    1    2  502    0  0.37090552732E+02  0.13093666905E+01  0.59099290768E+03  0.59215710793E+03  0.00000000000E+00 0.  1.
         -2    1    1    2    0  502 -0.37090552732E+02 -0.13093666905E+01 -0.98174423768E+01  0.38390177363E+02  0.00000000000E+00 0. -1.
</event>
<event>
 4    1  0.5847355E+003  0.3131136E+02  0.7546771E-02  0.1408533E+00
          2   -1    0    0  501    0  0.00000000000E+00  0.00000000000E+00  0.19274901783E+04  0.19274901783E+04  0.00000000000E+00 0.  1.
         -2   -1    0    0    0  501 -0.00000000000E+00 -0.00000000000E+00 -0.25520312466E+01  0.25520312466E+01  0.00000000000E+00 0. -1.
          2    1    1    2  502    0 -0.23308563006E+02 -0.20907220810E+02  0.18259832072E+04  0.18262516458E+04  0.00000000000E+00 0.  1.
         -2    1    1    2    0  502  0.23308563006E+02  0.20907220810E+02  0.98954939878E+02  0.10379056372E+03  0.00000000000E+00 0. -1.
</event>
<event>
 4    1  0.5847355E+003  0.5038056E+02  0.7546771E-02  0.1296531E+00
          2   -1    0    0  501    0  0.00000000000E+00  0.00000000000E+00  0.13425434162E+04  0.13425434162E+04  0.00000000000E+00 0.  1.
         -2   -1    0    0    0  501 -0.00000000000E+00 -0.00000000000E+00 -0.40066516881E+01  0.40066516881E+01  0.00000000000E+00 0. -1.
          2    1    1    2  502    0  0.49452521160E+02  0.96254279570E+01  0.11585577279E+04  0.11596526245E+04  0.00000000000E+00 0.  1.
         -2    1    1    2    0  502 -0.49452521160E+02 -0.96254279570E+01  0.17997903661E+03  0.18689744335E+03  0.00000000000E+00 0. -1.
</event>
<event>
 4    1  0.5847355E+003  0.2056205E+02  0.7546771E-02  0.1525610E+00
          2   -1    0    0  501    0  0.00000000000E+00  0.00000000000E+00  0.23456157100E+03  0.23456157100E+03  0.00000000000E+00 0. -1.
         -2   -1    0    0    0  501 -0.00000000000E+00 -0.00000000000E+00 -0.26800743643E+01  0.26800743643E+01  0.00000000000E+00 0. -1.
          2    1    1    2  502    0 -0.15378239322E+02  0.13649460316E+02  0.18381868788E+03  0.18496515355E+03  0.00000000000E+00 0. -1.
         -2    1    1    2    0  502  0.15378239322E+02 -0.13649460316E+02  0.48062808755E+02  0.52276491820E+02  0.00000000000E+00 0. -1.
</event>
<event>
 4    1  0.5847355E+003  0.2386166E+02  0.7546771E-02  0.1481953E+00
          2   -1    0    0  501    0  0.00000000000E+00  0.00000000000E+00  0.28279156360E+04  0.28279156360E+04  0.00000000000E+00 0.  1.
         -2   -1    0    0    0  501 -0.00000000000E+00 -0.00000000000E+00 -0.20168560754E+00  0.20168560754E+00  0.00000000000E+00 0.  1.
          2    1    1    2  502    0 -0.21209246741E+02 -0.10933707274E+02  0.13554881494E+04  0.13556981601E+04  0.00000000000E+00 0.  1.
         -2    1    1    2    0  502  0.21209246741E+02  0.10933707274E+02  0.14722258009E+04  0.14724191614E+04  0.00000000000E+00 0.  1.
</event>
<event>
 4    1  0.5847355E+003  0.2787209E+02  0.7546771E-02  0.1439039E+00
          2   -1    0    0  501    0  0.00000000000E+00  0.00000000000E+00  0.24079471177E+02  0.24079471177E+02  0.00000000000E+00 0. -1.
         -2   -1    0    0    0  501 -0.00000000000E+00 -0.00000000000E+00 -0.85468393805E+02  0.85468393805E+02  0.00000000000E+00 0.  1.
          2    1    1    2  502    0 -0.33298505961E+00 -0.27870097308E+02  0.12522362168E+02  0.30555895622E+02  0.00000000000E+00 0. -1.
         -2    1    1    2    0  502  0.33298505961E+00  0.27870097308E+02 -0.73911284796E+02  0.78991969359E+02  0.00000000000E+00 0.  1.
</event>
<event>
 4    1  0.5847355E+003  0.2255782E+02  0.7546771E-02  0.1498127E+00
          2   -1    0    0  501    0  0.00000000000E+00  0.00000000000E+00  0.68653626897E+02  0.68653626897E+02  0.00000000000E+00 0. -1.
         -2   -1    0    0    0  501 -0.00000000000E+00 -0.00000000000E+00 -0.13370567436E+02  0.13370567436E+02  0.00000000000E+00 0. -1.
          2    1    1    2  502    0 -0.18946372142E+02 -0.12242965809E+02  0.55020107393E+02  0.59464842105E+02  0.00000000000E+00 0. -1.
         -2    1    1    2    0  502  0.18946372142E+02  0.12242965809E+02  0.26295206840E+00  0.22559352228E+02  0.00000000000E+00 0. -1.
</event>
<event>
 4    1  0.5847355E+003  0.2326338E+02  0.7546771E-02  0.1489217E+00
          2   -1    0    0  501    0  0.00000000000E+00  0.00000000000E+00  0.33230448354E+01  0.33230448354E+01  0.00000000000E+00 0.  1.
         -2   -1    0    0    0  501 -0.00000000000E+00 -0.00000000000E+00 -0.31403048996E+03  0.31403048996E+03  0.00000000000E+00 0. -1.
          2    1    1    2  502    0 -0.11140308268E+02  0.20422478829E+02 -0.26544780089E+03  0.26646523058E+03  0.00000000000E+00 0. -1.
         -2    1    1    2    0  502  0.11140308268E+02 -0.20422478829E+02 -0.45259644233E+02  0.50888304216E+02  0.00000000000E+00 0.  1.
</event>
<event>
 4    1  0.5847355E+003  0.2213905E+02  0.7546771E-02  0.1503602E+00
          2   -1    0    0  501    0  0.00000000000E+00  0.00000000000E+00  0.49443503721E+03  0.49443503721E+03  0.00000000000E+00 0. -1.
         -2   -1    0    0    0  501 -0.00000000000E+00 -0.00000000000E+00 -0.17786630239E+01  0.17786630239E+01  0.00000000000E+00 0. -1.
          2    1    1    2  502    0 -0.15127231244E+02 -0.16164912674E+02  0.41140160813E+03  0.41199686976E+03  0.00000000000E+00 0. -1.
         -2    1    1    2    0  502  0.15127231244E+02  0.16164912674E+02  0.81254766055E+02  0.84216830465E+02  0.00000000000E+00 0. -1.
</event>
<event>
 4    1  0.5847355E+003  0.2234958E+02  0.7546771E-02  0.1500831E+00
          2   -1    0    0  501    0  0.00000000000E+00  0.00000000000E+00  0.15017873614E+04  0.15017873614E+04  0.00000000000E+00 0.  1.
         -2   -1    0    0    0  501 -0.00000000000E+00 -0.00000000000E+00 -0.15948551704E+01  0.15948551704E+01  0.00000000000E+00 0.  1.
          2    1    1    2  502    0 -0.65632575441E+01 -0.21364161472E+02  0.14188270207E+04  0.14190030368E+04  0.00000000000E+00 0.  1.
         -2    1    1    2    0  502  0.65632575441E+01  0.21364161472E+02  0.81365485481E+02  0.84379179734E+02  0.00000000000E+00 0.  1.
</event>
<event>
 4    1  0.5847355E+003  0.2059917E+02  0.7546771E-02  0.1525065E+00
          2   -1    0    0  501    0  0.00000000000E+00  0.00000000000E+00  0.28017895558E+02  0.28017895558E+02  0.00000000000E+00 0. -1.
         -2   -1    0    0    0  501 -0.00000000000E+00 -0.00000000000E+00 -0.49229865163E+02  0.49229865163E+02  0.00000000000E+00 0.  1.
          2    1    1    2  502    0 -0.16512062648E+02  0.12315753172E+02  0.21532360751E+02  0.29798801126E+02  0.00000000000E+00 0. -1.
         -2    1    1    2    0  502  0.16512062648E+02 -0.12315753172E+02 -0.42744330356E+02  0.47448959595E+02  0.00000000000E+00 0.  1.
</event>
<event>
 4    1  0.5847355E+003  0.2215021E+02  0.7546771E-02  0.1503454E+00
          2   -1    0    0  501    0  0.00000000000E+00  0.00000000000E+00  0.13617935796E+04  0.13617935796E+04  0.00000000000E+00 0.  1.
         -2   -1    0    0    0  501 -0.00000000000E+00 -0.00000000000E+00 -0.13125628165E+01  0.13125628165E+01  0.00000000000E+00 0.  1.
          2    1    1    2  502    0  0.18520999507E+02  0.12149246728E+02  0.12607667147E+04  0.12609612764E+04  0.00000000000E+00 0.  1.
         -2    1    1    2    0  502 -0.18520999507E+02 -0.12149246728E+02  0.99714302056E+02  0.10214486602E+03  0.00000000000E+00 0.  1.
</event>
<event>
 4    1  0.5847355E+003  0.2643763E+02  0.7546771E-02  0.1453340E+00
          2   -1    0    0  501    0  0.00000000000E+00  0.00000000000E+00  0.85034744928E+01  0.85034744928E+01  0.00000000000E+00 0. -1.
         -2   -1    0    0    0  501 -0.00000000000E+00 -0.00000000000E+00 -0.85108718354E+03  0.85108718354E+03  0.00000000000E+00 0. -1.
          2    1    1    2  502    0  0.24690188908E+02  0.94521347524E+01 -0.12777598795E+02  0.29363503038E+02  0.00000000000E+00 0. -1.
         -2    1    1    2    0  502 -0.24690188908E+02 -0.94521347524E+01 -0.82980611025E+03  0.83022715499E+03  0.00000000000E+00 0. -1.
</event>
<event>
 4    1  0.5847355E+003  0.2884430E+02  0.7546771E-02  0.1429912E+00
          2   -1    0    0  501    0  0.00000000000E+00  0.00000000000E+00  0.13997109787E+02  0.13997109787E+02  0.00000000000E+00 0.  1.
         -2   -1    0    0    0  501 -0.00000000000E+00 -0.00000000000E+00 -0.11662522929E+03  0.11662522929E+03  0.00000000000E+00 0.  1.
          2    1    1    2  502    0  0.14016652801E+02 -0.25209662282E+02 -0.55808516023E+01  0.29379236422E+02  0.00000000000E+00 0.  1.
         -2    1    1    2    0  502 -0.14016652801E+02  0.25209662282E+02 -0.97047267897E+02  0.10124310265E+03  0.00000000000E+00 0.  1.
</event>
<event>
 4    1  0.5847355E+003  0.3547428E+02  0.7546771E-02  0.1377259E+00
          2   -1    0    0  501    0  0.00000000000E+00  0.00000000000E+00  0.23578305626E+04  0.23578305626E+04  0.00000000000E+00 0. -1.
         -2   -1    0    0    0  501 -0.00000000000E+00 -0.00000000000E+00 -0.32510769769E+01  0.32510769769E+01  0.00000000000E+00 0. -1.
          2    1    1    2  502    0  0.33310045499E+02 -0.12201047760E+02  0.22565858618E+04  0.22568646783E+04  0.00000000000E+00 0. -1.
         -2    1    1    2    0  502 -0.33310045499E+02  0.12201047760E+02  0.97993623802E+02  0.10421696121E+03  0.00000000000E+00 0. -1.
</event>
<event>
 4    1  0.5847355E+003  0.2906777E+02  0.7546771E-02  0.1427874E+00
          2   -1    0    0  501    0  0.00000000000E+00  0.00000000000E+00  0.77782415751E+03  0.77782415751E+03  0.00000000000E+00 0. -1.
         -2   -1    0    0    0  501 -0.00000000000E+00 -0.00000000000E+00 -0.64570377040E+01  0.64570377040E+01  0.00000000000E+00 0. -1.
          2    1    1    2  502    0 -0.26635161751E+02 -0.11640589307E+02  0.74332094250E+03  0.74388907690E+03  0.00000000000E+00 0. -1.
         -2    1    1    2    0  502  0.26635161751E+02  0.11640589307E+02  0.28046177302E+02  0.40392118317E+02  0.00000000000E+00 0. -1.
</event>
<event>
 4    1  0.5847355E+003  0.2296720E+02  0.7546771E-02  0.1492910E+00
          2   -1    0    0  501    0  0.00000000000E+00  0.00000000000E+00  0.39233751651E+03  0.39233751651E+03  0.00000000000E+00 0. -1.
         -2   -1    0    0    0  501 -0.00000000000E+00 -0.00000000000E+00 -0.13610740591E+01  0.13610740591E+01  0.00000000000E+00 0. -1.
          2    1    1    2  502    0 -0.12920543220E+02  0.18988200219E+02  0.21721996426E+03  0.21843077864E+03  0.00000000000E+00 0. -1.
         -2    1    1    2    0  502  0.12920543220E+02 -0.18988200219E+02  0.17375647819E+03  0.17526781193E+03  0.00000000000E+00 0. -1.
</event>
<event>
 4    1  0.5847355E+003  0.5599134E+02  0.7546771E-02  0.1274096E+00
          2   -1    0    0  501    0  0.00000000000E+00  0.00000000000E+00  0.74626465410E+03  0.74626465410E+03  0.00000000000E+00 0.  1.
         -2   -1    0    0    0  501 -0.00000000000E+00 -0.00000000000E+00 -0.56828600331E+01  0.56828600331E+01  0.00000000000E+00 0. -1.
          2    1    1    2  502    0  0.25950930670E+02 -0.49614301142E+02  0.56228291296E+03  0.56506380515E+03  0.00000000000E+00 0.  1.
         -2    1    1    2    0  502 -0.25950930670E+02  0.49614301142E+02  0.17829888111E+03  0.18688370899E+03  0.00000000000E+00 0. -1.
</event>
<event>
 4    1  0.5847355E+003  0.2035349E+02  0.7546771E-02  0.1528699E+00
          2   -1    0    0  501    0  0.00000000000E+00  0.00000000000E+00  0.93431006702E+03  0.93431006702E+03  0.00000000000E+00 0.  1.
         -2   -1    0    0    0  501 -0.00000000000E+00 -0.00000000000E+00 -0.12325245953E+03  0.12325245953E+03  0.00000000000E+00 0.  1.
          2    1    1    2  502    0 -0.20353171854E+02  0.11400914982E+00  0.93335808581E+03  0.93357998101E+03  0.00000000000E+00 0.  1.
         -2    1    1    2    0  502  0.20353171854E+02 -0.11400914982E+00 -0.12230047832E+03  0.12398254554E+03  0.00000000000E+00 0.  1.
</event>
<event>
 4    1  0.5847355E+003  0.2709779E+02  0.7546771E-02  0.1446628E+00
          2   -1    0    0  501    0  0.00000000000E+00  0.00000000000E+00  0.10982604631E+03  0.10982604631E+03  0.00000000000E+00 0. -1.
         -2   -1    0    0    0  501 -0.00000000000E+00 -0.00000000000E+00 -0.44691799708E+02  0.44691799708E+02  0.00000000000E+00 0. -1.
          2    1    1    2  502    0  0.11569326792E+02 -0.24503897178E+02  0.10381304534E+03  0.10729137282E+03  0.00000000000E+00 0. -1.
         -2    1    1    2    0  502 -0.11569326792E+02  0.24503897178E+02 -0.38678798734E+02  0.47226473200E+02  0.00000000000E+00 0. -1.
</event>
<event>
 4    1  0.5847355E+003  0.2372456E+02  0.7546771E-02  0.1483595E+00
          2   -1    0    0  501    0  0.00000000000E+00  0.00000000000E+00  0.22474042700E+03  0.22474042700E+03  0.00000000000E+00 0.  1.
         -2   -1    0    0    0  501 -0.00000000000E+00 -0.00000000000E+00 -0.40723273481E+01  0.40723273481E+01  0.00000000000E+00 0. -1.
          2    1    1    2  502    0 -0.23555121062E+02 -0.28303993615E+01  0.18132167367E+03  0.18286717647E+03  0.00000000000E+00 0.  1.
         -2    1    1    2    0  502  0.23555121062E+02  0.28303993615E+01  0.39346425988E+02  0.45945577881E+02  0.00000000000E+00 0. -1.
</event>
<event>
 4    1  0.5847355E+003  0.2879535E+02  0.7546771E-02  0.1430362E+00
          2   -1    0    0  501    0  0.00000000000E+00  0.00000000000E+00  0.41110474593E+03  0.41110474593E+03  0.00000000000E+00 0.  1.
         -2   -1    0    0    0  501 -0.00000000000E+00 -0.00000000000E+00 -0.17267345774E+03  0.17267345774E+03  0.00000000000E+00 0.  1.
          2    1    1    2  502    0 -0.28570067022E+02 -0.35949202700E+01  0.40939501278E+03  0.41040644326E+03  0.00000000000E+00 0.  1.
         -2    1    1    2    0  502  0.28570067022E+02  0.35949202700E+01 -0.17096372459E+03  0.17337176040E+03  0.00000000000E+00 0.  1.
</event>
<event>
 4    1  0.5847355E+003  0.2245993E+02  0.7546771E-02  0.1499394E+00
          2   -1    0    0  501    0  0.00000000000E+00  0.00000000000E+00  0.47945114034E+03  0.47945114034E+03  0.00000000000E+00 0. -1.
         -2   -1    0    0    0  501 -0.00000000000E+00 -0.00000000000E+00 -0.24165970048E+01  0.24165970048E+01  0.00000000000E+00 0.  1.
          2    1    1    2  502    0 -0.21623552999E+02 -0.60720929372E+01  0.41955792936E+03  0.42015866580E+03  0.00000000000E+00 0. -1.
         -2    1    1    2    0  502  0.21623552999E+02  0.60720929372E+01  0.57476613969E+02  0.61709071540E+02  0.00000000000E+00 0.  1.
</event>
<event>
 4    1  0.5847355E+003  0.2852441E+02  0.7546771E-02  0.1432868E+00
          2   -1    0    0  501    0  0.00000000000E+00  0.00000000000E+00  0.14668247204E+03  0.14668247204E+03  0.00000000000E+00 0. -1.
         -2   -1    0    0    0  501 -0.00000000000E+00 -0.00000000000E+00 -0.10480324669E+02  0.10480324669E+02  0.00000000000E+00 0. -1.
          2    1    1    2  502    0  0.20369265882E+01 -0.28451585832E+02  0.12201537651E+03  0.12530520305E+03  0.00000000000E+00 0. -1.
         -2    1    1    2    0  502 -0.20369265882E+01  0.28451585832E+02  0.14186770858E+02  0.31857593658E+02  0.00000000000E+00 0. -1.
</event>
<event>
 4    1  0.8105106E+003  0.2955144E+02  0.7546771E-02  0.1423535E+00
          2   -1    0    0  501    0  0.00000000000E+00  0.00000000000E+00  0.15996547681E+04  0.15996547681E+04  0.00000000000E+00 0. -1.
         -2   -1    0    0    0  501 -0.00000000000E+00 -0.00000000000E+00 -0.26057022629E+03  0.26057022629E+03  0.00000000000E+00 0. -1.
          2    1    1    2  502    0  0.21150088938E+02  0.20638832417E+02  0.15986799145E+04  0.15989530189E+04  0.00000000000E+00 0. -1.
         -2    1    1    2    0  502 -0.21150088938E+02 -0.20638832417E+02 -0.25959537268E+03  0.26127197550E+03  0.00000000000E+00 0. -1.
</event>
<event>
 4    1  0.5847355E+003  0.2632270E+02  0.7546771E-02  0.1454533E+00
          2   -1    0    0  501    0  0.00000000000E+00  0.00000000000E+00  0.30222028775E+03  0.30222028775E+03  0.00000000000E+00 0.  1.
         -2   -1    0    0    0  501 -0.00000000000E+00 -0.00000000000E+00 -0.55249038575E+01  0.55249038575E+01  0.00000000000E+00 0.  1.
          2    1    1    2  502    0  0.23491861083E+02  0.11875060187E+02  0.26604101250E+03  0.26734005484E+03  0.00000000000E+00 0.  1.
         -2    1    1    2    0  502 -0.23491861083E+02 -0.11875060187E+02  0.30654371399E+02  0.40405136771E+02  0.00000000000E+00 0.  1.
</event>
<event>
 4    1  0.5847355E+003  0.2329670E+02  0.7546771E-02  0.1488806E+00
          2   -1    0    0  501    0  0.00000000000E+00  0.00000000000E+00  0.24082182675E+02  0.24082182675E+02  0.00000000000E+00 0.  1.
         -2   -1    0    0    0  501 -0.00000000000E+00 -0.00000000000E+00 -0.21738213065E+03  0.21738213065E+03  0.00000000000E+00 0. -1.
          2    1    1    2  502    0 -0.19725425243E+02  0.12395319541E+02  0.17652595277E+02  0.29229274154E+02  0.00000000000E+00 0.  1.
         -2    1    1    2    0  502  0.19725425243E+02 -0.12395319541E+02 -0.21095254326E+03  0.21223503918E+03  0.00000000000E+00 0. -1.
</event>
<event>
 4    1  0.5847355E+003  0.3125072E+02  0.7546771E-02  0.1409030E+00
          2   -1    0    0  501    0  0.00000000000E+00  0.00000000000E+00  0.26406316893E+03  0.26406316893E+03  0.00000000000E+00 0. -1.
         -2   -1    0    0    0  501 -0.00000000000E+00 -0.00000000000E+00 -0.85652146957E+02  0.85652146957E+02  0.00000000000E+00 0.  1.
          2    1    1    2  502    0 -0.89944609662E+01 -0.29928362373E+02  0.26024641292E+03  0.26211600989E+03  0.00000000000E+00 0. -1.
         -2    1    1    2    0  502  0.89944609662E+01  0.29928362373E+02 -0.81835390940E+02  0.87599306006E+02  0.00000000000E+00 0.  1.
</event>
<event>
 4    1  0.5847355E+003  0.2520742E+02  0.7546771E-02  0.1466496E+00
          2   -1    0    0  501    0  0.00000000000E+00  0.00000000000E+00  0.15611608167E+04  0.15611608167E+04  0.00000000000E+00 0.  1.
         -2   -1    0    0    0  501 -0.00000000000E+00 -0.00000000000E+00 -0.92126015362E+00  0.92126015362E+00  0.00000000000E+00 0. -1.
          2    1    1    2  502    0 -0.24377098606E+02  0.64164689351E+01  0.13636566687E+04  0.13638896305E+04  0.00000000000E+00 0.  1.
         -2    1    1    2    0  502  0.24377098606E+02 -0.64164689351E+01  0.19658288786E+03  0.19819244640E+03  0.00000000000E+00 0. -1.
</event>
<event>
 4    1  0.5847355E+003  0.4817378E+02  0.7546771E-02  0.1306291E+00
          2   -1    0    0  501    0  0.00000000000E+00  0.00000000000E+00  0.23272883738E+04  0.23272883738E+04  0.00000000000E+00 0.  1.
         -2   -1    0    0    0  501 -0.00000000000E+00 -0.00000000000E+00 -0.19347969140E+02  0.19347969140E+02  0.00000000000E+00 0. -1.
          2    1    1    2  502    0 -0.25772193700E+02  0.40700206170E+02  0.22966526086E+04  0.22971577911E+04  0.00000000000E+00 0.  1.
         -2    1    1    2    0  502  0.25772193700E+02 -0.40700206170E+02  0.11287796073E+02  0.49478551824E+02  0.00000000000E+00 0. -1.
</event>
<event>
 4    1  0.5847355E+003  0.5408951E+02  0.7546771E-02  0.1281353E+00
          2   -1    0    0  501    0  0.00000000000E+00  0.00000000000E+00  0.13371466134E+03  0.13371466134E+03  0.00000000000E+00 0. -1.
         -2   -1    0    0    0  501 -0.00000000000E+00 -0.00000000000E+00 -0.72905450340E+02  0.72905450340E+02  0.00000000000E+00 0. -1.
          2    1    1    2  502    0  0.47744754662E+02 -0.25418754404E+02  0.11683292891E+03  0.12874629296E+03  0.00000000000E+00 0. -1.
         -2    1    1    2    0  502 -0.47744754662E+02  0.25418754404E+02 -0.56023717911E+02  0.77873818718E+02  0.00000000000E+00 0. -1.
</event>
<event>
 4    1  0.5847355E+003  0.3164629E+02  0.7546771E-02  0.1405810E+00
          2   -1    0    0  501    0  0.00000000000E+00  0.00000000000E+00  0.21286840468E+03  0.21286840468E+03  0.00000000000E+00 0. -1.
         -2   -1    0    0    0  501 -0.00000000000E+00 -0.00000000000E+00 -0.27206487685E+02  0.27206487685E+02  0.00000000000E+00 0.  1.
          2    1    1    2  502    0  0.59199466876E+01  0.31087651617E+02  0.20199729926E+03  0.20446123535E+03  0.00000000000E+00 0. -1.
         -2    1    1    2    0  502 -0.59199466876E+01 -0.31087651617E+02 -0.16335382271E+02  0.35613657012E+02  0.00000000000E+00 0.  1.
</event>
<event>
 4    1  0.5847355E+003  0.2351903E+02  0.7546771E-02  0.1486082E+00
          2   -1    0    0  501    0  0.00000000000E+00  0.00000000000E+00  0.16015681911E+04  0.16015681911E+04  0.00000000000E+00 0. -1.
         -2   -1    0    0    0  501 -0.00000000000E+00 -0.00000000000E+00 -0.19934882201E+01  0.19934882201E+01  0.00000000000E+00 0.  1.
          2    1    1    2  502    0 -0.21033504130E+02 -0.10523139088E+02  0.15288118118E+04  0.15289927078E+04  0.00000000000E+00 0. -1.
         -2    1    1    2    0  502  0.21033504130E+02  0.10523139088E+02  0.70762891053E+02  0.74568971445E+02  0.00000000000E+00 0.  1.
</event>
<event>
 4    1  0.5847355E+003  0.4842118E+02  0.7546771E-02  0.1305167E+00
          2   -1    0    0  501    0  0.00000000000E+00  0.00000000000E+00  0.26367356590E+04  0.26367356590E+04  0.00000000000E+00 0.  1.
         -2   -1    0    0    0  501 -0.00000000000E+00 -0.00000000000E+00 -0.89148634077E+00  0.89148634077E+00  0.00000000000E+00 0.  1.
          2    1    1    2  502    0 -0.43518239896E+02 -0.21231429126E+02  0.13845687332E+04  0.13854151680E+04  0.00000000000E+00 0.  1.
         -2    1    1    2    0  502  0.43518239896E+02  0.21231429126E+02  0.12512754394E+04  0.12522119773E+04  0.00000000000E+00 0.  1.
</event>
<event>
 4    1  0.5847355E+003  0.2578497E+02  0.7546771E-02  0.1460210E+00
          2   -1    0    0  501    0  0.00000000000E+00  0.00000000000E+00  0.22896023499E+04  0.22896023499E+04  0.00000000000E+00 0.  1.
         -2   -1    0    0    0  501 -0.00000000000E+00 -0.00000000000E+00 -0.31487841820E+00  0.31487841820E+00  0.00000000000E+00 0.  1.
          2    1    1    2  502    0 -0.22389346922E+02 -0.12789903926E+02  0.14639809603E+04  0.14642080169E+04  0.00000000000E+00 0.  1.
         -2    1    1    2    0  502  0.22389346922E+02  0.12789903926E+02  0.82530651117E+03  0.82570921145E+03  0.00000000000E+00 0.  1.
</event>
<event>
 4    1  0.5847355E+003  0.2831404E+02  0.7546771E-02  0.1434837E+00
          2   -1    0    0  501    0  0.00000000000E+00  0.00000000000E+00  0.47021572557E+03  0.47021572557E+03  0.00000000000E+00 0.  1.
         -2   -1    0    0    0  501 -0.00000000000E+00 -0.00000000000E+00 -0.24189833467E+01  0.24189833467E+01  0.00000000000E+00 0.  1.
          2    1    1    2  502    0  0.17746201943E+02 -0.22062572860E+02  0.36229232292E+03  0.36339704464E+03  0.00000000000E+00 0.  1.
         -2    1    1    2    0  502 -0.17746201943E+02  0.22062572860E+02  0.10550441930E+03  0.10923766428E+03  0.00000000000E+00 0.  1.
</event>
<event>
 4    1  0.5847355E+003  0.3183224E+02  0.7546771E-02  0.1404315E+00
          2   -1    0    0  501    0  0.00000000000E+00  0.00000000000E+00  0.41820786025E+03  0.41820786025E+03  0.00000000000E+00 0.  1.
         -2   -1    0    0    0  501 -0.00000000000E+00 -0.00000000000E+00 -0.51554453844E+01  0.51554453844E+01  0.00000000000E+00 0.  1.
          2    1    1    2  502    0 -0.24940302322E+02  0.19780610361E+02  0.36063623139E+03  0.36203837175E+03  0.00000000000E+00 0.  1.
         -2    1    1    2    0  502  0.24940302322E+02 -0.19780610361E+02  0.52416183477E+02  0.61324933889E+02  0.00000000000E+00 0.  1.
</event>
<event>
 4    1  0.5847355E+003  0.2787977E+02  0.7546771E-02  0.1438965E+00
          2   -1    0    0  501    0  0.00000000000E+00  0.00000000000E+00  0.94615518872E+03  0.94615518872E+03  0.00000000000E+00 0.  1.
         -2   -1    0    0    0  501 -0.00000000000E+00 -0.00000000000E+00 -0.82347911517E+00  0.82347911517E+00  0.00000000000E+00 0. -1.
          2    1    1    2  502    0 -0.18489036399E+02  0.20867133668E+02  0.49578352762E+03  0.49656680114E+03  0.00000000000E+00 0. -1.
         -2    1    1    2    0  502  0.18489036399E+02 -0.20867133668E+02  0.44954818199E+03  0.45041186670E+03  0.00000000000E+00 0.  1.
</event>
<event>
 4    1  0.5847355E+003  0.2040505E+02  0.7546771E-02  0.1527931E+00
          2   -1    0    0  501    0  0.00000000000E+00  0.00000000000E+00  0.23478165400E+03  0.23478165400E+03  0.00000000000E+00 0. -1.
         -2   -1    0    0    0  501 -0.00000000000E+00 -0.00000000000E+00 -0.37870909444E+01  0.37870909444E+01  0.00000000000E+00 0. -1.
          2    1    1    2  502    0 -0.11618955462E+02 -0.16773960281E+02  0.20247844559E+03  0.20350402158E+03  0.00000000000E+00 0. -1.
         -2    1    1    2    0  502  0.11618955462E+02  0.16773960281E+02  0.28516117470E+02  0.35064723371E+02  0.00000000000E+00 0. -1.
</event>
<event>
 4    1  0.5847355E+003  0.2076430E+02  0.7546771E-02  0.1522657E+00
          2   -1    0    0  501    0  0.00000000000E+00  0.00000000000E+00  0.11535926044E+04  0.11535926044E+04  0.00000000000E+00 0. -1.
         -2   -1    0    0    0  501 -0.00000000000E+00 -0.00000000000E+00 -0.91970773884E+00  0.91970773884E+00  0.00000000000E+00 0. -1.
          2    1    1    2  502    0  0.16395763534E+02  0.12741086613E+02  0.10210934377E+04  0.10213045407E+04  0.00000000000E+00 0. -1.
         -2    1    1    2    0  502 -0.16395763534E+02 -0.12741086613E+02  0.13157945896E+03  0.13320777143E+03  0.00000000000E+00 0. -1.
</event>
<event>
 4    1  0.5847355E+003  0.2354253E+02  0.7546771E-02  0.1485796E+00
          2   -1    0    0  501    0  0.00000000000E+00  0.00000000000E+00  0.29502857975E+03  0.29502857975E+03  0.00000000000E+00 0.  1.
         -2   -1    0    0    0  501 -0.00000000000E+00 -0.00000000000E+00 -0.21704237917E+02  0.21704237917E+02  0.00000000000E+00 0.  1.
          2    1    1    2  502    0 -0.22346501276E+02 -0.74084247134E+01  0.28801969151E+03  0.28898026503E+03  0.00000000000E+00 0.  1.
         -2    1    1    2    0  502  0.22346501276E+02  0.74084247134E+01 -0.14695349678E+02  0.27752552642E+02  0.00000000000E+00 0.  1.
</event>
<event>
 4    1  0.5847355E+003  0.3030135E+02  0.7546771E-02  0.1416995E+00
          2   -1    0    0  501    0  0.00000000000E+00  0.00000000000E+00  0.52847651530E+03  0.52847651530E+03  0.00000000000E+00 0. -1.
         -2   -1    0    0    0  501 -0.00000000000E+00 -0.00000000000E+00 -0.32598217716E+02  0.32598217716E+02  0.00000000000E+00 0. -1.
          2    1    1    2  502    0 -0.24624568288E+02 -0.17657926767E+02  0.52089822972E+03  0.52177882044E+03  0.00000000000E+00 0. -1.
         -2    1    1    2    0  502  0.24624568288E+02  0.17657926767E+02 -0.25019932132E+02  0.39295912573E+02  0.00000000000E+00 0. -1.
</event>
<event>
 4    1  0.5847355E+003  0.2943344E+02  0.7546771E-02  0.1424585E+00
          2   -1    0    0  501    0  0.00000000000E+00  0.00000000000E+00  0.31186346888E+02  0.31186346888E+02  0.00000000000E+00 0.  1.
         -2   -1    0    0    0  501 -0.00000000000E+00 -0.00000000000E+00 -0.71128027094E+02  0.71128027094E+02  0.00000000000E+00 0.  1.
          2    1    1    2  502    0 -0.92823083067E+01 -0.27931454511E+02  0.19966179515E+02  0.35566497199E+02  0.00000000000E+00 0.  1.
         -2    1    1    2    0  502  0.92823083067E+01  0.27931454511E+02 -0.59907859721E+02  0.66747876782E+02  0.00000000000E+00 0.  1.
</event>
<event>
 4    1  0.5847355E+003  0.3838432E+02  0.7546771E-02  0.1358223E+00
          2   -1    0    0  501    0  0.00000000000E+00  0.00000000000E+00  0.13283352326E+03  0.13283352326E+03  0.00000000000E+00 0.  1.
         -2   -1    0    0    0  501 -0.00000000000E+00 -0.00000000000E+00 -0.17419175425E+03  0.17419175425E+03  0.00000000000E+00 0.  1.
          2    1    1    2  502    0 -0.32806027771E+02 -0.19927886867E+02  0.12786564151E+03  0.13350272810E+03  0.00000000000E+00 0.  1.
         -2    1    1    2    0  502  0.32806027771E+02  0.19927886867E+02 -0.16922387249E+03  0.17352254941E+03  0.00000000000E+00 0.  1.
</event>
<event>
 4    1  0.5847355E+003  0.2636152E+02  0.7546771E-02  0.1454129E+00
          2   -1    0    0  501    0  0.00000000000E+00  0.00000000000E+00  0.74895018813E+03  0.74895018813E+03  0.00000000000E+00 0. -1.
         -2   -1    0    0    0  501 -0.00000000000E+00 -0.00000000000E+00 -0.32032713220E+01  0.32032713220E+01  0.00000000000E+00 0. -1.
          2    1    1    2  502    0  0.57463348163E+01 -0.25727598879E+02  0.68983636200E+03  0.69033986995E+03  0.00000000000E+00 0. -1.
         -2    1    1    2    0  502 -0.57463348163E+01  0.25727598879E+02  0.55910554803E+02  0.61813589495E+02  0.00000000000E+00 0. -1.
</event>
<event>
 4    1  0.5847355E+003  0.2130174E+02  0.7546771E-02  0.1515000E+00
          2   -1    0    0  501    0  0.00000000000E+00  0.00000000000E+00  0.12798523788E+03  0.12798523788E+03  0.00000000000E+00 0.  1.
         -2   -1    0    0    0  501 -0.00000000000E+00 -0.00000000000E+00 -0.26313107863E+02  0.26313107863E+02  0.00000000000E+00 0. -1.
          2    1    1    2  502    0  0.13966542420E+02 -0.16084152354E+02  0.12259970418E+03  0.12443653695E+03  0.00000000000E+00 0.  1.
         -2    1    1    2    0  502 -0.13966542420E+02  0.16084152354E+02 -0.20927574159E+02  0.29861808792E+02  0.00000000000E+00 0. -1.
</event>
<event>
 4    1  0.5847355E+003  0.2603493E+02  0.7546771E-02  0.1457551E+00
          2   -1    0    0  501    0  0.00000000000E+00  0.00000000000E+00  0.37310651364E+02  0.37310651364E+02  0.00000000000E+00 0.  1.
         -2   -1    0    0    0  501 -0.00000000000E+00 -0.00000000000E+00 -0.22171645010E+02  0.22171645010E+02  0.00000000000E+00 0.  1.
          2    1    1    2  502    0  0.22431258198E+02 -0.13215763202E+02  0.20209525782E+02  0.32958195850E+02  0.00000000000E+00 0.  1.
         -2    1    1    2    0  502 -0.22431258198E+02  0.13215763202E+02 -0.50705194287E+01  0.26524100524E+02  0.00000000000E+00 0.  1.
</event>
<event>
 4    1  0.5847355E+003  0.5266584E+02  0.7546771E-02  0.1287010E+00
          2   -1    0    0  501    0  0.00000000000E+00  0.00000000000E+00  0.11859250156E+04  0.11859250156E+04  0.00000000000E+00 0. -1.
         -2   -1    0    0    0  501 -0.00000000000E+00 -0.00000000000E+00 -0.24783197808E+01  0.24783197808E+01  0.00000000000E+00 0.  1.
          2    1    1    2  502    0  0.45114986539E+01 -0.52472251026E+02  0.73268739154E+03  0.73457777292E+03  0.00000000000E+00 0. -1.
         -2    1    1    2    0  502 -0.45114986539E+01  0.52472251026E+02  0.45075930430E+03  0.45382556248E+03  0.00000000000E+00 0.  1.
</event>
<event>
 4    1  0.5847355E+003  0.2496512E+02  0.7546771E-02  0.1469194E+00
          2   -1    0    0  501    0  0.00000000000E+00  0.00000000000E+00  0.63253758743E+02  0.63253758743E+02  0.00000000000E+00 0.  1.
         -2   -1    0    0    0  501 -0.00000000000E+00 -0.00000000000E+00 -0.98541603788E+01  0.98541603788E+01  0.00000000000E+00 0.  1.
          2    1    1    2  502    0 -0.24751221507E+02  0.32609219188E+01  0.26352995621E+02  0.36300646772E+02  0.00000000000E+00 0.  1.
         -2    1    1    2    0  502  0.24751221507E+02 -0.32609219188E+01  0.27046602743E+02  0.36807272349E+02  0.00000000000E+00 0.  1.
</event>
<event>
 4    1  0.5847355E+003  0.3327815E+02  0.7546771E-02  0.1393090E+00
          2   -1    0    0  501    0  0.00000000000E+00  0.00000000000E+00  0.11328560853E+03  0.11328560853E+03  0.00000000000E+00 0.  1.
         -2   -1    0    0    0  501 -0.00000000000E+00 -0.00000000000E+00 -0.65541117047E+02  0.65541117047E+02  0.00000000000E+00 0.  1.
          2    1    1    2  502    0 -0.31738991677E+01 -0.33126452921E+02  0.10634839027E+03  0.11143345832E+03  0.00000000000E+00 0.  1.
         -2    1    1    2    0  502  0.31738991677E+01  0.33126452921E+02 -0.58603898788E+02  0.67393267262E+02  0.00000000000E+00 0.  1.
</event>
<event>
 4    1  0.5847355E+003  0.2440714E+02  0.7546771E-02  0.1475546E+00
          2   -1    0    0  501    0  0.00000000000E+00  0.00000000000E+00  0.51210216287E+03  0.51210216287E+03  0.00000000000E+00 0.  1.
         -2   -1    0    0    0  501 -0.00000000000E+00 -0.00000000000E+00 -0.30071196485E+02  0.30071196485E+02  0.00000000000E+00 0.  1.
          2    1    1    2  502    0  0.19929157504E+02  0.14090317688E+02  0.50680715205E+03  0.50739451883E+03  0.00000000000E+00 0.  1.
         -2    1    1    2    0  502 -0.19929157504E+02 -0.14090317688E+02 -0.24776185671E+02  0.34778840518E+02  0.00000000000E+00 0.  1.
</event>
<event>
 4    1  0.5847355E+003  0.3255169E+02  0.7546771E-02  0.1398644E+00
          2   -1    0    0  501    0  0.00000000000E+00  0.00000000000E+00  0.70214735253E+03  0.70214735253E+03  0.00000000000E+00 0. -1.
         -2   -1    0    0    0  501 -0.00000000000E+00 -0.00000000000E+00 -0.29647334184E+01  0.29647334184E+01  0.00000000000E+00 0.  1.
          2    1    1    2  502    0 -0.78698851908E+01 -0.31586035707E+02  0.59662767290E+03  0.59751501472E+03  0.00000000000E+00 0. -1.
         -2    1    1    2    0  502  0.78698851908E+01  0.31586035707E+02  0.10255494621E+03  0.10759707122E+03  0.00000000000E+00 0.  1.
</event>
<event>
 4    1  0.5847355E+003  0.3582307E+02  0.7546771E-02  0.1374867E+00
          2   -1    0    0  501    0  0.00000000000E+00  0.00000000000E+00  0.15743818182E+04  0.15743818182E+04  0.00000000000E+00 0. -1.
         -2   -1    0    0    0  501 -0.00000000000E+00 -0.00000000000E+00 -0.59880158030E+01  0.59880158030E+01  0.00000000000E+00 0.  1.
          2    1    1    2  502    0 -0.55689616370E+01  0.35387551289E+02  0.15186340089E+04  0.15190564654E+04  0.00000000000E+00 0. -1.
         -2    1    1    2    0  502  0.55689616370E+01 -0.35387551289E+02  0.49759793530E+02  0.61313368625E+02  0.00000000000E+00 0.  1.
</event>
<event>
 4    1  0.5847355E+003  0.2372754E+02  0.7546771E-02  0.1483559E+00
          2   -1    0    0  501    0  0.00000000000E+00  0.00000000000E+00  0.15417406310E+04  0.15417406310E+04  0.00000000000E+00 0. -1.
         -2   -1    0    0    0  501 -0.00000000000E+00 -0.00000000000E+00 -0.18287933830E+01  0.18287933830E+01  0.00000000000E+00 0. -1.
          2    1    1    2  502    0 -0.23462230131E+02 -0.35383709890E+01  0.14604001855E+04  0.14605929269E+04  0.00000000000E+00 0. -1.
         -2    1    1    2    0  502  0.23462230131E+02  0.35383709890E+01  0.79511652172E+02  0.82976497535E+02  0.00000000000E+00 0. -1.
</event>
<event>
 4    1  0.5847355E+003  0.6324487E+02  0.7546771E-02  0.1249189E+00
          2   -1    0    0  501    0  0.00000000000E+00  0.00000000000E+00  0.70067886833E+03  0.70067886833E+03  0.00000000000E+00 0.  1.
         -2   -1    0    0    0  501 -0.00000000000E+00 -0.00000000000E+00 -0.86492100454E+01  0.86492100454E+01  0.00000000000E+00 0. -1.
          2    1    1    2  502    0 -0.30655354507E+02 -0.55318743269E+02  0.55281251674E+03  0.55641854102E+03  0.00000000000E+00 0.  1.
         -2    1    1    2    0  502  0.30655354507E+02  0.55318743269E+02  0.13921714154E+03  0.15290953736E+03  0.00000000000E+00 0. -1.
</event>
<event>
 4    1  0.5847355E+003  0.5423353E+02  0.7546771E-02  0.1280792E+00
          2   -1    0    0  501    0  0.00000000000E+00  0.00000000000E+00  0.16346315070E+04  0.16346315070E+04  0.00000000000E+00 0.  1.
         -2   -1    0    0    0  501 -0.00000000000E+00 -0.00000000000E+00 -0.34433100079E+01  0.34433100079E+01  0.00000000000E+00 0.  1.
          2    1    1    2  502    0 -0.48404456054E+02  0.24459855890E+02  0.13815220719E+04  0.13825861677E+04  0.00000000000E+00 0.  1.
         -2    1    1    2    0  502  0.48404456054E+02 -0.24459855890E+02  0.24966612507E+03  0.25548864930E+03  0.00000000000E+00 0.  1.
</event>
<event>
 4    1  0.5847355E+003  0.6494156E+02  0.7546771E-02  0.1243908E+00
          2   -1    0    0  501    0  0.00000000000E+00  0.00000000000E+00  0.14247354244E+04  0.14247354244E+04  0.00000000000E+00 0. -1.
         -2   -1    0    0    0  501 -0.00000000000E+00 -0.00000000000E+00 -0.61191798912E+01  0.61191798912E+01  0.00000000000E+00 0. -1.
          2    1    1    2  502    0  0.59142866969E+02  0.26824014337E+02  0.12233481402E+04  0.12250706423E+04  0.00000000000E+00 0. -1.
         -2    1    1    2    0  502 -0.59142866969E+02 -0.26824014337E+02  0.19526810431E+03  0.20578396200E+03  0.00000000000E+00 0. -1.
</event>
<event>
 4    1  0.5847355E+003  0.2141062E+02  0.7546771E-02  0.1513482E+00
          2   -1    0    0  501    0  0.00000000000E+00  0.00000000000E+00  0.21456157103E+03  0.21456157103E+03  0.00000000000E+00 0.  1.
         -2   -1    0    0    0  501 -0.00000000000E+00 -0.00000000000E+00 -0.49145663871E+01  0.49145663871E+01  0.00000000000E+00 0. -1.
          2    1    1    2  502    0 -0.42536303341E+01  0.20983828884E+02  0.18732934232E+03  0.18854892453E+03  0.00000000000E+00 0.  1.
         -2    1    1    2    0  502  0.42536303341E+01 -0.20983828884E+02  0.22317662321E+02  0.30927212890E+02  0.00000000000E+00 0. -1.
</event>
<event>
 4    1  0.5847355E+003  0.2336490E+02  0.7546771E-02  0.1487966E+00
          2   -1    0    0  501    0  0.00000000000E+00  0.00000000000E+00  0.11311675519E+04  0.11311675519E+04  0.00000000000E+00 0.  1.
         -2   -1    0    0    0  501 -0.00000000000E+00 -0.00000000000E+00 -0.16998703952E+02  0.16998703952E+02  0.00000000000E+00 0. -1.
          2    1    1    2  502    0  0.14726177159E+02 -0.18139969155E+02  0.11229593891E+04  0.11232024343E+04  0.00000000000E+00 0.  1.
         -2    1    1    2    0  502 -0.14726177159E+02  0.18139969155E+02 -0.87905411477E+01  0.24963821589E+02  0.00000000000E+00 0. -1.
</event>
<event>
 4    1  0.5847355E+003  0.2777627E+02  0.7546771E-02  0.1439962E+00
          2   -1    0    0  501    0  0.00000000000E+00  0.00000000000E+00  0.22139817716E+03  0.22139817716E+03  0.00000000000E+00 0. -1.
         -2   -1    0    0    0  501 -0.00000000000E+00 -0.00000000000E+00 -0.30568341068E+03  0.30568341068E+03  0.00000000000E+00 0. -1.
          2    1    1    2  502    0 -0.22935852702E+02  0.15667411678E+02  0.21989169906E+03  0.22163907698E+03  0.00000000000E+00 0. -1.
         -2    1    1    2    0  502  0.22935852702E+02 -0.15667411678E+02 -0.30417693258E+03  0.30544251087E+03  0.00000000000E+00 0. -1.
</event>
<event>
 4    1  0.5847355E+003  0.2173984E+02  0.7546771E-02  0.1508959E+00
          2   -1    0    0  501    0  0.00000000000E+00  0.00000000000E+00  0.19582171506E+03  0.19582171506E+03  0.00000000000E+00 0.  1.
         -2   -1    0    0    0  501 -0.00000000000E+00 -0.00000000000E+00 -0.16276629152E+02  0.16276629152E+02  0.00000000000E+00 0. -1.
          2    1    1    2  502    0  0.20789940979E+02  0.63560066559E+01  0.18764383062E+03  0.18889898792E+03  0.00000000000E+00 0.  1.
         -2    1    1    2    0  502 -0.20789940979E+02 -0.63560066559E+01 -0.80987447127E+01  0.23199356294E+02  0.00000000000E+00 0. -1.
</event>
<event>
 4    1  0.5847355E+003  0.2734419E+02  0.7546771E-02  0.1444181E+00
          2   -1    0    0  501    0  0.00000000000E+00  0.00000000000E+00  0.55448452056E+03  0.55448452056E+03  0.00000000000E+00 0. -1.
         -2   -1    0    0    0  501 -0.00000000000E+00 -0.00000000000E+00 -0.97079890487E+01  0.97079890487E+01  0.00000000000E+00 0.  1.
          2    1    1    2  502    0 -0.54793442147E+01 -0.26789580479E+02  0.53416037346E+03  0.53485980351E+03  0.00000000000E+00 0. -1.
         -2    1    1    2    0  502  0.54793442147E+01  0.26789580479E+02  0.10616158050E+02  0.29332706098E+02  0.00000000000E+00 0.  1.
</event>
<event>
 4    1  0.5847355E+003  0.3221557E+02  0.7546771E-02  0.1401272E+00
          2   -1    0    0  501    0  0.00000000000E+00  0.00000000000E+00  0.64328054128E+03  0.64328054128E+03  0.00000000000E+00 0. -1.
         -2   -1    0    0    0  501 -0.00000000000E+00 -0.00000000000E+00 -0.16251889974E+01  0.16251889974E+01  0.00000000000E+00 0. -1.
          2    1    1    2  502    0  0.23183688161E+02 -0.22368723599E+02  0.34833735186E+03  0.34982388982E+03  0.00000000000E+00 0. -1.
         -2    1    1    2    0  502 -0.23183688161E+02  0.22368723599E+02  0.29331800042E+03  0.29508184045E+03  0.00000000000E+00 0. -1.
</event>
<event>
 4    1  0.5847355E+003  0.4325991E+02  0.7546771E-02  0.1330373E+00
          2   -1    0    0  501    0  0.00000000000E+00  0.00000000000E+00  0.92002937029E+02  0.92002937029E+02  0.00000000000E+00 0. -1.
         -2   -1    0    0    0  501 -0.00000000000E+00 -0.00000000000E+00 -0.40802620729E+02  0.40802620729E+02  0.00000000000E+00 0.  1.
          2    1    1    2  502    0  0.11215655387E+02  0.41780720175E+02  0.72623517519E+02  0.84531620125E+02  0.00000000000E+00 0. -1.
         -2    1    1    2    0  502 -0.11215655387E+02 -0.41780720175E+02 -0.21423201219E+02  0.48273937633E+02  0.00000000000E+00 0.  1.
</event>
<event>
 4    1  0.5847355E+003  0.2724194E+02  0.7546771E-02  0.1445193E+00
          2   -1    0    0  501    0  0.00000000000E+00  0.00000000000E+00  0.11550152880E+04  0.11550152880E+04  0.00000000000E+00 0. -1.
         -2   -1    0    0    0  501 -0.00000000000E+00 -0.00000000000E+00 -0.85835642516E+01  0.85835642516E+01  0.00000000000E+00 0. -1.
          2    1    1    2  502    0 -0.26299309811E+02 -0.71041853225E+01  0.11328164999E+04  0.11331440092E+04  0.00000000000E+00 0. -1.
         -2    1    1    2    0  502  0.26299309811E+02  0.71041853225E+01  0.13615223876E+02  0.30454843077E+02  0.00000000000E+00 0. -1.
</event>
<event>
 4    1  0.5847355E+003  0.2851029E+02  0.7546771E-02  0.1433000E+00
          2   -1    0    0  501    0  0.00000000000E+00  0.00000000000E+00  0.91904754755E+02  0.91904754755E+02  0.00000000000E+00 0. -1.
         -2   -1    0    0    0  501 -0.00000000000E+00 -0.00000000000E+00 -0.53429374807E+03  0.53429374807E+03  0.00000000000E+00 0. -1.
          2    1    1    2  502    0 -0.27720205316E+02 -0.66653333739E+01  0.89302524955E+02  0.93743145963E+02  0.00000000000E+00 0. -1.
         -2    1    1    2    0  502  0.27720205316E+02  0.66653333739E+01 -0.53169151827E+03  0.53245535686E+03  0.00000000000E+00 0. -1.
</event>
<event>
 4    1  0.5847355E+003  0.2244306E+02  0.7546771E-02  0.1499613E+00
          2   -1    0    0  501    0  0.00000000000E+00  0.00000000000E+00  0.76882756985E+03  0.76882756985E+03  0.00000000000E+00 0. -1.
         -2   -1    0    0    0  501 -0.00000000000E+00 -0.00000000000E+00 -0.20966821726E+01  0.20966821726E+01  0.00000000000E+00 0.  1.
          2    1    1    2  502    0  0.17954314787E+02 -0.13466006791E+02  0.70298171376E+03  0.70333987562E+03  0.00000000000E+00 0. -1.
         -2    1    1    2    0  502 -0.17954314787E+02  0.13466006791E+02  0.63749173917E+02  0.67584376400E+02  0.00000000000E+00 0.  1.
</event>
<event>
 4    1  0.5847355E+003  0.2388628E+02  0.7546771E-02  0.1481659E+00
          2   -1    0    0  501    0  0.00000000000E+00  0.00000000000E+00  0.36755586561E+03  0.36755586561E+03  0.00000000000E+00 0.  1.
         -2   -1    0    0    0  501 -0.00000000000E+00 -0.00000000000E+00 -0.73199170354E+02  0.73199170354E+02  0.00000000000E+00 0. -1.
          2    1    1    2  502    0  0.22729404354E+02 -0.73436107002E+01  0.36520663391E+03  0.36598693951E+03  0.00000000000E+00 0.  1.
         -2    1    1    2    0  502 -0.22729404354E+02  0.73436107002E+01 -0.70849938652E+02  0.74768096455E+02  0.00000000000E+00 0. -1.
</event>
<event>
 4    1  0.5847355E+003  0.2501889E+02  0.7546771E-02  0.1468592E+00
          2   -1    0    0  501    0  0.00000000000E+00  0.00000000000E+00  0.35946843359E+03  0.35946843359E+03  0.00000000000E+00 0.  1.
         -2   -1    0    0    0  501 -0.00000000000E+00 -0.00000000000E+00 -0.18007721252E+01  0.18007721252E+01  0.00000000000E+00 0.  1.
          2    1    1    2  502    0 -0.13351953276E+02  0.21158221712E+02  0.21165860099E+03  0.21313213830E+03  0.00000000000E+00 0.  1.
         -2    1    1    2    0  502  0.13351953276E+02 -0.21158221712E+02  0.14600906047E+03  0.14813706742E+03  0.00000000000E+00 0.  1.
</event>
<event>
 4    1  0.5847355E+003  0.3450644E+02  0.7546771E-02  0.1384067E+00
          2   -1    0    0  501    0  0.00000000000E+00  0.00000000000E+00  0.97366458261E+03  0.97366458261E+03  0.00000000000E+00 0.  1.
         -2   -1    0    0    0  501 -0.00000000000E+00 -0.00000000000E+00 -0.16046060405E+01  0.16046060405E+01  0.00000000000E+00 0.  1.
          2    1    1    2  502    0  0.10589539116E+02  0.32841380853E+02  0.72386439703E+03  0.72468638729E+03  0.00000000000E+00 0.  1.
         -2    1    1    2    0  502 -0.10589539116E+02 -0.32841380853E+02  0.24819557954E+03  0.25058280136E+03  0.00000000000E+00 0.  1.
</event>
<event>
 4    1  0.5847355E+003  0.2570490E+02  0.7546771E-02  0.1461070E+00
          2   -1    0    0  501    0  0.00000000000E+00  0.00000000000E+00  0.15796578658E+02  0.15796578658E+02  0.00000000000E+00 0. -1.
         -2   -1    0    0    0  501 -0.00000000000E+00 -0.00000000000E+00 -0.23055762613E+03  0.23055762613E+03  0.00000000000E+00 0.  1.
          2    1    1    2  502    0  0.25571599484E+02 -0.26143731194E+01  0.40643524063E+01  0.26024231160E+02  0.00000000000E+00 0. -1.
         -2    1    1    2    0  502 -0.25571599484E+02  0.26143731194E+01 -0.21882539988E+03  0.22032997363E+03  0.00000000000E+00 0.  1.
</event>
<event>
 4    1  0.5847355E+003  0.2821800E+02  0.7546771E-02  0.1435742E+00
          2   -1    0    0  501    0  0.00000000000E+00  0.00000000000E+00  0.21459841775E+01  0.21459841775E+01  0.00000000000E+00 0.  1.
         -2   -1    0    0    0  501 -0.00000000000E+00 -0.00000000000E+00 -0.41417266808E+03  0.41417266808E+03  0.00000000000E+00 0.  1.
          2    1    1    2  502    0  0.17216584908E+02 -0.22357183562E+02 -0.27318536281E+03  0.27463884814E+03  0.00000000000E+00 0.  1.
         -2    1    1    2    0  502 -0.17216584908E+02  0.22357183562E+02 -0.13884132109E+03  0.14167980412E+03  0.00000000000E+00 0.  1.
</event>
<event>
 4    1  0.5847355E+003  0.2587980E+02  0.7546771E-02  0.1459197E+00
          2   -1    0    0  501    0  0.00000000000E+00  0.00000000000E+00  0.11112054164E+04  0.11112054164E+04  0.00000000000E+00 0.  1.
         -2   -1    0    0    0  501 -0.00000000000E+00 -0.00000000000E+00 -0.17558220695E+02  0.17558220695E+02  0.00000000000E+00 0. -1.
          2    1    1    2  502    0 -0.13512809969E+02  0.22071878239E+02  0.11014338119E+04  0.11017378118E+04  0.00000000000E+00 0.  1.
         -2    1    1    2    0  502  0.13512809969E+02 -0.22071878239E+02 -0.77866162172E+01  0.27025825323E+02  0.00000000000E+00 0. -1.
</event>
<event>
 4    1  0.5847355E+003  0.2018738E+02  0.7546771E-02  0.1531190E+00
          2   -1    0    0  501    0  0.00000000000E+00  0.00000000000E+00  0.62261185994E+03  0.62261185994E+03  0.00000000000E+00 0. -1.
         -2   -1    0    0    0  501 -0.00000000000E+00 -0.00000000000E+00 -0.18695097687E+03  0.18695097687E+03  0.00000000000E+00 0.  1.
          2    1    1    2  502    0  0.17940363313E+02  0.92560183947E+01  0.62190263139E+03  0.62223019329E+03  0.00000000000E+00 0. -1.
         -2    1    1    2    0  502 -0.17940363313E+02 -0.92560183947E+01 -0.18624174832E+03  0.18733264352E+03  0.00000000000E+00 0.  1.
</event>
<event>
 4    1  0.5847355E+003  0.2923193E+02  0.7546771E-02  0.1426390E+00
          2   -1    0    0  501    0  0.00000000000E+00  0.00000000000E+00  0.14062277257E+04  0.14062277257E+04  0.00000000000E+00 0. -1.
         -2   -1    0    0    0  501 -0.00000000000E+00 -0.00000000000E+00 -0.37155862525E+02  0.37155862525E+02  0.00000000000E+00 0. -1.
          2    1    1    2  502    0 -0.14273587292E+02 -0.25510201310E+02  0.14003020163E+04  0.14006070979E+04  0.00000000000E+00 0. -1.
         -2    1    1    2    0  502  0.14273587292E+02  0.25510201310E+02 -0.31230153128E+02  0.42776490383E+02  0.00000000000E+00 0. -1.
</event>
<event>
 4    1  0.5847355E+003  0.2514658E+02  0.7546771E-02  0.1467170E+00
          2   -1    0    0  501    0  0.00000000000E+00  0.00000000000E+00  0.44325931081E+03  0.44325931081E+03  0.00000000000E+00 0. -1.
         -2   -1    0    0    0  501 -0.00000000000E+00 -0.00000000000E+00 -0.46319116082E+02  0.46319116082E+02  0.00000000000E+00 0.  1.
          2    1    1    2  502    0 -0.24096334686E+02  0.71914457454E+01  0.43946017241E+03  0.44017904694E+03  0.00000000000E+00 0. -1.
         -2    1    1    2    0  502  0.24096334686E+02 -0.71914457454E+01 -0.42519977680E+02  0.49399379947E+02  0.00000000000E+00 0.  1.
</event>
<event>
 4    1  0.5847355E+003  0.2685827E+02  0.7546771E-02  0.1449037E+00
          2   -1    0    0  501    0  0.00000000000E+00  0.00000000000E+00  0.13800305525E+04  0.13800305525E+04  0.00000000000E+00 0.  1.
         -2   -1    0    0    0  501 -0.00000000000E+00 -0.00000000000E+00 -0.91547280251E+00  0.91547280251E+00  0.00000000000E+00 0.  1.
          2    1    1    2  502    0  0.25602610069E+02  0.81162081900E+01  0.11418140955E+04  0.11421299379E+04  0.00000000000E+00 0.  1.
         -2    1    1    2    0  502 -0.25602610069E+02 -0.81162081900E+01  0.23730098424E+03  0.23881608740E+03  0.00000000000E+00 0.  1.
</event>
<event>
 4    1  0.5847355E+003  0.2958768E+02  0.7546771E-02  0.1423214E+00
          2   -1    0    0  501    0  0.00000000000E+00  0.00000000000E+00  0.18507350288E+03  0.18507350288E+03  0.00000000000E+00 0.  1.
         -2   -1    0    0    0  501 -0.00000000000E+00 -0.00000000000E+00 -0.59979165870E+01  0.59979165870E+01  0.00000000000E+00 0. -1.
          2    1    1    2  502    0 -0.21099288899E+02  0.20742484712E+02  0.13345961334E+03  0.13670003312E+03  0.00000000000E+00 0.  1.
         -2    1    1    2    0  502  0.21099288899E+02 -0.20742484712E+02  0.45615972952E+02  0.54371386338E+02  0.00000000000E+00 0. -1.
</event>
<event>
 4    1  0.5847355E+003  0.2256476E+02  0.7546771E-02  0.1498037E+00
          2   -1    0    0  501    0  0.00000000000E+00  0.00000000000E+00  0.10970036540E+04  0.10970036540E+04  0.00000000000E+00 0.  1.
         -2   -1    0    0    0  501 -0.00000000000E+00 -0.00000000000E+00 -0.62158640478E+00  0.62158640478E+00  0.00000000000E+00 0.  1.
          2    1    1    2  502    0 -0.22336805175E+02  0.31992928324E+01  0.82439718322E+03  0.82470593792E+03  0.00000000000E+00 0.  1.
         -2    1    1    2    0  502  0.22336805175E+02 -0.31992928324E+01  0.27198488442E+03  0.27291930253E+03  0.00000000000E+00 0.  1.
</event>
<event>
 4    1  0.5847355E+003  0.2736497E+02  0.7546771E-02  0.1443976E+00
          2   -1    0    0  501    0  0.00000000000E+00  0.00000000000E+00  0.93107323391E+03  0.93107323391E+03  0.00000000000E+00 0. -1.
         -2   -1    0    0    0  501 -0.00000000000E+00 -0.00000000000E+00 -0.17406030741E+01  0.17406030741E+01  0.00000000000E+00 0. -1.
          2    1    1    2  502    0 -0.18471376088E+02 -0.20190342836E+02  0.80674691727E+03  0.80721089574E+03  0.00000000000E+00 0. -1.
         -2    1    1    2    0  502  0.18471376088E+02  0.20190342836E+02  0.12258571356E+03  0.12560294124E+03  0.00000000000E+00 0. -1.
</event>
<event>
 4    1  0.5847355E+003  0.3364390E+02  0.7546771E-02  0.1390356E+00
          2   -1    0    0  501    0  0.00000000000E+00  0.00000000000E+00  0.29525927623E+01  0.29525927623E+01  0.00000000000E+00 0. -1.
         -2   -1    0    0    0  501 -0.00000000000E+00 -0.00000000000E+00 -0.38401934309E+03  0.38401934309E+03  0.00000000000E+00 0. -1.
          2    1    1    2  502    0 -0.15456036587E+02  0.29883467201E+02 -0.19854096475E+03  0.20137136182E+03  0.00000000000E+00 0. -1.
         -2    1    1    2    0  502  0.15456036587E+02 -0.29883467201E+02 -0.18252578557E+03  0.18560057402E+03  0.00000000000E+00 0. -1.
</event>
<event>
 4    1  0.5847355E+003  0.2089842E+02  0.7546771E-02  0.1520720E+00
          2   -1    0    0  501    0  0.00000000000E+00  0.00000000000E+00  0.85190825898E+02  0.85190825898E+02  0.00000000000E+00 0.  1.
         -2   -1    0    0    0  501 -0.00000000000E+00 -0.00000000000E+00 -0.38897802938E+02  0.38897802938E+02  0.00000000000E+00 0.  1.
          2    1    1    2  502    0 -0.68016114426E+01 -0.19760614772E+02  0.80957763870E+02  0.83611622070E+02  0.00000000000E+00 0.  1.
         -2    1    1    2    0  502  0.68016114426E+01  0.19760614772E+02 -0.34664740910E+02  0.40477006766E+02  0.00000000000E+00 0.  1.
</event>
<event>
 4    1  0.5847355E+003  0.5359790E+02  0.7546771E-02  0.1283284E+00
          2   -1    0    0  501    0  0.00000000000E+00  0.00000000000E+00  0.20075113189E+04  0.20075113189E+04  0.00000000000E+00 0. -1.
         -2   -1    0    0    0  501 -0.00000000000E+00 -0.00000000000E+00 -0.81004413140E+01  0.81004413140E+01  0.00000000000E+00 0.  1.
          2    1    1    2  502    0  0.47566126790E+02  0.24702204457E+02  0.19141712906E+04  0.19149215297E+04  0.00000000000E+00 0. -1.
         -2    1    1    2    0  502 -0.47566126790E+02 -0.24702204457E+02  0.85239586999E+02  0.10069023048E+03  0.00000000000E+00 0.  1.
</event>
<event>
 4    1  0.5847355E+003  0.2001448E+02  0.7546771E-02  0.1533814E+00
          2   -1    0    0  501    0  0.00000000000E+00  0.00000000000E+00  0.12116581021E+04  0.12116581021E+04  0.00000000000E+00 0.  1.
         -2   -1    0    0    0  501 -0.00000000000E+00 -0.00000000000E+00 -0.21492780720E+01  0.21492780720E+01  0.00000000000E+00 0.  1.
          2    1    1    2  502    0  0.86009850765E+01  0.18072148650E+02  0.11630328619E+04  0.11632050625E+04  0.00000000000E+00 0.  1.
         -2    1    1    2    0  502 -0.86009850765E+01 -0.18072148650E+02  0.46475962156E+02  0.50602317728E+02  0.00000000000E+00 0.  1.
</event>
<event>
 4    1  0.5847355E+003  0.2234281E+02  0.7546771E-02  0.1500920E+00
          2   -1    0    0  501    0  0.00000000000E+00  0.00000000000E+00  0.16397338529E+04  0.16397338529E+04  0.00000000000E+00 0.  1.
         -2   -1    0    0    0  501 -0.00000000000E+00 -0.00000000000E+00 -0.37866679621E+00  0.37866679621E+00  0.00000000000E+00 0. -1.
          2    1    1    2  502    0 -0.10443615792E+02 -0.19751764008E+02  0.11827507257E+04  0.11829617409E+04  0.00000000000E+00 0.  1.
         -2    1    1    2    0  502  0.10443615792E+02  0.19751764008E+02  0.45660446044E+03  0.45715077883E+03  0.00000000000E+00 0. -1.
</event>
<event>
 4    1  0.5847355E+003  0.2312837E+02  0.7546771E-02  0.1490893E+00
          2   -1    0    0  501    0  0.00000000000E+00  0.00000000000E+00  0.64589823231E+02  0.64589823231E+02  0.00000000000E+00 0. -1.
         -2   -1    0    0    0  501 -0.00000000000E+00 -0.00000000000E+00 -0.43871625259E+02  0.43871625259E+02  0.00000000000E+00 0.  1.
          2    1    1    2  502    0  0.16276790995E+02  0.16431291811E+02  0.59203675641E+02  0.63560966678E+02  0.00000000000E+00 0. -1.
         -2    1    1    2    0  502 -0.16276790995E+02 -0.16431291811E+02 -0.38485477668E+02  0.44900481813E+02  0.00000000000E+00 0.  1.
</event>
<event>
 4    1  0.5847355E+003  0.2269364E+02  0.7546771E-02  0.1496381E+00
          2   -1    0    0  501    0  0.00000000000E+00  0.00000000000E+00  0.17294000107E+04  0.17294000107E+04  0.00000000000E+00 0. -1.
         -2   -1    0    0    0  501 -0.00000000000E+00 -0.00000000000E+00 -0.47806728402E+00  0.47806728402E+00  0.00000000000E+00 0. -1.
          2    1    1    2  502    0 -0.20388300730E+02  0.99658620195E+01  0.13956012948E+04  0.13957857914E+04  0.00000000000E+00 0. -1.
         -2    1    1    2    0  502  0.20388300730E+02 -0.99658620195E+01  0.33332064860E+03  0.33409228665E+03  0.00000000000E+00 0. -1.
</event>
<event>
 4    1  0.5847355E+003  0.2467478E+02  0.7546771E-02  0.1472475E+00
          2   -1    0    0  501    0  0.00000000000E+00  0.00000000000E+00  0.34964902588E+03  0.34964902588E+03  0.00000000000E+00 0.  1.
         -2   -1    0    0    0  501 -0.00000000000E+00 -0.00000000000E+00 -0.20835277204E+01  0.20835277204E+01  0.00000000000E+00 0.  1.
          2    1    1    2  502    0 -0.24619157620E+02 -0.16556833125E+01  0.10250731578E+03  0.10543525975E+03  0.00000000000E+00 0.  1.
         -2    1    1    2    0  502  0.24619157620E+02  0.16556833125E+01  0.24505818238E+03  0.24629729385E+03  0.00000000000E+00 0.  1.
</event>
<event>
 4    1  0.5847355E+003  0.2354509E+02  0.7546771E-02  0.1485765E+00
          2   -1    0    0  501    0  0.00000000000E+00  0.00000000000E+00  0.14146608347E+03  0.14146608347E+03  0.00000000000E+00 0. -1.
         -2   -1    0    0    0  501 -0.00000000000E+00 -0.00000000000E+00 -0.12447228973E+02  0.12447228973E+02  0.00000000000E+00 0. -1.
          2    1    1    2  502    0 -0.60572552139E+01  0.22752601123E+02  0.12821031200E+03  0.13035434516E+03  0.00000000000E+00 0. -1.
         -2    1    1    2    0  502  0.60572552139E+01 -0.22752601123E+02  0.80854249747E+00  0.23558967285E+02  0.00000000000E+00 0. -1.
</event>
<event>
 4    1  0.5847355E+003  0.3010396E+02  0.7546771E-02  0.1418695E+00
          2   -1    0    0  501    0  0.00000000000E+00  0.00000000000E+00  0.98833772156E+02  0.98833772156E+02  0.00000000000E+00 0. -1.
         -2   -1    0    0    0  501 -0.00000000000E+00 -0.00000000000E+00 -0.47866861972E+03  0.47866861972E+03  0.00000000000E+00 0. -1.
          2    1    1    2  502    0  0.13614004181E+02 -0.26849720892E+02  0.96054725902E+02  0.10066160633E+03  0.00000000000E+00 0. -1.
         -2    1    1    2    0  502 -0.13614004181E+02  0.26849720892E+02 -0.47588957347E+03  0.47684078555E+03  0.00000000000E+00 0. -1.
</event>
<event>
 4    1  0.5847355E+003  0.2281412E+02  0.7546771E-02  0.1494845E+00
          2   -1    0    0  501    0  0.00000000000E+00  0.00000000000E+00  0.25725036091E+03  0.25725036091E+03  0.00000000000E+00 0. -1.
         -2   -1    0    0    0  501 -0.00000000000E+00 -0.00000000000E+00 -0.92454328958E+01  0.92454328958E+01  0.00000000000E+00 0.  1.
          2    1    1    2  502    0  0.19895059026E+02  0.11165608901E+02  0.24177138555E+03  0.24284539746E+03  0.00000000000E+00 0. -1.
         -2    1    1    2    0  502 -0.19895059026E+02 -0.11165608901E+02  0.62335424644E+01  0.23650396348E+02  0.00000000000E+00 0.  1.
</event>
<event>
 4    1  0.5847355E+003  0.2001792E+02  0.7546771E-02  0.1533762E+00
          2   -1    0    0  501    0  0.00000000000E+00  0.00000000000E+00  0.16648179023E+03  0.16648179023E+03  0.00000000000E+00 0. -1.
         -2   -1    0    0    0  501 -0.00000000000E+00 -0.00000000000E+00 -0.21307599776E+02  0.21307599776E+02  0.00000000000E+00 0.  1.
          2    1    1    2  502    0 -0.31927582176E+01  0.19761669745E+02  0.16101959159E+03  0.16225913279E+03  0.00000000000E+00 0. -1.
         -2    1    1    2    0  502  0.31927582176E+01 -0.19761669745E+02 -0.15845401143E+02  0.25530257216E+02  0.00000000000E+00 0.  1.
</event>
<event>
 4    1  0.5847355E+003  0.2047240E+02  0.7546771E-02  0.1526933E+00
          2   -1    0    0  501    0  0.00000000000E+00  0.00000000000E+00  0.65361721130E+03  0.65361721130E+03  0.00000000000E+00 0. -1.
         -2   -1    0    0    0  501 -0.00000000000E+00 -0.00000000000E+00 -0.10955302901E+01  0.10955302901E+01  0.00000000000E+00 0. -1.
          2    1    1    2  502    0  0.99582322120E+01 -0.17887224772E+02  0.53706536992E+03  0.53745542212E+03  0.00000000000E+00 0. -1.
         -2    1    1    2    0  502 -0.99582322120E+01  0.17887224772E+02  0.11545631109E+03  0.11725731947E+03  0.00000000000E+00 0. -1.
</event>
<event>
 4    1  0.5847355E+003  0.2398701E+02  0.7546771E-02  0.1480463E+00
          2   -1    0    0  501    0  0.00000000000E+00  0.00000000000E+00  0.38204847282E+03  0.38204847282E+03  0.00000000000E+00 0. -1.
         -2   -1    0    0    0  501 -0.00000000000E+00 -0.00000000000E+00 -0.55214937741E+02  0.55214937741E+02  0.00000000000E+00 0.  1.
          2    1    1    2  502    0 -0.23006273175E+02 -0.67888023040E+01  0.37904618479E+03  0.37980440577E+03  0.00000000000E+00 0. -1.
         -2    1    1    2    0  502  0.23006273175E+02  0.67888023040E+01 -0.52212649707E+02  0.57459004791E+02  0.00000000000E+00 0.  1.
</event>
<event>
 4    1  0.5847355E+003  0.2974845E+02  0.7546771E-02  0.1421795E+00
          2   -1    0    0  501    0  0.00000000000E+00  0.00000000000E+00  0.89380949663E+02  0.89380949663E+02  0.00000000000E+00 0.  1.
         -2   -1    0    0    0  501 -0.00000000000E+00 -0.00000000000E+00 -0.25004170773E+02  0.25004170773E+02  0.00000000000E+00 0.  1.
          2    1    1    2  502    0 -0.17373261536E+01  0.29697673798E+02  0.76637786337E+02  0.82209004530E+02  0.00000000000E+00 0.  1.
         -2    1    1    2    0  502  0.17373261536E+01 -0.29697673798E+02 -0.12261007446E+02  0.32176115906E+02  0.00000000000E+00 0.  1.
</event>
<event>
 4    1  0.5847355E+003  0.2652153E+02  0.7546771E-02  0.1452475E+00
          2   -1    0    0  501    0  0.00000000000E+00  0.00000000000E+00  0.32945878803E+02  0.32945878803E+02  0.00000000000E+00 0.  1.
         -2   -1    0    0    0  501 -0.00000000000E+00 -0.00000000000E+00 -0.21357972986E+02  0.21357972986E+02  0.00000000000E+00 0. -1.
          2    1    1    2  502    0  0.21460144168E+01  0.26434565533E+02  0.63214240126E+01  0.27264483020E+02  0.00000000000E+00 0. -1.
         -2    1    1    2    0  502 -0.21460144168E+01 -0.26434565533E+02  0.52664818048E+01  0.27039368769E+02  0.00000000000E+00 0.  1.
</event>
<event>
 4    1  0.5847355E+003  0.2731598E+02  0.7546771E-02  0.1444460E+00
          2   -1    0    0  501    0  0.00000000000E+00  0.00000000000E+00  0.40500511108E+03  0.40500511108E+03  0.00000000000E+00 0. -1.
         -2   -1    0    0    0  501 -0.00000000000E+00 -0.00000000000E+00 -0.23097274510E+01  0.23097274510E+01  0.00000000000E+00 0.  1.
          2    1    1    2  502    0 -0.24044025292E+02  0.12963323898E+02  0.29295955920E+03  0.29423029458E+03  0.00000000000E+00 0. -1.
         -2    1    1    2    0  502  0.24044025292E+02 -0.12963323898E+02  0.10973582443E+03  0.11308454395E+03  0.00000000000E+00 0.  1.
</event>
<event>
 4    1  0.5847355E+003  0.2260194E+02  0.7546771E-02  0.1497558E+00
          2   -1    0    0  501    0  0.00000000000E+00  0.00000000000E+00  0.52745974205E+03  0.52745974205E+03  0.00000000000E+00 0.  1.
         -2   -1    0    0    0  501 -0.00000000000E+00 -0.00000000000E+00 -0.10245826132E+01  0.10245826132E+01  0.00000000000E+00 0.  1.
          2    1    1    2  502    0  0.15400946930E+02 -0.16542610969E+02  0.20139811436E+03  0.20266239812E+03  0.00000000000E+00 0.  1.
         -2    1    1    2    0  502 -0.15400946930E+02  0.16542610969E+02  0.32503704507E+03  0.32582192654E+03  0.00000000000E+00 0.  1.
</event>
<event>
 4    1  0.5847355E+003  0.6516915E+02  0.7546771E-02  0.1243213E+00
          2   -1    0    0  501    0  0.00000000000E+00  0.00000000000E+00  0.13454533935E+03  0.13454533935E+03  0.00000000000E+00 0.  1.
         -2   -1    0    0    0  501 -0.00000000000E+00 -0.00000000000E+00 -0.75007620927E+02  0.75007620927E+02  0.00000000000E+00 0. -1.
          2    1    1    2  502    0 -0.66875543020E+01 -0.64825107788E+02  0.10950690972E+03  0.12743147672E+03  0.00000000000E+00 0.  1.
         -2    1    1    2    0  502  0.66875543020E+01  0.64825107788E+02 -0.49969191300E+02  0.82121483556E+02  0.00000000000E+00 0. -1.
</event>
<event>
 4    1  0.5847355E+003  0.2058236E+02  0.7546771E-02  0.1525312E+00
          2   -1    0    0  501    0  0.00000000000E+00  0.00000000000E+00  0.56963240202E+03  0.56963240202E+03  0.00000000000E+00 0.  1.
         -2   -1    0    0    0  501 -0.00000000000E+00 -0.00000000000E+00 -0.22299192757E+01  0.22299192757E+01  0.00000000000E+00 0. -1.
          2    1    1    2  502    0  0.84252241571E+01  0.18778959719E+02  0.51713241050E+03  0.51754184732E+03  0.00000000000E+00 0.  1.
         -2    1    1    2    0  502 -0.84252241571E+01 -0.18778959719E+02  0.50270072238E+02  0.54320473977E+02  0.00000000000E+00 0. -1.
</event>
<event>
 4    1  0.5847355E+003  0.2509807E+02  0.7546771E-02  0.1467709E+00
          2   -1    0    0  501    0  0.00000000000E+00  0.00000000000E+00  0.12782709385E+03  0.12782709385E+03  0.00000000000E+00 0. -1.
         -2   -1    0    0    0  501 -0.00000000000E+00 -0.00000000000E+00 -0.17701440116E+02  0.17701440116E+02  0.00000000000E+00 0. -1.
          2    1    1    2  502    0 -0.40138599664E+01  0.24775023880E+02  0.11687447571E+03  0.11953893069E+03  0.00000000000E+00 0. -1.
         -2    1    1    2    0  502  0.40138599664E+01 -0.24775023880E+02 -0.67488219743E+01  0.25989603270E+02  0.00000000000E+00 0. -1.
</event>
<event>
 4    1  0.5847355E+003  0.2580813E+02  0.7546771E-02  0.1459963E+00
          2   -1    0    0  501    0  0.00000000000E+00  0.00000000000E+00  0.48882924089E+03  0.48882924089E+03  0.00000000000E+00 0. -1.
         -2   -1    0    0    0  501 -0.00000000000E+00 -0.00000000000E+00 -0.20527721275E+01  0.20527721275E+01  0.00000000000E+00 0. -1.
          2    1    1    2  502    0  0.19949116685E+02  0.16373520454E+02  0.38570887140E+03  0.38657132964E+03  0.00000000000E+00 0. -1.
         -2    1    1    2    0  502 -0.19949116685E+02 -0.16373520454E+02  0.10106759736E+03  0.10431068337E+03  0.00000000000E+00 0. -1.
</event>
<event>
 4    1  0.5847355E+003  0.8923273E+02  0.7546771E-02  0.1183899E+00
          2   -1    0    0  501    0  0.00000000000E+00  0.00000000000E+00  0.19789120192E+03  0.19789120192E+03  0.00000000000E+00 0.  1.
         -2   -1    0    0    0  501 -0.00000000000E+00 -0.00000000000E+00 -0.76021045208E+02  0.76021045208E+02  0.00000000000E+00 0. -1.
          2    1    1    2  502    0 -0.47191114009E+02  0.75732941857E+02  0.15489904812E+03  0.17876295710E+03  0.00000000000E+00 0.  1.
         -2    1    1    2    0  502  0.47191114009E+02 -0.75732941857E+02 -0.33028891411E+02  0.95149290022E+02  0.00000000000E+00 0. -1.
</event>
<event>
 4    1  0.5847355E+003  0.2781091E+02  0.7546771E-02  0.1439628E+00
          2   -1    0    0  501    0  0.00000000000E+00  0.00000000000E+00  0.15071595905E+02  0.15071595905E+02  0.00000000000E+00 0.  1.
         -2   -1    0    0    0  501 -0.00000000000E+00 -0.00000000000E+00 -0.87924877895E+02  0.87924877895E+02  0.00000000000E+00 0. -1.
          2    1    1    2  502    0 -0.23625262986E+01  0.27710379006E+02 -0.31976736899E+01  0.27994137818E+02  0.00000000000E+00 0.  1.
         -2    1    1    2    0  502  0.23625262986E+01 -0.27710379006E+02 -0.69655608299E+02  0.75002335982E+02  0.00000000000E+00 0. -1.
</event>
<event>
 4    1  0.5847355E+003  0.3748666E+02  0.7546771E-02  0.1363878E+00
          2   -1    0    0  501    0  0.00000000000E+00  0.00000000000E+00  0.53671477163E+02  0.53671477163E+02  0.00000000000E+00 0.  1.
         -2   -1    0    0    0  501 -0.00000000000E+00 -0.00000000000E+00 -0.53977303768E+02  0.53977303768E+02  0.00000000000E+00 0. -1.
          2    1    1    2  502    0 -0.10070183286E+02 -0.36108741532E+02  0.38470963517E+02  0.53714661317E+02  0.00000000000E+00 0.  1.
         -2    1    1    2    0  502  0.10070183286E+02  0.36108741532E+02 -0.38776790122E+02  0.53934119615E+02  0.00000000000E+00 0. -1.
</event>
<event>
 4    1  0.5847355E+003  0.2093995E+02  0.7546771E-02  0.1520124E+00
          2   -1    0    0  501    0  0.00000000000E+00  0.00000000000E+00  0.32034559689E+02  0.32034559689E+02  0.00000000000E+00 0. -1.
         -2   -1    0    0    0  501 -0.00000000000E+00 -0.00000000000E+00 -0.43277463076E+02  0.43277463076E+02  0.00000000000E+00 0. -1.
          2    1    1    2  502    0  0.20622017213E+02  0.36351000365E+01  0.25515327102E+02  0.33007778831E+02  0.00000000000E+00 0. -1.
         -2    1    1    2    0  502 -0.20622017213E+02 -0.36351000365E+01 -0.36758230489E+02  0.42304243935E+02  0.00000000000E+00 0. -1.
</event>
<event>
 4    1  0.5847355E+003  0.2079921E+02  0.7546771E-02  0.1522151E+00
          2   -1    0    0  501    0  0.00000000000E+00  0.00000000000E+00  0.59244502509E+03  0.59244502509E+03  0.00000000000E+00 0. -1.
         -2   -1    0    0    0  501 -0.00000000000E+00 -0.00000000000E+00 -0.89001418164E+00  0.89001418164E+00  0.00000000000E+00 0. -1.
          2    1    1    2  502    0  0.20795760701E+02 -0.37872723059E+00  0.42148773424E+03  0.42200061281E+03  0.00000000000E+00 0. -1.
         -2    1    1    2    0  502 -0.20795760701E+02  0.37872723059E+00  0.17006727667E+03  0.17133442646E+03  0.00000000000E+00 0. -1.
</event>
<event>
 4    1  0.5847355E+003  0.2988536E+02  0.7546771E-02  0.1420595E+00
          2   -1    0    0  501    0  0.00000000000E+00  0.00000000000E+00  0.57560748882E+02  0.57560748882E+02  0.00000000000E+00 0.  1.
         -2   -1    0    0    0  501 -0.00000000000E+00 -0.00000000000E+00 -0.94456479220E+02  0.94456479220E+02  0.00000000000E+00 0. -1.
          2    1    1    2  502    0  0.67247252439E+01  0.29118939971E+02  0.51037887157E+02  0.59143896728E+02  0.00000000000E+00 0.  1.
         -2    1    1    2    0  502 -0.67247252439E+01 -0.29118939971E+02 -0.87933617496E+02  0.92873331374E+02  0.00000000000E+00 0. -1.
</event>
<event>
 4    1  0.5847355E+003  0.2070476E+02  0.7546771E-02  0.1523522E+00
          2   -1    0    0  501    0  0.00000000000E+00  0.00000000000E+00  0.41567064253E+02  0.41567064253E+02  0.00000000000E+00 0. -1.
         -2   -1    0    0    0  501 -0.00000000000E+00 -0.00000000000E+00 -0.13255416296E+02  0.13255416296E+02  0.00000000000E+00 0. -1.
          2    1    1    2  502    0  0.20594660870E+02  0.21324237497E+01  0.27070191261E+02  0.34080530252E+02  0.00000000000E+00 0. -1.
         -2    1    1    2    0  502 -0.20594660870E+02 -0.21324237497E+01  0.12414566965E+01  0.20741950297E+02  0.00000000000E+00 0. -1.
</event>
<event>
 4    1  0.5847355E+003  0.2014118E+02  0.7546771E-02  0.1531888E+00
          2   -1    0    0  501    0  0.00000000000E+00  0.00000000000E+00  0.49302920383E+02  0.49302920383E+02  0.00000000000E+00 0. -1.
         -2   -1    0    0    0  501 -0.00000000000E+00 -0.00000000000E+00 -0.16890483062E+02  0.16890483062E+02  0.00000000000E+00 0. -1.
          2    1    1    2  502    0 -0.82141694369E+01  0.18390069643E+02  0.39908134418E+02  0.44702644594E+02  0.00000000000E+00 0. -1.
         -2    1    1    2    0  502  0.82141694369E+01 -0.18390069643E+02 -0.74956970964E+01  0.21490758851E+02  0.00000000000E+00 0. -1.
</event>
<event>
 4    1  0.5847355E+003  0.2363372E+02  0.7546771E-02  0.1484690E+00
          2   -1    0    0  501    0  0.00000000000E+00  0.00000000000E+00  0.15916764809E+01  0.15916764809E+01  0.00000000000E+00 0. -1.
         -2   -1    0    0    0  501 -0.00000000000E+00 -0.00000000000E+00 -0.35962955273E+03  0.35962955273E+03  0.00000000000E+00 0. -1.
          2    1    1    2  502    0  0.22219793132E+02  0.80519011374E+01 -0.20712464981E+03  0.20846863763E+03  0.00000000000E+00 0. -1.
         -2    1    1    2    0  502 -0.22219793132E+02 -0.80519011374E+01 -0.15091322645E+03  0.15275259158E+03  0.00000000000E+00 0. -1.
</event>
<event>
 4    1  0.5847355E+003  0.2022369E+02  0.7546771E-02  0.1530643E+00
          2   -1    0    0  501    0  0.00000000000E+00  0.00000000000E+00  0.15546284777E+03  0.15546284777E+03  0.00000000000E+00 0. -1.
         -2   -1    0    0    0  501 -0.00000000000E+00 -0.00000000000E+00 -0.63276840342E+03  0.63276840342E+03  0.00000000000E+00 0. -1.
          2    1    1    2  502    0  0.19976758366E+02  0.31506791566E+01  0.15464269418E+03  0.15595948358E+03  0.00000000000E+00 0. -1.
         -2    1    1    2    0  502 -0.19976758366E+02 -0.31506791566E+01 -0.63194824983E+03  0.63227176761E+03  0.00000000000E+00 0. -1.
</event>
<event>
 4    1  0.5847355E+003  0.7301551E+02  0.7546771E-02  0.1221062E+00
          2   -1    0    0  501    0  0.00000000000E+00  0.00000000000E+00  0.26211416944E+03  0.26211416944E+03  0.00000000000E+00 0. -1.
         -2   -1    0    0    0  501 -0.00000000000E+00 -0.00000000000E+00 -0.12522796470E+03  0.12522796470E+03  0.00000000000E+00 0. -1.
          2    1    1    2  502    0  0.71645575463E+02  0.14077520910E+02  0.24568973639E+03  0.25630979624E+03  0.00000000000E+00 0. -1.
         -2    1    1    2    0  502 -0.71645575463E+02 -0.14077520910E+02 -0.10880353165E+03  0.13103233791E+03  0.00000000000E+00 0. -1.
</event>
<event>
 4    1  0.5847355E+003  0.2143609E+02  0.7546771E-02  0.1513129E+00
          2   -1    0    0  501    0  0.00000000000E+00  0.00000000000E+00  0.31499535089E+03  0.31499535089E+03  0.00000000000E+00 0.  1.
         -2   -1    0    0    0  501 -0.00000000000E+00 -0.00000000000E+00 -0.94158921272E+01  0.94158921272E+01  0.00000000000E+00 0.  1.
          2    1    1    2  502    0  0.12145189846E+02  0.17663525356E+02  0.30190192886E+03  0.30266199037E+03  0.00000000000E+00 0.  1.
         -2    1    1    2    0  502 -0.12145189846E+02 -0.17663525356E+02  0.36775298971E+01  0.21749252643E+02  0.00000000000E+00 0.  1.
</event>
<event>
 4    1  0.5847355E+003  0.2340909E+02  0.7546771E-02  0.1487424E+00
          2   -1    0    0  501    0  0.00000000000E+00  0.00000000000E+00  0.14106048196E+04  0.14106048196E+04  0.00000000000E+00 0. -1.
         -2   -1    0    0    0  501 -0.00000000000E+00 -0.00000000000E+00 -0.27994673874E+01  0.27994673874E+01  0.00000000000E+00 0.  1.
          2    1    1    2  502    0 -0.22292057445E+02 -0.71449180531E+01  0.13597406508E+04  0.13599421396E+04  0.00000000000E+00 0. -1.
         -2    1    1    2    0  502  0.22292057445E+02  0.71449180531E+01  0.48064701413E+02  0.53462147367E+02  0.00000000000E+00 0.  1.
</event>
<event>
 4    1  0.5847355E+003  0.2873132E+02  0.7546771E-02  0.1430951E+00
          2   -1    0    0  501    0  0.00000000000E+00  0.00000000000E+00  0.28991707454E+03  0.28991707454E+03  0.00000000000E+00 0. -1.
         -2   -1    0    0    0  501 -0.00000000000E+00 -0.00000000000E+00 -0.39393075512E+01  0.39393075512E+01  0.00000000000E+00 0. -1.
          2    1    1    2  502    0  0.28301267779E+02 -0.49524092053E+01  0.65631272318E+02  0.71644623112E+02  0.00000000000E+00 0. -1.
         -2    1    1    2    0  502 -0.28301267779E+02  0.49524092053E+01  0.22034649468E+03  0.22221175898E+03  0.00000000000E+00 0. -1.
</event>
<event>
 4    1  0.5847355E+003  0.2217991E+02  0.7546771E-02  0.1503061E+00
          2   -1    0    0  501    0  0.00000000000E+00  0.00000000000E+00  0.10730033650E+04  0.10730033650E+04  0.00000000000E+00 0.  1.
         -2   -1    0    0    0  501 -0.00000000000E+00 -0.00000000000E+00 -0.72067175060E+00  0.72067175060E+00  0.00000000000E+00 0.  1.
          2    1    1    2  502    0 -0.18189583256E+01 -0.22105199530E+02  0.85996240205E+03  0.86024838355E+03  0.00000000000E+00 0.  1.
         -2    1    1    2    0  502  0.18189583256E+01  0.22105199530E+02  0.21232029118E+03  0.21347565319E+03  0.00000000000E+00 0.  1.
</event>
<event>
 4    1  0.5847355E+003  0.2032829E+02  0.7546771E-02  0.1529075E+00
          2   -1    0    0  501    0  0.00000000000E+00  0.00000000000E+00  0.10436152450E+04  0.10436152450E+04  0.00000000000E+00 0. -1.
         -2   -1    0    0    0  501 -0.00000000000E+00 -0.00000000000E+00 -0.48248334924E+01  0.48248334924E+01  0.00000000000E+00 0. -1.
          2    1    1    2  502    0  0.90101425698E+01  0.18222419635E+02  0.10216437095E+04  0.10218459318E+04  0.00000000000E+00 0. -1.
         -2    1    1    2    0  502 -0.90101425698E+01 -0.18222419635E+02  0.17146701996E+02  0.26594146646E+02  0.00000000000E+00 0. -1.
</event>
<event>
 4    1  0.5847355E+003  0.2656323E+02  0.7546771E-02  0.1452046E+00
          2   -1    0    0  501    0  0.00000000000E+00  0.00000000000E+00  0.18141880717E+03  0.18141880717E+03  0.00000000000E+00 0.  1.
         -2   -1    0    0    0  501 -0.00000000000E+00 -0.00000000000E+00 -0.69020839974E+03  0.69020839974E+03  0.00000000000E+00 0. -1.
          2    1    1    2  502    0  0.22681050206E+02  0.13826614860E+02  0.18018915239E+03  0.18213658599E+03  0.00000000000E+00 0.  1.
         -2    1    1    2    0  502 -0.22681050206E+02 -0.13826614860E+02 -0.68897874497E+03  0.68949062092E+03  0.00000000000E+00 0. -1.
</event>
<event>
 4    1  0.5847355E+003  0.2905579E+02  0.7546771E-02  0.1427983E+00
          2   -1    0    0  501    0  0.00000000000E+00  0.00000000000E+00  0.32798311911E+03  0.32798311911E+03  0.00000000000E+00 0. -1.
         -2   -1    0    0    0  501 -0.00000000000E+00 -0.00000000000E+00 -0.50858926672E+02  0.50858926672E+02  0.00000000000E+00 0.  1.
          2    1    1    2  502    0  0.20492517524E+02  0.20598442716E+02  0.32312746952E+03  0.32443119559E+03  0.00000000000E+00 0. -1.
         -2    1    1    2    0  502 -0.20492517524E+02 -0.20598442716E+02 -0.46003277076E+02  0.54410850192E+02  0.00000000000E+00 0.  1.
</event>
<event>
 4    1  0.5847355E+003  0.2534407E+02  0.7546771E-02  0.1464991E+00
          2   -1    0    0  501    0  0.00000000000E+00  0.00000000000E+00  0.71487227453E+01  0.71487227453E+01  0.00000000000E+00 0. -1.
         -2   -1    0    0    0  501 -0.00000000000E+00 -0.00000000000E+00 -0.15213551165E+03  0.15213551165E+03  0.00000000000E+00 0.  1.
          2    1    1    2  502    0  0.10851465184E+02 -0.22903437743E+02 -0.21534896648E+02  0.33257683785E+02  0.00000000000E+00 0. -1.
         -2    1    1    2    0  502 -0.10851465184E+02  0.22903437743E+02 -0.12345189226E+03  0.12602655061E+03  0.00000000000E+00 0.  1.
</event>
<event>
 4    1  0.5847355E+003  0.2282533E+02  0.7546771E-02  0.1494703E+00
          2   -1    0    0  501    0  0.00000000000E+00  0.00000000000E+00  0.73569239519E+02  0.73569239519E+02  0.00000000000E+00 0. -1.
         -2   -1    0    0    0  501 -0.00000000000E+00 -0.00000000000E+00 -0.83170019266E+02  0.83170019266E+02  0.00000000000E+00 0. -1.
          2    1    1    2  502    0 -0.10330623274E+02 -0.20353723362E+02  0.70158537982E+02  0.73778155871E+02  0.00000000000E+00 0. -1.
         -2    1    1    2    0  502  0.10330623274E+02  0.20353723362E+02 -0.79759317729E+02  0.82961102913E+02  0.00000000000E+00 0. -1.
</event>
<event>
 4    1  0.5847355E+003  0.7111579E+02  0.7546771E-02  0.1226125E+00
          2   -1    0    0  501    0  0.00000000000E+00  0.00000000000E+00  0.13159919290E+03  0.13159919290E+03  0.00000000000E+00 0.  1.
         -2   -1    0    0    0  501 -0.00000000000E+00 -0.00000000000E+00 -0.48415346423E+03  0.48415346423E+03  0.00000000000E+00 0.  1.
          2    1    1    2  502    0  0.69507727263E+02 -0.15037661142E+02  0.11912740148E+03  0.13874002012E+03  0.00000000000E+00 0.  1.
         -2    1    1    2    0  502 -0.69507727263E+02  0.15037661142E+02 -0.47168167280E+03  0.47701263700E+03  0.00000000000E+00 0.  1.
</event>
<event>
 4    1  0.5847355E+003  0.3021549E+02  0.7546771E-02  0.1417733E+00
          2   -1    0    0  501    0  0.00000000000E+00  0.00000000000E+00  0.12640492765E+02  0.12640492765E+02  0.00000000000E+00 0.  1.
         -2   -1    0    0    0  501 -0.00000000000E+00 -0.00000000000E+00 -0.18067453935E+03  0.18067453935E+03  0.00000000000E+00 0.  1.
          2    1    1    2  502    0  0.19236854137E+02  0.23300627326E+02 -0.91314012278E+01  0.31565143422E+02  0.00000000000E+00 0.  1.
         -2    1    1    2    0  502 -0.19236854137E+02 -0.23300627326E+02 -0.15890264536E+03  0.16174988869E+03  0.00000000000E+00 0.  1.
</event>
<event>
 4    1  0.5847355E+003  0.2001553E+02  0.7546771E-02  0.1533798E+00
          2   -1    0    0  501    0  0.00000000000E+00  0.00000000000E+00  0.57000511253E+02  0.57000511253E+02  0.00000000000E+00 0.  1.
         -2   -1    0    0    0  501 -0.00000000000E+00 -0.00000000000E+00 -0.32044583992E+02  0.32044583992E+02  0.00000000000E+00 0. -1.
          2    1    1    2  502    0  0.15604269251E+02  0.12535077736E+02  0.51816062885E+02  0.55547509086E+02  0.00000000000E+00 0.  1.
         -2    1    1    2    0  502 -0.15604269251E+02 -0.12535077736E+02 -0.26860135625E+02  0.33497586159E+02  0.00000000000E+00 0. -1.
</event>
<event>
 4    1  0.5847355E+003  0.2357495E+02  0.7546771E-02  0.1485402E+00
          2   -1    0    0  501    0  0.00000000000E+00  0.00000000000E+00  0.84323744501E+02  0.84323744501E+02  0.00000000000E+00 0. -1.
         -2   -1    0    0    0  501 -0.00000000000E+00 -0.00000000000E+00 -0.12035756413E+02  0.12035756413E+02  0.00000000000E+00 0.  1.
          2    1    1    2  502    0 -0.20046549373E+02 -0.12406221679E+02  0.68549347163E+02  0.72489940506E+02  0.00000000000E+00 0. -1.
         -2    1    1    2    0  502  0.20046549373E+02  0.12406221679E+02  0.37386409253E+01  0.23869560408E+02  0.00000000000E+00 0.  1.
</event>
<event>
 4    1  0.5847355E+003  0.6917203E+02  0.7546771E-02  0.1231496E+00
          2   -1    0    0  501    0  0.00000000000E+00  0.00000000000E+00  0.15493508704E+04  0.15493508704E+04  0.00000000000E+00 0. -1.
         -2   -1    0    0    0  501 -0.00000000000E+00 -0.00000000000E+00 -0.56589510021E+01  0.56589510021E+01  0.00000000000E+00 0.  1.
          2    1    1    2  502    0 -0.60326801626E+02  0.33844456837E+02  0.12958825869E+04  0.12977274172E+04  0.00000000000E+00 0. -1.
         -2    1    1    2    0  502  0.60326801626E+02 -0.33844456837E+02  0.24780933251E+03  0.25728240424E+03  0.00000000000E+00 0.  1.
</event>
<event>
 4    1  0.5847355E+003  0.3680026E+02  0.7546771E-02  0.1368330E+00
          2   -1    0    0  501    0  0.00000000000E+00  0.00000000000E+00  0.11460107414E+03  0.11460107414E+03  0.00000000000E+00 0. -1.
         -2   -1    0    0    0  501 -0.00000000000E+00 -0.00000000000E+00 -0.74677811014E+02  0.74677811014E+02  0.00000000000E+00 0. -1.
          2    1    1    2  502    0  0.36799983341E+02 -0.14236364061E+00  0.10679083701E+03  0.11295371579E+03  0.00000000000E+00 0. -1.
         -2    1    1    2    0  502 -0.36799983341E+02  0.14236364061E+00 -0.66867573885E+02  0.76325169364E+02  0.00000000000E+00 0. -1.
</event>
<event>
 4    1  0.5847355E+003  0.2569043E+02  0.7546771E-02  0.1461226E+00
          2   -1    0    0  501    0  0.00000000000E+00  0.00000000000E+00  0.19776437655E+04  0.19776437655E+04  0.00000000000E+00 0.  1.
         -2   -1    0    0    0  501 -0.00000000000E+00 -0.00000000000E+00 -0.12125009431E+01  0.12125009431E+01  0.00000000000E+00 0.  1.
          2    1    1    2  502    0 -0.99803920414E+01 -0.23672559668E+02  0.18305434625E+04  0.18307237275E+04  0.00000000000E+00 0.  1.
         -2    1    1    2    0  502  0.99803920414E+01  0.23672559668E+02  0.14588780203E+03  0.14813253893E+03  0.00000000000E+00 0.  1.
</event>
<event>
 4    1  0.5847355E+003  0.2074595E+02  0.7546771E-02  0.1522923E+00
          2   -1    0    0  501    0  0.00000000000E+00  0.00000000000E+00  0.72300812090E+02  0.72300812090E+02  0.00000000000E+00 0.  1.
         -2   -1    0    0    0  501 -0.00000000000E+00 -0.00000000000E+00 -0.60575434357E+03  0.60575434357E+03  0.00000000000E+00 0. -1.
          2    1    1    2  502    0 -0.32384028992E+01 -0.20491639196E+02  0.70630863952E+02  0.73614628118E+02  0.00000000000E+00 0.  1.
         -2    1    1    2    0  502  0.32384028992E+01  0.20491639196E+02 -0.60408439544E+03  0.60444052754E+03  0.00000000000E+00 0. -1.
</event>
<event>
 4    1  0.5847355E+003  0.2100519E+02  0.7546771E-02  0.1519191E+00
          2   -1    0    0  501    0  0.00000000000E+00  0.00000000000E+00  0.19156332163E+01  0.19156332163E+01  0.00000000000E+00 0.  1.
         -2   -1    0    0    0  501 -0.00000000000E+00 -0.00000000000E+00 -0.43502053755E+03  0.43502053755E+03  0.00000000000E+00 0. -1.
          2    1    1    2  502    0 -0.21000214915E+02  0.45723680720E+00 -0.66691881889E+02  0.69921564641E+02  0.00000000000E+00 0.  1.
         -2    1    1    2    0  502  0.21000214915E+02 -0.45723680720E+00 -0.36641302245E+03  0.36701460613E+03  0.00000000000E+00 0. -1.
</event>
<event>
 4    1  0.5847355E+003  0.2384381E+02  0.7546771E-02  0.1482166E+00
          2   -1    0    0  501    0  0.00000000000E+00  0.00000000000E+00  0.13217936661E+03  0.13217936661E+03  0.00000000000E+00 0.  1.
         -2   -1    0    0    0  501 -0.00000000000E+00 -0.00000000000E+00 -0.15558464578E+02  0.15558464578E+02  0.00000000000E+00 0. -1.
          2    1    1    2  502    0 -0.23125048611E+02 -0.58102701819E+01  0.12114452196E+03  0.12346870986E+03  0.00000000000E+00 0.  1.
         -2    1    1    2    0  502  0.23125048611E+02  0.58102701819E+01 -0.45236199295E+01  0.24269121330E+02  0.00000000000E+00 0. -1.
</event>
<event>
 4    1  0.5847355E+003  0.2056206E+02  0.7546771E-02  0.1525610E+00
          2   -1    0    0  501    0  0.00000000000E+00  0.00000000000E+00  0.74845093211E+02  0.74845093211E+02  0.00000000000E+00 0. -1.
         -2   -1    0    0    0  501 -0.00000000000E+00 -0.00000000000E+00 -0.28196692046E+03  0.28196692046E+03  0.00000000000E+00 0.  1.
          2    1    1    2  502    0  0.17280661039E+02 -0.11143477255E+02  0.73048941744E+02  0.75887721149E+02  0.00000000000E+00 0. -1.
         -2    1    1    2    0  502 -0.17280661039E+02  0.11143477255E+02 -0.28017076899E+03  0.28092429252E+03  0.00000000000E+00 0.  1.
</event>
<event>
 4    1  0.5847355E+003  0.2319279E+02  0.7546771E-02  0.1490091E+00
          2   -1    0    0  501    0  0.00000000000E+00  0.00000000000E+00  0.70388614074E+02  0.70388614074E+02  0.00000000000E+00 0.  1.
         -2   -1    0    0    0  501 -0.00000000000E+00 -0.00000000000E+00 -0.13245002100E+02  0.13245002100E+02  0.00000000000E+00 0.  1.
          2    1    1    2  502    0 -0.19455049948E+02 -0.12625638694E+02  0.55769838980E+02  0.60400171033E+02  0.00000000000E+00 0.  1.
         -2    1    1    2    0  502  0.19455049948E+02  0.12625638694E+02  0.13737729934E+01  0.23233445141E+02  0.00000000000E+00 0.  1.
</event>
<event>
 4    1  0.5847355E+003  0.2513724E+02  0.7546771E-02  0.1467274E+00
          2   -1    0    0  501    0  0.00000000000E+00  0.00000000000E+00  0.28558195078E+03  0.28558195078E+03  0.00000000000E+00 0.  1.
         -2   -1    0    0    0  501 -0.00000000000E+00 -0.00000000000E+00 -0.32903644233E+01  0.32903644233E+01  0.00000000000E+00 0.  1.
          2    1    1    2  502    0 -0.20162726340E+02 -0.15011510757E+02  0.22380936747E+03  0.22521659343E+03  0.00000000000E+00 0.  1.
         -2    1    1    2    0  502  0.20162726340E+02  0.15011510757E+02  0.58482218890E+02  0.63655721777E+02  0.00000000000E+00 0.  1.
</event>
<event>
 4    1  0.5847355E+003  0.3832885E+02  0.7546771E-02  0.1358567E+00
          2   -1    0    0  501    0  0.00000000000E+00  0.00000000000E+00  0.59954002445E+03  0.59954002445E+03  0.00000000000E+00 0. -1.
         -2   -1    0    0    0  501 -0.00000000000E+00 -0.00000000000E+00 -0.94443308104E+01  0.94443308104E+01  0.00000000000E+00 0. -1.
          2    1    1    2  502    0  0.36619570987E+02  0.11318472581E+02  0.55707834094E+03  0.55839536061E+03  0.00000000000E+00 0. -1.
         -2    1    1    2    0  502 -0.36619570987E+02 -0.11318472581E+02  0.33017352697E+02  0.50588994653E+02  0.00000000000E+00 0. -1.
</event>
<event>
 4    1  0.5847355E+003  0.2140312E+02  0.7546771E-02  0.1513587E+00
          2   -1    0    0  501    0  0.00000000000E+00  0.00000000000E+00  0.19613751372E+04  0.19613751372E+04  0.00000000000E+00 0. -1.
         -2   -1    0    0    0  501 -0.00000000000E+00 -0.00000000000E+00 -0.25639973674E+00  0.25639973674E+00  0.00000000000E+00 0.  1.
          2    1    1    2  502    0  0.20780341403E+02 -0.51254650446E+01  0.68780573560E+03  0.68813866546E+03  0.00000000000E+00 0.  1.
         -2    1    1    2    0  502 -0.20780341403E+02  0.51254650446E+01  0.12733130019E+04  0.12734928715E+04  0.00000000000E+00 0. -1.
</event>
<event>
 4    1  0.5847355E+003  0.2147381E+02  0.7546771E-02  0.1512606E+00
          2   -1    0    0  501    0  0.00000000000E+00  0.00000000000E+00  0.17590987100E+03  0.17590987100E+03  0.00000000000E+00 0. -1.
         -2   -1    0    0    0  501 -0.00000000000E+00 -0.00000000000E+00 -0.35062961921E+01  0.35062961921E+01  0.00000000000E+00 0.  1.
          2    1    1    2  502    0  0.19227611456E+02 -0.95615560239E+01  0.13126907798E+03  0.13301389111E+03  0.00000000000E+00 0. -1.
         -2    1    1    2    0  502 -0.19227611456E+02  0.95615560239E+01  0.41134496835E+02  0.46402276084E+02  0.00000000000E+00 0.  1.
</event>
<event>
 4    1  0.5847355E+003  0.2400891E+02  0.7546771E-02  0.1480203E+00
          2   -1    0    0  501    0  0.00000000000E+00  0.00000000000E+00  0.14756573097E+04  0.14756573097E+04  0.00000000000E+00 0.  1.
         -2   -1    0    0    0  501 -0.00000000000E+00 -0.00000000000E+00 -0.40051078077E+00  0.40051078077E+00  0.00000000000E+00 0.  1.
          2    1    1    2  502    0  0.21495235826E+02 -0.10694961584E+02  0.62167308407E+03  0.62213652105E+03  0.00000000000E+00 0.  1.
         -2    1    1    2    0  502 -0.21495235826E+02  0.10694961584E+02  0.85358371484E+03  0.85392129942E+03  0.00000000000E+00 0.  1.
</event>
<event>
 4    1  0.5847355E+003  0.3201447E+02  0.7546771E-02  0.1402862E+00
          2   -1    0    0  501    0  0.00000000000E+00  0.00000000000E+00  0.10060318958E+03  0.10060318958E+03  0.00000000000E+00 0.  1.
         -2   -1    0    0    0  501 -0.00000000000E+00 -0.00000000000E+00 -0.61334621756E+02  0.61334621756E+02  0.00000000000E+00 0.  1.
          2    1    1    2  502    0 -0.16318643655E+02 -0.27543206411E+02  0.93573475912E+02  0.98898542681E+02  0.00000000000E+00 0.  1.
         -2    1    1    2    0  502  0.16318643655E+02  0.27543206411E+02 -0.54304908088E+02  0.63039268655E+02  0.00000000000E+00 0.  1.
</event>
<event>
 4    1  0.5847355E+003  0.2221651E+02  0.7546771E-02  0.1502578E+00
          2   -1    0    0  501    0  0.00000000000E+00  0.00000000000E+00  0.78135740222E+02  0.78135740222E+02  0.00000000000E+00 0.  1.
         -2   -1    0    0    0  501 -0.00000000000E+00 -0.00000000000E+00 -0.20746250945E+03  0.20746250945E+03  0.00000000000E+00 0. -1.
          2    1    1    2  502    0 -0.15844067787E+02  0.15573655302E+02  0.75944943623E+02  0.79127793382E+02  0.00000000000E+00 0.  1.
         -2    1    1    2    0  502  0.15844067787E+02 -0.15573655302E+02 -0.20527171285E+03  0.20647045629E+03  0.00000000000E+00 0. -1.
</event>
<event>
 4    1  0.5847355E+003  0.3224722E+02  0.7546771E-02  0.1401023E+00
          2   -1    0    0  501    0  0.00000000000E+00  0.00000000000E+00  0.18848174930E+03  0.18848174930E+03  0.00000000000E+00 0. -1.
         -2   -1    0    0    0  501 -0.00000000000E+00 -0.00000000000E+00 -0.28396837331E+02  0.28396837331E+02  0.00000000000E+00 0.  1.
          2    1    1    2  502    0 -0.27761916321E+02  0.16406075445E+02  0.17737916818E+03  0.18028658467E+03  0.00000000000E+00 0. -1.
         -2    1    1    2    0  502  0.27761916321E+02 -0.16406075445E+02 -0.17294256211E+02  0.36592001957E+02  0.00000000000E+00 0.  1.
</event>
<event>
 4    1  0.5847355E+003  0.2153095E+02  0.7546771E-02  0.1511818E+00
          2   -1    0    0  501    0  0.00000000000E+00  0.00000000000E+00  0.18631714077E+04  0.18631714077E+04  0.00000000000E+00 0.  1.
         -2   -1    0    0    0  501 -0.00000000000E+00 -0.00000000000E+00 -0.25917863103E+00  0.25917863103E+00  0.00000000000E+00 0.  1.
          2    1    1    2  502    0 -0.13723186377E+02 -0.16590827346E+02  0.74512728662E+03  0.74543829702E+03  0.00000000000E+00 0.  1.
         -2    1    1    2    0  502  0.13723186377E+02  0.16590827346E+02  0.11177849424E+04  0.11179922893E+04  0.00000000000E+00 0.  1.
</event>
<event>
 4    1  0.5847355E+003  0.2142364E+02  0.7546771E-02  0.1513302E+00
          2   -1    0    0  501    0  0.00000000000E+00  0.00000000000E+00  0.20216797298E+03  0.20216797298E+03  0.00000000000E+00 0. -1.
         -2   -1    0    0    0  501 -0.00000000000E+00 -0.00000000000E+00 -0.45241388430E+01  0.45241388430E+01  0.00000000000E+00 0. -1.
          2    1    1    2  502    0  0.53713178179E+01  0.20739361428E+02  0.17176633039E+03  0.17309721091E+03  0.00000000000E+00 0. -1.
         -2    1    1    2    0  502 -0.53713178179E+01 -0.20739361428E+02  0.25877503749E+02  0.33594900919E+02  0.00000000000E+00 0. -1.
</event>
<event>
 4    1  0.5847355E+003  0.2203518E+02  0.7546771E-02  0.1504982E+00
          2   -1    0    0  501    0  0.00000000000E+00  0.00000000000E+00  0.11276502418E+02  0.11276502418E+02  0.00000000000E+00 0.  1.
         -2   -1    0    0    0  501 -0.00000000000E+00 -0.00000000000E+00 -0.45400010873E+03  0.45400010873E+03  0.00000000000E+00 0.  1.
          2    1    1    2  502    0 -0.10440030328E+02  0.19405021337E+02 -0.30258476486E-01  0.22035199157E+02  0.00000000000E+00 0.  1.
         -2    1    1    2    0  502  0.10440030328E+02 -0.19405021337E+02 -0.44269334783E+03  0.44324141199E+03  0.00000000000E+00 0.  1.
</event>
<event>
 4    1  0.5847355E+003  0.2256452E+02  0.7546771E-02  0.1498040E+00
          2   -1    0    0  501    0  0.00000000000E+00  0.00000000000E+00  0.21654673762E+03  0.21654673762E+03  0.00000000000E+00 0. -1.
         -2   -1    0    0    0  501 -0.00000000000E+00 -0.00000000000E+00 -0.19151333136E+03  0.19151333136E+03  0.00000000000E+00 0. -1.
          2    1    1    2  502    0 -0.21473257237E+02 -0.69322947177E+01  0.21529040466E+03  0.21646966491E+03  0.00000000000E+00 0. -1.
         -2    1    1    2    0  502  0.21473257237E+02  0.69322947177E+01 -0.19025699840E+03  0.19159040406E+03  0.00000000000E+00 0. -1.
</event>
<event>
 4    1  0.5847355E+003  0.2098273E+02  0.7546771E-02  0.1519511E+00
          2   -1    0    0  501    0  0.00000000000E+00  0.00000000000E+00  0.81284943980E+02  0.81284943980E+02  0.00000000000E+00 0. -1.
         -2   -1    0    0    0  501 -0.00000000000E+00 -0.00000000000E+00 -0.67902862600E+01  0.67902862600E+01  0.00000000000E+00 0. -1.
          2    1    1    2  502    0 -0.40541947046E+01  0.20587340216E+02  0.57055697996E+02  0.60791674971E+02  0.00000000000E+00 0. -1.
         -2    1    1    2    0  502  0.40541947046E+01 -0.20587340216E+02  0.17438959724E+02  0.27283555269E+02  0.00000000000E+00 0. -1.
</event>
<event>
 4    1  0.5847355E+003  0.4242446E+02  0.7546771E-02  0.1334836E+00
          2   -1    0    0  501    0  0.00000000000E+00  0.00000000000E+00  0.47162878189E+03  0.47162878189E+03  0.00000000000E+00 0.  1.
         -2   -1    0    0    0  501 -0.00000000000E+00 -0.00000000000E+00 -0.84886437624E+01  0.84886437624E+01  0.00000000000E+00 0.  1.
          2    1    1    2  502    0 -0.37286229868E+02 -0.20237875246E+02  0.40967251752E+03  0.41186333431E+03  0.00000000000E+00 0.  1.
         -2    1    1    2    0  502  0.37286229868E+02  0.20237875246E+02  0.53467620601E+02  0.68254091342E+02  0.00000000000E+00 0.  1.
</event>
<event>
 4    1  0.5847355E+003  0.2219619E+02  0.7546771E-02  0.1502846E+00
          2   -1    0    0  501    0  0.00000000000E+00  0.00000000000E+00  0.74386612671E+03  0.74386612671E+03  0.00000000000E+00 0. -1.
         -2   -1    0    0    0  501 -0.00000000000E+00 -0.00000000000E+00 -0.10648219240E+01  0.10648219240E+01  0.00000000000E+00 0. -1.
          2    1    1    2  502    0 -0.20059227794E+02 -0.95025351445E+01  0.60040108919E+03  0.60081123383E+03  0.00000000000E+00 0. -1.
         -2    1    1    2    0  502  0.20059227794E+02  0.95025351445E+01  0.14240021560E+03  0.14411971481E+03  0.00000000000E+00 0. -1.
</event>
<event>
 4    1  0.5847355E+003  0.2456956E+02  0.7546771E-02  0.1473677E+00
          2   -1    0    0  501    0  0.00000000000E+00  0.00000000000E+00  0.12064827709E+04  0.12064827709E+04  0.00000000000E+00 0. -1.
         -2   -1    0    0    0  501 -0.00000000000E+00 -0.00000000000E+00 -0.30365991185E+01  0.30365991185E+01  0.00000000000E+00 0. -1.
          2    1    1    2  502    0 -0.42300180865E+01 -0.24202688166E+02  0.11544175192E+04  0.11546789475E+04  0.00000000000E+00 0. -1.
         -2    1    1    2    0  502  0.42300180865E+01  0.24202688166E+02  0.49028652548E+02  0.54840422483E+02  0.00000000000E+00 0. -1.
</event>
<event>
 4    1  0.5847355E+003  0.2135856E+02  0.7546771E-02  0.1514207E+00
          2   -1    0    0  501    0  0.00000000000E+00  0.00000000000E+00  0.41095908688E+03  0.41095908688E+03  0.00000000000E+00 0.  1.
         -2   -1    0    0    0  501 -0.00000000000E+00 -0.00000000000E+00 -0.18661315459E+01  0.18661315459E+01  0.00000000000E+00 0. -1.
          2    1    1    2  502    0 -0.29088084122E+01  0.21159558792E+02  0.33593195001E+03  0.33661025405E+03  0.00000000000E+00 0.  1.
         -2    1    1    2    0  502  0.29088084122E+01 -0.21159558792E+02  0.73161005326E+02  0.76214964377E+02  0.00000000000E+00 0. -1.
</event>
<event>
 4    1  0.5847355E+003  0.2738725E+02  0.7546771E-02  0.1443756E+00
          2   -1    0    0  501    0  0.00000000000E+00  0.00000000000E+00  0.87852832577E+03  0.87852832577E+03  0.00000000000E+00 0. -1.
         -2   -1    0    0    0  501 -0.00000000000E+00 -0.00000000000E+00 -0.70389098070E+01  0.70389098070E+01  0.00000000000E+00 0.  1.
          2    1    1    2  502    0  0.25635741974E+02  0.96369164296E+01  0.85080729889E+03  0.85124797872E+03  0.00000000000E+00 0. -1.
         -2    1    1    2    0  502 -0.25635741974E+02 -0.96369164296E+01  0.20682117073E+02  0.34319256860E+02  0.00000000000E+00 0.  1.
</event>
<event>
 4    1  0.5847355E+003  0.2285473E+02  0.7546771E-02  0.1494330E+00
          2   -1    0    0  501    0  0.00000000000E+00  0.00000000000E+00  0.24663422272E+02  0.24663422272E+02  0.00000000000E+00 0. -1.
         -2   -1    0    0    0  501 -0.00000000000E+00 -0.00000000000E+00 -0.26781702613E+02  0.26781702613E+02  0.00000000000E+00 0.  1.
          2    1    1    2  502    0  0.21999135670E+02  0.61949102757E+01  0.10706243164E+02  0.25238116535E+02  0.00000000000E+00 0. -1.
         -2    1    1    2    0  502 -0.21999135670E+02 -0.61949102757E+01 -0.12824523506E+02  0.26207008351E+02  0.00000000000E+00 0.  1.
</event>
<event>
 4    1  0.5847355E+003  0.3105861E+02  0.7546771E-02  0.1410615E+00
          2   -1    0    0  501    0  0.00000000000E+00  0.00000000000E+00  0.18679545193E+04  0.18679545193E+04  0.00000000000E+00 0.  1.
         -2   -1    0    0    0  501 -0.00000000000E+00 -0.00000000000E+00 -0.38729641418E+01  0.38729641418E+01  0.00000000000E+00 0.  1.
          2    1    1    2  502    0 -0.18100339801E+02 -0.25239150522E+02  0.18033266754E+04  0.18035941160E+04  0.00000000000E+00 0.  1.
         -2    1    1    2    0  502  0.18100339801E+02  0.25239150522E+02  0.60754879786E+02  0.68233367481E+02  0.00000000000E+00 0.  1.
</event>
<event>
 4    1  0.5847355E+003  0.4281355E+02  0.7546771E-02  0.1332743E+00
          2   -1    0    0  501    0  0.00000000000E+00  0.00000000000E+00  0.16931538195E+03  0.16931538195E+03  0.00000000000E+00 0. -1.
         -2   -1    0    0    0  501 -0.00000000000E+00 -0.00000000000E+00 -0.18962455430E+02  0.18962455430E+02  0.00000000000E+00 0. -1.
          2    1    1    2  502    0 -0.42532515443E+02  0.48974932328E+01  0.13684175739E+03  0.14338293788E+03  0.00000000000E+00 0. -1.
         -2    1    1    2    0  502  0.42532515443E+02 -0.48974932328E+01  0.13511169132E+02  0.44894899501E+02  0.00000000000E+00 0. -1.
</event>
<event>
 4    1  0.5847355E+003  0.2362647E+02  0.7546771E-02  0.1484778E+00
          2   -1    0    0  501    0  0.00000000000E+00  0.00000000000E+00  0.19122598860E+04  0.19122598860E+04  0.00000000000E+00 0.  1.
         -2   -1    0    0    0  501 -0.00000000000E+00 -0.00000000000E+00 -0.79001865063E+00  0.79001865063E+00  0.00000000000E+00 0.  1.
          2    1    1    2  502    0 -0.11507974086E+02 -0.20634358179E+02  0.17152547715E+04  0.17154174831E+04  0.00000000000E+00 0.  1.
         -2    1    1    2    0  502  0.11507974086E+02  0.20634358179E+02  0.19621509587E+03  0.19763242156E+03  0.00000000000E+00 0.  1.
</event>
<event>
 4    1  0.5847355E+003  0.2427302E+02  0.7546771E-02  0.1477103E+00
          2   -1    0    0  501    0  0.00000000000E+00  0.00000000000E+00  0.86704034151E+03  0.86704034151E+03  0.00000000000E+00 0.  1.
         -2   -1    0    0    0  501 -0.00000000000E+00 -0.00000000000E+00 -0.99270876231E+01  0.99270876231E+01  0.00000000000E+00 0.  1.
          2    1    1    2  502    0  0.56446098781E+01 -0.23607577181E+02  0.85176678174E+03  0.85211256874E+03  0.00000000000E+00 0.  1.
         -2    1    1    2    0  502 -0.56446098781E+01  0.23607577181E+02  0.53464721480E+01  0.24854860399E+02  0.00000000000E+00 0.  1.
</event>
<event>
 4    1  0.5847355E+003  0.2276399E+02  0.7546771E-02  0.1495483E+00
          2   -1    0    0  501    0  0.00000000000E+00  0.00000000000E+00  0.13787325479E+02  0.13787325479E+02  0.00000000000E+00 0. -1.
         -2   -1    0    0    0  501 -0.00000000000E+00 -0.00000000000E+00 -0.52023708467E+02  0.52023708467E+02  0.00000000000E+00 0. -1.
          2    1    1    2  502    0 -0.21415514779E+02 -0.77184614381E+01 -0.36453426686E+02  0.42977333996E+02  0.00000000000E+00 0. -1.
         -2    1    1    2    0  502  0.21415514779E+02  0.77184614381E+01 -0.17829563012E+01  0.22833699950E+02  0.00000000000E+00 0. -1.
</event>
<event>
 4    1  0.5847355E+003  0.2479565E+02  0.7546771E-02  0.1471102E+00
          2   -1    0    0  501    0  0.00000000000E+00  0.00000000000E+00  0.32539180586E+02  0.32539180586E+02  0.00000000000E+00 0.  1.
         -2   -1    0    0    0  501 -0.00000000000E+00 -0.00000000000E+00 -0.67023301554E+03  0.67023301554E+03  0.00000000000E+00 0. -1.
          2    1    1    2  502    0  0.94992094774E+01  0.22903915335E+02  0.27550715710E+02  0.37065701861E+02  0.00000000000E+00 0.  1.
         -2    1    1    2    0  502 -0.94992094774E+01 -0.22903915335E+02 -0.66524455066E+03  0.66570649426E+03  0.00000000000E+00 0. -1.
</event>
<event>
 4    1  0.5847355E+003  0.4231464E+02  0.7546771E-02  0.1335431E+00
          2   -1    0    0  501    0  0.00000000000E+00  0.00000000000E+00  0.26349866891E+04  0.26349866891E+04  0.00000000000E+00 0.  1.
         -2   -1    0    0    0  501 -0.00000000000E+00 -0.00000000000E+00 -0.28943043348E+01  0.28943043348E+01  0.00000000000E+00 0.  1.
          2    1    1    2  502    0  0.42312357743E+02 -0.43948223810E+00  0.24698148313E+04  0.24701772871E+04  0.00000000000E+00 0.  1.
         -2    1    1    2    0  502 -0.42312357743E+02  0.43948223810E+00  0.16227755350E+03  0.16770370638E+03  0.00000000000E+00 0.  1.
</event>
<event>
 4    1  0.5847355E+003  0.2658921E+02  0.7546771E-02  0.1451779E+00
          2   -1    0    0  501    0  0.00000000000E+00  0.00000000000E+00  0.20667502851E+03  0.20667502851E+03  0.00000000000E+00 0.  1.
         -2   -1    0    0    0  501 -0.00000000000E+00 -0.00000000000E+00 -0.50992207343E+01  0.50992207343E+01  0.00000000000E+00 0.  1.
          2    1    1    2  502    0 -0.25202758602E+02  0.84739011297E+01  0.16153794971E+03  0.16371162219E+03  0.00000000000E+00 0.  1.
         -2    1    1    2    0  502  0.25202758602E+02 -0.84739011297E+01  0.40037858065E+02  0.48062627060E+02  0.00000000000E+00 0.  1.
</event>
<event>
 4    1  0.5847355E+003  0.2793749E+02  0.7546771E-02  0.1438412E+00
          2   -1    0    0  501    0  0.00000000000E+00  0.00000000000E+00  0.27156760202E+02  0.27156760202E+02  0.00000000000E+00 0. -1.
         -2   -1    0    0    0  501 -0.00000000000E+00 -0.00000000000E+00 -0.48625086978E+03  0.48625086978E+03  0.00000000000E+00 0.  1.
          2    1    1    2  502    0 -0.12540762530E+02  0.24964626052E+02  0.19454765133E+02  0.34043959304E+02  0.00000000000E+00 0. -1.
         -2    1    1    2    0  502  0.12540762530E+02 -0.24964626052E+02 -0.47854887471E+03  0.47936367067E+03  0.00000000000E+00 0.  1.
</event>
<event>
 4    1  0.5847355E+003  0.3174280E+02  0.7546771E-02  0.1405033E+00
          2   -1    0    0  501    0  0.00000000000E+00  0.00000000000E+00  0.32206427201E+04  0.32206427201E+04  0.00000000000E+00 0. -1.
         -2   -1    0    0    0  501 -0.00000000000E+00 -0.00000000000E+00 -0.33415624337E+00  0.33415624337E+00  0.00000000000E+00 0.  1.
          2    1    1    2  502    0  0.15813530548E+02  0.27523395996E+02  0.20167387678E+04  0.20169885628E+04  0.00000000000E+00 0. -1.
         -2    1    1    2    0  502 -0.15813530548E+02 -0.27523395996E+02  0.12035697961E+04  0.12039883135E+04  0.00000000000E+00 0.  1.
</event>
<event>
 4    1  0.5847355E+003  0.2018852E+02  0.7546771E-02  0.1531173E+00
          2   -1    0    0  501    0  0.00000000000E+00  0.00000000000E+00  0.11525432648E+02  0.11525432648E+02  0.00000000000E+00 0. -1.
         -2   -1    0    0    0  501 -0.00000000000E+00 -0.00000000000E+00 -0.10197751697E+03  0.10197751697E+03  0.00000000000E+00 0. -1.
          2    1    1    2  502    0  0.20018212805E+02 -0.26167670479E+01  0.64183990856E+00  0.20198719567E+02  0.00000000000E+00 0. -1.
         -2    1    1    2    0  502 -0.20018212805E+02  0.26167670479E+01 -0.91093924235E+02  0.93304230055E+02  0.00000000000E+00 0. -1.
</event>
<event>
 4    1  0.5847355E+003  0.2136243E+02  0.7546771E-02  0.1514153E+00
          2   -1    0    0  501    0  0.00000000000E+00  0.00000000000E+00  0.67594857332E+01  0.67594857332E+01  0.00000000000E+00 0.  1.
         -2   -1    0    0    0  501 -0.00000000000E+00 -0.00000000000E+00 -0.13231248188E+04  0.13231248188E+04  0.00000000000E+00 0. -1.
          2    1    1    2  502    0 -0.21347104059E+02  0.80894298952E+00 -0.10427102297E+02  0.23771363082E+02  0.00000000000E+00 0.  1.
         -2    1    1    2    0  502  0.21347104059E+02 -0.80894298952E+00 -0.13059382308E+04  0.13061129415E+04  0.00000000000E+00 0. -1.
</event>
<event>
 4    1  0.5847355E+003  0.3243352E+02  0.7546771E-02  0.1399564E+00
          2   -1    0    0  501    0  0.00000000000E+00  0.00000000000E+00  0.15989534075E+04  0.15989534075E+04  0.00000000000E+00 0.  1.
         -2   -1    0    0    0  501 -0.00000000000E+00 -0.00000000000E+00 -0.18942152400E+01  0.18942152400E+01  0.00000000000E+00 0. -1.
          2    1    1    2  502    0  0.62211498590E+01  0.31831278241E+02  0.14451836082E+04  0.14455475068E+04  0.00000000000E+00 0.  1.
         -2    1    1    2    0  502 -0.62211498590E+01 -0.31831278241E+02  0.15187558404E+03  0.15530011592E+03  0.00000000000E+00 0. -1.
</event>
<event>
 4    1  0.5847355E+003  0.5846639E+02  0.7546771E-02  0.1265134E+00
          2   -1    0    0  501    0  0.00000000000E+00  0.00000000000E+00  0.38586585009E+03  0.38586585009E+03  0.00000000000E+00 0. -1.
         -2   -1    0    0    0  501 -0.00000000000E+00 -0.00000000000E+00 -0.90297427599E+01  0.90297427599E+01  0.00000000000E+00 0.  1.
          2    1    1    2  502    0  0.10219603786E+02  0.57566296309E+02  0.21558280822E+03  0.22337024415E+03  0.00000000000E+00 0. -1.
         -2    1    1    2    0  502 -0.10219603786E+02 -0.57566296309E+02  0.16125329911E+03  0.17152534870E+03  0.00000000000E+00 0.  1.
</event>
<event>
 4    1  0.5847355E+003  0.2187192E+02  0.7546771E-02  0.1507171E+00
          2   -1    0    0  501    0  0.00000000000E+00  0.00000000000E+00  0.16349625287E+04  0.16349625287E+04  0.00000000000E+00 0.  1.
         -2   -1    0    0    0  501 -0.00000000000E+00 -0.00000000000E+00 -0.67233163003E+00  0.67233163003E+00  0.00000000000E+00 0.  1.
          2    1    1    2  502    0  0.12758279229E+02  0.17765341030E+02  0.14317643045E+04  0.14319313547E+04  0.00000000000E+00 0.  1.
         -2    1    1    2    0  502 -0.12758279229E+02 -0.17765341030E+02  0.20252589260E+03  0.20370350562E+03  0.00000000000E+00 0.  1.
</event>
<event>
 4    1  0.5847355E+003  0.3130583E+02  0.7546771E-02  0.1408578E+00
          2   -1    0    0  501    0  0.00000000000E+00  0.00000000000E+00  0.25894103821E+01  0.25894103821E+01  0.00000000000E+00 0.  1.
         -2   -1    0    0    0  501 -0.00000000000E+00 -0.00000000000E+00 -0.67791144366E+03  0.67791144366E+03  0.00000000000E+00 0. -1.
          2    1    1    2  502    0  0.26496701340E+02 -0.16672718356E+02 -0.11153174302E+03  0.11584206672E+03  0.00000000000E+00 0.  1.
         -2    1    1    2    0  502 -0.26496701340E+02  0.16672718356E+02 -0.56379029026E+03  0.56465878733E+03  0.00000000000E+00 0. -1.
</event>
<event>
 4    1  0.5847355E+003  0.2341167E+02  0.7546771E-02  0.1487392E+00
          2   -1    0    0  501    0  0.00000000000E+00  0.00000000000E+00  0.48414936469E+02  0.48414936469E+02  0.00000000000E+00 0.  1.
         -2   -1    0    0    0  501 -0.00000000000E+00 -0.00000000000E+00 -0.20737597981E+02  0.20737597981E+02  0.00000000000E+00 0.  1.
          2    1    1    2  502    0 -0.17334603742E+02  0.15735877195E+02  0.37138110360E+02  0.43901543927E+02  0.00000000000E+00 0.  1.
         -2    1    1    2    0  502  0.17334603742E+02 -0.15735877195E+02 -0.94607718728E+01  0.25250990524E+02  0.00000000000E+00 0.  1.
</event>
<event>
 4    1  0.5847355E+003  0.2058923E+02  0.7546771E-02  0.1525211E+00
          2   -1    0    0  501    0  0.00000000000E+00  0.00000000000E+00  0.43880256662E+02  0.43880256662E+02  0.00000000000E+00 0. -1.
         -2   -1    0    0    0  501 -0.00000000000E+00 -0.00000000000E+00 -0.80952300169E+03  0.80952300169E+03  0.00000000000E+00 0. -1.
          2    1    1    2  502    0  0.20117905395E+02 -0.43802310822E+01  0.41326509720E+02  0.46171386675E+02  0.00000000000E+00 0. -1.
         -2    1    1    2    0  502 -0.20117905395E+02  0.43802310822E+01 -0.80696925475E+03  0.80723187168E+03  0.00000000000E+00 0. -1.
</event>
<event>
 4    1  0.5847355E+003  0.5138199E+02  0.7546771E-02  0.1292289E+00
          2   -1    0    0  501    0  0.00000000000E+00  0.00000000000E+00  0.41707946986E+02  0.41707946986E+02  0.00000000000E+00 0. -1.
         -2   -1    0    0    0  501 -0.00000000000E+00 -0.00000000000E+00 -0.64850480438E+02  0.64850480438E+02  0.00000000000E+00 0. -1.
          2    1    1    2  502    0 -0.48441804888E+02 -0.17131781029E+02 -0.19809929440E+02  0.55068499947E+02  0.00000000000E+00 0. -1.
         -2    1    1    2    0  502  0.48441804888E+02  0.17131781029E+02 -0.33326040123E+01  0.51489927476E+02  0.00000000000E+00 0. -1.
</event>
<event>
 4    1  0.5847355E+003  0.2647328E+02  0.7546771E-02  0.1452972E+00
          2   -1    0    0  501    0  0.00000000000E+00  0.00000000000E+00  0.13037700512E+04  0.13037700512E+04  0.00000000000E+00 0.  1.
         -2   -1    0    0    0  501 -0.00000000000E+00 -0.00000000000E+00 -0.45879403993E+01  0.45879403993E+01  0.00000000000E+00 0.  1.
          2    1    1    2  502    0  0.24314062669E+02  0.10471906038E+02  0.12642531729E+04  0.12645303158E+04  0.00000000000E+00 0.  1.
         -2    1    1    2    0  502 -0.24314062669E+02 -0.10471906038E+02  0.34928937837E+02  0.43827675708E+02  0.00000000000E+00 0.  1.
</event>
<event>
 4    1  0.5847355E+003  0.2792486E+02  0.7546771E-02  0.1438533E+00
          2   -1    0    0  501    0  0.00000000000E+00  0.00000000000E+00  0.12760900509E+03  0.12760900509E+03  0.00000000000E+00 0. -1.
         -2   -1    0    0    0  501 -0.00000000000E+00 -0.00000000000E+00 -0.92563500096E+02  0.92563500096E+02  0.00000000000E+00 0.  1.
          2    1    1    2  502    0 -0.19804106387E+02  0.19687433412E+02  0.12391314115E+03  0.12702072356E+03  0.00000000000E+00 0. -1.
         -2    1    1    2    0  502  0.19804106387E+02 -0.19687433412E+02 -0.88867636156E+02  0.93151781626E+02  0.00000000000E+00 0.  1.
</event>
<event>
 4    1  0.5847355E+003  0.2072324E+02  0.7546771E-02  0.1523253E+00
          2   -1    0    0  501    0  0.00000000000E+00  0.00000000000E+00  0.35134600973E+03  0.35134600973E+03  0.00000000000E+00 0.  1.
         -2   -1    0    0    0  501 -0.00000000000E+00 -0.00000000000E+00 -0.26488773887E+01  0.26488773887E+01  0.00000000000E+00 0.  1.
          2    1    1    2  502    0 -0.17389715987E+02  0.11271662278E+02  0.30424065748E+03  0.30494561853E+03  0.00000000000E+00 0.  1.
         -2    1    1    2    0  502  0.17389715987E+02 -0.11271662278E+02  0.44456474858E+02  0.49049268592E+02  0.00000000000E+00 0.  1.
</event>
<event>
 4    1  0.5847355E+003  0.2114245E+02  0.7546771E-02  0.1517241E+00
          2   -1    0    0  501    0  0.00000000000E+00  0.00000000000E+00  0.48480726582E+01  0.48480726582E+01  0.00000000000E+00 0.  1.
         -2   -1    0    0    0  501 -0.00000000000E+00 -0.00000000000E+00 -0.10580648510E+03  0.10580648510E+03  0.00000000000E+00 0.  1.
          2    1    1    2  502    0  0.19857069778E+02 -0.72594615454E+01 -0.30640154611E+02  0.37226631283E+02  0.00000000000E+00 0.  1.
         -2    1    1    2    0  502 -0.19857069778E+02  0.72594615454E+01 -0.70318257829E+02  0.73427926473E+02  0.00000000000E+00 0.  1.
</event>
<event>
 4    1  0.5847355E+003  0.2816851E+02  0.7546771E-02  0.1436211E+00
          2   -1    0    0  501    0  0.00000000000E+00  0.00000000000E+00  0.97272923000E+03  0.97272923000E+03  0.00000000000E+00 0. -1.
         -2   -1    0    0    0  501 -0.00000000000E+00 -0.00000000000E+00 -0.23008118080E+02  0.23008118080E+02  0.00000000000E+00 0.  1.
          2    1    1    2  502    0  0.65073920312E+00  0.28160992166E+02  0.96382408557E+03  0.96423562103E+03  0.00000000000E+00 0. -1.
         -2    1    1    2    0  502 -0.65073920312E+00 -0.28160992166E+02 -0.14102973650E+02  0.31501727049E+02  0.00000000000E+00 0.  1.
</event>
<event>
 4    1  0.5847355E+003  0.2198918E+02  0.7546771E-02  0.1505597E+00
          2   -1    0    0  501    0  0.00000000000E+00  0.00000000000E+00  0.23343404663E+04  0.23343404663E+04  0.00000000000E+00 0.  1.
         -2   -1    0    0    0  501 -0.00000000000E+00 -0.00000000000E+00 -0.20826882614E+00  0.20826882614E+00  0.00000000000E+00 0. -1.
          2    1    1    2  502    0  0.13352045594E+02  0.17471311912E+02  0.12531880016E+04  0.12533809043E+04  0.00000000000E+00 0.  1.
         -2    1    1    2    0  502 -0.13352045594E+02 -0.17471311912E+02  0.10809441959E+04  0.10811678309E+04  0.00000000000E+00 0. -1.
</event>
<event>
 4    1  0.5847355E+003  0.3981765E+02  0.7546771E-02  0.1349558E+00
          2   -1    0    0  501    0  0.00000000000E+00  0.00000000000E+00  0.12455774918E+04  0.12455774918E+04  0.00000000000E+00 0. -1.
         -2   -1    0    0    0  501 -0.00000000000E+00 -0.00000000000E+00 -0.15298914319E+01  0.15298914319E+01  0.00000000000E+00 0. -1.
          2    1    1    2  502    0 -0.24499435365E+02  0.31388257021E+02  0.87760986888E+03  0.87851267889E+03  0.00000000000E+00 0. -1.
         -2    1    1    2    0  502  0.24499435365E+02 -0.31388257021E+02  0.36643773149E+03  0.36859470434E+03  0.00000000000E+00 0. -1.
</event>
<event>
 4    1  0.5847355E+003  0.3966496E+02  0.7546771E-02  0.1350460E+00
          2   -1    0    0  501    0  0.00000000000E+00  0.00000000000E+00  0.40421590524E+03  0.40421590524E+03  0.00000000000E+00 0. -1.
         -2   -1    0    0    0  501 -0.00000000000E+00 -0.00000000000E+00 -0.10547940028E+02  0.10547940028E+02  0.00000000000E+00 0.  1.
          2    1    1    2  502    0 -0.25263284684E+02 -0.30579008318E+02  0.36156812478E+03  0.36373729278E+03  0.00000000000E+00 0. -1.
         -2    1    1    2    0  502  0.25263284684E+02  0.30579008318E+02  0.32099840425E+02  0.51026552480E+02  0.00000000000E+00 0.  1.
</event>
<event>
 4    1  0.5847355E+003  0.5645393E+02  0.7546771E-02  0.1272381E+00
          2   -1    0    0  501    0  0.00000000000E+00  0.00000000000E+00  0.28739078470E+04  0.28739078470E+04  0.00000000000E+00 0. -1.
         -2   -1    0    0    0  501 -0.00000000000E+00 -0.00000000000E+00 -0.13627832319E+01  0.13627832319E+01  0.00000000000E+00 0. -1.
          2    1    1    2  502    0  0.44374885401E+02 -0.34898641821E+02  0.20567156568E+04  0.20574903010E+04  0.00000000000E+00 0. -1.
         -2    1    1    2    0  502 -0.44374885401E+02  0.34898641821E+02  0.81582940694E+03  0.81778032923E+03  0.00000000000E+00 0. -1.
</event>
<event>
 4    1  0.5847355E+003  0.2023840E+02  0.7546771E-02  0.1530422E+00
          2   -1    0    0  501    0  0.00000000000E+00  0.00000000000E+00  0.40273808076E+01  0.40273808076E+01  0.00000000000E+00 0.  1.
         -2   -1    0    0    0  501 -0.00000000000E+00 -0.00000000000E+00 -0.39565454961E+03  0.39565454961E+03  0.00000000000E+00 0.  1.
          2    1    1    2  502    0  0.18380254668E+02 -0.84710657568E+01 -0.23561277823E+02  0.31060047156E+02  0.00000000000E+00 0.  1.
         -2    1    1    2    0  502 -0.18380254668E+02  0.84710657568E+01 -0.36806589098E+03  0.36862188326E+03  0.00000000000E+00 0.  1.
</event>
<event>
 4    1  0.5847355E+003  0.3056623E+02  0.7546771E-02  0.1414738E+00
          2   -1    0    0  501    0  0.00000000000E+00  0.00000000000E+00  0.16710953265E+03  0.16710953265E+03  0.00000000000E+00 0. -1.
         -2   -1    0    0    0  501 -0.00000000000E+00 -0.00000000000E+00 -0.99184348228E+01  0.99184348228E+01  0.00000000000E+00 0.  1.
          2    1    1    2  502    0  0.62939940079E+01  0.29911206035E+02  0.13706244310E+03  0.14042936985E+03  0.00000000000E+00 0. -1.
         -2    1    1    2    0  502 -0.62939940079E+01 -0.29911206035E+02  0.20128654725E+02  0.36598597624E+02  0.00000000000E+00 0.  1.
</event>
<event>
 4    1  0.5847355E+003  0.3137537E+02  0.7546771E-02  0.1408009E+00
          2   -1    0    0  501    0  0.00000000000E+00  0.00000000000E+00  0.14394455360E+04  0.14394455360E+04  0.00000000000E+00 0. -1.
         -2   -1    0    0    0  501 -0.00000000000E+00 -0.00000000000E+00 -0.11126933793E+02  0.11126933793E+02  0.00000000000E+00 0.  1.
          2    1    1    2  502    0 -0.29278911026E+02  0.11276482641E+02  0.14168033279E+04  0.14171506920E+04  0.00000000000E+00 0. -1.
         -2    1    1    2    0  502  0.29278911026E+02 -0.11276482641E+02  0.11515274272E+02  0.33421777828E+02  0.00000000000E+00 0.  1.
</event>
<event>
 4    1  0.5847355E+003  0.1438455E+03  0.7546771E-02  0.1104097E+00
          2   -1    0    0  501    0  0.00000000000E+00  0.00000000000E+00  0.17544491391E+04  0.17544491391E+04  0.00000000000E+00 0.  1.
         -2   -1    0    0    0  501 -0.00000000000E+00 -0.00000000000E+00 -0.13698029671E+03  0.13698029671E+03  0.00000000000E+00 0. -1.
          2    1    1    2  502    0  0.14276628893E+03  0.17587267655E+02  0.17128208197E+04  0.17188503965E+04  0.00000000000E+00 0.  1.
         -2    1    1    2    0  502 -0.14276628893E+03 -0.17587267655E+02 -0.95351977286E+02  0.17257903932E+03  0.00000000000E+00 0. -1.
</event>
<event>
 4    1  0.5847355E+003  0.3141482E+02  0.7546771E-02  0.1407688E+00
          2   -1    0    0  501    0  0.00000000000E+00  0.00000000000E+00  0.74600688318E+02  0.74600688318E+02  0.00000000000E+00 0.  1.
         -2   -1    0    0    0  501 -0.00000000000E+00 -0.00000000000E+00 -0.17946140373E+02  0.17946140373E+02  0.00000000000E+00 0.  1.
          2    1    1    2  502    0  0.22692259254E+02  0.21724459230E+02  0.52051196301E+02  0.60796527822E+02  0.00000000000E+00 0.  1.
         -2    1    1    2    0  502 -0.22692259254E+02 -0.21724459230E+02  0.46033516449E+01  0.31750300869E+02  0.00000000000E+00 0.  1.
</event>
<event>
 4    1  0.5847355E+003  0.2741649E+02  0.7546771E-02  0.1443469E+00
          2   -1    0    0  501    0  0.00000000000E+00  0.00000000000E+00  0.35529335547E+03  0.35529335547E+03  0.00000000000E+00 0. -1.
         -2   -1    0    0    0  501 -0.00000000000E+00 -0.00000000000E+00 -0.11126165517E+02  0.11126165517E+02  0.00000000000E+00 0. -1.
          2    1    1    2  502    0  0.25265966876E+02 -0.10644017615E+02  0.33695733716E+03  0.33807086722E+03  0.00000000000E+00 0. -1.
         -2    1    1    2    0  502 -0.25265966876E+02  0.10644017615E+02  0.72098527869E+01  0.28348653766E+02  0.00000000000E+00 0. -1.
</event>
<event>
 4    1  0.5847355E+003  0.1079321E+03  0.7546771E-02  0.1150730E+00
          2   -1    0    0  501    0  0.00000000000E+00  0.00000000000E+00  0.12981750016E+04  0.12981750016E+04  0.00000000000E+00 0.  1.
         -2   -1    0    0    0  501 -0.00000000000E+00 -0.00000000000E+00 -0.94793933546E+01  0.94793933546E+01  0.00000000000E+00 0. -1.
          2    1    1    2  502    0 -0.89505015928E+02 -0.60317273476E+02  0.49332126761E+03  0.50499029142E+03  0.00000000000E+00 0.  1.
         -2    1    1    2    0  502  0.89505015928E+02  0.60317273476E+02  0.79537434064E+03  0.80266410353E+03  0.00000000000E+00 0. -1.
</event>
<event>
 4    1  0.5847355E+003  0.2983093E+02  0.7546771E-02  0.1421072E+00
          2   -1    0    0  501    0  0.00000000000E+00  0.00000000000E+00  0.11240842463E+03  0.11240842463E+03  0.00000000000E+00 0. -1.
         -2   -1    0    0    0  501 -0.00000000000E+00 -0.00000000000E+00 -0.22461418482E+02  0.22461418482E+02  0.00000000000E+00 0. -1.
          2    1    1    2  502    0  0.29212494005E+02  0.60427088589E+01  0.99238718972E+02  0.10362532258E+03  0.00000000000E+00 0. -1.
         -2    1    1    2    0  502 -0.29212494005E+02 -0.60427088589E+01 -0.92917128214E+01  0.31244520535E+02  0.00000000000E+00 0. -1.
</event>
<event>
 4    1  0.5847355E+003  0.2757337E+02  0.7546771E-02  0.1441932E+00
          2   -1    0    0  501    0  0.00000000000E+00  0.00000000000E+00  0.75748111799E+03  0.75748111799E+03  0.00000000000E+00 0. -1.
         -2   -1    0    0    0  501 -0.00000000000E+00 -0.00000000000E+00 -0.69275933495E+02  0.69275933495E+02  0.00000000000E+00 0.  1.
          2    1    1    2  502    0 -0.10885563326E+02  0.25333678014E+02  0.75447556004E+03  0.75497924569E+03  0.00000000000E+00 0. -1.
         -2    1    1    2    0  502  0.10885563326E+02 -0.25333678014E+02 -0.66270375541E+02  0.71777805796E+02  0.00000000000E+00 0.  1.
</event>
<event>
 4    1  0.5847355E+003  0.2501534E+02  0.7546771E-02  0.1468632E+00
          2   -1    0    0  501    0  0.00000000000E+00  0.00000000000E+00  0.22381617709E+01  0.22381617709E+01  0.00000000000E+00 0. -1.
         -2   -1    0    0    0  501 -0.00000000000E+00 -0.00000000000E+00 -0.69309377167E+03  0.69309377167E+03  0.00000000000E+00 0.  1.
          2    1    1    2  502    0 -0.10910012919E+02  0.22510859671E+02 -0.76889633189E+02  0.80856557414E+02  0.00000000000E+00 0. -1.
         -2    1    1    2    0  502  0.10910012919E+02 -0.22510859671E+02 -0.61396597671E+03  0.61447537603E+03  0.00000000000E+00 0.  1.
</event>
<event>
 4    1  0.5847355E+003  0.2154151E+02  0.7546771E-02  0.1511672E+00
          2   -1    0    0  501    0  0.00000000000E+00  0.00000000000E+00  0.31275883314E+03  0.31275883314E+03  0.00000000000E+00 0.  1.
         -2   -1    0    0    0  501 -0.00000000000E+00 -0.00000000000E+00 -0.86810616802E+02  0.86810616802E+02  0.00000000000E+00 0. -1.
          2    1    1    2  502    0  0.21539813639E+02  0.27006948010E+00  0.31104420614E+03  0.31178924722E+03  0.00000000000E+00 0.  1.
         -2    1    1    2    0  502 -0.21539813639E+02 -0.27006948010E+00 -0.85095989803E+02  0.87780202721E+02  0.00000000000E+00 0. -1.
</event>
<event>
 4    1  0.5847355E+003  0.2083387E+02  0.7546771E-02  0.1521650E+00
          2   -1    0    0  501    0  0.00000000000E+00  0.00000000000E+00  0.21112771372E+03  0.21112771372E+03  0.00000000000E+00 0.  1.
         -2   -1    0    0    0  501 -0.00000000000E+00 -0.00000000000E+00 -0.29160397905E+01  0.29160397905E+01  0.00000000000E+00 0.  1.
          2    1    1    2  502    0  0.18380209106E+02  0.98090847695E+01  0.16223164606E+03  0.16356392393E+03  0.00000000000E+00 0.  1.
         -2    1    1    2    0  502 -0.18380209106E+02 -0.98090847695E+01  0.45980027875E+02  0.50479829577E+02  0.00000000000E+00 0.  1.
</event>
<event>
 4    1  0.5847355E+003  0.3182701E+02  0.7546771E-02  0.1404357E+00
          2   -1    0    0  501    0  0.00000000000E+00  0.00000000000E+00  0.36622698036E+01  0.36622698036E+01  0.00000000000E+00 0. -1.
         -2   -1    0    0    0  501 -0.00000000000E+00 -0.00000000000E+00 -0.42755006746E+03  0.42755006746E+03  0.00000000000E+00 0.  1.
          2    1    1    2  502    0  0.87543191933E+01 -0.30599352488E+02 -0.83830573008E+02  0.89668965914E+02  0.00000000000E+00 0. -1.
         -2    1    1    2    0  502 -0.87543191933E+01  0.30599352488E+02 -0.34005722465E+03  0.34154337135E+03  0.00000000000E+00 0.  1.
</event>
<event>
 4    1  0.5847355E+003  0.2406128E+02  0.7546771E-02  0.1479585E+00
          2   -1    0    0  501    0  0.00000000000E+00  0.00000000000E+00  0.10258112380E+03  0.10258112380E+03  0.00000000000E+00 0.  1.
         -2   -1    0    0    0  501 -0.00000000000E+00 -0.00000000000E+00 -0.68031317718E+02  0.68031317718E+02  0.00000000000E+00 0. -1.
          2    1    1    2  502    0 -0.16490519171E+02  0.17521646328E+02  0.98966085584E+02  0.10184906189E+03  0.00000000000E+00 0.  1.
         -2    1    1    2    0  502  0.16490519171E+02 -0.17521646328E+02 -0.64416279502E+02  0.68763379625E+02  0.00000000000E+00 0. -1.
</event>
<event>
 4    1  0.5847355E+003  0.2398610E+02  0.7546771E-02  0.1480473E+00
          2   -1    0    0  501    0  0.00000000000E+00  0.00000000000E+00  0.84825325055E+03  0.84825325055E+03  0.00000000000E+00 0. -1.
         -2   -1    0    0    0  501 -0.00000000000E+00 -0.00000000000E+00 -0.17686531968E+03  0.17686531968E+03  0.00000000000E+00 0.  1.
          2    1    1    2  502    0 -0.21182643248E+02  0.11252946843E+02  0.84726950612E+03  0.84760896007E+03  0.00000000000E+00 0. -1.
         -2    1    1    2    0  502  0.21182643248E+02 -0.11252946843E+02 -0.17588157525E+03  0.17750961017E+03  0.00000000000E+00 0.  1.
</event>
<event>
 4    1  0.5847355E+003  0.2224152E+02  0.7546771E-02  0.1502249E+00
          2   -1    0    0  501    0  0.00000000000E+00  0.00000000000E+00  0.10667299815E+04  0.10667299815E+04  0.00000000000E+00 0.  1.
         -2   -1    0    0    0  501 -0.00000000000E+00 -0.00000000000E+00 -0.11745484296E+01  0.11745484296E+01  0.00000000000E+00 0.  1.
          2    1    1    2  502    0 -0.14209126337E+02  0.17110986353E+02  0.94815555428E+03  0.94841638547E+03  0.00000000000E+00 0.  1.
         -2    1    1    2    0  502  0.14209126337E+02 -0.17110986353E+02  0.11739987879E+03  0.11948814446E+03  0.00000000000E+00 0.  1.
</event>
<event>
 4    1  0.5847355E+003  0.8710738E+02  0.7546771E-02  0.1188244E+00
          2   -1    0    0  501    0  0.00000000000E+00  0.00000000000E+00  0.17272027085E+03  0.17272027085E+03  0.00000000000E+00 0. -1.
         -2   -1    0    0    0  501 -0.00000000000E+00 -0.00000000000E+00 -0.12228546838E+04  0.12228546838E+04  0.00000000000E+00 0. -1.
          2    1    1    2  502    0  0.54469019036E+02  0.67976630999E+02  0.16007177037E+03  0.18223794354E+03  0.00000000000E+00 0. -1.
         -2    1    1    2    0  502 -0.54469019036E+02 -0.67976630999E+02 -0.12102061833E+04  0.12133370111E+04  0.00000000000E+00 0. -1.
</event>
<event>
 4    1  0.5847355E+003  0.7099093E+02  0.7546771E-02  0.1226464E+00
          2   -1    0    0  501    0  0.00000000000E+00  0.00000000000E+00  0.54274560277E+02  0.54274560277E+02  0.00000000000E+00 0. -1.
         -2   -1    0    0    0  501 -0.00000000000E+00 -0.00000000000E+00 -0.37309090514E+03  0.37309090514E+03  0.00000000000E+00 0. -1.
          2    1    1    2  502    0  0.10904833043E+02  0.70148386909E+02  0.25784292463E+02  0.75528413908E+02  0.00000000000E+00 0. -1.
         -2    1    1    2    0  502 -0.10904833043E+02 -0.70148386909E+02 -0.34460063732E+03  0.35183705150E+03  0.00000000000E+00 0. -1.
</event>
<event>
 4    1  0.5847355E+003  0.2097892E+02  0.7546771E-02  0.1519566E+00
          2   -1    0    0  501    0  0.00000000000E+00  0.00000000000E+00  0.16877997857E+04  0.16877997857E+04  0.00000000000E+00 0.  1.
         -2   -1    0    0    0  501 -0.00000000000E+00 -0.00000000000E+00 -0.28445622063E+00  0.28445622063E+00  0.00000000000E+00 0.  1.
          2    1    1    2  502    0 -0.16055047748E+02  0.13503701078E+02  0.60015885882E+03  0.60052541189E+03  0.00000000000E+00 0.  1.
         -2    1    1    2    0  502  0.16055047748E+02 -0.13503701078E+02  0.10873564706E+04  0.10875588300E+04  0.00000000000E+00 0.  1.
</event>
<event>
 4    1  0.5847355E+003  0.3059120E+02  0.7546771E-02  0.1414527E+00
          2   -1    0    0  501    0  0.00000000000E+00  0.00000000000E+00  0.11927700787E+03  0.11927700787E+03  0.00000000000E+00 0.  1.
         -2   -1    0    0    0  501 -0.00000000000E+00 -0.00000000000E+00 -0.21667959803E+02  0.21667959803E+02  0.00000000000E+00 0. -1.
          2    1    1    2  502    0  0.76119424637E+01  0.29629034426E+02  0.10509032007E+03  0.10945225773E+03  0.00000000000E+00 0.  1.
         -2    1    1    2    0  502 -0.76119424637E+01 -0.29629034426E+02 -0.74812720012E+01  0.31492709948E+02  0.00000000000E+00 0. -1.
</event>
<event>
 4    1  0.5847355E+003  0.2481772E+02  0.7546771E-02  0.1470853E+00
          2   -1    0    0  501    0  0.00000000000E+00  0.00000000000E+00  0.54894916486E+01  0.54894916486E+01  0.00000000000E+00 0. -1.
         -2   -1    0    0    0  501 -0.00000000000E+00 -0.00000000000E+00 -0.26455751725E+03  0.26455751725E+03  0.00000000000E+00 0.  1.
          2    1    1    2  502    0 -0.36912481366E+00 -0.24814976207E+02 -0.27067560834E+02  0.36722910380E+02  0.00000000000E+00 0. -1.
         -2    1    1    2    0  502  0.36912481366E+00  0.24814976207E+02 -0.23200046477E+03  0.23332409852E+03  0.00000000000E+00 0.  1.
</event>
<event>
 4    1  0.5847355E+003  0.4148811E+02  0.7546771E-02  0.1339979E+00
          2   -1    0    0  501    0  0.00000000000E+00  0.00000000000E+00  0.75255334909E+03  0.75255334909E+03  0.00000000000E+00 0.  1.
         -2   -1    0    0    0  501 -0.00000000000E+00 -0.00000000000E+00 -0.45045878600E+02  0.45045878600E+02  0.00000000000E+00 0. -1.
          2    1    1    2  502    0  0.28558569874E+02  0.30094371223E+02  0.74229681666E+03  0.74345532960E+03  0.00000000000E+00 0.  1.
         -2    1    1    2    0  502 -0.28558569874E+02 -0.30094371223E+02 -0.34789346173E+02  0.54143898083E+02  0.00000000000E+00 0. -1.
</event>
<event>
 4    1  0.5847355E+003  0.2092125E+02  0.7546771E-02  0.1520392E+00
          2   -1    0    0  501    0  0.00000000000E+00  0.00000000000E+00  0.11737758991E+02  0.11737758991E+02  0.00000000000E+00 0.  1.
         -2   -1    0    0    0  501 -0.00000000000E+00 -0.00000000000E+00 -0.61270465040E+02  0.61270465040E+02  0.00000000000E+00 0. -1.
          2    1    1    2  502    0 -0.20792497760E+02  0.23174212856E+01 -0.47603772453E+02  0.51998245703E+02  0.00000000000E+00 0.  1.
         -2    1    1    2    0  502  0.20792497760E+02 -0.23174212856E+01 -0.19289335959E+01  0.21009978328E+02  0.00000000000E+00 0. -1.
</event>
<event>
 4    1  0.5847355E+003  0.2499777E+02  0.7546771E-02  0.1468828E+00
          2   -1    0    0  501    0  0.00000000000E+00  0.00000000000E+00  0.26343744338E+04  0.26343744338E+04  0.00000000000E+00 0. -1.
         -2   -1    0    0    0  501 -0.00000000000E+00 -0.00000000000E+00 -0.25565779216E+00  0.25565779216E+00  0.00000000000E+00 0. -1.
          2    1    1    2  502    0 -0.15448807362E+02  0.19652556179E+02  0.16709613944E+04  0.16711483687E+04  0.00000000000E+00 0. -1.
         -2    1    1    2    0  502  0.15448807362E+02 -0.19652556179E+02  0.96315738163E+03  0.96348172292E+03  0.00000000000E+00 0. -1.
</event>
<event>
 4    1  0.5847355E+003  0.2171509E+02  0.7546771E-02  0.1509295E+00
          2   -1    0    0  501    0  0.00000000000E+00  0.00000000000E+00  0.26676737327E+03  0.26676737327E+03  0.00000000000E+00 0.  1.
         -2   -1    0    0    0  501 -0.00000000000E+00 -0.00000000000E+00 -0.48849383548E+02  0.48849383548E+02  0.00000000000E+00 0.  1.
          2    1    1    2  502    0  0.21560350930E+02 -0.25877352487E+01  0.26388589947E+03  0.26477785603E+03  0.00000000000E+00 0.  1.
         -2    1    1    2    0  502 -0.21560350930E+02  0.25877352487E+01 -0.45967909751E+02  0.50838900783E+02  0.00000000000E+00 0.  1.
</event>
<event>
 4    1  0.5847355E+003  0.3034093E+02  0.7546771E-02  0.1416656E+00
          2   -1    0    0  501    0  0.00000000000E+00  0.00000000000E+00  0.19194506412E+04  0.19194506412E+04  0.00000000000E+00 0.  1.
         -2   -1    0    0    0  501 -0.00000000000E+00 -0.00000000000E+00 -0.48160613403E+02  0.48160613403E+02  0.00000000000E+00 0. -1.
          2    1    1    2  502    0 -0.15156401891E+02 -0.26284131693E+02  0.19145398278E+04  0.19147802288E+04  0.00000000000E+00 0.  1.
         -2    1    1    2    0  502  0.15156401891E+02  0.26284131693E+02 -0.43249799990E+02  0.52831025887E+02  0.00000000000E+00 0. -1.
</event>
<event>
 4    1  0.5847355E+003  0.3972340E+02  0.7546771E-02  0.1350114E+00
          2   -1    0    0  501    0  0.00000000000E+00  0.00000000000E+00  0.14696628478E+04  0.14696628478E+04  0.00000000000E+00 0. -1.
         -2   -1    0    0    0  501 -0.00000000000E+00 -0.00000000000E+00 -0.48657116316E+01  0.48657116316E+01  0.00000000000E+00 0. -1.
          2    1    1    2  502    0  0.39570192830E+02 -0.34854128792E+01  0.13832561370E+04  0.13838263940E+04  0.00000000000E+00 0. -1.
         -2    1    1    2    0  502 -0.39570192830E+02  0.34854128792E+01  0.81540999181E+02  0.90702165415E+02  0.00000000000E+00 0. -1.
</event>
<event>
 4    1  0.5847355E+003  0.5802200E+02  0.7546771E-02  0.1266705E+00
          2   -1    0    0  501    0  0.00000000000E+00  0.00000000000E+00  0.17509919649E+04  0.17509919649E+04  0.00000000000E+00 0.  1.
         -2   -1    0    0    0  501 -0.00000000000E+00 -0.00000000000E+00 -0.41175284497E+01  0.41175284497E+01  0.00000000000E+00 0.  1.
          2    1    1    2  502    0  0.47836694454E+02 -0.32835996914E+02  0.15141460913E+04  0.15152573833E+04  0.00000000000E+00 0.  1.
         -2    1    1    2    0  502 -0.47836694454E+02  0.32835996914E+02  0.23272834514E+03  0.23985210998E+03  0.00000000000E+00 0.  1.
</event>
<event>
 4    1  0.5847355E+003  0.1093153E+03  0.7546771E-02  0.1148576E+00
          2   -1    0    0  501    0  0.00000000000E+00  0.00000000000E+00  0.14151910946E+04  0.14151910946E+04  0.00000000000E+00 0.  1.
         -2   -1    0    0    0  501 -0.00000000000E+00 -0.00000000000E+00 -0.10119093670E+02  0.10119093670E+02  0.00000000000E+00 0.  1.
          2    1    1    2  502    0 -0.54377800841E+02  0.94830797259E+02  0.99249230497E+03  0.99849426676E+03  0.00000000000E+00 0.  1.
         -2    1    1    2    0  502  0.54377800841E+02 -0.94830797259E+02  0.41257969593E+03  0.42681592148E+03  0.00000000000E+00 0.  1.
</event>
<event>
 4    1  0.5847355E+003  0.2034519E+02  0.7546771E-02  0.1528823E+00
          2   -1    0    0  501    0  0.00000000000E+00  0.00000000000E+00  0.10948410983E+04  0.10948410983E+04  0.00000000000E+00 0.  1.
         -2   -1    0    0    0  501 -0.00000000000E+00 -0.00000000000E+00 -0.11393799159E+02  0.11393799159E+02  0.00000000000E+00 0. -1.
          2    1    1    2  502    0 -0.98741952379E+01 -0.17788391051E+02  0.10855868870E+04  0.10857775167E+04  0.00000000000E+00 0.  1.
         -2    1    1    2    0  502  0.98741952379E+01  0.17788391051E+02 -0.21395879183E+01  0.20457380679E+02  0.00000000000E+00 0. -1.
</event>
<event>
 4    1  0.5847355E+003  0.2198193E+02  0.7546771E-02  0.1505694E+00
          2   -1    0    0  501    0  0.00000000000E+00  0.00000000000E+00  0.86370213165E+03  0.86370213165E+03  0.00000000000E+00 0.  1.
         -2   -1    0    0    0  501 -0.00000000000E+00 -0.00000000000E+00 -0.72360449399E+00  0.72360449399E+00  0.00000000000E+00 0.  1.
          2    1    1    2  502    0  0.18518765317E+02 -0.11843156873E+02  0.63734497554E+03  0.63772393940E+03  0.00000000000E+00 0.  1.
         -2    1    1    2    0  502 -0.18518765317E+02  0.11843156873E+02  0.22563355161E+03  0.22670179675E+03  0.00000000000E+00 0.  1.
</event>
<event>
 4    1  0.5847355E+003  0.2973284E+02  0.7546771E-02  0.1421933E+00
          2   -1    0    0  501    0  0.00000000000E+00  0.00000000000E+00  0.30402841901E+02  0.30402841901E+02  0.00000000000E+00 0. -1.
         -2   -1    0    0    0  501 -0.00000000000E+00 -0.00000000000E+00 -0.29426201150E+02  0.29426201150E+02  0.00000000000E+00 0.  1.
          2    1    1    2  502    0  0.19377065368E+02 -0.22551516637E+02  0.37442996941E+01  0.29967671667E+02  0.00000000000E+00 0. -1.
         -2    1    1    2    0  502 -0.19377065368E+02  0.22551516637E+02 -0.27676589430E+01  0.29861371384E+02  0.00000000000E+00 0.  1.
</event>
<event>
 4    1  0.5847355E+003  0.2159289E+02  0.7546771E-02  0.1510966E+00
          2   -1    0    0  501    0  0.00000000000E+00  0.00000000000E+00  0.21624783309E+02  0.21624783309E+02  0.00000000000E+00 0.  1.
         -2   -1    0    0    0  501 -0.00000000000E+00 -0.00000000000E+00 -0.11966953999E+03  0.11966953999E+03  0.00000000000E+00 0. -1.
          2    1    1    2  502    0  0.43950364246E+01 -0.21140869235E+02  0.14944659131E+02  0.26260151060E+02  0.00000000000E+00 0.  1.
         -2    1    1    2    0  502 -0.43950364246E+01  0.21140869235E+02 -0.11298941581E+03  0.11503417224E+03  0.00000000000E+00 0. -1.
</event>
<event>
 4    1  0.5847355E+003  0.5755666E+02  0.7546771E-02  0.1268368E+00
          2   -1    0    0  501    0  0.00000000000E+00  0.00000000000E+00  0.71768302600E+03  0.71768302600E+03  0.00000000000E+00 0.  1.
         -2   -1    0    0    0  501 -0.00000000000E+00 -0.00000000000E+00 -0.79838437526E+03  0.79838437526E+03  0.00000000000E+00 0. -1.
          2    1    1    2  502    0 -0.76278634839E+01  0.57048963850E+02  0.71548853399E+03  0.71779984038E+03  0.00000000000E+00 0.  1.
         -2    1    1    2    0  502  0.76278634839E+01 -0.57048963850E+02 -0.79618988325E+03  0.79826756089E+03  0.00000000000E+00 0. -1.
</event>
<event>
 4    1  0.5847355E+003  0.2526567E+02  0.7546771E-02  0.1465853E+00
          2   -1    0    0  501    0  0.00000000000E+00  0.00000000000E+00  0.47555680010E+03  0.47555680010E+03  0.00000000000E+00 0. -1.
         -2   -1    0    0    0  501 -0.00000000000E+00 -0.00000000000E+00 -0.53732982701E+01  0.53732982701E+01  0.00000000000E+00 0.  1.
          2    1    1    2  502    0 -0.10707908546E+02  0.22884376107E+02  0.44336629779E+03  0.44408560885E+03  0.00000000000E+00 0. -1.
         -2    1    1    2    0  502  0.10707908546E+02 -0.22884376107E+02  0.26817204042E+02  0.36844489518E+02  0.00000000000E+00 0.  1.
</event>
<event>
 4    1  0.5847355E+003  0.2664091E+02  0.7546771E-02  0.1451249E+00
          2   -1    0    0  501    0  0.00000000000E+00  0.00000000000E+00  0.10758192424E+04  0.10758192424E+04  0.00000000000E+00 0.  1.
         -2   -1    0    0    0  501 -0.00000000000E+00 -0.00000000000E+00 -0.46385210491E+01  0.46385210491E+01  0.00000000000E+00 0.  1.
          2    1    1    2  502    0 -0.13722569594E+02  0.22834821609E+02  0.10359292033E+04  0.10362717078E+04  0.00000000000E+00 0.  1.
         -2    1    1    2    0  502  0.13722569594E+02 -0.22834821609E+02  0.35251518003E+02  0.44186055670E+02  0.00000000000E+00 0.  1.
</event>
<event>
 4    1  0.5847355E+003  0.2092674E+02  0.7546771E-02  0.1520313E+00
          2   -1    0    0  501    0  0.00000000000E+00  0.00000000000E+00  0.13619554733E+03  0.13619554733E+03  0.00000000000E+00 0.  1.
         -2   -1    0    0    0  501 -0.00000000000E+00 -0.00000000000E+00 -0.12831322340E+02  0.12831322340E+02  0.00000000000E+00 0.  1.
          2    1    1    2  502    0 -0.12712353331E+01  0.20888096310E+02  0.12618712249E+03  0.12791058787E+03  0.00000000000E+00 0.  1.
         -2    1    1    2    0  502  0.12712353331E+01 -0.20888096310E+02 -0.28228975008E+01  0.21116281799E+02  0.00000000000E+00 0.  1.
</event>
<event>
 4    1  0.5847355E+003  0.2033601E+02  0.7546771E-02  0.1528960E+00
          2   -1    0    0  501    0  0.00000000000E+00  0.00000000000E+00  0.22395688493E+02  0.22395688493E+02  0.00000000000E+00 0.  1.
         -2   -1    0    0    0  501 -0.00000000000E+00 -0.00000000000E+00 -0.45283299505E+02  0.45283299505E+02  0.00000000000E+00 0.  1.
          2    1    1    2  502    0  0.34200819241E+01 -0.20046358980E+02  0.14597591078E+02  0.25032841109E+02  0.00000000000E+00 0.  1.
         -2    1    1    2    0  502 -0.34200819241E+01  0.20046358980E+02 -0.37485202090E+02  0.42646146888E+02  0.00000000000E+00 0.  1.
</event>
<event>
 4    1  0.5847355E+003  0.2107597E+02  0.7546771E-02  0.1518183E+00
          2   -1    0    0  501    0  0.00000000000E+00  0.00000000000E+00  0.65335192735E+02  0.65335192735E+02  0.00000000000E+00 0. -1.
         -2   -1    0    0    0  501 -0.00000000000E+00 -0.00000000000E+00 -0.20362591283E+03  0.20362591283E+03  0.00000000000E+00 0.  1.
          2    1    1    2  502    0  0.70500290215E+01  0.19861862534E+02  0.63071092046E+02  0.66499316872E+02  0.00000000000E+00 0. -1.
         -2    1    1    2    0  502 -0.70500290215E+01 -0.19861862534E+02 -0.20136181214E+03  0.20246178869E+03  0.00000000000E+00 0.  1.
</event>
<event>
 4    1  0.5847355E+003  0.2558377E+02  0.7546771E-02  0.1462378E+00
          2   -1    0    0  501    0  0.00000000000E+00  0.00000000000E+00  0.96260695473E+03  0.96260695473E+03  0.00000000000E+00 0. -1.
         -2   -1    0    0    0  501 -0.00000000000E+00 -0.00000000000E+00 -0.88063914562E+01  0.88063914562E+01  0.00000000000E+00 0.  1.
          2    1    1    2  502    0 -0.13135259805E+02 -0.21954361876E+02  0.94347925027E+03  0.94382605640E+03  0.00000000000E+00 0. -1.
         -2    1    1    2    0  502  0.13135259805E+02  0.21954361876E+02  0.10321313006E+02  0.27587289785E+02  0.00000000000E+00 0.  1.
</event>
<event>
 4    1  0.5847355E+003  0.2050126E+02  0.7546771E-02  0.1526506E+00
          2   -1    0    0  501    0  0.00000000000E+00  0.00000000000E+00  0.10103501868E+04  0.10103501868E+04  0.00000000000E+00 0. -1.
         -2   -1    0    0    0  501 -0.00000000000E+00 -0.00000000000E+00 -0.69204680215E+02  0.69204680215E+02  0.00000000000E+00 0. -1.
          2    1    1    2  502    0 -0.17757547712E+02  0.10245545968E+02  0.10087254141E+04  0.10089337256E+04  0.00000000000E+00 0. -1.
         -2    1    1    2    0  502  0.17757547712E+02 -0.10245545968E+02 -0.67579907495E+02  0.70621141381E+02  0.00000000000E+00 0. -1.
</event>
<event>
 4    1  0.5847355E+003  0.4049281E+02  0.7546771E-02  0.1345622E+00
          2   -1    0    0  501    0  0.00000000000E+00  0.00000000000E+00  0.20176801182E+02  0.20176801182E+02  0.00000000000E+00 0. -1.
         -2   -1    0    0    0  501 -0.00000000000E+00 -0.00000000000E+00 -0.15639718204E+03  0.15639718204E+03  0.00000000000E+00 0. -1.
          2    1    1    2  502    0 -0.48289633527E+01 -0.40203836714E+02 -0.69180969601E+01  0.41079525790E+02  0.00000000000E+00 0. -1.
         -2    1    1    2    0  502  0.48289633527E+01  0.40203836714E+02 -0.12930228389E+03  0.13549445743E+03  0.00000000000E+00 0. -1.
</event>
<event>
 4    1  0.5847355E+003  0.2531842E+02  0.7546771E-02  0.1465273E+00
          2   -1    0    0  501    0  0.00000000000E+00  0.00000000000E+00  0.58207747629E+03  0.58207747629E+03  0.00000000000E+00 0. -1.
         -2   -1    0    0    0  501 -0.00000000000E+00 -0.00000000000E+00 -0.55901004485E+01  0.55901004485E+01  0.00000000000E+00 0.  1.
          2    1    1    2  502    0 -0.18298139563E+02 -0.17498580490E+02  0.55154845067E+03  0.55212925630E+03  0.00000000000E+00 0. -1.
         -2    1    1    2    0  502  0.18298139563E+02  0.17498580490E+02  0.24938925174E+02  0.35538320437E+02  0.00000000000E+00 0.  1.
</event>
<event>
 4    1  0.5847355E+003  0.2432163E+02  0.7546771E-02  0.1476537E+00
          2   -1    0    0  501    0  0.00000000000E+00  0.00000000000E+00  0.11291499374E+03  0.11291499374E+03  0.00000000000E+00 0.  1.
         -2   -1    0    0    0  501 -0.00000000000E+00 -0.00000000000E+00 -0.55163328934E+01  0.55163328934E+01  0.00000000000E+00 0. -1.
          2    1    1    2  502    0  0.14268212917E+02 -0.19696691118E+02  0.66980963238E+02  0.71260023695E+02  0.00000000000E+00 0.  1.
         -2    1    1    2    0  502 -0.14268212917E+02  0.19696691118E+02  0.40417697607E+02  0.47171302936E+02  0.00000000000E+00 0. -1.
</event>
<event>
 4    1  0.5847355E+003  0.3156232E+02  0.7546771E-02  0.1406489E+00
          2   -1    0    0  501    0  0.00000000000E+00  0.00000000000E+00  0.13460409951E+04  0.13460409951E+04  0.00000000000E+00 0. -1.
         -2   -1    0    0    0  501 -0.00000000000E+00 -0.00000000000E+00 -0.55161873959E+01  0.55161873959E+01  0.00000000000E+00 0. -1.
          2    1    1    2  502    0  0.22268721285E+02 -0.22367028903E+02  0.12990759671E+04  0.12994593292E+04  0.00000000000E+00 0. -1.
         -2    1    1    2    0  502 -0.22268721285E+02  0.22367028903E+02  0.41448840521E+02  0.52097853220E+02  0.00000000000E+00 0. -1.
</event>
<event>
 4    1  0.5847355E+003  0.2606853E+02  0.7546771E-02  0.1457196E+00
          2   -1    0    0  501    0  0.00000000000E+00  0.00000000000E+00  0.11584751076E+04  0.11584751076E+04  0.00000000000E+00 0.  1.
         -2   -1    0    0    0  501 -0.00000000000E+00 -0.00000000000E+00 -0.65768339560E+00  0.65768339560E+00  0.00000000000E+00 0.  1.
          2    1    1    2  502    0  0.15891973092E+02  0.20664292494E+02  0.38837920661E+03  0.38925310008E+03  0.00000000000E+00 0.  1.
         -2    1    1    2    0  502 -0.15891973092E+02 -0.20664292494E+02  0.76943821759E+03  0.76987969091E+03  0.00000000000E+00 0.  1.
</event>
<event>
 4    1  0.5847355E+003  0.2048795E+02  0.7546771E-02  0.1526703E+00
          2   -1    0    0  501    0  0.00000000000E+00  0.00000000000E+00  0.41247479124E+03  0.41247479124E+03  0.00000000000E+00 0.  1.
         -2   -1    0    0    0  501 -0.00000000000E+00 -0.00000000000E+00 -0.12415719028E+01  0.12415719028E+01  0.00000000000E+00 0.  1.
          2    1    1    2  502    0 -0.10029904310E+02  0.17864963218E+02  0.29346481424E+03  0.29417911735E+03  0.00000000000E+00 0.  1.
         -2    1    1    2    0  502  0.10029904310E+02 -0.17864963218E+02  0.11776840510E+03  0.11953724579E+03  0.00000000000E+00 0.  1.
</event>
<event>
 4    1  0.5847355E+003  0.2287782E+02  0.7546771E-02  0.1494038E+00
          2   -1    0    0  501    0  0.00000000000E+00  0.00000000000E+00  0.12015533431E+04  0.12015533431E+04  0.00000000000E+00 0. -1.
         -2   -1    0    0    0  501 -0.00000000000E+00 -0.00000000000E+00 -0.10888166207E+01  0.10888166207E+01  0.00000000000E+00 0. -1.
          2    1    1    2  502    0 -0.98401687757E+01  0.20653469313E+02  0.10659879887E+04  0.10662334579E+04  0.00000000000E+00 0. -1.
         -2    1    1    2    0  502  0.98401687757E+01 -0.20653469313E+02  0.13447653775E+03  0.13640870178E+03  0.00000000000E+00 0. -1.
</event>
<event>
 4    1  0.5847355E+003  0.2222184E+02  0.7546771E-02  0.1502508E+00
          2   -1    0    0  501    0  0.00000000000E+00  0.00000000000E+00  0.97181630488E+02  0.97181630488E+02  0.00000000000E+00 0. -1.
         -2   -1    0    0    0  501 -0.00000000000E+00 -0.00000000000E+00 -0.21421905324E+02  0.21421905324E+02  0.00000000000E+00 0. -1.
          2    1    1    2  502    0  0.19397683831E+02 -0.10841588993E+02  0.89673033813E+02  0.92385405683E+02  0.00000000000E+00 0. -1.
         -2    1    1    2    0  502 -0.19397683831E+02  0.10841588993E+02 -0.13913308649E+02  0.26218130129E+02  0.00000000000E+00 0. -1.
</event>
<event>
 4    1  0.5847355E+003  0.4049997E+02  0.7546771E-02  0.1345581E+00
          2   -1    0    0  501    0  0.00000000000E+00  0.00000000000E+00  0.35459644570E+03  0.35459644570E+03  0.00000000000E+00 0. -1.
         -2   -1    0    0    0  501 -0.00000000000E+00 -0.00000000000E+00 -0.16651532117E+03  0.16651532117E+03  0.00000000000E+00 0.  1.
          2    1    1    2  502    0  0.32989651518E+02  0.23493204231E+02  0.35095193045E+03  0.35328105700E+03  0.00000000000E+00 0. -1.
         -2    1    1    2    0  502 -0.32989651518E+02 -0.23493204231E+02 -0.16287080592E+03  0.16783070986E+03  0.00000000000E+00 0.  1.
</event>
<event>
 4    1  0.5847355E+003  0.2168934E+02  0.7546771E-02  0.1509646E+00
          2   -1    0    0  501    0  0.00000000000E+00  0.00000000000E+00  0.10829663853E+04  0.10829663853E+04  0.00000000000E+00 0.  1.
         -2   -1    0    0    0  501 -0.00000000000E+00 -0.00000000000E+00 -0.48694616764E+01  0.48694616764E+01  0.00000000000E+00 0.  1.
          2    1    1    2  502    0  0.20760649307E+02 -0.62787596666E+01  0.10581392518E+04  0.10583615183E+04  0.00000000000E+00 0.  1.
         -2    1    1    2    0  502 -0.20760649307E+02  0.62787596666E+01  0.19957671870E+02  0.29474328646E+02  0.00000000000E+00 0.  1.
</event>
<event>
 4    1  0.5847355E+003  0.2582073E+02  0.7546771E-02  0.1459828E+00
          2   -1    0    0  501    0  0.00000000000E+00  0.00000000000E+00  0.17066489118E+04  0.17066489118E+04  0.00000000000E+00 0. -1.
         -2   -1    0    0    0  501 -0.00000000000E+00 -0.00000000000E+00 -0.66404455203E+00  0.66404455203E+00  0.00000000000E+00 0. -1.
          2    1    1    2  502    0 -0.45896007761E+01 -0.25409559363E+02  0.14007341963E+04  0.14009721620E+04  0.00000000000E+00 0. -1.
         -2    1    1    2    0  502  0.45896007761E+01  0.25409559363E+02  0.30525067101E+03  0.30634079437E+03  0.00000000000E+00 0. -1.
</event>
<event>
 4    1  0.5847355E+003  0.2186183E+02  0.7546771E-02  0.1507307E+00
          2   -1    0    0  501    0  0.00000000000E+00  0.00000000000E+00  0.14890619137E+04  0.14890619137E+04  0.00000000000E+00 0.  1.
         -2   -1    0    0    0  501 -0.00000000000E+00 -0.00000000000E+00 -0.37208458197E+00  0.37208458197E+00  0.00000000000E+00 0.  1.
          2    1    1    2  502    0  0.11883635920E+02 -0.18349897971E+02  0.10203747879E+04  0.10206089590E+04  0.00000000000E+00 0.  1.
         -2    1    1    2    0  502 -0.11883635920E+02  0.18349897971E+02  0.46831504126E+03  0.46882503925E+03  0.00000000000E+00 0.  1.
</event>
<event>
 4    1  0.5847355E+003  0.2143453E+02  0.7546771E-02  0.1513150E+00
          2   -1    0    0  501    0  0.00000000000E+00  0.00000000000E+00  0.62296827347E+03  0.62296827347E+03  0.00000000000E+00 0. -1.
         -2   -1    0    0    0  501 -0.00000000000E+00 -0.00000000000E+00 -0.11264523630E+01  0.11264523630E+01  0.00000000000E+00 0. -1.
          2    1    1    2  502    0  0.19935538516E+02 -0.78748601691E+01  0.49428415869E+03  0.49474869242E+03  0.00000000000E+00 0. -1.
         -2    1    1    2    0  502 -0.19935538516E+02  0.78748601691E+01  0.12755766241E+03  0.12934603341E+03  0.00000000000E+00 0. -1.
</event>
<event>
 4    1  0.5847355E+003  0.2568265E+02  0.7546771E-02  0.1461310E+00
          2   -1    0    0  501    0  0.00000000000E+00  0.00000000000E+00  0.31952309116E+01  0.31952309116E+01  0.00000000000E+00 0. -1.
         -2   -1    0    0    0  501 -0.00000000000E+00 -0.00000000000E+00 -0.71208752121E+03  0.71208752121E+03  0.00000000000E+00 0. -1.
          2    1    1    2  502    0 -0.23561017224E+02 -0.10221396912E+02 -0.53070350507E+02  0.58958125736E+02  0.00000000000E+00 0. -1.
         -2    1    1    2    0  502  0.23561017224E+02  0.10221396912E+02 -0.65582193979E+03  0.65632462639E+03  0.00000000000E+00 0. -1.
</event>
<event>
 4    1  0.5847355E+003  0.2679434E+02  0.7546771E-02  0.1449685E+00
          2   -1    0    0  501    0  0.00000000000E+00  0.00000000000E+00  0.57850575830E+02  0.57850575830E+02  0.00000000000E+00 0.  1.
         -2   -1    0    0    0  501 -0.00000000000E+00 -0.00000000000E+00 -0.18152082633E+02  0.18152082633E+02  0.00000000000E+00 0. -1.
          2    1    1    2  502    0 -0.13297045168E+02 -0.23262100963E+02  0.41222125118E+02  0.49165031787E+02  0.00000000000E+00 0.  1.
         -2    1    1    2    0  502  0.13297045168E+02  0.23262100963E+02 -0.15236319210E+01  0.26837626676E+02  0.00000000000E+00 0. -1.
</event>
<event>
 4    1  0.5847355E+003  0.2146888E+02  0.7546771E-02  0.1512675E+00
          2   -1    0    0  501    0  0.00000000000E+00  0.00000000000E+00  0.12962527388E+02  0.12962527388E+02  0.00000000000E+00 0.  1.
         -2   -1    0    0    0  501 -0.00000000000E+00 -0.00000000000E+00 -0.70280318422E+02  0.70280318422E+02  0.00000000000E+00 0.  1.
          2    1    1    2  502    0  0.14291987577E+02 -0.16020364804E+02  0.59667329443E+00  0.21477174311E+02  0.00000000000E+00 0.  1.
         -2    1    1    2    0  502 -0.14291987577E+02  0.16020364804E+02 -0.57914464328E+02  0.61765671499E+02  0.00000000000E+00 0.  1.
</event>
<event>
 4    1  0.5847355E+003  0.3364149E+02  0.7546771E-02  0.1390374E+00
          2   -1    0    0  501    0  0.00000000000E+00  0.00000000000E+00  0.13977472421E+04  0.13977472421E+04  0.00000000000E+00 0. -1.
         -2   -1    0    0    0  501 -0.00000000000E+00 -0.00000000000E+00 -0.81011289816E+00  0.81011289816E+00  0.00000000000E+00 0. -1.
          2    1    1    2  502    0  0.31277545189E+02 -0.12388108054E+02  0.71433586551E+03  0.71512759617E+03  0.00000000000E+00 0. -1.
         -2    1    1    2    0  502 -0.31277545189E+02  0.12388108054E+02  0.68260126371E+03  0.68342975884E+03  0.00000000000E+00 0. -1.
</event>
<event>
 4    1  0.5847355E+003  0.2069545E+02  0.7546771E-02  0.1523658E+00
          2   -1    0    0  501    0  0.00000000000E+00  0.00000000000E+00  0.18057470007E+03  0.18057470007E+03  0.00000000000E+00 0.  1.
         -2   -1    0    0    0  501 -0.00000000000E+00 -0.00000000000E+00 -0.44232012701E+01  0.44232012701E+01  0.00000000000E+00 0.  1.
          2    1    1    2  502    0 -0.47906127413E+01  0.20133350615E+02  0.15106771288E+03  0.15247870557E+03  0.00000000000E+00 0.  1.
         -2    1    1    2    0  502  0.47906127413E+01 -0.20133350615E+02  0.25083785914E+02  0.32519195765E+02  0.00000000000E+00 0.  1.
</event>
<event>
 4    1  0.5847355E+003  0.2251601E+02  0.7546771E-02  0.1498667E+00
          2   -1    0    0  501    0  0.00000000000E+00  0.00000000000E+00  0.33592398464E+01  0.33592398464E+01  0.00000000000E+00 0.  1.
         -2   -1    0    0    0  501 -0.00000000000E+00 -0.00000000000E+00 -0.15127423798E+03  0.15127423798E+03  0.00000000000E+00 0. -1.
          2    1    1    2  502    0  0.20613378841E+02 -0.90586354902E+01 -0.77708692760E+02  0.80904951608E+02  0.00000000000E+00 0.  1.
         -2    1    1    2    0  502 -0.20613378841E+02  0.90586354902E+01 -0.70206305375E+02  0.73728526220E+02  0.00000000000E+00 0. -1.
</event>
<event>
 4    1  0.5847355E+003  0.4364133E+02  0.7546771E-02  0.1328375E+00
          2   -1    0    0  501    0  0.00000000000E+00  0.00000000000E+00  0.35609053787E+02  0.35609053787E+02  0.00000000000E+00 0. -1.
         -2   -1    0    0    0  501 -0.00000000000E+00 -0.00000000000E+00 -0.71020264440E+02  0.71020264440E+02  0.00000000000E+00 0. -1.
          2    1    1    2  502    0 -0.25378042108E+02  0.35503809838E+02  0.87858816362E+01  0.44516932176E+02  0.00000000000E+00 0. -1.
         -2    1    1    2    0  502  0.25378042108E+02 -0.35503809838E+02 -0.44197092289E+02  0.62112386051E+02  0.00000000000E+00 0. -1.
</event>
<event>
 4    1  0.5847355E+003  0.2009930E+02  0.7546771E-02  0.1532523E+00
          2   -1    0    0  501    0  0.00000000000E+00  0.00000000000E+00  0.10620137306E+04  0.10620137306E+04  0.00000000000E+00 0. -1.
         -2   -1    0    0    0  501 -0.00000000000E+00 -0.00000000000E+00 -0.35162648097E+03  0.35162648097E+03  0.00000000000E+00 0. -1.
          2    1    1    2  502    0  0.19216009354E+02  0.58929476006E+01  0.10616313054E+04  0.10618215530E+04  0.00000000000E+00 0. -1.
         -2    1    1    2    0  502 -0.19216009354E+02 -0.58929476006E+01 -0.35124405573E+03  0.35181865860E+03  0.00000000000E+00 0. -1.
</event>
<event>
 4    1  0.5847355E+003  0.2294031E+02  0.7546771E-02  0.1493249E+00
          2   -1    0    0  501    0  0.00000000000E+00  0.00000000000E+00  0.41590796896E+03  0.41590796896E+03  0.00000000000E+00 0.  1.
         -2   -1    0    0    0  501 -0.00000000000E+00 -0.00000000000E+00 -0.32058745371E+02  0.32058745371E+02  0.00000000000E+00 0. -1.
          2    1    1    2  502    0 -0.17357088499E+02 -0.14999646744E+02  0.41144328449E+03  0.41208231493E+03  0.00000000000E+00 0.  1.
         -2    1    1    2    0  502  0.17357088499E+02  0.14999646744E+02 -0.27594060901E+02  0.35884399404E+02  0.00000000000E+00 0. -1.
</event>
<event>
 4    1  0.5847355E+003  0.2386631E+02  0.7546771E-02  0.1481897E+00
          2   -1    0    0  501    0  0.00000000000E+00  0.00000000000E+00  0.94910042802E+02  0.94910042802E+02  0.00000000000E+00 0.  1.
         -2   -1    0    0    0  501 -0.00000000000E+00 -0.00000000000E+00 -0.35981283971E+02  0.35981283971E+02  0.00000000000E+00 0.  1.
          2    1    1    2  502    0 -0.14614258972E+02 -0.18868603164E+02  0.89203240448E+02  0.92340775702E+02  0.00000000000E+00 0.  1.
         -2    1    1    2    0  502  0.14614258972E+02  0.18868603164E+02 -0.30274481618E+02  0.38550551071E+02  0.00000000000E+00 0.  1.
</event>
<event>
 4    1  0.5847355E+003  0.3097068E+02  0.7546771E-02  0.1411344E+00
          2   -1    0    0  501    0  0.00000000000E+00  0.00000000000E+00  0.25884614622E+03  0.25884614622E+03  0.00000000000E+00 0. -1.
         -2   -1    0    0    0  501 -0.00000000000E+00 -0.00000000000E+00 -0.15710259767E+02  0.15710259767E+02  0.00000000000E+00 0.  1.
          2    1    1    2  502    0 -0.86201882967E+01  0.29746854836E+02  0.24156888074E+03  0.24354610890E+03  0.00000000000E+00 0. -1.
         -2    1    1    2    0  502  0.86201882967E+01 -0.29746854836E+02  0.15670057219E+01  0.31010297094E+02  0.00000000000E+00 0.  1.
</event>
<event>
 4    1  0.5847355E+003  0.2320102E+02  0.7546771E-02  0.1489989E+00
          2   -1    0    0  501    0  0.00000000000E+00  0.00000000000E+00  0.14122192857E+04  0.14122192857E+04  0.00000000000E+00 0. -1.
         -2   -1    0    0    0  501 -0.00000000000E+00 -0.00000000000E+00 -0.12101289814E+01  0.12101289814E+01  0.00000000000E+00 0. -1.
          2    1    1    2  502    0 -0.22879138365E+02 -0.38512502531E+01  0.12904244826E+04  0.12906330356E+04  0.00000000000E+00 0. -1.
         -2    1    1    2    0  502  0.22879138365E+02  0.38512502531E+01  0.12058467406E+03  0.12279637910E+03  0.00000000000E+00 0. -1.
</event>
<event>
 4    1  0.5847355E+003  0.2324157E+02  0.7546771E-02  0.1489487E+00
          2   -1    0    0  501    0  0.00000000000E+00  0.00000000000E+00  0.10247996995E+03  0.10247996995E+03  0.00000000000E+00 0.  1.
         -2   -1    0    0    0  501 -0.00000000000E+00 -0.00000000000E+00 -0.81999016710E+01  0.81999016710E+01  0.00000000000E+00 0. -1.
          2    1    1    2  502    0  0.11632403825E+02  0.20121076313E+02  0.80214110962E+02  0.83513317071E+02  0.00000000000E+00 0.  1.
         -2    1    1    2    0  502 -0.11632403825E+02 -0.20121076313E+02  0.14065957312E+02  0.27166554545E+02  0.00000000000E+00 0. -1.
</event>
<event>
 4    1  0.5847355E+003  0.2227789E+02  0.7546771E-02  0.1501770E+00
          2   -1    0    0  501    0  0.00000000000E+00  0.00000000000E+00  0.16531278891E+04  0.16531278891E+04  0.00000000000E+00 0. -1.
         -2   -1    0    0    0  501 -0.00000000000E+00 -0.00000000000E+00 -0.80658235834E+01  0.80658235834E+01  0.00000000000E+00 0. -1.
          2    1    1    2  502    0  0.25973171923E+01 -0.22125967323E+02  0.16375233054E+04  0.16376748396E+04  0.00000000000E+00 0. -1.
         -2    1    1    2    0  502 -0.25973171923E+01  0.22125967323E+02  0.75387600836E+01  0.23518873064E+02  0.00000000000E+00 0. -1.
</event>
<event>
 4    1  0.5847355E+003  0.3127338E+02  0.7546771E-02  0.1408844E+00
          2   -1    0    0  501    0  0.00000000000E+00  0.00000000000E+00  0.16306427418E+03  0.16306427418E+03  0.00000000000E+00 0.  1.
         -2   -1    0    0    0  501 -0.00000000000E+00 -0.00000000000E+00 -0.75668057731E+01  0.75668057731E+01  0.00000000000E+00 0.  1.
          2    1    1    2  502    0 -0.20604219547E+02 -0.23526376443E+02  0.11659831816E+03  0.12071947668E+03  0.00000000000E+00 0.  1.
         -2    1    1    2    0  502  0.20604219547E+02  0.23526376443E+02  0.38899150253E+02  0.49911603281E+02  0.00000000000E+00 0.  1.
</event>
<event>
 4    1  0.5847355E+003  0.2221706E+02  0.7546771E-02  0.1502571E+00
          2   -1    0    0  501    0  0.00000000000E+00  0.00000000000E+00  0.78331773149E+03  0.78331773149E+03  0.00000000000E+00 0. -1.
         -2   -1    0    0    0  501 -0.00000000000E+00 -0.00000000000E+00 -0.24475626217E+01  0.24475626217E+01  0.00000000000E+00 0. -1.
          2    1    1    2  502    0 -0.21506801052E+02 -0.55727271792E+01  0.72898617677E+03  0.72932464904E+03  0.00000000000E+00 0. -1.
         -2    1    1    2    0  502  0.21506801052E+02  0.55727271792E+01  0.51883992097E+02  0.56440645067E+02  0.00000000000E+00 0. -1.
</event>
<event>
 4    1  0.5847355E+003  0.2004871E+02  0.7546771E-02  0.1533292E+00
          2   -1    0    0  501    0  0.00000000000E+00  0.00000000000E+00  0.10780816991E+04  0.10780816991E+04  0.00000000000E+00 0. -1.
         -2   -1    0    0    0  501 -0.00000000000E+00 -0.00000000000E+00 -0.45349061513E+00  0.45349061513E+00  0.00000000000E+00 0. -1.
          2    1    1    2  502    0  0.18428461593E+02 -0.78957241011E+01  0.76623340661E+03  0.76649565169E+03  0.00000000000E+00 0. -1.
         -2    1    1    2    0  502 -0.18428461593E+02  0.78957241011E+01  0.31139480188E+03  0.31203953803E+03  0.00000000000E+00 0. -1.
</event>
<event>
 4    1  0.5847355E+003  0.2497222E+02  0.7546771E-02  0.1469114E+00
          2   -1    0    0  501    0  0.00000000000E+00  0.00000000000E+00  0.26893083593E+02  0.26893083593E+02  0.00000000000E+00 0.  1.
         -2   -1    0    0    0  501 -0.00000000000E+00 -0.00000000000E+00 -0.43831488292E+02  0.43831488292E+02  0.00000000000E+00 0.  1.
          2    1    1    2  502    0 -0.19148017119E+02 -0.16030138820E+02  0.15798734942E+02  0.29550159660E+02  0.00000000000E+00 0.  1.
         -2    1    1    2    0  502  0.19148017119E+02  0.16030138820E+02 -0.32737139641E+02  0.41174412225E+02  0.00000000000E+00 0.  1.
</event>
<event>
 4    1  0.5847355E+003  0.2661623E+02  0.7546771E-02  0.1451502E+00
          2   -1    0    0  501    0  0.00000000000E+00  0.00000000000E+00  0.12666451067E+04  0.12666451067E+04  0.00000000000E+00 0. -1.
         -2   -1    0    0    0  501 -0.00000000000E+00 -0.00000000000E+00 -0.29051476603E+02  0.29051476603E+02  0.00000000000E+00 0. -1.
          2    1    1    2  502    0 -0.27988237654E+01 -0.26468662364E+02  0.12603786996E+04  0.12606597043E+04  0.00000000000E+00 0. -1.
         -2    1    1    2    0  502  0.27988237654E+01  0.26468662364E+02 -0.22785069504E+02  0.35036879058E+02  0.00000000000E+00 0. -1.
</event>
<event>
 4    1  0.5847355E+003  0.2401458E+02  0.7546771E-02  0.1480136E+00
          2   -1    0    0  501    0  0.00000000000E+00  0.00000000000E+00  0.48288509936E+03  0.48288509936E+03  0.00000000000E+00 0.  1.
         -2   -1    0    0    0  501 -0.00000000000E+00 -0.00000000000E+00 -0.37052241596E+01  0.37052241596E+01  0.00000000000E+00 0. -1.
          2    1    1    2  502    0  0.40756044455E+01 -0.23666206465E+02  0.43987325704E+03  0.44052829891E+03  0.00000000000E+00 0.  1.
         -2    1    1    2    0  502 -0.40756044455E+01  0.23666206465E+02  0.39306618157E+02  0.46062024608E+02  0.00000000000E+00 0. -1.
</event>
<event>
 4    1  0.5847355E+003  0.3252030E+02  0.7546771E-02  0.1398888E+00
          2   -1    0    0  501    0  0.00000000000E+00  0.00000000000E+00  0.29596724552E+03  0.29596724552E+03  0.00000000000E+00 0.  1.
         -2   -1    0    0    0  501 -0.00000000000E+00 -0.00000000000E+00 -0.46396898284E+02  0.46396898284E+02  0.00000000000E+00 0.  1.
          2    1    1    2  502    0 -0.88867717926E+01  0.31282501298E+02  0.28924338275E+03  0.29106580710E+03  0.00000000000E+00 0.  1.
         -2    1    1    2    0  502  0.88867717926E+01 -0.31282501298E+02 -0.39673035520E+02  0.51298336695E+02  0.00000000000E+00 0.  1.
</event>
<event>
 4    1  0.5847355E+003  0.2807095E+02  0.7546771E-02  0.1437137E+00
          2   -1    0    0  501    0  0.00000000000E+00  0.00000000000E+00  0.46612785597E+03  0.46612785597E+03  0.00000000000E+00 0.  1.
         -2   -1    0    0    0  501 -0.00000000000E+00 -0.00000000000E+00 -0.73605968176E+02  0.73605968176E+02  0.00000000000E+00 0. -1.
          2    1    1    2  502    0  0.87899223373E+01 -0.26659251777E+02  0.46301089611E+03  0.46386104423E+03  0.00000000000E+00 0.  1.
         -2    1    1    2    0  502 -0.87899223373E+01  0.26659251777E+02 -0.70489008310E+02  0.75872779919E+02  0.00000000000E+00 0. -1.
</event>
<event>
 4    1  0.5847355E+003  0.2202053E+02  0.7546771E-02  0.1505178E+00
          2   -1    0    0  501    0  0.00000000000E+00  0.00000000000E+00  0.10968272833E+04  0.10968272833E+04  0.00000000000E+00 0. -1.
         -2   -1    0    0    0  501 -0.00000000000E+00 -0.00000000000E+00 -0.29014201887E+01  0.29014201887E+01  0.00000000000E+00 0. -1.
          2    1    1    2  502    0  0.18323051380E+02  0.12213503318E+02  0.10532048079E+04  0.10534349867E+04  0.00000000000E+00 0. -1.
         -2    1    1    2    0  502 -0.18323051380E+02 -0.12213503318E+02  0.40721055302E+02  0.46293716853E+02  0.00000000000E+00 0. -1.
</event>
<event>
 4    1  0.5847355E+003  0.2083251E+02  0.7546771E-02  0.1521670E+00
          2   -1    0    0  501    0  0.00000000000E+00  0.00000000000E+00  0.30450698069E+01  0.30450698069E+01  0.00000000000E+00 0. -1.
         -2   -1    0    0    0  501 -0.00000000000E+00 -0.00000000000E+00 -0.53056670141E+03  0.53056670141E+03  0.00000000000E+00 0. -1.
          2    1    1    2  502    0  0.15983439656E+02  0.13361250846E+02 -0.35587124864E+02  0.41236353179E+02  0.00000000000E+00 0. -1.
         -2    1    1    2    0  502 -0.15983439656E+02 -0.13361250846E+02 -0.49193450674E+03  0.49237541804E+03  0.00000000000E+00 0. -1.
</event>
<event>
 4    1  0.5847355E+003  0.2037838E+02  0.7546771E-02  0.1528328E+00
          2   -1    0    0  501    0  0.00000000000E+00  0.00000000000E+00  0.27553941323E+03  0.27553941323E+03  0.00000000000E+00 0.  1.
         -2   -1    0    0    0  501 -0.00000000000E+00 -0.00000000000E+00 -0.21088675357E+02  0.21088675357E+02  0.00000000000E+00 0.  1.
          2    1    1    2  502    0  0.80146457669E+01  0.18736161040E+02  0.27014139276E+03  0.27090893370E+03  0.00000000000E+00 0.  1.
         -2    1    1    2    0  502 -0.80146457669E+01 -0.18736161040E+02 -0.15690654886E+02  0.25719154886E+02  0.00000000000E+00 0.  1.
</event>
<event>
 4    1  0.5847355E+003  0.2312687E+02  0.7546771E-02  0.1490911E+00
          2   -1    0    0  501    0  0.00000000000E+00  0.00000000000E+00  0.16006222429E+04  0.16006222429E+04  0.00000000000E+00 0. -1.
         -2   -1    0    0    0  501 -0.00000000000E+00 -0.00000000000E+00 -0.79920040652E+00  0.79920040652E+00  0.00000000000E+00 0. -1.
          2    1    1    2  502    0 -0.17382083136E+02 -0.15255009683E+02  0.14107080795E+04  0.14108976354E+04  0.00000000000E+00 0. -1.
         -2    1    1    2    0  502  0.17382083136E+02  0.15255009683E+02  0.18911496305E+03  0.19052380792E+03  0.00000000000E+00 0. -1.
</event>
<event>
 4    1  0.5847355E+003  0.3013966E+02  0.7546771E-02  0.1418387E+00
          2   -1    0    0  501    0  0.00000000000E+00  0.00000000000E+00  0.85316115040E+03  0.85316115040E+03  0.00000000000E+00 0.  1.
         -2   -1    0    0    0  501 -0.00000000000E+00 -0.00000000000E+00 -0.93552826060E+02  0.93552826060E+02  0.00000000000E+00 0.  1.
          2    1    1    2  502    0  0.22510175544E+02 -0.20042226432E+02  0.85045975352E+03  0.85099364933E+03  0.00000000000E+00 0.  1.
         -2    1    1    2    0  502 -0.22510175544E+02  0.20042226432E+02 -0.90851429176E+02  0.95720327134E+02  0.00000000000E+00 0.  1.
</event>
<event>
 4    1  0.5847355E+003  0.4021566E+02  0.7546771E-02  0.1347227E+00
          2   -1    0    0  501    0  0.00000000000E+00  0.00000000000E+00  0.62180869920E+03  0.62180869920E+03  0.00000000000E+00 0. -1.
         -2   -1    0    0    0  501 -0.00000000000E+00 -0.00000000000E+00 -0.33815345392E+03  0.33815345392E+03  0.00000000000E+00 0.  1.
          2    1    1    2  502    0 -0.33145596518E+02  0.22774305308E+02  0.61995921130E+03  0.62126220167E+03  0.00000000000E+00 0. -1.
         -2    1    1    2    0  502  0.33145596518E+02 -0.22774305308E+02 -0.33630396602E+03  0.33869995145E+03  0.00000000000E+00 0.  1.
</event>
<event>
 4    1  0.5847355E+003  0.2230502E+02  0.7546771E-02  0.1501414E+00
          2   -1    0    0  501    0  0.00000000000E+00  0.00000000000E+00  0.31710658444E+03  0.31710658444E+03  0.00000000000E+00 0. -1.
         -2   -1    0    0    0  501 -0.00000000000E+00 -0.00000000000E+00 -0.56512712346E+01  0.56512712346E+01  0.00000000000E+00 0. -1.
          2    1    1    2  502    0  0.13459546770E+02 -0.17786357443E+02  0.29288816725E+03  0.29373626338E+03  0.00000000000E+00 0. -1.
         -2    1    1    2    0  502 -0.13459546770E+02  0.17786357443E+02  0.18567145959E+02  0.29021592296E+02  0.00000000000E+00 0. -1.
</event>
<event>
 4    1  0.5847355E+003  0.3154279E+02  0.7546771E-02  0.1406647E+00
          2   -1    0    0  501    0  0.00000000000E+00  0.00000000000E+00  0.43413790301E+02  0.43413790301E+02  0.00000000000E+00 0. -1.
         -2   -1    0    0    0  501 -0.00000000000E+00 -0.00000000000E+00 -0.24570419054E+03  0.24570419054E+03  0.00000000000E+00 0. -1.
          2    1    1    2  502    0 -0.31287275222E+02 -0.40067282919E+01  0.36507006640E+02  0.48246336609E+02  0.00000000000E+00 0. -1.
         -2    1    1    2    0  502  0.31287275222E+02  0.40067282919E+01 -0.23879740688E+03  0.24087164423E+03  0.00000000000E+00 0. -1.
</event>
<event>
 4    1  0.5847355E+003  0.2693871E+02  0.7546771E-02  0.1448225E+00
          2   -1    0    0  501    0  0.00000000000E+00  0.00000000000E+00  0.76192322601E+03  0.76192322601E+03  0.00000000000E+00 0. -1.
         -2   -1    0    0    0  501 -0.00000000000E+00 -0.00000000000E+00 -0.16788477966E+01  0.16788477966E+01  0.00000000000E+00 0. -1.
          2    1    1    2  502    0  0.22057185074E+02 -0.15465266840E+02  0.63126378801E+03  0.63183832105E+03  0.00000000000E+00 0. -1.
         -2    1    1    2    0  502 -0.22057185074E+02  0.15465266840E+02  0.12898059020E+03  0.13176375275E+03  0.00000000000E+00 0. -1.
</event>
<event>
 4    1  0.5847355E+003  0.2153072E+02  0.7546771E-02  0.1511821E+00
          2   -1    0    0  501    0  0.00000000000E+00  0.00000000000E+00  0.57288113813E+02  0.57288113813E+02  0.00000000000E+00 0. -1.
         -2   -1    0    0    0  501 -0.00000000000E+00 -0.00000000000E+00 -0.11169729810E+02  0.11169729810E+02  0.00000000000E+00 0. -1.
          2    1    1    2  502    0 -0.92188198921E+01  0.19457262168E+02  0.41026860212E+02  0.46333302819E+02  0.00000000000E+00 0. -1.
         -2    1    1    2    0  502  0.92188198921E+01 -0.19457262168E+02  0.50915237899E+01  0.22124540804E+02  0.00000000000E+00 0. -1.
</event>
<event>
 4    1  0.5847355E+003  0.3605550E+02  0.7546771E-02  0.1373291E+00
          2   -1    0    0  501    0  0.00000000000E+00  0.00000000000E+00  0.17219195271E+04  0.17219195271E+04  0.00000000000E+00 0.  1.
         -2   -1    0    0    0  501 -0.00000000000E+00 -0.00000000000E+00 -0.21192228411E+02  0.21192228411E+02  0.00000000000E+00 0. -1.
          2    1    1    2  502    0  0.22800587998E+02 -0.27930853046E+02  0.17062541971E+04  0.17066351059E+04  0.00000000000E+00 0.  1.
         -2    1    1    2    0  502 -0.22800587998E+02  0.27930853046E+02 -0.55268984130E+01  0.36476649668E+02  0.00000000000E+00 0. -1.
</event>
<event>
 4    1  0.5847355E+003  0.2095012E+02  0.7546771E-02  0.1519978E+00
          2   -1    0    0  501    0  0.00000000000E+00  0.00000000000E+00  0.81330536443E+03  0.81330536443E+03  0.00000000000E+00 0.  1.
         -2   -1    0    0    0  501 -0.00000000000E+00 -0.00000000000E+00 -0.61636424173E+00  0.61636424173E+00  0.00000000000E+00 0.  1.
          2    1    1    2  502    0  0.56734753849E+01  0.20167277286E+02  0.54990898606E+03  0.55030791412E+03  0.00000000000E+00 0.  1.
         -2    1    1    2    0  502 -0.56734753849E+01 -0.20167277286E+02  0.26278001413E+03  0.26361381455E+03  0.00000000000E+00 0.  1.
</event>
<event>
 4    1  0.5847355E+003  0.2888454E+02  0.7546771E-02  0.1429544E+00
          2   -1    0    0  501    0  0.00000000000E+00  0.00000000000E+00  0.22243378504E+03  0.22243378504E+03  0.00000000000E+00 0.  1.
         -2   -1    0    0    0  501 -0.00000000000E+00 -0.00000000000E+00 -0.23583862044E+02  0.23583862044E+02  0.00000000000E+00 0.  1.
          2    1    1    2  502    0  0.23484353857E+02  0.16816717958E+02  0.21222859397E+03  0.21418518384E+03  0.00000000000E+00 0.  1.
         -2    1    1    2    0  502 -0.23484353857E+02 -0.16816717958E+02 -0.13378670975E+02  0.31832463241E+02  0.00000000000E+00 0.  1.
</event>
<event>
 4    1  0.5847355E+003  0.2084822E+02  0.7546771E-02  0.1521443E+00
          2   -1    0    0  501    0  0.00000000000E+00  0.00000000000E+00  0.20473147933E+03  0.20473147933E+03  0.00000000000E+00 0.  1.
         -2   -1    0    0    0  501 -0.00000000000E+00 -0.00000000000E+00 -0.10807946027E+02  0.10807946027E+02  0.00000000000E+00 0. -1.
          2    1    1    2  502    0  0.20315802523E+02 -0.46815139608E+01  0.19356869616E+03  0.19468818284E+03  0.00000000000E+00 0.  1.
         -2    1    1    2    0  502 -0.20315802523E+02  0.46815139608E+01  0.35483714544E+00  0.20851242517E+02  0.00000000000E+00 0. -1.
</event>
<event>
 4    1  0.5847355E+003  0.2047797E+02  0.7546771E-02  0.1526850E+00
          2   -1    0    0  501    0  0.00000000000E+00  0.00000000000E+00  0.42047001020E+00  0.42047001020E+00  0.00000000000E+00 0.  1.
         -2   -1    0    0    0  501 -0.00000000000E+00 -0.00000000000E+00 -0.99894142318E+03  0.99894142318E+03  0.00000000000E+00 0.  1.
          2    1    1    2  502    0  0.10590531768E+02  0.17526771583E+02 -0.47918739271E+03  0.47962475376E+03  0.00000000000E+00 0.  1.
         -2    1    1    2    0  502 -0.10590531768E+02 -0.17526771583E+02 -0.51933356046E+03  0.51973713943E+03  0.00000000000E+00 0.  1.
</event>
<event>
 4    1  0.5847355E+003  0.2178220E+02  0.7546771E-02  0.1508384E+00
          2   -1    0    0  501    0  0.00000000000E+00  0.00000000000E+00  0.43143844758E+02  0.43143844758E+02  0.00000000000E+00 0. -1.
         -2   -1    0    0    0  501 -0.00000000000E+00 -0.00000000000E+00 -0.12829681652E+02  0.12829681652E+02  0.00000000000E+00 0. -1.
          2    1    1    2  502    0 -0.19532853264E+02  0.96401135388E+01  0.25733953715E+02  0.33714989537E+02  0.00000000000E+00 0. -1.
         -2    1    1    2    0  502  0.19532853264E+02 -0.96401135388E+01  0.45802093919E+01  0.22258536873E+02  0.00000000000E+00 0. -1.
</event>
<event>
 4    1  0.5847355E+003  0.2122857E+02  0.7546771E-02  0.1516026E+00
          2   -1    0    0  501    0  0.00000000000E+00  0.00000000000E+00  0.64330742808E+03  0.64330742808E+03  0.00000000000E+00 0. -1.
         -2   -1    0    0    0  501 -0.00000000000E+00 -0.00000000000E+00 -0.11889963142E+02  0.11889963142E+02  0.00000000000E+00 0.  1.
          2    1    1    2  502    0 -0.20478177881E+02 -0.55943021467E+01  0.63351033164E+03  0.63386591033E+03  0.00000000000E+00 0. -1.
         -2    1    1    2    0  502  0.20478177881E+02  0.55943021467E+01 -0.20928667036E+01  0.21331480888E+02  0.00000000000E+00 0.  1.
</event>
<event>
 4    1  0.5847355E+003  0.2825815E+02  0.7546771E-02  0.1435363E+00
          2   -1    0    0  501    0  0.00000000000E+00  0.00000000000E+00  0.13010114997E+04  0.13010114997E+04  0.00000000000E+00 0. -1.
         -2   -1    0    0    0  501 -0.00000000000E+00 -0.00000000000E+00 -0.15209589636E+01  0.15209589636E+01  0.00000000000E+00 0. -1.
          2    1    1    2  502    0 -0.13797536900E+01 -0.28224441824E+02  0.11527227080E+04  0.11530690198E+04  0.00000000000E+00 0. -1.
         -2    1    1    2    0  502  0.13797536900E+01  0.28224441824E+02  0.14676783266E+03  0.14946343881E+03  0.00000000000E+00 0. -1.
</event>
<event>
 4    1  0.5847355E+003  0.2145008E+02  0.7546771E-02  0.1512935E+00
          2   -1    0    0  501    0  0.00000000000E+00  0.00000000000E+00  0.16644765841E+03  0.16644765841E+03  0.00000000000E+00 0. -1.
         -2   -1    0    0    0  501 -0.00000000000E+00 -0.00000000000E+00 -0.69016342680E+01  0.69016342680E+01  0.00000000000E+00 0. -1.
          2    1    1    2  502    0 -0.16525460865E+02  0.13675350990E+02  0.14688159159E+03  0.14843957704E+03  0.00000000000E+00 0. -1.
         -2    1    1    2    0  502  0.16525460865E+02 -0.13675350990E+02  0.12664432545E+02  0.24909715638E+02  0.00000000000E+00 0. -1.
</event>
<event>
 4    1  0.5847355E+003  0.3450337E+02  0.7546771E-02  0.1384089E+00
          2   -1    0    0  501    0  0.00000000000E+00  0.00000000000E+00  0.81463172276E+01  0.81463172276E+01  0.00000000000E+00 0.  1.
         -2   -1    0    0    0  501 -0.00000000000E+00 -0.00000000000E+00 -0.15663550982E+03  0.15663550982E+03  0.00000000000E+00 0.  1.
          2    1    1    2  502    0 -0.85700212593E+01 -0.33422111787E+02 -0.52914799862E+02  0.63170078876E+02  0.00000000000E+00 0.  1.
         -2    1    1    2    0  502  0.85700212593E+01  0.33422111787E+02 -0.95574392727E+02  0.10161174817E+03  0.00000000000E+00 0.  1.
</event>
<event>
 4    1  0.5847355E+003  0.3764916E+02  0.7546771E-02  0.1362841E+00
          2   -1    0    0  501    0  0.00000000000E+00  0.00000000000E+00  0.19488353577E+03  0.19488353577E+03  0.00000000000E+00 0.  1.
         -2   -1    0    0    0  501 -0.00000000000E+00 -0.00000000000E+00 -0.81395145765E+01  0.81395145765E+01  0.00000000000E+00 0. -1.
          2    1    1    2  502    0  0.56135369931E+01 -0.37228315003E+02  0.12648606512E+03  0.13197039026E+03  0.00000000000E+00 0.  1.
         -2    1    1    2    0  502 -0.56135369931E+01  0.37228315003E+02  0.60257956081E+02  0.71052660095E+02  0.00000000000E+00 0. -1.
</event>
<event>
 4    1  0.5847355E+003  0.2043421E+02  0.7546771E-02  0.1527498E+00
          2   -1    0    0  501    0  0.00000000000E+00  0.00000000000E+00  0.58580189080E+03  0.58580189080E+03  0.00000000000E+00 0.  1.
         -2   -1    0    0    0  501 -0.00000000000E+00 -0.00000000000E+00 -0.12610395805E+01  0.12610395805E+01  0.00000000000E+00 0.  1.
          2    1    1    2  502    0  0.63113636465E+01 -0.19435113256E+02  0.48581334515E+03  0.48624290562E+03  0.00000000000E+00 0.  1.
         -2    1    1    2    0  502 -0.63113636465E+01  0.19435113256E+02  0.98727506072E+02  0.10082002476E+03  0.00000000000E+00 0.  1.
</event>
<event>
 4    1  0.5847355E+003  0.3879750E+02  0.7546771E-02  0.1355680E+00
          2   -1    0    0  501    0  0.00000000000E+00  0.00000000000E+00  0.10518263545E+04  0.10518263545E+04  0.00000000000E+00 0.  1.
         -2   -1    0    0    0  501 -0.00000000000E+00 -0.00000000000E+00 -0.15085729049E+01  0.15085729049E+01  0.00000000000E+00 0.  1.
          2    1    1    2  502    0  0.37843149012E+02  0.85522974542E+01  0.64452731985E+03  0.64569397686E+03  0.00000000000E+00 0.  1.
         -2    1    1    2    0  502 -0.37843149012E+02 -0.85522974542E+01  0.40579046176E+03  0.40764095056E+03  0.00000000000E+00 0.  1.
</event>
<event>
 4    1  0.5847355E+003  0.2173812E+02  0.7546771E-02  0.1508982E+00
          2   -1    0    0  501    0  0.00000000000E+00  0.00000000000E+00  0.72574510427E+03  0.72574510427E+03  0.00000000000E+00 0. -1.
         -2   -1    0    0    0  501 -0.00000000000E+00 -0.00000000000E+00 -0.24045101326E+03  0.24045101326E+03  0.00000000000E+00 0.  1.
          2    1    1    2  502    0 -0.21737912489E+02  0.94798991272E-01  0.72509056937E+03  0.72541634915E+03  0.00000000000E+00 0. -1.
         -2    1    1    2    0  502  0.21737912489E+02 -0.94798991272E-01 -0.23979647836E+03  0.24077976838E+03  0.00000000000E+00 0.  1.
</event>
<event>
 4    1  0.5847355E+003  0.2370263E+02  0.7546771E-02  0.1483859E+00
          2   -1    0    0  501    0  0.00000000000E+00  0.00000000000E+00  0.22727787320E+03  0.22727787320E+03  0.00000000000E+00 0.  1.
         -2   -1    0    0    0  501 -0.00000000000E+00 -0.00000000000E+00 -0.52082355897E+01  0.52082355897E+01  0.00000000000E+00 0.  1.
          2    1    1    2  502    0 -0.22723821141E+02  0.67410989933E+01  0.19529146853E+03  0.19672460991E+03  0.00000000000E+00 0.  1.
         -2    1    1    2    0  502  0.22723821141E+02 -0.67410989933E+01  0.26778169076E+02  0.35761498878E+02  0.00000000000E+00 0.  1.
</event>
<event>
 4    1  0.5847355E+003  0.2402239E+02  0.7546771E-02  0.1480044E+00
          2   -1    0    0  501    0  0.00000000000E+00  0.00000000000E+00  0.77095806793E+02  0.77095806793E+02  0.00000000000E+00 0.  1.
         -2   -1    0    0    0  501 -0.00000000000E+00 -0.00000000000E+00 -0.87672909667E+03  0.87672909667E+03  0.00000000000E+00 0. -1.
          2    1    1    2  502    0  0.24020431762E+02 -0.30638589888E+00  0.75055597600E+02  0.78806203725E+02  0.00000000000E+00 0.  1.
         -2    1    1    2    0  502 -0.24020431762E+02  0.30638589888E+00 -0.87468888747E+03  0.87501869973E+03  0.00000000000E+00 0. -1.
</event>
<event>
 4    1  0.5847355E+003  0.2342328E+02  0.7546771E-02  0.1487250E+00
          2   -1    0    0  501    0  0.00000000000E+00  0.00000000000E+00  0.15950388492E+04  0.15950388492E+04  0.00000000000E+00 0. -1.
         -2   -1    0    0    0  501 -0.00000000000E+00 -0.00000000000E+00 -0.14821158203E+01  0.14821158203E+01  0.00000000000E+00 0. -1.
          2    1    1    2  502    0  0.10771735051E+02  0.20799514758E+02  0.14963013131E+04  0.14964846373E+04  0.00000000000E+00 0. -1.
         -2    1    1    2    0  502 -0.10771735051E+02 -0.20799514758E+02  0.97255420313E+02  0.10003632775E+03  0.00000000000E+00 0. -1.
</event>
<event>
 4    1  0.5847355E+003  0.2198161E+02  0.7546771E-02  0.1505698E+00
          2   -1    0    0  501    0  0.00000000000E+00  0.00000000000E+00  0.14368321093E+03  0.14368321093E+03  0.00000000000E+00 0. -1.
         -2   -1    0    0    0  501 -0.00000000000E+00 -0.00000000000E+00 -0.18418578165E+02  0.18418578165E+02  0.00000000000E+00 0.  1.
          2    1    1    2  502    0  0.98099466226E+01 -0.19671205065E+02  0.13591139739E+03  0.13767751923E+03  0.00000000000E+00 0. -1.
         -2    1    1    2    0  502 -0.98099466226E+01  0.19671205065E+02 -0.10646764624E+02  0.24424269865E+02  0.00000000000E+00 0.  1.
</event>
<event>
 4    1  0.5847355E+003  0.3748276E+02  0.7546771E-02  0.1363903E+00
          2   -1    0    0  501    0  0.00000000000E+00  0.00000000000E+00  0.83886226152E+03  0.83886226152E+03  0.00000000000E+00 0.  1.
         -2   -1    0    0    0  501 -0.00000000000E+00 -0.00000000000E+00 -0.20031504213E+01  0.20031504213E+01  0.00000000000E+00 0.  1.
          2    1    1    2  502    0  0.23504689278E+02 -0.29197373084E+02  0.58863931430E+03  0.58983150081E+03  0.00000000000E+00 0.  1.
         -2    1    1    2    0  502 -0.23504689278E+02  0.29197373084E+02  0.24821979680E+03  0.25103391113E+03  0.00000000000E+00 0.  1.
</event>
<event>
 4    1  0.5847355E+003  0.2111628E+02  0.7546771E-02  0.1517611E+00
          2   -1    0    0  501    0  0.00000000000E+00  0.00000000000E+00  0.18960228950E+04  0.18960228950E+04  0.00000000000E+00 0.  1.
         -2   -1    0    0    0  501 -0.00000000000E+00 -0.00000000000E+00 -0.25868700974E+00  0.25868700974E+00  0.00000000000E+00 0.  1.
          2    1    1    2  502    0  0.13867023448E+02 -0.15924920358E+02  0.12337261904E+04  0.12339068888E+04  0.00000000000E+00 0.  1.
         -2    1    1    2    0  502 -0.13867023448E+02  0.15924920358E+02  0.66203801764E+03  0.66237469323E+03  0.00000000000E+00 0.  1.
</event>
<event>
 4    1  0.5847355E+003  0.4655050E+02  0.7546771E-02  0.1313863E+00
          2   -1    0    0  501    0  0.00000000000E+00  0.00000000000E+00  0.10033839787E+04  0.10033839787E+04  0.00000000000E+00 0.  1.
         -2   -1    0    0    0  501 -0.00000000000E+00 -0.00000000000E+00 -0.58875429801E+02  0.58875429801E+02  0.00000000000E+00 0.  1.
          2    1    1    2  502    0 -0.37268713370E+02  0.27892510895E+02  0.99355164435E+03  0.99464155309E+03  0.00000000000E+00 0.  1.
         -2    1    1    2    0  502  0.37268713370E+02 -0.27892510895E+02 -0.49043095440E+02  0.67617855413E+02  0.00000000000E+00 0.  1.
</event>
<event>
 4    1  0.5847355E+003  0.7731522E+02  0.7546771E-02  0.1210221E+00
          2   -1    0    0  501    0  0.00000000000E+00  0.00000000000E+00  0.20727561715E+04  0.20727561715E+04  0.00000000000E+00 0.  1.
         -2   -1    0    0    0  501 -0.00000000000E+00 -0.00000000000E+00 -0.35321430108E+02  0.35321430108E+02  0.00000000000E+00 0.  1.
          2    1    1    2  502    0  0.67572493832E+02  0.37571290484E+02  0.20288101717E+04  0.20302828268E+04  0.00000000000E+00 0.  1.
         -2    1    1    2    0  502 -0.67572493832E+02 -0.37571290484E+02  0.86245696775E+01  0.77794774846E+02  0.00000000000E+00 0.  1.
</event>
<event>
 4    1  0.5847355E+003  0.2077925E+02  0.7546771E-02  0.1522440E+00
          2   -1    0    0  501    0  0.00000000000E+00  0.00000000000E+00  0.13298866280E+02  0.13298866280E+02  0.00000000000E+00 0.  1.
         -2   -1    0    0    0  501 -0.00000000000E+00 -0.00000000000E+00 -0.35234004692E+03  0.35234004692E+03  0.00000000000E+00 0. -1.
          2    1    1    2  502    0  0.11824017898E+02 -0.17087130010E+02  0.46721591584E+01  0.21298039404E+02  0.00000000000E+00 0.  1.
         -2    1    1    2    0  502 -0.11824017898E+02  0.17087130010E+02 -0.34371333979E+03  0.34434087379E+03  0.00000000000E+00 0. -1.
</event>
<event>
 4    1  0.5847355E+003  0.5566027E+02  0.7546771E-02  0.1275336E+00
          2   -1    0    0  501    0  0.00000000000E+00  0.00000000000E+00  0.89108006062E+03  0.89108006062E+03  0.00000000000E+00 0.  1.
         -2   -1    0    0    0  501 -0.00000000000E+00 -0.00000000000E+00 -0.76215980312E+01  0.76215980312E+01  0.00000000000E+00 0. -1.
          2    1    1    2  502    0  0.55438052367E+02  0.49687149788E+01  0.77310187050E+03  0.77510294022E+03  0.00000000000E+00 0.  1.
         -2    1    1    2    0  502 -0.55438052367E+02 -0.49687149788E+01  0.11035659210E+03  0.12359871843E+03  0.00000000000E+00 0. -1.
</event>
<event>
 4    1  0.5847355E+003  0.2023151E+02  0.7546771E-02  0.1530526E+00
          2   -1    0    0  501    0  0.00000000000E+00  0.00000000000E+00  0.18530297019E+02  0.18530297019E+02  0.00000000000E+00 0.  1.
         -2   -1    0    0    0  501 -0.00000000000E+00 -0.00000000000E+00 -0.27438883734E+02  0.27438883734E+02  0.00000000000E+00 0.  1.
          2    1    1    2  502    0 -0.82509456906E+01 -0.18472574773E+02  0.56948465933E+01  0.21017740155E+02  0.00000000000E+00 0.  1.
         -2    1    1    2    0  502  0.82509456906E+01  0.18472574773E+02 -0.14603433308E+02  0.24951440598E+02  0.00000000000E+00 0.  1.
</event>
<event>
 4    1  0.5847355E+003  0.3051328E+02  0.7546771E-02  0.1415187E+00
          2   -1    0    0  501    0  0.00000000000E+00  0.00000000000E+00  0.67882205000E+03  0.67882205000E+03  0.00000000000E+00 0.  1.
         -2   -1    0    0    0  501 -0.00000000000E+00 -0.00000000000E+00 -0.23904780102E+01  0.23904780102E+01  0.00000000000E+00 0. -1.
          2    1    1    2  502    0 -0.47289970658E+01 -0.30144600861E+02  0.56058522501E+03  0.56141504689E+03  0.00000000000E+00 0.  1.
         -2    1    1    2    0  502  0.47289970658E+01  0.30144600861E+02  0.11584634698E+03  0.11979748112E+03  0.00000000000E+00 0. -1.
</event>
<event>
 4    1  0.5847355E+003  0.2618322E+02  0.7546771E-02  0.1455990E+00
          2   -1    0    0  501    0  0.00000000000E+00  0.00000000000E+00  0.31445095962E+03  0.31445095962E+03  0.00000000000E+00 0. -1.
         -2   -1    0    0    0  501 -0.00000000000E+00 -0.00000000000E+00 -0.12569586717E+03  0.12569586717E+03  0.00000000000E+00 0.  1.
          2    1    1    2  502    0  0.25751766911E+02 -0.47336546103E+01  0.31253403373E+03  0.31362889411E+03  0.00000000000E+00 0. -1.
         -2    1    1    2    0  502 -0.25751766911E+02  0.47336546103E+01 -0.12377894128E+03  0.12651793268E+03  0.00000000000E+00 0.  1.
</event>
<event>
 4    1  0.5847355E+003  0.2086705E+02  0.7546771E-02  0.1521171E+00
          2   -1    0    0  501    0  0.00000000000E+00  0.00000000000E+00  0.66838891524E+03  0.66838891524E+03  0.00000000000E+00 0. -1.
         -2   -1    0    0    0  501 -0.00000000000E+00 -0.00000000000E+00 -0.26219518465E+01  0.26219518465E+01  0.00000000000E+00 0.  1.
          2    1    1    2  502    0 -0.19283579434E+02  0.79735487545E+01  0.62373655293E+03  0.62408550807E+03  0.00000000000E+00 0. -1.
         -2    1    1    2    0  502  0.19283579434E+02 -0.79735487545E+01  0.42030410458E+02  0.46925359016E+02  0.00000000000E+00 0.  1.
</event>
<event>
 4    1  0.5847355E+003  0.2788727E+02  0.7546771E-02  0.1438893E+00
          2   -1    0    0  501    0  0.00000000000E+00  0.00000000000E+00  0.32024961800E+02  0.32024961800E+02  0.00000000000E+00 0.  1.
         -2   -1    0    0    0  501 -0.00000000000E+00 -0.00000000000E+00 -0.46365660858E+02  0.46365660858E+02  0.00000000000E+00 0.  1.
          2    1    1    2  502    0  0.16905734930E+01  0.27835975592E+02  0.19878581080E+02  0.34247008069E+02  0.00000000000E+00 0.  1.
         -2    1    1    2    0  502 -0.16905734930E+01 -0.27835975592E+02 -0.34219280138E+02  0.44143614590E+02  0.00000000000E+00 0.  1.
</event>
<event>
 4    1  0.5847355E+003  0.2881953E+02  0.7546771E-02  0.1430140E+00
          2   -1    0    0  501    0  0.00000000000E+00  0.00000000000E+00  0.10879620531E+02  0.10879620531E+02  0.00000000000E+00 0. -1.
         -2   -1    0    0    0  501 -0.00000000000E+00 -0.00000000000E+00 -0.25538580379E+03  0.25538580379E+03  0.00000000000E+00 0. -1.
          2    1    1    2  502    0 -0.20063202100E+02 -0.20688968662E+02 -0.10780839757E+02  0.30769985517E+02  0.00000000000E+00 0. -1.
         -2    1    1    2    0  502  0.20063202100E+02  0.20688968662E+02 -0.23372534350E+03  0.23549543881E+03  0.00000000000E+00 0. -1.
</event>
<event>
 4    1  0.5847355E+003  0.2075791E+02  0.7546771E-02  0.1522749E+00
          2   -1    0    0  501    0  0.00000000000E+00  0.00000000000E+00  0.10638905326E+03  0.10638905326E+03  0.00000000000E+00 0. -1.
         -2   -1    0    0    0  501 -0.00000000000E+00 -0.00000000000E+00 -0.64296513666E+02  0.64296513666E+02  0.00000000000E+00 0. -1.
          2    1    1    2  502    0  0.15608369427E+02 -0.13684651449E+02  0.10365739462E+03  0.10571540257E+03  0.00000000000E+00 0. -1.
         -2    1    1    2    0  502 -0.15608369427E+02  0.13684651449E+02 -0.61564855028E+02  0.64970164353E+02  0.00000000000E+00 0. -1.
</event>
<event>
 4    1  0.5847355E+003  0.2387536E+02  0.7546771E-02  0.1481789E+00
          2   -1    0    0  501    0  0.00000000000E+00  0.00000000000E+00  0.46867748732E+02  0.46867748732E+02  0.00000000000E+00 0. -1.
         -2   -1    0    0    0  501 -0.00000000000E+00 -0.00000000000E+00 -0.49582873192E+03  0.49582873192E+03  0.00000000000E+00 0. -1.
          2    1    1    2  502    0 -0.92759346360E+01  0.21999765258E+02  0.43519026861E+02  0.49638073429E+02  0.00000000000E+00 0. -1.
         -2    1    1    2    0  502  0.92759346360E+01 -0.21999765258E+02 -0.49248001005E+03  0.49305840722E+03  0.00000000000E+00 0. -1.
</event>
<event>
 4    1  0.5847355E+003  0.4739576E+02  0.7546771E-02  0.1309876E+00
          2   -1    0    0  501    0  0.00000000000E+00  0.00000000000E+00  0.54266715845E+01  0.54266715845E+01  0.00000000000E+00 0. -1.
         -2   -1    0    0    0  501 -0.00000000000E+00 -0.00000000000E+00 -0.62835973944E+03  0.62835973944E+03  0.00000000000E+00 0. -1.
          2    1    1    2  502    0  0.27056639106E+02 -0.38913956938E+02 -0.12635502487E+03  0.13495165828E+03  0.00000000000E+00 0. -1.
         -2    1    1    2    0  502 -0.27056639106E+02  0.38913956938E+02 -0.49657804299E+03  0.49883475274E+03  0.00000000000E+00 0. -1.
</event>
<event>
 4    1  0.5847355E+003  0.2290937E+02  0.7546771E-02  0.1493639E+00
          2   -1    0    0  501    0  0.00000000000E+00  0.00000000000E+00  0.83562427862E+03  0.83562427862E+03  0.00000000000E+00 0.  1.
         -2   -1    0    0    0  501 -0.00000000000E+00 -0.00000000000E+00 -0.26344012023E+02  0.26344012023E+02  0.00000000000E+00 0. -1.
          2    1    1    2  502    0 -0.93473890755E+01  0.20915677546E+02  0.83045563427E+03  0.83077156893E+03  0.00000000000E+00 0.  1.
         -2    1    1    2    0  502  0.93473890755E+01 -0.20915677546E+02 -0.21175367671E+02  0.31196721715E+02  0.00000000000E+00 0. -1.
</event>
<event>
 4    1  0.5847355E+003  0.6726293E+02  0.7546771E-02  0.1236970E+00
          2   -1    0    0  501    0  0.00000000000E+00  0.00000000000E+00  0.84287528330E+03  0.84287528330E+03  0.00000000000E+00 0. -1.
         -2   -1    0    0    0  501 -0.00000000000E+00 -0.00000000000E+00 -0.54033227625E+01  0.54033227625E+01  0.00000000000E+00 0.  1.
          2    1    1    2  502    0 -0.72924094093E+01 -0.66866450196E+02  0.45317444252E+03  0.45813903648E+03  0.00000000000E+00 0. -1.
         -2    1    1    2    0  502  0.72924094093E+01  0.66866450196E+02  0.38429751802E+03  0.39013956958E+03  0.00000000000E+00 0.  1.
</event>
<event>
 4    1  0.5847355E+003  0.4263231E+02  0.7546771E-02  0.1333715E+00
          2   -1    0    0  501    0  0.00000000000E+00  0.00000000000E+00  0.67558903876E+03  0.67558903876E+03  0.00000000000E+00 0. -1.
         -2   -1    0    0    0  501 -0.00000000000E+00 -0.00000000000E+00 -0.30762710780E+01  0.30762710780E+01  0.00000000000E+00 0. -1.
          2    1    1    2  502    0  0.30250292022E+02  0.30040508457E+02  0.21605445155E+03  0.22022043128E+03  0.00000000000E+00 0. -1.
         -2    1    1    2    0  502 -0.30250292022E+02 -0.30040508457E+02  0.45645831613E+03  0.45844487856E+03  0.00000000000E+00 0. -1.
</event>
<event>
 4    1  0.5847355E+003  0.3208350E+02  0.7546771E-02  0.1402315E+00
          2   -1    0    0  501    0  0.00000000000E+00  0.00000000000E+00  0.57441931136E+03  0.57441931136E+03  0.00000000000E+00 0. -1.
         -2   -1    0    0    0  501 -0.00000000000E+00 -0.00000000000E+00 -0.50934891319E+01  0.50934891319E+01  0.00000000000E+00 0. -1.
          2    1    1    2  502    0 -0.88240299101E+00 -0.32071368096E+02  0.51794490110E+03  0.51893763774E+03  0.00000000000E+00 0. -1.
         -2    1    1    2    0  502  0.88240299101E+00  0.32071368096E+02  0.51380921129E+02  0.60575162754E+02  0.00000000000E+00 0. -1.
</event>
<event>
 4    1  0.5847355E+003  0.2048621E+02  0.7546771E-02  0.1526728E+00
          2   -1    0    0  501    0  0.00000000000E+00  0.00000000000E+00  0.64472947384E+03  0.64472947384E+03  0.00000000000E+00 0. -1.
         -2   -1    0    0    0  501 -0.00000000000E+00 -0.00000000000E+00 -0.35158882167E+01  0.35158882167E+01  0.00000000000E+00 0. -1.
          2    1    1    2  502    0  0.15004874632E+02 -0.13947704802E+02  0.61319023780E+03  0.61353235650E+03  0.00000000000E+00 0. -1.
         -2    1    1    2    0  502 -0.15004874632E+02  0.13947704802E+02  0.28023347824E+02  0.34713005563E+02  0.00000000000E+00 0. -1.
</event>
<event>
 4    1  0.5847355E+003  0.2789395E+02  0.7546771E-02  0.1438829E+00
          2   -1    0    0  501    0  0.00000000000E+00  0.00000000000E+00  0.23275512753E+02  0.23275512753E+02  0.00000000000E+00 0. -1.
         -2   -1    0    0    0  501 -0.00000000000E+00 -0.00000000000E+00 -0.15822709638E+03  0.15822709638E+03  0.00000000000E+00 0. -1.
          2    1    1    2  502    0 -0.26716186381E+02  0.80198444804E+01  0.13120817514E+02  0.30825774483E+02  0.00000000000E+00 0. -1.
         -2    1    1    2    0  502  0.26716186381E+02 -0.80198444804E+01 -0.14807240114E+03  0.15067683465E+03  0.00000000000E+00 0. -1.
</event>
<event>
 4    1  0.5847355E+003  0.2113453E+02  0.7546771E-02  0.1517353E+00
          2   -1    0    0  501    0  0.00000000000E+00  0.00000000000E+00  0.13595651433E+02  0.13595651433E+02  0.00000000000E+00 0.  1.
         -2   -1    0    0    0  501 -0.00000000000E+00 -0.00000000000E+00 -0.96980422304E+02  0.96980422304E+02  0.00000000000E+00 0.  1.
          2    1    1    2  502    0 -0.19729670877E+02  0.75768399666E+01  0.32657628487E+01  0.21385360034E+02  0.00000000000E+00 0.  1.
         -2    1    1    2    0  502  0.19729670877E+02 -0.75768399666E+01 -0.86650533720E+02  0.89190713703E+02  0.00000000000E+00 0.  1.
</event>
<event>
 4    1  0.5847355E+003  0.2325121E+02  0.7546771E-02  0.1489368E+00
          2   -1    0    0  501    0  0.00000000000E+00  0.00000000000E+00  0.12154839590E+04  0.12154839590E+04  0.00000000000E+00 0.  1.
         -2   -1    0    0    0  501 -0.00000000000E+00 -0.00000000000E+00 -0.39036684362E+01  0.39036684362E+01  0.00000000000E+00 0. -1.
          2    1    1    2  502    0 -0.92927402949E+01  0.21313464543E+02  0.11797001809E+04  0.11799292927E+04  0.00000000000E+00 0.  1.
         -2    1    1    2    0  502  0.92927402949E+01 -0.21313464543E+02  0.31880109637E+02  0.39458334779E+02  0.00000000000E+00 0. -1.
</event>
<event>
 4    1  0.5847355E+003  0.2002290E+02  0.7546771E-02  0.1533686E+00
          2   -1    0    0  501    0  0.00000000000E+00  0.00000000000E+00  0.11133784902E+03  0.11133784902E+03  0.00000000000E+00 0. -1.
         -2   -1    0    0    0  501 -0.00000000000E+00 -0.00000000000E+00 -0.65249906347E+01  0.65249906347E+01  0.00000000000E+00 0. -1.
          2    1    1    2  502    0 -0.18760789856E+02 -0.69963627449E+01  0.91856924645E+02  0.94013886916E+02  0.00000000000E+00 0. -1.
         -2    1    1    2    0  502  0.18760789856E+02  0.69963627449E+01  0.12955933741E+02  0.23848952740E+02  0.00000000000E+00 0. -1.
</event>
<event>
 4    1  0.5847355E+003  0.2637052E+02  0.7546771E-02  0.1454036E+00
          2   -1    0    0  501    0  0.00000000000E+00  0.00000000000E+00  0.15065118856E+02  0.15065118856E+02  0.00000000000E+00 0.  1.
         -2   -1    0    0    0  501 -0.00000000000E+00 -0.00000000000E+00 -0.47901536104E+02  0.47901536104E+02  0.00000000000E+00 0. -1.
          2    1    1    2  502    0  0.26116980971E+02  0.36478567805E+01 -0.22421528019E+02  0.34613992443E+02  0.00000000000E+00 0.  1.
         -2    1    1    2    0  502 -0.26116980971E+02 -0.36478567805E+01 -0.10414889228E+02  0.28352662516E+02  0.00000000000E+00 0. -1.
</event>
<event>
 4    1  0.5847355E+003  0.3340907E+02  0.7546771E-02  0.1392107E+00
          2   -1    0    0  501    0  0.00000000000E+00  0.00000000000E+00  0.18022010739E+04  0.18022010739E+04  0.00000000000E+00 0.  1.
         -2   -1    0    0    0  501 -0.00000000000E+00 -0.00000000000E+00 -0.41113139789E+01  0.41113139789E+01  0.00000000000E+00 0. -1.
          2    1    1    2  502    0 -0.26760270533E+02  0.20001338639E+02  0.17313994578E+04  0.17317217583E+04  0.00000000000E+00 0.  1.
         -2    1    1    2    0  502  0.26760270533E+02 -0.20001338639E+02  0.66690302071E+02  0.74590629550E+02  0.00000000000E+00 0. -1.
</event>
<event>
 4    1  0.5847355E+003  0.2432934E+02  0.7546771E-02  0.1476448E+00
          2   -1    0    0  501    0  0.00000000000E+00  0.00000000000E+00  0.17868207862E+02  0.17868207862E+02  0.00000000000E+00 0. -1.
         -2   -1    0    0    0  501 -0.00000000000E+00 -0.00000000000E+00 -0.59554957983E+02  0.59554957983E+02  0.00000000000E+00 0. -1.
          2    1    1    2  502    0 -0.19504362288E+02 -0.14542921126E+02  0.49444873656E+01  0.24826692459E+02  0.00000000000E+00 0. -1.
         -2    1    1    2    0  502  0.19504362288E+02  0.14542921126E+02 -0.46631237486E+02  0.52596473386E+02  0.00000000000E+00 0. -1.
</event>
<event>
 4    1  0.5847355E+003  0.2145136E+02  0.7546771E-02  0.1512917E+00
          2   -1    0    0  501    0  0.00000000000E+00  0.00000000000E+00  0.28180154014E+03  0.28180154014E+03  0.00000000000E+00 0.  1.
         -2   -1    0    0    0  501 -0.00000000000E+00 -0.00000000000E+00 -0.17966201505E+01  0.17966201505E+01  0.00000000000E+00 0.  1.
          2    1    1    2  502    0  0.12056838438E+02 -0.17742415335E+02  0.18280443166E+03  0.18405874304E+03  0.00000000000E+00 0.  1.
         -2    1    1    2    0  502 -0.12056838438E+02  0.17742415335E+02  0.97200488326E+02  0.99539417247E+02  0.00000000000E+00 0.  1.
</event>
<event>
 4    1  0.5847355E+003  0.2022862E+02  0.7546771E-02  0.1530569E+00
          2   -1    0    0  501    0  0.00000000000E+00  0.00000000000E+00  0.62093541491E+02  0.62093541491E+02  0.00000000000E+00 0.  1.
         -2   -1    0    0    0  501 -0.00000000000E+00 -0.00000000000E+00 -0.12445647102E+02  0.12445647102E+02  0.00000000000E+00 0.  1.
          2    1    1    2  502    0 -0.22762107547E+01 -0.20100142713E+02  0.50388200525E+02  0.54297031453E+02  0.00000000000E+00 0.  1.
         -2    1    1    2    0  502  0.22762107547E+01  0.20100142713E+02 -0.74030613572E+00  0.20242157140E+02  0.00000000000E+00 0.  1.
</event>
<event>
 4    1  0.5847355E+003  0.4926242E+02  0.7546771E-02  0.1301402E+00
          2   -1    0    0  501    0  0.00000000000E+00  0.00000000000E+00  0.26143565076E+02  0.26143565076E+02  0.00000000000E+00 0.  1.
         -2   -1    0    0    0  501 -0.00000000000E+00 -0.00000000000E+00 -0.13186805852E+03  0.13186805852E+03  0.00000000000E+00 0. -1.
          2    1    1    2  502    0  0.11989603016E+02  0.47781123105E+02 -0.98730778973E+01  0.50242053828E+02  0.00000000000E+00 0.  1.
         -2    1    1    2    0  502 -0.11989603016E+02 -0.47781123105E+02 -0.95851415545E+02  0.10776956977E+03  0.00000000000E+00 0. -1.
</event>
<event>
 4    1  0.5847355E+003  0.3064073E+02  0.7546771E-02  0.1414109E+00
          2   -1    0    0  501    0  0.00000000000E+00  0.00000000000E+00  0.22563720376E+03  0.22563720376E+03  0.00000000000E+00 0. -1.
         -2   -1    0    0    0  501 -0.00000000000E+00 -0.00000000000E+00 -0.15776212877E+02  0.15776212877E+02  0.00000000000E+00 0.  1.
          2    1    1    2  502    0  0.28774851958E+02 -0.10529106925E+02  0.20850323285E+03  0.21074262100E+03  0.00000000000E+00 0. -1.
         -2    1    1    2    0  502 -0.28774851958E+02  0.10529106925E+02  0.13577580294E+01  0.30670795632E+02  0.00000000000E+00 0.  1.
</event>
<event>
 4    1  0.5847355E+003  0.3348252E+02  0.7546771E-02  0.1391557E+00
          2   -1    0    0  501    0  0.00000000000E+00  0.00000000000E+00  0.88683510896E+03  0.88683510896E+03  0.00000000000E+00 0.  1.
         -2   -1    0    0    0  501 -0.00000000000E+00 -0.00000000000E+00 -0.46557066720E+01  0.46557066720E+01  0.00000000000E+00 0. -1.
          2    1    1    2  502    0  0.32232518675E+02  0.90633123302E+01  0.82153708474E+03  0.82221910735E+03  0.00000000000E+00 0.  1.
         -2    1    1    2    0  502 -0.32232518675E+02 -0.90633123302E+01  0.60642317546E+02  0.69271708279E+02  0.00000000000E+00 0. -1.
</event>
<event>
 4    1  0.5847355E+003  0.2577572E+02  0.7546771E-02  0.1460309E+00
          2   -1    0    0  501    0  0.00000000000E+00  0.00000000000E+00  0.12109190784E+04  0.12109190784E+04  0.00000000000E+00 0. -1.
         -2   -1    0    0    0  501 -0.00000000000E+00 -0.00000000000E+00 -0.13502724845E+03  0.13502724845E+03  0.00000000000E+00 0.  1.
          2    1    1    2  502    0  0.25775572207E+02 -0.88082614444E-01  0.12095504209E+04  0.12098250323E+04  0.00000000000E+00 0. -1.
         -2    1    1    2    0  502 -0.25775572207E+02  0.88082614444E-01 -0.13365859102E+03  0.13612129457E+03  0.00000000000E+00 0.  1.
</event>
<event>
 4    1  0.5847355E+003  0.2588603E+02  0.7546771E-02  0.1459131E+00
          2   -1    0    0  501    0  0.00000000000E+00  0.00000000000E+00  0.25822042772E+03  0.25822042772E+03  0.00000000000E+00 0. -1.
         -2   -1    0    0    0  501 -0.00000000000E+00 -0.00000000000E+00 -0.91002449552E+01  0.91002449552E+01  0.00000000000E+00 0.  1.
          2    1    1    2  502    0  0.17596555048E+02 -0.18985468163E+02  0.23756757977E+03  0.23897372598E+03  0.00000000000E+00 0. -1.
         -2    1    1    2    0  502 -0.17596555048E+02  0.18985468163E+02  0.11552602993E+02  0.28346946693E+02  0.00000000000E+00 0.  1.
</event>
<event>
 4    1  0.5847355E+003  0.4252199E+02  0.7546771E-02  0.1334309E+00
          2   -1    0    0  501    0  0.00000000000E+00  0.00000000000E+00  0.30269399038E+03  0.30269399038E+03  0.00000000000E+00 0. -1.
         -2   -1    0    0    0  501 -0.00000000000E+00 -0.00000000000E+00 -0.29157412979E+02  0.29157412979E+02  0.00000000000E+00 0. -1.
          2    1    1    2  502    0  0.41792755669E+02  0.78412312134E+01  0.28472451854E+03  0.28788221687E+03  0.00000000000E+00 0. -1.
         -2    1    1    2    0  502 -0.41792755669E+02 -0.78412312134E+01 -0.11187941139E+02  0.43969186486E+02  0.00000000000E+00 0. -1.
</event>
<event>
 4    1  0.5847355E+003  0.2034608E+02  0.7546771E-02  0.1528809E+00
          2   -1    0    0  501    0  0.00000000000E+00  0.00000000000E+00  0.86483709727E+03  0.86483709727E+03  0.00000000000E+00 0. -1.
         -2   -1    0    0    0  501 -0.00000000000E+00 -0.00000000000E+00 -0.60163341269E+00  0.60163341269E+00  0.00000000000E+00 0.  1.
          2    1    1    2  502    0  0.60375415011E+00  0.20337120787E+02  0.62775239886E+03  0.62808203069E+03  0.00000000000E+00 0. -1.
         -2    1    1    2    0  502 -0.60375415011E+00 -0.20337120787E+02  0.23648306499E+03  0.23735669999E+03  0.00000000000E+00 0.  1.
</event>
<event>
 4    1  0.5847355E+003  0.3487134E+02  0.7546771E-02  0.1381470E+00
          2   -1    0    0  501    0  0.00000000000E+00  0.00000000000E+00  0.13123891356E+03  0.13123891356E+03  0.00000000000E+00 0.  1.
         -2   -1    0    0    0  501 -0.00000000000E+00 -0.00000000000E+00 -0.70068443468E+02  0.70068443468E+02  0.00000000000E+00 0.  1.
          2    1    1    2  502    0  0.16171506312E+02  0.30894871162E+02  0.12434797040E+03  0.12914498993E+03  0.00000000000E+00 0.  1.
         -2    1    1    2    0  502 -0.16171506312E+02 -0.30894871162E+02 -0.63177500307E+02  0.72162367101E+02  0.00000000000E+00 0.  1.
</event>
<event>
 4    1  0.5847355E+003  0.2320989E+02  0.7546771E-02  0.1489879E+00
          2   -1    0    0  501    0  0.00000000000E+00  0.00000000000E+00  0.91058094071E+03  0.91058094071E+03  0.00000000000E+00 0. -1.
         -2   -1    0    0    0  501 -0.00000000000E+00 -0.00000000000E+00 -0.28156982251E+01  0.28156982251E+01  0.00000000000E+00 0.  1.
          2    1    1    2  502    0  0.20769406722E+02  0.10360063379E+02  0.85977733668E+03  0.86009055793E+03  0.00000000000E+00 0. -1.
         -2    1    1    2    0  502 -0.20769406722E+02 -0.10360063379E+02  0.47987905809E+02  0.53306081011E+02  0.00000000000E+00 0.  1.
</event>
<event>
 4    1  0.5847355E+003  0.2308801E+02  0.7546771E-02  0.1491396E+00
          2   -1    0    0  501    0  0.00000000000E+00  0.00000000000E+00  0.54506287605E+03  0.54506287605E+03  0.00000000000E+00 0. -1.
         -2   -1    0    0    0  501 -0.00000000000E+00 -0.00000000000E+00 -0.21698848990E+01  0.21698848990E+01  0.00000000000E+00 0.  1.
          2    1    1    2  502    0 -0.21840997066E+02 -0.74851106335E+01  0.47423627862E+03  0.47479796123E+03  0.00000000000E+00 0. -1.
         -2    1    1    2    0  502  0.21840997066E+02  0.74851106335E+01  0.68656712538E+02  0.72434799720E+02  0.00000000000E+00 0.  1.
</event>
<event>
 4    1  0.5847355E+003  0.2677884E+02  0.7546771E-02  0.1449842E+00
          2   -1    0    0  501    0  0.00000000000E+00  0.00000000000E+00  0.50426940794E+03  0.50426940794E+03  0.00000000000E+00 0. -1.
         -2   -1    0    0    0  501 -0.00000000000E+00 -0.00000000000E+00 -0.35747881466E+01  0.35747881466E+01  0.00000000000E+00 0.  1.
          2    1    1    2  502    0 -0.19538277450E+02  0.18312894611E+02  0.44739390260E+03  0.44819461228E+03  0.00000000000E+00 0. -1.
         -2    1    1    2    0  502  0.19538277450E+02 -0.18312894611E+02  0.53300717195E+02  0.59649583806E+02  0.00000000000E+00 0.  1.
</event>
<event>
 4    1  0.5847355E+003  0.2299826E+02  0.7546771E-02  0.1492520E+00
          2   -1    0    0  501    0  0.00000000000E+00  0.00000000000E+00  0.30773295141E+02  0.30773295141E+02  0.00000000000E+00 0.  1.
         -2   -1    0    0    0  501 -0.00000000000E+00 -0.00000000000E+00 -0.37250232530E+02  0.37250232530E+02  0.00000000000E+00 0.  1.
          2    1    1    2  502    0  0.12812594057E+02 -0.19098626909E+02  0.21722317384E+02  0.31635094260E+02  0.00000000000E+00 0.  1.
         -2    1    1    2    0  502 -0.12812594057E+02  0.19098626909E+02 -0.28199254774E+02  0.36388433411E+02  0.00000000000E+00 0.  1.
</event>
<event>
 4    1  0.5847355E+003  0.2240090E+02  0.7546771E-02  0.1500161E+00
          2   -1    0    0  501    0  0.00000000000E+00  0.00000000000E+00  0.19737712392E+03  0.19737712392E+03  0.00000000000E+00 0. -1.
         -2   -1    0    0    0  501 -0.00000000000E+00 -0.00000000000E+00 -0.15451859076E+03  0.15451859076E+03  0.00000000000E+00 0.  1.
          2    1    1    2  502    0  0.70324001134E+01  0.21268417114E+02  0.19592365819E+03  0.19720010156E+03  0.00000000000E+00 0. -1.
         -2    1    1    2    0  502 -0.70324001134E+01 -0.21268417114E+02 -0.15306512503E+03  0.15469561312E+03  0.00000000000E+00 0.  1.
</event>
<event>
 4    1  0.5847355E+003  0.2220767E+02  0.7546771E-02  0.1502694E+00
          2   -1    0    0  501    0  0.00000000000E+00  0.00000000000E+00  0.17573083744E+02  0.17573083744E+02  0.00000000000E+00 0.  1.
         -2   -1    0    0    0  501 -0.00000000000E+00 -0.00000000000E+00 -0.28083682840E+02  0.28083682840E+02  0.00000000000E+00 0.  1.
          2    1    1    2  502    0  0.19058907270E+02  0.11399069121E+02 -0.46594799980E+01  0.22691220262E+02  0.00000000000E+00 0.  1.
         -2    1    1    2    0  502 -0.19058907270E+02 -0.11399069121E+02 -0.58511190978E+01  0.22965546321E+02  0.00000000000E+00 0.  1.
</event>
<event>
 4    1  0.5847355E+003  0.3329587E+02  0.7546771E-02  0.1392956E+00
          2   -1    0    0  501    0  0.00000000000E+00  0.00000000000E+00  0.37192982958E+03  0.37192982958E+03  0.00000000000E+00 0.  1.
         -2   -1    0    0    0  501 -0.00000000000E+00 -0.00000000000E+00 -0.52562689222E+02  0.52562689222E+02  0.00000000000E+00 0. -1.
          2    1    1    2  502    0  0.78740957320E+01 -0.32351410831E+02  0.36582400313E+03  0.36733610826E+03  0.00000000000E+00 0.  1.
         -2    1    1    2    0  502 -0.78740957320E+01  0.32351410831E+02 -0.46456862776E+02  0.57156410536E+02  0.00000000000E+00 0. -1.
</event>
<event>
 4    1  0.5847355E+003  0.8175357E+02  0.7546771E-02  0.1199834E+00
          2   -1    0    0  501    0  0.00000000000E+00  0.00000000000E+00  0.79230069667E+02  0.79230069667E+02  0.00000000000E+00 0. -1.
         -2   -1    0    0    0  501 -0.00000000000E+00 -0.00000000000E+00 -0.52417000023E+03  0.52417000023E+03  0.00000000000E+00 0. -1.
          2    1    1    2  502    0 -0.36633117036E+02  0.73086672901E+02  0.53888699931E+02  0.97916489927E+02  0.00000000000E+00 0. -1.
         -2    1    1    2    0  502  0.36633117036E+02 -0.73086672901E+02 -0.49882863049E+03  0.50548357997E+03  0.00000000000E+00 0. -1.
</event>
<event>
 4    1  0.5847355E+003  0.2460375E+02  0.7546771E-02  0.1473285E+00
          2   -1    0    0  501    0  0.00000000000E+00  0.00000000000E+00  0.54939405079E+03  0.54939405079E+03  0.00000000000E+00 0. -1.
         -2   -1    0    0    0  501 -0.00000000000E+00 -0.00000000000E+00 -0.24839163806E+01  0.24839163806E+01  0.00000000000E+00 0. -1.
          2    1    1    2  502    0 -0.11991426846E+02  0.21483722383E+02  0.47928593733E+03  0.47991702862E+03  0.00000000000E+00 0. -1.
         -2    1    1    2    0  502  0.11991426846E+02 -0.21483722383E+02  0.67624197082E+02  0.71960938545E+02  0.00000000000E+00 0. -1.
</event>
<event>
 4    1  0.5847355E+003  0.2660231E+02  0.7546771E-02  0.1451644E+00
          2   -1    0    0  501    0  0.00000000000E+00  0.00000000000E+00  0.59424245071E+02  0.59424245071E+02  0.00000000000E+00 0. -1.
         -2   -1    0    0    0  501 -0.00000000000E+00 -0.00000000000E+00 -0.20840195130E+03  0.20840195130E+03  0.00000000000E+00 0. -1.
          2    1    1    2  502    0 -0.25934860278E+02 -0.59216663176E+01  0.55541774712E+02  0.61583860286E+02  0.00000000000E+00 0. -1.
         -2    1    1    2    0  502  0.25934860278E+02  0.59216663176E+01 -0.20451948094E+03  0.20624233608E+03  0.00000000000E+00 0. -1.
</event>
<event>
 4    1  0.5847355E+003  0.1017491E+03  0.7546771E-02  0.1160811E+00
          2   -1    0    0  501    0  0.00000000000E+00  0.00000000000E+00  0.57332158766E+03  0.57332158766E+03  0.00000000000E+00 0. -1.
         -2   -1    0    0    0  501 -0.00000000000E+00 -0.00000000000E+00 -0.11822286381E+03  0.11822286381E+03  0.00000000000E+00 0.  1.
          2    1    1    2  502    0 -0.78318927373E+02  0.64954013427E+02  0.54582081471E+03  0.55522359461E+03  0.00000000000E+00 0. -1.
         -2    1    1    2    0  502  0.78318927373E+02 -0.64954013427E+02 -0.90722090858E+02  0.13632085686E+03  0.00000000000E+00 0.  1.
</event>
<event>
 4    1  0.5847355E+003  0.2477502E+02  0.7546771E-02  0.1471336E+00
          2   -1    0    0  501    0  0.00000000000E+00  0.00000000000E+00  0.84379101854E+02  0.84379101854E+02  0.00000000000E+00 0. -1.
         -2   -1    0    0    0  501 -0.00000000000E+00 -0.00000000000E+00 -0.54840196922E+03  0.54840196922E+03  0.00000000000E+00 0.  1.
          2    1    1    2  502    0  0.99813339178E+01 -0.22675414652E+02  0.82273700486E+02  0.85923007676E+02  0.00000000000E+00 0. -1.
         -2    1    1    2    0  502 -0.99813339178E+01  0.22675414652E+02 -0.54629656785E+03  0.54685806340E+03  0.00000000000E+00 0.  1.
</event>
<event>
 4    1  0.5847355E+003  0.2844890E+02  0.7546771E-02  0.1433572E+00
          2   -1    0    0  501    0  0.00000000000E+00  0.00000000000E+00  0.35753329430E+02  0.35753329430E+02  0.00000000000E+00 0.  1.
         -2   -1    0    0    0  501 -0.00000000000E+00 -0.00000000000E+00 -0.91903014135E+02  0.91903014135E+02  0.00000000000E+00 0.  1.
          2    1    1    2  502    0  0.11582224798E+02 -0.25984455314E+02  0.27337735092E+02  0.39454931367E+02  0.00000000000E+00 0.  1.
         -2    1    1    2    0  502 -0.11582224798E+02  0.25984455314E+02 -0.83487419797E+02  0.88201412197E+02  0.00000000000E+00 0.  1.
</event>
<event>
 4    1  0.5847355E+003  0.2043674E+02  0.7546771E-02  0.1527461E+00
          2   -1    0    0  501    0  0.00000000000E+00  0.00000000000E+00  0.10024795719E+04  0.10024795719E+04  0.00000000000E+00 0. -1.
         -2   -1    0    0    0  501 -0.00000000000E+00 -0.00000000000E+00 -0.41702123609E+00  0.41702123609E+00  0.00000000000E+00 0. -1.
          2    1    1    2  502    0  0.23035564665E+01 -0.20306491533E+02  0.48561169967E+03  0.48604154434E+03  0.00000000000E+00 0. -1.
         -2    1    1    2    0  502 -0.23035564665E+01  0.20306491533E+02  0.51645085103E+03  0.51685504883E+03  0.00000000000E+00 0. -1.
</event>
<event>
 4    1  0.5847355E+003  0.2427501E+02  0.7546771E-02  0.1477080E+00
          2   -1    0    0  501    0  0.00000000000E+00  0.00000000000E+00  0.34917547179E+03  0.34917547179E+03  0.00000000000E+00 0. -1.
         -2   -1    0    0    0  501 -0.00000000000E+00 -0.00000000000E+00 -0.40880731733E+01  0.40880731733E+01  0.00000000000E+00 0. -1.
          2    1    1    2  502    0  0.17283560451E+02  0.17045666365E+02  0.30789297503E+03  0.30884844224E+03  0.00000000000E+00 0. -1.
         -2    1    1    2    0  502 -0.17283560451E+02 -0.17045666365E+02  0.37194423590E+02  0.44415102723E+02  0.00000000000E+00 0. -1.
</event>
<event>
 4    1  0.5847355E+003  0.2527181E+02  0.7546771E-02  0.1465786E+00
          2   -1    0    0  501    0  0.00000000000E+00  0.00000000000E+00  0.52827066394E+03  0.52827066394E+03  0.00000000000E+00 0.  1.
         -2   -1    0    0    0  501 -0.00000000000E+00 -0.00000000000E+00 -0.12120512386E+01  0.12120512386E+01  0.00000000000E+00 0.  1.
          2    1    1    2  502    0 -0.24040593943E+02 -0.77918792664E+01  0.25018170320E+03  0.25145486306E+03  0.00000000000E+00 0.  1.
         -2    1    1    2    0  502  0.24040593943E+02  0.77918792664E+01  0.27687690950E+03  0.27802785212E+03  0.00000000000E+00 0.  1.
</event>
<event>
 4    1  0.5847355E+003  0.3978247E+02  0.7546771E-02  0.1349765E+00
          2   -1    0    0  501    0  0.00000000000E+00  0.00000000000E+00  0.15261386208E+04  0.15261386208E+04  0.00000000000E+00 0. -1.
         -2   -1    0    0    0  501 -0.00000000000E+00 -0.00000000000E+00 -0.13032224552E+02  0.13032224552E+02  0.00000000000E+00 0.  1.
          2    1    1    2  502    0  0.18693842236E+02  0.35116741058E+02  0.14948844957E+04  0.14954137556E+04  0.00000000000E+00 0. -1.
         -2    1    1    2    0  502 -0.18693842236E+02 -0.35116741058E+02  0.18221900636E+02  0.43757089744E+02  0.00000000000E+00 0.  1.
</event>
<event>
 4    1  0.5847355E+003  0.2972440E+02  0.7546771E-02  0.1422007E+00
          2   -1    0    0  501    0  0.00000000000E+00  0.00000000000E+00  0.61087023408E+03  0.61087023408E+03  0.00000000000E+00 0. -1.
         -2   -1    0    0    0  501 -0.00000000000E+00 -0.00000000000E+00 -0.23295357389E+03  0.23295357389E+03  0.00000000000E+00 0. -1.
          2    1    1    2  502    0 -0.22178365581E+02  0.19790402106E+02  0.60955841089E+03  0.61028271826E+03  0.00000000000E+00 0. -1.
         -2    1    1    2    0  502  0.22178365581E+02 -0.19790402106E+02 -0.23164175070E+03  0.23354108971E+03  0.00000000000E+00 0. -1.
</event>
<event>
 4    1  0.5847355E+003  0.4066025E+02  0.7546771E-02  0.1344660E+00
          2   -1    0    0  501    0  0.00000000000E+00  0.00000000000E+00  0.70253112487E+03  0.70253112487E+03  0.00000000000E+00 0.  1.
         -2   -1    0    0    0  501 -0.00000000000E+00 -0.00000000000E+00 -0.69106192734E+01  0.69106192734E+01  0.00000000000E+00 0. -1.
          2    1    1    2  502    0 -0.13121748067E+02  0.38484743122E+02  0.63587075800E+03  0.63716942535E+03  0.00000000000E+00 0.  1.
         -2    1    1    2    0  502  0.13121748067E+02 -0.38484743122E+02  0.59749747597E+02  0.72272318791E+02  0.00000000000E+00 0. -1.
</event>
<event>
 4    1  0.5847355E+003  0.6758594E+02  0.7546771E-02  0.1236030E+00
          2   -1    0    0  501    0  0.00000000000E+00  0.00000000000E+00  0.23538452425E+04  0.23538452425E+04  0.00000000000E+00 0.  1.
         -2   -1    0    0    0  501 -0.00000000000E+00 -0.00000000000E+00 -0.39886764299E+02  0.39886764299E+02  0.00000000000E+00 0. -1.
          2    1    1    2  502    0 -0.38407627779E+02 -0.55612175160E+02  0.23243669005E+04  0.23253492959E+04  0.00000000000E+00 0.  1.
         -2    1    1    2    0  502  0.38407627779E+02  0.55612175160E+02 -0.10408422265E+02  0.68382710912E+02  0.00000000000E+00 0. -1.
</event>
<event>
 4    1  0.5847355E+003  0.2484049E+02  0.7546771E-02  0.1470596E+00
          2   -1    0    0  501    0  0.00000000000E+00  0.00000000000E+00  0.31696229578E+03  0.31696229578E+03  0.00000000000E+00 0.  1.
         -2   -1    0    0    0  501 -0.00000000000E+00 -0.00000000000E+00 -0.31090303532E+01  0.31090303532E+01  0.00000000000E+00 0. -1.
          2    1    1    2  502    0  0.16367780472E+02  0.18685446977E+02  0.25477588042E+03  0.25598398272E+03  0.00000000000E+00 0.  1.
         -2    1    1    2    0  502 -0.16367780472E+02 -0.18685446977E+02  0.59077385008E+02  0.64087343413E+02  0.00000000000E+00 0. -1.
</event>
