<event>
 4    1  0.6008802E+002  0.2150846E+02  0.7546771E-02  0.1512128E+00
          2   -1    0    0  502    0  0.00000000000E+00  0.00000000000E+00  0.96189258210E+03  0.96189258210E+03  0.00000000000E+00 0. -1.
         -2   -1    0    0    0  501 -0.00000000000E+00 -0.00000000000E+00 -0.16893450203E+01  0.16893450203E+01  0.00000000000E+00 0.  1.
         21    1    1    2  502  503  0.12405943159E+02 -0.17570038590E+02  0.88758090214E+03  0.88784146757E+03  0.00000000000E+00 0. -1.
         21    1    1    2  503  501 -0.12405943159E+02  0.17570038590E+02  0.72622334931E+02  0.75740459548E+02  0.00000000000E+00 0.  1.
</event>
<event>
 4    1  0.6008802E+002  0.2113557E+02  0.7546771E-02  0.1517338E+00
          2   -1    0    0  502    0  0.00000000000E+00  0.00000000000E+00  0.95009725830E+02  0.95009725830E+02  0.00000000000E+00 0. -1.
         -2   -1    0    0    0  501 -0.00000000000E+00 -0.00000000000E+00 -0.99464309006E+01  0.99464309006E+01  0.00000000000E+00 0.  1.
         21    1    1    2  502  503 -0.85364432049E+01 -0.19334974715E+02  0.80638560285E+02  0.83362398686E+02  0.00000000000E+00 0. -1.
         21    1    1    2  503  501  0.85364432049E+01  0.19334974715E+02  0.44247346445E+01  0.21593758045E+02  0.00000000000E+00 0.  1.
</event>
<event>
 4    1  0.6008802E+002  0.2959238E+02  0.7546771E-02  0.1423172E+00
          2   -1    0    0  502    0  0.00000000000E+00  0.00000000000E+00  0.12219342274E+02  0.12219342274E+02  0.00000000000E+00 0. -1.
         -2   -1    0    0    0  501 -0.00000000000E+00 -0.00000000000E+00 -0.13386565580E+03  0.13386565580E+03  0.00000000000E+00 0.  1.
         21    1    1    2  502  503 -0.23699270635E+02 -0.17721559266E+02 -0.11033895330E+02  0.31582525827E+02  0.00000000000E+00 0. -1.
         21    1    1    2  503  501  0.23699270635E+02  0.17721559266E+02 -0.11061241820E+03  0.11450247225E+03  0.00000000000E+00 0.  1.
</event>
<event>
 4    1  0.6008802E+002  0.2351092E+02  0.7546771E-02  0.1486180E+00
          2   -1    0    0  503    0  0.00000000000E+00  0.00000000000E+00  0.53910790686E+03  0.53910790686E+03  0.00000000000E+00 0.  1.
         -2   -1    0    0    0  501 -0.00000000000E+00 -0.00000000000E+00 -0.11775572841E+01  0.11775572841E+01  0.00000000000E+00 0. -1.
         21    1    1    2  502  501  0.11526195102E+02  0.20491705764E+02  0.17183606846E+03  0.17343701336E+03  0.00000000000E+00 0. -1.
         21    1    1    2  503  502 -0.11526195102E+02 -0.20491705764E+02  0.36609428112E+03  0.36684845079E+03  0.00000000000E+00 0.  1.
</event>
<event>
 4    1  0.6008802E+002  0.2438333E+02  0.7546771E-02  0.1475822E+00
          2   -1    0    0  502    0  0.00000000000E+00  0.00000000000E+00  0.78469594176E+02  0.78469594176E+02  0.00000000000E+00 0. -1.
         -2   -1    0    0    0  501 -0.00000000000E+00 -0.00000000000E+00 -0.32439068091E+02  0.32439068091E+02  0.00000000000E+00 0.  1.
         21    1    1    2  502  503  0.17958451446E+02 -0.16493654066E+02  0.71563320996E+02  0.75603277143E+02  0.00000000000E+00 0. -1.
         21    1    1    2  503  501 -0.17958451446E+02  0.16493654066E+02 -0.25532794911E+02  0.35305385124E+02  0.00000000000E+00 0.  1.
</event>
<event>
 4    1  0.6008802E+002  0.4338605E+02  0.7546771E-02  0.1329710E+00
          2   -1    0    0  502    0  0.00000000000E+00  0.00000000000E+00  0.24671991704E+04  0.24671991704E+04  0.00000000000E+00 0. -1.
         -2   -1    0    0    0  501 -0.00000000000E+00 -0.00000000000E+00 -0.19217697383E+01  0.19217697383E+01  0.00000000000E+00 0.  1.
         21    1    1    2  502  503  0.36908987261E+02  0.22805179663E+02  0.21913098047E+04  0.21917392659E+04  0.00000000000E+00 0. -1.
         21    1    1    2  503  501 -0.36908987261E+02 -0.22805179663E+02  0.27396759593E+03  0.27738167420E+03  0.00000000000E+00 0.  1.
</event>
<event>
 4    1  0.6008802E+002  0.4807366E+02  0.7546771E-02  0.1306748E+00
          2   -1    0    0  503    0  0.00000000000E+00  0.00000000000E+00  0.19341325740E+03  0.19341325740E+03  0.00000000000E+00 0. -1.
         -2   -1    0    0    0  501 -0.00000000000E+00 -0.00000000000E+00 -0.36877672718E+02  0.36877672718E+02  0.00000000000E+00 0.  1.
         21    1    1    2  502  501  0.47222304270E+02 -0.90072837008E+01 -0.16402881080E+02  0.50794996682E+02  0.00000000000E+00 0.  1.
         21    1    1    2  503  502 -0.47222304270E+02  0.90072837008E+01  0.17293846576E+03  0.17949593343E+03  0.00000000000E+00 0. -1.
</event>
<event>
 4    1  0.6008802E+002  0.5754118E+02  0.7546771E-02  0.1268424E+00
          2   -1    0    0  502    0  0.00000000000E+00  0.00000000000E+00  0.76591195011E+02  0.76591195011E+02  0.00000000000E+00 0. -1.
         -2   -1    0    0    0  501 -0.00000000000E+00 -0.00000000000E+00 -0.64288083330E+02  0.64288083330E+02  0.00000000000E+00 0.  1.
         21    1    1    2  502  503 -0.53808942675E+02  0.20385892103E+02  0.46466688760E+02  0.73960395300E+02  0.00000000000E+00 0. -1.
         21    1    1    2  503  501  0.53808942675E+02 -0.20385892103E+02 -0.34163577079E+02  0.66918883041E+02  0.00000000000E+00 0.  1.
</event>
<event>
 4    1  0.6008802E+002  0.3242130E+02  0.7546771E-02  0.1399659E+00
          2   -1    0    0  502    0  0.00000000000E+00  0.00000000000E+00  0.19414510198E+03  0.19414510198E+03  0.00000000000E+00 0.  1.
         -2   -1    0    0    0  501 -0.00000000000E+00 -0.00000000000E+00 -0.19196659407E+02  0.19196659407E+02  0.00000000000E+00 0. -1.
         21    1    1    2  502  503  0.30099886924E+02 -0.12047307997E+02  0.17785922466E+03  0.18079005675E+03  0.00000000000E+00 0.  1.
         21    1    1    2  503  501 -0.30099886924E+02  0.12047307997E+02 -0.29107820825E+01  0.32551704643E+02  0.00000000000E+00 0. -1.
</event>
<event>
 4    1  0.6008802E+002  0.3566877E+02  0.7546771E-02  0.1375922E+00
          2   -1    0    0  503    0  0.00000000000E+00  0.00000000000E+00  0.24651096672E+03  0.24651096672E+03  0.00000000000E+00 0. -1.
         -2   -1    0    0    0  501 -0.00000000000E+00 -0.00000000000E+00 -0.74553411151E+01  0.74553411151E+01  0.00000000000E+00 0.  1.
         21    1    1    2  502  501 -0.18339663865E+02  0.30592775179E+02  0.49085369979E+02  0.60676475753E+02  0.00000000000E+00 0.  1.
         21    1    1    2  503  502  0.18339663865E+02 -0.30592775179E+02  0.18997025563E+03  0.19328983209E+03  0.00000000000E+00 0. -1.
</event>
<event>
 4    1  0.6008802E+002  0.3273881E+02  0.7546771E-02  0.1397197E+00
          2   -1    0    0  503    0  0.00000000000E+00  0.00000000000E+00  0.17329867222E+01  0.17329867222E+01  0.00000000000E+00 0. -1.
         -2   -1    0    0    0  501 -0.00000000000E+00 -0.00000000000E+00 -0.10029960941E+04  0.10029960941E+04  0.00000000000E+00 0.  1.
         21    1    1    2  502  501  0.28585173935E+02 -0.15959866133E+02 -0.81167621366E+03  0.81233620215E+03  0.00000000000E+00 0.  1.
         21    1    1    2  503  502 -0.28585173935E+02  0.15959866133E+02 -0.18958689375E+03  0.19239287871E+03  0.00000000000E+00 0. -1.
</event>
<event>
 4    1  0.6008802E+002  0.4372353E+02  0.7546771E-02  0.1327947E+00
          2   -1    0    0  503    0  0.00000000000E+00  0.00000000000E+00  0.24074336775E+02  0.24074336775E+02  0.00000000000E+00 0. -1.
         -2   -1    0    0    0  501 -0.00000000000E+00 -0.00000000000E+00 -0.93248707517E+02  0.93248707517E+02  0.00000000000E+00 0.  1.
         21    1    1    2  502  501 -0.39914164169E+02  0.17849556646E+02 -0.57185550244E+02  0.71985653644E+02  0.00000000000E+00 0.  1.
         21    1    1    2  503  502  0.39914164169E+02 -0.17849556646E+02 -0.11988820498E+02  0.45337390648E+02  0.00000000000E+00 0. -1.
</event>
<event>
 4    1  0.6008802E+002  0.2408224E+02  0.7546771E-02  0.1479338E+00
          2   -1    0    0  502    0  0.00000000000E+00  0.00000000000E+00  0.32489727793E+02  0.32489727793E+02  0.00000000000E+00 0.  1.
         -2   -1    0    0    0  501 -0.00000000000E+00 -0.00000000000E+00 -0.64822294587E+02  0.64822294587E+02  0.00000000000E+00 0. -1.
         21    1    1    2  502  503  0.77683087191E+01 -0.22794900224E+02  0.25252126166E+02  0.34894469081E+02  0.00000000000E+00 0.  1.
         21    1    1    2  503  501 -0.77683087191E+01  0.22794900224E+02 -0.57584692959E+02  0.62417553298E+02  0.00000000000E+00 0. -1.
</event>
<event>
 4    1  0.6008802E+002  0.2156030E+02  0.7546771E-02  0.1511413E+00
          2   -1    0    0  502    0  0.00000000000E+00  0.00000000000E+00  0.96956680054E+03  0.96956680054E+03  0.00000000000E+00 0.  1.
         -2   -1    0    0    0  501 -0.00000000000E+00 -0.00000000000E+00 -0.65192011168E+00  0.65192011168E+00  0.00000000000E+00 0. -1.
         21    1    1    2  502  503 -0.12991379325E+02  0.17206702293E+02  0.73398315571E+03  0.73429974765E+03  0.00000000000E+00 0.  1.
         21    1    1    2  503  501  0.12991379325E+02 -0.17206702293E+02  0.23493172472E+03  0.23591897300E+03  0.00000000000E+00 0. -1.
</event>
<event>
 4    1  0.6008802E+002  0.2759636E+02  0.7546771E-02  0.1441708E+00
          2   -1    0    0  502    0  0.00000000000E+00  0.00000000000E+00  0.31249582849E+03  0.31249582849E+03  0.00000000000E+00 0. -1.
         -2   -1    0    0    0  501 -0.00000000000E+00 -0.00000000000E+00 -0.70159250213E+01  0.70159250213E+01  0.00000000000E+00 0.  1.
         21    1    1    2  502  503  0.23798990840E+02  0.13970230724E+02  0.28180096803E+03  0.28314898003E+03  0.00000000000E+00 0. -1.
         21    1    1    2  503  501 -0.23798990840E+02 -0.13970230724E+02  0.23678935439E+02  0.36362773478E+02  0.00000000000E+00 0.  1.
</event>
<event>
 4    1  0.6008802E+002  0.2172682E+02  0.7546771E-02  0.1509136E+00
          2   -1    0    0  503    0  0.00000000000E+00  0.00000000000E+00  0.83574081613E+00  0.83574081613E+00  0.00000000000E+00 0. -1.
         -2   -1    0    0    0  501 -0.00000000000E+00 -0.00000000000E+00 -0.68471549911E+03  0.68471549911E+03  0.00000000000E+00 0.  1.
         21    1    1    2  502  501  0.21346985721E+02 -0.40448415154E+01 -0.48536708831E+03  0.48585313105E+03  0.00000000000E+00 0.  1.
         21    1    1    2  503  502 -0.21346985721E+02  0.40448415154E+01 -0.19851266999E+03  0.19969810887E+03  0.00000000000E+00 0. -1.
</event>
<event>
 4    1  0.6008802E+002  0.2144740E+02  0.7546771E-02  0.1512972E+00
          2   -1    0    0  502    0  0.00000000000E+00  0.00000000000E+00  0.19426328544E+03  0.19426328544E+03  0.00000000000E+00 0. -1.
         -2   -1    0    0    0  501 -0.00000000000E+00 -0.00000000000E+00 -0.40852007204E+01  0.40852007204E+01  0.00000000000E+00 0.  1.
         21    1    1    2  502  503  0.20373899112E+02  0.67003948093E+01  0.15939017321E+03  0.16082667182E+03  0.00000000000E+00 0. -1.
         21    1    1    2  503  501 -0.20373899112E+02 -0.67003948093E+01  0.30787911511E+02  0.37521814333E+02  0.00000000000E+00 0.  1.
</event>
<event>
 4    1  0.6008802E+002  0.2091170E+02  0.7546771E-02  0.1520529E+00
          2   -1    0    0  502    0  0.00000000000E+00  0.00000000000E+00  0.23582259508E+03  0.23582259508E+03  0.00000000000E+00 0. -1.
         -2   -1    0    0    0  501 -0.00000000000E+00 -0.00000000000E+00 -0.18543666246E+01  0.18543666246E+01  0.00000000000E+00 0.  1.
         21    1    1    2  502  503 -0.20904992015E+02  0.52960504483E+00  0.11670704957E+03  0.11856573954E+03  0.00000000000E+00 0. -1.
         21    1    1    2  503  501  0.20904992015E+02 -0.52960504483E+00  0.11726117888E+03  0.11911122216E+03  0.00000000000E+00 0.  1.
</event>
<event>
 4    1  0.6008802E+002  0.2060404E+02  0.7546771E-02  0.1524994E+00
          2   -1    0    0  503    0  0.00000000000E+00  0.00000000000E+00  0.35140355777E+01  0.35140355777E+01  0.00000000000E+00 0. -1.
         -2   -1    0    0    0  501 -0.00000000000E+00 -0.00000000000E+00 -0.23692097144E+03  0.23692097144E+03  0.00000000000E+00 0.  1.
         21    1    1    2  502  501 -0.14263587731E+02 -0.14868647651E+02 -0.20086327311E+03  0.20191726301E+03  0.00000000000E+00 0.  1.
         21    1    1    2  503  502  0.14263587731E+02  0.14868647651E+02 -0.32543662755E+02  0.38517744008E+02  0.00000000000E+00 0. -1.
</event>
<event>
 4    1  0.6008802E+002  0.2292970E+02  0.7546771E-02  0.1493383E+00
          2   -1    0    0  502    0  0.00000000000E+00  0.00000000000E+00  0.40291807801E+01  0.40291807801E+01  0.00000000000E+00 0.  1.
         -2   -1    0    0    0  501 -0.00000000000E+00 -0.00000000000E+00 -0.23735154687E+03  0.23735154687E+03  0.00000000000E+00 0. -1.
         21    1    1    2  502  503 -0.49926537891E+01 -0.22379552228E+02 -0.35679704277E+02  0.42412406759E+02  0.00000000000E+00 0.  1.
         21    1    1    2  503  501  0.49926537891E+01  0.22379552228E+02 -0.19764266181E+03  0.19896832089E+03  0.00000000000E+00 0. -1.
</event>
<event>
 4    1  0.6008802E+002  0.2329087E+02  0.7546771E-02  0.1488878E+00
          2   -1    0    0  502    0  0.00000000000E+00  0.00000000000E+00  0.43167769443E+01  0.43167769443E+01  0.00000000000E+00 0.  1.
         -2   -1    0    0    0  501 -0.00000000000E+00 -0.00000000000E+00 -0.16700271566E+03  0.16700271566E+03  0.00000000000E+00 0. -1.
         21    1    1    2  502  503  0.23215938028E+02  0.18667567216E+01 -0.12396088121E+03  0.12612995136E+03  0.00000000000E+00 0. -1.
         21    1    1    2  503  501 -0.23215938028E+02 -0.18667567216E+01 -0.38725057499E+02  0.45189541240E+02  0.00000000000E+00 0.  1.
</event>
<event>
 4    1  0.6008802E+002  0.2658634E+02  0.7546771E-02  0.1451808E+00
          2   -1    0    0  503    0  0.00000000000E+00  0.00000000000E+00  0.24986102859E+03  0.24986102859E+03  0.00000000000E+00 0. -1.
         -2   -1    0    0    0  501 -0.00000000000E+00 -0.00000000000E+00 -0.84671291814E+01  0.84671291814E+01  0.00000000000E+00 0.  1.
         21    1    1    2  502  501 -0.24564715072E+02 -0.10168993588E+02  0.15295946532E+02  0.30672457311E+02  0.00000000000E+00 0.  1.
         21    1    1    2  503  502  0.24564715072E+02  0.10168993588E+02  0.22609795287E+03  0.22765570046E+03  0.00000000000E+00 0. -1.
</event>
<event>
 4    1  0.6008802E+002  0.5846302E+02  0.7546771E-02  0.1265146E+00
          2   -1    0    0  502    0  0.00000000000E+00  0.00000000000E+00  0.29825701745E+04  0.29825701745E+04  0.00000000000E+00 0. -1.
         -2   -1    0    0    0  501 -0.00000000000E+00 -0.00000000000E+00 -0.15158331346E+01  0.15158331346E+01  0.00000000000E+00 0.  1.
         21    1    1    2  502  503  0.31626922401E+02  0.49169735921E+02  0.22275455020E+04  0.22283125653E+04  0.00000000000E+00 0.  1.
         21    1    1    2  503  501 -0.31626922401E+02 -0.49169735921E+02  0.75350883941E+03  0.75577344239E+03  0.00000000000E+00 0. -1.
</event>
<event>
 4    1  0.6008802E+002  0.2421145E+02  0.7546771E-02  0.1477822E+00
          2   -1    0    0  502    0  0.00000000000E+00  0.00000000000E+00  0.46816260022E+03  0.46816260022E+03  0.00000000000E+00 0.  1.
         -2   -1    0    0    0  501 -0.00000000000E+00 -0.00000000000E+00 -0.70644664193E+01  0.70644664193E+01  0.00000000000E+00 0. -1.
         21    1    1    2  502  503 -0.15115479153E+02 -0.18913396980E+02  0.44607887964E+03  0.44673544873E+03  0.00000000000E+00 0.  1.
         21    1    1    2  503  501  0.15115479153E+02  0.18913396980E+02  0.15019254164E+02  0.28491617908E+02  0.00000000000E+00 0. -1.
</event>
<event>
 4    1  0.6008802E+002  0.2929430E+02  0.7546771E-02  0.1425830E+00
          2   -1    0    0  503    0  0.00000000000E+00  0.00000000000E+00  0.97634373388E+03  0.97634373388E+03  0.00000000000E+00 0.  1.
         -2   -1    0    0    0  501 -0.00000000000E+00 -0.00000000000E+00 -0.14587397170E+01  0.14587397170E+01  0.00000000000E+00 0. -1.
         21    1    1    2  502  501  0.23775477243E+02  0.17113810968E+02  0.17921735996E+03  0.18159575423E+03  0.00000000000E+00 0. -1.
         21    1    1    2  503  502 -0.23775477243E+02 -0.17113810968E+02  0.79566763420E+03  0.79620671937E+03  0.00000000000E+00 0.  1.
</event>
<event>
 4    1  0.6008802E+002  0.3311472E+02  0.7546771E-02  0.1394325E+00
          2   -1    0    0  502    0  0.00000000000E+00  0.00000000000E+00  0.35596511164E+03  0.35596511164E+03  0.00000000000E+00 0.  1.
         -2   -1    0    0    0  501 -0.00000000000E+00 -0.00000000000E+00 -0.34274884619E+01  0.34274884619E+01  0.00000000000E+00 0. -1.
         21    1    1    2  502  503  0.25095855053E+01 -0.33019488158E+02  0.23343624687E+03  0.23577333601E+03  0.00000000000E+00 0.  1.
         21    1    1    2  503  501 -0.25095855053E+01  0.33019488158E+02  0.11910137630E+03  0.12361926409E+03  0.00000000000E+00 0. -1.
</event>
<event>
 4    1  0.6008802E+002  0.3072860E+02  0.7546771E-02  0.1413369E+00
          2   -1    0    0  502    0  0.00000000000E+00  0.00000000000E+00  0.58370122103E+03  0.58370122103E+03  0.00000000000E+00 0. -1.
         -2   -1    0    0    0  501 -0.00000000000E+00 -0.00000000000E+00 -0.51071428513E+01  0.51071428513E+01  0.00000000000E+00 0.  1.
         21    1    1    2  502  503  0.25323972523E+02 -0.17405263206E+02  0.53264837269E+03  0.53353400613E+03  0.00000000000E+00 0. -1.
         21    1    1    2  503  501 -0.25323972523E+02  0.17405263206E+02  0.45945705490E+02  0.55274357749E+02  0.00000000000E+00 0.  1.
</event>
<event>
 4    1  0.6008802E+002  0.2488487E+02  0.7546771E-02  0.1470095E+00
          2   -1    0    0  503    0  0.00000000000E+00  0.00000000000E+00  0.11760362201E+03  0.11760362201E+03  0.00000000000E+00 0.  1.
         -2   -1    0    0    0  501 -0.00000000000E+00 -0.00000000000E+00 -0.14561813759E+02  0.14561813759E+02  0.00000000000E+00 0. -1.
         21    1    1    2  502  501  0.16570524054E+02  0.18565415813E+02 -0.12789297062E+01  0.24917716447E+02  0.00000000000E+00 0. -1.
         21    1    1    2  503  502 -0.16570524054E+02 -0.18565415813E+02  0.10432073796E+03  0.10724771932E+03  0.00000000000E+00 0.  1.
</event>
<event>
 4    1  0.6008802E+002  0.2191996E+02  0.7546771E-02  0.1506525E+00
          2   -1    0    0  503    0  0.00000000000E+00  0.00000000000E+00  0.11708417644E+03  0.11708417644E+03  0.00000000000E+00 0. -1.
         -2   -1    0    0    0  501 -0.00000000000E+00 -0.00000000000E+00 -0.78036411834E+01  0.78036411834E+01  0.00000000000E+00 0.  1.
         21    1    1    2  502  501 -0.21914307345E+02 -0.49767994788E+00  0.11643507833E+02  0.24820471921E+02  0.00000000000E+00 0.  1.
         21    1    1    2  503  502  0.21914307345E+02  0.49767994788E+00  0.97637027426E+02  0.10006734570E+03  0.00000000000E+00 0. -1.
</event>
<event>
 4    1  0.6008802E+002  0.2070526E+02  0.7546771E-02  0.1523515E+00
          2   -1    0    0  503    0  0.00000000000E+00  0.00000000000E+00  0.42800526080E+03  0.42800526080E+03  0.00000000000E+00 0.  1.
         -2   -1    0    0    0  501 -0.00000000000E+00 -0.00000000000E+00 -0.14255156196E+01  0.14255156196E+01  0.00000000000E+00 0. -1.
         21    1    1    2  502  501  0.14425555887E+02  0.14852977077E+02  0.96206312604E+02  0.98409156970E+02  0.00000000000E+00 0. -1.
         21    1    1    2  503  502 -0.14425555887E+02 -0.14852977077E+02  0.33037343258E+03  0.33102161945E+03  0.00000000000E+00 0.  1.
</event>
<event>
 4    1  0.6008802E+002  0.2906872E+02  0.7546771E-02  0.1427865E+00
          2   -1    0    0  503    0  0.00000000000E+00  0.00000000000E+00  0.72346260710E+03  0.72346260710E+03  0.00000000000E+00 0. -1.
         -2   -1    0    0    0  501 -0.00000000000E+00 -0.00000000000E+00 -0.13192573831E+01  0.13192573831E+01  0.00000000000E+00 0.  1.
         21    1    1    2  502  501 -0.29064611849E+02  0.48862348497E+00  0.48378689986E+03  0.48465942155E+03  0.00000000000E+00 0. -1.
         21    1    1    2  503  502  0.29064611849E+02 -0.48862348497E+00  0.23835644985E+03  0.24012244294E+03  0.00000000000E+00 0.  1.
</event>
<event>
 4    1  0.6008802E+002  0.3104541E+02  0.7546771E-02  0.1410724E+00
          2   -1    0    0  503    0  0.00000000000E+00  0.00000000000E+00  0.80296903696E+01  0.80296903696E+01  0.00000000000E+00 0.  1.
         -2   -1    0    0    0  501 -0.00000000000E+00 -0.00000000000E+00 -0.20511879641E+03  0.20511879641E+03  0.00000000000E+00 0. -1.
         21    1    1    2  502  501 -0.14667241459E+01 -0.31010746997E+02 -0.16718518562E+03  0.17004324156E+03  0.00000000000E+00 0. -1.
         21    1    1    2  503  502  0.14667241459E+01  0.31010746997E+02 -0.29903920419E+02  0.43105245220E+02  0.00000000000E+00 0.  1.
</event>
<event>
 4    1  0.6008802E+002  0.2988329E+02  0.7546771E-02  0.1420614E+00
          2   -1    0    0  502    0  0.00000000000E+00  0.00000000000E+00  0.33512067716E+04  0.33512067716E+04  0.00000000000E+00 0. -1.
         -2   -1    0    0    0  501 -0.00000000000E+00 -0.00000000000E+00 -0.29435621290E+00  0.29435621290E+00  0.00000000000E+00 0.  1.
         21    1    1    2  502  503 -0.16473187864E+01 -0.29837846754E+02  0.21911992816E+04  0.21914030443E+04  0.00000000000E+00 0.  1.
         21    1    1    2  503  501  0.16473187864E+01  0.29837846754E+02  0.11597131338E+04  0.11600980835E+04  0.00000000000E+00 0. -1.
</event>
<event>
 4    1  0.6008802E+002  0.2724172E+02  0.7546771E-02  0.1445195E+00
          2   -1    0    0  502    0  0.00000000000E+00  0.00000000000E+00  0.38633673982E+03  0.38633673982E+03  0.00000000000E+00 0.  1.
         -2   -1    0    0    0  501 -0.00000000000E+00 -0.00000000000E+00 -0.11936858197E+02  0.11936858197E+02  0.00000000000E+00 0. -1.
         21    1    1    2  502  503 -0.22003640766E+02  0.16060860489E+02  0.36961173417E+03  0.37061428128E+03  0.00000000000E+00 0.  1.
         21    1    1    2  503  501  0.22003640766E+02 -0.16060860489E+02  0.47881474506E+01  0.27659316742E+02  0.00000000000E+00 0. -1.
</event>
<event>
 4    1  0.6008802E+002  0.4244186E+02  0.7546771E-02  0.1334742E+00
          2   -1    0    0  503    0  0.00000000000E+00  0.00000000000E+00  0.80157747367E+01  0.80157747367E+01  0.00000000000E+00 0. -1.
         -2   -1    0    0    0  501 -0.00000000000E+00 -0.00000000000E+00 -0.36025648363E+03  0.36025648363E+03  0.00000000000E+00 0.  1.
         21    1    1    2  502  501  0.87943259207E+01  0.41520729245E+02 -0.28906352342E+03  0.29216268019E+03  0.00000000000E+00 0.  1.
         21    1    1    2  503  502 -0.87943259207E+01 -0.41520729245E+02 -0.63177185473E+02  0.76109578173E+02  0.00000000000E+00 0. -1.
</event>
<event>
 4    1  0.6008802E+002  0.2899710E+02  0.7546771E-02  0.1428516E+00
          2   -1    0    0  502    0  0.00000000000E+00  0.00000000000E+00  0.36360542317E+03  0.36360542317E+03  0.00000000000E+00 0.  1.
         -2   -1    0    0    0  501 -0.00000000000E+00 -0.00000000000E+00 -0.37094542530E+01  0.37094542530E+01  0.00000000000E+00 0. -1.
         21    1    1    2  502  503 -0.19625942106E+02  0.21346063682E+02  0.29265396408E+03  0.29408701897E+03  0.00000000000E+00 0.  1.
         21    1    1    2  503  501  0.19625942106E+02 -0.21346063682E+02  0.67242004839E+02  0.73227858450E+02  0.00000000000E+00 0. -1.
</event>
<event>
 4    1  0.6008802E+002  0.2045590E+02  0.7546771E-02  0.1527177E+00
          2   -1    0    0  503    0  0.00000000000E+00  0.00000000000E+00  0.90841518295E+02  0.90841518295E+02  0.00000000000E+00 0. -1.
         -2   -1    0    0    0  501 -0.00000000000E+00 -0.00000000000E+00 -0.54907321455E+01  0.54907321455E+01  0.00000000000E+00 0.  1.
         21    1    1    2  502  501 -0.20288361827E+02  0.26127209622E+01  0.62006515983E+02  0.65293582846E+02  0.00000000000E+00 0. -1.
         21    1    1    2  503  502  0.20288361827E+02 -0.26127209622E+01  0.23344270166E+02  0.31038667595E+02  0.00000000000E+00 0.  1.
</event>
<event>
 4    1  0.6008802E+002  0.2107580E+02  0.7546771E-02  0.1518185E+00
          2   -1    0    0  503    0  0.00000000000E+00  0.00000000000E+00  0.46413390601E+02  0.46413390601E+02  0.00000000000E+00 0. -1.
         -2   -1    0    0    0  501 -0.00000000000E+00 -0.00000000000E+00 -0.13317655026E+02  0.13317655026E+02  0.00000000000E+00 0.  1.
         21    1    1    2  502  501 -0.18291984879E+02  0.10468659315E+02  0.70552787174E+00  0.21087610302E+02  0.00000000000E+00 0. -1.
         21    1    1    2  503  502  0.18291984879E+02 -0.10468659315E+02  0.32390207703E+02  0.38643435325E+02  0.00000000000E+00 0.  1.
</event>
<event>
 4    1  0.6008802E+002  0.2524824E+02  0.7546771E-02  0.1466045E+00
          2   -1    0    0  503    0  0.00000000000E+00  0.00000000000E+00  0.10823270354E+04  0.10823270354E+04  0.00000000000E+00 0.  1.
         -2   -1    0    0    0  501 -0.00000000000E+00 -0.00000000000E+00 -0.59607950606E+00  0.59607950606E+00  0.00000000000E+00 0. -1.
         21    1    1    2  502  501 -0.97241399203E+01 -0.23300534593E+02  0.48179193736E+03  0.48245304923E+03  0.00000000000E+00 0. -1.
         21    1    1    2  503  502  0.97241399203E+01  0.23300534593E+02  0.59993901857E+03  0.60047006570E+03  0.00000000000E+00 0.  1.
</event>
<event>
 4    1  0.6008802E+002  0.2300370E+02  0.7546771E-02  0.1492452E+00
          2   -1    0    0  502    0  0.00000000000E+00  0.00000000000E+00  0.73651565071E+02  0.73651565071E+02  0.00000000000E+00 0.  1.
         -2   -1    0    0    0  501 -0.00000000000E+00 -0.00000000000E+00 -0.78124648316E+01  0.78124648316E+01  0.00000000000E+00 0. -1.
         21    1    1    2  502  503  0.23002906769E+02  0.19115120600E+00  0.44465052339E+02  0.50063071601E+02  0.00000000000E+00 0. -1.
         21    1    1    2  503  501 -0.23002906769E+02 -0.19115120600E+00  0.21374047900E+02  0.31400958301E+02  0.00000000000E+00 0.  1.
</event>
<event>
 4    1  0.6008802E+002  0.2268825E+02  0.7546771E-02  0.1496450E+00
          2   -1    0    0  503    0  0.00000000000E+00  0.00000000000E+00  0.13275269171E+04  0.13275269171E+04  0.00000000000E+00 0. -1.
         -2   -1    0    0    0  501 -0.00000000000E+00 -0.00000000000E+00 -0.28647204889E+01  0.28647204889E+01  0.00000000000E+00 0.  1.
         21    1    1    2  502  501 -0.21720182959E+02 -0.65566922129E+01  0.43790412411E+02  0.49318929223E+02  0.00000000000E+00 0.  1.
         21    1    1    2  503  502  0.21720182959E+02  0.65566922129E+01  0.12808717842E+04  0.12810727084E+04  0.00000000000E+00 0. -1.
</event>
<event>
 4    1  0.6008802E+002  0.2293043E+02  0.7546771E-02  0.1493374E+00
          2   -1    0    0  503    0  0.00000000000E+00  0.00000000000E+00  0.66859490138E+03  0.66859490138E+03  0.00000000000E+00 0. -1.
         -2   -1    0    0    0  501 -0.00000000000E+00 -0.00000000000E+00 -0.11587635279E+01  0.11587635279E+01  0.00000000000E+00 0.  1.
         21    1    1    2  502  501 -0.13302458553E+02  0.18677503844E+02  0.14389347079E+03  0.14570907827E+03  0.00000000000E+00 0.  1.
         21    1    1    2  503  502  0.13302458553E+02 -0.18677503844E+02  0.52354266706E+03  0.52404458664E+03  0.00000000000E+00 0. -1.
</event>
<event>
 4    1  0.6008802E+002  0.2000213E+02  0.7546771E-02  0.1534003E+00
          2   -1    0    0  503    0  0.00000000000E+00  0.00000000000E+00  0.27641562403E+03  0.27641562403E+03  0.00000000000E+00 0.  1.
         -2   -1    0    0    0  501 -0.00000000000E+00 -0.00000000000E+00 -0.15345731373E+02  0.15345731373E+02  0.00000000000E+00 0. -1.
         21    1    1    2  502  501  0.85841166051E+01  0.18066492143E+02 -0.82956657616E+01  0.21654174347E+02  0.00000000000E+00 0. -1.
         21    1    1    2  503  502 -0.85841166051E+01 -0.18066492143E+02  0.26936555841E+03  0.27010718105E+03  0.00000000000E+00 0.  1.
</event>
<event>
 4    1  0.6008802E+002  0.2892520E+02  0.7546771E-02  0.1429172E+00
          2   -1    0    0  503    0  0.00000000000E+00  0.00000000000E+00  0.18408584785E+01  0.18408584785E+01  0.00000000000E+00 0.  1.
         -2   -1    0    0    0  501 -0.00000000000E+00 -0.00000000000E+00 -0.62629917891E+03  0.62629917891E+03  0.00000000000E+00 0. -1.
         21    1    1    2  502  501  0.25841145381E+02  0.12996248301E+02 -0.47672241801E+03  0.47759913222E+03  0.00000000000E+00 0. -1.
         21    1    1    2  503  502 -0.25841145381E+02 -0.12996248301E+02 -0.14773590242E+03  0.15054090517E+03  0.00000000000E+00 0.  1.
</event>
<event>
 4    1  0.6008802E+002  0.2344586E+02  0.7546771E-02  0.1486974E+00
          2   -1    0    0  503    0  0.00000000000E+00  0.00000000000E+00  0.56543925749E+00  0.56543925749E+00  0.00000000000E+00 0.  1.
         -2   -1    0    0    0  501 -0.00000000000E+00 -0.00000000000E+00 -0.12539876773E+04  0.12539876773E+04  0.00000000000E+00 0. -1.
         21    1    1    2  502  501  0.19062527243E+02  0.13650215666E+02 -0.92407580048E+03  0.92437318945E+03  0.00000000000E+00 0. -1.
         21    1    1    2  503  502 -0.19062527243E+02 -0.13650215666E+02 -0.32934643754E+03  0.33017992709E+03  0.00000000000E+00 0.  1.
</event>
<event>
 4    1  0.6008802E+002  0.2014644E+02  0.7546771E-02  0.1531809E+00
          2   -1    0    0  503    0  0.00000000000E+00  0.00000000000E+00  0.68751170964E+02  0.68751170964E+02  0.00000000000E+00 0.  1.
         -2   -1    0    0    0  501 -0.00000000000E+00 -0.00000000000E+00 -0.82175024804E+01  0.82175024804E+01  0.00000000000E+00 0. -1.
         21    1    1    2  502  501 -0.31516869743E+01 -0.19898390279E+02  0.98453603903E+01  0.22423429437E+02  0.00000000000E+00 0. -1.
         21    1    1    2  503  502  0.31516869743E+01  0.19898390279E+02  0.50688308093E+02  0.54545244007E+02  0.00000000000E+00 0.  1.
</event>
<event>
 4    1  0.6008802E+002  0.2269140E+02  0.7546771E-02  0.1496410E+00
          2   -1    0    0  503    0  0.00000000000E+00  0.00000000000E+00  0.46016478981E+01  0.46016478981E+01  0.00000000000E+00 0.  1.
         -2   -1    0    0    0  501 -0.00000000000E+00 -0.00000000000E+00 -0.11238770115E+03  0.11238770115E+03  0.00000000000E+00 0. -1.
         21    1    1    2  502  501 -0.25063580180E+01  0.22552556794E+02 -0.57767526098E+02  0.62064375611E+02  0.00000000000E+00 0.  1.
         21    1    1    2  503  502  0.25063580180E+01 -0.22552556794E+02 -0.50018527156E+02  0.54924973439E+02  0.00000000000E+00 0. -1.
</event>
<event>
 4    1  0.6008802E+002  0.3078725E+02  0.7546771E-02  0.1412876E+00
          2   -1    0    0  502    0  0.00000000000E+00  0.00000000000E+00  0.15256544622E+02  0.15256544622E+02  0.00000000000E+00 0. -1.
         -2   -1    0    0    0  501 -0.00000000000E+00 -0.00000000000E+00 -0.74871274603E+02  0.74871274603E+02  0.00000000000E+00 0.  1.
         21    1    1    2  502  503 -0.25529615495E+02  0.17207375347E+02 -0.48398922000E+02  0.57361229803E+02  0.00000000000E+00 0.  1.
         21    1    1    2  503  501  0.25529615495E+02 -0.17207375347E+02 -0.11215807981E+02  0.32766589421E+02  0.00000000000E+00 0. -1.
</event>
<event>
 4    1  0.6008802E+002  0.2118778E+02  0.7546771E-02  0.1516601E+00
          2   -1    0    0  502    0  0.00000000000E+00  0.00000000000E+00  0.87320091669E+03  0.87320091669E+03  0.00000000000E+00 0.  1.
         -2   -1    0    0    0  501 -0.00000000000E+00 -0.00000000000E+00 -0.12946015040E+02  0.12946015040E+02  0.00000000000E+00 0. -1.
         21    1    1    2  502  503  0.12704179128E+01  0.21149662179E+02  0.86431414871E+03  0.86457380821E+03  0.00000000000E+00 0.  1.
         21    1    1    2  503  501 -0.12704179128E+01 -0.21149662179E+02 -0.40592470596E+01  0.21573123526E+02  0.00000000000E+00 0. -1.
</event>
<event>
 4    1  0.6008802E+002  0.2980824E+02  0.7546771E-02  0.1421270E+00
          2   -1    0    0  503    0  0.00000000000E+00  0.00000000000E+00  0.20454871881E+03  0.20454871881E+03  0.00000000000E+00 0. -1.
         -2   -1    0    0    0  501 -0.00000000000E+00 -0.00000000000E+00 -0.13468444944E+02  0.13468444944E+02  0.00000000000E+00 0.  1.
         21    1    1    2  502  501  0.28953046616E+02 -0.70889021243E+01  0.58161693521E+01  0.30370368249E+02  0.00000000000E+00 0.  1.
         21    1    1    2  503  502 -0.28953046616E+02  0.70889021243E+01  0.18526410451E+03  0.18764679550E+03  0.00000000000E+00 0. -1.
</event>
<event>
 4    1  0.6008802E+002  0.2214058E+02  0.7546771E-02  0.1503581E+00
          2   -1    0    0  503    0  0.00000000000E+00  0.00000000000E+00  0.65142270559E+02  0.65142270559E+02  0.00000000000E+00 0. -1.
         -2   -1    0    0    0  501 -0.00000000000E+00 -0.00000000000E+00 -0.83103082371E+01  0.83103082371E+01  0.00000000000E+00 0.  1.
         21    1    1    2  502  501  0.20640839846E+02  0.80100533915E+01  0.17127184674E+02  0.27991885962E+02  0.00000000000E+00 0.  1.
         21    1    1    2  503  502 -0.20640839846E+02 -0.80100533915E+01  0.39704777648E+02  0.45460692834E+02  0.00000000000E+00 0. -1.
</event>
<event>
 4    1  0.6008802E+002  0.2845650E+02  0.7546771E-02  0.1433501E+00
          2   -1    0    0  503    0  0.00000000000E+00  0.00000000000E+00  0.12821234845E+04  0.12821234845E+04  0.00000000000E+00 0.  1.
         -2   -1    0    0    0  501 -0.00000000000E+00 -0.00000000000E+00 -0.79298155954E+00  0.79298155954E+00  0.00000000000E+00 0. -1.
         21    1    1    2  502  501  0.28305871451E+02  0.29240810451E+01  0.35127679888E+03  0.35242752736E+03  0.00000000000E+00 0. -1.
         21    1    1    2  503  502 -0.28305871451E+02 -0.29240810451E+01  0.93005370409E+03  0.93048893873E+03  0.00000000000E+00 0.  1.
</event>
<event>
 4    1  0.6008802E+002  0.2210670E+02  0.7546771E-02  0.1504031E+00
          2   -1    0    0  502    0  0.00000000000E+00  0.00000000000E+00  0.61991166140E+03  0.61991166140E+03  0.00000000000E+00 0.  1.
         -2   -1    0    0    0  501 -0.00000000000E+00 -0.00000000000E+00 -0.10844072514E+02  0.10844072514E+02  0.00000000000E+00 0. -1.
         21    1    1    2  502  503  0.12531975022E+02  0.18211424845E+02  0.60823161754E+03  0.60863322861E+03  0.00000000000E+00 0.  1.
         21    1    1    2  503  501 -0.12531975022E+02 -0.18211424845E+02  0.83597134687E+00  0.22122505304E+02  0.00000000000E+00 0. -1.
</event>
<event>
 4    1  0.6008802E+002  0.2315428E+02  0.7546771E-02  0.1490570E+00
          2   -1    0    0  502    0  0.00000000000E+00  0.00000000000E+00  0.12078687501E+04  0.12078687501E+04  0.00000000000E+00 0.  1.
         -2   -1    0    0    0  501 -0.00000000000E+00 -0.00000000000E+00 -0.52300222157E+00  0.52300222157E+00  0.00000000000E+00 0. -1.
         21    1    1    2  502  503  0.48181386483E+01  0.22647433009E+02  0.83871140352E+03  0.83903095239E+03  0.00000000000E+00 0.  1.
         21    1    1    2  503  501 -0.48181386483E+01 -0.22647433009E+02  0.36863434432E+03  0.36936079989E+03  0.00000000000E+00 0. -1.
</event>
<event>
 4    1  0.6008802E+002  0.2743184E+02  0.7546771E-02  0.1443318E+00
          2   -1    0    0  502    0  0.00000000000E+00  0.00000000000E+00  0.10621505425E+03  0.10621505425E+03  0.00000000000E+00 0.  1.
         -2   -1    0    0    0  501 -0.00000000000E+00 -0.00000000000E+00 -0.71710313752E+01  0.71710313752E+01  0.00000000000E+00 0. -1.
         21    1    1    2  502  503  0.25144780191E+02  0.10965668734E+02  0.55741103110E+02  0.62125489435E+02  0.00000000000E+00 0.  1.
         21    1    1    2  503  501 -0.25144780191E+02 -0.10965668734E+02  0.43302919767E+02  0.51260596193E+02  0.00000000000E+00 0. -1.
</event>
<event>
 4    1  0.6008802E+002  0.5601416E+02  0.7546771E-02  0.1274011E+00
          2   -1    0    0  503    0  0.00000000000E+00  0.00000000000E+00  0.55750045878E+03  0.55750045878E+03  0.00000000000E+00 0.  1.
         -2   -1    0    0    0  501 -0.00000000000E+00 -0.00000000000E+00 -0.68285628274E+01  0.68285628274E+01  0.00000000000E+00 0. -1.
         21    1    1    2  502  501 -0.48592009987E+02 -0.27864004013E+02  0.15702123492E+03  0.16671308998E+03  0.00000000000E+00 0. -1.
         21    1    1    2  503  502  0.48592009987E+02  0.27864004013E+02  0.39365066103E+03  0.39761593162E+03  0.00000000000E+00 0.  1.
</event>
<event>
 4    1  0.6008802E+002  0.2276316E+02  0.7546771E-02  0.1495494E+00
          2   -1    0    0  502    0  0.00000000000E+00  0.00000000000E+00  0.10806203639E+04  0.10806203639E+04  0.00000000000E+00 0. -1.
         -2   -1    0    0    0  501 -0.00000000000E+00 -0.00000000000E+00 -0.48858192721E+00  0.48858192721E+00  0.00000000000E+00 0.  1.
         21    1    1    2  502  503 -0.35413604944E+01  0.22486000355E+02  0.61374963078E+03  0.61417161342E+03  0.00000000000E+00 0. -1.
         21    1    1    2  503  501  0.35413604944E+01 -0.22486000355E+02  0.46638215123E+03  0.46693733244E+03  0.00000000000E+00 0.  1.
</event>
<event>
 4    1  0.6008802E+002  0.2060819E+02  0.7546771E-02  0.1524933E+00
          2   -1    0    0  503    0  0.00000000000E+00  0.00000000000E+00  0.15321885938E+04  0.15321885938E+04  0.00000000000E+00 0.  1.
         -2   -1    0    0    0  501 -0.00000000000E+00 -0.00000000000E+00 -0.32531637693E+00  0.32531637693E+00  0.00000000000E+00 0. -1.
         21    1    1    2  502  501 -0.19983821630E+02  0.50343140482E+01  0.47118949658E+03  0.47163994649E+03  0.00000000000E+00 0. -1.
         21    1    1    2  503  502  0.19983821630E+02 -0.50343140482E+01  0.10606737809E+04  0.10608739637E+04  0.00000000000E+00 0.  1.
</event>
<event>
 4    1  0.6008802E+002  0.4331376E+02  0.7546771E-02  0.1330090E+00
          2   -1    0    0  502    0  0.00000000000E+00  0.00000000000E+00  0.49456038681E+03  0.49456038681E+03  0.00000000000E+00 0.  1.
         -2   -1    0    0    0  501 -0.00000000000E+00 -0.00000000000E+00 -0.40324060643E+01  0.40324060643E+01  0.00000000000E+00 0. -1.
         21    1    1    2  502  503  0.15999537055E+02 -0.40250421712E+02  0.18457520386E+03  0.18958926002E+03  0.00000000000E+00 0. -1.
         21    1    1    2  503  501 -0.15999537055E+02  0.40250421712E+02  0.30595277688E+03  0.30900353286E+03  0.00000000000E+00 0.  1.
</event>
<event>
 4    1  0.6008802E+002  0.2458183E+02  0.7546771E-02  0.1473536E+00
          2   -1    0    0  502    0  0.00000000000E+00  0.00000000000E+00  0.12422829740E+03  0.12422829740E+03  0.00000000000E+00 0.  1.
         -2   -1    0    0    0  501 -0.00000000000E+00 -0.00000000000E+00 -0.56314085337E+01  0.56314085337E+01  0.00000000000E+00 0. -1.
         21    1    1    2  502  503 -0.22554483347E+02  0.97755528633E+01  0.83264927305E+02  0.86817707134E+02  0.00000000000E+00 0. -1.
         21    1    1    2  503  501  0.22554483347E+02 -0.97755528633E+01  0.35331961556E+02  0.43041998795E+02  0.00000000000E+00 0.  1.
</event>
<event>
 4    1  0.6008802E+002  0.2074360E+02  0.7546771E-02  0.1522957E+00
          2   -1    0    0  503    0  0.00000000000E+00  0.00000000000E+00  0.23914130544E+02  0.23914130544E+02  0.00000000000E+00 0.  1.
         -2   -1    0    0    0  501 -0.00000000000E+00 -0.00000000000E+00 -0.38831523724E+02  0.38831523724E+02  0.00000000000E+00 0. -1.
         21    1    1    2  502  501 -0.61898510049E+01  0.19798553253E+02 -0.30440841065E+02  0.36836690556E+02  0.00000000000E+00 0. -1.
         21    1    1    2  503  502  0.61898510049E+01 -0.19798553253E+02  0.15523447886E+02  0.25908963712E+02  0.00000000000E+00 0.  1.
</event>
<event>
 4    1  0.6008802E+002  0.2458400E+02  0.7546771E-02  0.1473511E+00
          2   -1    0    0  503    0  0.00000000000E+00  0.00000000000E+00  0.90586075313E+01  0.90586075313E+01  0.00000000000E+00 0. -1.
         -2   -1    0    0    0  501 -0.00000000000E+00 -0.00000000000E+00 -0.68332547202E+02  0.68332547202E+02  0.00000000000E+00 0.  1.
         21    1    1    2  502  501 -0.24529546394E+02 -0.16353048599E+01 -0.35584855886E+02  0.43251067463E+02  0.00000000000E+00 0. -1.
         21    1    1    2  503  502  0.24529546394E+02  0.16353048599E+01 -0.23689083784E+02  0.34140087270E+02  0.00000000000E+00 0.  1.
</event>
<event>
 4    1  0.6008802E+002  0.2686859E+02  0.7546771E-02  0.1448933E+00
          2   -1    0    0  502    0  0.00000000000E+00  0.00000000000E+00  0.12559956295E+03  0.12559956295E+03  0.00000000000E+00 0.  1.
         -2   -1    0    0    0  501 -0.00000000000E+00 -0.00000000000E+00 -0.10762089032E+03  0.10762089032E+03  0.00000000000E+00 0. -1.
         21    1    1    2  502  503 -0.18216668953E+02  0.19750299057E+02  0.12244288550E+03  0.12535621864E+03  0.00000000000E+00 0.  1.
         21    1    1    2  503  501  0.18216668953E+02 -0.19750299057E+02 -0.10446421287E+03  0.10786423463E+03  0.00000000000E+00 0. -1.
</event>
<event>
 4    1  0.6008802E+002  0.2227911E+02  0.7546771E-02  0.1501754E+00
          2   -1    0    0  502    0  0.00000000000E+00  0.00000000000E+00  0.43986434956E+01  0.43986434956E+01  0.00000000000E+00 0.  1.
         -2   -1    0    0    0  501 -0.00000000000E+00 -0.00000000000E+00 -0.13899268886E+03  0.13899268886E+03  0.00000000000E+00 0. -1.
         21    1    1    2  502  503  0.18305722928E+02 -0.12698798013E+02 -0.36199568468E+02  0.42506090389E+02  0.00000000000E+00 0.  1.
         21    1    1    2  503  501 -0.18305722928E+02  0.12698798013E+02 -0.98394476893E+02  0.10088524196E+03  0.00000000000E+00 0. -1.
</event>
<event>
 4    1  0.6008802E+002  0.3025736E+02  0.7546771E-02  0.1417373E+00
          2   -1    0    0  503    0  0.00000000000E+00  0.00000000000E+00  0.11879102023E+02  0.11879102023E+02  0.00000000000E+00 0. -1.
         -2   -1    0    0    0  501 -0.00000000000E+00 -0.00000000000E+00 -0.20836546299E+03  0.20836546299E+03  0.00000000000E+00 0.  1.
         21    1    1    2  502  501  0.23597804032E+02  0.18938092173E+02 -0.18565884096E+03  0.18810824787E+03  0.00000000000E+00 0.  1.
         21    1    1    2  503  502 -0.23597804032E+02 -0.18938092173E+02 -0.10827520013E+02  0.32136317150E+02  0.00000000000E+00 0. -1.
</event>
<event>
 4    1  0.6008802E+002  0.2300813E+02  0.7546771E-02  0.1492396E+00
          2   -1    0    0  503    0  0.00000000000E+00  0.00000000000E+00  0.89022514965E+03  0.89022514965E+03  0.00000000000E+00 0. -1.
         -2   -1    0    0    0  501 -0.00000000000E+00 -0.00000000000E+00 -0.45544958297E+01  0.45544958297E+01  0.00000000000E+00 0.  1.
         21    1    1    2  502  501 -0.32614216362E+01  0.22775801182E+02  0.25673091422E+02  0.34474361687E+02  0.00000000000E+00 0.  1.
         21    1    1    2  503  502  0.32614216362E+01 -0.22775801182E+02  0.85999756240E+03  0.86030528379E+03  0.00000000000E+00 0. -1.
</event>
<event>
 4    1  0.6008802E+002  0.2584897E+02  0.7546771E-02  0.1459526E+00
          2   -1    0    0  503    0  0.00000000000E+00  0.00000000000E+00  0.68340907759E+02  0.68340907759E+02  0.00000000000E+00 0.  1.
         -2   -1    0    0    0  501 -0.00000000000E+00 -0.00000000000E+00 -0.61172530738E+02  0.61172530738E+02  0.00000000000E+00 0. -1.
         21    1    1    2  502  501 -0.15076766950E+02  0.20996677791E+02 -0.55772446408E+02  0.61471417408E+02  0.00000000000E+00 0. -1.
         21    1    1    2  503  502  0.15076766950E+02 -0.20996677791E+02  0.62940823429E+02  0.68042021088E+02  0.00000000000E+00 0.  1.
</event>
<event>
 4    1  0.6008802E+002  0.2715290E+02  0.7546771E-02  0.1446078E+00
          2   -1    0    0  503    0  0.00000000000E+00  0.00000000000E+00  0.14308233288E+04  0.14308233288E+04  0.00000000000E+00 0.  1.
         -2   -1    0    0    0  501 -0.00000000000E+00 -0.00000000000E+00 -0.52986611757E+00  0.52986611757E+00  0.00000000000E+00 0. -1.
         21    1    1    2  502  501  0.34671809187E+01 -0.26930625039E+02  0.59641991481E+03  0.59703768280E+03  0.00000000000E+00 0.  1.
         21    1    1    2  503  502 -0.34671809187E+01  0.26930625039E+02  0.83387354788E+03  0.83431551212E+03  0.00000000000E+00 0. -1.
</event>
<event>
 4    1  0.6008802E+002  0.3965028E+02  0.7546771E-02  0.1350547E+00
          2   -1    0    0  502    0  0.00000000000E+00  0.00000000000E+00  0.59327411396E+03  0.59327411396E+03  0.00000000000E+00 0.  1.
         -2   -1    0    0    0  501 -0.00000000000E+00 -0.00000000000E+00 -0.86646187915E+01  0.86646187915E+01  0.00000000000E+00 0. -1.
         21    1    1    2  502  503  0.65088003991E+00  0.39644939860E+02  0.54306201825E+03  0.54450757623E+03  0.00000000000E+00 0.  1.
         21    1    1    2  503  501 -0.65088003991E+00 -0.39644939860E+02  0.41547476911E+02  0.57431156518E+02  0.00000000000E+00 0. -1.
</event>
<event>
 4    1  0.6008802E+002  0.2552738E+02  0.7546771E-02  0.1462989E+00
          2   -1    0    0  503    0  0.00000000000E+00  0.00000000000E+00  0.21309925332E+02  0.21309925332E+02  0.00000000000E+00 0. -1.
         -2   -1    0    0    0  501 -0.00000000000E+00 -0.00000000000E+00 -0.79300653898E+02  0.79300653898E+02  0.00000000000E+00 0.  1.
         21    1    1    2  502  501 -0.10520399429E+02 -0.23258727847E+02 -0.68426017897E+02  0.73032644416E+02  0.00000000000E+00 0.  1.
         21    1    1    2  503  502  0.10520399429E+02  0.23258727847E+02  0.10435289331E+02  0.27577934814E+02  0.00000000000E+00 0. -1.
</event>
<event>
 4    1  0.6008802E+002  0.2340673E+02  0.7546771E-02  0.1487453E+00
          2   -1    0    0  502    0  0.00000000000E+00  0.00000000000E+00  0.30002162698E+02  0.30002162698E+02  0.00000000000E+00 0.  1.
         -2   -1    0    0    0  501 -0.00000000000E+00 -0.00000000000E+00 -0.47830772944E+02  0.47830772944E+02  0.00000000000E+00 0. -1.
         21    1    1    2  502  503  0.10467813559E+02  0.20935613444E+02  0.21684351167E+02  0.31907461768E+02  0.00000000000E+00 0.  1.
         21    1    1    2  503  501 -0.10467813559E+02 -0.20935613444E+02 -0.39512961413E+02  0.45925473874E+02  0.00000000000E+00 0. -1.
</event>
<event>
 4    1  0.6008802E+002  0.2080781E+02  0.7546771E-02  0.1522027E+00
          2   -1    0    0  502    0  0.00000000000E+00  0.00000000000E+00  0.32177904416E+02  0.32177904416E+02  0.00000000000E+00 0. -1.
         -2   -1    0    0    0  501 -0.00000000000E+00 -0.00000000000E+00 -0.22253343403E+02  0.22253343403E+02  0.00000000000E+00 0.  1.
         21    1    1    2  502  503  0.16711842828E+02 -0.12396750167E+02  0.22074737478E+02  0.30335773274E+02  0.00000000000E+00 0. -1.
         21    1    1    2  503  501 -0.16711842828E+02  0.12396750167E+02 -0.12150176466E+02  0.24095474545E+02  0.00000000000E+00 0.  1.
</event>
<event>
 4    1  0.6008802E+002  0.2094955E+02  0.7546771E-02  0.1519986E+00
          2   -1    0    0  502    0  0.00000000000E+00  0.00000000000E+00  0.26874283366E+03  0.26874283366E+03  0.00000000000E+00 0. -1.
         -2   -1    0    0    0  501 -0.00000000000E+00 -0.00000000000E+00 -0.27605392018E+01  0.27605392018E+01  0.00000000000E+00 0.  1.
         21    1    1    2  502  503 -0.13122767749E+02  0.16330242334E+02  0.21974622282E+03  0.22074257924E+03  0.00000000000E+00 0. -1.
         21    1    1    2  503  501  0.13122767749E+02 -0.16330242334E+02  0.46236071640E+02  0.50760793618E+02  0.00000000000E+00 0.  1.
</event>
<event>
 4    1  0.6008802E+002  0.2003338E+02  0.7546771E-02  0.1533526E+00
          2   -1    0    0  503    0  0.00000000000E+00  0.00000000000E+00  0.57610529073E+02  0.57610529073E+02  0.00000000000E+00 0. -1.
         -2   -1    0    0    0  501 -0.00000000000E+00 -0.00000000000E+00 -0.12353364061E+02  0.12353364061E+02  0.00000000000E+00 0.  1.
         21    1    1    2  502  501 -0.20032059852E+02 -0.23027255334E+00 -0.47208185461E+00  0.20038944798E+02  0.00000000000E+00 0.  1.
         21    1    1    2  503  502  0.20032059852E+02  0.23027255334E+00  0.45729246866E+02  0.49924948336E+02  0.00000000000E+00 0. -1.
</event>
<event>
 4    1  0.6008802E+002  0.2388899E+02  0.7546771E-02  0.1481627E+00
          2   -1    0    0  502    0  0.00000000000E+00  0.00000000000E+00  0.96355692022E+00  0.96355692022E+00  0.00000000000E+00 0. -1.
         -2   -1    0    0    0  501 -0.00000000000E+00 -0.00000000000E+00 -0.59535752926E+03  0.59535752926E+03  0.00000000000E+00 0.  1.
         21    1    1    2  502  503  0.10960888680E+02  0.21225987466E+02 -0.27571721336E+03  0.27675018585E+03  0.00000000000E+00 0.  1.
         21    1    1    2  503  501 -0.10960888680E+02 -0.21225987466E+02 -0.31867675898E+03  0.31957090033E+03  0.00000000000E+00 0. -1.
</event>
<event>
 4    1  0.6008802E+002  0.2016984E+02  0.7546771E-02  0.1531455E+00
          2   -1    0    0  502    0  0.00000000000E+00  0.00000000000E+00  0.45795706058E+03  0.45795706058E+03  0.00000000000E+00 0. -1.
         -2   -1    0    0    0  501 -0.00000000000E+00 -0.00000000000E+00 -0.54198503741E+01  0.54198503741E+01  0.00000000000E+00 0.  1.
         21    1    1    2  502  503 -0.11718217863E+02 -0.16416636918E+02  0.43812039037E+03  0.43858442637E+03  0.00000000000E+00 0. -1.
         21    1    1    2  503  501  0.11718217863E+02  0.16416636918E+02  0.14416819836E+02  0.24792484582E+02  0.00000000000E+00 0.  1.
</event>
<event>
 4    1  0.6008802E+002  0.2112711E+02  0.7546771E-02  0.1517458E+00
          2   -1    0    0  503    0  0.00000000000E+00  0.00000000000E+00  0.21894933485E+02  0.21894933485E+02  0.00000000000E+00 0.  1.
         -2   -1    0    0    0  501 -0.00000000000E+00 -0.00000000000E+00 -0.36779837411E+02  0.36779837411E+02  0.00000000000E+00 0. -1.
         21    1    1    2  502  501  0.15601762653E+02  0.14245686424E+02 -0.27028829188E+02  0.34306153775E+02  0.00000000000E+00 0. -1.
         21    1    1    2  503  502 -0.15601762653E+02 -0.14245686424E+02  0.12143925263E+02  0.24368617120E+02  0.00000000000E+00 0.  1.
</event>
<event>
 4    1  0.6008802E+002  0.2958382E+02  0.7546771E-02  0.1423248E+00
          2   -1    0    0  502    0  0.00000000000E+00  0.00000000000E+00  0.12733085043E+03  0.12733085043E+03  0.00000000000E+00 0.  1.
         -2   -1    0    0    0  501 -0.00000000000E+00 -0.00000000000E+00 -0.11515521089E+02  0.11515521089E+02  0.00000000000E+00 0. -1.
         21    1    1    2  502  503 -0.27345323290E+02 -0.11288744032E+02  0.10198532731E+03  0.10618949776E+03  0.00000000000E+00 0.  1.
         21    1    1    2  503  501  0.27345323290E+02  0.11288744032E+02  0.13830002033E+02  0.32656873762E+02  0.00000000000E+00 0. -1.
</event>
<event>
 4    1  0.6008802E+002  0.3618721E+02  0.7546771E-02  0.1372404E+00
          2   -1    0    0  502    0  0.00000000000E+00  0.00000000000E+00  0.64749609850E+01  0.64749609850E+01  0.00000000000E+00 0. -1.
         -2   -1    0    0    0  501 -0.00000000000E+00 -0.00000000000E+00 -0.27518854420E+03  0.27518854420E+03  0.00000000000E+00 0.  1.
         21    1    1    2  502  503 -0.92149710391E+01  0.34994262300E+02 -0.61848869557E+02  0.71657496123E+02  0.00000000000E+00 0.  1.
         21    1    1    2  503  501  0.92149710391E+01 -0.34994262300E+02 -0.20686471366E+03  0.21000600906E+03  0.00000000000E+00 0. -1.
</event>
<event>
 4    1  0.6008802E+002  0.3922092E+02  0.7546771E-02  0.1353113E+00
          2   -1    0    0  503    0  0.00000000000E+00  0.00000000000E+00  0.41713693277E+02  0.41713693277E+02  0.00000000000E+00 0. -1.
         -2   -1    0    0    0  501 -0.00000000000E+00 -0.00000000000E+00 -0.41066124714E+03  0.41066124714E+03  0.00000000000E+00 0.  1.
         21    1    1    2  502  501  0.34166837937E+02  0.19258975161E+02 -0.40026665581E+03  0.40218363553E+03  0.00000000000E+00 0.  1.
         21    1    1    2  503  502 -0.34166837937E+02 -0.19258975161E+02  0.31319101948E+02  0.50191304881E+02  0.00000000000E+00 0. -1.
</event>
<event>
 4    1  0.6008802E+002  0.2254269E+02  0.7546771E-02  0.1498322E+00
          2   -1    0    0  502    0  0.00000000000E+00  0.00000000000E+00  0.38526746128E+01  0.38526746128E+01  0.00000000000E+00 0. -1.
         -2   -1    0    0    0  501 -0.00000000000E+00 -0.00000000000E+00 -0.17296121449E+03  0.17296121449E+03  0.00000000000E+00 0.  1.
         21    1    1    2  502  503 -0.22534806623E+02  0.59605543935E+00 -0.41479691482E+02  0.47209507486E+02  0.00000000000E+00 0. -1.
         21    1    1    2  503  501  0.22534806623E+02 -0.59605543935E+00 -0.12762884839E+03  0.12960438162E+03  0.00000000000E+00 0.  1.
</event>
<event>
 4    1  0.6008802E+002  0.3118802E+02  0.7546771E-02  0.1409546E+00
          2   -1    0    0  503    0  0.00000000000E+00  0.00000000000E+00  0.13006816963E+04  0.13006816963E+04  0.00000000000E+00 0.  1.
         -2   -1    0    0    0  501 -0.00000000000E+00 -0.00000000000E+00 -0.74817663621E+00  0.74817663621E+00  0.00000000000E+00 0. -1.
         21    1    1    2  502  501  0.28253083020E+02 -0.13208181896E+02  0.63602228598E+03  0.63678649564E+03  0.00000000000E+00 0. -1.
         21    1    1    2  503  502 -0.28253083020E+02  0.13208181896E+02  0.66391123366E+03  0.66464337727E+03  0.00000000000E+00 0.  1.
</event>
<event>
 4    1  0.6008802E+002  0.8390738E+02  0.7546771E-02  0.1195056E+00
          2   -1    0    0  503    0  0.00000000000E+00  0.00000000000E+00  0.39243371503E+03  0.39243371503E+03  0.00000000000E+00 0.  1.
         -2   -1    0    0    0  501 -0.00000000000E+00 -0.00000000000E+00 -0.21847781286E+02  0.21847781286E+02  0.00000000000E+00 0. -1.
         21    1    1    2  502  501  0.74265624912E+02 -0.39052088342E+02  0.97693714142E+02  0.12878086205E+03  0.00000000000E+00 0. -1.
         21    1    1    2  503  502 -0.74265624912E+02  0.39052088342E+02  0.27289221960E+03  0.28550063426E+03  0.00000000000E+00 0.  1.
</event>
<event>
 4    1  0.6008802E+002  0.2399526E+02  0.7546771E-02  0.1480365E+00
          2   -1    0    0  503    0  0.00000000000E+00  0.00000000000E+00  0.22449345144E+03  0.22449345144E+03  0.00000000000E+00 0. -1.
         -2   -1    0    0    0  501 -0.00000000000E+00 -0.00000000000E+00 -0.29396615702E+01  0.29396615702E+01  0.00000000000E+00 0.  1.
         21    1    1    2  502  501  0.60064799052E+01  0.23231331879E+02  0.70167014699E+02  0.74156473309E+02  0.00000000000E+00 0.  1.
         21    1    1    2  503  502 -0.60064799052E+01 -0.23231331879E+02  0.15138677517E+03  0.15327663971E+03  0.00000000000E+00 0. -1.
</event>
<event>
 4    1  0.6008802E+002  0.2046476E+02  0.7546771E-02  0.1527046E+00
          2   -1    0    0  502    0  0.00000000000E+00  0.00000000000E+00  0.66147450840E+02  0.66147450840E+02  0.00000000000E+00 0.  1.
         -2   -1    0    0    0  501 -0.00000000000E+00 -0.00000000000E+00 -0.14700304188E+02  0.14700304188E+02  0.00000000000E+00 0. -1.
         21    1    1    2  502  503  0.47288822956E+01 -0.19910906155E+02  0.56224209235E+02  0.59832835598E+02  0.00000000000E+00 0.  1.
         21    1    1    2  503  501 -0.47288822956E+01  0.19910906155E+02 -0.47770625827E+01  0.21014919429E+02  0.00000000000E+00 0. -1.
</event>
<event>
 4    1  0.6008802E+002  0.2879571E+02  0.7546771E-02  0.1430358E+00
          2   -1    0    0  503    0  0.00000000000E+00  0.00000000000E+00  0.19003569703E+03  0.19003569703E+03  0.00000000000E+00 0. -1.
         -2   -1    0    0    0  501 -0.00000000000E+00 -0.00000000000E+00 -0.84259288714E+01  0.84259288714E+01  0.00000000000E+00 0.  1.
         21    1    1    2  502  501 -0.28354366913E+02  0.50222314631E+01  0.21901846456E+02  0.36178499279E+02  0.00000000000E+00 0.  1.
         21    1    1    2  503  502  0.28354366913E+02 -0.50222314631E+01  0.15970792170E+03  0.16228312662E+03  0.00000000000E+00 0. -1.
</event>
<event>
 4    1  0.6008802E+002  0.2009344E+02  0.7546771E-02  0.1532612E+00
          2   -1    0    0  502    0  0.00000000000E+00  0.00000000000E+00  0.55954186153E+02  0.55954186153E+02  0.00000000000E+00 0. -1.
         -2   -1    0    0    0  501 -0.00000000000E+00 -0.00000000000E+00 -0.95536243491E+01  0.95536243491E+01  0.00000000000E+00 0.  1.
         21    1    1    2  502  503 -0.17739207337E+02  0.94375299168E+01  0.39403370828E+02  0.44230895090E+02  0.00000000000E+00 0. -1.
         21    1    1    2  503  501  0.17739207337E+02 -0.94375299168E+01  0.69971909758E+01  0.21276915412E+02  0.00000000000E+00 0.  1.
</event>
<event>
 4    1  0.6008802E+002  0.2944318E+02  0.7546771E-02  0.1424498E+00
          2   -1    0    0  503    0  0.00000000000E+00  0.00000000000E+00  0.84063008888E+00  0.84063008888E+00  0.00000000000E+00 0.  1.
         -2   -1    0    0    0  501 -0.00000000000E+00 -0.00000000000E+00 -0.17497853212E+04  0.17497853212E+04  0.00000000000E+00 0. -1.
         21    1    1    2  502  501  0.97855271860E+00 -0.29426916130E+02 -0.14353842005E+04  0.14356861440E+04  0.00000000000E+00 0. -1.
         21    1    1    2  503  502 -0.97855271860E+00  0.29426916130E+02 -0.31356049063E+03  0.31493980733E+03  0.00000000000E+00 0.  1.
</event>
<event>
 4    1  0.6008802E+002  0.2285409E+02  0.7546771E-02  0.1494339E+00
          2   -1    0    0  502    0  0.00000000000E+00  0.00000000000E+00  0.21037156445E+02  0.21037156445E+02  0.00000000000E+00 0.  1.
         -2   -1    0    0    0  501 -0.00000000000E+00 -0.00000000000E+00 -0.41240187594E+02  0.41240187594E+02  0.00000000000E+00 0. -1.
         21    1    1    2  502  503 -0.21962734625E+02  0.63204221863E+01  0.95422019817E+01  0.24766167800E+02  0.00000000000E+00 0. -1.
         21    1    1    2  503  501  0.21962734625E+02 -0.63204221863E+01 -0.29745233130E+02  0.37511176239E+02  0.00000000000E+00 0.  1.
</event>
<event>
 4    1  0.6008802E+002  0.2324874E+02  0.7546771E-02  0.1489398E+00
          2   -1    0    0  503    0  0.00000000000E+00  0.00000000000E+00  0.36043985088E+01  0.36043985088E+01  0.00000000000E+00 0.  1.
         -2   -1    0    0    0  501 -0.00000000000E+00 -0.00000000000E+00 -0.29862342608E+03  0.29862342608E+03  0.00000000000E+00 0. -1.
         21    1    1    2  502  501 -0.46727806676E+01 -0.22774309841E+02 -0.25413211036E+03  0.25519332590E+03  0.00000000000E+00 0. -1.
         21    1    1    2  503  502  0.46727806676E+01  0.22774309841E+02 -0.40886917216E+02  0.47034498694E+02  0.00000000000E+00 0.  1.
</event>
<event>
 4    1  0.6008802E+002  0.2258101E+02  0.7546771E-02  0.1497827E+00
          2   -1    0    0  503    0  0.00000000000E+00  0.00000000000E+00  0.22331288919E+02  0.22331288919E+02  0.00000000000E+00 0. -1.
         -2   -1    0    0    0  501 -0.00000000000E+00 -0.00000000000E+00 -0.25407186881E+02  0.25407186881E+02  0.00000000000E+00 0.  1.
         21    1    1    2  502  501 -0.16333839181E+02 -0.15591917002E+02 -0.91348330559E+01  0.24358722322E+02  0.00000000000E+00 0. -1.
         21    1    1    2  503  502  0.16333839181E+02  0.15591917002E+02  0.60589350938E+01  0.23379753478E+02  0.00000000000E+00 0.  1.
</event>
<event>
 4    1  0.6008802E+002  0.7577866E+02  0.7546771E-02  0.1214002E+00
          2   -1    0    0  503    0  0.00000000000E+00  0.00000000000E+00  0.80947642897E+03  0.80947642897E+03  0.00000000000E+00 0. -1.
         -2   -1    0    0    0  501 -0.00000000000E+00 -0.00000000000E+00 -0.70998012951E+01  0.70998012951E+01  0.00000000000E+00 0.  1.
         21    1    1    2  502  501 -0.64544642366E+02  0.39703832654E+02  0.38949179398E+03  0.39679498833E+03  0.00000000000E+00 0.  1.
         21    1    1    2  503  502  0.64544642366E+02 -0.39703832654E+02  0.41288483369E+03  0.41978124193E+03  0.00000000000E+00 0. -1.
</event>
<event>
 4    1  0.6008802E+002  0.1536820E+03  0.7546771E-02  0.1093902E+00
          2   -1    0    0  503    0  0.00000000000E+00  0.00000000000E+00  0.37789203309E+03  0.37789203309E+03  0.00000000000E+00 0. -1.
         -2   -1    0    0    0  501 -0.00000000000E+00 -0.00000000000E+00 -0.13346856720E+03  0.13346856720E+03  0.00000000000E+00 0.  1.
         21    1    1    2  502  501  0.81153833523E+02  0.13050749922E+03 -0.64229341376E+02  0.16656398273E+03  0.00000000000E+00 0.  1.
         21    1    1    2  503  502 -0.81153833523E+02 -0.13050749922E+03  0.30865280727E+03  0.34479661756E+03  0.00000000000E+00 0. -1.
</event>
<event>
 4    1  0.6008802E+002  0.3385838E+02  0.7546771E-02  0.1388772E+00
          2   -1    0    0  502    0  0.00000000000E+00  0.00000000000E+00  0.26409908793E+02  0.26409908793E+02  0.00000000000E+00 0.  1.
         -2   -1    0    0    0  501 -0.00000000000E+00 -0.00000000000E+00 -0.62847126914E+02  0.62847126914E+02  0.00000000000E+00 0. -1.
         21    1    1    2  502  503 -0.28374663158E+02  0.18473459064E+02  0.66020226935E+01  0.34496041842E+02  0.00000000000E+00 0. -1.
         21    1    1    2  503  501  0.28374663158E+02 -0.18473459064E+02 -0.43039240815E+02  0.54760993865E+02  0.00000000000E+00 0.  1.
</event>
<event>
 4    1  0.6008802E+002  0.2750592E+02  0.7546771E-02  0.1442591E+00
          2   -1    0    0  502    0  0.00000000000E+00  0.00000000000E+00  0.20146088966E+02  0.20146088966E+02  0.00000000000E+00 0.  1.
         -2   -1    0    0    0  501 -0.00000000000E+00 -0.00000000000E+00 -0.31890507120E+03  0.31890507120E+03  0.00000000000E+00 0. -1.
         21    1    1    2  502  503  0.14613462683E+02  0.23302840162E+02  0.98518129176E+01  0.29217013348E+02  0.00000000000E+00 0.  1.
         21    1    1    2  503  501 -0.14613462683E+02 -0.23302840162E+02 -0.30861079515E+03  0.30983414682E+03  0.00000000000E+00 0. -1.
</event>
<event>
 4    1  0.6008802E+002  0.2139769E+02  0.7546771E-02  0.1513662E+00
          2   -1    0    0  502    0  0.00000000000E+00  0.00000000000E+00  0.85458673712E+03  0.85458673712E+03  0.00000000000E+00 0.  1.
         -2   -1    0    0    0  501 -0.00000000000E+00 -0.00000000000E+00 -0.59036313895E+00  0.59036313895E+00  0.00000000000E+00 0. -1.
         21    1    1    2  502  503  0.18382108698E+02  0.10952598658E+02  0.55702660226E+03  0.55743743771E+03  0.00000000000E+00 0. -1.
         21    1    1    2  503  501 -0.18382108698E+02 -0.10952598658E+02  0.29696977172E+03  0.29773966255E+03  0.00000000000E+00 0.  1.
</event>
<event>
 4    1  0.6008802E+002  0.2035196E+02  0.7546771E-02  0.1528722E+00
          2   -1    0    0  502    0  0.00000000000E+00  0.00000000000E+00  0.51119027404E+02  0.51119027404E+02  0.00000000000E+00 0. -1.
         -2   -1    0    0    0  501 -0.00000000000E+00 -0.00000000000E+00 -0.13010456782E+02  0.13010456782E+02  0.00000000000E+00 0.  1.
         21    1    1    2  502  503  0.19676672808E+02 -0.51991310699E+01  0.38747778549E+02  0.43767485182E+02  0.00000000000E+00 0. -1.
         21    1    1    2  503  501 -0.19676672808E+02  0.51991310699E+01 -0.63920792732E+00  0.20361999004E+02  0.00000000000E+00 0.  1.
</event>
<event>
 4    1  0.6008802E+002  0.2017407E+02  0.7546771E-02  0.1531391E+00
          2   -1    0    0  503    0  0.00000000000E+00  0.00000000000E+00  0.14205384415E+01  0.14205384415E+01  0.00000000000E+00 0. -1.
         -2   -1    0    0    0  501 -0.00000000000E+00 -0.00000000000E+00 -0.30147120025E+03  0.30147120025E+03  0.00000000000E+00 0.  1.
         21    1    1    2  502  501 -0.17169691854E+02 -0.10592211997E+02 -0.11628333154E+03  0.11802036463E+03  0.00000000000E+00 0. -1.
         21    1    1    2  503  502  0.17169691854E+02  0.10592211997E+02 -0.18376733027E+03  0.18487137407E+03  0.00000000000E+00 0.  1.
</event>
<event>
 4    1  0.6008802E+002  0.3018386E+02  0.7546771E-02  0.1418005E+00
          2   -1    0    0  502    0  0.00000000000E+00  0.00000000000E+00  0.11315554618E+04  0.11315554618E+04  0.00000000000E+00 0.  1.
         -2   -1    0    0    0  501 -0.00000000000E+00 -0.00000000000E+00 -0.44237934640E+01  0.44237934640E+01  0.00000000000E+00 0. -1.
         21    1    1    2  502  503  0.31102891479E+01 -0.30023182542E+02  0.10772737116E+04  0.10776964857E+04  0.00000000000E+00 0.  1.
         21    1    1    2  503  501 -0.31102891479E+01  0.30023182542E+02  0.49857956720E+02  0.58282769639E+02  0.00000000000E+00 0. -1.
</event>
<event>
 4    1  0.6008802E+002  0.2086415E+02  0.7546771E-02  0.1521213E+00
          2   -1    0    0  503    0  0.00000000000E+00  0.00000000000E+00  0.25893419955E+02  0.25893419955E+02  0.00000000000E+00 0.  1.
         -2   -1    0    0    0  501 -0.00000000000E+00 -0.00000000000E+00 -0.17842272287E+02  0.17842272287E+02  0.00000000000E+00 0. -1.
         21    1    1    2  502  501  0.14828082669E+02  0.14677900109E+02 -0.12299628712E+01  0.20900373105E+02  0.00000000000E+00 0.  1.
         21    1    1    2  503  502 -0.14828082669E+02 -0.14677900109E+02  0.92811105386E+01  0.22835319137E+02  0.00000000000E+00 0. -1.
</event>
<event>
 4    1  0.6008802E+002  0.2319825E+02  0.7546771E-02  0.1490024E+00
          2   -1    0    0  503    0  0.00000000000E+00  0.00000000000E+00  0.57897577517E+02  0.57897577517E+02  0.00000000000E+00 0.  1.
         -2   -1    0    0    0  501 -0.00000000000E+00 -0.00000000000E+00 -0.10162208579E+02  0.10162208579E+02  0.00000000000E+00 0. -1.
         21    1    1    2  502  501  0.63147127294E+01 -0.22322257730E+02  0.13926804328E+02  0.27057617519E+02  0.00000000000E+00 0. -1.
         21    1    1    2  503  502 -0.63147127294E+01  0.22322257730E+02  0.33808564609E+02  0.41002168576E+02  0.00000000000E+00 0.  1.
</event>
<event>
 4    1  0.6008802E+002  0.3061630E+02  0.7546771E-02  0.1414315E+00
          2   -1    0    0  503    0  0.00000000000E+00  0.00000000000E+00  0.16676917182E+04  0.16676917182E+04  0.00000000000E+00 0. -1.
         -2   -1    0    0    0  501 -0.00000000000E+00 -0.00000000000E+00 -0.10379705073E+01  0.10379705073E+01  0.00000000000E+00 0.  1.
         21    1    1    2  502  501  0.18908452192E+02 -0.24079627706E+02  0.26836131873E+03  0.27010212036E+03  0.00000000000E+00 0.  1.
         21    1    1    2  503  502 -0.18908452192E+02  0.24079627706E+02  0.13982924289E+04  0.13986275683E+04  0.00000000000E+00 0. -1.
</event>
<event>
 4    1  0.6008802E+002  0.3296332E+02  0.7546771E-02  0.1395476E+00
          2   -1    0    0  503    0  0.00000000000E+00  0.00000000000E+00  0.70111803414E+01  0.70111803414E+01  0.00000000000E+00 0.  1.
         -2   -1    0    0    0  501 -0.00000000000E+00 -0.00000000000E+00 -0.15866817909E+03  0.15866817909E+03  0.00000000000E+00 0. -1.
         21    1    1    2  502  501  0.27431828629E+02 -0.18277733129E+02 -0.88461312263E+02  0.94403307768E+02  0.00000000000E+00 0. -1.
         21    1    1    2  503  502 -0.27431828629E+02  0.18277733129E+02 -0.63195686481E+02  0.71276051659E+02  0.00000000000E+00 0.  1.
</event>
<event>
 4    1  0.6008802E+002  0.2584905E+02  0.7546771E-02  0.1459525E+00
          2   -1    0    0  503    0  0.00000000000E+00  0.00000000000E+00  0.24218204462E+03  0.24218204462E+03  0.00000000000E+00 0.  1.
         -2   -1    0    0    0  501 -0.00000000000E+00 -0.00000000000E+00 -0.76762691055E+01  0.76762691055E+01  0.00000000000E+00 0. -1.
         21    1    1    2  502  501  0.25715658523E+02 -0.26226114367E+01  0.17263941405E+02  0.31084028968E+02  0.00000000000E+00 0. -1.
         21    1    1    2  503  502 -0.25715658523E+02  0.26226114367E+01  0.21724183411E+03  0.21877428476E+03  0.00000000000E+00 0.  1.
</event>
<event>
 4    1  0.6008802E+002  0.2476502E+02  0.7546771E-02  0.1471449E+00
          2   -1    0    0  503    0  0.00000000000E+00  0.00000000000E+00  0.73121113406E+03  0.73121113406E+03  0.00000000000E+00 0. -1.
         -2   -1    0    0    0  501 -0.00000000000E+00 -0.00000000000E+00 -0.84116606924E+00  0.84116606924E+00  0.00000000000E+00 0.  1.
         21    1    1    2  502  501 -0.21567381397E+01  0.24670926696E+02  0.38478610515E+03  0.38558222581E+03  0.00000000000E+00 0. -1.
         21    1    1    2  503  502  0.21567381397E+01 -0.24670926696E+02  0.34558386284E+03  0.34647007432E+03  0.00000000000E+00 0.  1.
</event>
<event>
 4    1  0.6008802E+002  0.3558513E+02  0.7546771E-02  0.1376496E+00
          2   -1    0    0  502    0  0.00000000000E+00  0.00000000000E+00  0.10911613805E+03  0.10911613805E+03  0.00000000000E+00 0.  1.
         -2   -1    0    0    0  501 -0.00000000000E+00 -0.00000000000E+00 -0.57764994031E+02  0.57764994031E+02  0.00000000000E+00 0. -1.
         21    1    1    2  502  503 -0.35533896393E+02 -0.19087600127E+01  0.10026501879E+03  0.10639255214E+03  0.00000000000E+00 0.  1.
         21    1    1    2  503  501  0.35533896393E+02  0.19087600127E+01 -0.48913874774E+02  0.60488579939E+02  0.00000000000E+00 0. -1.
</event>
<event>
 4    1  0.6008802E+002  0.2108144E+02  0.7546771E-02  0.1518105E+00
          2   -1    0    0  502    0  0.00000000000E+00  0.00000000000E+00  0.19396240289E+03  0.19396240289E+03  0.00000000000E+00 0. -1.
         -2   -1    0    0    0  501 -0.00000000000E+00 -0.00000000000E+00 -0.23264058766E+01  0.23264058766E+01  0.00000000000E+00 0.  1.
         21    1    1    2  502  503 -0.10496097026E+02 -0.18282754705E+02  0.10787327109E+03  0.10991391990E+03  0.00000000000E+00 0.  1.
         21    1    1    2  503  501  0.10496097026E+02  0.18282754705E+02  0.83762725924E+02  0.86374888866E+02  0.00000000000E+00 0. -1.
</event>
<event>
 4    1  0.6008802E+002  0.3016047E+02  0.7546771E-02  0.1418207E+00
          2   -1    0    0  502    0  0.00000000000E+00  0.00000000000E+00  0.27167702223E+03  0.27167702223E+03  0.00000000000E+00 0. -1.
         -2   -1    0    0    0  501 -0.00000000000E+00 -0.00000000000E+00 -0.60320060394E+01  0.60320060394E+01  0.00000000000E+00 0.  1.
         21    1    1    2  502  503  0.23221048231E+02  0.19246735238E+02  0.22544090692E+03  0.22744945903E+03  0.00000000000E+00 0. -1.
         21    1    1    2  503  501 -0.23221048231E+02 -0.19246735238E+02  0.40204109268E+02  0.50259569241E+02  0.00000000000E+00 0.  1.
</event>
<event>
 4    1  0.6008802E+002  0.2362992E+02  0.7546771E-02  0.1484736E+00
          2   -1    0    0  503    0  0.00000000000E+00  0.00000000000E+00  0.12603253051E+04  0.12603253051E+04  0.00000000000E+00 0.  1.
         -2   -1    0    0    0  501 -0.00000000000E+00 -0.00000000000E+00 -0.12149720900E+01  0.12149720900E+01  0.00000000000E+00 0. -1.
         21    1    1    2  502  501  0.34463158604E+01 -0.23377250255E+02  0.12677529885E+03  0.12895871169E+03  0.00000000000E+00 0. -1.
         21    1    1    2  503  502 -0.34463158604E+01  0.23377250255E+02  0.11323350342E+04  0.11325815655E+04  0.00000000000E+00 0.  1.
</event>
<event>
 4    1  0.6008802E+002  0.3483115E+02  0.7546771E-02  0.1381754E+00
          2   -1    0    0  502    0  0.00000000000E+00  0.00000000000E+00  0.56291590196E+03  0.56291590196E+03  0.00000000000E+00 0. -1.
         -2   -1    0    0    0  501 -0.00000000000E+00 -0.00000000000E+00 -0.27787055993E+01  0.27787055993E+01  0.00000000000E+00 0.  1.
         21    1    1    2  502  503  0.23094781809E+02  0.26073737068E+02  0.41404962665E+03  0.41551209614E+03  0.00000000000E+00 0. -1.
         21    1    1    2  503  501 -0.23094781809E+02 -0.26073737068E+02  0.14608756971E+03  0.15018251142E+03  0.00000000000E+00 0.  1.
</event>
<event>
 4    1  0.6008802E+002  0.3575976E+02  0.7546771E-02  0.1375299E+00
          2   -1    0    0  503    0  0.00000000000E+00  0.00000000000E+00  0.20382447467E+02  0.20382447467E+02  0.00000000000E+00 0.  1.
         -2   -1    0    0    0  501 -0.00000000000E+00 -0.00000000000E+00 -0.68913681176E+02  0.68913681176E+02  0.00000000000E+00 0. -1.
         21    1    1    2  502  501 -0.97407773343E+01  0.34407526155E+02 -0.37630985467E+02  0.51911960726E+02  0.00000000000E+00 0. -1.
         21    1    1    2  503  502  0.97407773343E+01 -0.34407526155E+02 -0.10900248242E+02  0.37384167918E+02  0.00000000000E+00 0.  1.
</event>
<event>
 4    1  0.6008802E+002  0.2154667E+02  0.7546771E-02  0.1511601E+00
          2   -1    0    0  502    0  0.00000000000E+00  0.00000000000E+00  0.33181633195E+03  0.33181633195E+03  0.00000000000E+00 0.  1.
         -2   -1    0    0    0  501 -0.00000000000E+00 -0.00000000000E+00 -0.64499391335E+01  0.64499391335E+01  0.00000000000E+00 0. -1.
         21    1    1    2  502  503 -0.13247169504E+02 -0.16993279241E+02  0.31235181206E+03  0.31309409693E+03  0.00000000000E+00 0.  1.
         21    1    1    2  503  501  0.13247169504E+02  0.16993279241E+02  0.13014580765E+02  0.25172174156E+02  0.00000000000E+00 0. -1.
</event>
<event>
 4    1  0.6008802E+002  0.2677878E+02  0.7546771E-02  0.1449843E+00
          2   -1    0    0  503    0  0.00000000000E+00  0.00000000000E+00  0.78130753217E+02  0.78130753217E+02  0.00000000000E+00 0.  1.
         -2   -1    0    0    0  501 -0.00000000000E+00 -0.00000000000E+00 -0.10477543811E+02  0.10477543811E+02  0.00000000000E+00 0. -1.
         21    1    1    2  502  501 -0.26721685652E+02 -0.17476955462E+01  0.49428226730E+02  0.56216123323E+02  0.00000000000E+00 0.  1.
         21    1    1    2  503  502  0.26721685652E+02  0.17476955462E+01  0.18224982676E+02  0.32392173705E+02  0.00000000000E+00 0. -1.
</event>
<event>
 4    1  0.6008802E+002  0.2442648E+02  0.7546771E-02  0.1475323E+00
          2   -1    0    0  502    0  0.00000000000E+00  0.00000000000E+00  0.60126325431E+03  0.60126325431E+03  0.00000000000E+00 0.  1.
         -2   -1    0    0    0  501 -0.00000000000E+00 -0.00000000000E+00 -0.34328029863E+01  0.34328029863E+01  0.00000000000E+00 0. -1.
         21    1    1    2  502  503 -0.22331776007E+02 -0.98966937114E+01  0.55384439232E+03  0.55438277721E+03  0.00000000000E+00 0.  1.
         21    1    1    2  503  501  0.22331776007E+02  0.98966937114E+01  0.43986059003E+02  0.50313280083E+02  0.00000000000E+00 0. -1.
</event>
<event>
 4    1  0.6008802E+002  0.2585209E+02  0.7546771E-02  0.1459493E+00
          2   -1    0    0  503    0  0.00000000000E+00  0.00000000000E+00  0.16322449508E+03  0.16322449508E+03  0.00000000000E+00 0. -1.
         -2   -1    0    0    0  501 -0.00000000000E+00 -0.00000000000E+00 -0.43382777618E+01  0.43382777618E+01  0.00000000000E+00 0.  1.
         21    1    1    2  502  501  0.17325345471E+02 -0.19187574211E+02  0.99301440608E+02  0.10261143555E+03  0.00000000000E+00 0. -1.
         21    1    1    2  503  502 -0.17325345471E+02  0.19187574211E+02  0.59584776709E+02  0.64951337286E+02  0.00000000000E+00 0.  1.
</event>
<event>
 4    1  0.6008802E+002  0.2501261E+02  0.7546771E-02  0.1468662E+00
          2   -1    0    0  502    0  0.00000000000E+00  0.00000000000E+00  0.15004220605E+02  0.15004220605E+02  0.00000000000E+00 0.  1.
         -2   -1    0    0    0  501 -0.00000000000E+00 -0.00000000000E+00 -0.93927545582E+02  0.93927545582E+02  0.00000000000E+00 0. -1.
         21    1    1    2  502  503  0.94028533487E+01  0.23177940523E+02 -0.80077036511E+02  0.83892564357E+02  0.00000000000E+00 0. -1.
         21    1    1    2  503  501 -0.94028533487E+01 -0.23177940523E+02  0.11537115336E+01  0.25039201830E+02  0.00000000000E+00 0.  1.
</event>
<event>
 4    1  0.6008802E+002  0.2107090E+02  0.7546771E-02  0.1518255E+00
          2   -1    0    0  502    0  0.00000000000E+00  0.00000000000E+00  0.58162852771E+02  0.58162852771E+02  0.00000000000E+00 0.  1.
         -2   -1    0    0    0  501 -0.00000000000E+00 -0.00000000000E+00 -0.32537402832E+02  0.32537402832E+02  0.00000000000E+00 0. -1.
         21    1    1    2  502  503 -0.16916950704E+02 -0.12561830372E+02  0.52488121823E+02  0.56559576872E+02  0.00000000000E+00 0.  1.
         21    1    1    2  503  501  0.16916950704E+02  0.12561830372E+02 -0.26862671884E+02  0.34140678730E+02  0.00000000000E+00 0. -1.
</event>
<event>
 4    1  0.6008802E+002  0.2410251E+02  0.7546771E-02  0.1479099E+00
          2   -1    0    0  502    0  0.00000000000E+00  0.00000000000E+00  0.39812226226E+03  0.39812226226E+03  0.00000000000E+00 0.  1.
         -2   -1    0    0    0  501 -0.00000000000E+00 -0.00000000000E+00 -0.18344037465E+01  0.18344037465E+01  0.00000000000E+00 0. -1.
         21    1    1    2  502  503 -0.21152366063E+02 -0.11554588584E+02  0.28858839479E+03  0.28959315033E+03  0.00000000000E+00 0.  1.
         21    1    1    2  503  501  0.21152366063E+02  0.11554588584E+02  0.10769946372E+03  0.11036351568E+03  0.00000000000E+00 0. -1.
</event>
<event>
 4    1  0.6008802E+002  0.2106849E+02  0.7546771E-02  0.1518289E+00
          2   -1    0    0  502    0  0.00000000000E+00  0.00000000000E+00  0.41698533597E+03  0.41698533597E+03  0.00000000000E+00 0. -1.
         -2   -1    0    0    0  501 -0.00000000000E+00 -0.00000000000E+00 -0.50450090269E+01  0.50450090269E+01  0.00000000000E+00 0.  1.
         21    1    1    2  502  503  0.91166002142E+01 -0.18993919714E+02  0.39340570754E+03  0.39396945580E+03  0.00000000000E+00 0. -1.
         21    1    1    2  503  501 -0.91166002142E+01  0.18993919714E+02  0.18534619403E+02  0.28060889187E+02  0.00000000000E+00 0.  1.
</event>
<event>
 4    1  0.6008802E+002  0.2004508E+02  0.7546771E-02  0.1533348E+00
          2   -1    0    0  502    0  0.00000000000E+00  0.00000000000E+00  0.10718808760E+03  0.10718808760E+03  0.00000000000E+00 0. -1.
         -2   -1    0    0    0  501 -0.00000000000E+00 -0.00000000000E+00 -0.10854963172E+02  0.10854963172E+02  0.00000000000E+00 0.  1.
         21    1    1    2  502  503  0.20646288454E+01 -0.19938471423E+02  0.95921681216E+02  0.97993746037E+02  0.00000000000E+00 0. -1.
         21    1    1    2  503  501 -0.20646288454E+01  0.19938471423E+02  0.41144321394E+00  0.20049304738E+02  0.00000000000E+00 0.  1.
</event>
<event>
 4    1  0.6008802E+002  0.2287095E+02  0.7546771E-02  0.1494125E+00
          2   -1    0    0  503    0  0.00000000000E+00  0.00000000000E+00  0.24549301835E+04  0.24549301835E+04  0.00000000000E+00 0. -1.
         -2   -1    0    0    0  501 -0.00000000000E+00 -0.00000000000E+00 -0.21611463813E+00  0.21611463813E+00  0.00000000000E+00 0.  1.
         21    1    1    2  502  501  0.18188630069E+02 -0.13865568877E+02  0.10817333024E+04  0.10819750541E+04  0.00000000000E+00 0.  1.
         21    1    1    2  503  502 -0.18188630069E+02  0.13865568877E+02  0.13729807664E+04  0.13731712440E+04  0.00000000000E+00 0. -1.
</event>
<event>
 4    1  0.6008802E+002  0.2257736E+02  0.7546771E-02  0.1497875E+00
          2   -1    0    0  503    0  0.00000000000E+00  0.00000000000E+00  0.50595130177E+01  0.50595130177E+01  0.00000000000E+00 0. -1.
         -2   -1    0    0    0  501 -0.00000000000E+00 -0.00000000000E+00 -0.18478509632E+03  0.18478509632E+03  0.00000000000E+00 0.  1.
         21    1    1    2  502  501  0.78764672973E+01  0.21158882284E+02 -0.15387601556E+03  0.15552351977E+03  0.00000000000E+00 0.  1.
         21    1    1    2  503  502 -0.78764672973E+01 -0.21158882284E+02 -0.25849567735E+02  0.34321089561E+02  0.00000000000E+00 0. -1.
</event>
<event>
 4    1  0.6008802E+002  0.2113832E+02  0.7546771E-02  0.1517299E+00
          2   -1    0    0  502    0  0.00000000000E+00  0.00000000000E+00  0.10822630180E+03  0.10822630180E+03  0.00000000000E+00 0.  1.
         -2   -1    0    0    0  501 -0.00000000000E+00 -0.00000000000E+00 -0.41288549118E+01  0.41288549118E+01  0.00000000000E+00 0. -1.
         21    1    1    2  502  503  0.13036767679E+02 -0.16639444683E+02  0.52445285966E+02  0.56544994924E+02  0.00000000000E+00 0. -1.
         21    1    1    2  503  501 -0.13036767679E+02  0.16639444683E+02  0.51652160924E+02  0.55810161789E+02  0.00000000000E+00 0.  1.
</event>
<event>
 4    1  0.6008802E+002  0.2126101E+02  0.7546771E-02  0.1515571E+00
          2   -1    0    0  502    0  0.00000000000E+00  0.00000000000E+00  0.15461912951E+04  0.15461912951E+04  0.00000000000E+00 0. -1.
         -2   -1    0    0    0  501 -0.00000000000E+00 -0.00000000000E+00 -0.35122070559E+01  0.35122070559E+01  0.00000000000E+00 0.  1.
         21    1    1    2  502  503 -0.11795992105E+01  0.21228260534E+02  0.15132419763E+04  0.15133913273E+04  0.00000000000E+00 0. -1.
         21    1    1    2  503  501  0.11795992105E+01 -0.21228260534E+02  0.29437111716E+02  0.36312174897E+02  0.00000000000E+00 0.  1.
</event>
<event>
 4    1  0.6008802E+002  0.2034980E+02  0.7546771E-02  0.1528754E+00
          2   -1    0    0  502    0  0.00000000000E+00  0.00000000000E+00  0.83425818232E+03  0.83425818232E+03  0.00000000000E+00 0. -1.
         -2   -1    0    0    0  501 -0.00000000000E+00 -0.00000000000E+00 -0.64983498782E+00  0.64983498782E+00  0.00000000000E+00 0.  1.
         21    1    1    2  502  503 -0.20297881503E+02  0.14526794090E+01  0.61966060644E+03  0.61999466243E+03  0.00000000000E+00 0. -1.
         21    1    1    2  503  501  0.20297881503E+02 -0.14526794090E+01  0.21394774089E+03  0.21491335487E+03  0.00000000000E+00 0.  1.
</event>
<event>
 4    1  0.6008802E+002  0.3938479E+02  0.7546771E-02  0.1352129E+00
          2   -1    0    0  502    0  0.00000000000E+00  0.00000000000E+00  0.92996957660E+02  0.92996957660E+02  0.00000000000E+00 0.  1.
         -2   -1    0    0    0  501 -0.00000000000E+00 -0.00000000000E+00 -0.23028066932E+02  0.23028066932E+02  0.00000000000E+00 0. -1.
         21    1    1    2  502  503 -0.39380238662E+02 -0.59859432283E+00  0.65444023521E+02  0.76381160811E+02  0.00000000000E+00 0.  1.
         21    1    1    2  503  501  0.39380238662E+02  0.59859432283E+00  0.45248672079E+01  0.39643863781E+02  0.00000000000E+00 0. -1.
</event>
<event>
 4    1  0.6008802E+002  0.3996050E+02  0.7546771E-02  0.1348717E+00
          2   -1    0    0  503    0  0.00000000000E+00  0.00000000000E+00  0.74716779333E+03  0.74716779333E+03  0.00000000000E+00 0. -1.
         -2   -1    0    0    0  501 -0.00000000000E+00 -0.00000000000E+00 -0.30764353303E+01  0.30764353303E+01  0.00000000000E+00 0.  1.
         21    1    1    2  502  501  0.39002800639E+02 -0.86961459213E+01  0.16477507428E+03  0.16955136837E+03  0.00000000000E+00 0. -1.
         21    1    1    2  503  502 -0.39002800639E+02  0.86961459213E+01  0.57931628371E+03  0.58069286028E+03  0.00000000000E+00 0.  1.
</event>
<event>
 4    1  0.6008802E+002  0.2995112E+02  0.7546771E-02  0.1420022E+00
          2   -1    0    0  502    0  0.00000000000E+00  0.00000000000E+00  0.21879346772E+03  0.21879346772E+03  0.00000000000E+00 0. -1.
         -2   -1    0    0    0  501 -0.00000000000E+00 -0.00000000000E+00 -0.43177623164E+01  0.43177623164E+01  0.00000000000E+00 0.  1.
         21    1    1    2  502  503 -0.44092737878E+01 -0.29624784368E+02  0.13228619619E+03  0.13563446187E+03  0.00000000000E+00 0. -1.
         21    1    1    2  503  501  0.44092737878E+01  0.29624784368E+02  0.82189509212E+02  0.87476768165E+02  0.00000000000E+00 0.  1.
</event>
<event>
 4    1  0.6008802E+002  0.2125752E+02  0.7546771E-02  0.1515620E+00
          2   -1    0    0  502    0  0.00000000000E+00  0.00000000000E+00  0.11106242210E+04  0.11106242210E+04  0.00000000000E+00 0.  1.
         -2   -1    0    0    0  501 -0.00000000000E+00 -0.00000000000E+00 -0.70793460680E+00  0.70793460680E+00  0.00000000000E+00 0. -1.
         21    1    1    2  502  503 -0.74181604637E+01  0.19921165891E+02  0.91732267731E+03  0.91756894905E+03  0.00000000000E+00 0.  1.
         21    1    1    2  503  501  0.74181604637E+01 -0.19921165891E+02  0.19259360906E+03  0.19376320654E+03  0.00000000000E+00 0. -1.
</event>
<event>
 4    1  0.6008802E+002  0.3090239E+02  0.7546771E-02  0.1411913E+00
          2   -1    0    0  503    0  0.00000000000E+00  0.00000000000E+00  0.21237566519E+04  0.21237566519E+04  0.00000000000E+00 0. -1.
         -2   -1    0    0    0  501 -0.00000000000E+00 -0.00000000000E+00 -0.44968642076E+00  0.44968642076E+00  0.00000000000E+00 0.  1.
         21    1    1    2  502  501  0.17296323299E+02 -0.25608497836E+02  0.10527862798E+04  0.10532397205E+04  0.00000000000E+00 0.  1.
         21    1    1    2  503  502 -0.17296323299E+02  0.25608497836E+02  0.10705206857E+04  0.10709666178E+04  0.00000000000E+00 0. -1.
</event>
<event>
 4    1  0.6008802E+002  0.3819600E+02  0.7546771E-02  0.1359394E+00
          2   -1    0    0  503    0  0.00000000000E+00  0.00000000000E+00  0.29621557268E+01  0.29621557268E+01  0.00000000000E+00 0. -1.
         -2   -1    0    0    0  501 -0.00000000000E+00 -0.00000000000E+00 -0.53764207300E+03  0.53764207300E+03  0.00000000000E+00 0.  1.
         21    1    1    2  502  501 -0.11693308309E+02  0.36362085096E+02 -0.34564234469E+03  0.34774640923E+03  0.00000000000E+00 0. -1.
         21    1    1    2  503  502  0.11693308309E+02 -0.36362085096E+02 -0.18903757259E+03  0.19285781950E+03  0.00000000000E+00 0.  1.
</event>
<event>
 4    1  0.6008802E+002  0.2172222E+02  0.7546771E-02  0.1509198E+00
          2   -1    0    0  503    0  0.00000000000E+00  0.00000000000E+00  0.65359322379E+00  0.65359322379E+00  0.00000000000E+00 0. -1.
         -2   -1    0    0    0  501 -0.00000000000E+00 -0.00000000000E+00 -0.12355289605E+04  0.12355289605E+04  0.00000000000E+00 0.  1.
         21    1    1    2  502  501 -0.12622000091E+02 -0.17678804430E+02 -0.10159429281E+04  0.10161751267E+04  0.00000000000E+00 0.  1.
         21    1    1    2  503  502  0.12622000091E+02  0.17678804430E+02 -0.21893243925E+03  0.22000742707E+03  0.00000000000E+00 0. -1.
</event>
<event>
 4    1  0.6008802E+002  0.4437201E+02  0.7546771E-02  0.1324610E+00
          2   -1    0    0  502    0  0.00000000000E+00  0.00000000000E+00  0.10772832625E+03  0.10772832625E+03  0.00000000000E+00 0. -1.
         -2   -1    0    0    0  501 -0.00000000000E+00 -0.00000000000E+00 -0.18384170387E+02  0.18384170387E+02  0.00000000000E+00 0.  1.
         21    1    1    2  502  503  0.23814594244E+01 -0.44308061620E+02  0.39842062174E+02  0.59634432938E+02  0.00000000000E+00 0. -1.
         21    1    1    2  503  501 -0.23814594244E+01  0.44308061620E+02  0.49502093686E+02  0.66478063696E+02  0.00000000000E+00 0.  1.
</event>
<event>
 4    1  0.6008802E+002  0.2561557E+02  0.7546771E-02  0.1462033E+00
          2   -1    0    0  503    0  0.00000000000E+00  0.00000000000E+00  0.63393909361E+01  0.63393909361E+01  0.00000000000E+00 0. -1.
         -2   -1    0    0    0  501 -0.00000000000E+00 -0.00000000000E+00 -0.11316794000E+03  0.11316794000E+03  0.00000000000E+00 0.  1.
         21    1    1    2  502  501  0.21140087908E+02  0.14465624055E+02 -0.70874958629E+02  0.75361909189E+02  0.00000000000E+00 0.  1.
         21    1    1    2  503  502 -0.21140087908E+02 -0.14465624055E+02 -0.35953590439E+02  0.44145421751E+02  0.00000000000E+00 0. -1.
</event>
<event>
 4    1  0.6008802E+002  0.2587026E+02  0.7546771E-02  0.1459299E+00
          2   -1    0    0  503    0  0.00000000000E+00  0.00000000000E+00  0.13897927805E+04  0.13897927805E+04  0.00000000000E+00 0.  1.
         -2   -1    0    0    0  501 -0.00000000000E+00 -0.00000000000E+00 -0.49813380326E+00  0.49813380326E+00  0.00000000000E+00 0. -1.
         21    1    1    2  502  501 -0.22906190464E+02  0.12024010204E+02  0.56785380011E+03  0.56844279280E+03  0.00000000000E+00 0. -1.
         21    1    1    2  503  502  0.22906190464E+02 -0.12024010204E+02  0.82144084656E+03  0.82184812148E+03  0.00000000000E+00 0.  1.
</event>
<event>
 4    1  0.6008802E+002  0.3021615E+02  0.7546771E-02  0.1417727E+00
          2   -1    0    0  502    0  0.00000000000E+00  0.00000000000E+00  0.10353748933E+04  0.10353748933E+04  0.00000000000E+00 0. -1.
         -2   -1    0    0    0  501 -0.00000000000E+00 -0.00000000000E+00 -0.11892727504E+01  0.11892727504E+01  0.00000000000E+00 0.  1.
         21    1    1    2  502  503 -0.58060669418E+01 -0.29653082681E+02  0.78061286517E+03  0.78119745327E+03  0.00000000000E+00 0. -1.
         21    1    1    2  503  501  0.58060669418E+01  0.29653082681E+02  0.25357275540E+03  0.25536671281E+03  0.00000000000E+00 0.  1.
</event>
<event>
 4    1  0.6008802E+002  0.2034159E+02  0.7546771E-02  0.1528876E+00
          2   -1    0    0  503    0  0.00000000000E+00  0.00000000000E+00  0.97864359930E+01  0.97864359930E+01  0.00000000000E+00 0. -1.
         -2   -1    0    0    0  501 -0.00000000000E+00 -0.00000000000E+00 -0.18827075469E+03  0.18827075469E+03  0.00000000000E+00 0.  1.
         21    1    1    2  502  501  0.55786041632E+01 -0.19561683416E+02 -0.17644494917E+03  0.17761362664E+03  0.00000000000E+00 0.  1.
         21    1    1    2  503  502 -0.55786041632E+01  0.19561683416E+02 -0.20393695264E+01  0.20443564037E+02  0.00000000000E+00 0. -1.
</event>
<event>
 4    1  0.6008802E+002  0.3041299E+02  0.7546771E-02  0.1416041E+00
          2   -1    0    0  503    0  0.00000000000E+00  0.00000000000E+00  0.10092634239E+03  0.10092634239E+03  0.00000000000E+00 0.  1.
         -2   -1    0    0    0  501 -0.00000000000E+00 -0.00000000000E+00 -0.15406092019E+02  0.15406092019E+02  0.00000000000E+00 0. -1.
         21    1    1    2  502  501  0.95543341267E+01 -0.28873253276E+02  0.57373802445E+01  0.30949435979E+02  0.00000000000E+00 0. -1.
         21    1    1    2  503  502 -0.95543341267E+01  0.28873253276E+02  0.79782870122E+02  0.85382998426E+02  0.00000000000E+00 0.  1.
</event>
<event>
 4    1  0.6008802E+002  0.4150135E+02  0.7546771E-02  0.1339906E+00
          2   -1    0    0  503    0  0.00000000000E+00  0.00000000000E+00  0.12674104176E+02  0.12674104176E+02  0.00000000000E+00 0.  1.
         -2   -1    0    0    0  501 -0.00000000000E+00 -0.00000000000E+00 -0.36482546862E+03  0.36482546862E+03  0.00000000000E+00 0. -1.
         21    1    1    2  502  501  0.12885447870E+02 -0.39450316296E+02 -0.32559406214E+03  0.32822835881E+03  0.00000000000E+00 0. -1.
         21    1    1    2  503  502 -0.12885447870E+02  0.39450316296E+02 -0.26557302304E+02  0.49271213992E+02  0.00000000000E+00 0.  1.
</event>
<event>
 4    1  0.6008802E+002  0.2197155E+02  0.7546771E-02  0.1505833E+00
          2   -1    0    0  503    0  0.00000000000E+00  0.00000000000E+00  0.43020517718E+03  0.43020517718E+03  0.00000000000E+00 0. -1.
         -2   -1    0    0    0  501 -0.00000000000E+00 -0.00000000000E+00 -0.11619061693E+01  0.11619061693E+01  0.00000000000E+00 0.  1.
         21    1    1    2  502  501 -0.21971271733E+02 -0.11038898105E+00  0.17461850057E+03  0.17599536843E+03  0.00000000000E+00 0. -1.
         21    1    1    2  503  502  0.21971271733E+02  0.11038898105E+00  0.25442477044E+03  0.25537171492E+03  0.00000000000E+00 0.  1.
</event>
<event>
 4    1  0.6008802E+002  0.2814089E+02  0.7546771E-02  0.1436472E+00
          2   -1    0    0  502    0  0.00000000000E+00  0.00000000000E+00  0.28376382688E+03  0.28376382688E+03  0.00000000000E+00 0. -1.
         -2   -1    0    0    0  501 -0.00000000000E+00 -0.00000000000E+00 -0.29520663032E+01  0.29520663032E+01  0.00000000000E+00 0.  1.
         21    1    1    2  502  503 -0.56518571834E+00  0.28135209153E+02  0.10689243663E+03  0.11053462099E+03  0.00000000000E+00 0.  1.
         21    1    1    2  503  501  0.56518571834E+00 -0.28135209153E+02  0.17391932395E+03  0.17618127219E+03  0.00000000000E+00 0. -1.
</event>
<event>
 4    1  0.6008802E+002  0.3941895E+02  0.7546771E-02  0.1351925E+00
          2   -1    0    0  502    0  0.00000000000E+00  0.00000000000E+00  0.51731237485E+03  0.51731237485E+03  0.00000000000E+00 0. -1.
         -2   -1    0    0    0  501 -0.00000000000E+00 -0.00000000000E+00 -0.43236986270E+01  0.43236986270E+01  0.00000000000E+00 0.  1.
         21    1    1    2  502  503 -0.15660266555E+02  0.36174712399E+02  0.40060490668E+03  0.40253961920E+03  0.00000000000E+00 0. -1.
         21    1    1    2  503  501  0.15660266555E+02 -0.36174712399E+02  0.11238376954E+03  0.11909645427E+03  0.00000000000E+00 0.  1.
</event>
<event>
 4    1  0.6008802E+002  0.2922292E+02  0.7546771E-02  0.1426471E+00
          2   -1    0    0  502    0  0.00000000000E+00  0.00000000000E+00  0.21325873419E+03  0.21325873419E+03  0.00000000000E+00 0.  1.
         -2   -1    0    0    0  501 -0.00000000000E+00 -0.00000000000E+00 -0.40342023656E+01  0.40342023656E+01  0.00000000000E+00 0. -1.
         21    1    1    2  502  503  0.27082899822E+02  0.10977060514E+02  0.11394600174E+03  0.11763362884E+03  0.00000000000E+00 0.  1.
         21    1    1    2  503  501 -0.27082899822E+02 -0.10977060514E+02  0.95278530080E+02  0.99659307717E+02  0.00000000000E+00 0. -1.
</event>
<event>
 4    1  0.6008802E+002  0.2271224E+02  0.7546771E-02  0.1496144E+00
          2   -1    0    0  502    0  0.00000000000E+00  0.00000000000E+00  0.59077119097E+03  0.59077119097E+03  0.00000000000E+00 0. -1.
         -2   -1    0    0    0  501 -0.00000000000E+00 -0.00000000000E+00 -0.13708954329E+01  0.13708954329E+01  0.00000000000E+00 0.  1.
         21    1    1    2  502  503  0.20130139681E+02  0.10517757307E+02  0.47309699018E+03  0.47364185611E+03  0.00000000000E+00 0. -1.
         21    1    1    2  503  501 -0.20130139681E+02 -0.10517757307E+02  0.11630330535E+03  0.11850023029E+03  0.00000000000E+00 0.  1.
</event>
<event>
 4    1  0.6008802E+002  0.2363839E+02  0.7546771E-02  0.1484634E+00
          2   -1    0    0  503    0  0.00000000000E+00  0.00000000000E+00  0.20322450846E+03  0.20322450846E+03  0.00000000000E+00 0. -1.
         -2   -1    0    0    0  501 -0.00000000000E+00 -0.00000000000E+00 -0.29710792694E+02  0.29710792694E+02  0.00000000000E+00 0.  1.
         21    1    1    2  502  501 -0.17596890076E+02  0.15783635483E+02 -0.24190825289E+02  0.33822621388E+02  0.00000000000E+00 0.  1.
         21    1    1    2  503  502  0.17596890076E+02 -0.15783635483E+02  0.19770454106E+03  0.19911267977E+03  0.00000000000E+00 0. -1.
</event>
<event>
 4    1  0.6008802E+002  0.2840577E+02  0.7546771E-02  0.1433976E+00
          2   -1    0    0  502    0  0.00000000000E+00  0.00000000000E+00  0.11309044554E+03  0.11309044554E+03  0.00000000000E+00 0.  1.
         -2   -1    0    0    0  501 -0.00000000000E+00 -0.00000000000E+00 -0.71464990691E+01  0.71464990691E+01  0.00000000000E+00 0. -1.
         21    1    1    2  502  503  0.24540667037E+01 -0.28299567810E+02  0.50549022203E+02  0.57983546177E+02  0.00000000000E+00 0.  1.
         21    1    1    2  503  501 -0.24540667037E+01  0.28299567810E+02  0.55394924264E+02  0.62253398428E+02  0.00000000000E+00 0. -1.
</event>
<event>
 4    1  0.6008802E+002  0.2591230E+02  0.7546771E-02  0.1458851E+00
          2   -1    0    0  502    0  0.00000000000E+00  0.00000000000E+00  0.39712961858E+01  0.39712961858E+01  0.00000000000E+00 0.  1.
         -2   -1    0    0    0  501 -0.00000000000E+00 -0.00000000000E+00 -0.19547374831E+03  0.19547374831E+03  0.00000000000E+00 0. -1.
         21    1    1    2  502  503  0.17939130270E+02 -0.18698524158E+02 -0.59104086281E+02  0.64534798486E+02  0.00000000000E+00 0.  1.
         21    1    1    2  503  501 -0.17939130270E+02  0.18698524158E+02 -0.13239836585E+03  0.13491024601E+03  0.00000000000E+00 0. -1.
</event>
<event>
 4    1  0.6008802E+002  0.3661226E+02  0.7546771E-02  0.1369569E+00
          2   -1    0    0  503    0  0.00000000000E+00  0.00000000000E+00  0.44129572228E+01  0.44129572228E+01  0.00000000000E+00 0.  1.
         -2   -1    0    0    0  501 -0.00000000000E+00 -0.00000000000E+00 -0.31255827916E+03  0.31255827916E+03  0.00000000000E+00 0. -1.
         21    1    1    2  502  501 -0.27182906608E+02  0.24526463186E+02 -0.12747480286E+03  0.13262836489E+03  0.00000000000E+00 0.  1.
         21    1    1    2  503  502  0.27182906608E+02 -0.24526463186E+02 -0.18067051908E+03  0.18434287150E+03  0.00000000000E+00 0. -1.
</event>
<event>
 4    1  0.6008802E+002  0.2052924E+02  0.7546771E-02  0.1526093E+00
          2   -1    0    0  502    0  0.00000000000E+00  0.00000000000E+00  0.62854997114E+02  0.62854997114E+02  0.00000000000E+00 0.  1.
         -2   -1    0    0    0  501 -0.00000000000E+00 -0.00000000000E+00 -0.52073369624E+02  0.52073369624E+02  0.00000000000E+00 0. -1.
         21    1    1    2  502  503  0.40846617563E+01  0.20118782160E+02  0.59027932922E+02  0.62495973649E+02  0.00000000000E+00 0.  1.
         21    1    1    2  503  501 -0.40846617563E+01 -0.20118782160E+02 -0.48246305431E+02  0.52432393089E+02  0.00000000000E+00 0. -1.
</event>
<event>
 4    1  0.6008802E+002  0.2441640E+02  0.7546771E-02  0.1475439E+00
          2   -1    0    0  503    0  0.00000000000E+00  0.00000000000E+00  0.17028023681E+02  0.17028023681E+02  0.00000000000E+00 0. -1.
         -2   -1    0    0    0  501 -0.00000000000E+00 -0.00000000000E+00 -0.52001583036E+02  0.52001583036E+02  0.00000000000E+00 0.  1.
         21    1    1    2  502  501  0.27955341657E+01  0.24255838535E+02 -0.37215859651E+02  0.44510458589E+02  0.00000000000E+00 0.  1.
         21    1    1    2  503  502 -0.27955341657E+01 -0.24255838535E+02  0.22423002956E+01  0.24519148128E+02  0.00000000000E+00 0. -1.
</event>
<event>
 4    1  0.6008802E+002  0.2193617E+02  0.7546771E-02  0.1506307E+00
          2   -1    0    0  502    0  0.00000000000E+00  0.00000000000E+00  0.11503814771E+03  0.11503814771E+03  0.00000000000E+00 0. -1.
         -2   -1    0    0    0  501 -0.00000000000E+00 -0.00000000000E+00 -0.53788856897E+01  0.53788856897E+01  0.00000000000E+00 0.  1.
         21    1    1    2  502  503 -0.21900246702E+02 -0.12548437870E+01  0.83219998935E+02  0.86062556674E+02  0.00000000000E+00 0. -1.
         21    1    1    2  503  501  0.21900246702E+02  0.12548437870E+01  0.26439263081E+02  0.34354476721E+02  0.00000000000E+00 0.  1.
</event>
<event>
 4    1  0.6008802E+002  0.2104043E+02  0.7546771E-02  0.1518688E+00
          2   -1    0    0  502    0  0.00000000000E+00  0.00000000000E+00  0.39596228927E+02  0.39596228927E+02  0.00000000000E+00 0.  1.
         -2   -1    0    0    0  501 -0.00000000000E+00 -0.00000000000E+00 -0.11719194641E+02  0.11719194641E+02  0.00000000000E+00 0. -1.
         21    1    1    2  502  503  0.19678824672E+02  0.74460294746E+01  0.19440292897E+02  0.28646544003E+02  0.00000000000E+00 0.  1.
         21    1    1    2  503  501 -0.19678824672E+02 -0.74460294746E+01  0.84367413891E+01  0.22668879564E+02  0.00000000000E+00 0. -1.
</event>
<event>
 4    1  0.6008802E+002  0.4677234E+02  0.7546771E-02  0.1312808E+00
          2   -1    0    0  503    0  0.00000000000E+00  0.00000000000E+00  0.96995925154E+03  0.96995925154E+03  0.00000000000E+00 0. -1.
         -2   -1    0    0    0  501 -0.00000000000E+00 -0.00000000000E+00 -0.72446435496E+01  0.72446435496E+01  0.00000000000E+00 0.  1.
         21    1    1    2  502  501  0.18518744042E+02  0.42950062690E+02  0.75882585977E+02  0.89139321405E+02  0.00000000000E+00 0.  1.
         21    1    1    2  503  502 -0.18518744042E+02 -0.42950062690E+02  0.88683202202E+03  0.88806457369E+03  0.00000000000E+00 0. -1.
</event>
<event>
 4    1  0.6008802E+002  0.2026124E+02  0.7546771E-02  0.1530079E+00
          2   -1    0    0  502    0  0.00000000000E+00  0.00000000000E+00  0.19919595261E+02  0.19919595261E+02  0.00000000000E+00 0.  1.
         -2   -1    0    0    0  501 -0.00000000000E+00 -0.00000000000E+00 -0.20608843406E+02  0.20608843406E+02  0.00000000000E+00 0. -1.
         21    1    1    2  502  503  0.99035810322E+01  0.17675888408E+02 -0.38788720186E+00  0.20264955089E+02  0.00000000000E+00 0.  1.
         21    1    1    2  503  501 -0.99035810322E+01 -0.17675888408E+02 -0.30136094339E+00  0.20263483578E+02  0.00000000000E+00 0. -1.
</event>
<event>
 4    1  0.6008802E+002  0.2751151E+02  0.7546771E-02  0.1442536E+00
          2   -1    0    0  503    0  0.00000000000E+00  0.00000000000E+00  0.59437664817E+02  0.59437664817E+02  0.00000000000E+00 0.  1.
         -2   -1    0    0    0  501 -0.00000000000E+00 -0.00000000000E+00 -0.22093467499E+02  0.22093467499E+02  0.00000000000E+00 0. -1.
         21    1    1    2  502  501 -0.13731108042E+02  0.23839877296E+02 -0.78608552774E+01  0.28612516898E+02  0.00000000000E+00 0.  1.
         21    1    1    2  503  502  0.13731108042E+02 -0.23839877296E+02  0.45205052595E+02  0.52918615417E+02  0.00000000000E+00 0. -1.
</event>
<event>
 4    1  0.6008802E+002  0.3214374E+02  0.7546771E-02  0.1401838E+00
          2   -1    0    0  502    0  0.00000000000E+00  0.00000000000E+00  0.94476036326E+02  0.94476036326E+02  0.00000000000E+00 0.  1.
         -2   -1    0    0    0  501 -0.00000000000E+00 -0.00000000000E+00 -0.17461447248E+02  0.17461447248E+02  0.00000000000E+00 0. -1.
         21    1    1    2  502  503  0.14509355282E+02 -0.28682719308E+02  0.72720995486E+02  0.79508257195E+02  0.00000000000E+00 0.  1.
         21    1    1    2  503  501 -0.14509355282E+02  0.28682719308E+02  0.42935935914E+01  0.32429226379E+02  0.00000000000E+00 0. -1.
</event>
<event>
 4    1  0.6008802E+002  0.2792344E+02  0.7546771E-02  0.1438546E+00
          2   -1    0    0  502    0  0.00000000000E+00  0.00000000000E+00  0.19754185847E+04  0.19754185847E+04  0.00000000000E+00 0. -1.
         -2   -1    0    0    0  501 -0.00000000000E+00 -0.00000000000E+00 -0.54931800951E+00  0.54931800951E+00  0.00000000000E+00 0.  1.
         21    1    1    2  502  503 -0.27805918840E+02 -0.25591899482E+01  0.15115817236E+04  0.15118396164E+04  0.00000000000E+00 0. -1.
         21    1    1    2  503  501  0.27805918840E+02  0.25591899482E+01  0.46328754310E+03  0.46412828632E+03  0.00000000000E+00 0.  1.
</event>
<event>
 4    1  0.6008802E+002  0.2226007E+02  0.7546771E-02  0.1502004E+00
          2   -1    0    0  503    0  0.00000000000E+00  0.00000000000E+00  0.49464974239E+01  0.49464974239E+01  0.00000000000E+00 0. -1.
         -2   -1    0    0    0  501 -0.00000000000E+00 -0.00000000000E+00 -0.11241556027E+03  0.11241556027E+03  0.00000000000E+00 0.  1.
         21    1    1    2  502  501  0.22160100914E+02 -0.21072963315E+01 -0.73098826082E+02  0.76413016855E+02  0.00000000000E+00 0.  1.
         21    1    1    2  503  502 -0.22160100914E+02  0.21072963315E+01 -0.34370236761E+02  0.40949040836E+02  0.00000000000E+00 0. -1.
</event>
<event>
 4    1  0.6008802E+002  0.2459381E+02  0.7546771E-02  0.1473399E+00
          2   -1    0    0  502    0  0.00000000000E+00  0.00000000000E+00  0.10476260424E+02  0.10476260424E+02  0.00000000000E+00 0. -1.
         -2   -1    0    0    0  501 -0.00000000000E+00 -0.00000000000E+00 -0.65380689050E+02  0.65380689050E+02  0.00000000000E+00 0.  1.
         21    1    1    2  502  503 -0.17460236215E+02  0.17320379139E+02 -0.14482633526E+02  0.28541234312E+02  0.00000000000E+00 0. -1.
         21    1    1    2  503  501  0.17460236215E+02 -0.17320379139E+02 -0.40421795099E+02  0.47315715162E+02  0.00000000000E+00 0.  1.
</event>
<event>
 4    1  0.6008802E+002  0.2043638E+02  0.7546771E-02  0.1527466E+00
          2   -1    0    0  503    0  0.00000000000E+00  0.00000000000E+00  0.15854323049E+03  0.15854323049E+03  0.00000000000E+00 0.  1.
         -2   -1    0    0    0  501 -0.00000000000E+00 -0.00000000000E+00 -0.75549786241E+01  0.75549786241E+01  0.00000000000E+00 0. -1.
         21    1    1    2  502  501  0.19475622058E+02  0.61924009742E+01  0.84698460492E+01  0.22122024692E+02  0.00000000000E+00 0. -1.
         21    1    1    2  503  502 -0.19475622058E+02 -0.61924009742E+01  0.14251840582E+03  0.14397618442E+03  0.00000000000E+00 0.  1.
</event>
<event>
 4    1  0.6008802E+002  0.2520742E+02  0.7546771E-02  0.1466496E+00
          2   -1    0    0  503    0  0.00000000000E+00  0.00000000000E+00  0.24449815127E+04  0.24449815127E+04  0.00000000000E+00 0. -1.
         -2   -1    0    0    0  501 -0.00000000000E+00 -0.00000000000E+00 -0.28299850150E+00  0.28299850150E+00  0.00000000000E+00 0.  1.
         21    1    1    2  502  501 -0.21550365754E+02 -0.13076532199E+02  0.87293800178E+03  0.87330187731E+03  0.00000000000E+00 0.  1.
         21    1    1    2  503  502  0.21550365754E+02  0.13076532199E+02  0.15717605124E+04  0.15719626339E+04  0.00000000000E+00 0. -1.
</event>
<event>
 4    1  0.6008802E+002  0.2718580E+02  0.7546771E-02  0.1445751E+00
          2   -1    0    0  502    0  0.00000000000E+00  0.00000000000E+00  0.80583057248E+03  0.80583057248E+03  0.00000000000E+00 0. -1.
         -2   -1    0    0    0  501 -0.00000000000E+00 -0.00000000000E+00 -0.71263400377E+01  0.71263400377E+01  0.00000000000E+00 0.  1.
         21    1    1    2  502  503 -0.57776446873E+01 -0.26564758783E+02  0.77877343969E+03  0.77924780266E+03  0.00000000000E+00 0. -1.
         21    1    1    2  503  501  0.57776446873E+01  0.26564758783E+02  0.19930792747E+02  0.33709109850E+02  0.00000000000E+00 0.  1.
</event>
<event>
 4    1  0.6008802E+002  0.5006764E+02  0.7546771E-02  0.1297879E+00
          2   -1    0    0  503    0  0.00000000000E+00  0.00000000000E+00  0.24116615934E+04  0.24116615934E+04  0.00000000000E+00 0. -1.
         -2   -1    0    0    0  501 -0.00000000000E+00 -0.00000000000E+00 -0.18466617506E+01  0.18466617506E+01  0.00000000000E+00 0.  1.
         21    1    1    2  502  501  0.50028820012E+02  0.19711999091E+01  0.40705506727E+03  0.41012266001E+03  0.00000000000E+00 0.  1.
         21    1    1    2  503  502 -0.50028820012E+02 -0.19711999091E+01  0.20027598644E+04  0.20033855952E+04  0.00000000000E+00 0. -1.
</event>
<event>
 4    1  0.6008802E+002  0.2014073E+02  0.7546771E-02  0.1531895E+00
          2   -1    0    0  502    0  0.00000000000E+00  0.00000000000E+00  0.80269734123E+03  0.80269734123E+03  0.00000000000E+00 0.  1.
         -2   -1    0    0    0  501 -0.00000000000E+00 -0.00000000000E+00 -0.66015162057E+00  0.66015162057E+00  0.00000000000E+00 0. -1.
         21    1    1    2  502  503  0.60384108367E+01  0.19214229091E+02  0.59552523877E+03  0.59586572230E+03  0.00000000000E+00 0.  1.
         21    1    1    2  503  501 -0.60384108367E+01 -0.19214229091E+02  0.20651195084E+03  0.20749177055E+03  0.00000000000E+00 0. -1.
</event>
<event>
 4    1  0.6008802E+002  0.2752702E+02  0.7546771E-02  0.1442385E+00
          2   -1    0    0  502    0  0.00000000000E+00  0.00000000000E+00  0.11158472563E+03  0.11158472563E+03  0.00000000000E+00 0. -1.
         -2   -1    0    0    0  501 -0.00000000000E+00 -0.00000000000E+00 -0.73373098735E+01  0.73373098735E+01  0.00000000000E+00 0.  1.
         21    1    1    2  502  503 -0.25448807764E+02  0.10492607094E+02  0.35894064869E+02  0.45234063636E+02  0.00000000000E+00 0.  1.
         21    1    1    2  503  501  0.25448807764E+02 -0.10492607094E+02  0.68353350883E+02  0.73687971862E+02  0.00000000000E+00 0. -1.
</event>
<event>
 4    1  0.6008802E+002  0.2775838E+02  0.7546771E-02  0.1440135E+00
          2   -1    0    0  502    0  0.00000000000E+00  0.00000000000E+00  0.70947619575E+00  0.70947619575E+00  0.00000000000E+00 0.  1.
         -2   -1    0    0    0  501 -0.00000000000E+00 -0.00000000000E+00 -0.17825237634E+04  0.17825237634E+04  0.00000000000E+00 0. -1.
         21    1    1    2  502  503 -0.27302200502E+02 -0.50117613593E+01 -0.33357728826E+03  0.33473024235E+03  0.00000000000E+00 0.  1.
         21    1    1    2  503  501  0.27302200502E+02  0.50117613593E+01 -0.14482369989E+04  0.14485029972E+04  0.00000000000E+00 0. -1.
</event>
<event>
 4    1  0.6008802E+002  0.2192060E+02  0.7546771E-02  0.1506516E+00
          2   -1    0    0  502    0  0.00000000000E+00  0.00000000000E+00  0.13329757426E+04  0.13329757426E+04  0.00000000000E+00 0. -1.
         -2   -1    0    0    0  501 -0.00000000000E+00 -0.00000000000E+00 -0.15945384923E+01  0.15945384923E+01  0.00000000000E+00 0.  1.
         21    1    1    2  502  503 -0.93881538151E+01  0.19808462949E+02  0.12527223901E+04  0.12529141628E+04  0.00000000000E+00 0. -1.
         21    1    1    2  503  501  0.93881538151E+01 -0.19808462949E+02  0.78658813956E+02  0.81656118260E+02  0.00000000000E+00 0.  1.
</event>
<event>
 4    1  0.6008802E+002  0.3750384E+02  0.7546771E-02  0.1363768E+00
          2   -1    0    0  503    0  0.00000000000E+00  0.00000000000E+00  0.29397112395E+02  0.29397112395E+02  0.00000000000E+00 0.  1.
         -2   -1    0    0    0  501 -0.00000000000E+00 -0.00000000000E+00 -0.50847912455E+02  0.50847912455E+02  0.00000000000E+00 0. -1.
         21    1    1    2  502  501 -0.56113883481E+01 -0.37081667361E+02 -0.20473993732E+02  0.42728470050E+02  0.00000000000E+00 0. -1.
         21    1    1    2  503  502  0.56113883481E+01  0.37081667361E+02 -0.97680632762E+00  0.37516554800E+02  0.00000000000E+00 0.  1.
</event>
<event>
 4    1  0.6008802E+002  0.5534833E+02  0.7546771E-02  0.1276513E+00
          2   -1    0    0  502    0  0.00000000000E+00  0.00000000000E+00  0.24067227702E+03  0.24067227702E+03  0.00000000000E+00 0. -1.
         -2   -1    0    0    0  501 -0.00000000000E+00 -0.00000000000E+00 -0.11086521595E+03  0.11086521595E+03  0.00000000000E+00 0.  1.
         21    1    1    2  502  503 -0.55293901394E+01 -0.55071439336E+02  0.23027454470E+03  0.23683285988E+03  0.00000000000E+00 0. -1.
         21    1    1    2  503  501  0.55293901394E+01  0.55071439336E+02 -0.10046748362E+03  0.11470463309E+03  0.00000000000E+00 0.  1.
</event>
<event>
 4    1  0.6008802E+002  0.3524836E+02  0.7546771E-02  0.1378826E+00
          2   -1    0    0  503    0  0.00000000000E+00  0.00000000000E+00  0.62780752746E+03  0.62780752746E+03  0.00000000000E+00 0. -1.
         -2   -1    0    0    0  501 -0.00000000000E+00 -0.00000000000E+00 -0.36019649442E+01  0.36019649442E+01  0.00000000000E+00 0.  1.
         21    1    1    2  502  501  0.14377669083E+02  0.32182756689E+02  0.10018738597E+03  0.10620715373E+03  0.00000000000E+00 0.  1.
         21    1    1    2  503  502 -0.14377669083E+02 -0.32182756689E+02  0.52401817654E+03  0.52520233867E+03  0.00000000000E+00 0. -1.
</event>
<event>
 4    1  0.6008802E+002  0.2014045E+02  0.7546771E-02  0.1531899E+00
          2   -1    0    0  502    0  0.00000000000E+00  0.00000000000E+00  0.30052789236E+03  0.30052789236E+03  0.00000000000E+00 0. -1.
         -2   -1    0    0    0  501 -0.00000000000E+00 -0.00000000000E+00 -0.45862120774E+01  0.45862120774E+01  0.00000000000E+00 0.  1.
         21    1    1    2  502  503 -0.15241819960E+02 -0.13165279968E+02  0.27612728448E+03  0.27686082227E+03  0.00000000000E+00 0. -1.
         21    1    1    2  503  501  0.15241819960E+02  0.13165279968E+02  0.19814395802E+02  0.28253282170E+02  0.00000000000E+00 0.  1.
</event>
<event>
 4    1  0.6008802E+002  0.3837606E+02  0.7546771E-02  0.1358274E+00
          2   -1    0    0  502    0  0.00000000000E+00  0.00000000000E+00  0.12859032392E+04  0.12859032392E+04  0.00000000000E+00 0.  1.
         -2   -1    0    0    0  501 -0.00000000000E+00 -0.00000000000E+00 -0.11813749591E+01  0.11813749591E+01  0.00000000000E+00 0. -1.
         21    1    1    2  502  503  0.18935793901E+02 -0.33378999943E+02  0.52987608391E+03  0.53126395156E+03  0.00000000000E+00 0. -1.
         21    1    1    2  503  501 -0.18935793901E+02  0.33378999943E+02  0.75484578033E+03  0.75582066260E+03  0.00000000000E+00 0.  1.
</event>
<event>
 4    1  0.6008802E+002  0.2414987E+02  0.7546771E-02  0.1478543E+00
          2   -1    0    0  502    0  0.00000000000E+00  0.00000000000E+00  0.83584185926E+00  0.83584185926E+00  0.00000000000E+00 0. -1.
         -2   -1    0    0    0  501 -0.00000000000E+00 -0.00000000000E+00 -0.72160119646E+03  0.72160119646E+03  0.00000000000E+00 0.  1.
         21    1    1    2  502  503 -0.56091780631E+01 -0.23489433645E+02 -0.29472395477E+03  0.29571172768E+03  0.00000000000E+00 0. -1.
         21    1    1    2  503  501  0.56091780631E+01  0.23489433645E+02 -0.42604139983E+03  0.42672531064E+03  0.00000000000E+00 0.  1.
</event>
<event>
 4    1  0.6008802E+002  0.2211862E+02  0.7546771E-02  0.1503872E+00
          2   -1    0    0  503    0  0.00000000000E+00  0.00000000000E+00  0.34240183230E+03  0.34240183230E+03  0.00000000000E+00 0. -1.
         -2   -1    0    0    0  501 -0.00000000000E+00 -0.00000000000E+00 -0.18544987474E+01  0.18544987474E+01  0.00000000000E+00 0.  1.
         21    1    1    2  502  501  0.17520011152E+02  0.13501207474E+02  0.87807564448E+02  0.90550548139E+02  0.00000000000E+00 0.  1.
         21    1    1    2  503  502 -0.17520011152E+02 -0.13501207474E+02  0.25273976910E+03  0.25370578290E+03  0.00000000000E+00 0. -1.
</event>
<event>
 4    1  0.6008802E+002  0.4059698E+02  0.7546771E-02  0.1345023E+00
          2   -1    0    0  502    0  0.00000000000E+00  0.00000000000E+00  0.18493402006E+03  0.18493402006E+03  0.00000000000E+00 0.  1.
         -2   -1    0    0    0  501 -0.00000000000E+00 -0.00000000000E+00 -0.15985815687E+02  0.15985815687E+02  0.00000000000E+00 0. -1.
         21    1    1    2  502  503 -0.24785431571E+02  0.32152711992E+02  0.15130159833E+03  0.15665340138E+03  0.00000000000E+00 0.  1.
         21    1    1    2  503  501  0.24785431571E+02 -0.32152711992E+02  0.17646606041E+02  0.44266434365E+02  0.00000000000E+00 0. -1.
</event>
<event>
 4    1  0.6008802E+002  0.2424359E+02  0.7546771E-02  0.1477446E+00
          2   -1    0    0  502    0  0.00000000000E+00  0.00000000000E+00  0.67129403540E+02  0.67129403540E+02  0.00000000000E+00 0.  1.
         -2   -1    0    0    0  501 -0.00000000000E+00 -0.00000000000E+00 -0.88307848192E+01  0.88307848192E+01  0.00000000000E+00 0. -1.
         21    1    1    2  502  503 -0.23344089758E+02 -0.65425780036E+01  0.32655976847E+02  0.40671423351E+02  0.00000000000E+00 0.  1.
         21    1    1    2  503  501  0.23344089758E+02  0.65425780036E+01  0.25642641874E+02  0.35288765008E+02  0.00000000000E+00 0. -1.
</event>
<event>
 4    1  0.6008802E+002  0.2035796E+02  0.7546771E-02  0.1528632E+00
          2   -1    0    0  503    0  0.00000000000E+00  0.00000000000E+00  0.33177993553E+03  0.33177993553E+03  0.00000000000E+00 0.  1.
         -2   -1    0    0    0  501 -0.00000000000E+00 -0.00000000000E+00 -0.16604924834E+01  0.16604924834E+01  0.00000000000E+00 0. -1.
         21    1    1    2  502  501  0.72674825399E+01 -0.19016578184E+02  0.82081181310E+02  0.84568119723E+02  0.00000000000E+00 0. -1.
         21    1    1    2  503  502 -0.72674825399E+01  0.19016578184E+02  0.24803826173E+03  0.24887230829E+03  0.00000000000E+00 0.  1.
</event>
<event>
 4    1  0.6008802E+002  0.2069361E+02  0.7546771E-02  0.1523685E+00
          2   -1    0    0  503    0  0.00000000000E+00  0.00000000000E+00  0.66144535082E+02  0.66144535082E+02  0.00000000000E+00 0.  1.
         -2   -1    0    0    0  501 -0.00000000000E+00 -0.00000000000E+00 -0.10157699007E+02  0.10157699007E+02  0.00000000000E+00 0. -1.
         21    1    1    2  502  501 -0.92934347920E+01  0.18489393137E+02  0.50188990815E+01  0.21293542138E+02  0.00000000000E+00 0. -1.
         21    1    1    2  503  502  0.92934347920E+01 -0.18489393137E+02  0.50967936993E+02  0.55008691951E+02  0.00000000000E+00 0.  1.
</event>
<event>
 4    1  0.6008802E+002  0.2599124E+02  0.7546771E-02  0.1458013E+00
          2   -1    0    0  502    0  0.00000000000E+00  0.00000000000E+00  0.81936668552E+03  0.81936668552E+03  0.00000000000E+00 0. -1.
         -2   -1    0    0    0  501 -0.00000000000E+00 -0.00000000000E+00 -0.23617799902E+01  0.23617799902E+01  0.00000000000E+00 0.  1.
         21    1    1    2  502  503 -0.16232637666E+02  0.20298912025E+02  0.73998384256E+03  0.74044016071E+03  0.00000000000E+00 0. -1.
         21    1    1    2  503  501  0.16232637666E+02 -0.20298912025E+02  0.77021062979E+02  0.81288304800E+02  0.00000000000E+00 0.  1.
</event>
<event>
 4    1  0.6008802E+002  0.2442920E+02  0.7546771E-02  0.1475291E+00
          2   -1    0    0  503    0  0.00000000000E+00  0.00000000000E+00  0.10478235579E+03  0.10478235579E+03  0.00000000000E+00 0. -1.
         -2   -1    0    0    0  501 -0.00000000000E+00 -0.00000000000E+00 -0.62081257376E+01  0.62081257376E+01  0.00000000000E+00 0.  1.
         21    1    1    2  502  501  0.22635874509E+02 -0.91871109804E+01  0.65234303156E+02  0.69658453408E+02  0.00000000000E+00 0.  1.
         21    1    1    2  503  502 -0.22635874509E+02  0.91871109804E+01  0.33339926894E+02  0.41332028117E+02  0.00000000000E+00 0. -1.
</event>
<event>
 4    1  0.6008802E+002  0.3829974E+02  0.7546771E-02  0.1358748E+00
          2   -1    0    0  502    0  0.00000000000E+00  0.00000000000E+00  0.15165594915E+03  0.15165594915E+03  0.00000000000E+00 0. -1.
         -2   -1    0    0    0  501 -0.00000000000E+00 -0.00000000000E+00 -0.29193088759E+02  0.29193088759E+02  0.00000000000E+00 0.  1.
         21    1    1    2  502  503  0.81669156103E+00  0.38291033969E+02  0.13517394990E+03  0.14049507820E+03  0.00000000000E+00 0. -1.
         21    1    1    2  503  501 -0.81669156103E+00 -0.38291033969E+02 -0.12711089508E+02  0.40353959707E+02  0.00000000000E+00 0.  1.
</event>
<event>
 4    1  0.6008802E+002  0.2127925E+02  0.7546771E-02  0.1515315E+00
          2   -1    0    0  503    0  0.00000000000E+00  0.00000000000E+00  0.11486600595E+04  0.11486600595E+04  0.00000000000E+00 0.  1.
         -2   -1    0    0    0  501 -0.00000000000E+00 -0.00000000000E+00 -0.48494976881E+00  0.48494976881E+00  0.00000000000E+00 0. -1.
         21    1    1    2  502  501 -0.15753977242E+02  0.14304491663E+02  0.82263533082E+03  0.82291050169E+03  0.00000000000E+00 0. -1.
         21    1    1    2  503  502  0.15753977242E+02 -0.14304491663E+02  0.32553977889E+03  0.32623450755E+03  0.00000000000E+00 0.  1.
</event>
<event>
 4    1  0.6008802E+002  0.2685292E+02  0.7546771E-02  0.1449091E+00
          2   -1    0    0  503    0  0.00000000000E+00  0.00000000000E+00  0.10768188683E+03  0.10768188683E+03  0.00000000000E+00 0. -1.
         -2   -1    0    0    0  501 -0.00000000000E+00 -0.00000000000E+00 -0.14120252128E+02  0.14120252128E+02  0.00000000000E+00 0.  1.
         21    1    1    2  502  501  0.12966124935E+02 -0.23515082939E+02  0.26218663576E+01  0.26980617203E+02  0.00000000000E+00 0.  1.
         21    1    1    2  503  502 -0.12966124935E+02  0.23515082939E+02  0.90939768344E+02  0.94821521755E+02  0.00000000000E+00 0. -1.
</event>
<event>
 4    1  0.6008802E+002  0.3180877E+02  0.7546771E-02  0.1404503E+00
          2   -1    0    0  502    0  0.00000000000E+00  0.00000000000E+00  0.18867149217E+03  0.18867149217E+03  0.00000000000E+00 0.  1.
         -2   -1    0    0    0  501 -0.00000000000E+00 -0.00000000000E+00 -0.77186443129E+01  0.77186443129E+01  0.00000000000E+00 0. -1.
         21    1    1    2  502  503 -0.28986137135E+02  0.13099673833E+02  0.14472611644E+03  0.14818045208E+03  0.00000000000E+00 0. -1.
         21    1    1    2  503  501  0.28986137135E+02 -0.13099673833E+02  0.36226731419E+02  0.48209684399E+02  0.00000000000E+00 0.  1.
</event>
<event>
 4    1  0.6008802E+002  0.2531345E+02  0.7546771E-02  0.1465327E+00
          2   -1    0    0  503    0  0.00000000000E+00  0.00000000000E+00  0.33751893457E+02  0.33751893457E+02  0.00000000000E+00 0. -1.
         -2   -1    0    0    0  501 -0.00000000000E+00 -0.00000000000E+00 -0.10828279393E+03  0.10828279393E+03  0.00000000000E+00 0.  1.
         21    1    1    2  502  501 -0.16367919969E+02 -0.19309628532E+02 -0.10175743178E+03  0.10485869292E+03  0.00000000000E+00 0.  1.
         21    1    1    2  503  502  0.16367919969E+02  0.19309628532E+02  0.27226531304E+02  0.37175994472E+02  0.00000000000E+00 0. -1.
</event>
<event>
 4    1  0.6008802E+002  0.2290497E+02  0.7546771E-02  0.1493695E+00
          2   -1    0    0  503    0  0.00000000000E+00  0.00000000000E+00  0.18451671945E+04  0.18451671945E+04  0.00000000000E+00 0.  1.
         -2   -1    0    0    0  501 -0.00000000000E+00 -0.00000000000E+00 -0.45525862572E+00  0.45525862572E+00  0.00000000000E+00 0. -1.
         21    1    1    2  502  501  0.21877115696E+02 -0.67845130957E+01  0.35691118674E+03  0.35764540124E+03  0.00000000000E+00 0. -1.
         21    1    1    2  503  502 -0.21877115696E+02  0.67845130957E+01  0.14878007492E+04  0.14879770519E+04  0.00000000000E+00 0.  1.
</event>
<event>
 4    1  0.6008802E+002  0.3168076E+02  0.7546771E-02  0.1405532E+00
          2   -1    0    0  503    0  0.00000000000E+00  0.00000000000E+00  0.72454239830E+01  0.72454239830E+01  0.00000000000E+00 0. -1.
         -2   -1    0    0    0  501 -0.00000000000E+00 -0.00000000000E+00 -0.40301003044E+03  0.40301003044E+03  0.00000000000E+00 0.  1.
         21    1    1    2  502  501  0.25656832336E+02  0.18584865532E+02 -0.36405789153E+03  0.36543374045E+03  0.00000000000E+00 0.  1.
         21    1    1    2  503  502 -0.25656832336E+02 -0.18584865532E+02 -0.31706714933E+02  0.44821713981E+02  0.00000000000E+00 0. -1.
</event>
<event>
 4    1  0.6008802E+002  0.2733249E+02  0.7546771E-02  0.1444296E+00
          2   -1    0    0  502    0  0.00000000000E+00  0.00000000000E+00  0.49545318918E+03  0.49545318918E+03  0.00000000000E+00 0.  1.
         -2   -1    0    0    0  501 -0.00000000000E+00 -0.00000000000E+00 -0.26379605859E+01  0.26379605859E+01  0.00000000000E+00 0. -1.
         21    1    1    2  502  503 -0.95638743593E+01 -0.25604634545E+02  0.40941479470E+03  0.41032613750E+03  0.00000000000E+00 0.  1.
         21    1    1    2  503  501  0.95638743593E+01  0.25604634545E+02  0.83400433898E+02  0.87765012262E+02  0.00000000000E+00 0. -1.
</event>
<event>
 4    1  0.6008802E+002  0.3032330E+02  0.7546771E-02  0.1416807E+00
          2   -1    0    0  502    0  0.00000000000E+00  0.00000000000E+00  0.74814325575E+02  0.74814325575E+02  0.00000000000E+00 0.  1.
         -2   -1    0    0    0  501 -0.00000000000E+00 -0.00000000000E+00 -0.16933740360E+02  0.16933740360E+02  0.00000000000E+00 0. -1.
         21    1    1    2  502  503 -0.23600198731E+02 -0.19040297666E+02  0.52961953284E+02  0.61028442640E+02  0.00000000000E+00 0.  1.
         21    1    1    2  503  501  0.23600198731E+02  0.19040297666E+02  0.49186319300E+01  0.30719623295E+02  0.00000000000E+00 0. -1.
</event>
<event>
 4    1  0.6008802E+002  0.2206441E+02  0.7546771E-02  0.1504593E+00
          2   -1    0    0  503    0  0.00000000000E+00  0.00000000000E+00  0.89785390072E+03  0.89785390072E+03  0.00000000000E+00 0.  1.
         -2   -1    0    0    0  501 -0.00000000000E+00 -0.00000000000E+00 -0.67024911339E+01  0.67024911339E+01  0.00000000000E+00 0. -1.
         21    1    1    2  502  501  0.22100576774E+01  0.21953449986E+02  0.11977690622E+02  0.25105843819E+02  0.00000000000E+00 0. -1.
         21    1    1    2  503  502 -0.22100576774E+01 -0.21953449986E+02  0.87917371896E+03  0.87945054803E+03  0.00000000000E+00 0.  1.
</event>
<event>
 4    1  0.6008802E+002  0.2874157E+02  0.7546771E-02  0.1430857E+00
          2   -1    0    0  502    0  0.00000000000E+00  0.00000000000E+00  0.76559094995E+03  0.76559094995E+03  0.00000000000E+00 0. -1.
         -2   -1    0    0    0  501 -0.00000000000E+00 -0.00000000000E+00 -0.14816986448E+01  0.14816986448E+01  0.00000000000E+00 0.  1.
         21    1    1    2  502  503 -0.26944596459E+02  0.10003338863E+02  0.58200067071E+03  0.58270992678E+03  0.00000000000E+00 0. -1.
         21    1    1    2  503  501  0.26944596459E+02 -0.10003338863E+02  0.18210858060E+03  0.18436272182E+03  0.00000000000E+00 0.  1.
</event>
<event>
 4    1  0.6008802E+002  0.2422312E+02  0.7546771E-02  0.1477685E+00
          2   -1    0    0  502    0  0.00000000000E+00  0.00000000000E+00  0.41575522958E+03  0.41575522958E+03  0.00000000000E+00 0.  1.
         -2   -1    0    0    0  501 -0.00000000000E+00 -0.00000000000E+00 -0.18761654619E+01  0.18761654619E+01  0.00000000000E+00 0. -1.
         21    1    1    2  502  503  0.23478457663E+02  0.59600022090E+01  0.31088042552E+03  0.31182270374E+03  0.00000000000E+00 0.  1.
         21    1    1    2  503  501 -0.23478457663E+02 -0.59600022090E+01  0.10299863861E+03  0.10580869130E+03  0.00000000000E+00 0. -1.
</event>
<event>
 4    1  0.6008802E+002  0.2054561E+02  0.7546771E-02  0.1525852E+00
          2   -1    0    0  502    0  0.00000000000E+00  0.00000000000E+00  0.70290639994E+01  0.70290639994E+01  0.00000000000E+00 0.  1.
         -2   -1    0    0    0  501 -0.00000000000E+00 -0.00000000000E+00 -0.80926515949E+02  0.80926515949E+02  0.00000000000E+00 0. -1.
         21    1    1    2  502  503  0.15038416023E+02 -0.13998856238E+02 -0.14614157500E+02  0.25213003230E+02  0.00000000000E+00 0.  1.
         21    1    1    2  503  501 -0.15038416023E+02  0.13998856238E+02 -0.59283294450E+02  0.62742576719E+02  0.00000000000E+00 0. -1.
</event>
<event>
 4    1  0.6008802E+002  0.2954291E+02  0.7546771E-02  0.1423611E+00
          2   -1    0    0  502    0  0.00000000000E+00  0.00000000000E+00  0.77669927286E+03  0.77669927286E+03  0.00000000000E+00 0. -1.
         -2   -1    0    0    0  501 -0.00000000000E+00 -0.00000000000E+00 -0.12448426416E+01  0.12448426416E+01  0.00000000000E+00 0.  1.
         21    1    1    2  502  503 -0.17725621099E+02 -0.23634422939E+02  0.50906454167E+03  0.50992106367E+03  0.00000000000E+00 0. -1.
         21    1    1    2  503  501  0.17725621099E+02  0.23634422939E+02  0.26638988855E+03  0.26802305183E+03  0.00000000000E+00 0.  1.
</event>
<event>
 4    1  0.6008802E+002  0.2056011E+02  0.7546771E-02  0.1525639E+00
          2   -1    0    0  503    0  0.00000000000E+00  0.00000000000E+00  0.31719403710E+01  0.31719403710E+01  0.00000000000E+00 0.  1.
         -2   -1    0    0    0  501 -0.00000000000E+00 -0.00000000000E+00 -0.14777361998E+03  0.14777361998E+03  0.00000000000E+00 0. -1.
         21    1    1    2  502  501 -0.17919253920E+02 -0.10080603189E+02 -0.95946949420E+02  0.98125100380E+02  0.00000000000E+00 0. -1.
         21    1    1    2  503  502  0.17919253920E+02  0.10080603189E+02 -0.48654730187E+02  0.52820459968E+02  0.00000000000E+00 0.  1.
</event>
<event>
 4    1  0.6008802E+002  0.2081321E+02  0.7546771E-02  0.1521949E+00
          2   -1    0    0  502    0  0.00000000000E+00  0.00000000000E+00  0.17358928738E+01  0.17358928738E+01  0.00000000000E+00 0.  1.
         -2   -1    0    0    0  501 -0.00000000000E+00 -0.00000000000E+00 -0.31106235755E+03  0.31106235755E+03  0.00000000000E+00 0. -1.
         21    1    1    2  502  503  0.19714641985E+02  0.66725130575E+01 -0.85113267279E+02  0.87621103656E+02  0.00000000000E+00 0.  1.
         21    1    1    2  503  501 -0.19714641985E+02 -0.66725130575E+01 -0.22421319740E+03  0.22517714677E+03  0.00000000000E+00 0. -1.
</event>
<event>
 4    1  0.6008802E+002  0.2159871E+02  0.7546771E-02  0.1510886E+00
          2   -1    0    0  502    0  0.00000000000E+00  0.00000000000E+00  0.77235530062E+03  0.77235530062E+03  0.00000000000E+00 0.  1.
         -2   -1    0    0    0  501 -0.00000000000E+00 -0.00000000000E+00 -0.75430760865E+00  0.75430760865E+00  0.00000000000E+00 0. -1.
         21    1    1    2  502  503  0.20142310963E+02  0.77968916623E+01  0.55835420759E+03  0.55877180077E+03  0.00000000000E+00 0.  1.
         21    1    1    2  503  501 -0.20142310963E+02 -0.77968916623E+01  0.21324678543E+03  0.21433780746E+03  0.00000000000E+00 0. -1.
</event>
<event>
 4    1  0.6008802E+002  0.2553111E+02  0.7546771E-02  0.1462949E+00
          2   -1    0    0  503    0  0.00000000000E+00  0.00000000000E+00  0.32475670570E+02  0.32475670570E+02  0.00000000000E+00 0. -1.
         -2   -1    0    0    0  501 -0.00000000000E+00 -0.00000000000E+00 -0.51917885182E+02  0.51917885182E+02  0.00000000000E+00 0.  1.
         21    1    1    2  502  501  0.45490741377E+00  0.25527055674E+02 -0.42769506344E+02  0.49810322073E+02  0.00000000000E+00 0.  1.
         21    1    1    2  503  502 -0.45490741377E+00 -0.25527055674E+02  0.23327291732E+02  0.34583233679E+02  0.00000000000E+00 0. -1.
</event>
<event>
 4    1  0.6008802E+002  0.2567265E+02  0.7546771E-02  0.1461417E+00
          2   -1    0    0  503    0  0.00000000000E+00  0.00000000000E+00  0.11822580446E+04  0.11822580446E+04  0.00000000000E+00 0.  1.
         -2   -1    0    0    0  501 -0.00000000000E+00 -0.00000000000E+00 -0.16717749302E+01  0.16717749302E+01  0.00000000000E+00 0. -1.
         21    1    1    2  502  501 -0.16909718072E+02  0.19316998814E+02  0.10700384516E+03  0.11004048295E+03  0.00000000000E+00 0. -1.
         21    1    1    2  503  502  0.16909718072E+02 -0.19316998814E+02  0.10735824245E+04  0.10738893366E+04  0.00000000000E+00 0.  1.
</event>
<event>
 4    1  0.6008802E+002  0.4007271E+02  0.7546771E-02  0.1348060E+00
          2   -1    0    0  503    0  0.00000000000E+00  0.00000000000E+00  0.37708214084E+03  0.37708214084E+03  0.00000000000E+00 0.  1.
         -2   -1    0    0    0  501 -0.00000000000E+00 -0.00000000000E+00 -0.10523595698E+02  0.10523595698E+02  0.00000000000E+00 0. -1.
         21    1    1    2  502  501  0.37889114619E+02 -0.13047480318E+02  0.33745127075E+02  0.52388503993E+02  0.00000000000E+00 0. -1.
         21    1    1    2  503  502 -0.37889114619E+02  0.13047480318E+02  0.33281341807E+03  0.33521723255E+03  0.00000000000E+00 0.  1.
</event>
<event>
 4    1  0.6008802E+002  0.2613970E+02  0.7546771E-02  0.1456447E+00
          2   -1    0    0  503    0  0.00000000000E+00  0.00000000000E+00  0.17414536516E+01  0.17414536516E+01  0.00000000000E+00 0. -1.
         -2   -1    0    0    0  501 -0.00000000000E+00 -0.00000000000E+00 -0.41596364782E+03  0.41596364782E+03  0.00000000000E+00 0.  1.
         21    1    1    2  502  501 -0.69043255062E+01  0.25211391004E+02 -0.25685772632E+03  0.25818438279E+03  0.00000000000E+00 0. -1.
         21    1    1    2  503  502  0.69043255062E+01 -0.25211391004E+02 -0.15736446785E+03  0.15952071868E+03  0.00000000000E+00 0.  1.
</event>
<event>
 4    1  0.6008802E+002  0.2327105E+02  0.7546771E-02  0.1489122E+00
          2   -1    0    0  502    0  0.00000000000E+00  0.00000000000E+00  0.32382257381E+03  0.32382257381E+03  0.00000000000E+00 0. -1.
         -2   -1    0    0    0  501 -0.00000000000E+00 -0.00000000000E+00 -0.53532332076E+01  0.53532332076E+01  0.00000000000E+00 0.  1.
         21    1    1    2  502  503  0.22321580665E+02  0.65794244961E+01  0.29571384173E+03  0.29662808023E+03  0.00000000000E+00 0. -1.
         21    1    1    2  503  501 -0.22321580665E+02 -0.65794244961E+01  0.22755498869E+02  0.32547726785E+02  0.00000000000E+00 0.  1.
</event>
<event>
 4    1  0.6008802E+002  0.2207267E+02  0.7546771E-02  0.1504483E+00
          2   -1    0    0  502    0  0.00000000000E+00  0.00000000000E+00  0.93925416956E+03  0.93925416956E+03  0.00000000000E+00 0. -1.
         -2   -1    0    0    0  501 -0.00000000000E+00 -0.00000000000E+00 -0.53613427584E+00  0.53613427584E+00  0.00000000000E+00 0.  1.
         21    1    1    2  502  503 -0.19923686741E+02 -0.94999793071E+01  0.38465381225E+03  0.38528659226E+03  0.00000000000E+00 0.  1.
         21    1    1    2  503  501  0.19923686741E+02  0.94999793071E+01  0.55406422304E+03  0.55450371158E+03  0.00000000000E+00 0. -1.
</event>
<event>
 4    1  0.6008802E+002  0.2019217E+02  0.7546771E-02  0.1531118E+00
          2   -1    0    0  503    0  0.00000000000E+00  0.00000000000E+00  0.24612270543E+03  0.24612270543E+03  0.00000000000E+00 0.  1.
         -2   -1    0    0    0  501 -0.00000000000E+00 -0.00000000000E+00 -0.20767762789E+02  0.20767762789E+02  0.00000000000E+00 0. -1.
         21    1    1    2  502  501  0.16426375755E+02  0.11742988389E+02 -0.15334892699E+02  0.25355128295E+02  0.00000000000E+00 0. -1.
         21    1    1    2  503  502 -0.16426375755E+02 -0.11742988389E+02  0.24068983534E+03  0.24153533992E+03  0.00000000000E+00 0.  1.
</event>
<event>
 4    1  0.6008802E+002  0.2914759E+02  0.7546771E-02  0.1427151E+00
          2   -1    0    0  502    0  0.00000000000E+00  0.00000000000E+00  0.17521963127E+03  0.17521963127E+03  0.00000000000E+00 0. -1.
         -2   -1    0    0    0  501 -0.00000000000E+00 -0.00000000000E+00 -0.15755788825E+02  0.15755788825E+02  0.00000000000E+00 0.  1.
         21    1    1    2  502  503  0.28277395019E+01 -0.29010096560E+02  0.15917982913E+03  0.16182644967E+03  0.00000000000E+00 0. -1.
         21    1    1    2  503  501 -0.28277395019E+01  0.29010096560E+02  0.28401331957E+00  0.29148970422E+02  0.00000000000E+00 0.  1.
</event>
<event>
 4    1  0.6008802E+002  0.2480276E+02  0.7546771E-02  0.1471022E+00
          2   -1    0    0  503    0  0.00000000000E+00  0.00000000000E+00  0.55579466134E+01  0.55579466134E+01  0.00000000000E+00 0. -1.
         -2   -1    0    0    0  501 -0.00000000000E+00 -0.00000000000E+00 -0.21903795885E+03  0.21903795885E+03  0.00000000000E+00 0.  1.
         21    1    1    2  502  501 -0.15794220979E+02 -0.19123799734E+02 -0.18572308239E+03  0.18737193084E+03  0.00000000000E+00 0.  1.
         21    1    1    2  503  502  0.15794220979E+02  0.19123799734E+02 -0.27756929849E+02  0.37223974630E+02  0.00000000000E+00 0. -1.
</event>
<event>
 4    1  0.6008802E+002  0.5644826E+02  0.7546771E-02  0.1272402E+00
          2   -1    0    0  502    0  0.00000000000E+00  0.00000000000E+00  0.81301473573E+02  0.81301473573E+02  0.00000000000E+00 0. -1.
         -2   -1    0    0    0  501 -0.00000000000E+00 -0.00000000000E+00 -0.61151114245E+02  0.61151114245E+02  0.00000000000E+00 0.  1.
         21    1    1    2  502  503  0.51166625880E+02 -0.23840780276E+02  0.52756792178E+02  0.77263740066E+02  0.00000000000E+00 0. -1.
         21    1    1    2  503  501 -0.51166625880E+02  0.23840780276E+02 -0.32606432849E+02  0.65188847752E+02  0.00000000000E+00 0.  1.
</event>
<event>
 4    1  0.6008802E+002  0.2061536E+02  0.7546771E-02  0.1524828E+00
          2   -1    0    0  503    0  0.00000000000E+00  0.00000000000E+00  0.28644414127E+02  0.28644414127E+02  0.00000000000E+00 0.  1.
         -2   -1    0    0    0  501 -0.00000000000E+00 -0.00000000000E+00 -0.15281718782E+02  0.15281718782E+02  0.00000000000E+00 0. -1.
         21    1    1    2  502  501 -0.17488569194E+02 -0.10915262971E+02  0.10428664488E+02  0.23103031429E+02  0.00000000000E+00 0.  1.
         21    1    1    2  503  502  0.17488569194E+02  0.10915262971E+02  0.29340308567E+01  0.20823101480E+02  0.00000000000E+00 0. -1.
</event>
<event>
 4    1  0.6008802E+002  0.2157234E+02  0.7546771E-02  0.1511248E+00
          2   -1    0    0  503    0  0.00000000000E+00  0.00000000000E+00  0.11361149880E+04  0.11361149880E+04  0.00000000000E+00 0. -1.
         -2   -1    0    0    0  501 -0.00000000000E+00 -0.00000000000E+00 -0.16800378538E+01  0.16800378538E+01  0.00000000000E+00 0.  1.
         21    1    1    2  502  501 -0.18185822597E+02 -0.11603512648E+02  0.72509096281E+02  0.75650080586E+02  0.00000000000E+00 0.  1.
         21    1    1    2  503  502  0.18185822597E+02  0.11603512648E+02  0.10619258539E+04  0.10621449453E+04  0.00000000000E+00 0. -1.
</event>
<event>
 4    1  0.6008802E+002  0.3428054E+02  0.7546771E-02  0.1385693E+00
          2   -1    0    0  502    0  0.00000000000E+00  0.00000000000E+00  0.27485313368E+01  0.27485313368E+01  0.00000000000E+00 0. -1.
         -2   -1    0    0    0  501 -0.00000000000E+00 -0.00000000000E+00 -0.63184859164E+03  0.63184859164E+03  0.00000000000E+00 0.  1.
         21    1    1    2  502  503 -0.16970185241E+02  0.29785364599E+02 -0.13412934474E+03  0.13844073191E+03  0.00000000000E+00 0. -1.
         21    1    1    2  503  501  0.16970185241E+02 -0.29785364599E+02 -0.49497071556E+03  0.49615639106E+03  0.00000000000E+00 0.  1.
</event>
<event>
 4    1  0.6008802E+002  0.2398029E+02  0.7546771E-02  0.1480542E+00
          2   -1    0    0  503    0  0.00000000000E+00  0.00000000000E+00  0.96772435070E+02  0.96772435070E+02  0.00000000000E+00 0.  1.
         -2   -1    0    0    0  501 -0.00000000000E+00 -0.00000000000E+00 -0.59536099082E+01  0.59536099082E+01  0.00000000000E+00 0. -1.
         21    1    1    2  502  501 -0.17654160726E+02 -0.16229142869E+02  0.47644368050E+02  0.53338918963E+02  0.00000000000E+00 0.  1.
         21    1    1    2  503  502  0.17654160726E+02  0.16229142869E+02  0.43174457111E+02  0.49387126015E+02  0.00000000000E+00 0. -1.
</event>
<event>
 4    1  0.6008802E+002  0.4733490E+02  0.7546771E-02  0.1310160E+00
          2   -1    0    0  502    0  0.00000000000E+00  0.00000000000E+00  0.15386463391E+02  0.15386463391E+02  0.00000000000E+00 0.  1.
         -2   -1    0    0    0  501 -0.00000000000E+00 -0.00000000000E+00 -0.26373135479E+03  0.26373135479E+03  0.00000000000E+00 0. -1.
         21    1    1    2  502  503  0.13997107471E+02 -0.45218070761E+02 -0.30778100861E+02  0.56461353451E+02  0.00000000000E+00 0.  1.
         21    1    1    2  503  501 -0.13997107471E+02  0.45218070761E+02 -0.21756679054E+03  0.22265646473E+03  0.00000000000E+00 0. -1.
</event>
<event>
 4    1  0.6008802E+002  0.2588203E+02  0.7546771E-02  0.1459173E+00
          2   -1    0    0  503    0  0.00000000000E+00  0.00000000000E+00  0.25042341505E+01  0.25042341505E+01  0.00000000000E+00 0. -1.
         -2   -1    0    0    0  501 -0.00000000000E+00 -0.00000000000E+00 -0.27415142448E+03  0.27415142448E+03  0.00000000000E+00 0.  1.
         21    1    1    2  502  501 -0.25837239389E+02 -0.15220550968E+01 -0.15737181138E+03  0.15948594486E+03  0.00000000000E+00 0.  1.
         21    1    1    2  503  502  0.25837239389E+02  0.15220550968E+01 -0.11427537895E+03  0.11716971377E+03  0.00000000000E+00 0. -1.
</event>
<event>
 4    1  0.6008802E+002  0.2851846E+02  0.7546771E-02  0.1432924E+00
          2   -1    0    0  503    0  0.00000000000E+00  0.00000000000E+00  0.48721380492E+02  0.48721380492E+02  0.00000000000E+00 0.  1.
         -2   -1    0    0    0  501 -0.00000000000E+00 -0.00000000000E+00 -0.21836340343E+02  0.21836340343E+02  0.00000000000E+00 0. -1.
         21    1    1    2  502  501 -0.20045723002E+02 -0.20284758933E+02 -0.36793157177E+01  0.28754822548E+02  0.00000000000E+00 0. -1.
         21    1    1    2  503  502  0.20045723002E+02  0.20284758933E+02  0.30564355867E+02  0.41802898287E+02  0.00000000000E+00 0.  1.
</event>
<event>
 4    1  0.6008802E+002  0.2173016E+02  0.7546771E-02  0.1509090E+00
          2   -1    0    0  503    0  0.00000000000E+00  0.00000000000E+00  0.41928058347E+02  0.41928058347E+02  0.00000000000E+00 0. -1.
         -2   -1    0    0    0  501 -0.00000000000E+00 -0.00000000000E+00 -0.69994564814E+02  0.69994564814E+02  0.00000000000E+00 0.  1.
         21    1    1    2  502  501  0.13394832386E+02  0.17110762689E+02 -0.65295151592E+02  0.68816106805E+02  0.00000000000E+00 0.  1.
         21    1    1    2  503  502 -0.13394832386E+02 -0.17110762689E+02  0.37228645125E+02  0.43106516355E+02  0.00000000000E+00 0. -1.
</event>
<event>
 4    1  0.6008802E+002  0.2500894E+02  0.7546771E-02  0.1468703E+00
          2   -1    0    0  502    0  0.00000000000E+00  0.00000000000E+00  0.20542974960E+03  0.20542974960E+03  0.00000000000E+00 0. -1.
         -2   -1    0    0    0  501 -0.00000000000E+00 -0.00000000000E+00 -0.31672083496E+01  0.31672083496E+01  0.00000000000E+00 0.  1.
         21    1    1    2  502  503 -0.22546340735E+02 -0.10821713656E+02  0.12165413764E+03  0.12419813272E+03  0.00000000000E+00 0. -1.
         21    1    1    2  503  501  0.22546340735E+02  0.10821713656E+02  0.80608403607E+02  0.84398825223E+02  0.00000000000E+00 0.  1.
</event>
<event>
 4    1  0.6008802E+002  0.2363454E+02  0.7546771E-02  0.1484680E+00
          2   -1    0    0  502    0  0.00000000000E+00  0.00000000000E+00  0.70656330752E+02  0.70656330752E+02  0.00000000000E+00 0. -1.
         -2   -1    0    0    0  501 -0.00000000000E+00 -0.00000000000E+00 -0.96249479567E+01  0.96249479567E+01  0.00000000000E+00 0.  1.
         21    1    1    2  502  503  0.23225496213E+02 -0.43780942585E+01  0.47480456891E+02  0.53037582621E+02  0.00000000000E+00 0. -1.
         21    1    1    2  503  501 -0.23225496213E+02  0.43780942585E+01  0.13550925904E+02  0.27243696087E+02  0.00000000000E+00 0.  1.
</event>
<event>
 4    1  0.6008802E+002  0.3998814E+02  0.7546771E-02  0.1348555E+00
          2   -1    0    0  503    0  0.00000000000E+00  0.00000000000E+00  0.92010798206E+02  0.92010798206E+02  0.00000000000E+00 0.  1.
         -2   -1    0    0    0  501 -0.00000000000E+00 -0.00000000000E+00 -0.19881082876E+02  0.19881082876E+02  0.00000000000E+00 0. -1.
         21    1    1    2  502  501  0.13760781147E+02 -0.37545864842E+02  0.16217452140E+02  0.43151556385E+02  0.00000000000E+00 0. -1.
         21    1    1    2  503  502 -0.13760781147E+02  0.37545864842E+02  0.55912263189E+02  0.68740324697E+02  0.00000000000E+00 0.  1.
</event>
<event>
 4    1  0.6008802E+002  0.3822739E+02  0.7546771E-02  0.1359198E+00
          2   -1    0    0  502    0  0.00000000000E+00  0.00000000000E+00  0.73041655204E+01  0.73041655204E+01  0.00000000000E+00 0. -1.
         -2   -1    0    0    0  501 -0.00000000000E+00 -0.00000000000E+00 -0.26661977252E+03  0.26661977252E+03  0.00000000000E+00 0.  1.
         21    1    1    2  502  503  0.35101838297E+02 -0.15139172752E+02 -0.61230106615E+02  0.72183513073E+02  0.00000000000E+00 0. -1.
         21    1    1    2  503  501 -0.35101838297E+02  0.15139172752E+02 -0.19808550038E+03  0.20174042497E+03  0.00000000000E+00 0.  1.
</event>
<event>
 4    1  0.6008802E+002  0.2490303E+02  0.7546771E-02  0.1469891E+00
          2   -1    0    0  502    0  0.00000000000E+00  0.00000000000E+00  0.14021870409E+02  0.14021870409E+02  0.00000000000E+00 0. -1.
         -2   -1    0    0    0  501 -0.00000000000E+00 -0.00000000000E+00 -0.44950354726E+02  0.44950354726E+02  0.00000000000E+00 0.  1.
         21    1    1    2  502  503  0.21121304692E+02 -0.13192853628E+02 -0.19201831701E+02  0.31446323146E+02  0.00000000000E+00 0.  1.
         21    1    1    2  503  501 -0.21121304692E+02  0.13192853628E+02 -0.11726652617E+02  0.27525901989E+02  0.00000000000E+00 0. -1.
</event>
<event>
 4    1  0.6008802E+002  0.2139967E+02  0.7546771E-02  0.1513634E+00
          2   -1    0    0  502    0  0.00000000000E+00  0.00000000000E+00  0.38323260037E+02  0.38323260037E+02  0.00000000000E+00 0. -1.
         -2   -1    0    0    0  501 -0.00000000000E+00 -0.00000000000E+00 -0.15209595517E+02  0.15209595517E+02  0.00000000000E+00 0.  1.
         21    1    1    2  502  503 -0.86749236345E+01  0.19562501539E+02  0.23948886888E+02  0.32116895082E+02  0.00000000000E+00 0. -1.
         21    1    1    2  503  501  0.86749236345E+01 -0.19562501539E+02 -0.83522236848E+00  0.21415960472E+02  0.00000000000E+00 0.  1.
</event>
<event>
 4    1  0.6008802E+002  0.2003932E+02  0.7546771E-02  0.1533435E+00
          2   -1    0    0  503    0  0.00000000000E+00  0.00000000000E+00  0.13734169872E+03  0.13734169872E+03  0.00000000000E+00 0. -1.
         -2   -1    0    0    0  501 -0.00000000000E+00 -0.00000000000E+00 -0.28044713529E+02  0.28044713529E+02  0.00000000000E+00 0.  1.
         21    1    1    2  502  501  0.12893180758E+02 -0.15340798066E+02 -0.23615342552E+02  0.30971900155E+02  0.00000000000E+00 0.  1.
         21    1    1    2  503  502 -0.12893180758E+02  0.15340798066E+02  0.13291232774E+03  0.13441451209E+03  0.00000000000E+00 0. -1.
</event>
<event>
 4    1  0.6008802E+002  0.2517282E+02  0.7546771E-02  0.1466879E+00
          2   -1    0    0  503    0  0.00000000000E+00  0.00000000000E+00  0.73785454223E+03  0.73785454223E+03  0.00000000000E+00 0.  1.
         -2   -1    0    0    0  501 -0.00000000000E+00 -0.00000000000E+00 -0.16741282936E+01  0.16741282936E+01  0.00000000000E+00 0. -1.
         21    1    1    2  502  501  0.12974121823E+02 -0.21571807641E+02  0.11004460552E+03  0.11288704942E+03  0.00000000000E+00 0. -1.
         21    1    1    2  503  502 -0.12974121823E+02  0.21571807641E+02  0.62613580842E+03  0.62664162111E+03  0.00000000000E+00 0.  1.
</event>
<event>
 4    1  0.6008802E+002  0.3206349E+02  0.7546771E-02  0.1402473E+00
          2   -1    0    0  502    0  0.00000000000E+00  0.00000000000E+00  0.13090329800E+02  0.13090329800E+02  0.00000000000E+00 0. -1.
         -2   -1    0    0    0  501 -0.00000000000E+00 -0.00000000000E+00 -0.93165569672E+02  0.93165569672E+02  0.00000000000E+00 0.  1.
         21    1    1    2  502  503  0.27650534645E+02  0.16233161476E+02 -0.18985059487E+02  0.37262582860E+02  0.00000000000E+00 0. -1.
         21    1    1    2  503  501 -0.27650534645E+02 -0.16233161476E+02 -0.61090180385E+02  0.68993316612E+02  0.00000000000E+00 0.  1.
</event>
<event>
 4    1  0.6008802E+002  0.2777337E+02  0.7546771E-02  0.1439990E+00
          2   -1    0    0  502    0  0.00000000000E+00  0.00000000000E+00  0.21251683125E+01  0.21251683125E+01  0.00000000000E+00 0. -1.
         -2   -1    0    0    0  501 -0.00000000000E+00 -0.00000000000E+00 -0.41008586380E+03  0.41008586380E+03  0.00000000000E+00 0.  1.
         21    1    1    2  502  503 -0.44947973604E+01 -0.27407243614E+02 -0.13411495366E+03  0.13696050891E+03  0.00000000000E+00 0.  1.
         21    1    1    2  503  501  0.44947973604E+01  0.27407243614E+02 -0.27384574183E+03  0.27525052320E+03  0.00000000000E+00 0. -1.
</event>
<event>
 4    1  0.6008802E+002  0.4777109E+02  0.7546771E-02  0.1308137E+00
          2   -1    0    0  503    0  0.00000000000E+00  0.00000000000E+00  0.20721494239E+04  0.20721494239E+04  0.00000000000E+00 0. -1.
         -2   -1    0    0    0  501 -0.00000000000E+00 -0.00000000000E+00 -0.12753006300E+01  0.12753006300E+01  0.00000000000E+00 0.  1.
         21    1    1    2  502  501  0.10745324072E+02 -0.46546914135E+02  0.65251011333E+03  0.65425646745E+03  0.00000000000E+00 0.  1.
         21    1    1    2  503  502 -0.10745324072E+02  0.46546914135E+02  0.14183640100E+04  0.14191682571E+04  0.00000000000E+00 0. -1.
</event>
<event>
 4    1  0.6008802E+002  0.3909071E+02  0.7546771E-02  0.1353898E+00
          2   -1    0    0  503    0  0.00000000000E+00  0.00000000000E+00  0.24181380574E+03  0.24181380574E+03  0.00000000000E+00 0.  1.
         -2   -1    0    0    0  501 -0.00000000000E+00 -0.00000000000E+00 -0.92913005184E+01  0.92913005184E+01  0.00000000000E+00 0. -1.
         21    1    1    2  502  501  0.37775264736E+02 -0.10055503691E+02  0.18727048502E+03  0.19130686955E+03  0.00000000000E+00 0.  1.
         21    1    1    2  503  502 -0.37775264736E+02  0.10055503691E+02  0.45252020207E+02  0.59798236706E+02  0.00000000000E+00 0. -1.
</event>
<event>
 4    1  0.6008802E+002  0.2080444E+02  0.7546771E-02  0.1522075E+00
          2   -1    0    0  502    0  0.00000000000E+00  0.00000000000E+00  0.16327482702E+04  0.16327482702E+04  0.00000000000E+00 0.  1.
         -2   -1    0    0    0  501 -0.00000000000E+00 -0.00000000000E+00 -0.30419329563E+00  0.30419329563E+00  0.00000000000E+00 0. -1.
         21    1    1    2  502  503  0.14740436569E+02  0.14681424768E+02  0.11089767036E+04  0.11091718324E+04  0.00000000000E+00 0.  1.
         21    1    1    2  503  501 -0.14740436569E+02 -0.14681424768E+02  0.52346737333E+03  0.52388063111E+03  0.00000000000E+00 0. -1.
</event>
<event>
 4    1  0.6008802E+002  0.2574212E+02  0.7546771E-02  0.1460670E+00
          2   -1    0    0  503    0  0.00000000000E+00  0.00000000000E+00  0.18561681188E+01  0.18561681188E+01  0.00000000000E+00 0. -1.
         -2   -1    0    0    0  501 -0.00000000000E+00 -0.00000000000E+00 -0.60284174990E+03  0.60284174990E+03  0.00000000000E+00 0.  1.
         21    1    1    2  502  501 -0.44768215180E+01 -0.25349849231E+02 -0.49357060209E+03  0.49424143496E+03  0.00000000000E+00 0.  1.
         21    1    1    2  503  502  0.44768215180E+01  0.25349849231E+02 -0.10741497969E+03  0.11045648305E+03  0.00000000000E+00 0. -1.
</event>
<event>
 4    1  0.6008802E+002  0.2793674E+02  0.7546771E-02  0.1438419E+00
          2   -1    0    0  502    0  0.00000000000E+00  0.00000000000E+00  0.18559335079E+03  0.18559335079E+03  0.00000000000E+00 0.  1.
         -2   -1    0    0    0  501 -0.00000000000E+00 -0.00000000000E+00 -0.49981864294E+01  0.49981864294E+01  0.00000000000E+00 0. -1.
         21    1    1    2  502  503 -0.96577994952E+00 -0.27920038677E+02  0.12825478258E+03  0.13126214437E+03  0.00000000000E+00 0.  1.
         21    1    1    2  503  501  0.96577994952E+00  0.27920038677E+02  0.52340381779E+02  0.59329392845E+02  0.00000000000E+00 0. -1.
</event>
<event>
 4    1  0.6008802E+002  0.2197766E+02  0.7546771E-02  0.1505751E+00
          2   -1    0    0  503    0  0.00000000000E+00  0.00000000000E+00  0.14628708458E+03  0.14628708458E+03  0.00000000000E+00 0. -1.
         -2   -1    0    0    0  501 -0.00000000000E+00 -0.00000000000E+00 -0.66095661910E+01  0.66095661910E+01  0.00000000000E+00 0.  1.
         21    1    1    2  502  501  0.37364307655E+01 -0.21657716507E+02  0.15757623580E+02  0.27042934383E+02  0.00000000000E+00 0.  1.
         21    1    1    2  503  502 -0.37364307655E+01  0.21657716507E+02  0.12391989480E+03  0.12585371638E+03  0.00000000000E+00 0. -1.
</event>
<event>
 4    1  0.6008802E+002  0.2155883E+02  0.7546771E-02  0.1511434E+00
          2   -1    0    0  503    0  0.00000000000E+00  0.00000000000E+00  0.44679646739E+03  0.44679646739E+03  0.00000000000E+00 0.  1.
         -2   -1    0    0    0  501 -0.00000000000E+00 -0.00000000000E+00 -0.27570227739E+01  0.27570227739E+01  0.00000000000E+00 0. -1.
         21    1    1    2  502  501 -0.21333972222E+02 -0.31056316391E+01  0.44647062921E+02  0.49579668677E+02  0.00000000000E+00 0. -1.
         21    1    1    2  503  502  0.21333972222E+02  0.31056316391E+01  0.39939238169E+03  0.39997382149E+03  0.00000000000E+00 0.  1.
</event>
<event>
 4    1  0.6008802E+002  0.2826325E+02  0.7546771E-02  0.1435315E+00
          2   -1    0    0  502    0  0.00000000000E+00  0.00000000000E+00  0.10954807972E+04  0.10954807972E+04  0.00000000000E+00 0. -1.
         -2   -1    0    0    0  501 -0.00000000000E+00 -0.00000000000E+00 -0.13760347949E+02  0.13760347949E+02  0.00000000000E+00 0.  1.
         21    1    1    2  502  503 -0.15613137860E+02 -0.23559309865E+02  0.10805855655E+04  0.10809551219E+04  0.00000000000E+00 0. -1.
         21    1    1    2  503  501  0.15613137860E+02  0.23559309865E+02  0.11348838235E+01  0.28286023341E+02  0.00000000000E+00 0.  1.
</event>
<event>
 4    1  0.6008802E+002  0.2872965E+02  0.7546771E-02  0.1430967E+00
          2   -1    0    0  502    0  0.00000000000E+00  0.00000000000E+00  0.33279930116E+03  0.33279930116E+03  0.00000000000E+00 0.  1.
         -2   -1    0    0    0  501 -0.00000000000E+00 -0.00000000000E+00 -0.23607985752E+02  0.23607985752E+02  0.00000000000E+00 0. -1.
         21    1    1    2  502  503 -0.19150963975E+02  0.21415729003E+02  0.32317897556E+03  0.32445345292E+03  0.00000000000E+00 0.  1.
         21    1    1    2  503  501  0.19150963975E+02 -0.21415729003E+02 -0.13987660154E+02  0.31953833987E+02  0.00000000000E+00 0. -1.
</event>
<event>
 4    1  0.6008802E+002  0.2033618E+02  0.7546771E-02  0.1528957E+00
          2   -1    0    0  503    0  0.00000000000E+00  0.00000000000E+00  0.32254246703E+02  0.32254246703E+02  0.00000000000E+00 0.  1.
         -2   -1    0    0    0  501 -0.00000000000E+00 -0.00000000000E+00 -0.14582595162E+02  0.14582595162E+02  0.00000000000E+00 0. -1.
         21    1    1    2  502  501 -0.12254901770E+02 -0.16228910632E+02  0.69844841614E+00  0.20348169153E+02  0.00000000000E+00 0.  1.
         21    1    1    2  503  502  0.12254901770E+02  0.16228910632E+02  0.16973203125E+02  0.26488672712E+02  0.00000000000E+00 0. -1.
</event>
<event>
 4    1  0.6008802E+002  0.2641573E+02  0.7546771E-02  0.1453567E+00
          2   -1    0    0  502    0  0.00000000000E+00  0.00000000000E+00  0.11858281663E+04  0.11858281663E+04  0.00000000000E+00 0. -1.
         -2   -1    0    0    0  501 -0.00000000000E+00 -0.00000000000E+00 -0.61805405212E+00  0.61805405212E+00  0.00000000000E+00 0.  1.
         21    1    1    2  502  503  0.13896603185E+02 -0.22464976366E+02  0.72245485402E+03  0.72293762306E+03  0.00000000000E+00 0.  1.
         21    1    1    2  503  501 -0.13896603185E+02  0.22464976366E+02  0.46275525824E+03  0.46350859730E+03  0.00000000000E+00 0. -1.
</event>
<event>
 4    1  0.6008802E+002  0.2098490E+02  0.7546771E-02  0.1519480E+00
          2   -1    0    0  503    0  0.00000000000E+00  0.00000000000E+00  0.37113654037E+03  0.37113654037E+03  0.00000000000E+00 0. -1.
         -2   -1    0    0    0  501 -0.00000000000E+00 -0.00000000000E+00 -0.15712064820E+01  0.15712064820E+01  0.00000000000E+00 0.  1.
         21    1    1    2  502  501 -0.18625235479E+01  0.20902082744E+02  0.92574910629E+02  0.94923548895E+02  0.00000000000E+00 0.  1.
         21    1    1    2  503  502  0.18625235479E+01 -0.20902082744E+02  0.27699042326E+03  0.27778419796E+03  0.00000000000E+00 0. -1.
</event>
<event>
 4    1  0.6008802E+002  0.2316497E+02  0.7546771E-02  0.1490437E+00
          2   -1    0    0  502    0  0.00000000000E+00  0.00000000000E+00  0.30078507284E+04  0.30078507284E+04  0.00000000000E+00 0.  1.
         -2   -1    0    0    0  501 -0.00000000000E+00 -0.00000000000E+00 -0.17840572740E+00  0.17840572740E+00  0.00000000000E+00 0. -1.
         21    1    1    2  502  503 -0.16554962279E+02 -0.16203364053E+02  0.15009221229E+04  0.15011008743E+04  0.00000000000E+00 0. -1.
         21    1    1    2  503  501  0.16554962279E+02  0.16203364053E+02  0.15067501998E+04  0.15069282598E+04  0.00000000000E+00 0.  1.
</event>
<event>
 4    1  0.6008802E+002  0.2494601E+02  0.7546771E-02  0.1469408E+00
          2   -1    0    0  502    0  0.00000000000E+00  0.00000000000E+00  0.32938911118E+03  0.32938911118E+03  0.00000000000E+00 0. -1.
         -2   -1    0    0    0  501 -0.00000000000E+00 -0.00000000000E+00 -0.93104160076E+01  0.93104160076E+01  0.00000000000E+00 0.  1.
         21    1    1    2  502  503  0.17232786232E+02 -0.18037035362E+02  0.31123373298E+03  0.31223186914E+03  0.00000000000E+00 0. -1.
         21    1    1    2  503  501 -0.17232786232E+02  0.18037035362E+02  0.88449621917E+01  0.26467658041E+02  0.00000000000E+00 0.  1.
</event>
<event>
 4    1  0.6008802E+002  0.2107303E+02  0.7546771E-02  0.1518225E+00
          2   -1    0    0  503    0  0.00000000000E+00  0.00000000000E+00  0.12415680474E+01  0.12415680474E+01  0.00000000000E+00 0.  1.
         -2   -1    0    0    0  501 -0.00000000000E+00 -0.00000000000E+00 -0.43959239794E+03  0.43959239794E+03  0.00000000000E+00 0. -1.
         21    1    1    2  502  501  0.15690270958E+02  0.14067271682E+02 -0.31432764343E+03  0.31503323659E+03  0.00000000000E+00 0. -1.
         21    1    1    2  503  502 -0.15690270958E+02 -0.14067271682E+02 -0.12402318647E+03  0.12580072940E+03  0.00000000000E+00 0.  1.
</event>
<event>
 4    1  0.6008802E+002  0.2976491E+02  0.7546771E-02  0.1421651E+00
          2   -1    0    0  502    0  0.00000000000E+00  0.00000000000E+00  0.74545243989E+03  0.74545243989E+03  0.00000000000E+00 0. -1.
         -2   -1    0    0    0  501 -0.00000000000E+00 -0.00000000000E+00 -0.57355518015E+01  0.57355518015E+01  0.00000000000E+00 0.  1.
         21    1    1    2  502  503  0.22567430082E+02 -0.19407762542E+02  0.70428231921E+03  0.70491101233E+03  0.00000000000E+00 0. -1.
         21    1    1    2  503  501 -0.22567430082E+02  0.19407762542E+02  0.35434568872E+02  0.46276979358E+02  0.00000000000E+00 0.  1.
</event>
<event>
 4    1  0.6008802E+002  0.3405533E+02  0.7546771E-02  0.1387329E+00
          2   -1    0    0  502    0  0.00000000000E+00  0.00000000000E+00  0.12945976489E+04  0.12945976489E+04  0.00000000000E+00 0.  1.
         -2   -1    0    0    0  501 -0.00000000000E+00 -0.00000000000E+00 -0.42399146267E+01  0.42399146267E+01  0.00000000000E+00 0. -1.
         21    1    1    2  502  503 -0.31741820929E+02 -0.12337842111E+02  0.12219235610E+04  0.12223980344E+04  0.00000000000E+00 0.  1.
         21    1    1    2  503  501  0.31741820929E+02  0.12337842111E+02  0.68434173284E+02  0.76439529151E+02  0.00000000000E+00 0. -1.
</event>
<event>
 4    1  0.6008802E+002  0.2176063E+02  0.7546771E-02  0.1508676E+00
          2   -1    0    0  503    0  0.00000000000E+00  0.00000000000E+00  0.24298137619E+03  0.24298137619E+03  0.00000000000E+00 0.  1.
         -2   -1    0    0    0  501 -0.00000000000E+00 -0.00000000000E+00 -0.21660210730E+01  0.21660210730E+01  0.00000000000E+00 0. -1.
         21    1    1    2  502  501 -0.75332884792E+01  0.20415052521E+02  0.81592120265E+02  0.84444057778E+02  0.00000000000E+00 0. -1.
         21    1    1    2  503  502  0.75332884792E+01 -0.20415052521E+02  0.15922323486E+03  0.16070333949E+03  0.00000000000E+00 0.  1.
</event>
<event>
 4    1  0.6008802E+002  0.7516345E+02  0.7546771E-02  0.1215544E+00
          2   -1    0    0  502    0  0.00000000000E+00  0.00000000000E+00  0.22395384157E+03  0.22395384157E+03  0.00000000000E+00 0. -1.
         -2   -1    0    0    0  501 -0.00000000000E+00 -0.00000000000E+00 -0.25952481532E+02  0.25952481532E+02  0.00000000000E+00 0.  1.
         21    1    1    2  502  503  0.16650765372E+02 -0.73295945326E+02  0.11990124265E+03  0.14151272585E+03  0.00000000000E+00 0.  1.
         21    1    1    2  503  501 -0.16650765372E+02  0.73295945326E+02  0.78100117381E+02  0.10839359724E+03  0.00000000000E+00 0. -1.
</event>
<event>
 4    1  0.6008802E+002  0.6198367E+02  0.7546771E-02  0.1253238E+00
          2   -1    0    0  502    0  0.00000000000E+00  0.00000000000E+00  0.26740212748E+04  0.26740212748E+04  0.00000000000E+00 0.  1.
         -2   -1    0    0    0  501 -0.00000000000E+00 -0.00000000000E+00 -0.21640571400E+01  0.21640571400E+01  0.00000000000E+00 0. -1.
         21    1    1    2  502  503 -0.26743171344E+02  0.55917605656E+02  0.21116437955E+04  0.21125533117E+04  0.00000000000E+00 0. -1.
         21    1    1    2  503  501  0.26743171344E+02 -0.55917605656E+02  0.56021342220E+03  0.56363202025E+03  0.00000000000E+00 0.  1.
</event>
<event>
 4    1  0.6008802E+002  0.4050868E+02  0.7546771E-02  0.1345530E+00
          2   -1    0    0  502    0  0.00000000000E+00  0.00000000000E+00  0.14377204687E+03  0.14377204687E+03  0.00000000000E+00 0.  1.
         -2   -1    0    0    0  501 -0.00000000000E+00 -0.00000000000E+00 -0.75669077512E+02  0.75669077512E+02  0.00000000000E+00 0. -1.
         21    1    1    2  502  503  0.31957166080E+02  0.24893621886E+02  0.13515912400E+03  0.14109904917E+03  0.00000000000E+00 0.  1.
         21    1    1    2  503  501 -0.31957166080E+02 -0.24893621886E+02 -0.67056154641E+02  0.78342075220E+02  0.00000000000E+00 0. -1.
</event>
<event>
 4    1  0.6008802E+002  0.2023106E+02  0.7546771E-02  0.1530532E+00
          2   -1    0    0  503    0  0.00000000000E+00  0.00000000000E+00  0.11584580598E+03  0.11584580598E+03  0.00000000000E+00 0. -1.
         -2   -1    0    0    0  501 -0.00000000000E+00 -0.00000000000E+00 -0.42938605329E+01  0.42938605329E+01  0.00000000000E+00 0.  1.
         21    1    1    2  502  501  0.18863736015E+02  0.73113181301E+01  0.30491508501E+02  0.36592731518E+02  0.00000000000E+00 0.  1.
         21    1    1    2  503  502 -0.18863736015E+02 -0.73113181301E+01  0.81060436947E+02  0.83546934996E+02  0.00000000000E+00 0. -1.
</event>
<event>
 4    1  0.6008802E+002  0.2079839E+02  0.7546771E-02  0.1522163E+00
          2   -1    0    0  503    0  0.00000000000E+00  0.00000000000E+00  0.21667061775E+02  0.21667061775E+02  0.00000000000E+00 0. -1.
         -2   -1    0    0    0  501 -0.00000000000E+00 -0.00000000000E+00 -0.46086781058E+02  0.46086781058E+02  0.00000000000E+00 0.  1.
         21    1    1    2  502  501 -0.11228470974E+02  0.17506982340E+02 -0.37714601869E+02  0.43069295156E+02  0.00000000000E+00 0.  1.
         21    1    1    2  503  502  0.11228470974E+02 -0.17506982340E+02  0.13294882586E+02  0.24684547678E+02  0.00000000000E+00 0. -1.
</event>
<event>
 4    1  0.6008802E+002  0.2727623E+02  0.7546771E-02  0.1444853E+00
          2   -1    0    0  502    0  0.00000000000E+00  0.00000000000E+00  0.21534351511E+02  0.21534351511E+02  0.00000000000E+00 0. -1.
         -2   -1    0    0    0  501 -0.00000000000E+00 -0.00000000000E+00 -0.44258907639E+02  0.44258907639E+02  0.00000000000E+00 0.  1.
         21    1    1    2  502  503 -0.24905834643E+02  0.11121706633E+02  0.40460621585E+01  0.27574690872E+02  0.00000000000E+00 0. -1.
         21    1    1    2  503  501  0.24905834643E+02 -0.11121706633E+02 -0.26770618287E+02  0.38218568277E+02  0.00000000000E+00 0.  1.
</event>
<event>
 4    1  0.6008802E+002  0.3041201E+02  0.7546771E-02  0.1416049E+00
          2   -1    0    0  502    0  0.00000000000E+00  0.00000000000E+00  0.50035848053E+02  0.50035848053E+02  0.00000000000E+00 0. -1.
         -2   -1    0    0    0  501 -0.00000000000E+00 -0.00000000000E+00 -0.12434846522E+03  0.12434846522E+03  0.00000000000E+00 0.  1.
         21    1    1    2  502  503  0.88784319714E+01 -0.29087173388E+02  0.43294641615E+02  0.52908564549E+02  0.00000000000E+00 0. -1.
         21    1    1    2  503  501 -0.88784319714E+01  0.29087173388E+02 -0.11760725878E+03  0.12147574873E+03  0.00000000000E+00 0.  1.
</event>
<event>
 4    1  0.6008802E+002  0.3325550E+02  0.7546771E-02  0.1393260E+00
          2   -1    0    0  502    0  0.00000000000E+00  0.00000000000E+00  0.37039378753E+03  0.37039378753E+03  0.00000000000E+00 0. -1.
         -2   -1    0    0    0  501 -0.00000000000E+00 -0.00000000000E+00 -0.30929399858E+01  0.30929399858E+01  0.00000000000E+00 0.  1.
         21    1    1    2  502  503 -0.27197936508E+02  0.19136374906E+02  0.21840387020E+03  0.22092120567E+03  0.00000000000E+00 0. -1.
         21    1    1    2  503  501  0.27197936508E+02 -0.19136374906E+02  0.14889697734E+03  0.15256552184E+03  0.00000000000E+00 0.  1.
</event>
<event>
 4    1  0.6008802E+002  0.3776433E+02  0.7546771E-02  0.1362109E+00
          2   -1    0    0  503    0  0.00000000000E+00  0.00000000000E+00  0.10454700740E+02  0.10454700740E+02  0.00000000000E+00 0.  1.
         -2   -1    0    0    0  501 -0.00000000000E+00 -0.00000000000E+00 -0.15959087810E+03  0.15959087810E+03  0.00000000000E+00 0. -1.
         21    1    1    2  502  501 -0.32892559532E+02 -0.18553282382E+02 -0.10697063986E+03  0.11344100912E+03  0.00000000000E+00 0. -1.
         21    1    1    2  503  502  0.32892559532E+02  0.18553282382E+02 -0.42165537500E+02  0.56604569713E+02  0.00000000000E+00 0.  1.
</event>
<event>
 4    1  0.6008802E+002  0.2018262E+02  0.7546771E-02  0.1531262E+00
          2   -1    0    0  502    0  0.00000000000E+00  0.00000000000E+00  0.72652786122E+01  0.72652786122E+01  0.00000000000E+00 0.  1.
         -2   -1    0    0    0  501 -0.00000000000E+00 -0.00000000000E+00 -0.11190771024E+03  0.11190771024E+03  0.00000000000E+00 0. -1.
         21    1    1    2  502  503  0.17095829623E+02  0.10727113061E+02 -0.10229613813E+02  0.22627048944E+02  0.00000000000E+00 0.  1.
         21    1    1    2  503  501 -0.17095829623E+02 -0.10727113061E+02 -0.94412817816E+02  0.96545939910E+02  0.00000000000E+00 0. -1.
</event>
<event>
 4    1  0.6008802E+002  0.4969177E+02  0.7546771E-02  0.1299514E+00
          2   -1    0    0  503    0  0.00000000000E+00  0.00000000000E+00  0.16455855444E+04  0.16455855444E+04  0.00000000000E+00 0. -1.
         -2   -1    0    0    0  501 -0.00000000000E+00 -0.00000000000E+00 -0.15023676838E+01  0.15023676838E+01  0.00000000000E+00 0.  1.
         21    1    1    2  502  501 -0.24785788116E+02  0.43068973216E+02  0.85074287579E+03  0.85219288454E+03  0.00000000000E+00 0.  1.
         21    1    1    2  503  502  0.24785788116E+02 -0.43068973216E+02  0.79334030094E+03  0.79489502756E+03  0.00000000000E+00 0. -1.
</event>
<event>
 4    1  0.6008802E+002  0.2241515E+02  0.7546771E-02  0.1499976E+00
          2   -1    0    0  503    0  0.00000000000E+00  0.00000000000E+00  0.50982851383E+03  0.50982851383E+03  0.00000000000E+00 0.  1.
         -2   -1    0    0    0  501 -0.00000000000E+00 -0.00000000000E+00 -0.22286312134E+01  0.22286312134E+01  0.00000000000E+00 0. -1.
         21    1    1    2  502  501  0.17237125747E+02  0.14329013615E+02  0.62582834898E+02  0.66475938196E+02  0.00000000000E+00 0. -1.
         21    1    1    2  503  502 -0.17237125747E+02 -0.14329013615E+02  0.44501704772E+03  0.44558120685E+03  0.00000000000E+00 0.  1.
</event>
<event>
 4    1  0.6008802E+002  0.2224457E+02  0.7546771E-02  0.1502208E+00
          2   -1    0    0  503    0  0.00000000000E+00  0.00000000000E+00  0.17308537597E+03  0.17308537597E+03  0.00000000000E+00 0. -1.
         -2   -1    0    0    0  501 -0.00000000000E+00 -0.00000000000E+00 -0.29408401198E+01  0.29408401198E+01  0.00000000000E+00 0.  1.
         21    1    1    2  502  501  0.14085798054E+02  0.17216598482E+02  0.99770192325E+02  0.10221992099E+03  0.00000000000E+00 0. -1.
         21    1    1    2  503  502 -0.14085798054E+02 -0.17216598482E+02  0.70374343523E+02  0.73806295100E+02  0.00000000000E+00 0.  1.
</event>
<event>
 4    1  0.6008802E+002  0.3006165E+02  0.7546771E-02  0.1419061E+00
          2   -1    0    0  502    0  0.00000000000E+00  0.00000000000E+00  0.38580119214E+03  0.38580119214E+03  0.00000000000E+00 0. -1.
         -2   -1    0    0    0  501 -0.00000000000E+00 -0.00000000000E+00 -0.23540079904E+01  0.23540079904E+01  0.00000000000E+00 0.  1.
         21    1    1    2  502  503  0.25112243358E+02 -0.16525076332E+02  0.17809838286E+03  0.18061765388E+03  0.00000000000E+00 0.  1.
         21    1    1    2  503  501 -0.25112243358E+02  0.16525076332E+02  0.20534880129E+03  0.20753754626E+03  0.00000000000E+00 0. -1.
</event>
<event>
 4    1  0.6008802E+002  0.3007207E+02  0.7546771E-02  0.1418971E+00
          2   -1    0    0  503    0  0.00000000000E+00  0.00000000000E+00  0.49699955027E+03  0.49699955027E+03  0.00000000000E+00 0.  1.
         -2   -1    0    0    0  501 -0.00000000000E+00 -0.00000000000E+00 -0.52486197674E+01  0.52486197674E+01  0.00000000000E+00 0. -1.
         21    1    1    2  502  501 -0.29794494692E+02 -0.40764191789E+01  0.42895935316E+02  0.52386929419E+02  0.00000000000E+00 0. -1.
         21    1    1    2  503  502  0.29794494692E+02  0.40764191789E+01  0.44885499519E+03  0.44986124062E+03  0.00000000000E+00 0.  1.
</event>
<event>
 4    1  0.6008802E+002  0.2001681E+02  0.7546771E-02  0.1533779E+00
          2   -1    0    0  502    0  0.00000000000E+00  0.00000000000E+00  0.10489953601E+04  0.10489953601E+04  0.00000000000E+00 0. -1.
         -2   -1    0    0    0  501 -0.00000000000E+00 -0.00000000000E+00 -0.54476117319E+00  0.54476117319E+00  0.00000000000E+00 0.  1.
         21    1    1    2  502  503 -0.99044289973E+01 -0.17394685684E+02  0.81110287561E+03  0.81134983060E+03  0.00000000000E+00 0. -1.
         21    1    1    2  503  501  0.99044289973E+01  0.17394685684E+02  0.23734772333E+03  0.23819029068E+03  0.00000000000E+00 0.  1.
</event>
<event>
 4    1  0.6008802E+002  0.2494697E+02  0.7546771E-02  0.1469398E+00
          2   -1    0    0  503    0  0.00000000000E+00  0.00000000000E+00  0.23499497145E+01  0.23499497145E+01  0.00000000000E+00 0.  1.
         -2   -1    0    0    0  501 -0.00000000000E+00 -0.00000000000E+00 -0.37981240212E+03  0.37981240212E+03  0.00000000000E+00 0. -1.
         21    1    1    2  502  501  0.18063905493E+02 -0.17206007422E+02 -0.29386387800E+03  0.29492088798E+03  0.00000000000E+00 0. -1.
         21    1    1    2  503  502 -0.18063905493E+02  0.17206007422E+02 -0.83598574408E+02  0.87241463858E+02  0.00000000000E+00 0.  1.
</event>
<event>
 4    1  0.6008802E+002  0.2012109E+02  0.7546771E-02  0.1532193E+00
          2   -1    0    0  503    0  0.00000000000E+00  0.00000000000E+00  0.98086498256E+02  0.98086498256E+02  0.00000000000E+00 0.  1.
         -2   -1    0    0    0  501 -0.00000000000E+00 -0.00000000000E+00 -0.61806559734E+01  0.61806559734E+01  0.00000000000E+00 0. -1.
         21    1    1    2  502  501 -0.19751488372E+02  0.38388786311E+01  0.15905689822E+02  0.25648572099E+02  0.00000000000E+00 0. -1.
         21    1    1    2  503  502  0.19751488372E+02 -0.38388786311E+01  0.76000152461E+02  0.78618582130E+02  0.00000000000E+00 0.  1.
</event>
<event>
 4    1  0.6008802E+002  0.2621016E+02  0.7546771E-02  0.1455708E+00
          2   -1    0    0  502    0  0.00000000000E+00  0.00000000000E+00  0.93327056500E+03  0.93327056500E+03  0.00000000000E+00 0.  1.
         -2   -1    0    0    0  501 -0.00000000000E+00 -0.00000000000E+00 -0.14448956918E+01  0.14448956918E+01  0.00000000000E+00 0. -1.
         21    1    1    2  502  503 -0.22969968721E+02  0.12623503563E+02  0.79324930485E+03  0.79368219833E+03  0.00000000000E+00 0.  1.
         21    1    1    2  503  501  0.22969968721E+02 -0.12623503563E+02  0.13857636446E+03  0.14103326236E+03  0.00000000000E+00 0. -1.
</event>
<event>
 4    1  0.6008802E+002  0.2523802E+02  0.7546771E-02  0.1466158E+00
          2   -1    0    0  503    0  0.00000000000E+00  0.00000000000E+00  0.76109360028E+00  0.76109360028E+00  0.00000000000E+00 0. -1.
         -2   -1    0    0    0  501 -0.00000000000E+00 -0.00000000000E+00 -0.84458473899E+03  0.84458473899E+03  0.00000000000E+00 0.  1.
         21    1    1    2  502  501  0.20262261211E+02 -0.15046542346E+02 -0.38158856815E+03  0.38242227054E+03  0.00000000000E+00 0.  1.
         21    1    1    2  503  502 -0.20262261211E+02  0.15046542346E+02 -0.46223507724E+03  0.46292356205E+03  0.00000000000E+00 0. -1.
</event>
<event>
 4    1  0.6008802E+002  0.2656083E+02  0.7546771E-02  0.1452070E+00
          2   -1    0    0  502    0  0.00000000000E+00  0.00000000000E+00  0.11420139513E+03  0.11420139513E+03  0.00000000000E+00 0. -1.
         -2   -1    0    0    0  501 -0.00000000000E+00 -0.00000000000E+00 -0.81026166464E+01  0.81026166464E+01  0.00000000000E+00 0.  1.
         21    1    1    2  502  503  0.54145341739E+01  0.26003081900E+02  0.23241705128E+02  0.35293828156E+02  0.00000000000E+00 0.  1.
         21    1    1    2  503  501 -0.54145341739E+01 -0.26003081900E+02  0.82857073358E+02  0.87010183623E+02  0.00000000000E+00 0. -1.
</event>
<event>
 4    1  0.6008802E+002  0.2339809E+02  0.7546771E-02  0.1487559E+00
          2   -1    0    0  502    0  0.00000000000E+00  0.00000000000E+00  0.28588901823E+03  0.28588901823E+03  0.00000000000E+00 0. -1.
         -2   -1    0    0    0  501 -0.00000000000E+00 -0.00000000000E+00 -0.32992680683E+02  0.32992680683E+02  0.00000000000E+00 0.  1.
         21    1    1    2  502  503 -0.29798494441E+00  0.23396194144E+02  0.28119268344E+03  0.28216448379E+03  0.00000000000E+00 0. -1.
         21    1    1    2  503  501  0.29798494441E+00 -0.23396194144E+02 -0.28296345890E+02  0.36717215120E+02  0.00000000000E+00 0.  1.
</event>
<event>
 4    1  0.6008802E+002  0.2048923E+02  0.7546771E-02  0.1526684E+00
          2   -1    0    0  503    0  0.00000000000E+00  0.00000000000E+00  0.18770009039E+02  0.18770009039E+02  0.00000000000E+00 0. -1.
         -2   -1    0    0    0  501 -0.00000000000E+00 -0.00000000000E+00 -0.30001289424E+02  0.30001289424E+02  0.00000000000E+00 0.  1.
         21    1    1    2  502  501  0.20382753265E+02  0.20861406289E+01 -0.17917740075E+02  0.27218633742E+02  0.00000000000E+00 0.  1.
         21    1    1    2  503  502 -0.20382753265E+02 -0.20861406289E+01  0.66864596900E+01  0.21552664721E+02  0.00000000000E+00 0. -1.
</event>
<event>
 4    1  0.6008802E+002  0.2278017E+02  0.7546771E-02  0.1495277E+00
          2   -1    0    0  503    0  0.00000000000E+00  0.00000000000E+00  0.75542636794E+02  0.75542636794E+02  0.00000000000E+00 0.  1.
         -2   -1    0    0    0  501 -0.00000000000E+00 -0.00000000000E+00 -0.16134954952E+02  0.16134954952E+02  0.00000000000E+00 0. -1.
         21    1    1    2  502  501  0.22754942684E+02 -0.10717005603E+01 -0.50324941086E+01  0.23329422530E+02  0.00000000000E+00 0. -1.
         21    1    1    2  503  502 -0.22754942684E+02  0.10717005603E+01  0.64440175951E+02  0.68348169216E+02  0.00000000000E+00 0.  1.
</event>
<event>
 4    1  0.6008802E+002  0.2133003E+02  0.7546771E-02  0.1514605E+00
          2   -1    0    0  502    0  0.00000000000E+00  0.00000000000E+00  0.54548796560E+02  0.54548796560E+02  0.00000000000E+00 0.  1.
         -2   -1    0    0    0  501 -0.00000000000E+00 -0.00000000000E+00 -0.10317775048E+02  0.10317775048E+02  0.00000000000E+00 0. -1.
         21    1    1    2  502  503 -0.14816411630E+02  0.15344194678E+02  0.36313247870E+02  0.42114395814E+02  0.00000000000E+00 0.  1.
         21    1    1    2  503  501  0.14816411630E+02 -0.15344194678E+02  0.79177736424E+01  0.22752175794E+02  0.00000000000E+00 0. -1.
</event>
<event>
 4    1  0.6008802E+002  0.3429780E+02  0.7546771E-02  0.1385568E+00
          2   -1    0    0  503    0  0.00000000000E+00  0.00000000000E+00  0.13702911552E+04  0.13702911552E+04  0.00000000000E+00 0. -1.
         -2   -1    0    0    0  501 -0.00000000000E+00 -0.00000000000E+00 -0.89892376371E+00  0.89892376371E+00  0.00000000000E+00 0.  1.
         21    1    1    2  502  501 -0.34142730823E+02 -0.32577550745E+01  0.53923607107E+03  0.54032571601E+03  0.00000000000E+00 0. -1.
         21    1    1    2  503  502  0.34142730823E+02  0.32577550745E+01  0.83015616032E+03  0.83086436291E+03  0.00000000000E+00 0.  1.
</event>
<event>
 4    1  0.6008802E+002  0.2399259E+02  0.7546771E-02  0.1480397E+00
          2   -1    0    0  503    0  0.00000000000E+00  0.00000000000E+00  0.53560593703E+02  0.53560593703E+02  0.00000000000E+00 0. -1.
         -2   -1    0    0    0  501 -0.00000000000E+00 -0.00000000000E+00 -0.11568298254E+02  0.11568298254E+02  0.00000000000E+00 0.  1.
         21    1    1    2  502  501  0.61214097725E+01  0.23198546220E+02  0.12322162978E+02  0.26971835399E+02  0.00000000000E+00 0. -1.
         21    1    1    2  503  502 -0.61214097725E+01 -0.23198546220E+02  0.29670132470E+02  0.38157056558E+02  0.00000000000E+00 0.  1.
</event>
<event>
 4    1  0.6008802E+002  0.4226108E+02  0.7546771E-02  0.1335722E+00
          2   -1    0    0  503    0  0.00000000000E+00  0.00000000000E+00  0.22721859415E+03  0.22721859415E+03  0.00000000000E+00 0. -1.
         -2   -1    0    0    0  501 -0.00000000000E+00 -0.00000000000E+00 -0.79497655999E+01  0.79497655999E+01  0.00000000000E+00 0.  1.
         21    1    1    2  502  501  0.38534576007E+02  0.17351821074E+02  0.97158415827E+02  0.10595167299E+03  0.00000000000E+00 0. -1.
         21    1    1    2  503  502 -0.38534576007E+02 -0.17351821074E+02  0.12211041272E+03  0.12921668676E+03  0.00000000000E+00 0.  1.
</event>
<event>
 4    1  0.6008802E+002  0.2373897E+02  0.7546771E-02  0.1483422E+00
          2   -1    0    0  502    0  0.00000000000E+00  0.00000000000E+00  0.41665173014E+03  0.41665173014E+03  0.00000000000E+00 0. -1.
         -2   -1    0    0    0  501 -0.00000000000E+00 -0.00000000000E+00 -0.14649391931E+01  0.14649391931E+01  0.00000000000E+00 0.  1.
         21    1    1    2  502  503 -0.14893473894E+01  0.23692200035E+02  0.26550126433E+03  0.26656042441E+03  0.00000000000E+00 0. -1.
         21    1    1    2  503  501  0.14893473894E+01 -0.23692200035E+02  0.14968552662E+03  0.15155624493E+03  0.00000000000E+00 0.  1.
</event>
<event>
 4    1  0.6008802E+002  0.2618774E+02  0.7546771E-02  0.1455943E+00
          2   -1    0    0  503    0  0.00000000000E+00  0.00000000000E+00  0.10415103133E+02  0.10415103133E+02  0.00000000000E+00 0.  1.
         -2   -1    0    0    0  501 -0.00000000000E+00 -0.00000000000E+00 -0.54128038785E+03  0.54128038785E+03  0.00000000000E+00 0. -1.
         21    1    1    2  502  501 -0.31136838311E+01  0.26001973454E+02 -0.52395813787E+03  0.52461216903E+03  0.00000000000E+00 0. -1.
         21    1    1    2  503  502  0.31136838311E+01 -0.26001973454E+02 -0.69071468448E+01  0.27083321954E+02  0.00000000000E+00 0.  1.
</event>
<event>
 4    1  0.6008802E+002  0.2558808E+02  0.7546771E-02  0.1462331E+00
          2   -1    0    0  503    0  0.00000000000E+00  0.00000000000E+00  0.41696134789E+03  0.41696134789E+03  0.00000000000E+00 0. -1.
         -2   -1    0    0    0  501 -0.00000000000E+00 -0.00000000000E+00 -0.21472269319E+01  0.21472269319E+01  0.00000000000E+00 0.  1.
         21    1    1    2  502  501  0.81958138367E+01  0.24240018730E+02  0.98783989865E+02  0.10204423808E+03  0.00000000000E+00 0.  1.
         21    1    1    2  503  502 -0.81958138367E+01 -0.24240018730E+02  0.31603013109E+03  0.31706433673E+03  0.00000000000E+00 0. -1.
</event>
<event>
 4    1  0.6008802E+002  0.3101268E+02  0.7546771E-02  0.1410996E+00
          2   -1    0    0  502    0  0.00000000000E+00  0.00000000000E+00  0.96684347758E+02  0.96684347758E+02  0.00000000000E+00 0. -1.
         -2   -1    0    0    0  501 -0.00000000000E+00 -0.00000000000E+00 -0.63950540256E+02  0.63950540256E+02  0.00000000000E+00 0.  1.
         21    1    1    2  502  503 -0.29887678468E+02 -0.82772633313E+01  0.90173655269E+02  0.95357613838E+02  0.00000000000E+00 0. -1.
         21    1    1    2  503  501  0.29887678468E+02  0.82772633313E+01 -0.57439847766E+02  0.65277274176E+02  0.00000000000E+00 0.  1.
</event>
<event>
 4    1  0.6008802E+002  0.2016008E+02  0.7546771E-02  0.1531603E+00
          2   -1    0    0  502    0  0.00000000000E+00  0.00000000000E+00  0.70036711724E+03  0.70036711724E+03  0.00000000000E+00 0.  1.
         -2   -1    0    0    0  501 -0.00000000000E+00 -0.00000000000E+00 -0.89877808620E+00  0.89877808620E+00  0.00000000000E+00 0. -1.
         21    1    1    2  502  503 -0.11037389550E+02  0.16870234767E+02  0.55845253442E+03  0.55881630434E+03  0.00000000000E+00 0.  1.
         21    1    1    2  503  501  0.11037389550E+02 -0.16870234767E+02  0.14101580473E+03  0.14244959099E+03  0.00000000000E+00 0. -1.
</event>
<event>
 4    1  0.6008802E+002  0.2129917E+02  0.7546771E-02  0.1515036E+00
          2   -1    0    0  503    0  0.00000000000E+00  0.00000000000E+00  0.71902821628E+03  0.71902821628E+03  0.00000000000E+00 0. -1.
         -2   -1    0    0    0  501 -0.00000000000E+00 -0.00000000000E+00 -0.21566237033E+01  0.21566237033E+01  0.00000000000E+00 0.  1.
         21    1    1    2  502  501 -0.18343127870E+02  0.10825162639E+02  0.55142035588E+02  0.59112592356E+02  0.00000000000E+00 0.  1.
         21    1    1    2  503  502  0.18343127870E+02 -0.10825162639E+02  0.66172955699E+03  0.66207224763E+03  0.00000000000E+00 0. -1.
</event>
<event>
 4    1  0.6008802E+002  0.2896312E+02  0.7546771E-02  0.1428826E+00
          2   -1    0    0  502    0  0.00000000000E+00  0.00000000000E+00  0.14368832036E+04  0.14368832036E+04  0.00000000000E+00 0. -1.
         -2   -1    0    0    0  501 -0.00000000000E+00 -0.00000000000E+00 -0.73453028242E+00  0.73453028242E+00  0.00000000000E+00 0.  1.
         21    1    1    2  502  503  0.27950736447E+02  0.75906880064E+01  0.10436852899E+04  0.10440870876E+04  0.00000000000E+00 0. -1.
         21    1    1    2  503  501 -0.27950736447E+02 -0.75906880064E+01  0.39246338341E+03  0.39353064624E+03  0.00000000000E+00 0.  1.
</event>
<event>
 4    1  0.6008802E+002  0.2440305E+02  0.7546771E-02  0.1475593E+00
          2   -1    0    0  502    0  0.00000000000E+00  0.00000000000E+00  0.16679252496E+02  0.16679252496E+02  0.00000000000E+00 0.  1.
         -2   -1    0    0    0  501 -0.00000000000E+00 -0.00000000000E+00 -0.57646407214E+02  0.57646407214E+02  0.00000000000E+00 0. -1.
         21    1    1    2  502  503 -0.12963295243E+02 -0.20675154076E+02 -0.43411723949E+02  0.49800469836E+02  0.00000000000E+00 0. -1.
         21    1    1    2  503  501  0.12963295243E+02  0.20675154076E+02  0.24445692320E+01  0.24525189874E+02  0.00000000000E+00 0.  1.
</event>
<event>
 4    1  0.6008802E+002  0.4857440E+02  0.7546771E-02  0.1304475E+00
          2   -1    0    0  503    0  0.00000000000E+00  0.00000000000E+00  0.15490942876E+04  0.15490942876E+04  0.00000000000E+00 0. -1.
         -2   -1    0    0    0  501 -0.00000000000E+00 -0.00000000000E+00 -0.16130986319E+01  0.16130986319E+01  0.00000000000E+00 0.  1.
         21    1    1    2  502  501 -0.70964541415E+01  0.48053230384E+02  0.59062978778E+03  0.59262384261E+03  0.00000000000E+00 0.  1.
         21    1    1    2  503  502  0.70964541415E+01 -0.48053230384E+02  0.95685140121E+03  0.95808354365E+03  0.00000000000E+00 0. -1.
</event>
<event>
 4    1  0.6008802E+002  0.3994702E+02  0.7546771E-02  0.1348797E+00
          2   -1    0    0  502    0  0.00000000000E+00  0.00000000000E+00  0.37093192893E+03  0.37093192893E+03  0.00000000000E+00 0.  1.
         -2   -1    0    0    0  501 -0.00000000000E+00 -0.00000000000E+00 -0.13124829581E+02  0.13124829581E+02  0.00000000000E+00 0. -1.
         21    1    1    2  502  503  0.39124690414E+02  0.80636997353E+01  0.33634587561E+03  0.33870977650E+03  0.00000000000E+00 0.  1.
         21    1    1    2  503  501 -0.39124690414E+02 -0.80636997353E+01  0.21461223735E+02  0.45346982012E+02  0.00000000000E+00 0. -1.
</event>
<event>
 4    1  0.6008802E+002  0.2870436E+02  0.7546771E-02  0.1431200E+00
          2   -1    0    0  502    0  0.00000000000E+00  0.00000000000E+00  0.21471027993E+03  0.21471027993E+03  0.00000000000E+00 0. -1.
         -2   -1    0    0    0  501 -0.00000000000E+00 -0.00000000000E+00 -0.13499222492E+02  0.13499222492E+02  0.00000000000E+00 0.  1.
         21    1    1    2  502  503 -0.17162838762E+02 -0.23008198372E+02  0.19713895625E+03  0.19921774092E+03  0.00000000000E+00 0. -1.
         21    1    1    2  503  501  0.17162838762E+02  0.23008198372E+02  0.40721011868E+01  0.28991761499E+02  0.00000000000E+00 0.  1.
</event>
<event>
 4    1  0.6008802E+002  0.2107954E+02  0.7546771E-02  0.1518132E+00
          2   -1    0    0  503    0  0.00000000000E+00  0.00000000000E+00  0.22447558537E+03  0.22447558537E+03  0.00000000000E+00 0.  1.
         -2   -1    0    0    0  501 -0.00000000000E+00 -0.00000000000E+00 -0.41546173024E+01  0.41546173024E+01  0.00000000000E+00 0. -1.
         21    1    1    2  502  501  0.19098287178E+02  0.89220188379E+01  0.27446200114E+02  0.34606948637E+02  0.00000000000E+00 0. -1.
         21    1    1    2  503  502 -0.19098287178E+02 -0.89220188379E+01  0.19287476795E+03  0.19402325403E+03  0.00000000000E+00 0.  1.
</event>
<event>
 4    1  0.6008802E+002  0.2050480E+02  0.7546771E-02  0.1526454E+00
          2   -1    0    0  502    0  0.00000000000E+00  0.00000000000E+00  0.91110662101E+03  0.91110662101E+03  0.00000000000E+00 0.  1.
         -2   -1    0    0    0  501 -0.00000000000E+00 -0.00000000000E+00 -0.33272333825E+01  0.33272333825E+01  0.00000000000E+00 0. -1.
         21    1    1    2  502  503  0.15714312781E+02  0.13172215479E+02  0.87821697664E+03  0.87845631931E+03  0.00000000000E+00 0.  1.
         21    1    1    2  503  501 -0.15714312781E+02 -0.13172215479E+02  0.29562410987E+02  0.35977535077E+02  0.00000000000E+00 0. -1.
</event>
<event>
 4    1  0.6008802E+002  0.2113314E+02  0.7546771E-02  0.1517372E+00
          2   -1    0    0  503    0  0.00000000000E+00  0.00000000000E+00  0.82063812608E+01  0.82063812608E+01  0.00000000000E+00 0. -1.
         -2   -1    0    0    0  501 -0.00000000000E+00 -0.00000000000E+00 -0.13823040168E+03  0.13823040168E+03  0.00000000000E+00 0.  1.
         21    1    1    2  502  501  0.11681899427E+02 -0.17610870287E+02 -0.12202339567E+03  0.12383989106E+03  0.00000000000E+00 0.  1.
         21    1    1    2  503  502 -0.11681899427E+02  0.17610870287E+02 -0.80006247528E+01  0.22596891886E+02  0.00000000000E+00 0. -1.
</event>
<event>
 4    1  0.6008802E+002  0.2128237E+02  0.7546771E-02  0.1515271E+00
          2   -1    0    0  502    0  0.00000000000E+00  0.00000000000E+00  0.70883097421E+03  0.70883097421E+03  0.00000000000E+00 0.  1.
         -2   -1    0    0    0  501 -0.00000000000E+00 -0.00000000000E+00 -0.10427677720E+01  0.10427677720E+01  0.00000000000E+00 0. -1.
         21    1    1    2  502  503  0.15502656436E+01 -0.21225827630E+02  0.57475870103E+03  0.57515259149E+03  0.00000000000E+00 0.  1.
         21    1    1    2  503  501 -0.15502656436E+01  0.21225827630E+02  0.13302950540E+03  0.13472115049E+03  0.00000000000E+00 0. -1.
</event>
<event>
 4    1  0.6008802E+002  0.2454320E+02  0.7546771E-02  0.1473979E+00
          2   -1    0    0  502    0  0.00000000000E+00  0.00000000000E+00  0.89840111532E+03  0.89840111532E+03  0.00000000000E+00 0.  1.
         -2   -1    0    0    0  501 -0.00000000000E+00 -0.00000000000E+00 -0.13255702319E+01  0.13255702319E+01  0.00000000000E+00 0. -1.
         21    1    1    2  502  503 -0.18038886715E+02 -0.16642325448E+02  0.76478496495E+03  0.76517867916E+03  0.00000000000E+00 0.  1.
         21    1    1    2  503  501  0.18038886715E+02  0.16642325448E+02  0.13229058014E+03  0.13454800639E+03  0.00000000000E+00 0. -1.
</event>
<event>
 4    1  0.6008802E+002  0.2695178E+02  0.7546771E-02  0.1448093E+00
          2   -1    0    0  502    0  0.00000000000E+00  0.00000000000E+00  0.42270097039E+02  0.42270097039E+02  0.00000000000E+00 0. -1.
         -2   -1    0    0    0  501 -0.00000000000E+00 -0.00000000000E+00 -0.28403074419E+02  0.28403074419E+02  0.00000000000E+00 0.  1.
         21    1    1    2  502  503 -0.73824456812E+01  0.25920993303E+02  0.29141392286E+02  0.39694069361E+02  0.00000000000E+00 0. -1.
         21    1    1    2  503  501  0.73824456812E+01 -0.25920993303E+02 -0.15274369665E+02  0.30979102097E+02  0.00000000000E+00 0.  1.
</event>
<event>
 4    1  0.6008802E+002  0.2801880E+02  0.7546771E-02  0.1437634E+00
          2   -1    0    0  502    0  0.00000000000E+00  0.00000000000E+00  0.79351749636E+02  0.79351749636E+02  0.00000000000E+00 0. -1.
         -2   -1    0    0    0  501 -0.00000000000E+00 -0.00000000000E+00 -0.11631654840E+02  0.11631654840E+02  0.00000000000E+00 0.  1.
         21    1    1    2  502  503 -0.27710080452E+02  0.41478429601E+01  0.51446438298E+02  0.58581474661E+02  0.00000000000E+00 0. -1.
         21    1    1    2  503  501  0.27710080452E+02 -0.41478429601E+01  0.16273656499E+02  0.32401929815E+02  0.00000000000E+00 0.  1.
</event>
<event>
 4    1  0.6008802E+002  0.2575311E+02  0.7546771E-02  0.1460552E+00
          2   -1    0    0  502    0  0.00000000000E+00  0.00000000000E+00  0.48696502499E+03  0.48696502499E+03  0.00000000000E+00 0. -1.
         -2   -1    0    0    0  501 -0.00000000000E+00 -0.00000000000E+00 -0.28295530476E+01  0.28295530476E+01  0.00000000000E+00 0.  1.
         21    1    1    2  502  503  0.23699167913E+02  0.10078303098E+02  0.41843953134E+03  0.41923127763E+03  0.00000000000E+00 0. -1.
         21    1    1    2  503  501 -0.23699167913E+02 -0.10078303098E+02  0.65695940597E+02  0.70563300405E+02  0.00000000000E+00 0.  1.
</event>
<event>
 4    1  0.6008802E+002  0.3321533E+02  0.7546771E-02  0.1393564E+00
          2   -1    0    0  502    0  0.00000000000E+00  0.00000000000E+00  0.12976551744E+04  0.12976551744E+04  0.00000000000E+00 0. -1.
         -2   -1    0    0    0  501 -0.00000000000E+00 -0.00000000000E+00 -0.46126803830E+01  0.46126803830E+01  0.00000000000E+00 0.  1.
         21    1    1    2  502  503  0.22203952891E+02 -0.24703087380E+02  0.12345941088E+04  0.12350408380E+04  0.00000000000E+00 0. -1.
         21    1    1    2  503  501 -0.22203952891E+02  0.24703087380E+02  0.58448385181E+02  0.67227016745E+02  0.00000000000E+00 0.  1.
</event>
<event>
 4    1  0.6008802E+002  0.3239798E+02  0.7546771E-02  0.1399841E+00
          2   -1    0    0  502    0  0.00000000000E+00  0.00000000000E+00  0.34063903138E+03  0.34063903138E+03  0.00000000000E+00 0.  1.
         -2   -1    0    0    0  501 -0.00000000000E+00 -0.00000000000E+00 -0.50486761768E+01  0.50486761768E+01  0.00000000000E+00 0. -1.
         21    1    1    2  502  503 -0.32209494534E+02 -0.34896533896E+01  0.27569059490E+03  0.27758770386E+03  0.00000000000E+00 0.  1.
         21    1    1    2  503  501  0.32209494534E+02  0.34896533896E+01  0.59899760305E+02  0.68100003697E+02  0.00000000000E+00 0. -1.
</event>
<event>
 4    1  0.6008802E+002  0.2526724E+02  0.7546771E-02  0.1465836E+00
          2   -1    0    0  502    0  0.00000000000E+00  0.00000000000E+00  0.21374828527E+03  0.21374828527E+03  0.00000000000E+00 0.  1.
         -2   -1    0    0    0  501 -0.00000000000E+00 -0.00000000000E+00 -0.30449093769E+01  0.30449093769E+01  0.00000000000E+00 0. -1.
         21    1    1    2  502  503  0.22913028974E+02  0.10650193213E+02  0.12032005197E+03  0.12294449324E+03  0.00000000000E+00 0.  1.
         21    1    1    2  503  501 -0.22913028974E+02 -0.10650193213E+02  0.90383323927E+02  0.93848701410E+02  0.00000000000E+00 0. -1.
</event>
<event>
 4    1  0.6008802E+002  0.3470008E+02  0.7546771E-02  0.1382684E+00
          2   -1    0    0  503    0  0.00000000000E+00  0.00000000000E+00  0.29492617630E+04  0.29492617630E+04  0.00000000000E+00 0. -1.
         -2   -1    0    0    0  501 -0.00000000000E+00 -0.00000000000E+00 -0.73851459778E+00  0.73851459778E+00  0.00000000000E+00 0.  1.
         21    1    1    2  502  501 -0.23094933612E+02 -0.25898259965E+02  0.48791351165E+03  0.48914587873E+03  0.00000000000E+00 0.  1.
         21    1    1    2  503  502  0.23094933612E+02  0.25898259965E+02  0.24606097367E+04  0.24608543988E+04  0.00000000000E+00 0. -1.
</event>
<event>
 4    1  0.6008802E+002  0.2368671E+02  0.7546771E-02  0.1484051E+00
          2   -1    0    0  503    0  0.00000000000E+00  0.00000000000E+00  0.10036004211E+04  0.10036004211E+04  0.00000000000E+00 0. -1.
         -2   -1    0    0    0  501 -0.00000000000E+00 -0.00000000000E+00 -0.62466159431E+00  0.62466159431E+00  0.00000000000E+00 0.  1.
         21    1    1    2  502  501  0.23354757474E+02  0.39516436392E+01  0.33875412732E+03  0.33958124059E+03  0.00000000000E+00 0.  1.
         21    1    1    2  503  502 -0.23354757474E+02 -0.39516436392E+01  0.66422163219E+03  0.66464384211E+03  0.00000000000E+00 0. -1.
</event>
<event>
 4    1  0.6008802E+002  0.2555922E+02  0.7546771E-02  0.1462644E+00
          2   -1    0    0  502    0  0.00000000000E+00  0.00000000000E+00  0.11917213469E+03  0.11917213469E+03  0.00000000000E+00 0. -1.
         -2   -1    0    0    0  501 -0.00000000000E+00 -0.00000000000E+00 -0.64093330750E+01  0.64093330750E+01  0.00000000000E+00 0.  1.
         21    1    1    2  502  503 -0.11539152917E+02 -0.22806180778E+02  0.80268392342E+02  0.84239472582E+02  0.00000000000E+00 0.  1.
         21    1    1    2  503  501  0.11539152917E+02  0.22806180778E+02  0.32494409274E+02  0.41341995184E+02  0.00000000000E+00 0. -1.
</event>
<event>
 4    1  0.6008802E+002  0.2956876E+02  0.7546771E-02  0.1423381E+00
          2   -1    0    0  503    0  0.00000000000E+00  0.00000000000E+00  0.75321450406E+02  0.75321450406E+02  0.00000000000E+00 0.  1.
         -2   -1    0    0    0  501 -0.00000000000E+00 -0.00000000000E+00 -0.32246974356E+02  0.32246974356E+02  0.00000000000E+00 0. -1.
         21    1    1    2  502  501  0.15744337784E+02  0.25028528325E+02 -0.21491357983E+02  0.36553930983E+02  0.00000000000E+00 0. -1.
         21    1    1    2  503  502 -0.15744337784E+02 -0.25028528325E+02  0.64565834033E+02  0.71014493779E+02  0.00000000000E+00 0.  1.
</event>
<event>
 4    1  0.6008802E+002  0.3350130E+02  0.7546771E-02  0.1391417E+00
          2   -1    0    0  503    0  0.00000000000E+00  0.00000000000E+00  0.67672837803E+03  0.67672837803E+03  0.00000000000E+00 0. -1.
         -2   -1    0    0    0  501 -0.00000000000E+00 -0.00000000000E+00 -0.19050039460E+01  0.19050039460E+01  0.00000000000E+00 0.  1.
         21    1    1    2  502  501 -0.27756265254E+02  0.18759721870E+02  0.21534678276E+03  0.21793708787E+03  0.00000000000E+00 0. -1.
         21    1    1    2  503  502  0.27756265254E+02 -0.18759721870E+02  0.45947659133E+03  0.46069629410E+03  0.00000000000E+00 0.  1.
</event>
<event>
 4    1  0.6008802E+002  0.3845963E+02  0.7546771E-02  0.1357757E+00
          2   -1    0    0  503    0  0.00000000000E+00  0.00000000000E+00  0.57543710378E+02  0.57543710378E+02  0.00000000000E+00 0. -1.
         -2   -1    0    0    0  501 -0.00000000000E+00 -0.00000000000E+00 -0.31357071235E+02  0.31357071235E+02  0.00000000000E+00 0.  1.
         21    1    1    2  502  501 -0.34630382213E+02 -0.16729606221E+02  0.31965568394E+02  0.50009405708E+02  0.00000000000E+00 0. -1.
         21    1    1    2  503  502  0.34630382213E+02  0.16729606221E+02 -0.57789292504E+01  0.38891375905E+02  0.00000000000E+00 0.  1.
</event>
<event>
 4    1  0.6008802E+002  0.2005100E+02  0.7546771E-02  0.1533258E+00
          2   -1    0    0  503    0  0.00000000000E+00  0.00000000000E+00  0.37013493864E+03  0.37013493864E+03  0.00000000000E+00 0. -1.
         -2   -1    0    0    0  501 -0.00000000000E+00 -0.00000000000E+00 -0.15035332895E+01  0.15035332895E+01  0.00000000000E+00 0.  1.
         21    1    1    2  502  501  0.19952778118E+02  0.19822154758E+01  0.86417909622E+02  0.88713570756E+02  0.00000000000E+00 0.  1.
         21    1    1    2  503  502 -0.19952778118E+02 -0.19822154758E+01  0.28221349573E+03  0.28292490118E+03  0.00000000000E+00 0. -1.
</event>
<event>
 4    1  0.6008802E+002  0.2141089E+02  0.7546771E-02  0.1513479E+00
          2   -1    0    0  503    0  0.00000000000E+00  0.00000000000E+00  0.36868944278E+01  0.36868944278E+01  0.00000000000E+00 0. -1.
         -2   -1    0    0    0  501 -0.00000000000E+00 -0.00000000000E+00 -0.13809913438E+03  0.13809913438E+03  0.00000000000E+00 0.  1.
         21    1    1    2  502  501  0.93463617107E+01  0.19263223452E+02 -0.89583690284E+02  0.92106806588E+02  0.00000000000E+00 0.  1.
         21    1    1    2  503  502 -0.93463617107E+01 -0.19263223452E+02 -0.44828549671E+02  0.49679222222E+02  0.00000000000E+00 0. -1.
</event>
<event>
 4    1  0.6008802E+002  0.2519501E+02  0.7546771E-02  0.1466633E+00
          2   -1    0    0  502    0  0.00000000000E+00  0.00000000000E+00  0.79873438366E+02  0.79873438366E+02  0.00000000000E+00 0.  1.
         -2   -1    0    0    0  501 -0.00000000000E+00 -0.00000000000E+00 -0.11041531393E+02  0.11041531393E+02  0.00000000000E+00 0. -1.
         21    1    1    2  502  503 -0.35088684231E+01 -0.24949481183E+02  0.58479400263E+02  0.63675968968E+02  0.00000000000E+00 0.  1.
         21    1    1    2  503  501  0.35088684231E+01  0.24949481183E+02  0.10352506710E+02  0.27239000790E+02  0.00000000000E+00 0. -1.
</event>
<event>
 4    1  0.6008802E+002  0.2798836E+02  0.7546771E-02  0.1437925E+00
          2   -1    0    0  502    0  0.00000000000E+00  0.00000000000E+00  0.15276868380E+03  0.15276868380E+03  0.00000000000E+00 0.  1.
         -2   -1    0    0    0  501 -0.00000000000E+00 -0.00000000000E+00 -0.91953702228E+02  0.91953702228E+02  0.00000000000E+00 0. -1.
         21    1    1    2  502  503 -0.24818012485E+02 -0.12938887019E+02  0.14930809232E+03  0.15190870605E+03  0.00000000000E+00 0.  1.
         21    1    1    2  503  501  0.24818012485E+02  0.12938887019E+02 -0.88493110749E+02  0.92813679978E+02  0.00000000000E+00 0. -1.
</event>
<event>
 4    1  0.6008802E+002  0.2672393E+02  0.7546771E-02  0.1450401E+00
          2   -1    0    0  502    0  0.00000000000E+00  0.00000000000E+00  0.73288220587E+03  0.73288220587E+03  0.00000000000E+00 0.  1.
         -2   -1    0    0    0  501 -0.00000000000E+00 -0.00000000000E+00 -0.11555072319E+01  0.11555072319E+01  0.00000000000E+00 0. -1.
         21    1    1    2  502  503  0.98458626481E+01 -0.24844061066E+02  0.22058815563E+03  0.22220104137E+03  0.00000000000E+00 0. -1.
         21    1    1    2  503  501 -0.98458626481E+01  0.24844061066E+02  0.51113854301E+03  0.51183667173E+03  0.00000000000E+00 0.  1.
</event>
<event>
 4    1  0.6008802E+002  0.2190649E+02  0.7546771E-02  0.1506706E+00
          2   -1    0    0  502    0  0.00000000000E+00  0.00000000000E+00  0.31404500850E+03  0.31404500850E+03  0.00000000000E+00 0. -1.
         -2   -1    0    0    0  501 -0.00000000000E+00 -0.00000000000E+00 -0.15728929490E+01  0.15728929490E+01  0.00000000000E+00 0.  1.
         21    1    1    2  502  503  0.41680066162E+01  0.21506322921E+02  0.12960701343E+03  0.13144531994E+03  0.00000000000E+00 0.  1.
         21    1    1    2  503  501 -0.41680066162E+01 -0.21506322921E+02  0.18286510212E+03  0.18417258150E+03  0.00000000000E+00 0. -1.
</event>
<event>
 4    1  0.6008802E+002  0.1335059E+03  0.7546771E-02  0.1115836E+00
          2   -1    0    0  502    0  0.00000000000E+00  0.00000000000E+00  0.82578917717E+03  0.82578917717E+03  0.00000000000E+00 0. -1.
         -2   -1    0    0    0  501 -0.00000000000E+00 -0.00000000000E+00 -0.21807069849E+02  0.21807069849E+02  0.00000000000E+00 0.  1.
         21    1    1    2  502  503 -0.13236556820E+03 -0.17411926206E+02  0.44485559995E+03  0.46445702021E+03  0.00000000000E+00 0. -1.
         21    1    1    2  503  501  0.13236556820E+03  0.17411926206E+02  0.35912650737E+03  0.38313922680E+03  0.00000000000E+00 0.  1.
</event>
<event>
 4    1  0.6008802E+002  0.2642954E+02  0.7546771E-02  0.1453424E+00
          2   -1    0    0  503    0  0.00000000000E+00  0.00000000000E+00  0.10144296557E+03  0.10144296557E+03  0.00000000000E+00 0.  1.
         -2   -1    0    0    0  501 -0.00000000000E+00 -0.00000000000E+00 -0.74396966839E+01  0.74396966839E+01  0.00000000000E+00 0. -1.
         21    1    1    2  502  501  0.18061007636E+02 -0.19295615651E+02  0.32147514653E+02  0.41617105600E+02  0.00000000000E+00 0. -1.
         21    1    1    2  503  502 -0.18061007636E+02  0.19295615651E+02  0.61855754232E+02  0.67265556653E+02  0.00000000000E+00 0.  1.
</event>
<event>
 4    1  0.6008802E+002  0.2805676E+02  0.7546771E-02  0.1437272E+00
          2   -1    0    0  503    0  0.00000000000E+00  0.00000000000E+00  0.12801407316E+03  0.12801407316E+03  0.00000000000E+00 0.  1.
         -2   -1    0    0    0  501 -0.00000000000E+00 -0.00000000000E+00 -0.61533791550E+01  0.61533791550E+01  0.00000000000E+00 0. -1.
         21    1    1    2  502  501  0.21217484593E+02 -0.18357570732E+02  0.59178692631E+02  0.65492745531E+02  0.00000000000E+00 0.  1.
         21    1    1    2  503  502 -0.21217484593E+02  0.18357570732E+02  0.62682001369E+02  0.68674706780E+02  0.00000000000E+00 0. -1.
</event>
<event>
 4    1  0.6008802E+002  0.2147273E+02  0.7546771E-02  0.1512621E+00
          2   -1    0    0  502    0  0.00000000000E+00  0.00000000000E+00  0.90871435169E+02  0.90871435169E+02  0.00000000000E+00 0.  1.
         -2   -1    0    0    0  501 -0.00000000000E+00 -0.00000000000E+00 -0.51008494141E+01  0.51008494141E+01  0.00000000000E+00 0. -1.
         21    1    1    2  502  503  0.15034174593E+02  0.15331396924E+02  0.39401314364E+02  0.44872505067E+02  0.00000000000E+00 0. -1.
         21    1    1    2  503  501 -0.15034174593E+02 -0.15331396924E+02  0.46369271391E+02  0.51099779517E+02  0.00000000000E+00 0.  1.
</event>
<event>
 4    1  0.6008802E+002  0.2871468E+02  0.7546771E-02  0.1431105E+00
          2   -1    0    0  503    0  0.00000000000E+00  0.00000000000E+00  0.33465697979E+03  0.33465697979E+03  0.00000000000E+00 0. -1.
         -2   -1    0    0    0  501 -0.00000000000E+00 -0.00000000000E+00 -0.40451620444E+01  0.40451620444E+01  0.00000000000E+00 0.  1.
         21    1    1    2  502  501 -0.50901022421E+01 -0.28259926036E+02  0.59421085871E+02  0.65995439286E+02  0.00000000000E+00 0. -1.
         21    1    1    2  503  502  0.50901022421E+01  0.28259926036E+02  0.27119073187E+03  0.27270670255E+03  0.00000000000E+00 0.  1.
</event>
<event>
 4    1  0.6008802E+002  0.5098389E+02  0.7546771E-02  0.1293962E+00
          2   -1    0    0  502    0  0.00000000000E+00  0.00000000000E+00  0.76051511834E+02  0.76051511834E+02  0.00000000000E+00 0.  1.
         -2   -1    0    0    0  501 -0.00000000000E+00 -0.00000000000E+00 -0.49124302896E+02  0.49124302896E+02  0.00000000000E+00 0. -1.
         21    1    1    2  502  503 -0.46811575836E+02 -0.20199825045E+02  0.47985619009E+02  0.70014114261E+02  0.00000000000E+00 0.  1.
         21    1    1    2  503  501  0.46811575836E+02  0.20199825045E+02 -0.21058410071E+02  0.55161700470E+02  0.00000000000E+00 0. -1.
</event>
<event>
 4    1  0.6008802E+002  0.2045618E+02  0.7546771E-02  0.1527173E+00
          2   -1    0    0  503    0  0.00000000000E+00  0.00000000000E+00  0.74295985409E+01  0.74295985409E+01  0.00000000000E+00 0.  1.
         -2   -1    0    0    0  501 -0.00000000000E+00 -0.00000000000E+00 -0.56400868732E+02  0.56400868732E+02  0.00000000000E+00 0. -1.
         21    1    1    2  502  501  0.15443629967E+02  0.13414532609E+02 -0.23297833830E+02  0.31003942537E+02  0.00000000000E+00 0.  1.
         21    1    1    2  503  502 -0.15443629967E+02 -0.13414532609E+02 -0.25673436362E+02  0.32826524736E+02  0.00000000000E+00 0. -1.
</event>
<event>
 4    1  0.6008802E+002  0.2076581E+02  0.7546771E-02  0.1522635E+00
          2   -1    0    0  503    0  0.00000000000E+00  0.00000000000E+00  0.27464055660E+03  0.27464055660E+03  0.00000000000E+00 0. -1.
         -2   -1    0    0    0  501 -0.00000000000E+00 -0.00000000000E+00 -0.53248470939E+01  0.53248470939E+01  0.00000000000E+00 0.  1.
         21    1    1    2  502  501 -0.11045370345E+02  0.17584615671E+02  0.17111293242E+02  0.26907531859E+02  0.00000000000E+00 0.  1.
         21    1    1    2  503  502  0.11045370345E+02 -0.17584615671E+02  0.25220441626E+03  0.25305787183E+03  0.00000000000E+00 0. -1.
</event>
<event>
 4    1  0.6008802E+002  0.3275123E+02  0.7546771E-02  0.1397102E+00
          2   -1    0    0  503    0  0.00000000000E+00  0.00000000000E+00  0.24882921878E+02  0.24882921878E+02  0.00000000000E+00 0.  1.
         -2   -1    0    0    0  501 -0.00000000000E+00 -0.00000000000E+00 -0.10868228262E+03  0.10868228262E+03  0.00000000000E+00 0. -1.
         21    1    1    2  502  501 -0.51202643561E+01 -0.32348506051E+02 -0.93773959323E+02  0.99328739033E+02  0.00000000000E+00 0. -1.
         21    1    1    2  503  502  0.51202643561E+01  0.32348506051E+02  0.99745985801E+01  0.34236465467E+02  0.00000000000E+00 0.  1.
</event>
<event>
 4    1  0.6008802E+002  0.2027788E+02  0.7546771E-02  0.1529829E+00
          2   -1    0    0  502    0  0.00000000000E+00  0.00000000000E+00  0.18061973958E+03  0.18061973958E+03  0.00000000000E+00 0. -1.
         -2   -1    0    0    0  501 -0.00000000000E+00 -0.00000000000E+00 -0.24892169527E+01  0.24892169527E+01  0.00000000000E+00 0.  1.
         21    1    1    2  502  503  0.16898516450E+02 -0.11208593120E+02  0.62305403212E+02  0.65522177065E+02  0.00000000000E+00 0.  1.
         21    1    1    2  503  501 -0.16898516450E+02  0.11208593120E+02  0.11582511942E+03  0.11758677947E+03  0.00000000000E+00 0. -1.
</event>
<event>
 4    1  0.6008802E+002  0.2654972E+02  0.7546771E-02  0.1452184E+00
          2   -1    0    0  502    0  0.00000000000E+00  0.00000000000E+00  0.59889995883E+03  0.59889995883E+03  0.00000000000E+00 0. -1.
         -2   -1    0    0    0  501 -0.00000000000E+00 -0.00000000000E+00 -0.79569255607E+01  0.79569255607E+01  0.00000000000E+00 0.  1.
         21    1    1    2  502  503 -0.18836415542E+02  0.18710342330E+02  0.57556116226E+03  0.57617318487E+03  0.00000000000E+00 0. -1.
         21    1    1    2  503  501  0.18836415542E+02 -0.18710342330E+02  0.15381871010E+02  0.30683699522E+02  0.00000000000E+00 0.  1.
</event>
<event>
 4    1  0.6008802E+002  0.2522642E+02  0.7546771E-02  0.1466286E+00
          2   -1    0    0  502    0  0.00000000000E+00  0.00000000000E+00  0.16799469006E+04  0.16799469006E+04  0.00000000000E+00 0. -1.
         -2   -1    0    0    0  501 -0.00000000000E+00 -0.00000000000E+00 -0.95115493589E+00  0.95115493589E+00  0.00000000000E+00 0.  1.
         21    1    1    2  502  503  0.83115545706E+01 -0.23817852442E+02  0.14914513744E+04  0.14916646990E+04  0.00000000000E+00 0. -1.
         21    1    1    2  503  501 -0.83115545706E+01  0.23817852442E+02  0.18754437133E+03  0.18923335661E+03  0.00000000000E+00 0.  1.
</event>
<event>
 4    1  0.6008802E+002  0.2461438E+02  0.7546771E-02  0.1473164E+00
          2   -1    0    0  502    0  0.00000000000E+00  0.00000000000E+00  0.17711578775E+02  0.17711578775E+02  0.00000000000E+00 0. -1.
         -2   -1    0    0    0  501 -0.00000000000E+00 -0.00000000000E+00 -0.42826716881E+02  0.42826716881E+02  0.00000000000E+00 0.  1.
         21    1    1    2  502  503  0.24610916995E+02  0.41288631660E+00  0.10217596600E+01  0.24635577997E+02  0.00000000000E+00 0.  1.
         21    1    1    2  503  501 -0.24610916995E+02 -0.41288631660E+00 -0.26136897766E+02  0.35902717659E+02  0.00000000000E+00 0. -1.
</event>
<event>
 4    1  0.6008802E+002  0.2035741E+02  0.7546771E-02  0.1528640E+00
          2   -1    0    0  503    0  0.00000000000E+00  0.00000000000E+00  0.19615633478E+01  0.19615633478E+01  0.00000000000E+00 0. -1.
         -2   -1    0    0    0  501 -0.00000000000E+00 -0.00000000000E+00 -0.24466488180E+03  0.24466488180E+03  0.00000000000E+00 0.  1.
         21    1    1    2  502  501 -0.15767371116E+01  0.20296258454E+02 -0.75795390953E+02  0.78481625218E+02  0.00000000000E+00 0. -1.
         21    1    1    2  503  502  0.15767371116E+01 -0.20296258454E+02 -0.16690792750E+03  0.16814481993E+03  0.00000000000E+00 0.  1.
</event>
<event>
 4    1  0.6008802E+002  0.1882564E+03  0.7546771E-02  0.1063790E+00
          2   -1    0    0  502    0  0.00000000000E+00  0.00000000000E+00  0.23238602930E+04  0.23238602930E+04  0.00000000000E+00 0.  1.
         -2   -1    0    0    0  501 -0.00000000000E+00 -0.00000000000E+00 -0.17314911016E+02  0.17314911016E+02  0.00000000000E+00 0. -1.
         21    1    1    2  502  503  0.94452647227E+02 -0.16284712658E+03  0.15574492752E+04  0.15687857515E+04  0.00000000000E+00 0. -1.
         21    1    1    2  503  501 -0.94452647227E+02  0.16284712658E+03  0.74909610678E+03  0.77238945254E+03  0.00000000000E+00 0.  1.
</event>
<event>
 4    1  0.6008802E+002  0.4340103E+02  0.7546771E-02  0.1329631E+00
          2   -1    0    0  503    0  0.00000000000E+00  0.00000000000E+00  0.15618715702E+03  0.15618715702E+03  0.00000000000E+00 0.  1.
         -2   -1    0    0    0  501 -0.00000000000E+00 -0.00000000000E+00 -0.12425235205E+02  0.12425235205E+02  0.00000000000E+00 0. -1.
         21    1    1    2  502  501 -0.42735021053E+02 -0.75741521137E+01  0.86331000070E+02  0.96626556276E+02  0.00000000000E+00 0. -1.
         21    1    1    2  503  502  0.42735021053E+02  0.75741521137E+01  0.57430921742E+02  0.71985835946E+02  0.00000000000E+00 0.  1.
</event>
<event>
 4    1  0.6008802E+002  0.6182153E+02  0.7546771E-02  0.1253766E+00
          2   -1    0    0  503    0  0.00000000000E+00  0.00000000000E+00  0.13691249761E+04  0.13691249761E+04  0.00000000000E+00 0. -1.
         -2   -1    0    0    0  501 -0.00000000000E+00 -0.00000000000E+00 -0.71596740682E+01  0.71596740682E+01  0.00000000000E+00 0.  1.
         21    1    1    2  502  501  0.13730791291E+02 -0.60277419017E+02  0.14347828816E+03  0.15623034611E+03  0.00000000000E+00 0.  1.
         21    1    1    2  503  502 -0.13730791291E+02  0.60277419017E+02  0.12184870139E+04  0.12200543041E+04  0.00000000000E+00 0. -1.
</event>
<event>
 4    1  0.6008802E+002  0.2033339E+02  0.7546771E-02  0.1528999E+00
          2   -1    0    0  502    0  0.00000000000E+00  0.00000000000E+00  0.16383840550E+01  0.16383840550E+01  0.00000000000E+00 0. -1.
         -2   -1    0    0    0  501 -0.00000000000E+00 -0.00000000000E+00 -0.42998668707E+03  0.42998668707E+03  0.00000000000E+00 0.  1.
         21    1    1    2  502  503 -0.16699831768E+02 -0.11600097550E+02 -0.75461786729E+02  0.78153233462E+02  0.00000000000E+00 0. -1.
         21    1    1    2  503  501  0.16699831768E+02  0.11600097550E+02 -0.35288651629E+03  0.35347183766E+03  0.00000000000E+00 0.  1.
</event>
<event>
 4    1  0.6008802E+002  0.2589601E+02  0.7546771E-02  0.1459025E+00
          2   -1    0    0  503    0  0.00000000000E+00  0.00000000000E+00  0.13987967765E+03  0.13987967765E+03  0.00000000000E+00 0. -1.
         -2   -1    0    0    0  501 -0.00000000000E+00 -0.00000000000E+00 -0.32967495713E+02  0.32967495713E+02  0.00000000000E+00 0.  1.
         21    1    1    2  502  501  0.22408220055E+02 -0.12979786934E+02 -0.26436880115E+02  0.37006915909E+02  0.00000000000E+00 0.  1.
         21    1    1    2  503  502 -0.22408220055E+02  0.12979786934E+02  0.13334906205E+03  0.13584025745E+03  0.00000000000E+00 0. -1.
</event>
<event>
 4    1  0.6008802E+002  0.2753740E+02  0.7546771E-02  0.1442283E+00
          2   -1    0    0  503    0  0.00000000000E+00  0.00000000000E+00  0.69542927748E+02  0.69542927748E+02  0.00000000000E+00 0.  1.
         -2   -1    0    0    0  501 -0.00000000000E+00 -0.00000000000E+00 -0.17608708853E+02  0.17608708853E+02  0.00000000000E+00 0. -1.
         21    1    1    2  502  501 -0.17761567080E+02 -0.21043643954E+02 -0.92136153939E+00  0.27552806084E+02  0.00000000000E+00 0. -1.
         21    1    1    2  503  502  0.17761567080E+02  0.21043643954E+02  0.52855580435E+02  0.59598830518E+02  0.00000000000E+00 0.  1.
</event>
<event>
 4    1  0.6008802E+002  0.2243272E+02  0.7546771E-02  0.1499747E+00
          2   -1    0    0  503    0  0.00000000000E+00  0.00000000000E+00  0.28834266223E+01  0.28834266223E+01  0.00000000000E+00 0.  1.
         -2   -1    0    0    0  501 -0.00000000000E+00 -0.00000000000E+00 -0.18359687845E+03  0.18359687845E+03  0.00000000000E+00 0. -1.
         21    1    1    2  502  501  0.27449576795E+01 -0.22264147447E+02 -0.69629382066E+02  0.73153796218E+02  0.00000000000E+00 0.  1.
         21    1    1    2  503  502 -0.27449576795E+01  0.22264147447E+02 -0.11108406976E+03  0.11332650885E+03  0.00000000000E+00 0. -1.
</event>
<event>
 4    1  0.6008802E+002  0.2022947E+02  0.7546771E-02  0.1530556E+00
          2   -1    0    0  503    0  0.00000000000E+00  0.00000000000E+00  0.14282892700E+04  0.14282892700E+04  0.00000000000E+00 0. -1.
         -2   -1    0    0    0  501 -0.00000000000E+00 -0.00000000000E+00 -0.19422932410E+01  0.19422932410E+01  0.00000000000E+00 0.  1.
         21    1    1    2  502  501  0.12056815743E+02 -0.16243909406E+02  0.52906505797E+02  0.56642119966E+02  0.00000000000E+00 0.  1.
         21    1    1    2  503  502 -0.12056815743E+02  0.16243909406E+02  0.13734404709E+04  0.13735894432E+04  0.00000000000E+00 0. -1.
</event>
<event>
 4    1  0.6008802E+002  0.2082523E+02  0.7546771E-02  0.1521775E+00
          2   -1    0    0  502    0  0.00000000000E+00  0.00000000000E+00  0.20149119992E+04  0.20149119992E+04  0.00000000000E+00 0. -1.
         -2   -1    0    0    0  501 -0.00000000000E+00 -0.00000000000E+00 -0.23470071356E+00  0.23470071356E+00  0.00000000000E+00 0.  1.
         21    1    1    2  502  503 -0.20825091622E+02 -0.76128281959E-01  0.12974706594E+04  0.12976377778E+04  0.00000000000E+00 0. -1.
         21    1    1    2  503  501  0.20825091622E+02  0.76128281959E-01  0.71720663904E+03  0.71750892212E+03  0.00000000000E+00 0.  1.
</event>
<event>
 4    1  0.6008802E+002  0.2040699E+02  0.7546771E-02  0.1527902E+00
          2   -1    0    0  503    0  0.00000000000E+00  0.00000000000E+00  0.17908721999E+03  0.17908721999E+03  0.00000000000E+00 0. -1.
         -2   -1    0    0    0  501 -0.00000000000E+00 -0.00000000000E+00 -0.29532139737E+01  0.29532139737E+01  0.00000000000E+00 0.  1.
         21    1    1    2  502  501  0.19869039458E+02  0.46547261677E+01  0.46099411911E+02  0.50414293442E+02  0.00000000000E+00 0. -1.
         21    1    1    2  503  502 -0.19869039458E+02 -0.46547261677E+01  0.13003459411E+03  0.13162614053E+03  0.00000000000E+00 0.  1.
</event>
<event>
 4    1  0.6008802E+002  0.2525717E+02  0.7546771E-02  0.1465947E+00
          2   -1    0    0  503    0  0.00000000000E+00  0.00000000000E+00  0.42886950617E+03  0.42886950617E+03  0.00000000000E+00 0. -1.
         -2   -1    0    0    0  501 -0.00000000000E+00 -0.00000000000E+00 -0.31226285660E+01  0.31226285660E+01  0.00000000000E+00 0.  1.
         21    1    1    2  502  501 -0.21949519172E+02 -0.12495730824E+02  0.56570398308E+02  0.61952680696E+02  0.00000000000E+00 0.  1.
         21    1    1    2  503  502  0.21949519172E+02  0.12495730824E+02  0.36917647930E+03  0.37003945404E+03  0.00000000000E+00 0. -1.
</event>
<event>
 4    1  0.6008802E+002  0.6092825E+02  0.7546771E-02  0.1256711E+00
          2   -1    0    0  503    0  0.00000000000E+00  0.00000000000E+00  0.80598940000E+02  0.80598940000E+02  0.00000000000E+00 0.  1.
         -2   -1    0    0    0  501 -0.00000000000E+00 -0.00000000000E+00 -0.80734749668E+02  0.80734749668E+02  0.00000000000E+00 0. -1.
         21    1    1    2  502  501 -0.11126189485E+02 -0.59903752890E+02 -0.52934581693E+02  0.80711347665E+02  0.00000000000E+00 0. -1.
         21    1    1    2  503  502  0.11126189485E+02  0.59903752890E+02  0.52798772025E+02  0.80622342004E+02  0.00000000000E+00 0.  1.
</event>
<event>
 4    1  0.6008802E+002  0.4109130E+02  0.7546771E-02  0.1342207E+00
          2   -1    0    0  503    0  0.00000000000E+00  0.00000000000E+00  0.17913659860E+04  0.17913659860E+04  0.00000000000E+00 0.  1.
         -2   -1    0    0    0  501 -0.00000000000E+00 -0.00000000000E+00 -0.12153117375E+01  0.12153117375E+01  0.00000000000E+00 0. -1.
         21    1    1    2  502  501  0.89269533621E+01  0.40109900396E+02  0.47047746606E+03  0.47226850485E+03  0.00000000000E+00 0. -1.
         21    1    1    2  503  502 -0.89269533621E+01 -0.40109900396E+02  0.13196732082E+04  0.13203127929E+04  0.00000000000E+00 0.  1.
</event>
<event>
 4    1  0.6008802E+002  0.1036987E+03  0.7546771E-02  0.1157549E+00
          2   -1    0    0  502    0  0.00000000000E+00  0.00000000000E+00  0.25950516608E+02  0.25950516608E+02  0.00000000000E+00 0.  1.
         -2   -1    0    0    0  501 -0.00000000000E+00 -0.00000000000E+00 -0.68295740448E+03  0.68295740448E+03  0.00000000000E+00 0. -1.
         21    1    1    2  502  503  0.77613123071E+02  0.68772243387E+02 -0.10622547855E+03  0.14844955583E+03  0.00000000000E+00 0.  1.
         21    1    1    2  503  501 -0.77613123071E+02 -0.68772243387E+02 -0.55078140932E+03  0.56045836526E+03  0.00000000000E+00 0. -1.
</event>
<event>
 4    1  0.6008802E+002  0.2999888E+02  0.7546771E-02  0.1419606E+00
          2   -1    0    0  502    0  0.00000000000E+00  0.00000000000E+00  0.21317386661E+03  0.21317386661E+03  0.00000000000E+00 0.  1.
         -2   -1    0    0    0  501 -0.00000000000E+00 -0.00000000000E+00 -0.11619462460E+02  0.11619462460E+02  0.00000000000E+00 0. -1.
         21    1    1    2  502  503 -0.21527233786E+01  0.29921536657E+02  0.19046096810E+03  0.19280900639E+03  0.00000000000E+00 0.  1.
         21    1    1    2  503  501  0.21527233786E+01 -0.29921536657E+02  0.11093436043E+02  0.31984322677E+02  0.00000000000E+00 0. -1.
</event>
<event>
 4    1  0.6008802E+002  0.2643660E+02  0.7546771E-02  0.1453351E+00
          2   -1    0    0  502    0  0.00000000000E+00  0.00000000000E+00  0.92009247508E+01  0.92009247508E+01  0.00000000000E+00 0.  1.
         -2   -1    0    0    0  501 -0.00000000000E+00 -0.00000000000E+00 -0.11774274957E+04  0.11774274957E+04  0.00000000000E+00 0. -1.
         21    1    1    2  502  503  0.19962819959E+02  0.17331464659E+02 -0.10256282177E+02  0.28356395611E+02  0.00000000000E+00 0.  1.
         21    1    1    2  503  501 -0.19962819959E+02 -0.17331464659E+02 -0.11579702887E+04  0.11582720248E+04  0.00000000000E+00 0. -1.
</event>
<event>
 4    1  0.6008802E+002  0.2039187E+02  0.7546771E-02  0.1528127E+00
          2   -1    0    0  502    0  0.00000000000E+00  0.00000000000E+00  0.36452057129E+02  0.36452057129E+02  0.00000000000E+00 0.  1.
         -2   -1    0    0    0  501 -0.00000000000E+00 -0.00000000000E+00 -0.20515798560E+02  0.20515798560E+02  0.00000000000E+00 0. -1.
         21    1    1    2  502  503 -0.62773802437E-01  0.20391776795E+02  0.26947124106E+02  0.33793135383E+02  0.00000000000E+00 0.  1.
         21    1    1    2  503  501  0.62773802437E-01 -0.20391776795E+02 -0.11010865537E+02  0.23174720306E+02  0.00000000000E+00 0. -1.
</event>
<event>
 4    1  0.6008802E+002  0.2619117E+02  0.7546771E-02  0.1455907E+00
          2   -1    0    0  503    0  0.00000000000E+00  0.00000000000E+00  0.60374587495E+03  0.60374587495E+03  0.00000000000E+00 0.  1.
         -2   -1    0    0    0  501 -0.00000000000E+00 -0.00000000000E+00 -0.14768779127E+01  0.14768779127E+01  0.00000000000E+00 0. -1.
         21    1    1    2  502  501 -0.21240920728E+02  0.15323212332E+02  0.15579509524E+03  0.15798129399E+03  0.00000000000E+00 0. -1.
         21    1    1    2  503  502  0.21240920728E+02 -0.15323212332E+02  0.44647390180E+03  0.44724145888E+03  0.00000000000E+00 0.  1.
</event>
<event>
 4    1  0.6008802E+002  0.2673455E+02  0.7546771E-02  0.1450293E+00
          2   -1    0    0  503    0  0.00000000000E+00  0.00000000000E+00  0.36656597955E+02  0.36656597955E+02  0.00000000000E+00 0.  1.
         -2   -1    0    0    0  501 -0.00000000000E+00 -0.00000000000E+00 -0.48156874505E+02  0.48156874505E+02  0.00000000000E+00 0. -1.
         21    1    1    2  502  501  0.26730252905E+02  0.47919622506E+00 -0.38464171421E+02  0.46842593144E+02  0.00000000000E+00 0. -1.
         21    1    1    2  503  502 -0.26730252905E+02 -0.47919622506E+00  0.26963894871E+02  0.37970879316E+02  0.00000000000E+00 0.  1.
</event>
<event>
 4    1  0.6008802E+002  0.2257119E+02  0.7546771E-02  0.1497954E+00
          2   -1    0    0  502    0  0.00000000000E+00  0.00000000000E+00  0.30918242965E+03  0.30918242965E+03  0.00000000000E+00 0. -1.
         -2   -1    0    0    0  501 -0.00000000000E+00 -0.00000000000E+00 -0.20563029177E+01  0.20563029177E+01  0.00000000000E+00 0.  1.
         21    1    1    2  502  503 -0.18207305042E+02 -0.13339897393E+02  0.22292772754E+03  0.22406746869E+03  0.00000000000E+00 0. -1.
         21    1    1    2  503  501  0.18207305042E+02  0.13339897393E+02  0.84198399187E+02  0.87171263871E+02  0.00000000000E+00 0.  1.
</event>
<event>
 4    1  0.6008802E+002  0.3881262E+02  0.7546771E-02  0.1355588E+00
          2   -1    0    0  502    0  0.00000000000E+00  0.00000000000E+00  0.18602262347E+04  0.18602262347E+04  0.00000000000E+00 0.  1.
         -2   -1    0    0    0  501 -0.00000000000E+00 -0.00000000000E+00 -0.36275709223E+01  0.36275709223E+01  0.00000000000E+00 0. -1.
         21    1    1    2  502  503 -0.12921126401E+02 -0.36598689570E+02  0.17496457877E+04  0.17500762275E+04  0.00000000000E+00 0.  1.
         21    1    1    2  503  501  0.12921126401E+02  0.36598689570E+02  0.10695287606E+03  0.11377757812E+03  0.00000000000E+00 0. -1.
</event>
<event>
 4    1  0.6008802E+002  0.3021735E+02  0.7546771E-02  0.1417717E+00
          2   -1    0    0  503    0  0.00000000000E+00  0.00000000000E+00  0.53004717870E+03  0.53004717870E+03  0.00000000000E+00 0.  1.
         -2   -1    0    0    0  501 -0.00000000000E+00 -0.00000000000E+00 -0.25928497393E+01  0.25928497393E+01  0.00000000000E+00 0. -1.
         21    1    1    2  502  501  0.23437190203E+02  0.19073188401E+02  0.10944228419E+03  0.11353722724E+03  0.00000000000E+00 0. -1.
         21    1    1    2  503  502 -0.23437190203E+02 -0.19073188401E+02  0.41801204477E+03  0.41910280120E+03  0.00000000000E+00 0.  1.
</event>
<event>
 4    1  0.6008802E+002  0.2787123E+02  0.7546771E-02  0.1439047E+00
          2   -1    0    0  503    0  0.00000000000E+00  0.00000000000E+00  0.20673072714E+03  0.20673072714E+03  0.00000000000E+00 0.  1.
         -2   -1    0    0    0  501 -0.00000000000E+00 -0.00000000000E+00 -0.45659113985E+01  0.45659113985E+01  0.00000000000E+00 0. -1.
         21    1    1    2  502  501 -0.24292492252E+02  0.13663092673E+02  0.14553490162E+03  0.14817966416E+03  0.00000000000E+00 0.  1.
         21    1    1    2  503  502  0.24292492252E+02 -0.13663092673E+02  0.56629914122E+02  0.63116974379E+02  0.00000000000E+00 0. -1.
</event>
<event>
 4    1  0.6008802E+002  0.3653137E+02  0.7546771E-02  0.1370105E+00
          2   -1    0    0  502    0  0.00000000000E+00  0.00000000000E+00  0.77967695468E+02  0.77967695468E+02  0.00000000000E+00 0.  1.
         -2   -1    0    0    0  501 -0.00000000000E+00 -0.00000000000E+00 -0.28408234006E+02  0.28408234006E+02  0.00000000000E+00 0. -1.
         21    1    1    2  502  503 -0.30876867131E+02  0.19523313398E+02  0.58312539942E+02  0.68810558814E+02  0.00000000000E+00 0.  1.
         21    1    1    2  503  501  0.30876867131E+02 -0.19523313398E+02 -0.87530784802E+01  0.37565370659E+02  0.00000000000E+00 0. -1.
</event>
<event>
 4    1  0.6008802E+002  0.2222418E+02  0.7546771E-02  0.1502477E+00
          2   -1    0    0  503    0  0.00000000000E+00  0.00000000000E+00  0.10455000727E+04  0.10455000727E+04  0.00000000000E+00 0.  1.
         -2   -1    0    0    0  501 -0.00000000000E+00 -0.00000000000E+00 -0.48878225640E+00  0.48878225640E+00  0.00000000000E+00 0. -1.
         21    1    1    2  502  501 -0.20286481717E+02  0.90759576599E+01  0.61819663611E+03  0.61859598709E+03  0.00000000000E+00 0.  1.
         21    1    1    2  503  502  0.20286481717E+02 -0.90759576599E+01  0.42681465429E+03  0.42739286782E+03  0.00000000000E+00 0. -1.
</event>
<event>
 4    1  0.6008802E+002  0.2357486E+02  0.7546771E-02  0.1485403E+00
          2   -1    0    0  502    0  0.00000000000E+00  0.00000000000E+00  0.93527480359E+02  0.93527480359E+02  0.00000000000E+00 0. -1.
         -2   -1    0    0    0  501 -0.00000000000E+00 -0.00000000000E+00 -0.60632906324E+01  0.60632906324E+01  0.00000000000E+00 0.  1.
         21    1    1    2  502  503 -0.27870631382E+01  0.23409536049E+02  0.50764443041E+02  0.55971446080E+02  0.00000000000E+00 0.  1.
         21    1    1    2  503  501  0.27870631382E+01 -0.23409536049E+02  0.36699746686E+02  0.43619324912E+02  0.00000000000E+00 0. -1.
</event>
<event>
 4    1  0.6008802E+002  0.2391909E+02  0.7546771E-02  0.1481269E+00
          2   -1    0    0  502    0  0.00000000000E+00  0.00000000000E+00  0.18293238674E+04  0.18293238674E+04  0.00000000000E+00 0.  1.
         -2   -1    0    0    0  501 -0.00000000000E+00 -0.00000000000E+00 -0.31288665318E+00  0.31288665318E+00  0.00000000000E+00 0. -1.
         21    1    1    2  502  503 -0.14953086964E+02  0.18668909493E+02  0.93354909149E+03  0.93385546484E+03  0.00000000000E+00 0.  1.
         21    1    1    2  503  501  0.14953086964E+02 -0.18668909493E+02  0.89546188922E+03  0.89578128917E+03  0.00000000000E+00 0. -1.
</event>
<event>
 4    1  0.6008802E+002  0.3520244E+02  0.7546771E-02  0.1379146E+00
          2   -1    0    0  503    0  0.00000000000E+00  0.00000000000E+00  0.55079768761E+03  0.55079768761E+03  0.00000000000E+00 0. -1.
         -2   -1    0    0    0  501 -0.00000000000E+00 -0.00000000000E+00 -0.23808213171E+01  0.23808213171E+01  0.00000000000E+00 0.  1.
         21    1    1    2  502  501  0.32300883341E+02  0.13995166082E+02  0.20933583047E+03  0.21227506131E+03  0.00000000000E+00 0.  1.
         21    1    1    2  503  502 -0.32300883341E+02 -0.13995166082E+02  0.33908103583E+03  0.34090344762E+03  0.00000000000E+00 0. -1.
</event>
<event>
 4    1  0.6008802E+002  0.2002463E+02  0.7546771E-02  0.1533659E+00
          2   -1    0    0  503    0  0.00000000000E+00  0.00000000000E+00  0.82606814410E+03  0.82606814410E+03  0.00000000000E+00 0.  1.
         -2   -1    0    0    0  501 -0.00000000000E+00 -0.00000000000E+00 -0.13006606296E+01  0.13006606296E+01  0.00000000000E+00 0. -1.
         21    1    1    2  502  501 -0.19501324351E+02 -0.45480015962E+01  0.84868620455E+02  0.87199017815E+02  0.00000000000E+00 0. -1.
         21    1    1    2  503  502  0.19501324351E+02  0.45480015962E+01  0.73989886302E+03  0.74016978692E+03  0.00000000000E+00 0.  1.
</event>
<event>
 4    1  0.6008802E+002  0.2071911E+02  0.7546771E-02  0.1523313E+00
          2   -1    0    0  503    0  0.00000000000E+00  0.00000000000E+00  0.22135585402E+02  0.22135585402E+02  0.00000000000E+00 0. -1.
         -2   -1    0    0    0  501 -0.00000000000E+00 -0.00000000000E+00 -0.23346320328E+02  0.23346320328E+02  0.00000000000E+00 0.  1.
         21    1    1    2  502  501 -0.68283396764E+01  0.19561575726E+02 -0.99629874205E+01  0.22990054066E+02  0.00000000000E+00 0.  1.
         21    1    1    2  503  502  0.68283396764E+01 -0.19561575726E+02  0.87522524943E+01  0.22491851665E+02  0.00000000000E+00 0. -1.
</event>
<event>
 4    1  0.6008802E+002  0.3048854E+02  0.7546771E-02  0.1415398E+00
          2   -1    0    0  503    0  0.00000000000E+00  0.00000000000E+00  0.61790670458E+03  0.61790670458E+03  0.00000000000E+00 0. -1.
         -2   -1    0    0    0  501 -0.00000000000E+00 -0.00000000000E+00 -0.30065258756E+01  0.30065258756E+01  0.00000000000E+00 0.  1.
         21    1    1    2  502  501  0.29626079427E+02 -0.72004608957E+01  0.88003885632E+02  0.93135573793E+02  0.00000000000E+00 0.  1.
         21    1    1    2  503  502 -0.29626079427E+02  0.72004608957E+01  0.52689629307E+03  0.52777765666E+03  0.00000000000E+00 0. -1.
</event>
<event>
 4    1  0.6008802E+002  0.3350805E+02  0.7546771E-02  0.1391367E+00
          2   -1    0    0  502    0  0.00000000000E+00  0.00000000000E+00  0.13789311834E+04  0.13789311834E+04  0.00000000000E+00 0.  1.
         -2   -1    0    0    0  501 -0.00000000000E+00 -0.00000000000E+00 -0.11822673273E+01  0.11822673273E+01  0.00000000000E+00 0. -1.
         21    1    1    2  502  503 -0.32142827605E+02  0.94671969537E+01  0.10738768692E+04  0.10743995158E+04  0.00000000000E+00 0.  1.
         21    1    1    2  503  501  0.32142827605E+02 -0.94671969537E+01  0.30387204682E+03  0.30571393495E+03  0.00000000000E+00 0. -1.
</event>
<event>
 4    1  0.6008802E+002  0.3035539E+02  0.7546771E-02  0.1416533E+00
          2   -1    0    0  502    0  0.00000000000E+00  0.00000000000E+00  0.20951162183E+04  0.20951162183E+04  0.00000000000E+00 0. -1.
         -2   -1    0    0    0  501 -0.00000000000E+00 -0.00000000000E+00 -0.50588443373E+01  0.50588443373E+01  0.00000000000E+00 0.  1.
         21    1    1    2  502  503  0.17428585649E+02  0.24853451721E+02  0.20484319647E+04  0.20486568682E+04  0.00000000000E+00 0. -1.
         21    1    1    2  503  501 -0.17428585649E+02 -0.24853451721E+02  0.41625409233E+02  0.51518194397E+02  0.00000000000E+00 0.  1.
</event>
<event>
 4    1  0.6008802E+002  0.2244385E+02  0.7546771E-02  0.1499602E+00
          2   -1    0    0  502    0  0.00000000000E+00  0.00000000000E+00  0.28447426629E+03  0.28447426629E+03  0.00000000000E+00 0.  1.
         -2   -1    0    0    0  501 -0.00000000000E+00 -0.00000000000E+00 -0.20708664433E+01  0.20708664433E+01  0.00000000000E+00 0. -1.
         21    1    1    2  502  503  0.15252317817E+02 -0.16464914967E+02  0.19574577941E+03  0.19702826392E+03  0.00000000000E+00 0.  1.
         21    1    1    2  503  501 -0.15252317817E+02  0.16464914967E+02  0.86657620432E+02  0.89516868815E+02  0.00000000000E+00 0. -1.
</event>
<event>
 4    1  0.6008802E+002  0.2464200E+02  0.7546771E-02  0.1472848E+00
          2   -1    0    0  502    0  0.00000000000E+00  0.00000000000E+00  0.88778843702E+03  0.88778843702E+03  0.00000000000E+00 0.  1.
         -2   -1    0    0    0  501 -0.00000000000E+00 -0.00000000000E+00 -0.85343138887E+00  0.85343138887E+00  0.00000000000E+00 0. -1.
         21    1    1    2  502  503 -0.11017142138E+02  0.22042021338E+02  0.24548032250E+03  0.24671403864E+03  0.00000000000E+00 0. -1.
         21    1    1    2  503  501  0.11017142138E+02 -0.22042021338E+02  0.64145468312E+03  0.64192782977E+03  0.00000000000E+00 0.  1.
</event>
<event>
 4    1  0.6008802E+002  0.2108949E+02  0.7546771E-02  0.1517991E+00
          2   -1    0    0  502    0  0.00000000000E+00  0.00000000000E+00  0.14381337590E+02  0.14381337590E+02  0.00000000000E+00 0. -1.
         -2   -1    0    0    0  501 -0.00000000000E+00 -0.00000000000E+00 -0.42596685130E+02  0.42596685130E+02  0.00000000000E+00 0.  1.
         21    1    1    2  502  503 -0.20717609283E+02  0.39429871426E+01  0.80397629280E+00  0.21104806559E+02  0.00000000000E+00 0. -1.
         21    1    1    2  503  501  0.20717609283E+02 -0.39429871426E+01 -0.29019323832E+02  0.35873216161E+02  0.00000000000E+00 0.  1.
</event>
<event>
 4    1  0.6008802E+002  0.2360399E+02  0.7546771E-02  0.1485050E+00
          2   -1    0    0  502    0  0.00000000000E+00  0.00000000000E+00  0.69131453891E+01  0.69131453891E+01  0.00000000000E+00 0. -1.
         -2   -1    0    0    0  501 -0.00000000000E+00 -0.00000000000E+00 -0.18774369032E+03  0.18774369032E+03  0.00000000000E+00 0.  1.
         21    1    1    2  502  503  0.23341128762E+02  0.35128080092E+01 -0.16886831295E+02  0.29022632258E+02  0.00000000000E+00 0. -1.
         21    1    1    2  503  501 -0.23341128762E+02 -0.35128080092E+01 -0.16394371364E+03  0.16563420345E+03  0.00000000000E+00 0.  1.
</event>
<event>
 4    1  0.6008802E+002  0.2391448E+02  0.7546771E-02  0.1481324E+00
          2   -1    0    0  502    0  0.00000000000E+00  0.00000000000E+00  0.23541407063E+02  0.23541407063E+02  0.00000000000E+00 0.  1.
         -2   -1    0    0    0  501 -0.00000000000E+00 -0.00000000000E+00 -0.24921439197E+02  0.24921439197E+02  0.00000000000E+00 0. -1.
         21    1    1    2  502  503  0.22928761863E+02  0.67951560771E+01  0.31564726605E+01  0.24121890190E+02  0.00000000000E+00 0.  1.
         21    1    1    2  503  501 -0.22928761863E+02 -0.67951560771E+01 -0.45365047943E+01  0.24340956070E+02  0.00000000000E+00 0. -1.
</event>
<event>
 4    1  0.6008802E+002  0.2525192E+02  0.7546771E-02  0.1466005E+00
          2   -1    0    0  503    0  0.00000000000E+00  0.00000000000E+00  0.24355140197E+03  0.24355140197E+03  0.00000000000E+00 0.  1.
         -2   -1    0    0    0  501 -0.00000000000E+00 -0.00000000000E+00 -0.28325138701E+01  0.28325138701E+01  0.00000000000E+00 0. -1.
         21    1    1    2  502  501  0.22737069201E+02  0.10985678211E+02  0.86471133032E+02  0.90082830159E+02  0.00000000000E+00 0. -1.
         21    1    1    2  503  502 -0.22737069201E+02 -0.10985678211E+02  0.15424775506E+03  0.15630108568E+03  0.00000000000E+00 0.  1.
</event>
<event>
 4    1  0.6008802E+002  0.6771007E+02  0.7546771E-02  0.1235670E+00
          2   -1    0    0  502    0  0.00000000000E+00  0.00000000000E+00  0.63842614764E+02  0.63842614764E+02  0.00000000000E+00 0. -1.
         -2   -1    0    0    0  501 -0.00000000000E+00 -0.00000000000E+00 -0.18061790091E+03  0.18061790091E+03  0.00000000000E+00 0.  1.
         21    1    1    2  502  503 -0.67184381568E+02 -0.84209291470E+01  0.36481494691E+02  0.76912629842E+02  0.00000000000E+00 0. -1.
         21    1    1    2  503  501  0.67184381568E+02  0.84209291470E+01 -0.15325678083E+03  0.16754788583E+03  0.00000000000E+00 0.  1.
</event>
<event>
 4    1  0.6008802E+002  0.2197895E+02  0.7546771E-02  0.1505734E+00
          2   -1    0    0  502    0  0.00000000000E+00  0.00000000000E+00  0.91405700458E+03  0.91405700458E+03  0.00000000000E+00 0. -1.
         -2   -1    0    0    0  501 -0.00000000000E+00 -0.00000000000E+00 -0.54321024171E+00  0.54321024171E+00  0.00000000000E+00 0.  1.
         21    1    1    2  502  503 -0.18528449882E+02  0.11822468755E+02  0.53202421202E+03  0.53247801494E+03  0.00000000000E+00 0. -1.
         21    1    1    2  503  501  0.18528449882E+02 -0.11822468755E+02  0.38148958231E+03  0.38212219987E+03  0.00000000000E+00 0.  1.
</event>
<event>
 4    1  0.6008802E+002  0.2032576E+02  0.7546771E-02  0.1529113E+00
          2   -1    0    0  502    0  0.00000000000E+00  0.00000000000E+00  0.25205935935E+01  0.25205935935E+01  0.00000000000E+00 0.  1.
         -2   -1    0    0    0  501 -0.00000000000E+00 -0.00000000000E+00 -0.18005490306E+03  0.18005490306E+03  0.00000000000E+00 0. -1.
         21    1    1    2  502  503  0.20235615460E+02 -0.19121696707E+01 -0.11610739149E+03  0.11787307956E+03  0.00000000000E+00 0. -1.
         21    1    1    2  503  501 -0.20235615460E+02  0.19121696707E+01 -0.61426917975E+02  0.64702417094E+02  0.00000000000E+00 0.  1.
</event>
<event>
 4    1  0.6008802E+002  0.5844234E+02  0.7546771E-02  0.1265219E+00
          2   -1    0    0  502    0  0.00000000000E+00  0.00000000000E+00  0.12268371520E+04  0.12268371520E+04  0.00000000000E+00 0. -1.
         -2   -1    0    0    0  501 -0.00000000000E+00 -0.00000000000E+00 -0.81855297961E+01  0.81855297961E+01  0.00000000000E+00 0.  1.
         21    1    1    2  502  503 -0.57667011240E+02  0.94880421639E+01  0.11109519688E+04  0.11124881051E+04  0.00000000000E+00 0. -1.
         21    1    1    2  503  501  0.57667011240E+02 -0.94880421639E+01  0.10769965340E+03  0.12253457664E+03  0.00000000000E+00 0.  1.
</event>
<event>
 4    1  0.6008802E+002  0.2520690E+02  0.7546771E-02  0.1466502E+00
          2   -1    0    0  503    0  0.00000000000E+00  0.00000000000E+00  0.82544243105E+03  0.82544243105E+03  0.00000000000E+00 0. -1.
         -2   -1    0    0    0  501 -0.00000000000E+00 -0.00000000000E+00 -0.14013983905E+01  0.14013983905E+01  0.00000000000E+00 0.  1.
         21    1    1    2  502  501 -0.20546689019E+02 -0.14602100435E+02  0.13446558706E+03  0.13680782824E+03  0.00000000000E+00 0. -1.
         21    1    1    2  503  502  0.20546689019E+02  0.14602100435E+02  0.68957544561E+03  0.69003600120E+03  0.00000000000E+00 0.  1.
</event>
<event>
 4    1  0.6008802E+002  0.6612957E+02  0.7546771E-02  0.1240317E+00
          2   -1    0    0  502    0  0.00000000000E+00  0.00000000000E+00  0.20631305868E+04  0.20631305868E+04  0.00000000000E+00 0. -1.
         -2   -1    0    0    0  501 -0.00000000000E+00 -0.00000000000E+00 -0.14031209288E+02  0.14031209288E+02  0.00000000000E+00 0.  1.
         21    1    1    2  502  503 -0.41507977834E+02 -0.51480173148E+02  0.19814727861E+04  0.19825759815E+04  0.00000000000E+00 0. -1.
         21    1    1    2  503  501  0.41507977834E+02  0.51480173148E+02  0.67626591411E+02  0.94585814566E+02  0.00000000000E+00 0.  1.
</event>
<event>
 4    1  0.6008802E+002  0.2771044E+02  0.7546771E-02  0.1440599E+00
          2   -1    0    0  502    0  0.00000000000E+00  0.00000000000E+00  0.26866788128E+03  0.26866788128E+03  0.00000000000E+00 0. -1.
         -2   -1    0    0    0  501 -0.00000000000E+00 -0.00000000000E+00 -0.28859310321E+01  0.28859310321E+01  0.00000000000E+00 0.  1.
         21    1    1    2  502  503  0.13780742741E+02 -0.24040795057E+02  0.11954758907E+03  0.12271713307E+03  0.00000000000E+00 0. -1.
         21    1    1    2  503  501 -0.13780742741E+02  0.24040795057E+02  0.14623436118E+03  0.14883667924E+03  0.00000000000E+00 0.  1.
</event>
<event>
 4    1  0.6008802E+002  0.5864918E+02  0.7546771E-02  0.1264493E+00
          2   -1    0    0  503    0  0.00000000000E+00  0.00000000000E+00  0.15020952117E+03  0.15020952117E+03  0.00000000000E+00 0.  1.
         -2   -1    0    0    0  501 -0.00000000000E+00 -0.00000000000E+00 -0.50982040144E+02  0.50982040144E+02  0.00000000000E+00 0. -1.
         21    1    1    2  502  501  0.40442369250E+02 -0.42475182877E+02 -0.25046464128E+02  0.63773440838E+02  0.00000000000E+00 0. -1.
         21    1    1    2  503  502 -0.40442369250E+02  0.42475182877E+02  0.12427394516E+03  0.13741812048E+03  0.00000000000E+00 0.  1.
</event>
<event>
 4    1  0.6008802E+002  0.2389721E+02  0.7546771E-02  0.1481529E+00
          2   -1    0    0  502    0  0.00000000000E+00  0.00000000000E+00  0.12185952724E+04  0.12185952724E+04  0.00000000000E+00 0. -1.
         -2   -1    0    0    0  501 -0.00000000000E+00 -0.00000000000E+00 -0.85112692436E+00  0.85112692436E+00  0.00000000000E+00 0.  1.
         21    1    1    2  502  503 -0.22558173471E+02  0.78870543339E+01  0.10176114647E+04  0.10178920227E+04  0.00000000000E+00 0. -1.
         21    1    1    2  503  501  0.22558173471E+02 -0.78870543339E+01  0.20013268083E+03  0.20155437666E+03  0.00000000000E+00 0.  1.
</event>
<event>
 4    1  0.6008802E+002  0.2351135E+02  0.7546771E-02  0.1486175E+00
          2   -1    0    0  502    0  0.00000000000E+00  0.00000000000E+00  0.63413804342E+03  0.63413804342E+03  0.00000000000E+00 0. -1.
         -2   -1    0    0    0  501 -0.00000000000E+00 -0.00000000000E+00 -0.13979694777E+01  0.13979694777E+01  0.00000000000E+00 0.  1.
         21    1    1    2  502  503  0.15494947105E+02 -0.17683048476E+02  0.51133737650E+03  0.51187761838E+03  0.00000000000E+00 0. -1.
         21    1    1    2  503  501 -0.15494947105E+02  0.17683048476E+02  0.12140269744E+03  0.12365839452E+03  0.00000000000E+00 0.  1.
</event>
<event>
 4    1  0.6008802E+002  0.2632393E+02  0.7546771E-02  0.1454520E+00
          2   -1    0    0  503    0  0.00000000000E+00  0.00000000000E+00  0.38222029639E+03  0.38222029639E+03  0.00000000000E+00 0.  1.
         -2   -1    0    0    0  501 -0.00000000000E+00 -0.00000000000E+00 -0.13267585203E+02  0.13267585203E+02  0.00000000000E+00 0. -1.
         21    1    1    2  502  501  0.16855685711E+02  0.20219666980E+02  0.73888418046E+00  0.26334293675E+02  0.00000000000E+00 0. -1.
         21    1    1    2  503  502 -0.16855685711E+02 -0.20219666980E+02  0.36821382701E+03  0.36915358792E+03  0.00000000000E+00 0.  1.
</event>
<event>
 4    1  0.6008802E+002  0.3951646E+02  0.7546771E-02  0.1351343E+00
          2   -1    0    0  502    0  0.00000000000E+00  0.00000000000E+00  0.38141901587E+02  0.38141901587E+02  0.00000000000E+00 0. -1.
         -2   -1    0    0    0  501 -0.00000000000E+00 -0.00000000000E+00 -0.46401270318E+02  0.46401270318E+02  0.00000000000E+00 0.  1.
         21    1    1    2  502  503  0.18408207296E+02 -0.34966967795E+02  0.10371652750E+02  0.40854890936E+02  0.00000000000E+00 0. -1.
         21    1    1    2  503  501 -0.18408207296E+02  0.34966967795E+02 -0.18631021481E+02  0.43688280969E+02  0.00000000000E+00 0.  1.
</event>
<event>
 4    1  0.6008802E+002  0.5567365E+02  0.7546771E-02  0.1275285E+00
          2   -1    0    0  502    0  0.00000000000E+00  0.00000000000E+00  0.19342087817E+03  0.19342087817E+03  0.00000000000E+00 0.  1.
         -2   -1    0    0    0  501 -0.00000000000E+00 -0.00000000000E+00 -0.19373844868E+02  0.19373844868E+02  0.00000000000E+00 0. -1.
         21    1    1    2  502  503  0.39026151183E+02  0.39705346013E+02  0.42787566824E+02  0.70216314720E+02  0.00000000000E+00 0. -1.
         21    1    1    2  503  501 -0.39026151183E+02 -0.39705346013E+02  0.13125946648E+03  0.14257840832E+03  0.00000000000E+00 0.  1.
</event>
<event>
 4    1  0.6008802E+002  0.2734870E+02  0.7546771E-02  0.1444136E+00
          2   -1    0    0  503    0  0.00000000000E+00  0.00000000000E+00  0.21765819651E+03  0.21765819651E+03  0.00000000000E+00 0. -1.
         -2   -1    0    0    0  501 -0.00000000000E+00 -0.00000000000E+00 -0.38346928875E+01  0.38346928875E+01  0.00000000000E+00 0.  1.
         21    1    1    2  502  501  0.24614258052E+02 -0.11920141044E+02  0.71218285252E+02  0.76288895760E+02  0.00000000000E+00 0.  1.
         21    1    1    2  503  502 -0.24614258052E+02  0.11920141044E+02  0.14260521838E+03  0.14520399364E+03  0.00000000000E+00 0. -1.
</event>
<event>
 4    1  0.6008802E+002  0.2214817E+02  0.7546771E-02  0.1503481E+00
          2   -1    0    0  503    0  0.00000000000E+00  0.00000000000E+00  0.98049856578E+03  0.98049856578E+03  0.00000000000E+00 0. -1.
         -2   -1    0    0    0  501 -0.00000000000E+00 -0.00000000000E+00 -0.88283764744E+00  0.88283764744E+00  0.00000000000E+00 0.  1.
         21    1    1    2  502  501  0.20832444700E+02 -0.75200134068E+01  0.16680550013E+03  0.16826947503E+03  0.00000000000E+00 0.  1.
         21    1    1    2  503  502 -0.20832444700E+02  0.75200134068E+01  0.81281022801E+03  0.81311192840E+03  0.00000000000E+00 0. -1.
</event>
<event>
 4    1  0.6008802E+002  0.2111744E+02  0.7546771E-02  0.1517595E+00
          2   -1    0    0  502    0  0.00000000000E+00  0.00000000000E+00  0.13122237997E+02  0.13122237997E+02  0.00000000000E+00 0. -1.
         -2   -1    0    0    0  501 -0.00000000000E+00 -0.00000000000E+00 -0.76930511935E+02  0.76930511935E+02  0.00000000000E+00 0.  1.
         21    1    1    2  502  503  0.18509359124E+01  0.21036165090E+02  0.17378465800E+01  0.21188825266E+02  0.00000000000E+00 0. -1.
         21    1    1    2  503  501 -0.18509359124E+01 -0.21036165090E+02 -0.65546120517E+02  0.68863924665E+02  0.00000000000E+00 0.  1.
</event>
<event>
 4    1  0.6008802E+002  0.2078455E+02  0.7546771E-02  0.1522363E+00
          2   -1    0    0  503    0  0.00000000000E+00  0.00000000000E+00  0.21249436549E+02  0.21249436549E+02  0.00000000000E+00 0. -1.
         -2   -1    0    0    0  501 -0.00000000000E+00 -0.00000000000E+00 -0.48071307385E+02  0.48071307385E+02  0.00000000000E+00 0.  1.
         21    1    1    2  502  501  0.58285620096E+01 -0.19950574604E+02 -0.39741186321E+02  0.44848182263E+02  0.00000000000E+00 0.  1.
         21    1    1    2  503  502 -0.58285620096E+01  0.19950574604E+02  0.12919315485E+02  0.24472561670E+02  0.00000000000E+00 0. -1.
</event>
<event>
 4    1  0.6008802E+002  0.3825485E+02  0.7546771E-02  0.1359027E+00
          2   -1    0    0  502    0  0.00000000000E+00  0.00000000000E+00  0.24972357158E+02  0.24972357158E+02  0.00000000000E+00 0. -1.
         -2   -1    0    0    0  501 -0.00000000000E+00 -0.00000000000E+00 -0.63835949356E+02  0.63835949356E+02  0.00000000000E+00 0.  1.
         21    1    1    2  502  503  0.36817887660E+02 -0.10386373580E+02 -0.67172804877E+01  0.38840126995E+02  0.00000000000E+00 0. -1.
         21    1    1    2  503  501 -0.36817887660E+02  0.10386373580E+02 -0.32146311710E+02  0.49968179519E+02  0.00000000000E+00 0.  1.
</event>
<event>
 4    1  0.6008802E+002  0.2267643E+02  0.7546771E-02  0.1496602E+00
          2   -1    0    0  503    0  0.00000000000E+00  0.00000000000E+00  0.33565734725E+02  0.33565734725E+02  0.00000000000E+00 0. -1.
         -2   -1    0    0    0  501 -0.00000000000E+00 -0.00000000000E+00 -0.13241251149E+03  0.13241251149E+03  0.00000000000E+00 0.  1.
         21    1    1    2  502  501  0.11936632565E+02  0.19280485169E+02 -0.12746416772E+03  0.12946557210E+03  0.00000000000E+00 0.  1.
         21    1    1    2  503  502 -0.11936632565E+02 -0.19280485169E+02  0.28617390962E+02  0.36512674112E+02  0.00000000000E+00 0. -1.
</event>
<event>
 4    1  0.6008802E+002  0.2676909E+02  0.7546771E-02  0.1449942E+00
          2   -1    0    0  503    0  0.00000000000E+00  0.00000000000E+00  0.26360343783E+04  0.26360343783E+04  0.00000000000E+00 0.  1.
         -2   -1    0    0    0  501 -0.00000000000E+00 -0.00000000000E+00 -0.30123846189E+00  0.30123846189E+00  0.00000000000E+00 0. -1.
         21    1    1    2  502  501  0.16146314747E+02  0.21351358518E+02  0.90608637825E+03  0.90648172008E+03  0.00000000000E+00 0. -1.
         21    1    1    2  503  502 -0.16146314747E+02 -0.21351358518E+02  0.17296467616E+04  0.17298538967E+04  0.00000000000E+00 0.  1.
</event>
<event>
 4    1  0.6008802E+002  0.3929080E+02  0.7546771E-02  0.1352693E+00
          2   -1    0    0  503    0  0.00000000000E+00  0.00000000000E+00  0.29072036097E+04  0.29072036097E+04  0.00000000000E+00 0. -1.
         -2   -1    0    0    0  501 -0.00000000000E+00 -0.00000000000E+00 -0.86818911541E+00  0.86818911541E+00  0.00000000000E+00 0.  1.
         21    1    1    2  502  501 -0.18499948267E+01 -0.39247226031E+02  0.54702749564E+03  0.54843673128E+03  0.00000000000E+00 0.  1.
         21    1    1    2  503  502  0.18499948267E+01  0.39247226031E+02  0.23593079249E+04  0.23596350675E+04  0.00000000000E+00 0. -1.
</event>
<event>
 4    1  0.6008802E+002  0.3434985E+02  0.7546771E-02  0.1385192E+00
          2   -1    0    0  502    0  0.00000000000E+00  0.00000000000E+00  0.21485498281E+03  0.21485498281E+03  0.00000000000E+00 0. -1.
         -2   -1    0    0    0  501 -0.00000000000E+00 -0.00000000000E+00 -0.11128728066E+02  0.11128728066E+02  0.00000000000E+00 0.  1.
         21    1    1    2  502  503  0.25247274394E+02 -0.23291358853E+02  0.21445602638E+02  0.40494766749E+02  0.00000000000E+00 0.  1.
         21    1    1    2  503  501 -0.25247274394E+02  0.23291358853E+02  0.18228065211E+03  0.18548894413E+03  0.00000000000E+00 0. -1.
</event>
<event>
 4    1  0.6008802E+002  0.8208260E+02  0.7546771E-02  0.1199094E+00
          2   -1    0    0  502    0  0.00000000000E+00  0.00000000000E+00  0.12329778159E+03  0.12329778159E+03  0.00000000000E+00 0. -1.
         -2   -1    0    0    0  501 -0.00000000000E+00 -0.00000000000E+00 -0.37623802729E+03  0.37623802729E+03  0.00000000000E+00 0.  1.
         21    1    1    2  502  503  0.33466394532E+01 -0.82014351422E+02  0.10444846364E+03  0.13284214463E+03  0.00000000000E+00 0. -1.
         21    1    1    2  503  501 -0.33466394532E+01  0.82014351422E+02 -0.35738870934E+03  0.36669366425E+03  0.00000000000E+00 0.  1.
</event>
<event>
 4    1  0.6008802E+002  0.2380197E+02  0.7546771E-02  0.1482666E+00
          2   -1    0    0  503    0  0.00000000000E+00  0.00000000000E+00  0.86744633957E+03  0.86744633957E+03  0.00000000000E+00 0. -1.
         -2   -1    0    0    0  501 -0.00000000000E+00 -0.00000000000E+00 -0.68556761240E+00  0.68556761240E+00  0.00000000000E+00 0.  1.
         21    1    1    2  502  501 -0.99337445296E+01  0.21629945397E+02  0.33892642471E+03  0.33976117375E+03  0.00000000000E+00 0.  1.
         21    1    1    2  503  502  0.99337445296E+01 -0.21629945397E+02  0.52783434724E+03  0.52837073343E+03  0.00000000000E+00 0. -1.
</event>
<event>
 4    1  0.6008802E+002  0.2551574E+02  0.7546771E-02  0.1463116E+00
          2   -1    0    0  502    0  0.00000000000E+00  0.00000000000E+00  0.25441774374E+02  0.25441774374E+02  0.00000000000E+00 0. -1.
         -2   -1    0    0    0  501 -0.00000000000E+00 -0.00000000000E+00 -0.13492721451E+03  0.13492721451E+03  0.00000000000E+00 0.  1.
         21    1    1    2  502  503  0.13891601311E+02  0.21402713684E+02  0.17438596244E+02  0.30905620509E+02  0.00000000000E+00 0. -1.
         21    1    1    2  503  501 -0.13891601311E+02 -0.21402713684E+02 -0.12692403638E+03  0.12946336837E+03  0.00000000000E+00 0.  1.
</event>
<event>
 4    1  0.6008802E+002  0.2092852E+02  0.7546771E-02  0.1520288E+00
          2   -1    0    0  502    0  0.00000000000E+00  0.00000000000E+00  0.48404489068E+03  0.48404489068E+03  0.00000000000E+00 0.  1.
         -2   -1    0    0    0  501 -0.00000000000E+00 -0.00000000000E+00 -0.10788637823E+01  0.10788637823E+01  0.00000000000E+00 0. -1.
         21    1    1    2  502  503 -0.11931759062E+01  0.20894475242E+02  0.14407536808E+03  0.14558748041E+03  0.00000000000E+00 0. -1.
         21    1    1    2  503  501  0.11931759062E+01 -0.20894475242E+02  0.33889065882E+03  0.33953627405E+03  0.00000000000E+00 0.  1.
</event>
<event>
 4    1  0.6008802E+002  0.3822206E+02  0.7546771E-02  0.1359232E+00
          2   -1    0    0  503    0  0.00000000000E+00  0.00000000000E+00  0.34344230982E+03  0.34344230982E+03  0.00000000000E+00 0.  1.
         -2   -1    0    0    0  501 -0.00000000000E+00 -0.00000000000E+00 -0.49733990111E+01  0.49733990111E+01  0.00000000000E+00 0. -1.
         21    1    1    2  502  501 -0.36841334935E+02  0.10180468312E+02  0.10296791941E+03  0.10983313854E+03  0.00000000000E+00 0. -1.
         21    1    1    2  503  502  0.36841334935E+02 -0.10180468312E+02  0.23550099140E+03  0.23858257029E+03  0.00000000000E+00 0.  1.
</event>
<event>
 4    1  0.6008802E+002  0.3027445E+02  0.7546771E-02  0.1417226E+00
          2   -1    0    0  503    0  0.00000000000E+00  0.00000000000E+00  0.42387602416E+03  0.42387602416E+03  0.00000000000E+00 0.  1.
         -2   -1    0    0    0  501 -0.00000000000E+00 -0.00000000000E+00 -0.51869854250E+01  0.51869854250E+01  0.00000000000E+00 0. -1.
         21    1    1    2  502  501  0.13787476212E+02 -0.26952700262E+02  0.45521680712E+02  0.54669607339E+02  0.00000000000E+00 0. -1.
         21    1    1    2  503  502 -0.13787476212E+02  0.26952700262E+02  0.37316735803E+03  0.37439340225E+03  0.00000000000E+00 0.  1.
</event>
<event>
 4    1  0.6008802E+002  0.3602560E+02  0.7546771E-02  0.1373493E+00
          2   -1    0    0  502    0  0.00000000000E+00  0.00000000000E+00  0.51432545884E+03  0.51432545884E+03  0.00000000000E+00 0. -1.
         -2   -1    0    0    0  501 -0.00000000000E+00 -0.00000000000E+00 -0.46825508870E+01  0.46825508870E+01  0.00000000000E+00 0.  1.
         21    1    1    2  502  503 -0.65456028010E+01 -0.35425967161E+02  0.43103741647E+03  0.43254028537E+03  0.00000000000E+00 0. -1.
         21    1    1    2  503  501  0.65456028010E+01  0.35425967161E+02  0.78605491482E+02  0.86467724362E+02  0.00000000000E+00 0.  1.
</event>
<event>
 4    1  0.6008802E+002  0.3477526E+02  0.7546771E-02  0.1382150E+00
          2   -1    0    0  502    0  0.00000000000E+00  0.00000000000E+00  0.88555299545E+03  0.88555299545E+03  0.00000000000E+00 0. -1.
         -2   -1    0    0    0  501 -0.00000000000E+00 -0.00000000000E+00 -0.29061456370E+01  0.29061456370E+01  0.00000000000E+00 0.  1.
         21    1    1    2  502  503 -0.11193089194E+02  0.32924660247E+02  0.76475684634E+03  0.76554709361E+03  0.00000000000E+00 0. -1.
         21    1    1    2  503  501  0.11193089194E+02 -0.32924660247E+02  0.11789000347E+03  0.12291204748E+03  0.00000000000E+00 0.  1.
</event>
<event>
 4    1  0.6008802E+002  0.2130390E+02  0.7546771E-02  0.1514970E+00
          2   -1    0    0  502    0  0.00000000000E+00  0.00000000000E+00  0.75340066893E+01  0.75340066893E+01  0.00000000000E+00 0.  1.
         -2   -1    0    0    0  501 -0.00000000000E+00 -0.00000000000E+00 -0.14359083223E+03  0.14359083223E+03  0.00000000000E+00 0. -1.
         21    1    1    2  502  503 -0.56655857117E+01 -0.20536725250E+02 -0.10458586830E+02  0.23732635419E+02  0.00000000000E+00 0.  1.
         21    1    1    2  503  501  0.56655857117E+01  0.20536725250E+02 -0.12559823871E+03  0.12739220350E+03  0.00000000000E+00 0. -1.
</event>
<event>
 4    1  0.6008802E+002  0.2833670E+02  0.7546771E-02  0.1434624E+00
          2   -1    0    0  502    0  0.00000000000E+00  0.00000000000E+00  0.91609883258E+02  0.91609883258E+02  0.00000000000E+00 0.  1.
         -2   -1    0    0    0  501 -0.00000000000E+00 -0.00000000000E+00 -0.29092203356E+02  0.29092203356E+02  0.00000000000E+00 0. -1.
         21    1    1    2  502  503  0.21888856464E+02  0.17995731666E+02  0.81705728491E+02  0.86480023495E+02  0.00000000000E+00 0.  1.
         21    1    1    2  503  501 -0.21888856464E+02 -0.17995731666E+02 -0.19188048589E+02  0.34222063120E+02  0.00000000000E+00 0. -1.
</event>
<event>
 4    1  0.6008802E+002  0.2093260E+02  0.7546771E-02  0.1520229E+00
          2   -1    0    0  503    0  0.00000000000E+00  0.00000000000E+00  0.52450189733E+02  0.52450189733E+02  0.00000000000E+00 0.  1.
         -2   -1    0    0    0  501 -0.00000000000E+00 -0.00000000000E+00 -0.84009980943E+01  0.84009980943E+01  0.00000000000E+00 0. -1.
         21    1    1    2  502  501 -0.79675915017E+01 -0.19356942915E+02  0.19751150720E+02  0.28779883741E+02  0.00000000000E+00 0.  1.
         21    1    1    2  503  502  0.79675915017E+01  0.19356942915E+02  0.24298040919E+02  0.32071304087E+02  0.00000000000E+00 0. -1.
</event>
<event>
 4    1  0.6008802E+002  0.2223666E+02  0.7546771E-02  0.1502313E+00
          2   -1    0    0  502    0  0.00000000000E+00  0.00000000000E+00  0.19578244490E+04  0.19578244490E+04  0.00000000000E+00 0.  1.
         -2   -1    0    0    0  501 -0.00000000000E+00 -0.00000000000E+00 -0.30579452146E+00  0.30579452146E+00  0.00000000000E+00 0. -1.
         21    1    1    2  502  503 -0.83484151853E+01  0.20610020350E+02  0.13872589623E+04  0.13874371688E+04  0.00000000000E+00 0.  1.
         21    1    1    2  503  501  0.83484151853E+01 -0.20610020350E+02  0.57025969223E+03  0.57069307474E+03  0.00000000000E+00 0. -1.
</event>
<event>
 4    1  0.6008802E+002  0.2110068E+02  0.7546771E-02  0.1517832E+00
          2   -1    0    0  502    0  0.00000000000E+00  0.00000000000E+00  0.12177306962E+01  0.12177306962E+01  0.00000000000E+00 0. -1.
         -2   -1    0    0    0  501 -0.00000000000E+00 -0.00000000000E+00 -0.40462665683E+03  0.40462665683E+03  0.00000000000E+00 0.  1.
         21    1    1    2  502  503 -0.11765727409E+02  0.17515884974E+02 -0.13870782203E+03  0.14030359390E+03  0.00000000000E+00 0. -1.
         21    1    1    2  503  501  0.11765727409E+02 -0.17515884974E+02 -0.26470110410E+03  0.26554079363E+03  0.00000000000E+00 0.  1.
</event>
<event>
 4    1  0.6008802E+002  0.2302245E+02  0.7546771E-02  0.1492216E+00
          2   -1    0    0  502    0  0.00000000000E+00  0.00000000000E+00  0.26650242042E+03  0.26650242042E+03  0.00000000000E+00 0.  1.
         -2   -1    0    0    0  501 -0.00000000000E+00 -0.00000000000E+00 -0.29688138572E+01  0.29688138572E+01  0.00000000000E+00 0. -1.
         21    1    1    2  502  503 -0.16904769685E+01 -0.22960303036E+02  0.20917662250E+03  0.21043976009E+03  0.00000000000E+00 0.  1.
         21    1    1    2  503  501  0.16904769685E+01  0.22960303036E+02  0.54356984069E+02  0.59031474190E+02  0.00000000000E+00 0. -1.
</event>
<event>
 4    1  0.6008802E+002  0.2591052E+02  0.7546771E-02  0.1458870E+00
          2   -1    0    0  503    0  0.00000000000E+00  0.00000000000E+00  0.18590206596E+03  0.18590206596E+03  0.00000000000E+00 0. -1.
         -2   -1    0    0    0  501 -0.00000000000E+00 -0.00000000000E+00 -0.30114819953E+02  0.30114819953E+02  0.00000000000E+00 0.  1.
         21    1    1    2  502  501 -0.25856382642E+02  0.16741103481E+01 -0.23431942923E+02  0.34934383034E+02  0.00000000000E+00 0.  1.
         21    1    1    2  503  502  0.25856382642E+02 -0.16741103481E+01  0.17921918893E+03  0.18108250288E+03  0.00000000000E+00 0. -1.
</event>
<event>
 4    1  0.6008802E+002  0.2113463E+02  0.7546771E-02  0.1517351E+00
          2   -1    0    0  502    0  0.00000000000E+00  0.00000000000E+00  0.75565996488E+00  0.75565996488E+00  0.00000000000E+00 0. -1.
         -2   -1    0    0    0  501 -0.00000000000E+00 -0.00000000000E+00 -0.14648094727E+04  0.14648094727E+04  0.00000000000E+00 0.  1.
         21    1    1    2  502  503 -0.72135092461E+01  0.19865491291E+02 -0.16609071113E+03  0.16742997576E+03  0.00000000000E+00 0. -1.
         21    1    1    2  503  501  0.72135092461E+01 -0.19865491291E+02 -0.12979631017E+04  0.12981351569E+04  0.00000000000E+00 0.  1.
</event>
<event>
 4    1  0.6008802E+002  0.2118089E+02  0.7546771E-02  0.1516698E+00
          2   -1    0    0  502    0  0.00000000000E+00  0.00000000000E+00  0.81834648817E+03  0.81834648817E+03  0.00000000000E+00 0.  1.
         -2   -1    0    0    0  501 -0.00000000000E+00 -0.00000000000E+00 -0.54821581771E+00  0.54821581771E+00  0.00000000000E+00 0. -1.
         21    1    1    2  502  503  0.20405391849E+02  0.56788973962E+01  0.40937147668E+03  0.40991906007E+03  0.00000000000E+00 0.  1.
         21    1    1    2  503  501 -0.20405391849E+02 -0.56788973962E+01  0.40842679568E+03  0.40897564392E+03  0.00000000000E+00 0. -1.
</event>
<event>
 4    1  0.6008802E+002  0.2441995E+02  0.7546771E-02  0.1475398E+00
          2   -1    0    0  502    0  0.00000000000E+00  0.00000000000E+00  0.20234738603E+04  0.20234738603E+04  0.00000000000E+00 0.  1.
         -2   -1    0    0    0  501 -0.00000000000E+00 -0.00000000000E+00 -0.37896612556E+00  0.37896612556E+00  0.00000000000E+00 0. -1.
         21    1    1    2  502  503 -0.26338962861E+00 -0.24418526831E+02  0.14886972734E+04  0.14888975471E+04  0.00000000000E+00 0.  1.
         21    1    1    2  503  501  0.26338962861E+00  0.24418526831E+02  0.53439762078E+03  0.53495527937E+03  0.00000000000E+00 0. -1.
</event>
<event>
 4    1  0.6008802E+002  0.2103619E+02  0.7546771E-02  0.1518749E+00
          2   -1    0    0  502    0  0.00000000000E+00  0.00000000000E+00  0.87622575395E+02  0.87622575395E+02  0.00000000000E+00 0. -1.
         -2   -1    0    0    0  501 -0.00000000000E+00 -0.00000000000E+00 -0.16473544904E+02  0.16473544904E+02  0.00000000000E+00 0.  1.
         21    1    1    2  502  503 -0.18103976549E+02  0.10712941515E+02  0.78916179968E+02  0.81671809969E+02  0.00000000000E+00 0. -1.
         21    1    1    2  503  501  0.18103976549E+02 -0.10712941515E+02 -0.77671494771E+01  0.22424310330E+02  0.00000000000E+00 0.  1.
</event>
<event>
 4    1  0.6008802E+002  0.2561674E+02  0.7546771E-02  0.1462021E+00
          2   -1    0    0  502    0  0.00000000000E+00  0.00000000000E+00  0.15387648235E+03  0.15387648235E+03  0.00000000000E+00 0. -1.
         -2   -1    0    0    0  501 -0.00000000000E+00 -0.00000000000E+00 -0.42648502080E+01  0.42648502080E+01  0.00000000000E+00 0.  1.
         21    1    1    2  502  503 -0.21188764419E+02  0.14396308154E+02  0.74167844057E+02  0.78467104688E+02  0.00000000000E+00 0.  1.
         21    1    1    2  503  501  0.21188764419E+02 -0.14396308154E+02  0.75443788083E+02  0.79674227868E+02  0.00000000000E+00 0. -1.
</event>
<event>
 4    1  0.6008802E+002  0.2302589E+02  0.7546771E-02  0.1492173E+00
          2   -1    0    0  503    0  0.00000000000E+00  0.00000000000E+00  0.28960451937E+02  0.28960451937E+02  0.00000000000E+00 0. -1.
         -2   -1    0    0    0  501 -0.00000000000E+00 -0.00000000000E+00 -0.19732403230E+02  0.19732403230E+02  0.00000000000E+00 0.  1.
         21    1    1    2  502  501 -0.23023071912E+02  0.36012501317E+00  0.11156591172E+02  0.25586345125E+02  0.00000000000E+00 0.  1.
         21    1    1    2  503  502  0.23023071912E+02 -0.36012501317E+00 -0.19285424649E+01  0.23106510042E+02  0.00000000000E+00 0. -1.
</event>
<event>
 4    1  0.6008802E+002  0.2064494E+02  0.7546771E-02  0.1524395E+00
          2   -1    0    0  503    0  0.00000000000E+00  0.00000000000E+00  0.49332118339E+03  0.49332118339E+03  0.00000000000E+00 0. -1.
         -2   -1    0    0    0  501 -0.00000000000E+00 -0.00000000000E+00 -0.96575520560E+00  0.96575520560E+00  0.00000000000E+00 0.  1.
         21    1    1    2  502  501  0.15165504745E+02  0.14007897838E+02  0.32641239320E+03  0.32706461773E+03  0.00000000000E+00 0. -1.
         21    1    1    2  503  502 -0.15165504745E+02 -0.14007897838E+02  0.16594303498E+03  0.16722232086E+03  0.00000000000E+00 0.  1.
</event>
<event>
 4    1  0.6008802E+002  0.4061576E+02  0.7546771E-02  0.1344915E+00
          2   -1    0    0  503    0  0.00000000000E+00  0.00000000000E+00  0.14673841146E+04  0.14673841146E+04  0.00000000000E+00 0.  1.
         -2   -1    0    0    0  501 -0.00000000000E+00 -0.00000000000E+00 -0.11603279373E+01  0.11603279373E+01  0.00000000000E+00 0. -1.
         21    1    1    2  502  501  0.29475142685E+02 -0.27943795531E+02  0.60355468375E+03  0.60491974346E+03  0.00000000000E+00 0. -1.
         21    1    1    2  503  502 -0.29475142685E+02  0.27943795531E+02  0.86266910295E+03  0.86362469912E+03  0.00000000000E+00 0.  1.
</event>
<event>
 4    1  0.6008802E+002  0.2777969E+02  0.7546771E-02  0.1439929E+00
          2   -1    0    0  502    0  0.00000000000E+00  0.00000000000E+00  0.57859164761E+03  0.57859164761E+03  0.00000000000E+00 0. -1.
         -2   -1    0    0    0  501 -0.00000000000E+00 -0.00000000000E+00 -0.14148612961E+01  0.14148612961E+01  0.00000000000E+00 0.  1.
         21    1    1    2  502  503 -0.26708484938E+02  0.76398981172E+01  0.35801389693E+03  0.35909004666E+03  0.00000000000E+00 0. -1.
         21    1    1    2  503  501  0.26708484938E+02 -0.76398981172E+01  0.21916288938E+03  0.22091646225E+03  0.00000000000E+00 0.  1.
</event>
<event>
 4    1  0.6008802E+002  0.2076911E+02  0.7546771E-02  0.1522587E+00
          2   -1    0    0  502    0  0.00000000000E+00  0.00000000000E+00  0.11872951111E+03  0.11872951111E+03  0.00000000000E+00 0. -1.
         -2   -1    0    0    0  501 -0.00000000000E+00 -0.00000000000E+00 -0.48170261405E+01  0.48170261405E+01  0.00000000000E+00 0.  1.
         21    1    1    2  502  503 -0.65510856606E+01  0.19708857700E+02  0.87581093891E+02  0.90010020566E+02  0.00000000000E+00 0. -1.
         21    1    1    2  503  501  0.65510856606E+01 -0.19708857700E+02  0.26331391078E+02  0.33536516684E+02  0.00000000000E+00 0.  1.
</event>
<event>
 4    1  0.6008802E+002  0.2055450E+02  0.7546771E-02  0.1525721E+00
          2   -1    0    0  502    0  0.00000000000E+00  0.00000000000E+00  0.88625270367E+02  0.88625270367E+02  0.00000000000E+00 0. -1.
         -2   -1    0    0    0  501 -0.00000000000E+00 -0.00000000000E+00 -0.56695695624E+01  0.56695695624E+01  0.00000000000E+00 0.  1.
         21    1    1    2  502  503  0.17761388270E+02 -0.10345074450E+02  0.60288070148E+02  0.63695673957E+02  0.00000000000E+00 0. -1.
         21    1    1    2  503  501 -0.17761388270E+02  0.10345074450E+02  0.22667630657E+02  0.30599165973E+02  0.00000000000E+00 0.  1.
</event>
<event>
 4    1  0.6008802E+002  0.2241950E+02  0.7546771E-02  0.1499919E+00
          2   -1    0    0  503    0  0.00000000000E+00  0.00000000000E+00  0.49302926522E+02  0.49302926522E+02  0.00000000000E+00 0. -1.
         -2   -1    0    0    0  501 -0.00000000000E+00 -0.00000000000E+00 -0.11393056622E+02  0.11393056622E+02  0.00000000000E+00 0.  1.
         21    1    1    2  502  501  0.10860105053E+02 -0.19613565931E+02  0.91129347982E+01  0.24200814675E+02  0.00000000000E+00 0. -1.
         21    1    1    2  503  502 -0.10860105053E+02  0.19613565931E+02  0.28796935102E+02  0.36495168468E+02  0.00000000000E+00 0.  1.
</event>
<event>
 4    1  0.6008802E+002  0.2443966E+02  0.7546771E-02  0.1475170E+00
          2   -1    0    0  502    0  0.00000000000E+00  0.00000000000E+00  0.91190942174E+03  0.91190942174E+03  0.00000000000E+00 0. -1.
         -2   -1    0    0    0  501 -0.00000000000E+00 -0.00000000000E+00 -0.87037472748E+00  0.87037472748E+00  0.00000000000E+00 0.  1.
         21    1    1    2  502  503  0.21601742925E+02  0.11430731234E+02  0.68255013120E+03  0.68298753906E+03  0.00000000000E+00 0.  1.
         21    1    1    2  503  501 -0.21601742925E+02 -0.11430731234E+02  0.22848891582E+03  0.22979225741E+03  0.00000000000E+00 0. -1.
</event>
<event>
 4    1  0.6008802E+002  0.2584392E+02  0.7546771E-02  0.1459580E+00
          2   -1    0    0  503    0  0.00000000000E+00  0.00000000000E+00  0.21984970825E+03  0.21984970825E+03  0.00000000000E+00 0. -1.
         -2   -1    0    0    0  501 -0.00000000000E+00 -0.00000000000E+00 -0.43417219896E+01  0.43417219896E+01  0.00000000000E+00 0.  1.
         21    1    1    2  502  501 -0.23030096604E+02  0.11727019925E+02  0.46328766854E+02  0.53049627559E+02  0.00000000000E+00 0.  1.
         21    1    1    2  503  502  0.23030096604E+02 -0.11727019925E+02  0.16917921940E+03  0.17114180268E+03  0.00000000000E+00 0. -1.
</event>
<event>
 4    1  0.6008802E+002  0.3186629E+02  0.7546771E-02  0.1404043E+00
          2   -1    0    0  503    0  0.00000000000E+00  0.00000000000E+00  0.12413242653E+04  0.12413242653E+04  0.00000000000E+00 0.  1.
         -2   -1    0    0    0  501 -0.00000000000E+00 -0.00000000000E+00 -0.28847759682E+01  0.28847759682E+01  0.00000000000E+00 0. -1.
         21    1    1    2  502  501 -0.23521450644E+02  0.21498874456E+02  0.92658139344E+02  0.97984646909E+02  0.00000000000E+00 0. -1.
         21    1    1    2  503  502  0.23521450644E+02 -0.21498874456E+02  0.11457813500E+04  0.11462243944E+04  0.00000000000E+00 0.  1.
</event>
<event>
 4    1  0.6008802E+002  0.2899736E+02  0.7546771E-02  0.1428514E+00
          2   -1    0    0  502    0  0.00000000000E+00  0.00000000000E+00  0.74042753306E+03  0.74042753306E+03  0.00000000000E+00 0.  1.
         -2   -1    0    0    0  501 -0.00000000000E+00 -0.00000000000E+00 -0.50068909403E+01  0.50068909403E+01  0.00000000000E+00 0. -1.
         21    1    1    2  502  503 -0.11097170789E+02  0.26789916835E+02  0.69544468073E+03  0.69604895719E+03  0.00000000000E+00 0.  1.
         21    1    1    2  503  501  0.11097170789E+02 -0.26789916835E+02  0.39975961392E+02  0.49385466817E+02  0.00000000000E+00 0. -1.
</event>
<event>
 4    1  0.6008802E+002  0.3903264E+02  0.7546771E-02  0.1354250E+00
          2   -1    0    0  503    0  0.00000000000E+00  0.00000000000E+00  0.26199907439E+02  0.26199907439E+02  0.00000000000E+00 0. -1.
         -2   -1    0    0    0  501 -0.00000000000E+00 -0.00000000000E+00 -0.62437504441E+02  0.62437504441E+02  0.00000000000E+00 0.  1.
         21    1    1    2  502  501  0.28321981988E+02 -0.26859120141E+02 -0.29731234296E+02  0.49066213337E+02  0.00000000000E+00 0.  1.
         21    1    1    2  503  502 -0.28321981988E+02  0.26859120141E+02 -0.65063627053E+01  0.39571198543E+02  0.00000000000E+00 0. -1.
</event>
<event>
 4    1  0.6008802E+002  0.2651862E+02  0.7546771E-02  0.1452505E+00
          2   -1    0    0  503    0  0.00000000000E+00  0.00000000000E+00  0.22387745686E+03  0.22387745686E+03  0.00000000000E+00 0.  1.
         -2   -1    0    0    0  501 -0.00000000000E+00 -0.00000000000E+00 -0.39678867066E+01  0.39678867066E+01  0.00000000000E+00 0. -1.
         21    1    1    2  502  501 -0.97942113322E+01 -0.24643668863E+02  0.57954098783E+02  0.63733151157E+02  0.00000000000E+00 0. -1.
         21    1    1    2  503  502  0.97942113322E+01  0.24643668863E+02  0.16195547137E+03  0.16411219241E+03  0.00000000000E+00 0.  1.
</event>
<event>
 4    1  0.6008802E+002  0.3584147E+02  0.7546771E-02  0.1374742E+00
          2   -1    0    0  502    0  0.00000000000E+00  0.00000000000E+00  0.77579920701E+01  0.77579920701E+01  0.00000000000E+00 0. -1.
         -2   -1    0    0    0  501 -0.00000000000E+00 -0.00000000000E+00 -0.16716363919E+03  0.16716363919E+03  0.00000000000E+00 0.  1.
         21    1    1    2  502  503 -0.13347079530E+02  0.33263591279E+02 -0.88200780817E+02  0.95204982923E+02  0.00000000000E+00 0. -1.
         21    1    1    2  503  501  0.13347079530E+02 -0.33263591279E+02 -0.71204866302E+02  0.79716648335E+02  0.00000000000E+00 0.  1.
</event>
<event>
 4    1  0.6008802E+002  0.2668997E+02  0.7546771E-02  0.1450748E+00
          2   -1    0    0  502    0  0.00000000000E+00  0.00000000000E+00  0.23723438338E+02  0.23723438338E+02  0.00000000000E+00 0.  1.
         -2   -1    0    0    0  501 -0.00000000000E+00 -0.00000000000E+00 -0.30028404354E+02  0.30028404354E+02  0.00000000000E+00 0. -1.
         21    1    1    2  502  503  0.14009975548E+02  0.22717284499E+02 -0.30012082884E+01  0.26858177173E+02  0.00000000000E+00 0.  1.
         21    1    1    2  503  501 -0.14009975548E+02 -0.22717284499E+02 -0.33037577274E+01  0.26893665518E+02  0.00000000000E+00 0. -1.
</event>
<event>
 4    1  0.6008802E+002  0.2013686E+02  0.7546771E-02  0.1531954E+00
          2   -1    0    0  502    0  0.00000000000E+00  0.00000000000E+00  0.48085974778E+02  0.48085974778E+02  0.00000000000E+00 0.  1.
         -2   -1    0    0    0  501 -0.00000000000E+00 -0.00000000000E+00 -0.16826974467E+02  0.16826974467E+02  0.00000000000E+00 0. -1.
         21    1    1    2  502  503 -0.17964547920E+02 -0.90976946441E+01  0.38553518893E+02  0.43495595741E+02  0.00000000000E+00 0.  1.
         21    1    1    2  503  501  0.17964547920E+02  0.90976946441E+01 -0.72945185823E+01  0.21417353505E+02  0.00000000000E+00 0. -1.
</event>
<event>
 4    1  0.6008802E+002  0.2052506E+02  0.7546771E-02  0.1526155E+00
          2   -1    0    0  502    0  0.00000000000E+00  0.00000000000E+00  0.68181076449E+03  0.68181076449E+03  0.00000000000E+00 0.  1.
         -2   -1    0    0    0  501 -0.00000000000E+00 -0.00000000000E+00 -0.63240587549E+00  0.63240587549E+00  0.00000000000E+00 0. -1.
         21    1    1    2  502  503 -0.33545337833E+01  0.20249081126E+02  0.39230089133E+03  0.39283745687E+03  0.00000000000E+00 0. -1.
         21    1    1    2  503  501  0.33545337833E+01 -0.20249081126E+02  0.28887746728E+03  0.28960571349E+03  0.00000000000E+00 0.  1.
</event>
<event>
 4    1  0.6008802E+002  0.2020882E+02  0.7546771E-02  0.1530867E+00
          2   -1    0    0  503    0  0.00000000000E+00  0.00000000000E+00  0.12982845752E+03  0.12982845752E+03  0.00000000000E+00 0.  1.
         -2   -1    0    0    0  501 -0.00000000000E+00 -0.00000000000E+00 -0.52658428205E+01  0.52658428205E+01  0.00000000000E+00 0. -1.
         21    1    1    2  502  501 -0.16441371545E+02 -0.11750654822E+02  0.19420591143E+02  0.28027771002E+02  0.00000000000E+00 0. -1.
         21    1    1    2  503  502  0.16441371545E+02  0.11750654822E+02  0.10514202356E+03  0.10706652934E+03  0.00000000000E+00 0.  1.
</event>
<event>
 4    1  0.6008802E+002  0.3038327E+02  0.7546771E-02  0.1416294E+00
          2   -1    0    0  502    0  0.00000000000E+00  0.00000000000E+00  0.24367290925E+02  0.24367290925E+02  0.00000000000E+00 0. -1.
         -2   -1    0    0    0  501 -0.00000000000E+00 -0.00000000000E+00 -0.40372405367E+02  0.40372405367E+02  0.00000000000E+00 0.  1.
         21    1    1    2  502  503  0.16421559103E+02  0.25563166201E+02  0.32957746943E-01  0.30383287442E+02  0.00000000000E+00 0. -1.
         21    1    1    2  503  501 -0.16421559103E+02 -0.25563166201E+02 -0.16038072188E+02  0.34356408850E+02  0.00000000000E+00 0.  1.
</event>
<event>
 4    1  0.6008802E+002  0.2445718E+02  0.7546771E-02  0.1474968E+00
          2   -1    0    0  502    0  0.00000000000E+00  0.00000000000E+00  0.11227440487E+03  0.11227440487E+03  0.00000000000E+00 0.  1.
         -2   -1    0    0    0  501 -0.00000000000E+00 -0.00000000000E+00 -0.41655727427E+02  0.41655727427E+02  0.00000000000E+00 0. -1.
         21    1    1    2  502  503  0.24456049409E+02  0.23476270826E+00  0.10718432474E+03  0.10993922383E+03  0.00000000000E+00 0.  1.
         21    1    1    2  503  501 -0.24456049409E+02 -0.23476270826E+00 -0.36565647293E+02  0.43990908472E+02  0.00000000000E+00 0. -1.
</event>
<event>
 4    1  0.6008802E+002  0.2036849E+02  0.7546771E-02  0.1528475E+00
          2   -1    0    0  502    0  0.00000000000E+00  0.00000000000E+00  0.15672945661E+02  0.15672945661E+02  0.00000000000E+00 0.  1.
         -2   -1    0    0    0  501 -0.00000000000E+00 -0.00000000000E+00 -0.30025356881E+02  0.30025356881E+02  0.00000000000E+00 0. -1.
         21    1    1    2  502  503 -0.14356633370E+02  0.14448613429E+02  0.68553924444E+00  0.20380022468E+02  0.00000000000E+00 0.  1.
         21    1    1    2  503  501  0.14356633370E+02 -0.14448613429E+02 -0.15037950465E+02  0.25318280074E+02  0.00000000000E+00 0. -1.
</event>
<event>
 4    1  0.6008802E+002  0.3712455E+02  0.7546771E-02  0.1366213E+00
          2   -1    0    0  503    0  0.00000000000E+00  0.00000000000E+00  0.29698530203E+03  0.29698530203E+03  0.00000000000E+00 0.  1.
         -2   -1    0    0    0  501 -0.00000000000E+00 -0.00000000000E+00 -0.25652603476E+02  0.25652603476E+02  0.00000000000E+00 0. -1.
         21    1    1    2  502  501  0.34542946256E+02  0.13602098219E+02 -0.10333340430E+02  0.38535829256E+02  0.00000000000E+00 0. -1.
         21    1    1    2  503  502 -0.34542946256E+02 -0.13602098219E+02  0.28166603899E+03  0.28410207625E+03  0.00000000000E+00 0.  1.
</event>
<event>
 4    1  0.6008802E+002  0.2073691E+02  0.7546771E-02  0.1523054E+00
          2   -1    0    0  503    0  0.00000000000E+00  0.00000000000E+00  0.10111645380E+03  0.10111645380E+03  0.00000000000E+00 0.  1.
         -2   -1    0    0    0  501 -0.00000000000E+00 -0.00000000000E+00 -0.44731476466E+01  0.44731476466E+01  0.00000000000E+00 0. -1.
         21    1    1    2  502  501  0.10095632363E+02  0.18113467631E+02  0.36601802335E+02  0.42067938345E+02  0.00000000000E+00 0. -1.
         21    1    1    2  503  502 -0.10095632363E+02 -0.18113467631E+02  0.60041503820E+02  0.63521663103E+02  0.00000000000E+00 0.  1.
</event>
<event>
 4    1  0.6008802E+002  0.3363138E+02  0.7546771E-02  0.1390449E+00
          2   -1    0    0  503    0  0.00000000000E+00  0.00000000000E+00  0.38896381039E+03  0.38896381039E+03  0.00000000000E+00 0. -1.
         -2   -1    0    0    0  501 -0.00000000000E+00 -0.00000000000E+00 -0.37543861364E+01  0.37543861364E+01  0.00000000000E+00 0.  1.
         21    1    1    2  502  501  0.32220432191E+02  0.96391509794E+01  0.99367255521E+02  0.10490434191E+03  0.00000000000E+00 0.  1.
         21    1    1    2  503  502 -0.32220432191E+02 -0.96391509794E+01  0.28584216873E+03  0.28781385461E+03  0.00000000000E+00 0. -1.
</event>
<event>
 4    1  0.6008802E+002  0.2069098E+02  0.7546771E-02  0.1523723E+00
          2   -1    0    0  503    0  0.00000000000E+00  0.00000000000E+00  0.66662912765E+01  0.66662912765E+01  0.00000000000E+00 0. -1.
         -2   -1    0    0    0  501 -0.00000000000E+00 -0.00000000000E+00 -0.83287590049E+02  0.83287590049E+02  0.00000000000E+00 0.  1.
         21    1    1    2  502  501  0.11568656918E+02 -0.17154675084E+02 -0.59830284212E+02  0.63307026537E+02  0.00000000000E+00 0.  1.
         21    1    1    2  503  502 -0.11568656918E+02  0.17154675084E+02 -0.16791014560E+02  0.26646854788E+02  0.00000000000E+00 0. -1.
</event>
<event>
 4    1  0.6008802E+002  0.2836664E+02  0.7546771E-02  0.1434343E+00
          2   -1    0    0  502    0  0.00000000000E+00  0.00000000000E+00  0.95111224883E+02  0.95111224883E+02  0.00000000000E+00 0.  1.
         -2   -1    0    0    0  501 -0.00000000000E+00 -0.00000000000E+00 -0.86023595280E+01  0.86023595280E+01  0.00000000000E+00 0. -1.
         21    1    1    2  502  503  0.27326362527E+02 -0.76115793494E+01  0.49919192933E+02  0.57415956425E+02  0.00000000000E+00 0.  1.
         21    1    1    2  503  501 -0.27326362527E+02  0.76115793494E+01  0.36589672422E+02  0.46297627986E+02  0.00000000000E+00 0. -1.
</event>
<event>
 4    1  0.6008802E+002  0.4324090E+02  0.7546771E-02  0.1330474E+00
          2   -1    0    0  502    0  0.00000000000E+00  0.00000000000E+00  0.24332660980E+04  0.24332660980E+04  0.00000000000E+00 0.  1.
         -2   -1    0    0    0  501 -0.00000000000E+00 -0.00000000000E+00 -0.15595874042E+01  0.15595874042E+01  0.00000000000E+00 0. -1.
         21    1    1    2  502  503 -0.28581406507E+02  0.32448089206E+02  0.20829481985E+04  0.20833969792E+04  0.00000000000E+00 0.  1.
         21    1    1    2  503  501  0.28581406507E+02 -0.32448089206E+02  0.34875831215E+03  0.35142870626E+03  0.00000000000E+00 0. -1.
</event>
<event>
 4    1  0.6008802E+002  0.2468813E+02  0.7546771E-02  0.1472323E+00
          2   -1    0    0  502    0  0.00000000000E+00  0.00000000000E+00  0.20242646809E+02  0.20242646809E+02  0.00000000000E+00 0. -1.
         -2   -1    0    0    0  501 -0.00000000000E+00 -0.00000000000E+00 -0.57206428237E+02  0.57206428237E+02  0.00000000000E+00 0.  1.
         21    1    1    2  502  503  0.45679712376E+01  0.24261852989E+02  0.81695522386E+01  0.26004719869E+02  0.00000000000E+00 0. -1.
         21    1    1    2  503  501 -0.45679712376E+01 -0.24261852989E+02 -0.45133333666E+02  0.51444355176E+02  0.00000000000E+00 0.  1.
</event>
<event>
 4    1  0.6008802E+002  0.5849158E+02  0.7546771E-02  0.1265046E+00
          2   -1    0    0  502    0  0.00000000000E+00  0.00000000000E+00  0.83777469289E+03  0.83777469289E+03  0.00000000000E+00 0.  1.
         -2   -1    0    0    0  501 -0.00000000000E+00 -0.00000000000E+00 -0.10112941998E+02  0.10112941998E+02  0.00000000000E+00 0. -1.
         21    1    1    2  502  503 -0.21400674239E+02 -0.54435978207E+02  0.74117082512E+03  0.74347525620E+03  0.00000000000E+00 0.  1.
         21    1    1    2  503  501  0.21400674239E+02  0.54435978207E+02  0.86490925777E+02  0.10441237869E+03  0.00000000000E+00 0. -1.
</event>
<event>
 4    1  0.6008802E+002  0.2743843E+02  0.7546771E-02  0.1443253E+00
          2   -1    0    0  502    0  0.00000000000E+00  0.00000000000E+00  0.17284385040E+03  0.17284385040E+03  0.00000000000E+00 0. -1.
         -2   -1    0    0    0  501 -0.00000000000E+00 -0.00000000000E+00 -0.79580349320E+01  0.79580349320E+01  0.00000000000E+00 0.  1.
         21    1    1    2  502  503 -0.11224173363E+02  0.25037684230E+02  0.21621286979E+02  0.34933476064E+02  0.00000000000E+00 0.  1.
         21    1    1    2  503  501  0.11224173363E+02 -0.25037684230E+02  0.14326452849E+03  0.14586840927E+03  0.00000000000E+00 0. -1.
</event>
<event>
 4    1  0.6008802E+002  0.2715361E+02  0.7546771E-02  0.1446071E+00
          2   -1    0    0  502    0  0.00000000000E+00  0.00000000000E+00  0.14604965659E+02  0.14604965659E+02  0.00000000000E+00 0. -1.
         -2   -1    0    0    0  501 -0.00000000000E+00 -0.00000000000E+00 -0.67264057680E+02  0.67264057680E+02  0.00000000000E+00 0.  1.
         21    1    1    2  502  503 -0.59529955635E+01  0.26493023970E+02 -0.58842418138E+01  0.27783858209E+02  0.00000000000E+00 0. -1.
         21    1    1    2  503  501  0.59529955635E+01 -0.26493023970E+02 -0.46774850207E+02  0.54085165130E+02  0.00000000000E+00 0.  1.
</event>
<event>
 4    1  0.6008802E+002  0.3330875E+02  0.7546771E-02  0.1392860E+00
          2   -1    0    0  503    0  0.00000000000E+00  0.00000000000E+00  0.76588789712E+03  0.76588789712E+03  0.00000000000E+00 0. -1.
         -2   -1    0    0    0  501 -0.00000000000E+00 -0.00000000000E+00 -0.97617172921E+01  0.97617172921E+01  0.00000000000E+00 0.  1.
         21    1    1    2  502  501  0.51394824581E+00 -0.33304783796E+02  0.20169295156E+02  0.38939353276E+02  0.00000000000E+00 0.  1.
         21    1    1    2  503  502 -0.51394824581E+00  0.33304783796E+02  0.73595688468E+03  0.73671026114E+03  0.00000000000E+00 0. -1.
</event>
<event>
 4    1  0.6008802E+002  0.2183110E+02  0.7546771E-02  0.1507722E+00
          2   -1    0    0  502    0  0.00000000000E+00  0.00000000000E+00  0.14317480593E+03  0.14317480593E+03  0.00000000000E+00 0.  1.
         -2   -1    0    0    0  501 -0.00000000000E+00 -0.00000000000E+00 -0.33293682975E+01  0.33293682975E+01  0.00000000000E+00 0. -1.
         21    1    1    2  502  503  0.21090793296E+02  0.56369641166E+01  0.70899356466E+02  0.74184335770E+02  0.00000000000E+00 0. -1.
         21    1    1    2  503  501 -0.21090793296E+02 -0.56369641166E+01  0.68946081169E+02  0.72319838460E+02  0.00000000000E+00 0.  1.
</event>
<event>
 4    1  0.6008802E+002  0.3599885E+02  0.7546771E-02  0.1373674E+00
          2   -1    0    0  502    0  0.00000000000E+00  0.00000000000E+00  0.19180627159E+03  0.19180627159E+03  0.00000000000E+00 0.  1.
         -2   -1    0    0    0  501 -0.00000000000E+00 -0.00000000000E+00 -0.68890991938E+02  0.68890991938E+02  0.00000000000E+00 0. -1.
         21    1    1    2  502  503  0.11938802224E+02 -0.33961478558E+02  0.18524948472E+03  0.18871483411E+03  0.00000000000E+00 0.  1.
         21    1    1    2  503  501 -0.11938802224E+02  0.33961478558E+02 -0.62334205065E+02  0.71982429421E+02  0.00000000000E+00 0. -1.
</event>
<event>
 4    1  0.6008802E+002  0.2762644E+02  0.7546771E-02  0.1441415E+00
          2   -1    0    0  502    0  0.00000000000E+00  0.00000000000E+00  0.25056490779E+03  0.25056490779E+03  0.00000000000E+00 0.  1.
         -2   -1    0    0    0  501 -0.00000000000E+00 -0.00000000000E+00 -0.44657363013E+01  0.44657363013E+01  0.00000000000E+00 0. -1.
         21    1    1    2  502  503 -0.18497274490E+02  0.20520010118E+02  0.51151037053E+02  0.58134744950E+02  0.00000000000E+00 0. -1.
         21    1    1    2  503  501  0.18497274490E+02 -0.20520010118E+02  0.19494813443E+03  0.19689589914E+03  0.00000000000E+00 0.  1.
</event>
<event>
 4    1  0.6008802E+002  0.2072464E+02  0.7546771E-02  0.1523233E+00
          2   -1    0    0  502    0  0.00000000000E+00  0.00000000000E+00  0.13301352633E+03  0.13301352633E+03  0.00000000000E+00 0. -1.
         -2   -1    0    0    0  501 -0.00000000000E+00 -0.00000000000E+00 -0.67226456756E+01  0.67226456756E+01  0.00000000000E+00 0.  1.
         21    1    1    2  502  503  0.93681425343E+01 -0.18486443098E+02  0.11351213980E+03  0.11538854603E+03  0.00000000000E+00 0. -1.
         21    1    1    2  503  501 -0.93681425343E+01  0.18486443098E+02  0.12778740860E+02  0.24347625981E+02  0.00000000000E+00 0.  1.
</event>
<event>
 4    1  0.6008802E+002  0.5295007E+02  0.7546771E-02  0.1285865E+00
          2   -1    0    0  503    0  0.00000000000E+00  0.00000000000E+00  0.11644168156E+04  0.11644168156E+04  0.00000000000E+00 0. -1.
         -2   -1    0    0    0  501 -0.00000000000E+00 -0.00000000000E+00 -0.24309267471E+01  0.24309267471E+01  0.00000000000E+00 0.  1.
         21    1    1    2  502  501  0.36363213052E+02  0.38489300520E+02  0.52411550300E+03  0.52678341849E+03  0.00000000000E+00 0.  1.
         21    1    1    2  503  502 -0.36363213052E+02 -0.38489300520E+02  0.63787038582E+03  0.64006432382E+03  0.00000000000E+00 0. -1.
</event>
<event>
 4    1  0.6008802E+002  0.2642058E+02  0.7546771E-02  0.1453517E+00
          2   -1    0    0  502    0  0.00000000000E+00  0.00000000000E+00  0.49278668509E+03  0.49278668509E+03  0.00000000000E+00 0. -1.
         -2   -1    0    0    0  501 -0.00000000000E+00 -0.00000000000E+00 -0.28898286456E+01  0.28898286456E+01  0.00000000000E+00 0.  1.
         21    1    1    2  502  503  0.59386193785E+01  0.25744511321E+02  0.42190948888E+03  0.42273592688E+03  0.00000000000E+00 0. -1.
         21    1    1    2  503  501 -0.59386193785E+01 -0.25744511321E+02  0.67987367562E+02  0.72940586859E+02  0.00000000000E+00 0.  1.
</event>
<event>
 4    1  0.6008802E+002  0.2111577E+02  0.7546771E-02  0.1517618E+00
          2   -1    0    0  503    0  0.00000000000E+00  0.00000000000E+00  0.15014589121E+03  0.15014589121E+03  0.00000000000E+00 0.  1.
         -2   -1    0    0    0  501 -0.00000000000E+00 -0.00000000000E+00 -0.50660977838E+01  0.50660977838E+01  0.00000000000E+00 0. -1.
         21    1    1    2  502  501  0.17777027680E+02  0.11395303920E+02  0.22616512829E+02  0.30941595258E+02  0.00000000000E+00 0. -1.
         21    1    1    2  503  502 -0.17777027680E+02 -0.11395303920E+02  0.12246328060E+03  0.12427039373E+03  0.00000000000E+00 0.  1.
</event>
<event>
 4    1  0.6008802E+002  0.2519771E+02  0.7546771E-02  0.1466604E+00
          2   -1    0    0  503    0  0.00000000000E+00  0.00000000000E+00  0.10017675207E+02  0.10017675207E+02  0.00000000000E+00 0.  1.
         -2   -1    0    0    0  501 -0.00000000000E+00 -0.00000000000E+00 -0.79092584611E+02  0.79092584611E+02  0.00000000000E+00 0. -1.
         21    1    1    2  502  501 -0.23062344793E+02 -0.10151488123E+02 -0.54396018915E+02  0.59948739205E+02  0.00000000000E+00 0. -1.
         21    1    1    2  503  502  0.23062344793E+02  0.10151488123E+02 -0.14678890489E+02  0.29161520613E+02  0.00000000000E+00 0.  1.
</event>
<event>
 4    1  0.6008802E+002  0.2101994E+02  0.7546771E-02  0.1518980E+00
          2   -1    0    0  502    0  0.00000000000E+00  0.00000000000E+00  0.59304727823E+03  0.59304727823E+03  0.00000000000E+00 0.  1.
         -2   -1    0    0    0  501 -0.00000000000E+00 -0.00000000000E+00 -0.37022456728E+01  0.37022456728E+01  0.00000000000E+00 0. -1.
         21    1    1    2  502  503  0.11683477320E+02 -0.17473819999E+02  0.56134055471E+03  0.56173397297E+03  0.00000000000E+00 0.  1.
         21    1    1    2  503  501 -0.11683477320E+02  0.17473819999E+02  0.28004477852E+02  0.35015550937E+02  0.00000000000E+00 0. -1.
</event>
<event>
 4    1  0.6008802E+002  0.2283455E+02  0.7546771E-02  0.1494586E+00
          2   -1    0    0  502    0  0.00000000000E+00  0.00000000000E+00  0.17281527508E+01  0.17281527508E+01  0.00000000000E+00 0.  1.
         -2   -1    0    0    0  501 -0.00000000000E+00 -0.00000000000E+00 -0.14111831313E+04  0.14111831313E+04  0.00000000000E+00 0. -1.
         21    1    1    2  502  503 -0.31954671912E+01 -0.22609858134E+02 -0.78330267440E+02  0.81590731659E+02  0.00000000000E+00 0.  1.
         21    1    1    2  503  501  0.31954671912E+01  0.22609858134E+02 -0.13311247111E+04  0.13313205524E+04  0.00000000000E+00 0. -1.
</event>
<event>
 4    1  0.6008802E+002  0.2793266E+02  0.7546771E-02  0.1438458E+00
          2   -1    0    0  503    0  0.00000000000E+00  0.00000000000E+00  0.40967504108E+03  0.40967504108E+03  0.00000000000E+00 0.  1.
         -2   -1    0    0    0  501 -0.00000000000E+00 -0.00000000000E+00 -0.19299621658E+01  0.19299621658E+01  0.00000000000E+00 0. -1.
         21    1    1    2  502  501 -0.12613323074E+02  0.24922633556E+02  0.22750279584E+03  0.22921115962E+03  0.00000000000E+00 0.  1.
         21    1    1    2  503  502  0.12613323074E+02 -0.24922633556E+02  0.18024228308E+03  0.18239384362E+03  0.00000000000E+00 0. -1.
</event>
<event>
 4    1  0.6008802E+002  0.5544039E+02  0.7546771E-02  0.1276164E+00
          2   -1    0    0  502    0  0.00000000000E+00  0.00000000000E+00  0.44123139739E+03  0.44123139739E+03  0.00000000000E+00 0.  1.
         -2   -1    0    0    0  501 -0.00000000000E+00 -0.00000000000E+00 -0.70789437352E+01  0.70789437352E+01  0.00000000000E+00 0. -1.
         21    1    1    2  502  503  0.55402762164E+02 -0.20422341747E+01  0.18876795211E+03  0.19674088675E+03  0.00000000000E+00 0. -1.
         21    1    1    2  503  501 -0.55402762164E+02  0.20422341747E+01  0.24538450155E+03  0.25156945438E+03  0.00000000000E+00 0.  1.
</event>
<event>
 4    1  0.6008802E+002  0.3696409E+02  0.7546771E-02  0.1367257E+00
          2   -1    0    0  502    0  0.00000000000E+00  0.00000000000E+00  0.14360716239E+02  0.14360716239E+02  0.00000000000E+00 0. -1.
         -2   -1    0    0    0  501 -0.00000000000E+00 -0.00000000000E+00 -0.12375078700E+04  0.12375078700E+04  0.00000000000E+00 0.  1.
         21    1    1    2  502  503 -0.29302896482E+01 -0.36847757289E+02 -0.10182628668E+02  0.38340966879E+02  0.00000000000E+00 0. -1.
         21    1    1    2  503  501  0.29302896482E+01  0.36847757289E+02 -0.12129645251E+04  0.12135276193E+04  0.00000000000E+00 0.  1.
</event>
<event>
 4    1  0.6008802E+002  0.2367644E+02  0.7546771E-02  0.1484174E+00
          2   -1    0    0  502    0  0.00000000000E+00  0.00000000000E+00  0.15313083099E+04  0.15313083099E+04  0.00000000000E+00 0.  1.
         -2   -1    0    0    0  501 -0.00000000000E+00 -0.00000000000E+00 -0.46448030447E+00  0.46448030447E+00  0.00000000000E+00 0. -1.
         21    1    1    2  502  503  0.19496891230E+02  0.13432983922E+02  0.11179467866E+04  0.11181974743E+04  0.00000000000E+00 0.  1.
         21    1    1    2  503  501 -0.19496891230E+02 -0.13432983922E+02  0.41289704298E+03  0.41357531590E+03  0.00000000000E+00 0. -1.
</event>
<event>
 4    1  0.6008802E+002  0.2904821E+02  0.7546771E-02  0.1428052E+00
          2   -1    0    0  502    0  0.00000000000E+00  0.00000000000E+00  0.74007690442E+03  0.74007690442E+03  0.00000000000E+00 0.  1.
         -2   -1    0    0    0  501 -0.00000000000E+00 -0.00000000000E+00 -0.51205557742E+01  0.51205557742E+01  0.00000000000E+00 0. -1.
         21    1    1    2  502  503 -0.11967348689E+02  0.26468486726E+02  0.69598661101E+03  0.69659253580E+03  0.00000000000E+00 0.  1.
         21    1    1    2  503  501  0.11967348689E+02 -0.26468486726E+02  0.38969737638E+02  0.48604924399E+02  0.00000000000E+00 0. -1.
</event>
<event>
 4    1  0.6008802E+002  0.2445724E+02  0.7546771E-02  0.1474968E+00
          2   -1    0    0  502    0  0.00000000000E+00  0.00000000000E+00  0.15468396987E+03  0.15468396987E+03  0.00000000000E+00 0.  1.
         -2   -1    0    0    0  501 -0.00000000000E+00 -0.00000000000E+00 -0.44025959271E+01  0.44025959271E+01  0.00000000000E+00 0. -1.
         21    1    1    2  502  503  0.19744430555E+02  0.14433090578E+02  0.10288565083E+03  0.10575260653E+03  0.00000000000E+00 0. -1.
         21    1    1    2  503  501 -0.19744430555E+02 -0.14433090578E+02  0.47395723117E+02  0.53333959269E+02  0.00000000000E+00 0.  1.
</event>
<event>
 4    1  0.6008802E+002  0.2611692E+02  0.7546771E-02  0.1456686E+00
          2   -1    0    0  503    0  0.00000000000E+00  0.00000000000E+00  0.22476583952E+03  0.22476583952E+03  0.00000000000E+00 0.  1.
         -2   -1    0    0    0  501 -0.00000000000E+00 -0.00000000000E+00 -0.69055308456E+01  0.69055308456E+01  0.00000000000E+00 0. -1.
         21    1    1    2  502  501  0.10245690993E+02  0.24023311381E+02  0.22204669328E+02  0.34280329835E+02  0.00000000000E+00 0. -1.
         21    1    1    2  503  502 -0.10245690993E+02 -0.24023311381E+02  0.19565563935E+03  0.19739104054E+03  0.00000000000E+00 0.  1.
</event>
<event>
 4    1  0.6008802E+002  0.2647800E+02  0.7546771E-02  0.1452923E+00
          2   -1    0    0  502    0  0.00000000000E+00  0.00000000000E+00  0.93856539091E+03  0.93856539091E+03  0.00000000000E+00 0.  1.
         -2   -1    0    0    0  501 -0.00000000000E+00 -0.00000000000E+00 -0.78414953310E+00  0.78414953310E+00  0.00000000000E+00 0. -1.
         21    1    1    2  502  503  0.15579919165E+02 -0.21409129746E+02  0.36662690305E+03  0.36758178785E+03  0.00000000000E+00 0. -1.
         21    1    1    2  503  501 -0.15579919165E+02  0.21409129746E+02  0.57115433833E+03  0.57176775259E+03  0.00000000000E+00 0.  1.
</event>
<event>
 4    1  0.6008802E+002  0.2247916E+02  0.7546771E-02  0.1499144E+00
          2   -1    0    0  502    0  0.00000000000E+00  0.00000000000E+00  0.38397608541E+02  0.38397608541E+02  0.00000000000E+00 0. -1.
         -2   -1    0    0    0  501 -0.00000000000E+00 -0.00000000000E+00 -0.17010823855E+02  0.17010823855E+02  0.00000000000E+00 0.  1.
         21    1    1    2  502  503 -0.22475346493E+02  0.41398109791E+00  0.23874743939E+02  0.32792010894E+02  0.00000000000E+00 0.  1.
         21    1    1    2  503  501  0.22475346493E+02 -0.41398109791E+00 -0.24879592517E+01  0.22616421502E+02  0.00000000000E+00 0. -1.
</event>
<event>
 4    1  0.6008802E+002  0.2049176E+02  0.7546771E-02  0.1526646E+00
          2   -1    0    0  502    0  0.00000000000E+00  0.00000000000E+00  0.95681523813E+03  0.95681523813E+03  0.00000000000E+00 0.  1.
         -2   -1    0    0    0  501 -0.00000000000E+00 -0.00000000000E+00 -0.79339253122E+00  0.79339253122E+00  0.00000000000E+00 0. -1.
         21    1    1    2  502  503  0.12973155962E+02  0.15862203779E+02  0.79807671753E+03  0.79833975183E+03  0.00000000000E+00 0.  1.
         21    1    1    2  503  501 -0.12973155962E+02 -0.15862203779E+02  0.15794512807E+03  0.15926887884E+03  0.00000000000E+00 0. -1.
</event>
<event>
 4    1  0.6008802E+002  0.4264165E+02  0.7546771E-02  0.1333664E+00
          2   -1    0    0  503    0  0.00000000000E+00  0.00000000000E+00  0.24554663198E+04  0.24554663198E+04  0.00000000000E+00 0.  1.
         -2   -1    0    0    0  501 -0.00000000000E+00 -0.00000000000E+00 -0.10458401019E+01  0.10458401019E+01  0.00000000000E+00 0. -1.
         21    1    1    2  502  501 -0.79289477587E+01 -0.41897994689E+02  0.56356286735E+03  0.56517379241E+03  0.00000000000E+00 0. -1.
         21    1    1    2  503  502  0.79289477587E+01  0.41897994689E+02  0.18908576124E+04  0.18913383675E+04  0.00000000000E+00 0.  1.
</event>
<event>
 4    1  0.6008802E+002  0.2195775E+02  0.7546771E-02  0.1506017E+00
          2   -1    0    0  502    0  0.00000000000E+00  0.00000000000E+00  0.27964865325E+03  0.27964865325E+03  0.00000000000E+00 0.  1.
         -2   -1    0    0    0  501 -0.00000000000E+00 -0.00000000000E+00 -0.89659607277E+01  0.89659607277E+01  0.00000000000E+00 0. -1.
         21    1    1    2  502  503 -0.20952392927E+02 -0.65681102068E+01  0.26503386541E+03  0.26594189714E+03  0.00000000000E+00 0.  1.
         21    1    1    2  503  501  0.20952392927E+02  0.65681102068E+01  0.56488271140E+01  0.22672716838E+02  0.00000000000E+00 0. -1.
</event>
<event>
 4    1  0.6008802E+002  0.3728814E+02  0.7546771E-02  0.1365154E+00
          2   -1    0    0  502    0  0.00000000000E+00  0.00000000000E+00  0.15814700417E+04  0.15814700417E+04  0.00000000000E+00 0.  1.
         -2   -1    0    0    0  501 -0.00000000000E+00 -0.00000000000E+00 -0.11751073568E+01  0.11751073568E+01  0.00000000000E+00 0. -1.
         21    1    1    2  502  503 -0.35573094502E+02 -0.11178570482E+02  0.11872506083E+04  0.11878360209E+04  0.00000000000E+00 0.  1.
         21    1    1    2  503  501  0.35573094502E+02  0.11178570482E+02  0.39304432602E+03  0.39480912819E+03  0.00000000000E+00 0. -1.
</event>
<event>
 4    1  0.6008802E+002  0.2915612E+02  0.7546771E-02  0.1427074E+00
          2   -1    0    0  502    0  0.00000000000E+00  0.00000000000E+00  0.12131667350E+04  0.12131667350E+04  0.00000000000E+00 0. -1.
         -2   -1    0    0    0  501 -0.00000000000E+00 -0.00000000000E+00 -0.82904729776E+00  0.82904729776E+00  0.00000000000E+00 0.  1.
         21    1    1    2  502  503 -0.20225638699E+02  0.21000068029E+02  0.84498968467E+03  0.84549254670E+03  0.00000000000E+00 0. -1.
         21    1    1    2  503  501  0.20225638699E+02 -0.21000068029E+02  0.36734800305E+03  0.36850323562E+03  0.00000000000E+00 0.  1.
</event>
<event>
 4    1  0.6008802E+002  0.2091020E+02  0.7546771E-02  0.1520551E+00
          2   -1    0    0  502    0  0.00000000000E+00  0.00000000000E+00  0.78776493174E+03  0.78776493174E+03  0.00000000000E+00 0. -1.
         -2   -1    0    0    0  501 -0.00000000000E+00 -0.00000000000E+00 -0.10237267633E+01  0.10237267633E+01  0.00000000000E+00 0.  1.
         21    1    1    2  502  503 -0.17661476340E+02 -0.11194144634E+02  0.66023004913E+03  0.66056109059E+03  0.00000000000E+00 0. -1.
         21    1    1    2  503  501  0.17661476340E+02  0.11194144634E+02  0.12651115585E+03  0.12822756792E+03  0.00000000000E+00 0.  1.
</event>
<event>
 4    1  0.6008802E+002  0.2924015E+02  0.7546771E-02  0.1426316E+00
          2   -1    0    0  503    0  0.00000000000E+00  0.00000000000E+00  0.13326061539E+01  0.13326061539E+01  0.00000000000E+00 0.  1.
         -2   -1    0    0    0  501 -0.00000000000E+00 -0.00000000000E+00 -0.17003009340E+04  0.17003009340E+04  0.00000000000E+00 0. -1.
         21    1    1    2  502  501 -0.28185316554E+02  0.77829523410E+01 -0.15208541165E+04  0.15211351781E+04  0.00000000000E+00 0. -1.
         21    1    1    2  503  502  0.28185316554E+02 -0.77829523410E+01 -0.17811421138E+03  0.18049836208E+03  0.00000000000E+00 0.  1.
</event>
<event>
 4    1  0.6008802E+002  0.2064637E+02  0.7546771E-02  0.1524374E+00
          2   -1    0    0  502    0  0.00000000000E+00  0.00000000000E+00  0.72893216657E+03  0.72893216657E+03  0.00000000000E+00 0.  1.
         -2   -1    0    0    0  501 -0.00000000000E+00 -0.00000000000E+00 -0.24211105922E+01  0.24211105922E+01  0.00000000000E+00 0. -1.
         21    1    1    2  502  503  0.94198744878E+01 -0.18372225569E+02  0.68172226550E+03  0.68203483781E+03  0.00000000000E+00 0.  1.
         21    1    1    2  503  501 -0.94198744878E+01  0.18372225569E+02  0.44788790479E+02  0.49318439354E+02  0.00000000000E+00 0. -1.
</event>
<event>
 4    1  0.6008802E+002  0.2028684E+02  0.7546771E-02  0.1529695E+00
          2   -1    0    0  502    0  0.00000000000E+00  0.00000000000E+00  0.57609404233E+01  0.57609404233E+01  0.00000000000E+00 0.  1.
         -2   -1    0    0    0  501 -0.00000000000E+00 -0.00000000000E+00 -0.75560997367E+02  0.75560997367E+02  0.00000000000E+00 0. -1.
         21    1    1    2  502  503 -0.17463231241E+02 -0.10324304810E+02 -0.25403087863E+02  0.32509576869E+02  0.00000000000E+00 0.  1.
         21    1    1    2  503  501  0.17463231241E+02  0.10324304810E+02 -0.44396969080E+02  0.48812360921E+02  0.00000000000E+00 0. -1.
</event>
<event>
 4    1  0.6008802E+002  0.2158156E+02  0.7546771E-02  0.1511121E+00
          2   -1    0    0  502    0  0.00000000000E+00  0.00000000000E+00  0.17586539486E+04  0.17586539486E+04  0.00000000000E+00 0. -1.
         -2   -1    0    0    0  501 -0.00000000000E+00 -0.00000000000E+00 -0.69458600733E+00  0.69458600733E+00  0.00000000000E+00 0.  1.
         21    1    1    2  502  503 -0.21005473792E+02  0.49531754105E+01  0.15709129842E+04  0.15710612234E+04  0.00000000000E+00 0. -1.
         21    1    1    2  503  501  0.21005473792E+02 -0.49531754105E+01  0.18704637837E+03  0.18828731114E+03  0.00000000000E+00 0.  1.
</event>
<event>
 4    1  0.6008802E+002  0.3186403E+02  0.7546771E-02  0.1404061E+00
          2   -1    0    0  503    0  0.00000000000E+00  0.00000000000E+00  0.62487112232E+02  0.62487112232E+02  0.00000000000E+00 0. -1.
         -2   -1    0    0    0  501 -0.00000000000E+00 -0.00000000000E+00 -0.19844214739E+02  0.19844214739E+02  0.00000000000E+00 0.  1.
         21    1    1    2  502  501  0.31863401627E+02  0.19957593533E+00  0.38844762433E+02  0.50241733273E+02  0.00000000000E+00 0. -1.
         21    1    1    2  503  502 -0.31863401627E+02 -0.19957593533E+00  0.37981350598E+01  0.32089593698E+02  0.00000000000E+00 0.  1.
</event>
<event>
 4    1  0.6008802E+002  0.2436631E+02  0.7546771E-02  0.1476019E+00
          2   -1    0    0  502    0  0.00000000000E+00  0.00000000000E+00  0.15044155886E+04  0.15044155886E+04  0.00000000000E+00 0. -1.
         -2   -1    0    0    0  501 -0.00000000000E+00 -0.00000000000E+00 -0.45066811161E+01  0.45066811161E+01  0.00000000000E+00 0.  1.
         21    1    1    2  502  503 -0.11063534659E+02  0.21709800496E+02  0.14706248247E+04  0.14708266697E+04  0.00000000000E+00 0. -1.
         21    1    1    2  503  501  0.11063534659E+02 -0.21709800496E+02  0.29284082762E+02  0.38095600007E+02  0.00000000000E+00 0.  1.
</event>
<event>
 4    1  0.6008802E+002  0.3618411E+02  0.7546771E-02  0.1372424E+00
          2   -1    0    0  503    0  0.00000000000E+00  0.00000000000E+00  0.14196427932E+02  0.14196427932E+02  0.00000000000E+00 0. -1.
         -2   -1    0    0    0  501 -0.00000000000E+00 -0.00000000000E+00 -0.38484741637E+03  0.38484741637E+03  0.00000000000E+00 0.  1.
         21    1    1    2  502  501  0.35889829525E+02  0.46054545091E+01 -0.35930530228E+03  0.36112268043E+03  0.00000000000E+00 0.  1.
         21    1    1    2  503  502 -0.35889829525E+02 -0.46054545091E+01 -0.11345686151E+02  0.37921163864E+02  0.00000000000E+00 0. -1.
</event>
<event>
 4    1  0.6008802E+002  0.2814319E+02  0.7546771E-02  0.1436451E+00
          2   -1    0    0  502    0  0.00000000000E+00  0.00000000000E+00  0.16721190065E+04  0.16721190065E+04  0.00000000000E+00 0. -1.
         -2   -1    0    0    0  501 -0.00000000000E+00 -0.00000000000E+00 -0.60254876638E+00  0.60254876638E+00  0.00000000000E+00 0.  1.
         21    1    1    2  502  503 -0.23266735008E+02  0.15833445978E+02  0.12225541037E+04  0.12228779888E+04  0.00000000000E+00 0. -1.
         21    1    1    2  503  501  0.23266735008E+02 -0.15833445978E+02  0.44896235399E+03  0.44984356644E+03  0.00000000000E+00 0.  1.
</event>
<event>
 4    1  0.6008802E+002  0.2062294E+02  0.7546771E-02  0.1524717E+00
          2   -1    0    0  503    0  0.00000000000E+00  0.00000000000E+00  0.19924052779E+04  0.19924052779E+04  0.00000000000E+00 0.  1.
         -2   -1    0    0    0  501 -0.00000000000E+00 -0.00000000000E+00 -0.21675875758E+00  0.21675875758E+00  0.00000000000E+00 0. -1.
         21    1    1    2  502  501  0.16073707086E+02 -0.12920585052E+02  0.11189396265E+04  0.11191296588E+04  0.00000000000E+00 0.  1.
         21    1    1    2  503  502 -0.16073707086E+02  0.12920585052E+02  0.87324889271E+03  0.87349237787E+03  0.00000000000E+00 0. -1.
</event>
<event>
 4    1  0.6008802E+002  0.3284023E+02  0.7546771E-02  0.1396418E+00
          2   -1    0    0  503    0  0.00000000000E+00  0.00000000000E+00  0.95136283375E+03  0.95136283375E+03  0.00000000000E+00 0. -1.
         -2   -1    0    0    0  501 -0.00000000000E+00 -0.00000000000E+00 -0.14164649127E+01  0.14164649127E+01  0.00000000000E+00 0.  1.
         21    1    1    2  502  501 -0.15070690064E+02 -0.29177990096E+02  0.68785380055E+03  0.68863730057E+03  0.00000000000E+00 0. -1.
         21    1    1    2  503  502  0.15070690064E+02  0.29177990096E+02  0.26209256829E+03  0.26414199809E+03  0.00000000000E+00 0.  1.
</event>
<event>
 4    1  0.6008802E+002  0.2440108E+02  0.7546771E-02  0.1475616E+00
          2   -1    0    0  502    0  0.00000000000E+00  0.00000000000E+00  0.90548407522E+02  0.90548407522E+02  0.00000000000E+00 0. -1.
         -2   -1    0    0    0  501 -0.00000000000E+00 -0.00000000000E+00 -0.85332411246E+01  0.85332411246E+01  0.00000000000E+00 0.  1.
         21    1    1    2  502  503 -0.21835139305E+02  0.10892174155E+02  0.64736040513E+02  0.69182134309E+02  0.00000000000E+00 0. -1.
         21    1    1    2  503  501  0.21835139305E+02 -0.10892174155E+02  0.17279125884E+02  0.29899514337E+02  0.00000000000E+00 0.  1.
</event>
<event>
 4    1  0.6008802E+002  0.2526561E+02  0.7546771E-02  0.1465854E+00
          2   -1    0    0  502    0  0.00000000000E+00  0.00000000000E+00  0.11017552179E+04  0.11017552179E+04  0.00000000000E+00 0.  1.
         -2   -1    0    0    0  501 -0.00000000000E+00 -0.00000000000E+00 -0.12108305779E+01  0.12108305779E+01  0.00000000000E+00 0. -1.
         21    1    1    2  502  503 -0.83056226586E+01  0.23861424088E+02  0.94852161217E+03  0.94885805033E+03  0.00000000000E+00 0.  1.
         21    1    1    2  503  501  0.83056226586E+01 -0.23861424088E+02  0.15202277511E+03  0.15410799810E+03  0.00000000000E+00 0. -1.
</event>
<event>
 4    1  0.6008802E+002  0.7107647E+02  0.7546771E-02  0.1226232E+00
          2   -1    0    0  503    0  0.00000000000E+00  0.00000000000E+00  0.10841562699E+04  0.10841562699E+04  0.00000000000E+00 0.  1.
         -2   -1    0    0    0  501 -0.00000000000E+00 -0.00000000000E+00 -0.46669318181E+01  0.46669318181E+01  0.00000000000E+00 0. -1.
         21    1    1    2  502  501 -0.32542832878E+02  0.63188830230E+02  0.51834310135E+03  0.52319349666E+03  0.00000000000E+00 0.  1.
         21    1    1    2  503  502  0.32542832878E+02 -0.63188830230E+02  0.56114623672E+03  0.56562970503E+03  0.00000000000E+00 0. -1.
</event>
<event>
 4    1  0.6008802E+002  0.2083304E+02  0.7546771E-02  0.1521662E+00
          2   -1    0    0  502    0  0.00000000000E+00  0.00000000000E+00  0.16115659212E+04  0.16115659212E+04  0.00000000000E+00 0.  1.
         -2   -1    0    0    0  501 -0.00000000000E+00 -0.00000000000E+00 -0.34604719894E+00  0.34604719894E+00  0.00000000000E+00 0. -1.
         21    1    1    2  502  503  0.19290792077E+02 -0.78664394417E+01  0.11851331601E+04  0.11853162543E+04  0.00000000000E+00 0.  1.
         21    1    1    2  503  501 -0.19290792077E+02  0.78664394417E+01  0.42608671391E+03  0.42659571411E+03  0.00000000000E+00 0. -1.
</event>
<event>
 4    1  0.6008802E+002  0.2468291E+02  0.7546771E-02  0.1472382E+00
          2   -1    0    0  502    0  0.00000000000E+00  0.00000000000E+00  0.10031035396E+03  0.10031035396E+03  0.00000000000E+00 0. -1.
         -2   -1    0    0    0  501 -0.00000000000E+00 -0.00000000000E+00 -0.93717147814E+01  0.93717147814E+01  0.00000000000E+00 0.  1.
         21    1    1    2  502  503 -0.71033680960E+01 -0.23638704672E+02  0.78002624314E+02  0.81814763929E+02  0.00000000000E+00 0.  1.
         21    1    1    2  503  501  0.71033680960E+01  0.23638704672E+02  0.12936014862E+02  0.27867304810E+02  0.00000000000E+00 0. -1.
</event>
<event>
 4    1  0.6008802E+002  0.2768533E+02  0.7546771E-02  0.1440843E+00
          2   -1    0    0  502    0  0.00000000000E+00  0.00000000000E+00  0.52130223618E+01  0.52130223618E+01  0.00000000000E+00 0. -1.
         -2   -1    0    0    0  501 -0.00000000000E+00 -0.00000000000E+00 -0.16125826163E+03  0.16125826163E+03  0.00000000000E+00 0.  1.
         21    1    1    2  502  503 -0.93147050418E+01 -0.26071324080E+02 -0.53299469925E+02  0.60060895461E+02  0.00000000000E+00 0. -1.
         21    1    1    2  503  501  0.93147050418E+01  0.26071324080E+02 -0.10274576934E+03  0.10641038853E+03  0.00000000000E+00 0.  1.
</event>
<event>
 4    1  0.6008802E+002  0.2185558E+02  0.7546771E-02  0.1507391E+00
          2   -1    0    0  502    0  0.00000000000E+00  0.00000000000E+00  0.55600714806E+02  0.55600714806E+02  0.00000000000E+00 0.  1.
         -2   -1    0    0    0  501 -0.00000000000E+00 -0.00000000000E+00 -0.17152402158E+02  0.17152402158E+02  0.00000000000E+00 0. -1.
         21    1    1    2  502  503  0.27256003409E+01  0.21684964155E+02  0.44924042823E+02  0.49958344560E+02  0.00000000000E+00 0.  1.
         21    1    1    2  503  501 -0.27256003409E+01 -0.21684964155E+02 -0.64757301744E+01  0.22794772403E+02  0.00000000000E+00 0. -1.
</event>
<event>
 4    1  0.6008802E+002  0.3045722E+02  0.7546771E-02  0.1415664E+00
          2   -1    0    0  502    0  0.00000000000E+00  0.00000000000E+00  0.20862982042E+04  0.20862982042E+04  0.00000000000E+00 0. -1.
         -2   -1    0    0    0  501 -0.00000000000E+00 -0.00000000000E+00 -0.81509409143E+00  0.81509409143E+00  0.00000000000E+00 0.  1.
         21    1    1    2  502  503 -0.17537057287E+02 -0.24901685157E+02  0.17462705106E+04  0.17465360972E+04  0.00000000000E+00 0. -1.
         21    1    1    2  503  501  0.17537057287E+02  0.24901685157E+02  0.33921259942E+03  0.34057720110E+03  0.00000000000E+00 0.  1.
</event>
<event>
 4    1  0.6008802E+002  0.4530264E+02  0.7546771E-02  0.1319933E+00
          2   -1    0    0  503    0  0.00000000000E+00  0.00000000000E+00  0.10864419934E+02  0.10864419934E+02  0.00000000000E+00 0. -1.
         -2   -1    0    0    0  501 -0.00000000000E+00 -0.00000000000E+00 -0.19552534429E+03  0.19552534429E+03  0.00000000000E+00 0.  1.
         21    1    1    2  502  501  0.34780353088E+02  0.29028542976E+02 -0.73339843313E+02  0.86203607149E+02  0.00000000000E+00 0. -1.
         21    1    1    2  503  502 -0.34780353088E+02 -0.29028542976E+02 -0.11132108105E+03  0.12018615708E+03  0.00000000000E+00 0.  1.
</event>
<event>
 4    1  0.6008802E+002  0.2129971E+02  0.7546771E-02  0.1515029E+00
          2   -1    0    0  502    0  0.00000000000E+00  0.00000000000E+00  0.49969895772E+03  0.49969895772E+03  0.00000000000E+00 0.  1.
         -2   -1    0    0    0  501 -0.00000000000E+00 -0.00000000000E+00 -0.12563113390E+01  0.12563113390E+01  0.00000000000E+00 0. -1.
         21    1    1    2  502  503 -0.20027899733E+02  0.72498809102E+01  0.38112757644E+03  0.38172229050E+03  0.00000000000E+00 0.  1.
         21    1    1    2  503  501  0.20027899733E+02 -0.72498809102E+01  0.11731506994E+03  0.11923297855E+03  0.00000000000E+00 0. -1.
</event>
<event>
 4    1  0.6008802E+002  0.2988939E+02  0.7546771E-02  0.1420560E+00
          2   -1    0    0  503    0  0.00000000000E+00  0.00000000000E+00  0.10986442735E+03  0.10986442735E+03  0.00000000000E+00 0.  1.
         -2   -1    0    0    0  501 -0.00000000000E+00 -0.00000000000E+00 -0.11311969326E+02  0.11311969326E+02  0.00000000000E+00 0. -1.
         21    1    1    2  502  501 -0.62491364515E+01  0.29228815899E+02  0.17150234295E+02  0.34460207800E+02  0.00000000000E+00 0. -1.
         21    1    1    2  503  502  0.62491364515E+01 -0.29228815899E+02  0.81402223734E+02  0.86716188881E+02  0.00000000000E+00 0.  1.
</event>
<event>
 4    1  0.6008802E+002  0.8080236E+02  0.7546771E-02  0.1201997E+00
          2   -1    0    0  503    0  0.00000000000E+00  0.00000000000E+00  0.83345755811E+02  0.83345755811E+02  0.00000000000E+00 0. -1.
         -2   -1    0    0    0  501 -0.00000000000E+00 -0.00000000000E+00 -0.12367125237E+03  0.12367125237E+03  0.00000000000E+00 0.  1.
         21    1    1    2  502  501 -0.70076532907E+01 -0.80497910586E+02 -0.82832349494E+02  0.11571611355E+03  0.00000000000E+00 0.  1.
         21    1    1    2  503  502  0.70076532907E+01  0.80497910586E+02  0.42506852934E+02  0.91300894627E+02  0.00000000000E+00 0. -1.
</event>
<event>
 4    1  0.6008802E+002  0.6295926E+02  0.7546771E-02  0.1250096E+00
          2   -1    0    0  503    0  0.00000000000E+00  0.00000000000E+00  0.25202683783E+04  0.25202683783E+04  0.00000000000E+00 0. -1.
         -2   -1    0    0    0  501 -0.00000000000E+00 -0.00000000000E+00 -0.16923076755E+01  0.16923076755E+01  0.00000000000E+00 0.  1.
         21    1    1    2  502  501  0.61307087418E+02 -0.14328615149E+02  0.92418858927E+03  0.92633061955E+03  0.00000000000E+00 0.  1.
         21    1    1    2  503  502 -0.61307087418E+02  0.14328615149E+02  0.15943874814E+04  0.15956300665E+04  0.00000000000E+00 0. -1.
</event>
<event>
 4    1  0.6008802E+002  0.3427611E+02  0.7546771E-02  0.1385725E+00
          2   -1    0    0  502    0  0.00000000000E+00  0.00000000000E+00  0.47226105739E+03  0.47226105739E+03  0.00000000000E+00 0. -1.
         -2   -1    0    0    0  501 -0.00000000000E+00 -0.00000000000E+00 -0.30219766028E+01  0.30219766028E+01  0.00000000000E+00 0.  1.
         21    1    1    2  502  503 -0.13710755649E+02  0.31414435121E+02  0.13469936228E+03  0.13899197730E+03  0.00000000000E+00 0. -1.
         21    1    1    2  503  501  0.13710755649E+02 -0.31414435121E+02  0.33453971850E+03  0.33629105669E+03  0.00000000000E+00 0.  1.
</event>
<event>
 4    1  0.6008802E+002  0.3391130E+02  0.7546771E-02  0.1388383E+00
          2   -1    0    0  502    0  0.00000000000E+00  0.00000000000E+00  0.26241926801E+03  0.26241926801E+03  0.00000000000E+00 0. -1.
         -2   -1    0    0    0  501 -0.00000000000E+00 -0.00000000000E+00 -0.46627794527E+01  0.46627794527E+01  0.00000000000E+00 0.  1.
         21    1    1    2  502  503 -0.18337794980E+02 -0.28525454118E+02  0.96120597048E+02  0.10192715749E+03  0.00000000000E+00 0.  1.
         21    1    1    2  503  501  0.18337794980E+02  0.28525454118E+02  0.16163589151E+03  0.16515488997E+03  0.00000000000E+00 0. -1.
</event>
<event>
 4    1  0.6008802E+002  0.2614936E+02  0.7546771E-02  0.1456345E+00
          2   -1    0    0  502    0  0.00000000000E+00  0.00000000000E+00  0.11636219071E+04  0.11636219071E+04  0.00000000000E+00 0. -1.
         -2   -1    0    0    0  501 -0.00000000000E+00 -0.00000000000E+00 -0.65951750058E+00  0.65951750058E+00  0.00000000000E+00 0.  1.
         21    1    1    2  502  503  0.11289265154E+02 -0.23586895844E+02  0.77366442338E+03  0.77410621311E+03  0.00000000000E+00 0. -1.
         21    1    1    2  503  501 -0.11289265154E+02  0.23586895844E+02  0.38929796619E+03  0.39017521147E+03  0.00000000000E+00 0.  1.
</event>
<event>
 4    1  0.6008802E+002  0.5895321E+02  0.7546771E-02  0.1263431E+00
          2   -1    0    0  503    0  0.00000000000E+00  0.00000000000E+00  0.89298663486E+02  0.89298663486E+02  0.00000000000E+00 0. -1.
         -2   -1    0    0    0  501 -0.00000000000E+00 -0.00000000000E+00 -0.17127920702E+03  0.17127920702E+03  0.00000000000E+00 0.  1.
         21    1    1    2  502  501 -0.57765339607E+02  0.11774833421E+02 -0.15552381878E+03  0.16632239588E+03  0.00000000000E+00 0.  1.
         21    1    1    2  503  502  0.57765339607E+02 -0.11774833421E+02  0.73543275251E+02  0.94255474624E+02  0.00000000000E+00 0. -1.
</event>
<event>
 4    1  0.6008802E+002  0.2586383E+02  0.7546771E-02  0.1459368E+00
          2   -1    0    0  503    0  0.00000000000E+00  0.00000000000E+00  0.49738236756E+03  0.49738236756E+03  0.00000000000E+00 0.  1.
         -2   -1    0    0    0  501 -0.00000000000E+00 -0.00000000000E+00 -0.20491347101E+01  0.20491347101E+01  0.00000000000E+00 0. -1.
         21    1    1    2  502  501  0.10240145262E+02 -0.23750303657E+02  0.10127558689E+03  0.10452598720E+03  0.00000000000E+00 0. -1.
         21    1    1    2  503  502 -0.10240145262E+02  0.23750303657E+02  0.39405764596E+03  0.39490551507E+03  0.00000000000E+00 0.  1.
</event>
<event>
 4    1  0.6008802E+002  0.2494830E+02  0.7546771E-02  0.1469383E+00
          2   -1    0    0  503    0  0.00000000000E+00  0.00000000000E+00  0.58187575279E+03  0.58187575279E+03  0.00000000000E+00 0. -1.
         -2   -1    0    0    0  501 -0.00000000000E+00 -0.00000000000E+00 -0.10739350688E+01  0.10739350688E+01  0.00000000000E+00 0.  1.
         21    1    1    2  502  501  0.29519627463E+01 -0.24773036596E+02  0.30876062176E+03  0.30976691072E+03  0.00000000000E+00 0.  1.
         21    1    1    2  503  502 -0.29519627463E+01  0.24773036596E+02  0.27204119596E+03  0.27318277714E+03  0.00000000000E+00 0. -1.
</event>
<event>
 4    1  0.6008802E+002  0.2897251E+02  0.7546771E-02  0.1428740E+00
          2   -1    0    0  502    0  0.00000000000E+00  0.00000000000E+00  0.12134288463E+03  0.12134288463E+03  0.00000000000E+00 0. -1.
         -2   -1    0    0    0  501 -0.00000000000E+00 -0.00000000000E+00 -0.93244601983E+01  0.93244601983E+01  0.00000000000E+00 0.  1.
         21    1    1    2  502  503 -0.24729942241E+02  0.15094254130E+02  0.22816180054E+02  0.36877969348E+02  0.00000000000E+00 0.  1.
         21    1    1    2  503  501  0.24729942241E+02 -0.15094254130E+02  0.89202244380E+02  0.93789375482E+02  0.00000000000E+00 0. -1.
</event>
<event>
 4    1  0.6008802E+002  0.2172360E+02  0.7546771E-02  0.1509180E+00
          2   -1    0    0  503    0  0.00000000000E+00  0.00000000000E+00  0.87266351185E+01  0.87266351185E+01  0.00000000000E+00 0.  1.
         -2   -1    0    0    0  501 -0.00000000000E+00 -0.00000000000E+00 -0.57458913141E+02  0.57458913141E+02  0.00000000000E+00 0. -1.
         21    1    1    2  502  501 -0.56499971309E+01 -0.20975993812E+02 -0.32394045662E+02  0.39003704675E+02  0.00000000000E+00 0. -1.
         21    1    1    2  503  502  0.56499971309E+01  0.20975993812E+02 -0.16338232361E+02  0.27181843585E+02  0.00000000000E+00 0.  1.
</event>
<event>
 4    1  0.6008802E+002  0.5737307E+02  0.7546771E-02  0.1269029E+00
          2   -1    0    0  502    0  0.00000000000E+00  0.00000000000E+00  0.66445723587E+03  0.66445723587E+03  0.00000000000E+00 0.  1.
         -2   -1    0    0    0  501 -0.00000000000E+00 -0.00000000000E+00 -0.75075353824E+01  0.75075353824E+01  0.00000000000E+00 0. -1.
         21    1    1    2  502  503  0.41816319727E+02  0.39281857348E+02  0.52442492815E+03  0.52755395380E+03  0.00000000000E+00 0.  1.
         21    1    1    2  503  501 -0.41816319727E+02 -0.39281857348E+02  0.13252477234E+03  0.14441081745E+03  0.00000000000E+00 0. -1.
</event>
<event>
 4    1  0.6008802E+002  0.2859919E+02  0.7546771E-02  0.1432173E+00
          2   -1    0    0  502    0  0.00000000000E+00  0.00000000000E+00  0.91624700727E+02  0.91624700727E+02  0.00000000000E+00 0.  1.
         -2   -1    0    0    0  501 -0.00000000000E+00 -0.00000000000E+00 -0.89573512860E+01  0.89573512860E+01  0.00000000000E+00 0. -1.
         21    1    1    2  502  503 -0.14950825250E+02 -0.24380037075E+02  0.44271798889E+02  0.52705839907E+02  0.00000000000E+00 0. -1.
         21    1    1    2  503  501  0.14950825250E+02  0.24380037075E+02  0.38395550552E+02  0.47876212106E+02  0.00000000000E+00 0.  1.
</event>
<event>
 4    1  0.6008802E+002  0.3633064E+02  0.7546771E-02  0.1371442E+00
          2   -1    0    0  503    0  0.00000000000E+00  0.00000000000E+00  0.21735042838E+03  0.21735042838E+03  0.00000000000E+00 0.  1.
         -2   -1    0    0    0  501 -0.00000000000E+00 -0.00000000000E+00 -0.15332593550E+02  0.15332593550E+02  0.00000000000E+00 0. -1.
         21    1    1    2  502  501 -0.27885835635E+02 -0.23287233238E+02  0.10596374105E+02  0.37844394633E+02  0.00000000000E+00 0. -1.
         21    1    1    2  503  502  0.27885835635E+02  0.23287233238E+02  0.19142146072E+03  0.19483862729E+03  0.00000000000E+00 0.  1.
</event>
<event>
 4    1  0.6008802E+002  0.2623035E+02  0.7546771E-02  0.1455496E+00
          2   -1    0    0  503    0  0.00000000000E+00  0.00000000000E+00  0.11275439254E+03  0.11275439254E+03  0.00000000000E+00 0.  1.
         -2   -1    0    0    0  501 -0.00000000000E+00 -0.00000000000E+00 -0.62681011746E+01  0.62681011746E+01  0.00000000000E+00 0. -1.
         21    1    1    2  502  501  0.24027136709E+02  0.10522727374E+02  0.43556498199E+02  0.50844858395E+02  0.00000000000E+00 0. -1.
         21    1    1    2  503  502 -0.24027136709E+02 -0.10522727374E+02  0.62929793169E+02  0.68177635322E+02  0.00000000000E+00 0.  1.
</event>
<event>
 4    1  0.6008802E+002  0.5048858E+02  0.7546771E-02  0.1296068E+00
          2   -1    0    0  503    0  0.00000000000E+00  0.00000000000E+00  0.17155341226E+04  0.17155341226E+04  0.00000000000E+00 0.  1.
         -2   -1    0    0    0  501 -0.00000000000E+00 -0.00000000000E+00 -0.17218112293E+01  0.17218112293E+01  0.00000000000E+00 0. -1.
         21    1    1    2  502  501  0.50434620521E+02 -0.23336926989E+01  0.53907632093E+03  0.54143547802E+03  0.00000000000E+00 0. -1.
         21    1    1    2  503  502 -0.50434620521E+02  0.23336926989E+01  0.11747359905E+04  0.11758204558E+04  0.00000000000E+00 0.  1.
</event>
<event>
 4    1  0.6008802E+002  0.2513550E+02  0.7546771E-02  0.1467293E+00
          2   -1    0    0  503    0  0.00000000000E+00  0.00000000000E+00  0.14230048393E+03  0.14230048393E+03  0.00000000000E+00 0.  1.
         -2   -1    0    0    0  501 -0.00000000000E+00 -0.00000000000E+00 -0.59103852109E+01  0.59103852109E+01  0.00000000000E+00 0. -1.
         21    1    1    2  502  501  0.32657985722E+01  0.24922437263E+02  0.31231016852E+02  0.40089521487E+02  0.00000000000E+00 0. -1.
         21    1    1    2  503  502 -0.32657985722E+01 -0.24922437263E+02  0.10515908187E+03  0.10812134765E+03  0.00000000000E+00 0.  1.
</event>
<event>
 4    1  0.6008802E+002  0.3308534E+02  0.7546771E-02  0.1394548E+00
          2   -1    0    0  503    0  0.00000000000E+00  0.00000000000E+00  0.13987513034E+02  0.13987513034E+02  0.00000000000E+00 0.  1.
         -2   -1    0    0    0  501 -0.00000000000E+00 -0.00000000000E+00 -0.15631919825E+03  0.15631919825E+03  0.00000000000E+00 0. -1.
         21    1    1    2  502  501  0.15859248087E+01  0.33047310493E+02 -0.13134030255E+03  0.13544340133E+03  0.00000000000E+00 0. -1.
         21    1    1    2  503  502 -0.15859248087E+01 -0.33047310493E+02 -0.10991382664E+02  0.34863309957E+02  0.00000000000E+00 0.  1.
</event>
<event>
 4    1  0.6008802E+002  0.3424952E+02  0.7546771E-02  0.1385917E+00
          2   -1    0    0  502    0  0.00000000000E+00  0.00000000000E+00  0.70830441668E+02  0.70830441668E+02  0.00000000000E+00 0. -1.
         -2   -1    0    0    0  501 -0.00000000000E+00 -0.00000000000E+00 -0.24105941945E+02  0.24105941945E+02  0.00000000000E+00 0.  1.
         21    1    1    2  502  503  0.46534196045E+01  0.33931919255E+02 -0.31939506941E+01  0.34398121742E+02  0.00000000000E+00 0.  1.
         21    1    1    2  503  501 -0.46534196045E+01 -0.33931919255E+02  0.49918450417E+02  0.60538261871E+02  0.00000000000E+00 0. -1.
</event>
<event>
 4    1  0.6008802E+002  0.3435295E+02  0.7546771E-02  0.1385170E+00
          2   -1    0    0  503    0  0.00000000000E+00  0.00000000000E+00  0.21926813997E+03  0.21926813997E+03  0.00000000000E+00 0.  1.
         -2   -1    0    0    0  501 -0.00000000000E+00 -0.00000000000E+00 -0.19182491559E+02  0.19182491559E+02  0.00000000000E+00 0. -1.
         21    1    1    2  502  501 -0.10961429885E+01  0.34335452781E+02 -0.10828777691E+01  0.34370008313E+02  0.00000000000E+00 0. -1.
         21    1    1    2  503  502  0.10961429885E+01 -0.34335452781E+02  0.20116852618E+03  0.20408062322E+03  0.00000000000E+00 0.  1.
</event>
<event>
 4    1  0.6008802E+002  0.2661062E+02  0.7546771E-02  0.1451559E+00
          2   -1    0    0  503    0  0.00000000000E+00  0.00000000000E+00  0.56562574043E+01  0.56562574043E+01  0.00000000000E+00 0. -1.
         -2   -1    0    0    0  501 -0.00000000000E+00 -0.00000000000E+00 -0.12610948760E+03  0.12610948760E+03  0.00000000000E+00 0.  1.
         21    1    1    2  502  501  0.46202746041E+01  0.26206451255E+02 -0.54610810047E+02  0.60749202453E+02  0.00000000000E+00 0. -1.
         21    1    1    2  503  502 -0.46202746041E+01 -0.26206451255E+02 -0.65842420150E+02  0.71016542552E+02  0.00000000000E+00 0.  1.
</event>
<event>
 4    1  0.6008802E+002  0.2383153E+02  0.7546771E-02  0.1482312E+00
          2   -1    0    0  503    0  0.00000000000E+00  0.00000000000E+00  0.13110222922E+02  0.13110222922E+02  0.00000000000E+00 0. -1.
         -2   -1    0    0    0  501 -0.00000000000E+00 -0.00000000000E+00 -0.78042367258E+02  0.78042367258E+02  0.00000000000E+00 0.  1.
         21    1    1    2  502  501 -0.17111571533E+01  0.23770014771E+02 -0.62866186619E+02  0.67231682123E+02  0.00000000000E+00 0.  1.
         21    1    1    2  503  502  0.17111571533E+01 -0.23770014771E+02 -0.20659577162E+01  0.23920908057E+02  0.00000000000E+00 0. -1.
</event>
<event>
 4    1  0.6008802E+002  0.2416769E+02  0.7546771E-02  0.1478334E+00
          2   -1    0    0  503    0  0.00000000000E+00  0.00000000000E+00  0.55959892970E+02  0.55959892970E+02  0.00000000000E+00 0. -1.
         -2   -1    0    0    0  501 -0.00000000000E+00 -0.00000000000E+00 -0.15979739303E+02  0.15979739303E+02  0.00000000000E+00 0.  1.
         21    1    1    2  502  501 -0.22157050006E+02  0.96510346800E+01 -0.11934781205E+01  0.24197142917E+02  0.00000000000E+00 0.  1.
         21    1    1    2  503  502  0.22157050006E+02 -0.96510346800E+01  0.41173631787E+02  0.47742489356E+02  0.00000000000E+00 0. -1.
</event>
<event>
 4    1  0.6008802E+002  0.2214511E+02  0.7546771E-02  0.1503521E+00
          2   -1    0    0  503    0  0.00000000000E+00  0.00000000000E+00  0.92389734855E+01  0.92389734855E+01  0.00000000000E+00 0. -1.
         -2   -1    0    0    0  501 -0.00000000000E+00 -0.00000000000E+00 -0.56041269834E+02  0.56041269834E+02  0.00000000000E+00 0.  1.
         21    1    1    2  502  501  0.14392442105E+02  0.16830431088E+02 -0.30904030637E+02  0.38019270245E+02  0.00000000000E+00 0.  1.
         21    1    1    2  503  502 -0.14392442105E+02 -0.16830431088E+02 -0.15898265711E+02  0.27260973074E+02  0.00000000000E+00 0. -1.
</event>
<event>
 4    1  0.6008802E+002  0.3635439E+02  0.7546771E-02  0.1371283E+00
          2   -1    0    0  503    0  0.00000000000E+00  0.00000000000E+00  0.12298639792E+03  0.12298639792E+03  0.00000000000E+00 0.  1.
         -2   -1    0    0    0  501 -0.00000000000E+00 -0.00000000000E+00 -0.11537545737E+02  0.11537545737E+02  0.00000000000E+00 0. -1.
         21    1    1    2  502  501  0.31437692279E+02 -0.18256871878E+02  0.38109376147E+02  0.52668457514E+02  0.00000000000E+00 0. -1.
         21    1    1    2  503  502 -0.31437692279E+02  0.18256871878E+02  0.73339476037E+02  0.81855486145E+02  0.00000000000E+00 0.  1.
</event>
<event>
 4    1  0.6008802E+002  0.2313951E+02  0.7546771E-02  0.1490754E+00
          2   -1    0    0  502    0  0.00000000000E+00  0.00000000000E+00  0.14478533120E+04  0.14478533120E+04  0.00000000000E+00 0.  1.
         -2   -1    0    0    0  501 -0.00000000000E+00 -0.00000000000E+00 -0.24124593488E+01  0.24124593488E+01  0.00000000000E+00 0. -1.
         21    1    1    2  502  503  0.16643415604E+02 -0.16075870696E+02  0.13899634613E+04  0.13901560562E+04  0.00000000000E+00 0.  1.
         21    1    1    2  503  501 -0.16643415604E+02  0.16075870696E+02  0.55477391364E+02  0.60109715139E+02  0.00000000000E+00 0. -1.
</event>
<event>
 4    1  0.6008802E+002  0.3174962E+02  0.7546771E-02  0.1404978E+00
          2   -1    0    0  502    0  0.00000000000E+00  0.00000000000E+00  0.20152389387E+04  0.20152389387E+04  0.00000000000E+00 0.  1.
         -2   -1    0    0    0  501 -0.00000000000E+00 -0.00000000000E+00 -0.50047326666E+00  0.50047326666E+00  0.00000000000E+00 0. -1.
         21    1    1    2  502  503  0.18821631011E+02 -0.25569215592E+02  0.10305741116E+04  0.10310630621E+04  0.00000000000E+00 0.  1.
         21    1    1    2  503  501 -0.18821631011E+02  0.25569215592E+02  0.98416435385E+03  0.98467634985E+03  0.00000000000E+00 0. -1.
</event>
<event>
 4    1  0.6008802E+002  0.2867100E+02  0.7546771E-02  0.1431508E+00
          2   -1    0    0  503    0  0.00000000000E+00  0.00000000000E+00  0.15711557067E+04  0.15711557067E+04  0.00000000000E+00 0.  1.
         -2   -1    0    0    0  501 -0.00000000000E+00 -0.00000000000E+00 -0.75367149726E+00  0.75367149726E+00  0.00000000000E+00 0. -1.
         21    1    1    2  502  501 -0.19705531541E+02 -0.20825906779E+02  0.35057426578E+03  0.35174471168E+03  0.00000000000E+00 0. -1.
         21    1    1    2  503  502  0.19705531541E+02  0.20825906779E+02  0.12198277694E+04  0.12201646665E+04  0.00000000000E+00 0.  1.
</event>
<event>
 4    1  0.6008802E+002  0.3659596E+02  0.7546771E-02  0.1369677E+00
          2   -1    0    0  502    0  0.00000000000E+00  0.00000000000E+00  0.19317990091E+04  0.19317990091E+04  0.00000000000E+00 0. -1.
         -2   -1    0    0    0  501 -0.00000000000E+00 -0.00000000000E+00 -0.14042278861E+01  0.14042278861E+01  0.00000000000E+00 0.  1.
         21    1    1    2  502  503 -0.26101497641E+02 -0.25651039850E+02  0.16529777251E+04  0.16533827820E+04  0.00000000000E+00 0. -1.
         21    1    1    2  503  501  0.26101497641E+02  0.25651039850E+02  0.27741705605E+03  0.27982045496E+03  0.00000000000E+00 0.  1.
</event>
<event>
 4    1  0.6008802E+002  0.2685061E+02  0.7546771E-02  0.1449115E+00
          2   -1    0    0  502    0  0.00000000000E+00  0.00000000000E+00  0.17332866860E+03  0.17332866860E+03  0.00000000000E+00 0.  1.
         -2   -1    0    0    0  501 -0.00000000000E+00 -0.00000000000E+00 -0.73081296451E+01  0.73081296451E+01  0.00000000000E+00 0. -1.
         21    1    1    2  502  503  0.15874773760E+02 -0.21655182315E+02  0.14229406249E+03  0.14480523327E+03  0.00000000000E+00 0.  1.
         21    1    1    2  503  501 -0.15874773760E+02  0.21655182315E+02  0.23726476465E+02  0.35831564974E+02  0.00000000000E+00 0. -1.
</event>
<event>
 4    1  0.6008802E+002  0.2133568E+02  0.7546771E-02  0.1514526E+00
          2   -1    0    0  503    0  0.00000000000E+00  0.00000000000E+00  0.91034313093E+01  0.91034313093E+01  0.00000000000E+00 0.  1.
         -2   -1    0    0    0  501 -0.00000000000E+00 -0.00000000000E+00 -0.54319335869E+02  0.54319335869E+02  0.00000000000E+00 0. -1.
         21    1    1    2  502  501 -0.22790355379E+01 -0.21213611983E+02 -0.13670233019E+02  0.25339427917E+02  0.00000000000E+00 0.  1.
         21    1    1    2  503  502  0.22790355379E+01  0.21213611983E+02 -0.31545671541E+02  0.38083339262E+02  0.00000000000E+00 0. -1.
</event>
<event>
 4    1  0.6008802E+002  0.3323106E+02  0.7546771E-02  0.1393445E+00
          2   -1    0    0  503    0  0.00000000000E+00  0.00000000000E+00  0.16490163065E+03  0.16490163065E+03  0.00000000000E+00 0.  1.
         -2   -1    0    0    0  501 -0.00000000000E+00 -0.00000000000E+00 -0.77947149671E+01  0.77947149671E+01  0.00000000000E+00 0. -1.
         21    1    1    2  502  501 -0.21597103300E+02 -0.25256058660E+02  0.46145682225E+02  0.56865871645E+02  0.00000000000E+00 0. -1.
         21    1    1    2  503  502  0.21597103300E+02  0.25256058660E+02  0.11096123346E+03  0.11583047397E+03  0.00000000000E+00 0.  1.
</event>
<event>
 4    1  0.6008802E+002  0.4201780E+02  0.7546771E-02  0.1337051E+00
          2   -1    0    0  502    0  0.00000000000E+00  0.00000000000E+00  0.43997299549E+03  0.43997299549E+03  0.00000000000E+00 0.  1.
         -2   -1    0    0    0  501 -0.00000000000E+00 -0.00000000000E+00 -0.19533300358E+02  0.19533300358E+02  0.00000000000E+00 0. -1.
         21    1    1    2  502  503  0.40905067610E+02  0.96057946068E+01  0.41501864362E+03  0.41714022870E+03  0.00000000000E+00 0.  1.
         21    1    1    2  503  501 -0.40905067610E+02 -0.96057946068E+01  0.54210515120E+01  0.42366067149E+02  0.00000000000E+00 0. -1.
</event>
<event>
 4    1  0.6008802E+002  0.3030099E+02  0.7546771E-02  0.1416998E+00
          2   -1    0    0  503    0  0.00000000000E+00  0.00000000000E+00  0.11472102029E+04  0.11472102029E+04  0.00000000000E+00 0.  1.
         -2   -1    0    0    0  501 -0.00000000000E+00 -0.00000000000E+00 -0.22415138644E+01  0.22415138644E+01  0.00000000000E+00 0. -1.
         21    1    1    2  502  501 -0.29404266858E+02  0.73170244749E+01  0.11164524172E+03  0.11568409465E+03  0.00000000000E+00 0. -1.
         21    1    1    2  503  502  0.29404266858E+02 -0.73170244749E+01  0.10333234473E+04  0.10337676221E+04  0.00000000000E+00 0.  1.
</event>
<event>
 4    1  0.6008802E+002  0.3826883E+02  0.7546771E-02  0.1358940E+00
          2   -1    0    0  503    0  0.00000000000E+00  0.00000000000E+00  0.46086127525E+03  0.46086127525E+03  0.00000000000E+00 0.  1.
         -2   -1    0    0    0  501 -0.00000000000E+00 -0.00000000000E+00 -0.33692873318E+01  0.33692873318E+01  0.00000000000E+00 0. -1.
         21    1    1    2  502  501  0.16913368938E+02 -0.34328429743E+02  0.28408844940E+03  0.28665440903E+03  0.00000000000E+00 0.  1.
         21    1    1    2  503  502 -0.16913368938E+02  0.34328429743E+02  0.17340353852E+03  0.17757615355E+03  0.00000000000E+00 0. -1.
</event>
<event>
 4    1  0.6008802E+002  0.2544525E+02  0.7546771E-02  0.1463883E+00
          2   -1    0    0  503    0  0.00000000000E+00  0.00000000000E+00  0.11388576507E+03  0.11388576507E+03  0.00000000000E+00 0. -1.
         -2   -1    0    0    0  501 -0.00000000000E+00 -0.00000000000E+00 -0.26496034676E+03  0.26496034676E+03  0.00000000000E+00 0.  1.
         21    1    1    2  502  501  0.45741819413E+01 -0.25030737412E+02 -0.26291712876E+03  0.26414556130E+03  0.00000000000E+00 0.  1.
         21    1    1    2  503  502 -0.45741819413E+01  0.25030737412E+02  0.11184254707E+03  0.11470055053E+03  0.00000000000E+00 0. -1.
</event>
<event>
 4    1  0.6008802E+002  0.2326265E+02  0.7546771E-02  0.1489226E+00
          2   -1    0    0  503    0  0.00000000000E+00  0.00000000000E+00  0.65370725427E+03  0.65370725427E+03  0.00000000000E+00 0.  1.
         -2   -1    0    0    0  501 -0.00000000000E+00 -0.00000000000E+00 -0.17269550063E+01  0.17269550063E+01  0.00000000000E+00 0. -1.
         21    1    1    2  502  501  0.21871102797E+02  0.79250068601E+01  0.89522657375E+02  0.92495713710E+02  0.00000000000E+00 0. -1.
         21    1    1    2  503  502 -0.21871102797E+02 -0.79250068601E+01  0.56245764189E+03  0.56293849557E+03  0.00000000000E+00 0.  1.
</event>
<event>
 4    1  0.6008802E+002  0.2620959E+02  0.7546771E-02  0.1455714E+00
          2   -1    0    0  503    0  0.00000000000E+00  0.00000000000E+00  0.23068086741E+04  0.23068086741E+04  0.00000000000E+00 0. -1.
         -2   -1    0    0    0  501 -0.00000000000E+00 -0.00000000000E+00 -0.46554753901E+00  0.46554753901E+00  0.00000000000E+00 0.  1.
         21    1    1    2  502  501  0.25987580160E+02 -0.34041786509E+01  0.46065648476E+03  0.46140149512E+03  0.00000000000E+00 0.  1.
         21    1    1    2  503  502 -0.25987580160E+02  0.34041786509E+01  0.18456866418E+04  0.18458727265E+04  0.00000000000E+00 0. -1.
</event>
<event>
 4    1  0.6008802E+002  0.2956104E+02  0.7546771E-02  0.1423450E+00
          2   -1    0    0  503    0  0.00000000000E+00  0.00000000000E+00  0.85595756374E+01  0.85595756374E+01  0.00000000000E+00 0.  1.
         -2   -1    0    0    0  501 -0.00000000000E+00 -0.00000000000E+00 -0.29413408447E+03  0.29413408447E+03  0.00000000000E+00 0. -1.
         21    1    1    2  502  501 -0.12786976916E+02  0.26652358711E+02 -0.26507982451E+03  0.26672301807E+03  0.00000000000E+00 0. -1.
         21    1    1    2  503  502  0.12786976916E+02 -0.26652358711E+02 -0.20494684324E+02  0.35970642044E+02  0.00000000000E+00 0.  1.
</event>
<event>
 4    1  0.6008802E+002  0.3017349E+02  0.7546771E-02  0.1418095E+00
          2   -1    0    0  502    0  0.00000000000E+00  0.00000000000E+00  0.26342103535E+03  0.26342103535E+03  0.00000000000E+00 0.  1.
         -2   -1    0    0    0  501 -0.00000000000E+00 -0.00000000000E+00 -0.36780815201E+01  0.36780815201E+01  0.00000000000E+00 0. -1.
         21    1    1    2  502  503  0.29905067067E+02  0.40158067830E+01  0.16267176378E+03  0.16544649429E+03  0.00000000000E+00 0.  1.
         21    1    1    2  503  501 -0.29905067067E+02 -0.40158067830E+01  0.97071190044E+02  0.10165262258E+03  0.00000000000E+00 0. -1.
</event>
<event>
 4    1  0.6008802E+002  0.3824682E+02  0.7546771E-02  0.1359077E+00
          2   -1    0    0  503    0  0.00000000000E+00  0.00000000000E+00  0.71762318158E+03  0.71762318158E+03  0.00000000000E+00 0.  1.
         -2   -1    0    0    0  501 -0.00000000000E+00 -0.00000000000E+00 -0.95478707391E+01  0.95478707391E+01  0.00000000000E+00 0. -1.
         21    1    1    2  502  501  0.18313728712E+02  0.33577176347E+02  0.31591407887E+02  0.49606818917E+02  0.00000000000E+00 0. -1.
         21    1    1    2  503  502 -0.18313728712E+02 -0.33577176347E+02  0.67648390295E+03  0.67756423340E+03  0.00000000000E+00 0.  1.
</event>
<event>
 4    1  0.6008802E+002  0.2296363E+02  0.7546771E-02  0.1492955E+00
          2   -1    0    0  502    0  0.00000000000E+00  0.00000000000E+00  0.25789469822E+04  0.25789469822E+04  0.00000000000E+00 0. -1.
         -2   -1    0    0    0  501 -0.00000000000E+00 -0.00000000000E+00 -0.22182457504E+00  0.22182457504E+00  0.00000000000E+00 0.  1.
         21    1    1    2  502  503  0.21178216505E+02  0.88775744263E+01  0.16500234940E+04  0.16501832804E+04  0.00000000000E+00 0. -1.
         21    1    1    2  503  501 -0.21178216505E+02 -0.88775744263E+01  0.92870166370E+03  0.92898552644E+03  0.00000000000E+00 0.  1.
</event>
<event>
 4    1  0.6008802E+002  0.2607082E+02  0.7546771E-02  0.1457172E+00
          2   -1    0    0  503    0  0.00000000000E+00  0.00000000000E+00  0.82327707383E+02  0.82327707383E+02  0.00000000000E+00 0. -1.
         -2   -1    0    0    0  501 -0.00000000000E+00 -0.00000000000E+00 -0.11773631196E+03  0.11773631196E+03  0.00000000000E+00 0.  1.
         21    1    1    2  502  501  0.25654757176E+02 -0.46390874580E+01 -0.11416536244E+03  0.11710430256E+03  0.00000000000E+00 0.  1.
         21    1    1    2  503  502 -0.25654757176E+02  0.46390874580E+01  0.78756757865E+02  0.82959716776E+02  0.00000000000E+00 0. -1.
</event>
<event>
 4    1  0.6008802E+002  0.2391789E+02  0.7546771E-02  0.1481283E+00
          2   -1    0    0  503    0  0.00000000000E+00  0.00000000000E+00  0.29499060321E+03  0.29499060321E+03  0.00000000000E+00 0. -1.
         -2   -1    0    0    0  501 -0.00000000000E+00 -0.00000000000E+00 -0.58417594802E+01  0.58417594802E+01  0.00000000000E+00 0.  1.
         21    1    1    2  502  501 -0.26775597414E+01  0.23767543696E+02  0.21634261311E+02  0.32250685605E+02  0.00000000000E+00 0.  1.
         21    1    1    2  503  502  0.26775597414E+01 -0.23767543696E+02  0.26751458242E+03  0.26858167709E+03  0.00000000000E+00 0. -1.
</event>
<event>
 4    1  0.6008802E+002  0.2031216E+02  0.7546771E-02  0.1529316E+00
          2   -1    0    0  503    0  0.00000000000E+00  0.00000000000E+00  0.37853225410E+03  0.37853225410E+03  0.00000000000E+00 0. -1.
         -2   -1    0    0    0  501 -0.00000000000E+00 -0.00000000000E+00 -0.12174526581E+01  0.12174526581E+01  0.00000000000E+00 0.  1.
         21    1    1    2  502  501 -0.27532576417E+01 -0.20124695297E+02  0.25010282115E+03  0.25092629383E+03  0.00000000000E+00 0. -1.
         21    1    1    2  503  502  0.27532576417E+01  0.20124695297E+02  0.12721198029E+03  0.12882341293E+03  0.00000000000E+00 0.  1.
</event>
<event>
 4    1  0.6008802E+002  0.2136334E+02  0.7546771E-02  0.1514140E+00
          2   -1    0    0  503    0  0.00000000000E+00  0.00000000000E+00  0.19089744092E+02  0.19089744092E+02  0.00000000000E+00 0.  1.
         -2   -1    0    0    0  501 -0.00000000000E+00 -0.00000000000E+00 -0.48300965983E+02  0.48300965983E+02  0.00000000000E+00 0. -1.
         21    1    1    2  502  501 -0.60299181809E+01 -0.20494693994E+02 -0.38551273693E+02  0.44074857896E+02  0.00000000000E+00 0. -1.
         21    1    1    2  503  502  0.60299181809E+01  0.20494693994E+02  0.93400518018E+01  0.23315852179E+02  0.00000000000E+00 0.  1.
</event>
<event>
 4    1  0.6008802E+002  0.4650613E+02  0.7546771E-02  0.1314075E+00
          2   -1    0    0  502    0  0.00000000000E+00  0.00000000000E+00  0.30025537612E+03  0.30025537612E+03  0.00000000000E+00 0.  1.
         -2   -1    0    0    0  501 -0.00000000000E+00 -0.00000000000E+00 -0.52834776523E+02  0.52834776523E+02  0.00000000000E+00 0. -1.
         21    1    1    2  502  503 -0.45893914084E+02  0.75212441839E+01  0.28777988399E+03  0.29151343382E+03  0.00000000000E+00 0.  1.
         21    1    1    2  503  501  0.45893914084E+02 -0.75212441839E+01 -0.40359284399E+02  0.61576718825E+02  0.00000000000E+00 0. -1.
</event>
<event>
 4    1  0.6008802E+002  0.2303374E+02  0.7546771E-02  0.1492075E+00
          2   -1    0    0  503    0  0.00000000000E+00  0.00000000000E+00  0.64920777615E+03  0.64920777615E+03  0.00000000000E+00 0.  1.
         -2   -1    0    0    0  501 -0.00000000000E+00 -0.00000000000E+00 -0.95129056327E+00  0.95129056327E+00  0.00000000000E+00 0. -1.
         21    1    1    2  502  501  0.13742418337E+02  0.18485110574E+02  0.20209439633E+03  0.20340279841E+03  0.00000000000E+00 0.  1.
         21    1    1    2  503  502 -0.13742418337E+02 -0.18485110574E+02  0.44616208926E+03  0.44675626830E+03  0.00000000000E+00 0. -1.
</event>
<event>
 4    1  0.6008802E+002  0.1199980E+03  0.7546771E-02  0.1133062E+00
          2   -1    0    0  502    0  0.00000000000E+00  0.00000000000E+00  0.18019752021E+04  0.18019752021E+04  0.00000000000E+00 0.  1.
         -2   -1    0    0    0  501 -0.00000000000E+00 -0.00000000000E+00 -0.14005795024E+02  0.14005795024E+02  0.00000000000E+00 0. -1.
         21    1    1    2  502  503  0.42618858316E+02 -0.11217464295E+03  0.14890151165E+04  0.14938425402E+04  0.00000000000E+00 0.  1.
         21    1    1    2  503  501 -0.42618858316E+02  0.11217464295E+03  0.29895429056E+03  0.32213845696E+03  0.00000000000E+00 0. -1.
</event>
<event>
 4    1  0.6008802E+002  0.3084869E+02  0.7546771E-02  0.1412362E+00
          2   -1    0    0  502    0  0.00000000000E+00  0.00000000000E+00  0.77563540640E+03  0.77563540640E+03  0.00000000000E+00 0. -1.
         -2   -1    0    0    0  501 -0.00000000000E+00 -0.00000000000E+00 -0.30652189207E+01  0.30652189207E+01  0.00000000000E+00 0.  1.
         21    1    1    2  502  503  0.30153292137E+02  0.65130901072E+01  0.68780641767E+03  0.68849786460E+03  0.00000000000E+00 0. -1.
         21    1    1    2  503  501 -0.30153292137E+02 -0.65130901072E+01  0.84763769805E+02  0.90202760717E+02  0.00000000000E+00 0.  1.
</event>
<event>
 4    1  0.6008802E+002  0.2694276E+02  0.7546771E-02  0.1448184E+00
          2   -1    0    0  503    0  0.00000000000E+00  0.00000000000E+00  0.13393383271E+04  0.13393383271E+04  0.00000000000E+00 0.  1.
         -2   -1    0    0    0  501 -0.00000000000E+00 -0.00000000000E+00 -0.30405496729E+01  0.30405496729E+01  0.00000000000E+00 0. -1.
         21    1    1    2  502  501  0.24957770333E+02  0.10149985125E+02  0.59714668056E+02  0.65511480513E+02  0.00000000000E+00 0. -1.
         21    1    1    2  503  502 -0.24957770333E+02 -0.10149985125E+02  0.12765831093E+04  0.12768673962E+04  0.00000000000E+00 0.  1.
</event>
<event>
 4    1  0.6008802E+002  0.2100782E+02  0.7546771E-02  0.1519153E+00
          2   -1    0    0  502    0  0.00000000000E+00  0.00000000000E+00  0.21500099998E+01  0.21500099998E+01  0.00000000000E+00 0. -1.
         -2   -1    0    0    0  501 -0.00000000000E+00 -0.00000000000E+00 -0.32469477580E+03  0.32469477580E+03  0.00000000000E+00 0.  1.
         21    1    1    2  502  503  0.20840109743E+02  0.26492094367E+01 -0.62160763459E+02  0.65614701086E+02  0.00000000000E+00 0. -1.
         21    1    1    2  503  501 -0.20840109743E+02 -0.26492094367E+01 -0.26038400234E+03  0.26123008471E+03  0.00000000000E+00 0.  1.
</event>
<event>
 4    1  0.6008802E+002  0.2624889E+02  0.7546771E-02  0.1455303E+00
          2   -1    0    0  503    0  0.00000000000E+00  0.00000000000E+00  0.11548294126E+03  0.11548294126E+03  0.00000000000E+00 0.  1.
         -2   -1    0    0    0  501 -0.00000000000E+00 -0.00000000000E+00 -0.59673797951E+01  0.59673797951E+01  0.00000000000E+00 0. -1.
         21    1    1    2  502  501  0.24437785070E+02  0.95811729819E+01  0.53935509670E+02  0.59983692936E+02  0.00000000000E+00 0.  1.
         21    1    1    2  503  502 -0.24437785070E+02 -0.95811729819E+01  0.55580051795E+02  0.61466628119E+02  0.00000000000E+00 0. -1.
</event>
<event>
 4    1  0.6008802E+002  0.3153858E+02  0.7546771E-02  0.1406681E+00
          2   -1    0    0  503    0  0.00000000000E+00  0.00000000000E+00  0.94332848715E+03  0.94332848715E+03  0.00000000000E+00 0.  1.
         -2   -1    0    0    0  501 -0.00000000000E+00 -0.00000000000E+00 -0.36892416649E+01  0.36892416649E+01  0.00000000000E+00 0. -1.
         21    1    1    2  502  501 -0.31303909768E+02 -0.38401868241E+01  0.69659639720E+02  0.76466641142E+02  0.00000000000E+00 0. -1.
         21    1    1    2  503  502  0.31303909768E+02  0.38401868241E+01  0.86997960576E+03  0.87055108767E+03  0.00000000000E+00 0.  1.
</event>
<event>
 4    1  0.6008802E+002  0.2640237E+02  0.7546771E-02  0.1453706E+00
          2   -1    0    0  502    0  0.00000000000E+00  0.00000000000E+00  0.16707284366E+03  0.16707284366E+03  0.00000000000E+00 0.  1.
         -2   -1    0    0    0  501 -0.00000000000E+00 -0.00000000000E+00 -0.11886132745E+02  0.11886132745E+02  0.00000000000E+00 0. -1.
         21    1    1    2  502  503 -0.17171691456E+02 -0.20055378595E+02  0.14967706099E+03  0.15198785406E+03  0.00000000000E+00 0.  1.
         21    1    1    2  503  501  0.17171691456E+02  0.20055378595E+02  0.55096499332E+01  0.26971122343E+02  0.00000000000E+00 0. -1.
</event>
<event>
 4    1  0.6008802E+002  0.2361541E+02  0.7546771E-02  0.1484912E+00
          2   -1    0    0  503    0  0.00000000000E+00  0.00000000000E+00  0.15441497893E+03  0.15441497893E+03  0.00000000000E+00 0. -1.
         -2   -1    0    0    0  501 -0.00000000000E+00 -0.00000000000E+00 -0.47987798228E+01  0.47987798228E+01  0.00000000000E+00 0.  1.
         21    1    1    2  502  501 -0.20630630929E+02  0.11491930951E+02  0.35213062821E+02  0.42398669823E+02  0.00000000000E+00 0. -1.
         21    1    1    2  503  502  0.20630630929E+02 -0.11491930951E+02  0.11440313628E+03  0.11681508893E+03  0.00000000000E+00 0.  1.
</event>
<event>
 4    1  0.6008802E+002  0.3469344E+02  0.7546771E-02  0.1382731E+00
          2   -1    0    0  503    0  0.00000000000E+00  0.00000000000E+00  0.15553514151E+03  0.15553514151E+03  0.00000000000E+00 0. -1.
         -2   -1    0    0    0  501 -0.00000000000E+00 -0.00000000000E+00 -0.89782004071E+01  0.89782004071E+01  0.00000000000E+00 0.  1.
         21    1    1    2  502  501 -0.28648286438E+02  0.19568099285E+02  0.10384213485E+03  0.10948435412E+03  0.00000000000E+00 0. -1.
         21    1    1    2  503  502  0.28648286438E+02 -0.19568099285E+02  0.42714806254E+02  0.55028987804E+02  0.00000000000E+00 0.  1.
</event>
<event>
 4    1  0.6008802E+002  0.2034814E+02  0.7546771E-02  0.1528779E+00
          2   -1    0    0  503    0  0.00000000000E+00  0.00000000000E+00  0.34851230435E+01  0.34851230435E+01  0.00000000000E+00 0. -1.
         -2   -1    0    0    0  501 -0.00000000000E+00 -0.00000000000E+00 -0.63323465155E+03  0.63323465155E+03  0.00000000000E+00 0.  1.
         21    1    1    2  502  501 -0.19884755233E+02  0.43177858179E+01 -0.60182025206E+03  0.60216414918E+03  0.00000000000E+00 0.  1.
         21    1    1    2  503  502  0.19884755233E+02 -0.43177858179E+01 -0.27929276444E+02  0.34555625414E+02  0.00000000000E+00 0. -1.
</event>
<event>
 4    1  0.6008802E+002  0.2024683E+02  0.7546771E-02  0.1530295E+00
          2   -1    0    0  502    0  0.00000000000E+00  0.00000000000E+00  0.74911773819E+03  0.74911773819E+03  0.00000000000E+00 0. -1.
         -2   -1    0    0    0  501 -0.00000000000E+00 -0.00000000000E+00 -0.69958393846E+01  0.69958393846E+01  0.00000000000E+00 0.  1.
         21    1    1    2  502  503 -0.17949423573E+02  0.93676144456E+01  0.73403068698E+03  0.73430986881E+03  0.00000000000E+00 0. -1.
         21    1    1    2  503  501  0.17949423573E+02 -0.93676144456E+01  0.80912118267E+01  0.21803708764E+02  0.00000000000E+00 0.  1.
</event>
<event>
 4    1  0.6008802E+002  0.2619281E+02  0.7546771E-02  0.1455889E+00
          2   -1    0    0  503    0  0.00000000000E+00  0.00000000000E+00  0.13616449663E+04  0.13616449663E+04  0.00000000000E+00 0. -1.
         -2   -1    0    0    0  501 -0.00000000000E+00 -0.00000000000E+00 -0.62381924895E+01  0.62381924895E+01  0.00000000000E+00 0.  1.
         21    1    1    2  502  501 -0.19139240488E+02  0.17881639008E+02  0.21963697373E+02  0.34182854508E+02  0.00000000000E+00 0.  1.
         21    1    1    2  503  502  0.19139240488E+02 -0.17881639008E+02  0.13334430765E+04  0.13337003043E+04  0.00000000000E+00 0. -1.
</event>
<event>
 4    1  0.6008802E+002  0.1434265E+03  0.7546771E-02  0.1104552E+00
          2   -1    0    0  503    0  0.00000000000E+00  0.00000000000E+00  0.16436774097E+04  0.16436774097E+04  0.00000000000E+00 0.  1.
         -2   -1    0    0    0  501 -0.00000000000E+00 -0.00000000000E+00 -0.25578526819E+02  0.25578526819E+02  0.00000000000E+00 0. -1.
         21    1    1    2  502  501  0.12511362138E+03 -0.70126630093E+02  0.21259135322E+03  0.25644930487E+03  0.00000000000E+00 0. -1.
         21    1    1    2  503  502 -0.12511362138E+03  0.70126630093E+02  0.14055075297E+04  0.14128066317E+04  0.00000000000E+00 0.  1.
</event>
<event>
 4    1  0.6008802E+002  0.3689691E+02  0.7546771E-02  0.1367696E+00
          2   -1    0    0  502    0  0.00000000000E+00  0.00000000000E+00  0.64717560839E+03  0.64717560839E+03  0.00000000000E+00 0.  1.
         -2   -1    0    0    0  501 -0.00000000000E+00 -0.00000000000E+00 -0.77037507887E+01  0.77037507887E+01  0.00000000000E+00 0. -1.
         21    1    1    2  502  503  0.76421490271E+01  0.36096806168E+02  0.59891384301E+03  0.60004930898E+03  0.00000000000E+00 0.  1.
         21    1    1    2  503  501 -0.76421490271E+01 -0.36096806168E+02  0.40558014592E+02  0.54830050200E+02  0.00000000000E+00 0. -1.
</event>
<event>
 4    1  0.6008802E+002  0.2315561E+02  0.7546771E-02  0.1490553E+00
          2   -1    0    0  502    0  0.00000000000E+00  0.00000000000E+00  0.26381358604E+04  0.26381358604E+04  0.00000000000E+00 0. -1.
         -2   -1    0    0    0  501 -0.00000000000E+00 -0.00000000000E+00 -0.21163757534E+00  0.21163757534E+00  0.00000000000E+00 0.  1.
         21    1    1    2  502  503  0.21550012483E+02 -0.84722567401E+01  0.10562321337E+04  0.10564859215E+04  0.00000000000E+00 0.  1.
         21    1    1    2  503  501 -0.21550012483E+02  0.84722567401E+01  0.15816920892E+04  0.15818615765E+04  0.00000000000E+00 0. -1.
</event>
<event>
 4    1  0.6008802E+002  0.2183873E+02  0.7546771E-02  0.1507619E+00
          2   -1    0    0  502    0  0.00000000000E+00  0.00000000000E+00  0.60140789905E+03  0.60140789905E+03  0.00000000000E+00 0.  1.
         -2   -1    0    0    0  501 -0.00000000000E+00 -0.00000000000E+00 -0.20779542923E+01  0.20779542923E+01  0.00000000000E+00 0. -1.
         21    1    1    2  502  503  0.21586478733E+02 -0.33096769416E+01  0.53694387881E+03  0.53738781063E+03  0.00000000000E+00 0.  1.
         21    1    1    2  503  501 -0.21586478733E+02  0.33096769416E+01  0.62386065949E+02  0.66098042710E+02  0.00000000000E+00 0. -1.
</event>
<event>
 4    1  0.6008802E+002  0.3977863E+02  0.7546771E-02  0.1349788E+00
          2   -1    0    0  503    0  0.00000000000E+00  0.00000000000E+00  0.32173224674E+02  0.32173224674E+02  0.00000000000E+00 0.  1.
         -2   -1    0    0    0  501 -0.00000000000E+00 -0.00000000000E+00 -0.51134518879E+02  0.51134518879E+02  0.00000000000E+00 0. -1.
         21    1    1    2  502  501 -0.26003113249E+02 -0.30102779011E+02 -0.17620393748E+02  0.43506522254E+02  0.00000000000E+00 0. -1.
         21    1    1    2  503  502  0.26003113249E+02  0.30102779011E+02 -0.13409004574E+01  0.39801221299E+02  0.00000000000E+00 0.  1.
</event>
<event>
 4    1  0.6008802E+002  0.2280766E+02  0.7546771E-02  0.1494928E+00
          2   -1    0    0  502    0  0.00000000000E+00  0.00000000000E+00  0.31074340179E+02  0.31074340179E+02  0.00000000000E+00 0.  1.
         -2   -1    0    0    0  501 -0.00000000000E+00 -0.00000000000E+00 -0.48640897645E+02  0.48640897645E+02  0.00000000000E+00 0. -1.
         21    1    1    2  502  503 -0.15566364309E+02  0.16669661972E+02  0.23495042860E+02  0.32744562404E+02  0.00000000000E+00 0.  1.
         21    1    1    2  503  501  0.15566364309E+02 -0.16669661972E+02 -0.41061600325E+02  0.46970675419E+02  0.00000000000E+00 0. -1.
</event>
<event>
 4    1  0.6008802E+002  0.2203449E+02  0.7546771E-02  0.1504992E+00
          2   -1    0    0  502    0  0.00000000000E+00  0.00000000000E+00  0.19784155802E+03  0.19784155802E+03  0.00000000000E+00 0. -1.
         -2   -1    0    0    0  501 -0.00000000000E+00 -0.00000000000E+00 -0.25146011492E+01  0.25146011492E+01  0.00000000000E+00 0.  1.
         21    1    1    2  502  503  0.14586483361E+02  0.16515240289E+02  0.11320516388E+03  0.11532964835E+03  0.00000000000E+00 0. -1.
         21    1    1    2  503  501 -0.14586483361E+02 -0.16515240289E+02  0.82121792987E+02  0.85026510819E+02  0.00000000000E+00 0.  1.
</event>
<event>
 4    1  0.6008802E+002  0.2227096E+02  0.7546771E-02  0.1501861E+00
          2   -1    0    0  503    0  0.00000000000E+00  0.00000000000E+00  0.11100430328E+04  0.11100430328E+04  0.00000000000E+00 0.  1.
         -2   -1    0    0    0  501 -0.00000000000E+00 -0.00000000000E+00 -0.44847961089E+00  0.44847961089E+00  0.00000000000E+00 0. -1.
         21    1    1    2  502  501 -0.21876289440E+02 -0.41741510833E+01  0.58851754523E+03  0.58893878851E+03  0.00000000000E+00 0. -1.
         21    1    1    2  503  502  0.21876289440E+02  0.41741510833E+01  0.52107700792E+03  0.52155272385E+03  0.00000000000E+00 0.  1.
</event>
<event>
 4    1  0.6008802E+002  0.3382910E+02  0.7546771E-02  0.1388987E+00
          2   -1    0    0  503    0  0.00000000000E+00  0.00000000000E+00  0.48536022553E+01  0.48536022553E+01  0.00000000000E+00 0. -1.
         -2   -1    0    0    0  501 -0.00000000000E+00 -0.00000000000E+00 -0.39280513492E+03  0.39280513492E+03  0.00000000000E+00 0.  1.
         21    1    1    2  502  501 -0.11689461943E+02  0.31745308591E+02 -0.31968558276E+03  0.32147049626E+03  0.00000000000E+00 0.  1.
         21    1    1    2  503  502  0.11689461943E+02 -0.31745308591E+02 -0.68265949904E+02  0.76188240919E+02  0.00000000000E+00 0. -1.
</event>
<event>
 4    1  0.6008802E+002  0.3076558E+02  0.7546771E-02  0.1413058E+00
          2   -1    0    0  502    0  0.00000000000E+00  0.00000000000E+00  0.82317884179E+01  0.82317884179E+01  0.00000000000E+00 0. -1.
         -2   -1    0    0    0  501 -0.00000000000E+00 -0.00000000000E+00 -0.11997484565E+03  0.11997484565E+03  0.00000000000E+00 0.  1.
         21    1    1    2  502  503 -0.28791804914E+02 -0.10842190380E+02 -0.68946401239E+02  0.75499187851E+02  0.00000000000E+00 0.  1.
         21    1    1    2  503  501  0.28791804914E+02  0.10842190380E+02 -0.42796655991E+02  0.52707446214E+02  0.00000000000E+00 0. -1.
</event>
<event>
 4    1  0.6008802E+002  0.2905412E+02  0.7546771E-02  0.1427998E+00
          2   -1    0    0  503    0  0.00000000000E+00  0.00000000000E+00  0.23280546269E+04  0.23280546269E+04  0.00000000000E+00 0.  1.
         -2   -1    0    0    0  501 -0.00000000000E+00 -0.00000000000E+00 -0.10820853112E+01  0.10820853112E+01  0.00000000000E+00 0. -1.
         21    1    1    2  502  501  0.19180066200E+02  0.21823538347E+02  0.21387337028E+03  0.21583781013E+03  0.00000000000E+00 0. -1.
         21    1    1    2  503  502 -0.19180066200E+02 -0.21823538347E+02  0.21130991713E+04  0.21132989020E+04  0.00000000000E+00 0.  1.
</event>
<event>
 4    1  0.6008802E+002  0.2350494E+02  0.7546771E-02  0.1486253E+00
          2   -1    0    0  502    0  0.00000000000E+00  0.00000000000E+00  0.79912330988E+03  0.79912330988E+03  0.00000000000E+00 0.  1.
         -2   -1    0    0    0  501 -0.00000000000E+00 -0.00000000000E+00 -0.25543020026E+01  0.25543020026E+01  0.00000000000E+00 0. -1.
         21    1    1    2  502  503  0.12313472078E+02 -0.20021502647E+02  0.74060528589E+03  0.74097818568E+03  0.00000000000E+00 0.  1.
         21    1    1    2  503  501 -0.12313472078E+02  0.20021502647E+02  0.55963721989E+02  0.60699426206E+02  0.00000000000E+00 0. -1.
</event>
<event>
 4    1  0.6008802E+002  0.2261439E+02  0.7546771E-02  0.1497398E+00
          2   -1    0    0  502    0  0.00000000000E+00  0.00000000000E+00  0.15833269169E+04  0.15833269169E+04  0.00000000000E+00 0.  1.
         -2   -1    0    0    0  501 -0.00000000000E+00 -0.00000000000E+00 -0.34623420246E+00  0.34623420246E+00  0.00000000000E+00 0. -1.
         21    1    1    2  502  503 -0.18982358643E+02 -0.12291489455E+02  0.99662437688E+03  0.99688091528E+03  0.00000000000E+00 0.  1.
         21    1    1    2  503  501  0.18982358643E+02  0.12291489455E+02  0.58635630583E+03  0.58679223584E+03  0.00000000000E+00 0. -1.
</event>
<event>
 4    1  0.6008802E+002  0.2425428E+02  0.7546771E-02  0.1477321E+00
          2   -1    0    0  503    0  0.00000000000E+00  0.00000000000E+00  0.22905459802E+02  0.22905459802E+02  0.00000000000E+00 0. -1.
         -2   -1    0    0    0  501 -0.00000000000E+00 -0.00000000000E+00 -0.26329055396E+02  0.26329055396E+02  0.00000000000E+00 0.  1.
         21    1    1    2  502  501  0.23815130647E+02  0.45945145301E+01 -0.55693959184E+01  0.24885501449E+02  0.00000000000E+00 0.  1.
         21    1    1    2  503  502 -0.23815130647E+02 -0.45945145301E+01  0.21458003246E+01  0.24349013749E+02  0.00000000000E+00 0. -1.
</event>
<event>
 4    1  0.6008802E+002  0.2089145E+02  0.7546771E-02  0.1520820E+00
          2   -1    0    0  502    0  0.00000000000E+00  0.00000000000E+00  0.23268734288E+02  0.23268734288E+02  0.00000000000E+00 0.  1.
         -2   -1    0    0    0  501 -0.00000000000E+00 -0.00000000000E+00 -0.24443846855E+02  0.24443846855E+02  0.00000000000E+00 0. -1.
         21    1    1    2  502  503 -0.20891296874E+02 -0.79245289315E-01  0.10919186427E+02  0.23572891149E+02  0.00000000000E+00 0. -1.
         21    1    1    2  503  501  0.20891296874E+02  0.79245289315E-01 -0.12094298994E+02  0.24139689995E+02  0.00000000000E+00 0.  1.
</event>
<event>
 4    1  0.6008802E+002  0.2040520E+02  0.7546771E-02  0.1527929E+00
          2   -1    0    0  503    0  0.00000000000E+00  0.00000000000E+00  0.83568680215E+00  0.83568680215E+00  0.00000000000E+00 0. -1.
         -2   -1    0    0    0  501 -0.00000000000E+00 -0.00000000000E+00 -0.11829125427E+04  0.11829125427E+04  0.00000000000E+00 0.  1.
         21    1    1    2  502  501 -0.15166707639E+02  0.13650760522E+02 -0.10413308119E+04  0.10415307159E+04  0.00000000000E+00 0.  1.
         21    1    1    2  503  502  0.15166707639E+02 -0.13650760522E+02 -0.14074604403E+03  0.14221751367E+03  0.00000000000E+00 0. -1.
</event>
<event>
 4    1  0.6008802E+002  0.2849172E+02  0.7546771E-02  0.1433173E+00
          2   -1    0    0  503    0  0.00000000000E+00  0.00000000000E+00  0.60490379115E+03  0.60490379115E+03  0.00000000000E+00 0.  1.
         -2   -1    0    0    0  501 -0.00000000000E+00 -0.00000000000E+00 -0.13422369215E+01  0.13422369215E+01  0.00000000000E+00 0. -1.
         21    1    1    2  502  501  0.24422997585E+02  0.14672940989E+02  0.30584826400E+03  0.30717248998E+03  0.00000000000E+00 0.  1.
         21    1    1    2  503  502 -0.24422997585E+02 -0.14672940989E+02  0.29771329023E+03  0.29907353809E+03  0.00000000000E+00 0. -1.
</event>
<event>
 4    1  0.6008802E+002  0.2527836E+02  0.7546771E-02  0.1465713E+00
          2   -1    0    0  503    0  0.00000000000E+00  0.00000000000E+00  0.23047788311E+02  0.23047788311E+02  0.00000000000E+00 0.  1.
         -2   -1    0    0    0  501 -0.00000000000E+00 -0.00000000000E+00 -0.39699756225E+02  0.39699756225E+02  0.00000000000E+00 0. -1.
         21    1    1    2  502  501 -0.15212147810E+02  0.20188754467E+02  0.89049907472E+01  0.26801009461E+02  0.00000000000E+00 0.  1.
         21    1    1    2  503  502  0.15212147810E+02 -0.20188754467E+02 -0.25556958661E+02  0.35946535075E+02  0.00000000000E+00 0. -1.
</event>
<event>
 4    1  0.6008802E+002  0.3120927E+02  0.7546771E-02  0.1409371E+00
          2   -1    0    0  502    0  0.00000000000E+00  0.00000000000E+00  0.13421739921E+02  0.13421739921E+02  0.00000000000E+00 0.  1.
         -2   -1    0    0    0  501 -0.00000000000E+00 -0.00000000000E+00 -0.78135903848E+02  0.78135903848E+02  0.00000000000E+00 0. -1.
         21    1    1    2  502  503  0.69079932695E+01 -0.30435149985E+02 -0.44575029277E+02  0.54414630024E+02  0.00000000000E+00 0. -1.
         21    1    1    2  503  501 -0.69079932695E+01  0.30435149985E+02 -0.20139134650E+02  0.37143013745E+02  0.00000000000E+00 0.  1.
</event>
<event>
 4    1  0.6008802E+002  0.4502011E+02  0.7546771E-02  0.1321339E+00
          2   -1    0    0  503    0  0.00000000000E+00  0.00000000000E+00  0.14407583638E+02  0.14407583638E+02  0.00000000000E+00 0.  1.
         -2   -1    0    0    0  501 -0.00000000000E+00 -0.00000000000E+00 -0.19553945267E+03  0.19553945267E+03  0.00000000000E+00 0. -1.
         21    1    1    2  502  501  0.14227007867E+02  0.42713021906E+02 -0.14616938170E+03  0.15294540902E+03  0.00000000000E+00 0. -1.
         21    1    1    2  503  502 -0.14227007867E+02 -0.42713021906E+02 -0.34962487328E+02  0.57001627286E+02  0.00000000000E+00 0.  1.
</event>
<event>
 4    1  0.6008802E+002  0.2658365E+02  0.7546771E-02  0.1451836E+00
          2   -1    0    0  502    0  0.00000000000E+00  0.00000000000E+00  0.34124407295E+03  0.34124407295E+03  0.00000000000E+00 0.  1.
         -2   -1    0    0    0  501 -0.00000000000E+00 -0.00000000000E+00 -0.10956728801E+02  0.10956728801E+02  0.00000000000E+00 0. -1.
         21    1    1    2  502  503 -0.18469525201E+02 -0.19119804325E+02  0.32373093059E+03  0.32482057463E+03  0.00000000000E+00 0.  1.
         21    1    1    2  503  501  0.18469525201E+02  0.19119804325E+02  0.65564135537E+01  0.27380227122E+02  0.00000000000E+00 0. -1.
</event>
<event>
 4    1  0.6008802E+002  0.3024276E+02  0.7546771E-02  0.1417498E+00
          2   -1    0    0  502    0  0.00000000000E+00  0.00000000000E+00  0.54405814564E+03  0.54405814564E+03  0.00000000000E+00 0. -1.
         -2   -1    0    0    0  501 -0.00000000000E+00 -0.00000000000E+00 -0.21392640805E+01  0.21392640805E+01  0.00000000000E+00 0.  1.
         21    1    1    2  502  503 -0.15015786694E+02  0.26251684389E+02  0.39734295811E+03  0.39849222218E+03  0.00000000000E+00 0. -1.
         21    1    1    2  503  501  0.15015786694E+02 -0.26251684389E+02  0.14457592346E+03  0.14770518754E+03  0.00000000000E+00 0.  1.
</event>
<event>
 4    1  0.6008802E+002  0.2065622E+02  0.7546771E-02  0.1524230E+00
          2   -1    0    0  502    0  0.00000000000E+00  0.00000000000E+00  0.15014761509E+02  0.15014761509E+02  0.00000000000E+00 0.  1.
         -2   -1    0    0    0  501 -0.00000000000E+00 -0.00000000000E+00 -0.88850493886E+02  0.88850493886E+02  0.00000000000E+00 0. -1.
         21    1    1    2  502  503  0.19929075541E+02  0.54324294120E+01  0.59121326162E+01  0.21485638304E+02  0.00000000000E+00 0.  1.
         21    1    1    2  503  501 -0.19929075541E+02 -0.54324294120E+01 -0.79747864993E+02  0.82379617092E+02  0.00000000000E+00 0. -1.
</event>
<event>
 4    1  0.6008802E+002  0.5289170E+02  0.7546771E-02  0.1286099E+00
          2   -1    0    0  502    0  0.00000000000E+00  0.00000000000E+00  0.23605450965E+03  0.23605450965E+03  0.00000000000E+00 0. -1.
         -2   -1    0    0    0  501 -0.00000000000E+00 -0.00000000000E+00 -0.17638696825E+02  0.17638696825E+02  0.00000000000E+00 0.  1.
         21    1    1    2  502  503 -0.19623042838E+02  0.49116882269E+02  0.18186709493E+03  0.18940214400E+03  0.00000000000E+00 0. -1.
         21    1    1    2  503  501  0.19623042838E+02 -0.49116882269E+02  0.36548717893E+02  0.64291062471E+02  0.00000000000E+00 0.  1.
</event>
<event>
 4    1  0.6008802E+002  0.2009143E+02  0.7546771E-02  0.1532643E+00
          2   -1    0    0  502    0  0.00000000000E+00  0.00000000000E+00  0.15211422857E+03  0.15211422857E+03  0.00000000000E+00 0.  1.
         -2   -1    0    0    0  501 -0.00000000000E+00 -0.00000000000E+00 -0.27476516953E+01  0.27476516953E+01  0.00000000000E+00 0. -1.
         21    1    1    2  502  503  0.12095609382E+02  0.16042504513E+02  0.89001313948E+02  0.91240887774E+02  0.00000000000E+00 0.  1.
         21    1    1    2  503  501 -0.12095609382E+02 -0.16042504513E+02  0.60365262930E+02  0.63620992494E+02  0.00000000000E+00 0. -1.
</event>
<event>
 4    1  0.6008802E+002  0.2915046E+02  0.7546771E-02  0.1427125E+00
          2   -1    0    0  503    0  0.00000000000E+00  0.00000000000E+00  0.86624592002E+03  0.86624592002E+03  0.00000000000E+00 0.  1.
         -2   -1    0    0    0  501 -0.00000000000E+00 -0.00000000000E+00 -0.98487864100E+00  0.98487864100E+00  0.00000000000E+00 0. -1.
         21    1    1    2  502  501  0.18702791272E+02  0.22359673681E+02  0.40526617958E+03  0.40631321135E+03  0.00000000000E+00 0.  1.
         21    1    1    2  503  502 -0.18702791272E+02 -0.22359673681E+02  0.45999486179E+03  0.46091758730E+03  0.00000000000E+00 0. -1.
</event>
<event>
 4    1  0.6008802E+002  0.3274768E+02  0.7546771E-02  0.1397129E+00
          2   -1    0    0  503    0  0.00000000000E+00  0.00000000000E+00  0.16529441937E+04  0.16529441937E+04  0.00000000000E+00 0.  1.
         -2   -1    0    0    0  501 -0.00000000000E+00 -0.00000000000E+00 -0.72454923553E+01  0.72454923553E+01  0.00000000000E+00 0. -1.
         21    1    1    2  502  501  0.43558510947E+01 -0.32456697611E+02  0.30790832575E+02  0.44949816788E+02  0.00000000000E+00 0. -1.
         21    1    1    2  503  502 -0.43558510947E+01  0.32456697611E+02  0.16149078687E+04  0.16152398692E+04  0.00000000000E+00 0.  1.
</event>
<event>
 4    1  0.6008802E+002  0.2885966E+02  0.7546771E-02  0.1429772E+00
          2   -1    0    0  502    0  0.00000000000E+00  0.00000000000E+00  0.24825642358E+03  0.24825642358E+03  0.00000000000E+00 0. -1.
         -2   -1    0    0    0  501 -0.00000000000E+00 -0.00000000000E+00 -0.35890741846E+01  0.35890741846E+01  0.00000000000E+00 0.  1.
         21    1    1    2  502  503 -0.25072235488E+02 -0.14292056903E+02  0.15449737623E+03  0.15716971446E+03  0.00000000000E+00 0. -1.
         21    1    1    2  503  501  0.25072235488E+02  0.14292056903E+02  0.90169973168E+02  0.94675783302E+02  0.00000000000E+00 0.  1.
</event>
<event>
 4    1  0.6008802E+002  0.2549718E+02  0.7546771E-02  0.1463318E+00
          2   -1    0    0  502    0  0.00000000000E+00  0.00000000000E+00  0.45555284058E+02  0.45555284058E+02  0.00000000000E+00 0. -1.
         -2   -1    0    0    0  501 -0.00000000000E+00 -0.00000000000E+00 -0.13192677562E+03  0.13192677562E+03  0.00000000000E+00 0.  1.
         21    1    1    2  502  503  0.92697910692E+01  0.23752408747E+02  0.40618334323E+02  0.47957846396E+02  0.00000000000E+00 0. -1.
         21    1    1    2  503  501 -0.92697910692E+01 -0.23752408747E+02 -0.12698982589E+03  0.12952421328E+03  0.00000000000E+00 0.  1.
</event>
<event>
 4    1  0.6008802E+002  0.2313933E+02  0.7546771E-02  0.1490756E+00
          2   -1    0    0  502    0  0.00000000000E+00  0.00000000000E+00  0.24867134733E+03  0.24867134733E+03  0.00000000000E+00 0. -1.
         -2   -1    0    0    0  501 -0.00000000000E+00 -0.00000000000E+00 -0.93314181284E+01  0.93314181284E+01  0.00000000000E+00 0.  1.
         21    1    1    2  502  503 -0.89130053849E+01  0.21353847681E+02  0.23281360914E+03  0.23396069131E+03  0.00000000000E+00 0. -1.
         21    1    1    2  503  501  0.89130053849E+01 -0.21353847681E+02  0.65263200552E+01  0.24042074146E+02  0.00000000000E+00 0.  1.
</event>
<event>
 4    1  0.6008802E+002  0.2191400E+02  0.7546771E-02  0.1506605E+00
          2   -1    0    0  502    0  0.00000000000E+00  0.00000000000E+00  0.65949414750E+03  0.65949414750E+03  0.00000000000E+00 0.  1.
         -2   -1    0    0    0  501 -0.00000000000E+00 -0.00000000000E+00 -0.74394876976E+00  0.74394876976E+00  0.00000000000E+00 0. -1.
         21    1    1    2  502  503  0.16057200960E+02 -0.14912729911E+02  0.37745338104E+03  0.37808898168E+03  0.00000000000E+00 0.  1.
         21    1    1    2  503  501 -0.16057200960E+02  0.14912729911E+02  0.28129681770E+03  0.28214911459E+03  0.00000000000E+00 0. -1.
</event>
<event>
 4    1  0.6008802E+002  0.2394562E+02  0.7546771E-02  0.1480953E+00
          2   -1    0    0  503    0  0.00000000000E+00  0.00000000000E+00  0.18184386491E+04  0.18184386491E+04  0.00000000000E+00 0. -1.
         -2   -1    0    0    0  501 -0.00000000000E+00 -0.00000000000E+00 -0.86236268894E+00  0.86236268894E+00  0.00000000000E+00 0.  1.
         21    1    1    2  502  501 -0.10013506040E+02 -0.21751374449E+02  0.18428604820E+03  0.18583525004E+03  0.00000000000E+00 0.  1.
         21    1    1    2  503  502  0.10013506040E+02  0.21751374449E+02  0.16332902382E+04  0.16334657617E+04  0.00000000000E+00 0. -1.
</event>
<event>
 4    1  0.6008802E+002  0.4192451E+02  0.7546771E-02  0.1337563E+00
          2   -1    0    0  503    0  0.00000000000E+00  0.00000000000E+00  0.58084843267E+02  0.58084843267E+02  0.00000000000E+00 0. -1.
         -2   -1    0    0    0  501 -0.00000000000E+00 -0.00000000000E+00 -0.40207045477E+02  0.40207045477E+02  0.00000000000E+00 0.  1.
         21    1    1    2  502  501 -0.30654321433E+02 -0.28600299545E+02 -0.15505377838E+02  0.44699902667E+02  0.00000000000E+00 0.  1.
         21    1    1    2  503  502  0.30654321433E+02  0.28600299545E+02  0.33383175628E+02  0.53591986076E+02  0.00000000000E+00 0. -1.
</event>
<event>
 4    1  0.6008802E+002  0.3031047E+02  0.7546771E-02  0.1416917E+00
          2   -1    0    0  503    0  0.00000000000E+00  0.00000000000E+00  0.18944008513E+02  0.18944008513E+02  0.00000000000E+00 0.  1.
         -2   -1    0    0    0  501 -0.00000000000E+00 -0.00000000000E+00 -0.85100207406E+02  0.85100207406E+02  0.00000000000E+00 0. -1.
         21    1    1    2  502  501 -0.24579192977E+02 -0.17736625585E+02 -0.67196065836E+02  0.73715913332E+02  0.00000000000E+00 0. -1.
         21    1    1    2  503  502  0.24579192977E+02  0.17736625585E+02  0.10398669431E+01  0.30328302587E+02  0.00000000000E+00 0.  1.
</event>
<event>
 4    1  0.6008802E+002  0.3455860E+02  0.7546771E-02  0.1383693E+00
          2   -1    0    0  502    0  0.00000000000E+00  0.00000000000E+00  0.86275974008E+03  0.86275974008E+03  0.00000000000E+00 0.  1.
         -2   -1    0    0    0  501 -0.00000000000E+00 -0.00000000000E+00 -0.24123293702E+01  0.24123293702E+01  0.00000000000E+00 0. -1.
         21    1    1    2  502  503 -0.26182703840E+02  0.22555775739E+02  0.71257206565E+03  0.71340959185E+03  0.00000000000E+00 0.  1.
         21    1    1    2  503  501  0.26182703840E+02 -0.22555775739E+02  0.14777534505E+03  0.15176247759E+03  0.00000000000E+00 0. -1.
</event>
<event>
 4    1  0.6008802E+002  0.2587874E+02  0.7546771E-02  0.1459208E+00
          2   -1    0    0  503    0  0.00000000000E+00  0.00000000000E+00  0.11928939793E+04  0.11928939793E+04  0.00000000000E+00 0. -1.
         -2   -1    0    0    0  501 -0.00000000000E+00 -0.00000000000E+00 -0.14597765138E+01  0.14597765138E+01  0.00000000000E+00 0.  1.
         21    1    1    2  502  501 -0.25103605255E+02  0.62863690462E+01  0.12724342487E+03  0.12984836775E+03  0.00000000000E+00 0.  1.
         21    1    1    2  503  502  0.25103605255E+02 -0.62863690462E+01  0.10641907779E+04  0.10645053881E+04  0.00000000000E+00 0. -1.
</event>
<event>
 4    1  0.6008802E+002  0.2447716E+02  0.7546771E-02  0.1474738E+00
          2   -1    0    0  503    0  0.00000000000E+00  0.00000000000E+00  0.15666480404E+04  0.15666480404E+04  0.00000000000E+00 0.  1.
         -2   -1    0    0    0  501 -0.00000000000E+00 -0.00000000000E+00 -0.53720676793E+00  0.53720676793E+00  0.00000000000E+00 0. -1.
         21    1    1    2  502  501  0.52951684556E+01 -0.23897546570E+02  0.36245085105E+03  0.36327641124E+03  0.00000000000E+00 0. -1.
         21    1    1    2  503  502 -0.52951684556E+01  0.23897546570E+02  0.12036599826E+04  0.12039088359E+04  0.00000000000E+00 0.  1.
</event>
<event>
 4    1  0.6008802E+002  0.3195589E+02  0.7546771E-02  0.1403328E+00
          2   -1    0    0  503    0  0.00000000000E+00  0.00000000000E+00  0.49990726563E+02  0.49990726563E+02  0.00000000000E+00 0. -1.
         -2   -1    0    0    0  501 -0.00000000000E+00 -0.00000000000E+00 -0.35534378388E+02  0.35534378388E+02  0.00000000000E+00 0.  1.
         21    1    1    2  502  501  0.30266058040E+02  0.10254011728E+02 -0.20654120163E+02  0.38049595340E+02  0.00000000000E+00 0.  1.
         21    1    1    2  503  502 -0.30266058040E+02 -0.10254011728E+02  0.35110468339E+02  0.47475509611E+02  0.00000000000E+00 0. -1.
</event>
<event>
 4    1  0.6008802E+002  0.3127844E+02  0.7546771E-02  0.1408803E+00
          2   -1    0    0  503    0  0.00000000000E+00  0.00000000000E+00  0.22142112344E+03  0.22142112344E+03  0.00000000000E+00 0.  1.
         -2   -1    0    0    0  501 -0.00000000000E+00 -0.00000000000E+00 -0.14892994532E+02  0.14892994532E+02  0.00000000000E+00 0. -1.
         21    1    1    2  502  501 -0.93064135632E+00  0.31264589578E+02  0.41726567851E+01  0.31555533896E+02  0.00000000000E+00 0. -1.
         21    1    1    2  503  502  0.93064135632E+00 -0.31264589578E+02  0.20235547213E+03  0.20475858408E+03  0.00000000000E+00 0.  1.
</event>
<event>
 4    1  0.6008802E+002  0.3613764E+02  0.7546771E-02  0.1372737E+00
          2   -1    0    0  503    0  0.00000000000E+00  0.00000000000E+00  0.26453225956E+02  0.26453225956E+02  0.00000000000E+00 0. -1.
         -2   -1    0    0    0  501 -0.00000000000E+00 -0.00000000000E+00 -0.50178358590E+02  0.50178358590E+02  0.00000000000E+00 0.  1.
         21    1    1    2  502  501  0.24542493595E+02  0.26525371169E+02 -0.16733311777E+02  0.39823774690E+02  0.00000000000E+00 0. -1.
         21    1    1    2  503  502 -0.24542493595E+02 -0.26525371169E+02 -0.69918208575E+01  0.36807809856E+02  0.00000000000E+00 0.  1.
</event>
<event>
 4    1  0.6008802E+002  0.3303455E+02  0.7546771E-02  0.1394934E+00
          2   -1    0    0  503    0  0.00000000000E+00  0.00000000000E+00  0.17498886892E+04  0.17498886892E+04  0.00000000000E+00 0.  1.
         -2   -1    0    0    0  501 -0.00000000000E+00 -0.00000000000E+00 -0.62376518011E+00  0.62376518011E+00  0.00000000000E+00 0. -1.
         21    1    1    2  502  501 -0.32690128684E+02  0.47578271642E+01  0.88756223681E+03  0.88817678738E+03  0.00000000000E+00 0. -1.
         21    1    1    2  503  502  0.32690128684E+02 -0.47578271642E+01  0.86170268724E+03  0.86233566703E+03  0.00000000000E+00 0.  1.
</event>
<event>
 4    1  0.6008802E+002  0.3977151E+02  0.7546771E-02  0.1349830E+00
          2   -1    0    0  503    0  0.00000000000E+00  0.00000000000E+00  0.22431766030E+04  0.22431766030E+04  0.00000000000E+00 0.  1.
         -2   -1    0    0    0  501 -0.00000000000E+00 -0.00000000000E+00 -0.71076902917E+00  0.71076902917E+00  0.00000000000E+00 0. -1.
         21    1    1    2  502  501  0.58982936709E+01 -0.39331708288E+02  0.10214660542E+04  0.10222400271E+04  0.00000000000E+00 0.  1.
         21    1    1    2  503  502 -0.58982936709E+01  0.39331708288E+02  0.12209997797E+04  0.12216473449E+04  0.00000000000E+00 0. -1.
</event>
<event>
 4    1  0.6008802E+002  0.2925646E+02  0.7546771E-02  0.1426170E+00
          2   -1    0    0  503    0  0.00000000000E+00  0.00000000000E+00  0.52425970045E+03  0.52425970045E+03  0.00000000000E+00 0.  1.
         -2   -1    0    0    0  501 -0.00000000000E+00 -0.00000000000E+00 -0.20283570511E+01  0.20283570511E+01  0.00000000000E+00 0. -1.
         21    1    1    2  502  501  0.27472621898E+02  0.10059600352E+02  0.14489057190E+03  0.14781481096E+03  0.00000000000E+00 0. -1.
         21    1    1    2  503  502 -0.27472621898E+02 -0.10059600352E+02  0.37734077149E+03  0.37847324654E+03  0.00000000000E+00 0.  1.
</event>
<event>
 4    1  0.6008802E+002  0.2650195E+02  0.7546771E-02  0.1452676E+00
          2   -1    0    0  503    0  0.00000000000E+00  0.00000000000E+00  0.18292732204E+04  0.18292732204E+04  0.00000000000E+00 0.  1.
         -2   -1    0    0    0  501 -0.00000000000E+00 -0.00000000000E+00 -0.82178254454E+00  0.82178254454E+00  0.00000000000E+00 0. -1.
         21    1    1    2  502  501  0.16362670234E+02 -0.20847457951E+02  0.24631546403E+03  0.24773708100E+03  0.00000000000E+00 0. -1.
         21    1    1    2  503  502 -0.16362670234E+02  0.20847457951E+02  0.15821359739E+04  0.15823579220E+04  0.00000000000E+00 0.  1.
</event>
<event>
 4    1  0.6008802E+002  0.3316848E+02  0.7546771E-02  0.1393918E+00
          2   -1    0    0  502    0  0.00000000000E+00  0.00000000000E+00  0.43144883007E+02  0.43144883007E+02  0.00000000000E+00 0. -1.
         -2   -1    0    0    0  501 -0.00000000000E+00 -0.00000000000E+00 -0.41492122587E+02  0.41492122587E+02  0.00000000000E+00 0.  1.
         21    1    1    2  502  503 -0.30502694932E+02 -0.13028180909E+02  0.27099714703E+02  0.42831558842E+02  0.00000000000E+00 0. -1.
         21    1    1    2  503  501  0.30502694932E+02  0.13028180909E+02 -0.25446954282E+02  0.41805446752E+02  0.00000000000E+00 0.  1.
</event>
<event>
 4    1  0.6008802E+002  0.2192881E+02  0.7546771E-02  0.1506406E+00
          2   -1    0    0  503    0  0.00000000000E+00  0.00000000000E+00  0.52570786513E+03  0.52570786513E+03  0.00000000000E+00 0.  1.
         -2   -1    0    0    0  501 -0.00000000000E+00 -0.00000000000E+00 -0.94263587820E+00  0.94263587820E+00  0.00000000000E+00 0. -1.
         21    1    1    2  502  501 -0.21904079709E+02  0.10411626905E+01  0.30770232901E+03  0.30848273211E+03  0.00000000000E+00 0. -1.
         21    1    1    2  503  502  0.21904079709E+02 -0.10411626905E+01  0.21706290024E+03  0.21816776890E+03  0.00000000000E+00 0.  1.
</event>
<event>
 4    1  0.6008802E+002  0.3854012E+02  0.7546771E-02  0.1357260E+00
          2   -1    0    0  502    0  0.00000000000E+00  0.00000000000E+00  0.74120469091E+02  0.74120469091E+02  0.00000000000E+00 0. -1.
         -2   -1    0    0    0  501 -0.00000000000E+00 -0.00000000000E+00 -0.29420256381E+02  0.29420256381E+02  0.00000000000E+00 0.  1.
         21    1    1    2  502  503  0.30103313620E+02 -0.24065146646E+02  0.51583267147E+02  0.64390793003E+02  0.00000000000E+00 0. -1.
         21    1    1    2  503  501 -0.30103313620E+02  0.24065146646E+02 -0.68830544372E+01  0.39149932469E+02  0.00000000000E+00 0.  1.
</event>
<event>
 4    1  0.6008802E+002  0.2030890E+02  0.7546771E-02  0.1529365E+00
          2   -1    0    0  503    0  0.00000000000E+00  0.00000000000E+00  0.63988054814E+03  0.63988054814E+03  0.00000000000E+00 0.  1.
         -2   -1    0    0    0  501 -0.00000000000E+00 -0.00000000000E+00 -0.13731263096E+01  0.13731263096E+01  0.00000000000E+00 0. -1.
         21    1    1    2  502  501 -0.75154179021E+01  0.18867162123E+02  0.85706570180E+02  0.88079892625E+02  0.00000000000E+00 0. -1.
         21    1    1    2  503  502  0.75154179021E+01 -0.18867162123E+02  0.55280085165E+03  0.55317378182E+03  0.00000000000E+00 0.  1.
</event>
<event>
 4    1  0.6008802E+002  0.3662746E+02  0.7546771E-02  0.1369469E+00
          2   -1    0    0  502    0  0.00000000000E+00  0.00000000000E+00  0.25224246531E+04  0.25224246531E+04  0.00000000000E+00 0.  1.
         -2   -1    0    0    0  501 -0.00000000000E+00 -0.00000000000E+00 -0.55244407517E+00  0.55244407517E+00  0.00000000000E+00 0. -1.
         21    1    1    2  502  503  0.17662026677E+02 -0.32087747121E+02  0.10174185719E+04  0.10180776597E+04  0.00000000000E+00 0. -1.
         21    1    1    2  503  501 -0.17662026677E+02  0.32087747121E+02  0.15044536371E+04  0.15048994375E+04  0.00000000000E+00 0.  1.
</event>
<event>
 4    1  0.6008802E+002  0.2500468E+02  0.7546771E-02  0.1468751E+00
          2   -1    0    0  502    0  0.00000000000E+00  0.00000000000E+00  0.14593273008E+03  0.14593273008E+03  0.00000000000E+00 0. -1.
         -2   -1    0    0    0  501 -0.00000000000E+00 -0.00000000000E+00 -0.33118201187E+02  0.33118201187E+02  0.00000000000E+00 0.  1.
         21    1    1    2  502  503  0.20939650671E+02  0.13666203104E+02  0.13994143680E+03  0.14215779898E+03  0.00000000000E+00 0. -1.
         21    1    1    2  503  501 -0.20939650671E+02 -0.13666203104E+02 -0.27126907905E+02  0.36893132288E+02  0.00000000000E+00 0.  1.
</event>
<event>
 4    1  0.6008802E+002  0.2219672E+02  0.7546771E-02  0.1502839E+00
          2   -1    0    0  502    0  0.00000000000E+00  0.00000000000E+00  0.26883048434E+01  0.26883048434E+01  0.00000000000E+00 0. -1.
         -2   -1    0    0    0  501 -0.00000000000E+00 -0.00000000000E+00 -0.18707153137E+03  0.18707153137E+03  0.00000000000E+00 0.  1.
         21    1    1    2  502  503 -0.11061158364E+02  0.19244354496E+02 -0.78672033431E+02  0.81743398807E+02  0.00000000000E+00 0. -1.
         21    1    1    2  503  501  0.11061158364E+02 -0.19244354496E+02 -0.10571119309E+03  0.10801643741E+03  0.00000000000E+00 0.  1.
</event>
<event>
 4    1  0.6008802E+002  0.3140170E+02  0.7546771E-02  0.1407794E+00
          2   -1    0    0  502    0  0.00000000000E+00  0.00000000000E+00  0.63446767976E+02  0.63446767976E+02  0.00000000000E+00 0. -1.
         -2   -1    0    0    0  501 -0.00000000000E+00 -0.00000000000E+00 -0.19552347944E+02  0.19552347944E+02  0.00000000000E+00 0.  1.
         21    1    1    2  502  503 -0.10991967160E+02  0.29415024955E+02  0.40742730373E+02  0.51439645347E+02  0.00000000000E+00 0. -1.
         21    1    1    2  503  501  0.10991967160E+02 -0.29415024955E+02  0.31516896583E+01  0.31559470573E+02  0.00000000000E+00 0.  1.
</event>
<event>
 4    1  0.6008802E+002  0.2155968E+02  0.7546771E-02  0.1511422E+00
          2   -1    0    0  503    0  0.00000000000E+00  0.00000000000E+00  0.93623739412E+03  0.93623739412E+03  0.00000000000E+00 0.  1.
         -2   -1    0    0    0  501 -0.00000000000E+00 -0.00000000000E+00 -0.87620134240E+00  0.87620134240E+00  0.00000000000E+00 0. -1.
         21    1    1    2  502  501  0.14748385396E+02 -0.15725938351E+02  0.15922354483E+03  0.16067656094E+03  0.00000000000E+00 0. -1.
         21    1    1    2  503  502 -0.14748385396E+02  0.15725938351E+02  0.77613764795E+03  0.77643703452E+03  0.00000000000E+00 0.  1.
</event>
<event>
 4    1  0.6008802E+002  0.2276119E+02  0.7546771E-02  0.1495519E+00
          2   -1    0    0  503    0  0.00000000000E+00  0.00000000000E+00  0.29824716453E+03  0.29824716453E+03  0.00000000000E+00 0.  1.
         -2   -1    0    0    0  501 -0.00000000000E+00 -0.00000000000E+00 -0.18269920542E+01  0.18269920542E+01  0.00000000000E+00 0. -1.
         21    1    1    2  502  501  0.71927728548E+01 -0.21594810204E+02  0.18149894796E+03  0.18292058364E+03  0.00000000000E+00 0.  1.
         21    1    1    2  503  502 -0.71927728548E+01  0.21594810204E+02  0.11492122452E+03  0.11715357295E+03  0.00000000000E+00 0. -1.
</event>
<event>
 4    1  0.6008802E+002  0.2521331E+02  0.7546771E-02  0.1466431E+00
          2   -1    0    0  502    0  0.00000000000E+00  0.00000000000E+00  0.39789216472E+02  0.39789216472E+02  0.00000000000E+00 0. -1.
         -2   -1    0    0    0  501 -0.00000000000E+00 -0.00000000000E+00 -0.17359213692E+02  0.17359213692E+02  0.00000000000E+00 0.  1.
         21    1    1    2  502  503 -0.21950455768E+02 -0.12405174729E+02  0.19278111262E+02  0.31738879034E+02  0.00000000000E+00 0. -1.
         21    1    1    2  503  501  0.21950455768E+02  0.12405174729E+02  0.31518915176E+01  0.25409551130E+02  0.00000000000E+00 0.  1.
</event>
<event>
 4    1  0.6008802E+002  0.3850365E+02  0.7546771E-02  0.1357485E+00
          2   -1    0    0  502    0  0.00000000000E+00  0.00000000000E+00  0.38298886356E+02  0.38298886356E+02  0.00000000000E+00 0.  1.
         -2   -1    0    0    0  501 -0.00000000000E+00 -0.00000000000E+00 -0.12143003370E+03  0.12143003370E+03  0.00000000000E+00 0. -1.
         21    1    1    2  502  503 -0.36499827724E+02  0.12259425900E+02  0.24351383537E+02  0.45557884361E+02  0.00000000000E+00 0.  1.
         21    1    1    2  503  501  0.36499827724E+02 -0.12259425900E+02 -0.10748253088E+03  0.11417103569E+03  0.00000000000E+00 0. -1.
</event>
<event>
 4    1  0.6008802E+002  0.2350285E+02  0.7546771E-02  0.1486279E+00
          2   -1    0    0  503    0  0.00000000000E+00  0.00000000000E+00  0.16795837489E+04  0.16795837489E+04  0.00000000000E+00 0.  1.
         -2   -1    0    0    0  501 -0.00000000000E+00 -0.00000000000E+00 -0.43924181795E+00  0.43924181795E+00  0.00000000000E+00 0. -1.
         21    1    1    2  502  501  0.31217348372E+01  0.23294603835E+02  0.41851599604E+03  0.41917540807E+03  0.00000000000E+00 0. -1.
         21    1    1    2  503  502 -0.31217348372E+01 -0.23294603835E+02  0.12606285111E+04  0.12608475827E+04  0.00000000000E+00 0.  1.
</event>
<event>
 4    1  0.6008802E+002  0.4805504E+02  0.7546771E-02  0.1306833E+00
          2   -1    0    0  502    0  0.00000000000E+00  0.00000000000E+00  0.53264456123E+02  0.53264456123E+02  0.00000000000E+00 0.  1.
         -2   -1    0    0    0  501 -0.00000000000E+00 -0.00000000000E+00 -0.45184532726E+02  0.45184532726E+02  0.00000000000E+00 0. -1.
         21    1    1    2  502  503 -0.27561629820E+02 -0.39365514872E+02  0.13944666081E+02  0.50037395132E+02  0.00000000000E+00 0.  1.
         21    1    1    2  503  501  0.27561629820E+02  0.39365514872E+02 -0.58647426840E+01  0.48411593717E+02  0.00000000000E+00 0. -1.
</event>
<event>
 4    1  0.6008802E+002  0.5225944E+02  0.7546771E-02  0.1288663E+00
          2   -1    0    0  502    0  0.00000000000E+00  0.00000000000E+00  0.49025753233E+02  0.49025753233E+02  0.00000000000E+00 0. -1.
         -2   -1    0    0    0  501 -0.00000000000E+00 -0.00000000000E+00 -0.71627991203E+02  0.71627991203E+02  0.00000000000E+00 0.  1.
         21    1    1    2  502  503  0.10963940908E+02  0.51096393553E+02  0.17141024285E+02  0.54998764967E+02  0.00000000000E+00 0. -1.
         21    1    1    2  503  501 -0.10963940908E+02 -0.51096393553E+02 -0.39743262255E+02  0.65654979469E+02  0.00000000000E+00 0.  1.
</event>
<event>
 4    1  0.6008802E+002  0.2392511E+02  0.7546771E-02  0.1481197E+00
          2   -1    0    0  502    0  0.00000000000E+00  0.00000000000E+00  0.16321547625E+03  0.16321547625E+03  0.00000000000E+00 0.  1.
         -2   -1    0    0    0  501 -0.00000000000E+00 -0.00000000000E+00 -0.63604391724E+01  0.63604391724E+01  0.00000000000E+00 0. -1.
         21    1    1    2  502  503  0.18404809427E+02 -0.15286402487E+02  0.13521703898E+03  0.13731736504E+03  0.00000000000E+00 0. -1.
         21    1    1    2  503  501 -0.18404809427E+02  0.15286402487E+02  0.21637998093E+02  0.32258550378E+02  0.00000000000E+00 0.  1.
</event>
<event>
 4    1  0.6008802E+002  0.2503185E+02  0.7546771E-02  0.1468447E+00
          2   -1    0    0  503    0  0.00000000000E+00  0.00000000000E+00  0.15169276629E+04  0.15169276629E+04  0.00000000000E+00 0.  1.
         -2   -1    0    0    0  501 -0.00000000000E+00 -0.00000000000E+00 -0.91963744442E+00  0.91963744442E+00  0.00000000000E+00 0. -1.
         21    1    1    2  502  501 -0.24085924120E+02  0.68163031593E+01  0.19474336092E+03  0.19634553815E+03  0.00000000000E+00 0. -1.
         21    1    1    2  503  502  0.24085924120E+02 -0.68163031593E+01  0.13212646645E+04  0.13215017622E+04  0.00000000000E+00 0.  1.
</event>
<event>
 4    1  0.6008802E+002  0.3515067E+02  0.7546771E-02  0.1379507E+00
          2   -1    0    0  502    0  0.00000000000E+00  0.00000000000E+00  0.12156477065E+04  0.12156477065E+04  0.00000000000E+00 0. -1.
         -2   -1    0    0    0  501 -0.00000000000E+00 -0.00000000000E+00 -0.12764967269E+01  0.12764967269E+01  0.00000000000E+00 0.  1.
         21    1    1    2  502  503  0.35063491746E+02  0.24741089728E+01  0.88184925793E+03  0.88254953593E+03  0.00000000000E+00 0. -1.
         21    1    1    2  503  501 -0.35063491746E+02 -0.24741089728E+01  0.33252195185E+03  0.33437466729E+03  0.00000000000E+00 0.  1.
</event>
<event>
 4    1  0.6008802E+002  0.2718910E+02  0.7546771E-02  0.1445718E+00
          2   -1    0    0  502    0  0.00000000000E+00  0.00000000000E+00  0.79460409440E+03  0.79460409440E+03  0.00000000000E+00 0.  1.
         -2   -1    0    0    0  501 -0.00000000000E+00 -0.00000000000E+00 -0.99584296303E+00  0.99584296303E+00  0.00000000000E+00 0. -1.
         21    1    1    2  502  503  0.14782382519E+02  0.22819477609E+02  0.49883201515E+03  0.49957244393E+03  0.00000000000E+00 0.  1.
         21    1    1    2  503  501 -0.14782382519E+02 -0.22819477609E+02  0.29477623628E+03  0.29602749343E+03  0.00000000000E+00 0. -1.
</event>
<event>
 4    1  0.6008802E+002  0.2111336E+02  0.7546771E-02  0.1517652E+00
          2   -1    0    0  503    0  0.00000000000E+00  0.00000000000E+00  0.14434048333E+04  0.14434048333E+04  0.00000000000E+00 0. -1.
         -2   -1    0    0    0  501 -0.00000000000E+00 -0.00000000000E+00 -0.37291569339E+00  0.37291569339E+00  0.00000000000E+00 0.  1.
         21    1    1    2  502  501  0.12865687810E+02 -0.16740614004E+02  0.42227001562E+03  0.42279751676E+03  0.00000000000E+00 0.  1.
         21    1    1    2  503  502 -0.12865687810E+02  0.16740614004E+02  0.10207619020E+04  0.10209802323E+04  0.00000000000E+00 0. -1.
</event>
<event>
 4    1  0.6008802E+002  0.2017745E+02  0.7546771E-02  0.1531340E+00
          2   -1    0    0  503    0  0.00000000000E+00  0.00000000000E+00  0.16991291839E+04  0.16991291839E+04  0.00000000000E+00 0. -1.
         -2   -1    0    0    0  501 -0.00000000000E+00 -0.00000000000E+00 -0.26877576492E+00  0.26877576492E+00  0.00000000000E+00 0.  1.
         21    1    1    2  502  501 -0.33146651329E+01  0.19903328594E+02  0.56953098385E+03  0.56988829700E+03  0.00000000000E+00 0.  1.
         21    1    1    2  503  502  0.33146651329E+01 -0.19903328594E+02  0.11293294243E+04  0.11295096627E+04  0.00000000000E+00 0. -1.
</event>
<event>
 4    1  0.6008802E+002  0.2384218E+02  0.7546771E-02  0.1482185E+00
          2   -1    0    0  502    0  0.00000000000E+00  0.00000000000E+00  0.10536954228E+02  0.10536954228E+02  0.00000000000E+00 0. -1.
         -2   -1    0    0    0  501 -0.00000000000E+00 -0.00000000000E+00 -0.54082224502E+02  0.54082224502E+02  0.00000000000E+00 0.  1.
         21    1    1    2  502  503  0.82976526915E+01  0.22351705566E+02 -0.20164265617E+02  0.31225748827E+02  0.00000000000E+00 0. -1.
         21    1    1    2  503  501 -0.82976526915E+01 -0.22351705566E+02 -0.23381004658E+02  0.33393429904E+02  0.00000000000E+00 0.  1.
</event>
<event>
 4    1  0.6008802E+002  0.2461238E+02  0.7546771E-02  0.1473187E+00
          2   -1    0    0  502    0  0.00000000000E+00  0.00000000000E+00  0.44785442171E+03  0.44785442171E+03  0.00000000000E+00 0. -1.
         -2   -1    0    0    0  501 -0.00000000000E+00 -0.00000000000E+00 -0.15290774673E+01  0.15290774673E+01  0.00000000000E+00 0.  1.
         21    1    1    2  502  503  0.21975671879E+02 -0.11083279803E+02  0.29949584071E+03  0.30050545394E+03  0.00000000000E+00 0. -1.
         21    1    1    2  503  501 -0.21975671879E+02  0.11083279803E+02  0.14682950353E+03  0.14887804523E+03  0.00000000000E+00 0.  1.
</event>
<event>
 4    1  0.6008802E+002  0.2050130E+02  0.7546771E-02  0.1526505E+00
          2   -1    0    0  503    0  0.00000000000E+00  0.00000000000E+00  0.67556390759E+01  0.67556390759E+01  0.00000000000E+00 0.  1.
         -2   -1    0    0    0  501 -0.00000000000E+00 -0.00000000000E+00 -0.23637036963E+03  0.23637036963E+03  0.00000000000E+00 0. -1.
         21    1    1    2  502  501 -0.20470621360E+02  0.11211474858E+01 -0.21915271914E+03  0.22010955821E+03  0.00000000000E+00 0. -1.
         21    1    1    2  503  502  0.20470621360E+02 -0.11211474858E+01 -0.10462011419E+02  0.23016450497E+02  0.00000000000E+00 0.  1.
</event>
<event>
 4    1  0.6008802E+002  0.3755049E+02  0.7546771E-02  0.1363470E+00
          2   -1    0    0  502    0  0.00000000000E+00  0.00000000000E+00  0.55564207950E+03  0.55564207950E+03  0.00000000000E+00 0. -1.
         -2   -1    0    0    0  501 -0.00000000000E+00 -0.00000000000E+00 -0.57144304102E+01  0.57144304102E+01  0.00000000000E+00 0.  1.
         21    1    1    2  502  503 -0.30081390115E+02 -0.22475533286E+02  0.48423726166E+03  0.48569101825E+03  0.00000000000E+00 0. -1.
         21    1    1    2  503  501  0.30081390115E+02  0.22475533286E+02  0.65690387433E+02  0.75665491665E+02  0.00000000000E+00 0.  1.
</event>
<event>
 4    1  0.6008802E+002  0.2580959E+02  0.7546771E-02  0.1459947E+00
          2   -1    0    0  503    0  0.00000000000E+00  0.00000000000E+00  0.21152437299E+01  0.21152437299E+01  0.00000000000E+00 0. -1.
         -2   -1    0    0    0  501 -0.00000000000E+00 -0.00000000000E+00 -0.68555944921E+03  0.68555944921E+03  0.00000000000E+00 0.  1.
         21    1    1    2  502  501 -0.20799606722E+02  0.15281070665E+02 -0.59453876658E+03  0.59509871428E+03  0.00000000000E+00 0.  1.
         21    1    1    2  503  502  0.20799606722E+02 -0.15281070665E+02 -0.88905438900E+02  0.92575978669E+02  0.00000000000E+00 0. -1.
</event>
<event>
 4    1  0.6008802E+002  0.2703185E+02  0.7546771E-02  0.1447288E+00
          2   -1    0    0  503    0  0.00000000000E+00  0.00000000000E+00  0.15881862330E+04  0.15881862330E+04  0.00000000000E+00 0.  1.
         -2   -1    0    0    0  501 -0.00000000000E+00 -0.00000000000E+00 -0.55112845480E+00  0.55112845480E+00  0.00000000000E+00 0. -1.
         21    1    1    2  502  501 -0.46827930743E+01  0.26623156148E+02  0.47097592655E+03  0.47175104068E+03  0.00000000000E+00 0. -1.
         21    1    1    2  503  502  0.46827930743E+01 -0.26623156148E+02  0.11166591780E+04  0.11169863208E+04  0.00000000000E+00 0.  1.
</event>
<event>
 4    1  0.6008802E+002  0.3735221E+02  0.7546771E-02  0.1364742E+00
          2   -1    0    0  503    0  0.00000000000E+00  0.00000000000E+00  0.11599119214E+03  0.11599119214E+03  0.00000000000E+00 0. -1.
         -2   -1    0    0    0  501 -0.00000000000E+00 -0.00000000000E+00 -0.24212532222E+02  0.24212532222E+02  0.00000000000E+00 0.  1.
         21    1    1    2  502  501 -0.32945797448E+02 -0.17600067369E+02 -0.38393383751E+01  0.37549014102E+02  0.00000000000E+00 0.  1.
         21    1    1    2  503  502  0.32945797448E+02  0.17600067369E+02  0.95617998295E+02  0.10265471026E+03  0.00000000000E+00 0. -1.
</event>
<event>
 4    1  0.6008802E+002  0.2292021E+02  0.7546771E-02  0.1493503E+00
          2   -1    0    0  502    0  0.00000000000E+00  0.00000000000E+00  0.34465564313E+03  0.34465564313E+03  0.00000000000E+00 0. -1.
         -2   -1    0    0    0  501 -0.00000000000E+00 -0.00000000000E+00 -0.37466352919E+01  0.37466352919E+01  0.00000000000E+00 0.  1.
         21    1    1    2  502  503 -0.14549119031E+02  0.17710424071E+02  0.30462019836E+03  0.30548126167E+03  0.00000000000E+00 0. -1.
         21    1    1    2  503  501  0.14549119031E+02 -0.17710424071E+02  0.36288809484E+02  0.42921016753E+02  0.00000000000E+00 0.  1.
</event>
<event>
 4    1  0.6008802E+002  0.2179348E+02  0.7546771E-02  0.1508231E+00
          2   -1    0    0  502    0  0.00000000000E+00  0.00000000000E+00  0.23589715355E+03  0.23589715355E+03  0.00000000000E+00 0. -1.
         -2   -1    0    0    0  501 -0.00000000000E+00 -0.00000000000E+00 -0.34139800381E+01  0.34139800381E+01  0.00000000000E+00 0.  1.
         21    1    1    2  502  503 -0.84963202582E+01 -0.20069090366E+02  0.19288168377E+03  0.19410898944E+03  0.00000000000E+00 0. -1.
         21    1    1    2  503  501  0.84963202582E+01  0.20069090366E+02  0.39601489734E+02  0.45202144144E+02  0.00000000000E+00 0.  1.
</event>
<event>
 4    1  0.6008802E+002  0.3875941E+02  0.7546771E-02  0.1355913E+00
          2   -1    0    0  502    0  0.00000000000E+00  0.00000000000E+00  0.25822672288E+04  0.25822672288E+04  0.00000000000E+00 0.  1.
         -2   -1    0    0    0  501 -0.00000000000E+00 -0.00000000000E+00 -0.54094653924E+01  0.54094653924E+01  0.00000000000E+00 0. -1.
         21    1    1    2  502  503 -0.33473243729E+02  0.19540575101E+02  0.25107143879E+04  0.25110135463E+04  0.00000000000E+00 0.  1.
         21    1    1    2  503  501  0.33473243729E+02 -0.19540575101E+02  0.66143375536E+02  0.76663147915E+02  0.00000000000E+00 0. -1.
</event>
<event>
 4    1  0.6008802E+002  0.4395620E+02  0.7546771E-02  0.1326742E+00
          2   -1    0    0  503    0  0.00000000000E+00  0.00000000000E+00  0.86727150103E+03  0.86727150103E+03  0.00000000000E+00 0. -1.
         -2   -1    0    0    0  501 -0.00000000000E+00 -0.00000000000E+00 -0.33585337550E+01  0.33585337550E+01  0.00000000000E+00 0.  1.
         21    1    1    2  502  501  0.31013136552E+02  0.31150160528E+02  0.17937577310E+03  0.18468301252E+03  0.00000000000E+00 0. -1.
         21    1    1    2  503  502 -0.31013136552E+02 -0.31150160528E+02  0.68453719418E+03  0.68594702227E+03  0.00000000000E+00 0.  1.
</event>
<event>
 4    1  0.6008802E+002  0.3982511E+02  0.7546771E-02  0.1349514E+00
          2   -1    0    0  503    0  0.00000000000E+00  0.00000000000E+00  0.36002856263E+02  0.36002856263E+02  0.00000000000E+00 0.  1.
         -2   -1    0    0    0  501 -0.00000000000E+00 -0.00000000000E+00 -0.55347134714E+02  0.55347134714E+02  0.00000000000E+00 0. -1.
         21    1    1    2  502  501  0.23831046321E+02  0.31908002697E+02 -0.30304762321E+02  0.50044160740E+02  0.00000000000E+00 0. -1.
         21    1    1    2  503  502 -0.23831046321E+02 -0.31908002697E+02  0.10960483870E+02  0.41305830237E+02  0.00000000000E+00 0.  1.
</event>
<event>
 4    1  0.6008802E+002  0.2106835E+02  0.7546771E-02  0.1518291E+00
          2   -1    0    0  502    0  0.00000000000E+00  0.00000000000E+00  0.69972496255E+03  0.69972496255E+03  0.00000000000E+00 0. -1.
         -2   -1    0    0    0  501 -0.00000000000E+00 -0.00000000000E+00 -0.78190248284E+00  0.78190248284E+00  0.00000000000E+00 0.  1.
         21    1    1    2  502  503  0.22682506520E+01  0.20945896067E+02  0.19732261380E+03  0.19844417210E+03  0.00000000000E+00 0.  1.
         21    1    1    2  503  501 -0.22682506520E+01 -0.20945896067E+02  0.50162044626E+03  0.50206269293E+03  0.00000000000E+00 0. -1.
</event>
<event>
 4    1  0.6008802E+002  0.2111814E+02  0.7546771E-02  0.1517585E+00
          2   -1    0    0  502    0  0.00000000000E+00  0.00000000000E+00  0.71298815009E+03  0.71298815009E+03  0.00000000000E+00 0.  1.
         -2   -1    0    0    0  501 -0.00000000000E+00 -0.00000000000E+00 -0.68328555954E+00  0.68328555954E+00  0.00000000000E+00 0. -1.
         21    1    1    2  502  503  0.20873822778E+02 -0.32029935726E+01  0.45992167592E+03  0.46040625932E+03  0.00000000000E+00 0. -1.
         21    1    1    2  503  501 -0.20873822778E+02  0.32029935726E+01  0.25238318861E+03  0.25326517632E+03  0.00000000000E+00 0.  1.
</event>
<event>
 4    1  0.6008802E+002  0.2161042E+02  0.7546771E-02  0.1510725E+00
          2   -1    0    0  502    0  0.00000000000E+00  0.00000000000E+00  0.18538222463E+01  0.18538222463E+01  0.00000000000E+00 0. -1.
         -2   -1    0    0    0  501 -0.00000000000E+00 -0.00000000000E+00 -0.25215488695E+03  0.25215488695E+03  0.00000000000E+00 0.  1.
         21    1    1    2  502  503 -0.19871152109E+02  0.84939646671E+01 -0.12125304877E+03  0.12316376073E+03  0.00000000000E+00 0. -1.
         21    1    1    2  503  501  0.19871152109E+02 -0.84939646671E+01 -0.12904801593E+03  0.13084494846E+03  0.00000000000E+00 0.  1.
</event>
<event>
 4    1  0.6008802E+002  0.7719319E+02  0.7546771E-02  0.1210518E+00
          2   -1    0    0  502    0  0.00000000000E+00  0.00000000000E+00  0.11524616079E+04  0.11524616079E+04  0.00000000000E+00 0. -1.
         -2   -1    0    0    0  501 -0.00000000000E+00 -0.00000000000E+00 -0.10804564930E+02  0.10804564930E+02  0.00000000000E+00 0.  1.
         21    1    1    2  502  503  0.12731421046E+02 -0.76136057395E+02  0.99083584978E+03  0.99383825118E+03  0.00000000000E+00 0. -1.
         21    1    1    2  503  501 -0.12731421046E+02  0.76136057395E+02  0.15082119322E+03  0.16942792167E+03  0.00000000000E+00 0.  1.
</event>
<event>
 4    1  0.6008802E+002  0.2125255E+02  0.7546771E-02  0.1515689E+00
          2   -1    0    0  503    0  0.00000000000E+00  0.00000000000E+00  0.19744008915E+03  0.19744008915E+03  0.00000000000E+00 0.  1.
         -2   -1    0    0    0  501 -0.00000000000E+00 -0.00000000000E+00 -0.56202244218E+01  0.56202244218E+01  0.00000000000E+00 0. -1.
         21    1    1    2  502  501  0.15521357731E+02  0.14517518479E+02  0.17727509743E+02  0.27675539566E+02  0.00000000000E+00 0. -1.
         21    1    1    2  503  502 -0.15521357731E+02 -0.14517518479E+02  0.17409235499E+03  0.17538477401E+03  0.00000000000E+00 0.  1.
</event>
<event>
 4    1  0.6008802E+002  0.2627671E+02  0.7546771E-02  0.1455012E+00
          2   -1    0    0  503    0  0.00000000000E+00  0.00000000000E+00  0.18926692456E+04  0.18926692456E+04  0.00000000000E+00 0. -1.
         -2   -1    0    0    0  501 -0.00000000000E+00 -0.00000000000E+00 -0.38891069521E+00  0.38891069521E+00  0.00000000000E+00 0.  1.
         21    1    1    2  502  501  0.24725002772E+02  0.88960555866E+01  0.71051616996E+03  0.71100189405E+03  0.00000000000E+00 0. -1.
         21    1    1    2  503  502 -0.24725002772E+02 -0.88960555866E+01  0.11817641649E+04  0.11820562622E+04  0.00000000000E+00 0.  1.
</event>
<event>
 4    1  0.6008802E+002  0.2334556E+02  0.7546771E-02  0.1488204E+00
          2   -1    0    0  503    0  0.00000000000E+00  0.00000000000E+00  0.10741953164E+03  0.10741953164E+03  0.00000000000E+00 0. -1.
         -2   -1    0    0    0  501 -0.00000000000E+00 -0.00000000000E+00 -0.23775875649E+02  0.23775875649E+02  0.00000000000E+00 0.  1.
         21    1    1    2  502  501  0.21984278931E+02 -0.78553617478E+01 -0.16357186548E+02  0.28505662246E+02  0.00000000000E+00 0.  1.
         21    1    1    2  503  502 -0.21984278931E+02  0.78553617478E+01  0.10000084254E+03  0.10268974504E+03  0.00000000000E+00 0. -1.
</event>
<event>
 4    1  0.6008802E+002  0.3396004E+02  0.7546771E-02  0.1388026E+00
          2   -1    0    0  503    0  0.00000000000E+00  0.00000000000E+00  0.50256848291E+03  0.50256848291E+03  0.00000000000E+00 0.  1.
         -2   -1    0    0    0  501 -0.00000000000E+00 -0.00000000000E+00 -0.23531147812E+01  0.23531147812E+01  0.00000000000E+00 0. -1.
         21    1    1    2  502  501  0.27568079514E+02  0.19831416164E+02  0.28985761606E+03  0.29184023311E+03  0.00000000000E+00 0.  1.
         21    1    1    2  503  502 -0.27568079514E+02 -0.19831416164E+02  0.21035775206E+03  0.21308136457E+03  0.00000000000E+00 0. -1.
</event>
<event>
 4    1  0.6008802E+002  0.2731497E+02  0.7546771E-02  0.1444470E+00
          2   -1    0    0  503    0  0.00000000000E+00  0.00000000000E+00  0.18942026347E+04  0.18942026347E+04  0.00000000000E+00 0.  1.
         -2   -1    0    0    0  501 -0.00000000000E+00 -0.00000000000E+00 -0.83635537937E+00  0.83635537937E+00  0.00000000000E+00 0. -1.
         21    1    1    2  502  501  0.17965466086E+02  0.20575465413E+02  0.25750371403E+03  0.25894839348E+03  0.00000000000E+00 0. -1.
         21    1    1    2  503  502 -0.17965466086E+02 -0.20575465413E+02  0.16358625653E+04  0.16360905966E+04  0.00000000000E+00 0.  1.
</event>
<event>
 4    1  0.6008802E+002  0.4179341E+02  0.7546771E-02  0.1338285E+00
          2   -1    0    0  502    0  0.00000000000E+00  0.00000000000E+00  0.11239373048E+04  0.11239373048E+04  0.00000000000E+00 0. -1.
         -2   -1    0    0    0  501 -0.00000000000E+00 -0.00000000000E+00 -0.89884226318E+01  0.89884226318E+01  0.00000000000E+00 0.  1.
         21    1    1    2  502  503 -0.16770133661E+02  0.38281213785E+02  0.10726449359E+04  0.10734588242E+04  0.00000000000E+00 0. -1.
         21    1    1    2  503  501  0.16770133661E+02 -0.38281213785E+02  0.42303946272E+02  0.59466903249E+02  0.00000000000E+00 0.  1.
</event>
<event>
 4    1  0.6008802E+002  0.2679869E+02  0.7546771E-02  0.1449641E+00
          2   -1    0    0  503    0  0.00000000000E+00  0.00000000000E+00  0.19737163031E+04  0.19737163031E+04  0.00000000000E+00 0.  1.
         -2   -1    0    0    0  501 -0.00000000000E+00 -0.00000000000E+00 -0.22158332034E+01  0.22158332034E+01  0.00000000000E+00 0. -1.
         21    1    1    2  502  501 -0.71122380842E+00 -0.26789252373E+02  0.82537514895E+02  0.86779094528E+02  0.00000000000E+00 0. -1.
         21    1    1    2  503  502  0.71122380842E+00  0.26789252373E+02  0.18889629550E+04  0.18891530418E+04  0.00000000000E+00 0.  1.
</event>
<event>
 4    1  0.6008802E+002  0.2846753E+02  0.7546771E-02  0.1433398E+00
          2   -1    0    0  503    0  0.00000000000E+00  0.00000000000E+00  0.17753017062E+03  0.17753017062E+03  0.00000000000E+00 0. -1.
         -2   -1    0    0    0  501 -0.00000000000E+00 -0.00000000000E+00 -0.55233212391E+01  0.55233212391E+01  0.00000000000E+00 0.  1.
         21    1    1    2  502  501 -0.28456009424E+02  0.80974560857E+00  0.47876180016E+02  0.55700348053E+02  0.00000000000E+00 0.  1.
         21    1    1    2  503  502  0.28456009424E+02 -0.80974560857E+00  0.12413066937E+03  0.12735314381E+03  0.00000000000E+00 0. -1.
</event>
<event>
 4    1  0.6008802E+002  0.3241233E+02  0.7546771E-02  0.1399729E+00
          2   -1    0    0  503    0  0.00000000000E+00  0.00000000000E+00  0.14501979580E+04  0.14501979580E+04  0.00000000000E+00 0. -1.
         -2   -1    0    0    0  501 -0.00000000000E+00 -0.00000000000E+00 -0.93924393454E+00  0.93924393454E+00  0.00000000000E+00 0.  1.
         21    1    1    2  502  501  0.25037160481E+02  0.20583969040E+02  0.37763222362E+03  0.37902065314E+03  0.00000000000E+00 0.  1.
         21    1    1    2  503  502 -0.25037160481E+02 -0.20583969040E+02  0.10716264904E+04  0.10721165488E+04  0.00000000000E+00 0. -1.
</event>
<event>
 4    1  0.6008802E+002  0.2037852E+02  0.7546771E-02  0.1528326E+00
          2   -1    0    0  502    0  0.00000000000E+00  0.00000000000E+00  0.73864208458E+01  0.73864208458E+01  0.00000000000E+00 0.  1.
         -2   -1    0    0    0  501 -0.00000000000E+00 -0.00000000000E+00 -0.73040170794E+02  0.73040170794E+02  0.00000000000E+00 0. -1.
         21    1    1    2  502  503  0.19954932408E+02 -0.41333474561E+01 -0.13530744405E+02  0.24461498988E+02  0.00000000000E+00 0.  1.
         21    1    1    2  503  501 -0.19954932408E+02  0.41333474561E+01 -0.52123005544E+02  0.55965092651E+02  0.00000000000E+00 0. -1.
</event>
<event>
 4    1  0.6008802E+002  0.3224756E+02  0.7546771E-02  0.1401020E+00
          2   -1    0    0  503    0  0.00000000000E+00  0.00000000000E+00  0.83865667228E+02  0.83865667228E+02  0.00000000000E+00 0. -1.
         -2   -1    0    0    0  501 -0.00000000000E+00 -0.00000000000E+00 -0.12907701371E+02  0.12907701371E+02  0.00000000000E+00 0.  1.
         21    1    1    2  502  501  0.29345366593E+02  0.13369902102E+02  0.45078640055E+02  0.55425523109E+02  0.00000000000E+00 0. -1.
         21    1    1    2  503  502 -0.29345366593E+02 -0.13369902102E+02  0.25879325803E+02  0.41347845490E+02  0.00000000000E+00 0.  1.
</event>
<event>
 4    1  0.6008802E+002  0.2281575E+02  0.7546771E-02  0.1494825E+00
          2   -1    0    0  502    0  0.00000000000E+00  0.00000000000E+00  0.10899411523E+04  0.10899411523E+04  0.00000000000E+00 0.  1.
         -2   -1    0    0    0  501 -0.00000000000E+00 -0.00000000000E+00 -0.49318639846E+00  0.49318639846E+00  0.00000000000E+00 0. -1.
         21    1    1    2  502  503  0.16844929638E+02  0.15388530459E+02  0.64164171614E+03  0.64204723379E+03  0.00000000000E+00 0.  1.
         21    1    1    2  503  501 -0.16844929638E+02 -0.15388530459E+02  0.44780624979E+03  0.44838710494E+03  0.00000000000E+00 0. -1.
</event>
<event>
 4    1  0.6008802E+002  0.2134730E+02  0.7546771E-02  0.1514364E+00
          2   -1    0    0  503    0  0.00000000000E+00  0.00000000000E+00  0.10475727106E+01  0.10475727106E+01  0.00000000000E+00 0.  1.
         -2   -1    0    0    0  501 -0.00000000000E+00 -0.00000000000E+00 -0.65125647659E+03  0.65125647659E+03  0.00000000000E+00 0. -1.
         21    1    1    2  502  501  0.26430374120E+01 -0.21183048949E+02 -0.51304308960E+03  0.51348701931E+03  0.00000000000E+00 0. -1.
         21    1    1    2  503  502 -0.26430374120E+01  0.21183048949E+02 -0.13716581428E+03  0.13881702999E+03  0.00000000000E+00 0.  1.
</event>
<event>
 4    1  0.6008802E+002  0.2101541E+02  0.7546771E-02  0.1519045E+00
          2   -1    0    0  503    0  0.00000000000E+00  0.00000000000E+00  0.11804891848E+01  0.11804891848E+01  0.00000000000E+00 0. -1.
         -2   -1    0    0    0  501 -0.00000000000E+00 -0.00000000000E+00 -0.70887958911E+03  0.70887958911E+03  0.00000000000E+00 0.  1.
         21    1    1    2  502  501 -0.18803877487E+02  0.93841209040E+01 -0.59782367718E+03  0.59819294256E+03  0.00000000000E+00 0.  1.
         21    1    1    2  503  502  0.18803877487E+02 -0.93841209040E+01 -0.10987542275E+03  0.11186713574E+03  0.00000000000E+00 0. -1.
</event>
<event>
 4    1  0.6008802E+002  0.4423289E+02  0.7546771E-02  0.1325320E+00
          2   -1    0    0  503    0  0.00000000000E+00  0.00000000000E+00  0.11025974790E+03  0.11025974790E+03  0.00000000000E+00 0.  1.
         -2   -1    0    0    0  501 -0.00000000000E+00 -0.00000000000E+00 -0.17754870584E+02  0.17754870584E+02  0.00000000000E+00 0. -1.
         21    1    1    2  502  501 -0.42491996149E+02 -0.12287338883E+02  0.44735789721E+02  0.62911360783E+02  0.00000000000E+00 0. -1.
         21    1    1    2  503  502  0.42491996149E+02  0.12287338883E+02  0.47769087594E+02  0.65103257700E+02  0.00000000000E+00 0.  1.
</event>
<event>
 4    1  0.6008802E+002  0.2304663E+02  0.7546771E-02  0.1491913E+00
          2   -1    0    0  502    0  0.00000000000E+00  0.00000000000E+00  0.27202980518E+01  0.27202980518E+01  0.00000000000E+00 0. -1.
         -2   -1    0    0    0  501 -0.00000000000E+00 -0.00000000000E+00 -0.77258511932E+03  0.77258511932E+03  0.00000000000E+00 0.  1.
         21    1    1    2  502  503  0.81578937331E+01 -0.21554484797E+02 -0.49826245441E+02  0.54898103609E+02  0.00000000000E+00 0. -1.
         21    1    1    2  503  501 -0.81578937331E+01  0.21554484797E+02 -0.72003857583E+03  0.72040731376E+03  0.00000000000E+00 0.  1.
</event>
<event>
 4    1  0.6008802E+002  0.3166716E+02  0.7546771E-02  0.1405642E+00
          2   -1    0    0  503    0  0.00000000000E+00  0.00000000000E+00  0.46417258872E+03  0.46417258872E+03  0.00000000000E+00 0. -1.
         -2   -1    0    0    0  501 -0.00000000000E+00 -0.00000000000E+00 -0.54205174477E+02  0.54205174477E+02  0.00000000000E+00 0.  1.
         21    1    1    2  502  501 -0.29256003360E+02  0.12120032466E+02 -0.48987489868E+02  0.58331664498E+02  0.00000000000E+00 0.  1.
         21    1    1    2  503  502  0.29256003360E+02 -0.12120032466E+02  0.45895490411E+03  0.46004609870E+03  0.00000000000E+00 0. -1.
</event>
<event>
 4    1  0.6008802E+002  0.2024671E+02  0.7546771E-02  0.1530297E+00
          2   -1    0    0  502    0  0.00000000000E+00  0.00000000000E+00  0.60693688626E+03  0.60693688626E+03  0.00000000000E+00 0. -1.
         -2   -1    0    0    0  501 -0.00000000000E+00 -0.00000000000E+00 -0.41094508295E+01  0.41094508295E+01  0.00000000000E+00 0.  1.
         21    1    1    2  502  503  0.89532270347E+01 -0.18159543436E+02  0.58070358883E+03  0.58105644078E+03  0.00000000000E+00 0. -1.
         21    1    1    2  503  501 -0.89532270347E+01  0.18159543436E+02  0.22123846594E+02  0.29989896303E+02  0.00000000000E+00 0.  1.
</event>
<event>
 4    1  0.6008802E+002  0.2263380E+02  0.7546771E-02  0.1497148E+00
          2   -1    0    0  503    0  0.00000000000E+00  0.00000000000E+00  0.20938081288E+02  0.20938081288E+02  0.00000000000E+00 0. -1.
         -2   -1    0    0    0  501 -0.00000000000E+00 -0.00000000000E+00 -0.35533432028E+02  0.35533432028E+02  0.00000000000E+00 0.  1.
         21    1    1    2  502  501  0.19913145548E+02  0.10758975537E+02 -0.23055185013E+02  0.32308365422E+02  0.00000000000E+00 0.  1.
         21    1    1    2  503  502 -0.19913145548E+02 -0.10758975537E+02  0.84598342731E+01  0.24163147894E+02  0.00000000000E+00 0. -1.
</event>
<event>
 4    1  0.6008802E+002  0.3068034E+02  0.7546771E-02  0.1413775E+00
          2   -1    0    0  502    0  0.00000000000E+00  0.00000000000E+00  0.41531981025E+03  0.41531981025E+03  0.00000000000E+00 0. -1.
         -2   -1    0    0    0  501 -0.00000000000E+00 -0.00000000000E+00 -0.36717835650E+01  0.36717835650E+01  0.00000000000E+00 0.  1.
         21    1    1    2  502  503 -0.75123241601E+01 -0.29746394219E+02  0.33543249025E+03  0.33683265652E+03  0.00000000000E+00 0. -1.
         21    1    1    2  503  501  0.75123241601E+01  0.29746394219E+02  0.76215536437E+02  0.82158937296E+02  0.00000000000E+00 0.  1.
</event>
<event>
 4    1  0.6008802E+002  0.2028122E+02  0.7546771E-02  0.1529779E+00
          2   -1    0    0  503    0  0.00000000000E+00  0.00000000000E+00  0.10444039648E+03  0.10444039648E+03  0.00000000000E+00 0.  1.
         -2   -1    0    0    0  501 -0.00000000000E+00 -0.00000000000E+00 -0.43876330773E+01  0.43876330773E+01  0.00000000000E+00 0. -1.
         21    1    1    2  502  501  0.13089874953E+01 -0.20238937089E+02  0.32615063876E+02  0.38406645445E+02  0.00000000000E+00 0.  1.
         21    1    1    2  503  502 -0.13089874953E+01  0.20238937089E+02  0.67437699522E+02  0.70421384107E+02  0.00000000000E+00 0. -1.
</event>
<event>
 4    1  0.6008802E+002  0.2070105E+02  0.7546771E-02  0.1523576E+00
          2   -1    0    0  502    0  0.00000000000E+00  0.00000000000E+00  0.46797670310E+03  0.46797670310E+03  0.00000000000E+00 0.  1.
         -2   -1    0    0    0  501 -0.00000000000E+00 -0.00000000000E+00 -0.16551109321E+01  0.16551109321E+01  0.00000000000E+00 0. -1.
         21    1    1    2  502  503  0.12342568782E+02  0.16619098143E+02  0.39010757265E+03  0.39065643686E+03  0.00000000000E+00 0.  1.
         21    1    1    2  503  501 -0.12342568782E+02 -0.16619098143E+02  0.76214019522E+02  0.78975377168E+02  0.00000000000E+00 0. -1.
</event>
<event>
 4    1  0.6008802E+002  0.2291765E+02  0.7546771E-02  0.1493535E+00
          2   -1    0    0  502    0  0.00000000000E+00  0.00000000000E+00  0.22936840457E+01  0.22936840457E+01  0.00000000000E+00 0.  1.
         -2   -1    0    0    0  501 -0.00000000000E+00 -0.00000000000E+00 -0.70387500607E+03  0.70387500607E+03  0.00000000000E+00 0. -1.
         21    1    1    2  502  503 -0.16105726535E+01  0.22860982692E+02 -0.60771054932E+02  0.64948745881E+02  0.00000000000E+00 0.  1.
         21    1    1    2  503  501  0.16105726535E+01 -0.22860982692E+02 -0.64081026709E+03  0.64121994423E+03  0.00000000000E+00 0. -1.
</event>
<event>
 4    1  0.6008802E+002  0.4988019E+02  0.7546771E-02  0.1298693E+00
          2   -1    0    0  503    0  0.00000000000E+00  0.00000000000E+00  0.19377587044E+02  0.19377587044E+02  0.00000000000E+00 0. -1.
         -2   -1    0    0    0  501 -0.00000000000E+00 -0.00000000000E+00 -0.14492189688E+03  0.14492189688E+03  0.00000000000E+00 0.  1.
         21    1    1    2  502  501  0.41530406183E+02 -0.27627133944E+02 -0.35032414649E+02  0.60953287391E+02  0.00000000000E+00 0. -1.
         21    1    1    2  503  502 -0.41530406183E+02  0.27627133944E+02 -0.90511895190E+02  0.10334619654E+03  0.00000000000E+00 0.  1.
</event>
<event>
 4    1  0.6008802E+002  0.2178103E+02  0.7546771E-02  0.1508399E+00
          2   -1    0    0  502    0  0.00000000000E+00  0.00000000000E+00  0.88889804158E+03  0.88889804158E+03  0.00000000000E+00 0.  1.
         -2   -1    0    0    0  501 -0.00000000000E+00 -0.00000000000E+00 -0.16298962922E+01  0.16298962922E+01  0.00000000000E+00 0. -1.
         21    1    1    2  502  503 -0.16799079005E+02 -0.13863779667E+02  0.80879123595E+03  0.80908446827E+03  0.00000000000E+00 0.  1.
         21    1    1    2  503  501  0.16799079005E+02  0.13863779667E+02  0.78476909339E+02  0.81443469606E+02  0.00000000000E+00 0. -1.
</event>
<event>
 4    1  0.6008802E+002  0.4335800E+02  0.7546771E-02  0.1329857E+00
          2   -1    0    0  503    0  0.00000000000E+00  0.00000000000E+00  0.70303356459E+01  0.70303356459E+01  0.00000000000E+00 0.  1.
         -2   -1    0    0    0  501 -0.00000000000E+00 -0.00000000000E+00 -0.65010392124E+03  0.65010392124E+03  0.00000000000E+00 0. -1.
         21    1    1    2  502  501  0.82378626221E+01 -0.42568223354E+02 -0.57363155998E+03  0.57526783555E+03  0.00000000000E+00 0. -1.
         21    1    1    2  503  502 -0.82378626221E+01  0.42568223354E+02 -0.69442025619E+02  0.81866421334E+02  0.00000000000E+00 0.  1.
</event>
<event>
 4    1  0.6008802E+002  0.2327188E+02  0.7546771E-02  0.1489112E+00
          2   -1    0    0  502    0  0.00000000000E+00  0.00000000000E+00  0.67012851944E+02  0.67012851944E+02  0.00000000000E+00 0.  1.
         -2   -1    0    0    0  501 -0.00000000000E+00 -0.00000000000E+00 -0.33768850172E+02  0.33768850172E+02  0.00000000000E+00 0. -1.
         21    1    1    2  502  503 -0.18919458176E+02  0.13551176005E+02  0.60571224077E+02  0.64888007019E+02  0.00000000000E+00 0.  1.
         21    1    1    2  503  501  0.18919458176E+02 -0.13551176005E+02 -0.27327222305E+02  0.35893695097E+02  0.00000000000E+00 0. -1.
</event>
<event>
 4    1  0.6008802E+002  0.3693562E+02  0.7546771E-02  0.1367443E+00
          2   -1    0    0  503    0  0.00000000000E+00  0.00000000000E+00  0.67792696812E+02  0.67792696812E+02  0.00000000000E+00 0.  1.
         -2   -1    0    0    0  501 -0.00000000000E+00 -0.00000000000E+00 -0.20243248499E+02  0.20243248499E+02  0.00000000000E+00 0. -1.
         21    1    1    2  502  501 -0.22566864928E+02  0.29239980786E+02  0.27157417552E+02  0.45845012784E+02  0.00000000000E+00 0.  1.
         21    1    1    2  503  502  0.22566864928E+02 -0.29239980786E+02  0.20392030760E+02  0.42190932528E+02  0.00000000000E+00 0. -1.
</event>
<event>
 4    1  0.6008802E+002  0.2243216E+02  0.7546771E-02  0.1499754E+00
          2   -1    0    0  503    0  0.00000000000E+00  0.00000000000E+00  0.79437545632E+03  0.79437545632E+03  0.00000000000E+00 0.  1.
         -2   -1    0    0    0  501 -0.00000000000E+00 -0.00000000000E+00 -0.66851170749E+00  0.66851170749E+00  0.00000000000E+00 0. -1.
         21    1    1    2  502  501 -0.13920109635E+02  0.17590684997E+02  0.30582275900E+03  0.30664435682E+03  0.00000000000E+00 0. -1.
         21    1    1    2  503  502  0.13920109635E+02 -0.17590684997E+02  0.48788418562E+03  0.48839961121E+03  0.00000000000E+00 0.  1.
</event>
<event>
 4    1  0.6008802E+002  0.2647931E+02  0.7546771E-02  0.1452910E+00
          2   -1    0    0  502    0  0.00000000000E+00  0.00000000000E+00  0.68840347650E+03  0.68840347650E+03  0.00000000000E+00 0. -1.
         -2   -1    0    0    0  501 -0.00000000000E+00 -0.00000000000E+00 -0.14928026157E+01  0.14928026157E+01  0.00000000000E+00 0.  1.
         21    1    1    2  502  503  0.26156258307E+02  0.41236124658E+01  0.53788849889E+03  0.53853986970E+03  0.00000000000E+00 0. -1.
         21    1    1    2  503  501 -0.26156258307E+02 -0.41236124658E+01  0.14902217500E+03  0.15135640941E+03  0.00000000000E+00 0.  1.
</event>
<event>
 4    1  0.6008802E+002  0.2386792E+02  0.7546771E-02  0.1481878E+00
          2   -1    0    0  502    0  0.00000000000E+00  0.00000000000E+00  0.22298961951E+01  0.22298961951E+01  0.00000000000E+00 0.  1.
         -2   -1    0    0    0  501 -0.00000000000E+00 -0.00000000000E+00 -0.38217478682E+03  0.38217478682E+03  0.00000000000E+00 0. -1.
         21    1    1    2  502  503 -0.21423717484E+02  0.10521487937E+02 -0.79305043719E+02  0.82818882741E+02  0.00000000000E+00 0.  1.
         21    1    1    2  503  501  0.21423717484E+02 -0.10521487937E+02 -0.30063984691E+03  0.30158580028E+03  0.00000000000E+00 0. -1.
</event>
<event>
 4    1  0.6008802E+002  0.3043508E+02  0.7546771E-02  0.1415853E+00
          2   -1    0    0  502    0  0.00000000000E+00  0.00000000000E+00  0.12165491410E+03  0.12165491410E+03  0.00000000000E+00 0.  1.
         -2   -1    0    0    0  501 -0.00000000000E+00 -0.00000000000E+00 -0.21784822380E+02  0.21784822380E+02  0.00000000000E+00 0. -1.
         21    1    1    2  502  503  0.18002402193E+02 -0.24539923029E+02  0.10777903841E+03  0.11199381870E+03  0.00000000000E+00 0.  1.
         21    1    1    2  503  501 -0.18002402193E+02  0.24539923029E+02 -0.79089466912E+01  0.31445917776E+02  0.00000000000E+00 0. -1.
</event>
<event>
 4    1  0.6008802E+002  0.2736913E+02  0.7546771E-02  0.1443935E+00
          2   -1    0    0  503    0  0.00000000000E+00  0.00000000000E+00  0.14872765647E+03  0.14872765647E+03  0.00000000000E+00 0. -1.
         -2   -1    0    0    0  501 -0.00000000000E+00 -0.00000000000E+00 -0.54521596098E+01  0.54521596098E+01  0.00000000000E+00 0.  1.
         21    1    1    2  502  501 -0.93239779502E+01 -0.25731940711E+02  0.50352761245E+02  0.57310294909E+02  0.00000000000E+00 0. -1.
         21    1    1    2  503  502  0.93239779502E+01  0.25731940711E+02  0.92922735611E+02  0.96869521167E+02  0.00000000000E+00 0.  1.
</event>
<event>
 4    1  0.6008802E+002  0.2576001E+02  0.7546771E-02  0.1460478E+00
          2   -1    0    0  502    0  0.00000000000E+00  0.00000000000E+00  0.32163636384E+03  0.32163636384E+03  0.00000000000E+00 0. -1.
         -2   -1    0    0    0  501 -0.00000000000E+00 -0.00000000000E+00 -0.55136800906E+01  0.55136800906E+01  0.00000000000E+00 0.  1.
         21    1    1    2  502  503 -0.19645489580E+02  0.16662319733E+02  0.28746312770E+03  0.28861501685E+03  0.00000000000E+00 0. -1.
         21    1    1    2  503  501  0.19645489580E+02 -0.16662319733E+02  0.28659556047E+02  0.38535027086E+02  0.00000000000E+00 0.  1.
</event>
<event>
 4    1  0.6008802E+002  0.2027950E+02  0.7546771E-02  0.1529805E+00
          2   -1    0    0  502    0  0.00000000000E+00  0.00000000000E+00  0.58985379371E+01  0.58985379371E+01  0.00000000000E+00 0. -1.
         -2   -1    0    0    0  501 -0.00000000000E+00 -0.00000000000E+00 -0.29199728299E+03  0.29199728299E+03  0.00000000000E+00 0.  1.
         21    1    1    2  502  503 -0.19881098297E+02 -0.40000059331E+01 -0.13095102664E+02  0.24140004780E+02  0.00000000000E+00 0. -1.
         21    1    1    2  503  501  0.19881098297E+02  0.40000059331E+01 -0.27300364239E+03  0.27375581614E+03  0.00000000000E+00 0.  1.
</event>
<event>
 4    1  0.6008802E+002  0.2407277E+02  0.7546771E-02  0.1479449E+00
          2   -1    0    0  503    0  0.00000000000E+00  0.00000000000E+00  0.24961179441E+01  0.24961179441E+01  0.00000000000E+00 0.  1.
         -2   -1    0    0    0  501 -0.00000000000E+00 -0.00000000000E+00 -0.35163460885E+03  0.35163460885E+03  0.00000000000E+00 0. -1.
         21    1    1    2  502  501  0.22829299585E+02  0.76368560935E+01 -0.27778020135E+03  0.27882133841E+03  0.00000000000E+00 0. -1.
         21    1    1    2  503  502 -0.22829299585E+02 -0.76368560935E+01 -0.71358289563E+02  0.75309388391E+02  0.00000000000E+00 0.  1.
</event>
<event>
 4    1  0.6008802E+002  0.2097598E+02  0.7546771E-02  0.1519608E+00
          2   -1    0    0  503    0  0.00000000000E+00  0.00000000000E+00  0.58245390273E+03  0.58245390273E+03  0.00000000000E+00 0.  1.
         -2   -1    0    0    0  501 -0.00000000000E+00 -0.00000000000E+00 -0.20920920990E+01  0.20920920990E+01  0.00000000000E+00 0. -1.
         21    1    1    2  502  501  0.13667064681E+02  0.15912360253E+02  0.56559700916E+02  0.60324055182E+02  0.00000000000E+00 0. -1.
         21    1    1    2  503  502 -0.13667064681E+02 -0.15912360253E+02  0.52380210972E+03  0.52422193965E+03  0.00000000000E+00 0.  1.
</event>
<event>
 4    1  0.6008802E+002  0.3823079E+02  0.7546771E-02  0.1359177E+00
          2   -1    0    0  502    0  0.00000000000E+00  0.00000000000E+00  0.81506577374E+03  0.81506577374E+03  0.00000000000E+00 0. -1.
         -2   -1    0    0    0  501 -0.00000000000E+00 -0.00000000000E+00 -0.61094031532E+01  0.61094031532E+01  0.00000000000E+00 0.  1.
         21    1    1    2  502  503 -0.58137516101E+01  0.37786158734E+02  0.74958718109E+03  0.75056148020E+03  0.00000000000E+00 0. -1.
         21    1    1    2  503  501  0.58137516101E+01 -0.37786158734E+02  0.59369189493E+02  0.70613696693E+02  0.00000000000E+00 0.  1.
</event>
<event>
 4    1  0.6008802E+002  0.3717046E+02  0.7546771E-02  0.1365915E+00
          2   -1    0    0  503    0  0.00000000000E+00  0.00000000000E+00  0.50821965553E+02  0.50821965553E+02  0.00000000000E+00 0.  1.
         -2   -1    0    0    0  501 -0.00000000000E+00 -0.00000000000E+00 -0.13772150198E+03  0.13772150198E+03  0.00000000000E+00 0. -1.
         21    1    1    2  502  501  0.28806990954E+02  0.23490434667E+02 -0.12790598390E+03  0.13319753739E+03  0.00000000000E+00 0. -1.
         21    1    1    2  503  502 -0.28806990954E+02 -0.23490434667E+02  0.41006447477E+02  0.55345930143E+02  0.00000000000E+00 0.  1.
</event>
<event>
 4    1  0.6008802E+002  0.3952624E+02  0.7546771E-02  0.1351285E+00
          2   -1    0    0  502    0  0.00000000000E+00  0.00000000000E+00  0.35656243535E+03  0.35656243535E+03  0.00000000000E+00 0. -1.
         -2   -1    0    0    0  501 -0.00000000000E+00 -0.00000000000E+00 -0.47200132995E+02  0.47200132995E+02  0.00000000000E+00 0.  1.
         21    1    1    2  502  503  0.25128373167E+02 -0.30510460095E+02  0.34696384882E+03  0.34920801208E+03  0.00000000000E+00 0. -1.
         21    1    1    2  503  501 -0.25128373167E+02  0.30510460095E+02 -0.37601546462E+02  0.54554556268E+02  0.00000000000E+00 0.  1.
</event>
<event>
 4    1  0.6008802E+002  0.7121441E+02  0.7546771E-02  0.1225858E+00
          2   -1    0    0  503    0  0.00000000000E+00  0.00000000000E+00  0.30873777931E+03  0.30873777931E+03  0.00000000000E+00 0.  1.
         -2   -1    0    0    0  501 -0.00000000000E+00 -0.00000000000E+00 -0.17772797790E+02  0.17772797790E+02  0.00000000000E+00 0. -1.
         21    1    1    2  502  501 -0.46745717487E+02 -0.53724577268E+02  0.10055066276E+03  0.12321496698E+03  0.00000000000E+00 0.  1.
         21    1    1    2  503  502  0.46745717487E+02  0.53724577268E+02  0.19041431875E+03  0.20329561012E+03  0.00000000000E+00 0. -1.
</event>
<event>
 4    1  0.6008802E+002  0.2790277E+02  0.7546771E-02  0.1438744E+00
          2   -1    0    0  503    0  0.00000000000E+00  0.00000000000E+00  0.84729708328E+03  0.84729708328E+03  0.00000000000E+00 0.  1.
         -2   -1    0    0    0  501 -0.00000000000E+00 -0.00000000000E+00 -0.96190075152E+00  0.96190075152E+00  0.00000000000E+00 0. -1.
         21    1    1    2  502  501 -0.21703016133E+02 -0.17536920359E+02  0.33347191754E+03  0.33463724281E+03  0.00000000000E+00 0.  1.
         21    1    1    2  503  502  0.21703016133E+02  0.17536920359E+02  0.51286326499E+03  0.51362174122E+03  0.00000000000E+00 0. -1.
</event>
<event>
 4    1  0.6008802E+002  0.2585756E+02  0.7546771E-02  0.1459434E+00
          2   -1    0    0  502    0  0.00000000000E+00  0.00000000000E+00  0.17491035036E+04  0.17491035036E+04  0.00000000000E+00 0.  1.
         -2   -1    0    0    0  501 -0.00000000000E+00 -0.00000000000E+00 -0.73769553902E+00  0.73769553902E+00  0.00000000000E+00 0. -1.
         21    1    1    2  502  503 -0.13537275662E+02  0.22030783846E+02  0.14814925112E+04  0.14817181493E+04  0.00000000000E+00 0.  1.
         21    1    1    2  503  501  0.13537275662E+02 -0.22030783846E+02  0.26687329685E+03  0.26812304981E+03  0.00000000000E+00 0. -1.
</event>
<event>
 4    1 -0.6008802E+002  0.7273458E+02  0.7546771E-02  0.1221800E+00
          2   -1    0    0  503    0  0.00000000000E+00  0.00000000000E+00  0.18962628542E+01  0.18962628542E+01  0.00000000000E+00 0.  1.
         -2   -1    0    0    0  501 -0.00000000000E+00 -0.00000000000E+00 -0.40975697374E+04  0.40975697374E+04  0.00000000000E+00 0. -1.
         21    1    1    2  502  501  0.71978615195E+02  0.10459360164E+02 -0.32057840499E+04  0.32066090647E+04  0.00000000000E+00 0. -1.
         21    1    1    2  503  502 -0.71978615195E+02 -0.10459360164E+02 -0.88988942466E+03  0.89285693556E+03  0.00000000000E+00 0.  1.
</event>
<event>
 4    1  0.6008802E+002  0.5636443E+02  0.7546771E-02  0.1272712E+00
          2   -1    0    0  503    0  0.00000000000E+00  0.00000000000E+00  0.11110875626E+03  0.11110875626E+03  0.00000000000E+00 0. -1.
         -2   -1    0    0    0  501 -0.00000000000E+00 -0.00000000000E+00 -0.65567440412E+02  0.65567440412E+02  0.00000000000E+00 0.  1.
         21    1    1    2  502  501  0.55642076099E+02 -0.89949253560E+01 -0.43566040949E+02  0.71238677969E+02  0.00000000000E+00 0.  1.
         21    1    1    2  503  502 -0.55642076099E+02  0.89949253560E+01  0.89107356801E+02  0.10543751871E+03  0.00000000000E+00 0. -1.
</event>
<event>
 4    1  0.6008802E+002  0.4134616E+02  0.7546771E-02  0.1340773E+00
          2   -1    0    0  502    0  0.00000000000E+00  0.00000000000E+00  0.19224497944E+04  0.19224497944E+04  0.00000000000E+00 0.  1.
         -2   -1    0    0    0  501 -0.00000000000E+00 -0.00000000000E+00 -0.99760876037E+00  0.99760876037E+00  0.00000000000E+00 0. -1.
         21    1    1    2  502  503 -0.40954945767E+02  0.56742624662E+01  0.12777100423E+04  0.12783788394E+04  0.00000000000E+00 0.  1.
         21    1    1    2  503  501  0.40954945767E+02 -0.56742624662E+01  0.64374214334E+03  0.64506856375E+03  0.00000000000E+00 0. -1.
</event>
<event>
 4    1  0.6008802E+002  0.2451132E+02  0.7546771E-02  0.1474345E+00
          2   -1    0    0  503    0  0.00000000000E+00  0.00000000000E+00  0.59888022251E+03  0.59888022251E+03  0.00000000000E+00 0. -1.
         -2   -1    0    0    0  501 -0.00000000000E+00 -0.00000000000E+00 -0.10368396737E+01  0.10368396737E+01  0.00000000000E+00 0.  1.
         21    1    1    2  502  501 -0.20252663307E+02 -0.13807050614E+02  0.24490338363E+03  0.24612694353E+03  0.00000000000E+00 0. -1.
         21    1    1    2  503  502  0.20252663307E+02  0.13807050614E+02  0.35293999920E+03  0.35379011865E+03  0.00000000000E+00 0.  1.
</event>
<event>
 4    1  0.6008802E+002  0.2759443E+02  0.7546771E-02  0.1441727E+00
          2   -1    0    0  503    0  0.00000000000E+00  0.00000000000E+00  0.55670782959E+02  0.55670782959E+02  0.00000000000E+00 0.  1.
         -2   -1    0    0    0  501 -0.00000000000E+00 -0.00000000000E+00 -0.19852830868E+02  0.19852830868E+02  0.00000000000E+00 0. -1.
         21    1    1    2  502  501 -0.20754941818E+02  0.18184744852E+02 -0.31511962966E+01  0.27773775280E+02  0.00000000000E+00 0. -1.
         21    1    1    2  503  502  0.20754941818E+02 -0.18184744852E+02  0.38969148388E+02  0.47749838547E+02  0.00000000000E+00 0.  1.
</event>
<event>
 4    1  0.6008802E+002  0.2001526E+02  0.7546771E-02  0.1533802E+00
          2   -1    0    0  502    0  0.00000000000E+00  0.00000000000E+00  0.18770394208E+02  0.18770394208E+02  0.00000000000E+00 0. -1.
         -2   -1    0    0    0  501 -0.00000000000E+00 -0.00000000000E+00 -0.98353571251E+02  0.98353571251E+02  0.00000000000E+00 0.  1.
         21    1    1    2  502  503 -0.17182308589E+02  0.10265430933E+02  0.12028331382E+02  0.23351478680E+02  0.00000000000E+00 0. -1.
         21    1    1    2  503  501  0.17182308589E+02 -0.10265430933E+02 -0.91611508426E+02  0.93772486779E+02  0.00000000000E+00 0.  1.
</event>
<event>
 4    1  0.6008802E+002  0.2239322E+02  0.7546771E-02  0.1500261E+00
          2   -1    0    0  503    0  0.00000000000E+00  0.00000000000E+00  0.10133306622E+01  0.10133306622E+01  0.00000000000E+00 0. -1.
         -2   -1    0    0    0  501 -0.00000000000E+00 -0.00000000000E+00 -0.49883879776E+03  0.49883879776E+03  0.00000000000E+00 0.  1.
         21    1    1    2  502  501 -0.17009271130E+02 -0.14565067828E+02 -0.22659120841E+03  0.22769504218E+03  0.00000000000E+00 0. -1.
         21    1    1    2  503  502  0.17009271130E+02  0.14565067828E+02 -0.27123425869E+03  0.27215708624E+03  0.00000000000E+00 0.  1.
</event>
<event>
 4    1  0.6008802E+002  0.4378396E+02  0.7546771E-02  0.1327633E+00
          2   -1    0    0  502    0  0.00000000000E+00  0.00000000000E+00  0.31487470915E+04  0.31487470915E+04  0.00000000000E+00 0. -1.
         -2   -1    0    0    0  501 -0.00000000000E+00 -0.00000000000E+00 -0.68297383213E+00  0.68297383213E+00  0.00000000000E+00 0.  1.
         21    1    1    2  502  503 -0.32749729609E+02  0.29060119249E+02  0.20928950354E+04  0.20933529718E+04  0.00000000000E+00 0.  1.
         21    1    1    2  503  501  0.32749729609E+02 -0.29060119249E+02  0.10551690823E+04  0.10560770935E+04  0.00000000000E+00 0. -1.
</event>
<event>
 4    1  0.6008802E+002  0.4548929E+02  0.7546771E-02  0.1319011E+00
          2   -1    0    0  502    0  0.00000000000E+00  0.00000000000E+00  0.26092924517E+04  0.26092924517E+04  0.00000000000E+00 0.  1.
         -2   -1    0    0    0  501 -0.00000000000E+00 -0.00000000000E+00 -0.57319642955E+02  0.57319642955E+02  0.00000000000E+00 0. -1.
         21    1    1    2  502  503  0.42563620396E+02 -0.16050340357E+02  0.26000369091E+04  0.26004348105E+04  0.00000000000E+00 0.  1.
         21    1    1    2  503  501 -0.42563620396E+02  0.16050340357E+02 -0.48064100278E+02  0.66177284187E+02  0.00000000000E+00 0. -1.
</event>
<event>
 4    1  0.6008802E+002  0.2106045E+02  0.7546771E-02  0.1518403E+00
          2   -1    0    0  503    0  0.00000000000E+00  0.00000000000E+00  0.94881360128E+02  0.94881360128E+02  0.00000000000E+00 0.  1.
         -2   -1    0    0    0  501 -0.00000000000E+00 -0.00000000000E+00 -0.96223966131E+01  0.96223966131E+01  0.00000000000E+00 0. -1.
         21    1    1    2  502  501  0.13911955191E+02  0.15811383936E+02  0.51613881954E+01  0.21683687125E+02  0.00000000000E+00 0. -1.
         21    1    1    2  503  502 -0.13911955191E+02 -0.15811383936E+02  0.80097575320E+02  0.82820069617E+02  0.00000000000E+00 0.  1.
</event>
<event>
 4    1  0.6008802E+002  0.2110560E+02  0.7546771E-02  0.1517762E+00
          2   -1    0    0  502    0  0.00000000000E+00  0.00000000000E+00  0.42763147901E+03  0.42763147901E+03  0.00000000000E+00 0.  1.
         -2   -1    0    0    0  501 -0.00000000000E+00 -0.00000000000E+00 -0.21920137436E+01  0.21920137436E+01  0.00000000000E+00 0. -1.
         21    1    1    2  502  503  0.11789820270E+02 -0.17505608975E+02  0.36840746677E+03  0.36901152798E+03  0.00000000000E+00 0.  1.
         21    1    1    2  503  501 -0.11789820270E+02  0.17505608975E+02  0.57031998501E+02  0.60811964782E+02  0.00000000000E+00 0. -1.
</event>
<event>
 4    1  0.6008802E+002  0.2034463E+02  0.7546771E-02  0.1528831E+00
          2   -1    0    0  502    0  0.00000000000E+00  0.00000000000E+00  0.23626086520E+02  0.23626086520E+02  0.00000000000E+00 0.  1.
         -2   -1    0    0    0  501 -0.00000000000E+00 -0.00000000000E+00 -0.25315477438E+02  0.25315477438E+02  0.00000000000E+00 0. -1.
         21    1    1    2  502  503  0.26460158547E+01 -0.20171821653E+02  0.12735496558E+02  0.24002013692E+02  0.00000000000E+00 0.  1.
         21    1    1    2  503  501 -0.26460158547E+01  0.20171821653E+02 -0.14424887476E+02  0.24939550265E+02  0.00000000000E+00 0. -1.
</event>
<event>
 4    1  0.6008802E+002  0.3468115E+02  0.7546771E-02  0.1382819E+00
          2   -1    0    0  503    0  0.00000000000E+00  0.00000000000E+00  0.25676630023E+02  0.25676630023E+02  0.00000000000E+00 0. -1.
         -2   -1    0    0    0  501 -0.00000000000E+00 -0.00000000000E+00 -0.51895407342E+02  0.51895407342E+02  0.00000000000E+00 0.  1.
         21    1    1    2  502  501  0.29054768221E+02 -0.18936800150E+02 -0.25210925880E+02  0.42876249137E+02  0.00000000000E+00 0. -1.
         21    1    1    2  503  502 -0.29054768221E+02  0.18936800150E+02 -0.10078514385E+01  0.34695788229E+02  0.00000000000E+00 0.  1.
</event>
<event>
 4    1  0.6008802E+002  0.4726645E+02  0.7546771E-02  0.1310480E+00
          2   -1    0    0  503    0  0.00000000000E+00  0.00000000000E+00  0.10381292445E+04  0.10381292445E+04  0.00000000000E+00 0.  1.
         -2   -1    0    0    0  501 -0.00000000000E+00 -0.00000000000E+00 -0.22286013523E+01  0.22286013523E+01  0.00000000000E+00 0. -1.
         21    1    1    2  502  501 -0.47233049969E+02  0.17766018072E+01  0.42154918414E+03  0.42419079667E+03  0.00000000000E+00 0. -1.
         21    1    1    2  503  502  0.47233049969E+02 -0.17766018072E+01  0.61435145904E+03  0.61616704922E+03  0.00000000000E+00 0.  1.
</event>
<event>
 4    1  0.6008802E+002  0.2908027E+02  0.7546771E-02  0.1427761E+00
          2   -1    0    0  503    0  0.00000000000E+00  0.00000000000E+00  0.22789052842E+03  0.22789052842E+03  0.00000000000E+00 0. -1.
         -2   -1    0    0    0  501 -0.00000000000E+00 -0.00000000000E+00 -0.47041197678E+01  0.47041197678E+01  0.00000000000E+00 0.  1.
         21    1    1    2  502  501 -0.28538506871E+02  0.55870874994E+01  0.58152821345E+02  0.65018555440E+02  0.00000000000E+00 0.  1.
         21    1    1    2  503  502  0.28538506871E+02 -0.55870874994E+01  0.16503358731E+03  0.16757609275E+03  0.00000000000E+00 0. -1.
</event>
<event>
 4    1  0.6008802E+002  0.2303256E+02  0.7546771E-02  0.1492090E+00
          2   -1    0    0  502    0  0.00000000000E+00  0.00000000000E+00  0.18614669906E+03  0.18614669906E+03  0.00000000000E+00 0.  1.
         -2   -1    0    0    0  501 -0.00000000000E+00 -0.00000000000E+00 -0.88245260458E+01  0.88245260458E+01  0.00000000000E+00 0. -1.
         21    1    1    2  502  503  0.13776021896E+01 -0.22991323647E+02  0.16887511651E+03  0.17043856291E+03  0.00000000000E+00 0.  1.
         21    1    1    2  503  501 -0.13776021896E+01  0.22991323647E+02  0.84470565062E+01  0.24532662197E+02  0.00000000000E+00 0. -1.
</event>
<event>
 4    1  0.6008802E+002  0.3542847E+02  0.7546771E-02  0.1377576E+00
          2   -1    0    0  502    0  0.00000000000E+00  0.00000000000E+00  0.72723730026E+03  0.72723730026E+03  0.00000000000E+00 0. -1.
         -2   -1    0    0    0  501 -0.00000000000E+00 -0.00000000000E+00 -0.82865572519E+01  0.82865572519E+01  0.00000000000E+00 0.  1.
         21    1    1    2  502  503 -0.32100592318E+02  0.14990954308E+02  0.68670427078E+03  0.68761757703E+03  0.00000000000E+00 0. -1.
         21    1    1    2  503  501  0.32100592318E+02 -0.14990954308E+02  0.32246472231E+02  0.47906280481E+02  0.00000000000E+00 0.  1.
</event>
<event>
 4    1  0.6008802E+002  0.4246169E+02  0.7546771E-02  0.1334634E+00
          2   -1    0    0  503    0  0.00000000000E+00  0.00000000000E+00  0.22078783752E+04  0.22078783752E+04  0.00000000000E+00 0.  1.
         -2   -1    0    0    0  501 -0.00000000000E+00 -0.00000000000E+00 -0.15603981772E+01  0.15603981772E+01  0.00000000000E+00 0. -1.
         21    1    1    2  502  501 -0.42274849089E+02 -0.39789275998E+01  0.34045440058E+03  0.34309210659E+03  0.00000000000E+00 0. -1.
         21    1    1    2  503  502  0.42274849089E+02  0.39789275998E+01  0.18658635764E+04  0.18663466668E+04  0.00000000000E+00 0.  1.
</event>
<event>
 4    1  0.6008802E+002  0.2986162E+02  0.7546771E-02  0.1420803E+00
          2   -1    0    0  502    0  0.00000000000E+00  0.00000000000E+00  0.27103047687E+01  0.27103047687E+01  0.00000000000E+00 0.  1.
         -2   -1    0    0    0  501 -0.00000000000E+00 -0.00000000000E+00 -0.43698012122E+03  0.43698012122E+03  0.00000000000E+00 0. -1.
         21    1    1    2  502  503 -0.10871564363E+02  0.27812321636E+02 -0.10785536352E+03  0.11191289285E+03  0.00000000000E+00 0.  1.
         21    1    1    2  503  501  0.10871564363E+02 -0.27812321636E+02 -0.32641445294E+03  0.32777753314E+03  0.00000000000E+00 0. -1.
</event>
<event>
 4    1  0.6008802E+002  0.2249390E+02  0.7546771E-02  0.1498953E+00
          2   -1    0    0  503    0  0.00000000000E+00  0.00000000000E+00  0.37992238136E+02  0.37992238136E+02  0.00000000000E+00 0.  1.
         -2   -1    0    0    0  501 -0.00000000000E+00 -0.00000000000E+00 -0.51770075750E+02  0.51770075750E+02  0.00000000000E+00 0. -1.
         21    1    1    2  502  501 -0.16559505816E+02 -0.15223612148E+02 -0.45568813703E+02  0.50818228836E+02  0.00000000000E+00 0. -1.
         21    1    1    2  503  502  0.16559505816E+02  0.15223612148E+02  0.31790976089E+02  0.38944085051E+02  0.00000000000E+00 0.  1.
</event>
<event>
 4    1  0.6008802E+002  0.2775418E+02  0.7546771E-02  0.1440176E+00
          2   -1    0    0  502    0  0.00000000000E+00  0.00000000000E+00  0.64366250594E+02  0.64366250594E+02  0.00000000000E+00 0.  1.
         -2   -1    0    0    0  501 -0.00000000000E+00 -0.00000000000E+00 -0.13186353703E+02  0.13186353703E+02  0.00000000000E+00 0. -1.
         21    1    1    2  502  503  0.17625426617E+02  0.21439195198E+02  0.13800243650E+02  0.30995830026E+02  0.00000000000E+00 0. -1.
         21    1    1    2  503  501 -0.17625426617E+02 -0.21439195198E+02  0.37379653240E+02  0.46556774271E+02  0.00000000000E+00 0.  1.
</event>
<event>
 4    1  0.6008802E+002  0.5819115E+02  0.7546771E-02  0.1266105E+00
          2   -1    0    0  502    0  0.00000000000E+00  0.00000000000E+00  0.20684534324E+04  0.20684534324E+04  0.00000000000E+00 0.  1.
         -2   -1    0    0    0  501 -0.00000000000E+00 -0.00000000000E+00 -0.19908543039E+01  0.19908543039E+01  0.00000000000E+00 0. -1.
         21    1    1    2  502  503  0.50462989605E+02  0.28977510799E+02  0.14696277276E+04  0.14707793401E+04  0.00000000000E+00 0.  1.
         21    1    1    2  503  501 -0.50462989605E+02 -0.28977510799E+02  0.59683485047E+03  0.59966494660E+03  0.00000000000E+00 0. -1.
</event>
<event>
 4    1  0.6008802E+002  0.6716271E+02  0.7546771E-02  0.1237263E+00
          2   -1    0    0  502    0  0.00000000000E+00  0.00000000000E+00  0.21572061332E+04  0.21572061332E+04  0.00000000000E+00 0. -1.
         -2   -1    0    0    0  501 -0.00000000000E+00 -0.00000000000E+00 -0.47758116600E+01  0.47758116600E+01  0.00000000000E+00 0.  1.
         21    1    1    2  502  503  0.14363113251E+02 -0.65608924020E+02  0.18867117436E+04  0.18879067862E+04  0.00000000000E+00 0. -1.
         21    1    1    2  503  501 -0.14363113251E+02  0.65608924020E+02  0.26571857794E+03  0.27407515866E+03  0.00000000000E+00 0.  1.
</event>
<event>
 4    1  0.6008802E+002  0.5550722E+02  0.7546771E-02  0.1275912E+00
          2   -1    0    0  502    0  0.00000000000E+00  0.00000000000E+00  0.17056804035E+02  0.17056804035E+02  0.00000000000E+00 0.  1.
         -2   -1    0    0    0  501 -0.00000000000E+00 -0.00000000000E+00 -0.19109204018E+03  0.19109204018E+03  0.00000000000E+00 0. -1.
         21    1    1    2  502  503 -0.28666663039E+02  0.47531815188E+02 -0.11136391461E+03  0.12443059311E+03  0.00000000000E+00 0. -1.
         21    1    1    2  503  501  0.28666663039E+02 -0.47531815188E+02 -0.62671321540E+02  0.83718251107E+02  0.00000000000E+00 0.  1.
</event>
<event>
 4    1  0.6008802E+002  0.2306758E+02  0.7546771E-02  0.1491651E+00
          2   -1    0    0  503    0  0.00000000000E+00  0.00000000000E+00  0.18509968279E+04  0.18509968279E+04  0.00000000000E+00 0. -1.
         -2   -1    0    0    0  501 -0.00000000000E+00 -0.00000000000E+00 -0.32707973987E+00  0.32707973987E+00  0.00000000000E+00 0.  1.
         21    1    1    2  502  501 -0.91148039324E+01 -0.21190418201E+02  0.60322456733E+03  0.60366546373E+03  0.00000000000E+00 0.  1.
         21    1    1    2  503  502  0.91148039324E+01  0.21190418201E+02  0.12474451808E+04  0.12476584439E+04  0.00000000000E+00 0. -1.
</event>
<event>
 4    1  0.6008802E+002  0.2095030E+02  0.7546771E-02  0.1519976E+00
          2   -1    0    0  503    0  0.00000000000E+00  0.00000000000E+00  0.42854141624E+01  0.42854141624E+01  0.00000000000E+00 0.  1.
         -2   -1    0    0    0  501 -0.00000000000E+00 -0.00000000000E+00 -0.10329417363E+04  0.10329417363E+04  0.00000000000E+00 0. -1.
         21    1    1    2  502  501 -0.73831364670E+01 -0.19606232463E+02 -0.10065592831E+04  0.10067772869E+04  0.00000000000E+00 0. -1.
         21    1    1    2  503  502  0.73831364670E+01  0.19606232463E+02 -0.22097039022E+02  0.30449863531E+02  0.00000000000E+00 0.  1.
</event>
<event>
 4    1  0.6008802E+002  0.2208727E+02  0.7546771E-02  0.1504289E+00
          2   -1    0    0  503    0  0.00000000000E+00  0.00000000000E+00  0.66957117244E+02  0.66957117244E+02  0.00000000000E+00 0.  1.
         -2   -1    0    0    0  501 -0.00000000000E+00 -0.00000000000E+00 -0.91687985280E+01  0.91687985280E+01  0.00000000000E+00 0. -1.
         21    1    1    2  502  501 -0.10242163679E+02 -0.19568999806E+02  0.11645652999E+02  0.24969359303E+02  0.00000000000E+00 0. -1.
         21    1    1    2  503  502  0.10242163679E+02  0.19568999806E+02  0.46142665717E+02  0.51156556468E+02  0.00000000000E+00 0.  1.
</event>
<event>
 4    1  0.6008802E+002  0.2702507E+02  0.7546771E-02  0.1447356E+00
          2   -1    0    0  503    0  0.00000000000E+00  0.00000000000E+00  0.16314234214E+04  0.16314234214E+04  0.00000000000E+00 0.  1.
         -2   -1    0    0    0  501 -0.00000000000E+00 -0.00000000000E+00 -0.67521464811E+01  0.67521464811E+01  0.00000000000E+00 0. -1.
         21    1    1    2  502  501  0.27024965981E+02  0.75004950965E-01  0.20866987670E+02  0.34143602423E+02  0.00000000000E+00 0. -1.
         21    1    1    2  503  502 -0.27024965981E+02 -0.75004950965E-01  0.16038042873E+04  0.16040319655E+04  0.00000000000E+00 0.  1.
</event>
<event>
 4    1  0.6008802E+002  0.3140906E+02  0.7546771E-02  0.1407734E+00
          2   -1    0    0  502    0  0.00000000000E+00  0.00000000000E+00  0.95931460153E+01  0.95931460153E+01  0.00000000000E+00 0. -1.
         -2   -1    0    0    0  501 -0.00000000000E+00 -0.00000000000E+00 -0.26774705210E+03  0.26774705210E+03  0.00000000000E+00 0.  1.
         21    1    1    2  502  503  0.31382302225E+02  0.12963162436E+01 -0.20248067363E+02  0.37369955321E+02  0.00000000000E+00 0. -1.
         21    1    1    2  503  501 -0.31382302225E+02 -0.12963162436E+01 -0.23790583872E+03  0.23997024279E+03  0.00000000000E+00 0.  1.
</event>
<event>
 4    1  0.6008802E+002  0.2523704E+02  0.7546771E-02  0.1466169E+00
          2   -1    0    0  503    0  0.00000000000E+00  0.00000000000E+00  0.17361058647E+02  0.17361058647E+02  0.00000000000E+00 0.  1.
         -2   -1    0    0    0  501 -0.00000000000E+00 -0.00000000000E+00 -0.43660294212E+02  0.43660294212E+02  0.00000000000E+00 0. -1.
         21    1    1    2  502  501  0.24173042840E+02 -0.72506546732E+01 -0.25343957457E+02  0.35766243483E+02  0.00000000000E+00 0.  1.
         21    1    1    2  503  502 -0.24173042840E+02  0.72506546732E+01 -0.95527810864E+00  0.25255109376E+02  0.00000000000E+00 0. -1.
</event>
<event>
 4    1  0.6008802E+002  0.2116124E+02  0.7546771E-02  0.1516975E+00
          2   -1    0    0  503    0  0.00000000000E+00  0.00000000000E+00  0.13882765354E+04  0.13882765354E+04  0.00000000000E+00 0.  1.
         -2   -1    0    0    0  501 -0.00000000000E+00 -0.00000000000E+00 -0.95915566776E+01  0.95915566776E+01  0.00000000000E+00 0. -1.
         21    1    1    2  502  501 -0.21043159151E+02 -0.22323933693E+01  0.22612600071E+01  0.21281715721E+02  0.00000000000E+00 0. -1.
         21    1    1    2  503  502  0.21043159151E+02  0.22323933693E+01  0.13764237187E+04  0.13765863764E+04  0.00000000000E+00 0.  1.
</event>
<event>
 4    1  0.6008802E+002  0.2244087E+02  0.7546771E-02  0.1499641E+00
          2   -1    0    0  503    0  0.00000000000E+00  0.00000000000E+00  0.66169211783E+00  0.66169211783E+00  0.00000000000E+00 0. -1.
         -2   -1    0    0    0  501 -0.00000000000E+00 -0.00000000000E+00 -0.78119923939E+03  0.78119923939E+03  0.00000000000E+00 0.  1.
         21    1    1    2  502  501  0.13948508193E+02 -0.17579302511E+02 -0.45302442993E+03  0.45357990131E+03  0.00000000000E+00 0.  1.
         21    1    1    2  503  502 -0.13948508193E+02  0.17579302511E+02 -0.32751311734E+03  0.32828103020E+03  0.00000000000E+00 0. -1.
</event>
<event>
 4    1  0.6008802E+002  0.4000430E+02  0.7546771E-02  0.1348461E+00
          2   -1    0    0  502    0  0.00000000000E+00  0.00000000000E+00  0.41018781683E+02  0.41018781683E+02  0.00000000000E+00 0. -1.
         -2   -1    0    0    0  501 -0.00000000000E+00 -0.00000000000E+00 -0.56729701521E+02  0.56729701521E+02  0.00000000000E+00 0.  1.
         21    1    1    2  502  503 -0.38906341584E+02  0.93080823255E+01  0.19455872211E+02  0.44484545356E+02  0.00000000000E+00 0. -1.
         21    1    1    2  503  501  0.38906341584E+02 -0.93080823255E+01 -0.35166792049E+02  0.53263937848E+02  0.00000000000E+00 0.  1.
</event>
<event>
 4    1  0.6008802E+002  0.3118342E+02  0.7546771E-02  0.1409584E+00
          2   -1    0    0  503    0  0.00000000000E+00  0.00000000000E+00  0.17706315734E+02  0.17706315734E+02  0.00000000000E+00 0.  1.
         -2   -1    0    0    0  501 -0.00000000000E+00 -0.00000000000E+00 -0.55332493376E+02  0.55332493376E+02  0.00000000000E+00 0. -1.
         21    1    1    2  502  501  0.99214291756E+01  0.29563003068E+02 -0.21971601786E+02  0.38146522677E+02  0.00000000000E+00 0.  1.
         21    1    1    2  503  502 -0.99214291756E+01 -0.29563003068E+02 -0.15654575856E+02  0.34892286433E+02  0.00000000000E+00 0. -1.
</event>
<event>
 4    1  0.6008802E+002  0.3982572E+02  0.7546771E-02  0.1349510E+00
          2   -1    0    0  503    0  0.00000000000E+00  0.00000000000E+00  0.10144066224E+03  0.10144066224E+03  0.00000000000E+00 0. -1.
         -2   -1    0    0    0  501 -0.00000000000E+00 -0.00000000000E+00 -0.73838807423E+02  0.73838807423E+02  0.00000000000E+00 0.  1.
         21    1    1    2  502  501  0.26901220099E+01  0.39734757602E+02 -0.64008478577E+02  0.75386822773E+02  0.00000000000E+00 0.  1.
         21    1    1    2  503  502 -0.26901220099E+01 -0.39734757602E+02  0.91610333394E+02  0.99892646890E+02  0.00000000000E+00 0. -1.
</event>
<event>
 4    1  0.6008802E+002  0.2924320E+02  0.7546771E-02  0.1426289E+00
          2   -1    0    0  503    0  0.00000000000E+00  0.00000000000E+00  0.12668374301E+04  0.12668374301E+04  0.00000000000E+00 0.  1.
         -2   -1    0    0    0  501 -0.00000000000E+00 -0.00000000000E+00 -0.67944246992E+00  0.67944246992E+00  0.00000000000E+00 0. -1.
         21    1    1    2  502  501 -0.29242780473E+02 -0.15688703025E+00  0.58205916065E+03  0.58279330068E+03  0.00000000000E+00 0. -1.
         21    1    1    2  503  502  0.29242780473E+02  0.15688703025E+00  0.68409882697E+03  0.68472357188E+03  0.00000000000E+00 0.  1.
</event>
<event>
 4    1  0.6008802E+002  0.2081500E+02  0.7546771E-02  0.1521923E+00
          2   -1    0    0  503    0  0.00000000000E+00  0.00000000000E+00  0.89245310875E+02  0.89245310875E+02  0.00000000000E+00 0.  1.
         -2   -1    0    0    0  501 -0.00000000000E+00 -0.00000000000E+00 -0.70650071756E+01  0.70650071756E+01  0.00000000000E+00 0. -1.
         21    1    1    2  502  501 -0.44257253295E+01  0.20339053812E+02  0.14155746480E+02  0.25172391882E+02  0.00000000000E+00 0. -1.
         21    1    1    2  503  502  0.44257253295E+01 -0.20339053812E+02  0.68024557219E+02  0.71137926169E+02  0.00000000000E+00 0.  1.
</event>
<event>
 4    1  0.6008802E+002  0.2258040E+02  0.7546771E-02  0.1497835E+00
          2   -1    0    0  503    0  0.00000000000E+00  0.00000000000E+00  0.12003152881E+04  0.12003152881E+04  0.00000000000E+00 0.  1.
         -2   -1    0    0    0  501 -0.00000000000E+00 -0.00000000000E+00 -0.26782192838E+01  0.26782192838E+01  0.00000000000E+00 0. -1.
         21    1    1    2  502  501 -0.22403796228E+02 -0.28186042990E+01  0.47080687717E+02  0.52215570203E+02  0.00000000000E+00 0. -1.
         21    1    1    2  503  502  0.22403796228E+02  0.28186042990E+01  0.11505563811E+04  0.11507779372E+04  0.00000000000E+00 0.  1.
</event>
<event>
 4    1  0.6008802E+002  0.3293550E+02  0.7546771E-02  0.1395689E+00
          2   -1    0    0  503    0  0.00000000000E+00  0.00000000000E+00  0.15491299677E+01  0.15491299677E+01  0.00000000000E+00 0. -1.
         -2   -1    0    0    0  501 -0.00000000000E+00 -0.00000000000E+00 -0.71391785769E+03  0.71391785769E+03  0.00000000000E+00 0.  1.
         21    1    1    2  502  501 -0.88265677052E+01  0.31730719244E+02 -0.30664987479E+03  0.30841350902E+03  0.00000000000E+00 0. -1.
         21    1    1    2  503  502  0.88265677052E+01 -0.31730719244E+02 -0.40571885293E+03  0.40705347863E+03  0.00000000000E+00 0.  1.
</event>
<event>
 4    1  0.6008802E+002  0.2964201E+02  0.7546771E-02  0.1422733E+00
          2   -1    0    0  503    0  0.00000000000E+00  0.00000000000E+00  0.28487380713E+02  0.28487380713E+02  0.00000000000E+00 0. -1.
         -2   -1    0    0    0  501 -0.00000000000E+00 -0.00000000000E+00 -0.31348724404E+02  0.31348724404E+02  0.00000000000E+00 0.  1.
         21    1    1    2  502  501 -0.13229658677E+02  0.26525924619E+02  0.23676821419E+01  0.29736416468E+02  0.00000000000E+00 0.  1.
         21    1    1    2  503  502  0.13229658677E+02 -0.26525924619E+02 -0.52290258331E+01  0.30099688649E+02  0.00000000000E+00 0. -1.
</event>
<event>
 4    1  0.6008802E+002  0.2111977E+02  0.7546771E-02  0.1517562E+00
          2   -1    0    0  503    0  0.00000000000E+00  0.00000000000E+00  0.64287490620E+03  0.64287490620E+03  0.00000000000E+00 0.  1.
         -2   -1    0    0    0  501 -0.00000000000E+00 -0.00000000000E+00 -0.86078597327E+00  0.86078597327E+00  0.00000000000E+00 0. -1.
         21    1    1    2  502  501  0.20111868165E+02 -0.64465094468E+01  0.17925370300E+03  0.18049358649E+03  0.00000000000E+00 0. -1.
         21    1    1    2  503  502 -0.20111868165E+02  0.64465094468E+01  0.46276041722E+03  0.46324210568E+03  0.00000000000E+00 0.  1.
</event>
<event>
 4    1  0.6008802E+002  0.2224406E+02  0.7546771E-02  0.1502215E+00
          2   -1    0    0  503    0  0.00000000000E+00  0.00000000000E+00  0.54320975176E+01  0.54320975176E+01  0.00000000000E+00 0. -1.
         -2   -1    0    0    0  501 -0.00000000000E+00 -0.00000000000E+00 -0.19210657313E+03  0.19210657313E+03  0.00000000000E+00 0.  1.
         21    1    1    2  502  501 -0.14160569427E+02  0.17154494309E+02 -0.16496012607E+03  0.16645312131E+03  0.00000000000E+00 0.  1.
         21    1    1    2  503  502  0.14160569427E+02 -0.17154494309E+02 -0.21714349545E+02  0.31085549338E+02  0.00000000000E+00 0. -1.
</event>
<event>
 4    1  0.6008802E+002  0.2848018E+02  0.7546771E-02  0.1433280E+00
          2   -1    0    0  502    0  0.00000000000E+00  0.00000000000E+00  0.53563514831E+02  0.53563514831E+02  0.00000000000E+00 0.  1.
         -2   -1    0    0    0  501 -0.00000000000E+00 -0.00000000000E+00 -0.51822166066E+02  0.51822166066E+02  0.00000000000E+00 0. -1.
         21    1    1    2  502  503 -0.10761468672E+02 -0.26368762273E+02  0.45201172722E+02  0.53425338999E+02  0.00000000000E+00 0.  1.
         21    1    1    2  503  501  0.10761468672E+02  0.26368762273E+02 -0.43459823957E+02  0.51960341898E+02  0.00000000000E+00 0. -1.
</event>
<event>
 4    1  0.6008802E+002  0.2109779E+02  0.7546771E-02  0.1517873E+00
          2   -1    0    0  502    0  0.00000000000E+00  0.00000000000E+00  0.64323968671E+03  0.64323968671E+03  0.00000000000E+00 0. -1.
         -2   -1    0    0    0  501 -0.00000000000E+00 -0.00000000000E+00 -0.48237970169E+01  0.48237970169E+01  0.00000000000E+00 0.  1.
         21    1    1    2  502  503  0.13963415501E+02  0.15815802895E+02  0.61909862038E+03  0.61945800370E+03  0.00000000000E+00 0. -1.
         21    1    1    2  503  501 -0.13963415501E+02 -0.15815802895E+02  0.19317269307E+02  0.28605480020E+02  0.00000000000E+00 0.  1.
</event>
<event>
 4    1  0.6008802E+002  0.4149173E+02  0.7546771E-02  0.1339959E+00
          2   -1    0    0  502    0  0.00000000000E+00  0.00000000000E+00  0.17726625636E+03  0.17726625636E+03  0.00000000000E+00 0. -1.
         -2   -1    0    0    0  501 -0.00000000000E+00 -0.00000000000E+00 -0.10290472294E+02  0.10290472294E+02  0.00000000000E+00 0.  1.
         21    1    1    2  502  503  0.40997547883E+02  0.63847287665E+01  0.61248440762E+02  0.73979288924E+02  0.00000000000E+00 0. -1.
         21    1    1    2  503  501 -0.40997547883E+02 -0.63847287665E+01  0.10572734330E+03  0.11357743973E+03  0.00000000000E+00 0.  1.
</event>
<event>
 4    1  0.6008802E+002  0.2463269E+02  0.7546771E-02  0.1472955E+00
          2   -1    0    0  502    0  0.00000000000E+00  0.00000000000E+00  0.44192399118E+02  0.44192399118E+02  0.00000000000E+00 0. -1.
         -2   -1    0    0    0  501 -0.00000000000E+00 -0.00000000000E+00 -0.13984045390E+02  0.13984045390E+02  0.00000000000E+00 0.  1.
         21    1    1    2  502  503 -0.23243259995E+02 -0.81560076964E+01  0.19023422405E+02  0.31123306327E+02  0.00000000000E+00 0. -1.
         21    1    1    2  503  501  0.23243259995E+02  0.81560076964E+01  0.11184931323E+02  0.27053138181E+02  0.00000000000E+00 0.  1.
</event>
<event>
 4    1  0.6008802E+002  0.3048976E+02  0.7546771E-02  0.1415387E+00
          2   -1    0    0  502    0  0.00000000000E+00  0.00000000000E+00  0.29805434609E+03  0.29805434609E+03  0.00000000000E+00 0.  1.
         -2   -1    0    0    0  501 -0.00000000000E+00 -0.00000000000E+00 -0.49756820596E+01  0.49756820596E+01  0.00000000000E+00 0. -1.
         21    1    1    2  502  503 -0.10463463105E+01  0.30471795718E+02  0.23909448740E+03  0.24103070153E+03  0.00000000000E+00 0.  1.
         21    1    1    2  503  501  0.10463463105E+01 -0.30471795718E+02  0.53984176633E+02  0.61999326622E+02  0.00000000000E+00 0. -1.
</event>
<event>
 4    1  0.6008802E+002  0.2210312E+02  0.7546771E-02  0.1504078E+00
          2   -1    0    0  502    0  0.00000000000E+00  0.00000000000E+00  0.18857776766E+03  0.18857776766E+03  0.00000000000E+00 0. -1.
         -2   -1    0    0    0  501 -0.00000000000E+00 -0.00000000000E+00 -0.31335640328E+01  0.31335640328E+01  0.00000000000E+00 0.  1.
         21    1    1    2  502  503 -0.21934878740E+02 -0.27219507595E+01  0.13261954815E+03  0.13444884705E+03  0.00000000000E+00 0. -1.
         21    1    1    2  503  501  0.21934878740E+02  0.27219507595E+01  0.52824655475E+02  0.57262484642E+02  0.00000000000E+00 0.  1.
</event>
<event>
 4    1  0.6008802E+002  0.2607623E+02  0.7546771E-02  0.1457115E+00
          2   -1    0    0  502    0  0.00000000000E+00  0.00000000000E+00  0.65895908040E+03  0.65895908040E+03  0.00000000000E+00 0.  1.
         -2   -1    0    0    0  501 -0.00000000000E+00 -0.00000000000E+00 -0.15092155776E+01  0.15092155776E+01  0.00000000000E+00 0. -1.
         21    1    1    2  502  503 -0.25455514220E+02  0.56556573851E+01  0.51444387106E+03  0.51510432549E+03  0.00000000000E+00 0.  1.
         21    1    1    2  503  501  0.25455514220E+02 -0.56556573851E+01  0.14300599376E+03  0.14536397048E+03  0.00000000000E+00 0. -1.
</event>
<event>
 4    1  0.6008802E+002  0.2602540E+02  0.7546771E-02  0.1457652E+00
          2   -1    0    0  503    0  0.00000000000E+00  0.00000000000E+00  0.18534115518E+03  0.18534115518E+03  0.00000000000E+00 0.  1.
         -2   -1    0    0    0  501 -0.00000000000E+00 -0.00000000000E+00 -0.54032248606E+01  0.54032248606E+01  0.00000000000E+00 0. -1.
         21    1    1    2  502  501  0.23242904751E+02  0.11708501216E+02  0.35711301590E+02  0.44188445133E+02  0.00000000000E+00 0. -1.
         21    1    1    2  503  502 -0.23242904751E+02 -0.11708501216E+02  0.14422662873E+03  0.14655593490E+03  0.00000000000E+00 0.  1.
</event>
<event>
 4    1  0.6008802E+002  0.2096280E+02  0.7546771E-02  0.1519797E+00
          2   -1    0    0  503    0  0.00000000000E+00  0.00000000000E+00  0.52993697769E+02  0.52993697769E+02  0.00000000000E+00 0.  1.
         -2   -1    0    0    0  501 -0.00000000000E+00 -0.00000000000E+00 -0.12094316788E+02  0.12094316788E+02  0.00000000000E+00 0. -1.
         21    1    1    2  502  501  0.93446694935E+01  0.18764754587E+02  0.22028274923E+01  0.21078218891E+02  0.00000000000E+00 0. -1.
         21    1    1    2  503  502 -0.93446694935E+01 -0.18764754587E+02  0.38696553489E+02  0.44009795667E+02  0.00000000000E+00 0.  1.
</event>
<event>
 4    1  0.6008802E+002  0.2708748E+02  0.7546771E-02  0.1446731E+00
          2   -1    0    0  502    0  0.00000000000E+00  0.00000000000E+00  0.17678544003E+04  0.17678544003E+04  0.00000000000E+00 0. -1.
         -2   -1    0    0    0  501 -0.00000000000E+00 -0.00000000000E+00 -0.24410974144E+01  0.24410974144E+01  0.00000000000E+00 0.  1.
         21    1    1    2  502  503  0.56108337472E+01 -0.26500000838E+02  0.16891038579E+04  0.16893210394E+04  0.00000000000E+00 0. -1.
         21    1    1    2  503  501 -0.56108337472E+01  0.26500000838E+02  0.76309444968E+02  0.80974458264E+02  0.00000000000E+00 0.  1.
</event>
<event>
 4    1  0.6008802E+002  0.2396713E+02  0.7546771E-02  0.1480698E+00
          2   -1    0    0  502    0  0.00000000000E+00  0.00000000000E+00  0.13984485271E+04  0.13984485271E+04  0.00000000000E+00 0.  1.
         -2   -1    0    0    0  501 -0.00000000000E+00 -0.00000000000E+00 -0.42128274496E+00  0.42128274496E+00  0.00000000000E+00 0. -1.
         21    1    1    2  502  503 -0.15791693228E+02  0.18029024835E+02  0.58845942508E+03  0.58894729669E+03  0.00000000000E+00 0. -1.
         21    1    1    2  503  501  0.15791693228E+02 -0.18029024835E+02  0.80956781925E+03  0.80992251313E+03  0.00000000000E+00 0.  1.
</event>
<event>
 4    1  0.6008802E+002  0.3365924E+02  0.7546771E-02  0.1390242E+00
          2   -1    0    0  502    0  0.00000000000E+00  0.00000000000E+00  0.13068969560E+03  0.13068969560E+03  0.00000000000E+00 0.  1.
         -2   -1    0    0    0  501 -0.00000000000E+00 -0.00000000000E+00 -0.89373926856E+01  0.89373926856E+01  0.00000000000E+00 0. -1.
         21    1    1    2  502  503  0.33421983758E+02  0.39894245472E+01  0.72975089186E+02  0.80363599647E+02  0.00000000000E+00 0.  1.
         21    1    1    2  503  501 -0.33421983758E+02 -0.39894245472E+01  0.48777213728E+02  0.59263488638E+02  0.00000000000E+00 0. -1.
</event>
<event>
 4    1  0.6008802E+002  0.3303061E+02  0.7546771E-02  0.1394964E+00
          2   -1    0    0  502    0  0.00000000000E+00  0.00000000000E+00  0.16326930497E+04  0.16326930497E+04  0.00000000000E+00 0.  1.
         -2   -1    0    0    0  501 -0.00000000000E+00 -0.00000000000E+00 -0.67077616019E+00  0.67077616019E+00  0.00000000000E+00 0. -1.
         21    1    1    2  502  503 -0.32127937924E+02  0.76692282512E+01  0.86628497547E+03  0.86691445955E+03  0.00000000000E+00 0.  1.
         21    1    1    2  503  501  0.32127937924E+02 -0.76692282512E+01  0.76573729808E+03  0.76644936631E+03  0.00000000000E+00 0. -1.
</event>
<event>
 4    1  0.6008802E+002  0.2114538E+02  0.7546771E-02  0.1517199E+00
          2   -1    0    0  503    0  0.00000000000E+00  0.00000000000E+00  0.29072383136E+03  0.29072383136E+03  0.00000000000E+00 0. -1.
         -2   -1    0    0    0  501 -0.00000000000E+00 -0.00000000000E+00 -0.19588121390E+01  0.19588121390E+01  0.00000000000E+00 0.  1.
         21    1    1    2  502  501 -0.11485464991E+02 -0.17754189621E+02  0.76551929404E+02  0.79418669409E+02  0.00000000000E+00 0.  1.
         21    1    1    2  503  502  0.11485464991E+02  0.17754189621E+02  0.21221308982E+03  0.21326397409E+03  0.00000000000E+00 0. -1.
</event>
<event>
 4    1  0.6008802E+002  0.2509885E+02  0.7546771E-02  0.1467701E+00
          2   -1    0    0  503    0  0.00000000000E+00  0.00000000000E+00  0.80359407587E+02  0.80359407587E+02  0.00000000000E+00 0. -1.
         -2   -1    0    0    0  501 -0.00000000000E+00 -0.00000000000E+00 -0.18503801676E+02  0.18503801676E+02  0.00000000000E+00 0.  1.
         21    1    1    2  502  501  0.25068788210E+02  0.12280002475E+01 -0.65994595751E+01  0.25951974754E+02  0.00000000000E+00 0.  1.
         21    1    1    2  503  502 -0.25068788210E+02 -0.12280002475E+01  0.68455065486E+02  0.72911234510E+02  0.00000000000E+00 0. -1.
</event>
<event>
 4    1  0.6008802E+002  0.3433846E+02  0.7546771E-02  0.1385275E+00
          2   -1    0    0  502    0  0.00000000000E+00  0.00000000000E+00  0.37060204991E+02  0.37060204991E+02  0.00000000000E+00 0.  1.
         -2   -1    0    0    0  501 -0.00000000000E+00 -0.00000000000E+00 -0.76336638078E+02  0.76336638078E+02  0.00000000000E+00 0. -1.
         21    1    1    2  502  503 -0.34317274637E+02 -0.12058914399E+01  0.23661219944E+02  0.41701113197E+02  0.00000000000E+00 0.  1.
         21    1    1    2  503  501  0.34317274637E+02  0.12058914399E+01 -0.62937653032E+02  0.71695729872E+02  0.00000000000E+00 0. -1.
</event>
<event>
 4    1  0.6008802E+002  0.2168853E+02  0.7546771E-02  0.1509657E+00
          2   -1    0    0  503    0  0.00000000000E+00  0.00000000000E+00  0.69392516816E+03  0.69392516816E+03  0.00000000000E+00 0. -1.
         -2   -1    0    0    0  501 -0.00000000000E+00 -0.00000000000E+00 -0.79447397400E+00  0.79447397400E+00  0.00000000000E+00 0.  1.
         21    1    1    2  502  501  0.88648175252E+01 -0.19794123583E+02  0.21349140339E+03  0.21459024125E+03  0.00000000000E+00 0.  1.
         21    1    1    2  503  502 -0.88648175252E+01  0.19794123583E+02  0.47963929080E+03  0.48012940088E+03  0.00000000000E+00 0. -1.
</event>
<event>
 4    1  0.6008802E+002  0.3706909E+02  0.7546771E-02  0.1366573E+00
          2   -1    0    0  503    0  0.00000000000E+00  0.00000000000E+00  0.27757223172E+04  0.27757223172E+04  0.00000000000E+00 0.  1.
         -2   -1    0    0    0  501 -0.00000000000E+00 -0.00000000000E+00 -0.69826573539E+00  0.69826573539E+00  0.00000000000E+00 0. -1.
         21    1    1    2  502  501 -0.26524470972E+01 -0.36974073055E+02  0.63860998240E+03  0.63968494368E+03  0.00000000000E+00 0. -1.
         21    1    1    2  503  502  0.26524470972E+01  0.36974073055E+02  0.21364140690E+04  0.21367356392E+04  0.00000000000E+00 0.  1.
</event>
<event>
 4    1  0.6008802E+002  0.2347381E+02  0.7546771E-02  0.1486633E+00
          2   -1    0    0  502    0  0.00000000000E+00  0.00000000000E+00  0.43888606707E+03  0.43888606707E+03  0.00000000000E+00 0. -1.
         -2   -1    0    0    0  501 -0.00000000000E+00 -0.00000000000E+00 -0.22535036827E+01  0.22535036827E+01  0.00000000000E+00 0.  1.
         21    1    1    2  502  503 -0.10496815872E+02  0.20996105195E+02  0.36510202915E+03  0.36585586133E+03  0.00000000000E+00 0. -1.
         21    1    1    2  503  501  0.10496815872E+02 -0.20996105195E+02  0.71530534233E+02  0.75283709423E+02  0.00000000000E+00 0.  1.
</event>
<event>
 4    1  0.6008802E+002  0.2376684E+02  0.7546771E-02  0.1483087E+00
          2   -1    0    0  502    0  0.00000000000E+00  0.00000000000E+00  0.10407682060E+03  0.10407682060E+03  0.00000000000E+00 0.  1.
         -2   -1    0    0    0  501 -0.00000000000E+00 -0.00000000000E+00 -0.55923518990E+01  0.55923518990E+01  0.00000000000E+00 0. -1.
         21    1    1    2  502  503 -0.21434786767E+02 -0.10267061081E+02  0.39823654491E+02  0.46376568265E+02  0.00000000000E+00 0.  1.
         21    1    1    2  503  501  0.21434786767E+02  0.10267061081E+02  0.58660814209E+02  0.63292604234E+02  0.00000000000E+00 0. -1.
</event>
<event>
 4    1  0.6008802E+002  0.3386190E+02  0.7546771E-02  0.1388746E+00
          2   -1    0    0  502    0  0.00000000000E+00  0.00000000000E+00  0.16548361671E+04  0.16548361671E+04  0.00000000000E+00 0. -1.
         -2   -1    0    0    0  501 -0.00000000000E+00 -0.00000000000E+00 -0.11798120284E+01  0.11798120284E+01  0.00000000000E+00 0.  1.
         21    1    1    2  502  503  0.25579066368E+02  0.22188726978E+02  0.29489698908E+03  0.29683473923E+03  0.00000000000E+00 0.  1.
         21    1    1    2  503  501 -0.25579066368E+02 -0.22188726978E+02  0.13587593660E+04  0.13591812399E+04  0.00000000000E+00 0. -1.
</event>
<event>
 4    1  0.6008802E+002  0.2305595E+02  0.7546771E-02  0.1491797E+00
          2   -1    0    0  502    0  0.00000000000E+00  0.00000000000E+00  0.17217436757E+04  0.17217436757E+04  0.00000000000E+00 0. -1.
         -2   -1    0    0    0  501 -0.00000000000E+00 -0.00000000000E+00 -0.80006801062E+00  0.80006801062E+00  0.00000000000E+00 0.  1.
         21    1    1    2  502  503  0.61497142032E+01  0.22220660578E+02  0.15354055384E+04  0.15355786349E+04  0.00000000000E+00 0. -1.
         21    1    1    2  503  501 -0.61497142032E+01 -0.22220660578E+02  0.18553806934E+03  0.18696510882E+03  0.00000000000E+00 0.  1.
</event>
<event>
 4    1  0.6008802E+002  0.2061889E+02  0.7546771E-02  0.1524776E+00
          2   -1    0    0  503    0  0.00000000000E+00  0.00000000000E+00  0.50200805221E+03  0.50200805221E+03  0.00000000000E+00 0.  1.
         -2   -1    0    0    0  501 -0.00000000000E+00 -0.00000000000E+00 -0.17197337883E+01  0.17197337883E+01  0.00000000000E+00 0. -1.
         21    1    1    2  502  501  0.19102103658E+02  0.77619721866E+01  0.70709207172E+02  0.73654127891E+02  0.00000000000E+00 0. -1.
         21    1    1    2  503  502 -0.19102103658E+02 -0.77619721866E+01  0.42957911125E+03  0.43007365810E+03  0.00000000000E+00 0.  1.
</event>
<event>
 4    1  0.6008802E+002  0.2055150E+02  0.7546771E-02  0.1525766E+00
          2   -1    0    0  502    0  0.00000000000E+00  0.00000000000E+00  0.38213256398E+02  0.38213256398E+02  0.00000000000E+00 0.  1.
         -2   -1    0    0    0  501 -0.00000000000E+00 -0.00000000000E+00 -0.54815461681E+02  0.54815461681E+02  0.00000000000E+00 0. -1.
         21    1    1    2  502  503  0.89262099055E+01  0.18511810429E+02  0.33260018463E+02  0.39097227226E+02  0.00000000000E+00 0.  1.
         21    1    1    2  503  501 -0.89262099055E+01 -0.18511810429E+02 -0.49862223746E+02  0.53931490852E+02  0.00000000000E+00 0. -1.
</event>
<event>
 4    1  0.6008802E+002  0.2025065E+02  0.7546771E-02  0.1530238E+00
          2   -1    0    0  503    0  0.00000000000E+00  0.00000000000E+00  0.11933469219E+04  0.11933469219E+04  0.00000000000E+00 0.  1.
         -2   -1    0    0    0  501 -0.00000000000E+00 -0.00000000000E+00 -0.98418933153E+00  0.98418933153E+00  0.00000000000E+00 0. -1.
         21    1    1    2  502  501 -0.14403170982E+02  0.14235073958E+02  0.11442246676E+03  0.11620064357E+03  0.00000000000E+00 0. -1.
         21    1    1    2  503  502  0.14403170982E+02 -0.14235073958E+02  0.10779402658E+04  0.10781304677E+04  0.00000000000E+00 0.  1.
</event>
<event>
 4    1  0.6008802E+002  0.2497800E+02  0.7546771E-02  0.1469050E+00
          2   -1    0    0  502    0  0.00000000000E+00  0.00000000000E+00  0.20037602606E+03  0.20037602606E+03  0.00000000000E+00 0. -1.
         -2   -1    0    0    0  501 -0.00000000000E+00 -0.00000000000E+00 -0.35177295098E+01  0.35177295098E+01  0.00000000000E+00 0.  1.
         21    1    1    2  502  503  0.21148140858E+02  0.13291228282E+02  0.13298142475E+03  0.13530691017E+03  0.00000000000E+00 0.  1.
         21    1    1    2  503  501 -0.21148140858E+02 -0.13291228282E+02  0.63876871800E+02  0.68586845400E+02  0.00000000000E+00 0. -1.
</event>
<event>
 4    1  0.6008802E+002  0.4096166E+02  0.7546771E-02  0.1342941E+00
          2   -1    0    0  502    0  0.00000000000E+00  0.00000000000E+00  0.96590481761E+02  0.96590481761E+02  0.00000000000E+00 0. -1.
         -2   -1    0    0    0  501 -0.00000000000E+00 -0.00000000000E+00 -0.18422120113E+02  0.18422120113E+02  0.00000000000E+00 0.  1.
         21    1    1    2  502  503 -0.32460625962E+02  0.24983306741E+02  0.52821587236E+02  0.66842934792E+02  0.00000000000E+00 0. -1.
         21    1    1    2  503  501  0.32460625962E+02 -0.24983306741E+02  0.25346774412E+02  0.48169667081E+02  0.00000000000E+00 0.  1.
</event>
<event>
 4    1  0.6008802E+002  0.5269337E+02  0.7546771E-02  0.1286899E+00
          2   -1    0    0  503    0  0.00000000000E+00  0.00000000000E+00  0.14353429699E+04  0.14353429699E+04  0.00000000000E+00 0.  1.
         -2   -1    0    0    0  501 -0.00000000000E+00 -0.00000000000E+00 -0.33336580091E+01  0.33336580091E+01  0.00000000000E+00 0. -1.
         21    1    1    2  502  501  0.17808589519E+02 -0.49592795368E+02  0.24997379611E+03  0.25546719937E+03  0.00000000000E+00 0. -1.
         21    1    1    2  503  502 -0.17808589519E+02  0.49592795368E+02  0.11820355158E+04  0.11832094285E+04  0.00000000000E+00 0.  1.
</event>
<event>
 4    1  0.6008802E+002  0.2968697E+02  0.7546771E-02  0.1422336E+00
          2   -1    0    0  502    0  0.00000000000E+00  0.00000000000E+00  0.13674476981E+03  0.13674476981E+03  0.00000000000E+00 0. -1.
         -2   -1    0    0    0  501 -0.00000000000E+00 -0.00000000000E+00 -0.88789246223E+03  0.88789246223E+03  0.00000000000E+00 0.  1.
         21    1    1    2  502  503  0.74123916339E+01 -0.28746699746E+02  0.13488199178E+03  0.13811034719E+03  0.00000000000E+00 0. -1.
         21    1    1    2  503  501 -0.74123916339E+01  0.28746699746E+02 -0.88602968419E+03  0.88652688485E+03  0.00000000000E+00 0.  1.
</event>
<event>
 4    1  0.6008802E+002  0.2241743E+02  0.7546771E-02  0.1499946E+00
          2   -1    0    0  502    0  0.00000000000E+00  0.00000000000E+00  0.21445256893E+01  0.21445256893E+01  0.00000000000E+00 0. -1.
         -2   -1    0    0    0  501 -0.00000000000E+00 -0.00000000000E+00 -0.39536728607E+03  0.39536728607E+03  0.00000000000E+00 0.  1.
         21    1    1    2  502  503  0.47566006849E+00  0.22412383033E+02 -0.69766248114E+02  0.73279400528E+02  0.00000000000E+00 0. -1.
         21    1    1    2  503  501 -0.47566006849E+00 -0.22412383033E+02 -0.32345651227E+03  0.32423241123E+03  0.00000000000E+00 0.  1.
</event>
<event>
 4    1  0.6008802E+002  0.3385049E+02  0.7546771E-02  0.1388830E+00
          2   -1    0    0  503    0  0.00000000000E+00  0.00000000000E+00  0.11449823514E+02  0.11449823514E+02  0.00000000000E+00 0.  1.
         -2   -1    0    0    0  501 -0.00000000000E+00 -0.00000000000E+00 -0.18686851615E+03  0.18686851615E+03  0.00000000000E+00 0. -1.
         21    1    1    2  502  501  0.33074579428E+02  0.72061040195E+01 -0.15528733372E+03  0.15893398552E+03  0.00000000000E+00 0.  1.
         21    1    1    2  503  502 -0.33074579428E+02 -0.72061040195E+01 -0.20131358914E+02  0.39384354142E+02  0.00000000000E+00 0. -1.
</event>
<event>
 4    1  0.6008802E+002  0.2222615E+02  0.7546771E-02  0.1502451E+00
          2   -1    0    0  502    0  0.00000000000E+00  0.00000000000E+00  0.42428576264E+02  0.42428576264E+02  0.00000000000E+00 0.  1.
         -2   -1    0    0    0  501 -0.00000000000E+00 -0.00000000000E+00 -0.15043628170E+02  0.15043628170E+02  0.00000000000E+00 0. -1.
         21    1    1    2  502  503  0.90137991419E+01  0.20316323842E+02  0.27354735623E+02  0.35246037373E+02  0.00000000000E+00 0.  1.
         21    1    1    2  503  501 -0.90137991419E+01 -0.20316323842E+02  0.30212470233E-01  0.22226167061E+02  0.00000000000E+00 0. -1.
</event>
<event>
 4    1  0.6008802E+002  0.2172409E+02  0.7546771E-02  0.1509173E+00
          2   -1    0    0  502    0  0.00000000000E+00  0.00000000000E+00  0.15867405691E+04  0.15867405691E+04  0.00000000000E+00 0. -1.
         -2   -1    0    0    0  501 -0.00000000000E+00 -0.00000000000E+00 -0.52556295547E+00  0.52556295547E+00  0.00000000000E+00 0.  1.
         21    1    1    2  502  503  0.21090960169E+02 -0.52064912309E+01  0.13159925840E+04  0.13161718799E+04  0.00000000000E+00 0. -1.
         21    1    1    2  503  501 -0.21090960169E+02  0.52064912309E+01  0.27022242207E+03  0.27109425214E+03  0.00000000000E+00 0.  1.
</event>
<event>
 4    1  0.6008802E+002  0.2243025E+02  0.7546771E-02  0.1499779E+00
          2   -1    0    0  503    0  0.00000000000E+00  0.00000000000E+00  0.28549702340E+02  0.28549702340E+02  0.00000000000E+00 0. -1.
         -2   -1    0    0    0  501 -0.00000000000E+00 -0.00000000000E+00 -0.22913951332E+02  0.22913951332E+02  0.00000000000E+00 0.  1.
         21    1    1    2  502  501 -0.22329419376E+02 -0.21244268819E+01 -0.95475602286E+01  0.24377696067E+02  0.00000000000E+00 0.  1.
         21    1    1    2  503  502  0.22329419376E+02  0.21244268819E+01  0.15183311237E+02  0.27085957605E+02  0.00000000000E+00 0. -1.
</event>
<event>
 4    1  0.6008802E+002  0.2600182E+02  0.7546771E-02  0.1457901E+00
          2   -1    0    0  503    0  0.00000000000E+00  0.00000000000E+00  0.43190436573E+02  0.43190436573E+02  0.00000000000E+00 0.  1.
         -2   -1    0    0    0  501 -0.00000000000E+00 -0.00000000000E+00 -0.21336731148E+02  0.21336731148E+02  0.00000000000E+00 0. -1.
         21    1    1    2  502  501  0.25232254812E+02  0.62791718730E+01 -0.57239303272E+01  0.26624388456E+02  0.00000000000E+00 0.  1.
         21    1    1    2  503  502 -0.25232254812E+02 -0.62791718730E+01  0.27577635753E+02  0.37902779265E+02  0.00000000000E+00 0. -1.
</event>
<event>
 4    1  0.6008802E+002  0.5061683E+02  0.7546771E-02  0.1295520E+00
          2   -1    0    0  502    0  0.00000000000E+00  0.00000000000E+00  0.66154159561E+02  0.66154159561E+02  0.00000000000E+00 0.  1.
         -2   -1    0    0    0  501 -0.00000000000E+00 -0.00000000000E+00 -0.82989384153E+02  0.82989384153E+02  0.00000000000E+00 0. -1.
         21    1    1    2  502  503  0.47330797906E+02  0.17940434016E+02  0.46041721785E+02  0.68424438237E+02  0.00000000000E+00 0.  1.
         21    1    1    2  503  501 -0.47330797906E+02 -0.17940434016E+02 -0.62876946378E+02  0.80719105476E+02  0.00000000000E+00 0. -1.
</event>
<event>
 4    1  0.6008802E+002  0.2429558E+02  0.7546771E-02  0.1476840E+00
          2   -1    0    0  502    0  0.00000000000E+00  0.00000000000E+00  0.32826120230E+03  0.32826120230E+03  0.00000000000E+00 0. -1.
         -2   -1    0    0    0  501 -0.00000000000E+00 -0.00000000000E+00 -0.18304825225E+01  0.18304825225E+01  0.00000000000E+00 0.  1.
         21    1    1    2  502  503  0.17182764390E+02  0.17176377017E+02  0.18513770209E+03  0.18672504935E+03  0.00000000000E+00 0. -1.
         21    1    1    2  503  501 -0.17182764390E+02 -0.17176377017E+02  0.14129301769E+03  0.14336663547E+03  0.00000000000E+00 0.  1.
</event>
<event>
 4    1  0.6008802E+002  0.2647369E+02  0.7546771E-02  0.1452968E+00
          2   -1    0    0  503    0  0.00000000000E+00  0.00000000000E+00  0.66129610585E+01  0.66129610585E+01  0.00000000000E+00 0. -1.
         -2   -1    0    0    0  501 -0.00000000000E+00 -0.00000000000E+00 -0.16240199839E+03  0.16240199839E+03  0.00000000000E+00 0.  1.
         21    1    1    2  502  501  0.23031450873E+02 -0.13054069643E+02 -0.12770434810E+03  0.13041954220E+03  0.00000000000E+00 0.  1.
         21    1    1    2  503  502 -0.23031450873E+02  0.13054069643E+02 -0.28084689233E+02  0.38595417252E+02  0.00000000000E+00 0. -1.
</event>
<event>
 4    1  0.6008802E+002  0.3858217E+02  0.7546771E-02  0.1357001E+00
          2   -1    0    0  503    0  0.00000000000E+00  0.00000000000E+00  0.53749556530E+03  0.53749556530E+03  0.00000000000E+00 0. -1.
         -2   -1    0    0    0  501 -0.00000000000E+00 -0.00000000000E+00 -0.92272725177E+01  0.92272725177E+01  0.00000000000E+00 0.  1.
         21    1    1    2  502  501 -0.13185012796E+01  0.38559636944E+02  0.35446587684E+02  0.52393173461E+02  0.00000000000E+00 0.  1.
         21    1    1    2  503  502  0.13185012796E+01 -0.38559636944E+02  0.49282170510E+03  0.49432966436E+03  0.00000000000E+00 0. -1.
</event>
<event>
 4    1  0.6008802E+002  0.2954288E+02  0.7546771E-02  0.1423611E+00
          2   -1    0    0  503    0  0.00000000000E+00  0.00000000000E+00  0.14855977720E+02  0.14855977720E+02  0.00000000000E+00 0.  1.
         -2   -1    0    0    0  501 -0.00000000000E+00 -0.00000000000E+00 -0.64805934884E+02  0.64805934884E+02  0.00000000000E+00 0. -1.
         21    1    1    2  502  501 -0.15963953971E+01  0.29499718565E+02 -0.37151420342E+02  0.47465881506E+02  0.00000000000E+00 0. -1.
         21    1    1    2  503  502  0.15963953971E+01 -0.29499718565E+02 -0.12798536822E+02  0.32196031098E+02  0.00000000000E+00 0.  1.
</event>
<event>
 4    1  0.6008802E+002  0.2494235E+02  0.7546771E-02  0.1469449E+00
          2   -1    0    0  503    0  0.00000000000E+00  0.00000000000E+00  0.55958484122E+03  0.55958484122E+03  0.00000000000E+00 0.  1.
         -2   -1    0    0    0  501 -0.00000000000E+00 -0.00000000000E+00 -0.13440226049E+01  0.13440226049E+01  0.00000000000E+00 0. -1.
         21    1    1    2  502  501 -0.19988170314E+02  0.14919579985E+02  0.16252819835E+03  0.16443094623E+03  0.00000000000E+00 0. -1.
         21    1    1    2  503  502  0.19988170314E+02 -0.14919579985E+02  0.39571262026E+03  0.39649791759E+03  0.00000000000E+00 0.  1.
</event>
<event>
 4    1  0.6008802E+002  0.2263165E+02  0.7546771E-02  0.1497176E+00
          2   -1    0    0  502    0  0.00000000000E+00  0.00000000000E+00  0.38713238483E+02  0.38713238483E+02  0.00000000000E+00 0.  1.
         -2   -1    0    0    0  501 -0.00000000000E+00 -0.00000000000E+00 -0.36964494027E+02  0.36964494027E+02  0.00000000000E+00 0. -1.
         21    1    1    2  502  503 -0.12458253479E+02  0.18894010846E+02  0.31194570661E+02  0.38539498755E+02  0.00000000000E+00 0.  1.
         21    1    1    2  503  501  0.12458253479E+02 -0.18894010846E+02 -0.29445826205E+02  0.37138233755E+02  0.00000000000E+00 0. -1.
</event>
<event>
 4    1  0.6008802E+002  0.2335412E+02  0.7546771E-02  0.1488099E+00
          2   -1    0    0  502    0  0.00000000000E+00  0.00000000000E+00  0.27954582774E+03  0.27954582774E+03  0.00000000000E+00 0. -1.
         -2   -1    0    0    0  501 -0.00000000000E+00 -0.00000000000E+00 -0.20561277295E+01  0.20561277295E+01  0.00000000000E+00 0.  1.
         21    1    1    2  502  503  0.22752822456E+02  0.52653504939E+01  0.17057103040E+03  0.17216239792E+03  0.00000000000E+00 0. -1.
         21    1    1    2  503  501 -0.22752822456E+02 -0.52653504939E+01  0.10691866961E+03  0.10943955755E+03  0.00000000000E+00 0.  1.
</event>
<event>
 4    1  0.6008802E+002  0.5414646E+02  0.7546771E-02  0.1281131E+00
          2   -1    0    0  502    0  0.00000000000E+00  0.00000000000E+00  0.23818058993E+02  0.23818058993E+02  0.00000000000E+00 0. -1.
         -2   -1    0    0    0  501 -0.00000000000E+00 -0.00000000000E+00 -0.16144516512E+03  0.16144516512E+03  0.00000000000E+00 0.  1.
         21    1    1    2  502  503  0.45598828069E+02 -0.29199075258E+02 -0.11396180942E+03  0.12617104709E+03  0.00000000000E+00 0.  1.
         21    1    1    2  503  501 -0.45598828069E+02  0.29199075258E+02 -0.23665296706E+02  0.59092177023E+02  0.00000000000E+00 0. -1.
</event>
<event>
 4    1  0.6008802E+002  0.2002351E+02  0.7546771E-02  0.1533677E+00
          2   -1    0    0  503    0  0.00000000000E+00  0.00000000000E+00  0.14053557457E+03  0.14053557457E+03  0.00000000000E+00 0.  1.
         -2   -1    0    0    0  501 -0.00000000000E+00 -0.00000000000E+00 -0.29479459028E+01  0.29479459028E+01  0.00000000000E+00 0. -1.
         21    1    1    2  502  501 -0.75172386162E+01 -0.18558881648E+02  0.55915329814E+02  0.59392466464E+02  0.00000000000E+00 0. -1.
         21    1    1    2  503  502  0.75172386162E+01  0.18558881648E+02  0.81672298854E+02  0.84091054010E+02  0.00000000000E+00 0.  1.
</event>
<event>
 4    1  0.6008802E+002  0.2069080E+02  0.7546771E-02  0.1523726E+00
          2   -1    0    0  502    0  0.00000000000E+00  0.00000000000E+00  0.90799321965E+02  0.90799321965E+02  0.00000000000E+00 0. -1.
         -2   -1    0    0    0  501 -0.00000000000E+00 -0.00000000000E+00 -0.14496391902E+02  0.14496391902E+02  0.00000000000E+00 0.  1.
         21    1    1    2  502  503  0.14084371562E+02 -0.15157166977E+02  0.81398208148E+02  0.83986769927E+02  0.00000000000E+00 0. -1.
         21    1    1    2  503  501 -0.14084371562E+02  0.15157166977E+02 -0.50952780845E+01  0.21308943940E+02  0.00000000000E+00 0.  1.
</event>
<event>
 4    1  0.6008802E+002  0.2101240E+02  0.7546771E-02  0.1519088E+00
          2   -1    0    0  502    0  0.00000000000E+00  0.00000000000E+00  0.15092073137E+04  0.15092073137E+04  0.00000000000E+00 0. -1.
         -2   -1    0    0    0  501 -0.00000000000E+00 -0.00000000000E+00 -0.30952221459E+00  0.30952221459E+00  0.00000000000E+00 0.  1.
         21    1    1    2  502  503  0.99738950638E+01  0.18494382206E+02  0.57771777571E+03  0.57809977437E+03  0.00000000000E+00 0.  1.
         21    1    1    2  503  501 -0.99738950638E+01 -0.18494382206E+02  0.93118001582E+03  0.93141706159E+03  0.00000000000E+00 0. -1.
</event>
<event>
 4    1  0.6008802E+002  0.2556181E+02  0.7546771E-02  0.1462616E+00
          2   -1    0    0  503    0  0.00000000000E+00  0.00000000000E+00  0.75625916444E+03  0.75625916444E+03  0.00000000000E+00 0.  1.
         -2   -1    0    0    0  501 -0.00000000000E+00 -0.00000000000E+00 -0.30684036606E+01  0.30684036606E+01  0.00000000000E+00 0. -1.
         21    1    1    2  502  501  0.21441327797E+02 -0.13916733136E+02  0.54793381343E+02  0.60462555668E+02  0.00000000000E+00 0. -1.
         21    1    1    2  503  502 -0.21441327797E+02  0.13916733136E+02  0.69839737943E+03  0.69886501243E+03  0.00000000000E+00 0.  1.
</event>
<event>
 4    1  0.6008802E+002  0.2627291E+02  0.7546771E-02  0.1455052E+00
          2   -1    0    0  502    0  0.00000000000E+00  0.00000000000E+00  0.11401445382E+03  0.11401445382E+03  0.00000000000E+00 0.  1.
         -2   -1    0    0    0  501 -0.00000000000E+00 -0.00000000000E+00 -0.63481897020E+01  0.63481897020E+01  0.00000000000E+00 0. -1.
         21    1    1    2  502  503 -0.23689413310E+02 -0.11361234069E+02  0.40882075813E+02  0.48596399715E+02  0.00000000000E+00 0. -1.
         21    1    1    2  503  501  0.23689413310E+02  0.11361234069E+02  0.66784188309E+02  0.71766243811E+02  0.00000000000E+00 0.  1.
</event>
<event>
 4    1  0.6008802E+002  0.2138565E+02  0.7546771E-02  0.1513829E+00
          2   -1    0    0  502    0  0.00000000000E+00  0.00000000000E+00  0.69038646593E+03  0.69038646593E+03  0.00000000000E+00 0.  1.
         -2   -1    0    0    0  501 -0.00000000000E+00 -0.00000000000E+00 -0.67139791236E+00  0.67139791236E+00  0.00000000000E+00 0. -1.
         21    1    1    2  502  503  0.21308175051E+02 -0.18186501773E+01  0.38474899630E+03  0.38534288104E+03  0.00000000000E+00 0.  1.
         21    1    1    2  503  501 -0.21308175051E+02  0.18186501773E+01  0.30496607172E+03  0.30571498280E+03  0.00000000000E+00 0. -1.
</event>
<event>
 4    1  0.6008802E+002  0.2373439E+02  0.7546771E-02  0.1483477E+00
          2   -1    0    0  502    0  0.00000000000E+00  0.00000000000E+00  0.39798723062E+01  0.39798723062E+01  0.00000000000E+00 0.  1.
         -2   -1    0    0    0  501 -0.00000000000E+00 -0.00000000000E+00 -0.14843099274E+03  0.14843099274E+03  0.00000000000E+00 0. -1.
         21    1    1    2  502  503  0.99694623688E+01  0.21539061344E+02 -0.55808944994E+02  0.60646184421E+02  0.00000000000E+00 0.  1.
         21    1    1    2  503  501 -0.99694623688E+01 -0.21539061344E+02 -0.88642175442E+02  0.91764680627E+02  0.00000000000E+00 0. -1.
</event>
<event>
 4    1  0.6008802E+002  0.2333582E+02  0.7546771E-02  0.1488324E+00
          2   -1    0    0  502    0  0.00000000000E+00  0.00000000000E+00  0.18658300302E+03  0.18658300302E+03  0.00000000000E+00 0. -1.
         -2   -1    0    0    0  501 -0.00000000000E+00 -0.00000000000E+00 -0.30621488895E+01  0.30621488895E+01  0.00000000000E+00 0.  1.
         21    1    1    2  502  503 -0.20645488494E+02  0.10877695752E+02  0.11229114475E+03  0.11469028576E+03  0.00000000000E+00 0. -1.
         21    1    1    2  503  501  0.20645488494E+02 -0.10877695752E+02  0.71229709381E+02  0.74954866143E+02  0.00000000000E+00 0.  1.
</event>
<event>
 4    1  0.6008802E+002  0.2427624E+02  0.7546771E-02  0.1477065E+00
          2   -1    0    0  503    0  0.00000000000E+00  0.00000000000E+00  0.71989712314E+03  0.71989712314E+03  0.00000000000E+00 0. -1.
         -2   -1    0    0    0  501 -0.00000000000E+00 -0.00000000000E+00 -0.10285883250E+01  0.10285883250E+01  0.00000000000E+00 0.  1.
         21    1    1    2  502  501  0.10018937424E+02  0.22112365267E+02  0.19658078651E+03  0.19807408066E+03  0.00000000000E+00 0.  1.
         21    1    1    2  503  502 -0.10018937424E+02 -0.22112365267E+02  0.52228774830E+03  0.52285163080E+03  0.00000000000E+00 0. -1.
</event>
<event>
 4    1  0.6008802E+002  0.3007360E+02  0.7546771E-02  0.1418958E+00
          2   -1    0    0  502    0  0.00000000000E+00  0.00000000000E+00  0.11865100435E+04  0.11865100435E+04  0.00000000000E+00 0.  1.
         -2   -1    0    0    0  501 -0.00000000000E+00 -0.00000000000E+00 -0.29872924311E+01  0.29872924311E+01  0.00000000000E+00 0. -1.
         21    1    1    2  502  503 -0.28341936664E+02 -0.10057623143E+02  0.11050521263E+04  0.11054612716E+04  0.00000000000E+00 0.  1.
         21    1    1    2  503  501  0.28341936664E+02  0.10057623143E+02  0.78470624744E+02  0.84036064311E+02  0.00000000000E+00 0. -1.
</event>
<event>
 4    1  0.6008802E+002  0.2302969E+02  0.7546771E-02  0.1492126E+00
          2   -1    0    0  503    0  0.00000000000E+00  0.00000000000E+00  0.47928601479E+03  0.47928601479E+03  0.00000000000E+00 0. -1.
         -2   -1    0    0    0  501 -0.00000000000E+00 -0.00000000000E+00 -0.57785009252E+01  0.57785009252E+01  0.00000000000E+00 0.  1.
         21    1    1    2  502  501  0.19976498698E+02 -0.11458886896E+02  0.18676776213E+02  0.29651113956E+02  0.00000000000E+00 0.  1.
         21    1    1    2  503  502 -0.19976498698E+02  0.11458886896E+02  0.45483073765E+03  0.45541340175E+03  0.00000000000E+00 0. -1.
</event>
<event>
 4    1  0.6008802E+002  0.2278724E+02  0.7546771E-02  0.1495187E+00
          2   -1    0    0  503    0  0.00000000000E+00  0.00000000000E+00  0.12204625494E+03  0.12204625494E+03  0.00000000000E+00 0.  1.
         -2   -1    0    0    0  501 -0.00000000000E+00 -0.00000000000E+00 -0.67020175538E+02  0.67020175538E+02  0.00000000000E+00 0. -1.
         21    1    1    2  502  501  0.13695281113E+02  0.18212572204E+02 -0.63970380318E+02  0.67907790931E+02  0.00000000000E+00 0. -1.
         21    1    1    2  503  502 -0.13695281113E+02 -0.18212572204E+02  0.11899645972E+03  0.12115863954E+03  0.00000000000E+00 0.  1.
</event>
<event>
 4    1  0.6008802E+002  0.2039691E+02  0.7546771E-02  0.1528052E+00
          2   -1    0    0  503    0  0.00000000000E+00  0.00000000000E+00  0.17451880901E+02  0.17451880901E+02  0.00000000000E+00 0. -1.
         -2   -1    0    0    0  501 -0.00000000000E+00 -0.00000000000E+00 -0.27861477482E+02  0.27861477482E+02  0.00000000000E+00 0.  1.
         21    1    1    2  502  501 -0.15268581334E+02 -0.13524219109E+02 -0.13813646446E+02  0.24634344046E+02  0.00000000000E+00 0.  1.
         21    1    1    2  503  502  0.15268581334E+02  0.13524219109E+02  0.34040498643E+01  0.20679014337E+02  0.00000000000E+00 0. -1.
</event>
<event>
 4    1  0.6008802E+002  0.3178251E+02  0.7546771E-02  0.1404714E+00
          2   -1    0    0  502    0  0.00000000000E+00  0.00000000000E+00  0.60364415145E+03  0.60364415145E+03  0.00000000000E+00 0. -1.
         -2   -1    0    0    0  501 -0.00000000000E+00 -0.00000000000E+00 -0.27698450326E+01  0.27698450326E+01  0.00000000000E+00 0.  1.
         21    1    1    2  502  503 -0.30971963796E+02  0.71319826039E+01  0.49120638513E+03  0.49223352233E+03  0.00000000000E+00 0. -1.
         21    1    1    2  503  501  0.30971963796E+02 -0.71319826039E+01  0.10966792129E+03  0.11418047415E+03  0.00000000000E+00 0.  1.
</event>
<event>
 4    1  0.6008802E+002  0.3105486E+02  0.7546771E-02  0.1410646E+00
          2   -1    0    0  502    0  0.00000000000E+00  0.00000000000E+00  0.28361305329E+03  0.28361305329E+03  0.00000000000E+00 0. -1.
         -2   -1    0    0    0  501 -0.00000000000E+00 -0.00000000000E+00 -0.31522591050E+02  0.31522591050E+02  0.00000000000E+00 0.  1.
         21    1    1    2  502  503  0.73849973476E+01 -0.30163988368E+02  0.27487197403E+03  0.27662069063E+03  0.00000000000E+00 0. -1.
         21    1    1    2  503  501 -0.73849973476E+01  0.30163988368E+02 -0.22781511786E+02  0.38514953710E+02  0.00000000000E+00 0.  1.
</event>
<event>
 4    1  0.6008802E+002  0.2686117E+02  0.7546771E-02  0.1449008E+00
          2   -1    0    0  503    0  0.00000000000E+00  0.00000000000E+00  0.89072907407E+00  0.89072907407E+00  0.00000000000E+00 0.  1.
         -2   -1    0    0    0  501 -0.00000000000E+00 -0.00000000000E+00 -0.81006689656E+03  0.81006689656E+03  0.00000000000E+00 0. -1.
         21    1    1    2  502  501 -0.24875225423E+02 -0.10136339533E+02 -0.40206591127E+03  0.40296218088E+03  0.00000000000E+00 0.  1.
         21    1    1    2  503  502  0.24875225423E+02  0.10136339533E+02 -0.40711025622E+03  0.40799544475E+03  0.00000000000E+00 0. -1.
</event>
<event>
 4    1  0.6008802E+002  0.2016613E+02  0.7546771E-02  0.1531511E+00
          2   -1    0    0  502    0  0.00000000000E+00  0.00000000000E+00  0.49244277399E+02  0.49244277399E+02  0.00000000000E+00 0.  1.
         -2   -1    0    0    0  501 -0.00000000000E+00 -0.00000000000E+00 -0.12143562503E+02  0.12143562503E+02  0.00000000000E+00 0. -1.
         21    1    1    2  502  503 -0.28942972794E+01 -0.19957347369E+02  0.35912007976E+02  0.41186708871E+02  0.00000000000E+00 0.  1.
         21    1    1    2  503  501  0.28942972794E+01  0.19957347369E+02  0.11887069201E+01  0.20201131030E+02  0.00000000000E+00 0. -1.
</event>
<event>
 4    1  0.6008802E+002  0.4206972E+02  0.7546771E-02  0.1336766E+00
          2   -1    0    0  502    0  0.00000000000E+00  0.00000000000E+00  0.10606601416E+04  0.10606601416E+04  0.00000000000E+00 0. -1.
         -2   -1    0    0    0  501 -0.00000000000E+00 -0.00000000000E+00 -0.16851281690E+01  0.16851281690E+01  0.00000000000E+00 0.  1.
         21    1    1    2  502  503  0.31916150527E+02  0.27408407919E+02  0.58202703714E+03  0.58354548533E+03  0.00000000000E+00 0.  1.
         21    1    1    2  503  501 -0.31916150527E+02 -0.27408407919E+02  0.47694797632E+03  0.47879978446E+03  0.00000000000E+00 0. -1.
</event>
<event>
 4    1  0.6008802E+002  0.2037639E+02  0.7546771E-02  0.1528358E+00
          2   -1    0    0  502    0  0.00000000000E+00  0.00000000000E+00  0.17856846948E+02  0.17856846948E+02  0.00000000000E+00 0. -1.
         -2   -1    0    0    0  501 -0.00000000000E+00 -0.00000000000E+00 -0.38210509921E+02  0.38210509921E+02  0.00000000000E+00 0.  1.
         21    1    1    2  502  503 -0.11341610279E+02 -0.16928238138E+02  0.73636291905E+01  0.21666111904E+02  0.00000000000E+00 0. -1.
         21    1    1    2  503  501  0.11341610279E+02  0.16928238138E+02 -0.27717292163E+02  0.34401244964E+02  0.00000000000E+00 0.  1.
</event>
<event>
 4    1  0.6008802E+002  0.2155599E+02  0.7546771E-02  0.1511473E+00
          2   -1    0    0  503    0  0.00000000000E+00  0.00000000000E+00  0.69006245506E+03  0.69006245506E+03  0.00000000000E+00 0.  1.
         -2   -1    0    0    0  501 -0.00000000000E+00 -0.00000000000E+00 -0.68181150037E+01  0.68181150037E+01  0.00000000000E+00 0. -1.
         21    1    1    2  502  501  0.13123210670E+02  0.17100940575E+02  0.10835145126E+02  0.24125944473E+02  0.00000000000E+00 0. -1.
         21    1    1    2  503  502 -0.13123210670E+02 -0.17100940575E+02  0.67240919493E+03  0.67275462559E+03  0.00000000000E+00 0.  1.
</event>
<event>
 4    1  0.6008802E+002  0.2232608E+02  0.7546771E-02  0.1501139E+00
          2   -1    0    0  502    0  0.00000000000E+00  0.00000000000E+00  0.15331098915E+04  0.15331098915E+04  0.00000000000E+00 0.  1.
         -2   -1    0    0    0  501 -0.00000000000E+00 -0.00000000000E+00 -0.15310392838E+01  0.15310392838E+01  0.00000000000E+00 0. -1.
         21    1    1    2  502  503 -0.21861810562E+02  0.45293481916E+01  0.14467808920E+04  0.14469531448E+04  0.00000000000E+00 0.  1.
         21    1    1    2  503  501  0.21861810562E+02 -0.45293481916E+01  0.84797960232E+02  0.87687786011E+02  0.00000000000E+00 0. -1.
</event>
<event>
 4    1  0.6008802E+002  0.2605299E+02  0.7546771E-02  0.1457360E+00
          2   -1    0    0  502    0  0.00000000000E+00  0.00000000000E+00  0.39894365258E+03  0.39894365258E+03  0.00000000000E+00 0.  1.
         -2   -1    0    0    0  501 -0.00000000000E+00 -0.00000000000E+00 -0.24799053666E+01  0.24799053666E+01  0.00000000000E+00 0. -1.
         21    1    1    2  502  503  0.19085807992E+02 -0.17733866029E+02  0.31068961816E+03  0.31178004572E+03  0.00000000000E+00 0.  1.
         21    1    1    2  503  501 -0.19085807992E+02  0.17733866029E+02  0.85774129046E+02  0.89643512229E+02  0.00000000000E+00 0. -1.
</event>
<event>
 4    1  0.6008802E+002  0.2687318E+02  0.7546771E-02  0.1448886E+00
          2   -1    0    0  503    0  0.00000000000E+00  0.00000000000E+00  0.22971656040E+04  0.22971656040E+04  0.00000000000E+00 0. -1.
         -2   -1    0    0    0  501 -0.00000000000E+00 -0.00000000000E+00 -0.66847674801E+00  0.66847674801E+00  0.00000000000E+00 0.  1.
         21    1    1    2  502  501  0.24575336053E+02  0.10872927708E+02  0.31204781672E+03  0.31320282186E+03  0.00000000000E+00 0.  1.
         21    1    1    2  503  502 -0.24575336053E+02 -0.10872927708E+02  0.19844493105E+04  0.19846312589E+04  0.00000000000E+00 0. -1.
</event>
<event>
 4    1  0.6008802E+002  0.2195252E+02  0.7546771E-02  0.1506088E+00
          2   -1    0    0  502    0  0.00000000000E+00  0.00000000000E+00  0.14068387774E+04  0.14068387774E+04  0.00000000000E+00 0. -1.
         -2   -1    0    0    0  501 -0.00000000000E+00 -0.00000000000E+00 -0.37932655345E+00  0.37932655345E+00  0.00000000000E+00 0.  1.
         21    1    1    2  502  503 -0.43688156579E+01  0.21513409110E+02  0.48414738251E+03  0.48464481975E+03  0.00000000000E+00 0.  1.
         21    1    1    2  503  501  0.43688156579E+01 -0.21513409110E+02  0.92231206829E+03  0.92257328416E+03  0.00000000000E+00 0. -1.
</event>
<event>
 4    1  0.6008802E+002  0.2016447E+02  0.7546771E-02  0.1531536E+00
          2   -1    0    0  503    0  0.00000000000E+00  0.00000000000E+00  0.16039070965E+02  0.16039070965E+02  0.00000000000E+00 0.  1.
         -2   -1    0    0    0  501 -0.00000000000E+00 -0.00000000000E+00 -0.25369863444E+02  0.25369863444E+02  0.00000000000E+00 0. -1.
         21    1    1    2  502  501  0.16107102352E+02 -0.12131242761E+02 -0.41001849698E+01  0.20577106548E+02  0.00000000000E+00 0.  1.
         21    1    1    2  503  502 -0.16107102352E+02  0.12131242761E+02 -0.52306075093E+01  0.20831827860E+02  0.00000000000E+00 0. -1.
</event>
<event>
 4    1  0.6008802E+002  0.5675790E+02  0.7546771E-02  0.1271265E+00
          2   -1    0    0  502    0  0.00000000000E+00  0.00000000000E+00  0.12772779633E+02  0.12772779633E+02  0.00000000000E+00 0.  1.
         -2   -1    0    0    0  501 -0.00000000000E+00 -0.00000000000E+00 -0.26004014315E+03  0.26004014315E+03  0.00000000000E+00 0. -1.
         21    1    1    2  502  503 -0.47801927726E+01  0.56556249561E+02 -0.14729939287E+03  0.15785617108E+03  0.00000000000E+00 0. -1.
         21    1    1    2  503  501  0.47801927726E+01 -0.56556249561E+02 -0.99967970640E+02  0.11495675170E+03  0.00000000000E+00 0.  1.
</event>
<event>
 4    1  0.6008802E+002  0.2758000E+02  0.7546771E-02  0.1441867E+00
          2   -1    0    0  503    0  0.00000000000E+00  0.00000000000E+00  0.39057574038E+02  0.39057574038E+02  0.00000000000E+00 0. -1.
         -2   -1    0    0    0  501 -0.00000000000E+00 -0.00000000000E+00 -0.25335070897E+02  0.25335070897E+02  0.00000000000E+00 0.  1.
         21    1    1    2  502  501 -0.21207362784E+02  0.17632469343E+02 -0.86228921937E+01  0.28896547911E+02  0.00000000000E+00 0.  1.
         21    1    1    2  503  502  0.21207362784E+02 -0.17632469343E+02  0.22345395335E+02  0.35496097025E+02  0.00000000000E+00 0. -1.
</event>
<event>
 4    1  0.6008802E+002  0.2032007E+02  0.7546771E-02  0.1529198E+00
          2   -1    0    0  503    0  0.00000000000E+00  0.00000000000E+00  0.10633236034E+02  0.10633236034E+02  0.00000000000E+00 0. -1.
         -2   -1    0    0    0  501 -0.00000000000E+00 -0.00000000000E+00 -0.16387806548E+03  0.16387806548E+03  0.00000000000E+00 0.  1.
         21    1    1    2  502  501  0.20243710022E+02  0.17599268366E+01 -0.15284241186E+03  0.15418724980E+03  0.00000000000E+00 0.  1.
         21    1    1    2  503  502 -0.20243710022E+02 -0.17599268366E+01 -0.40241758159E+00  0.20324051708E+02  0.00000000000E+00 0. -1.
</event>
<event>
 4    1  0.6008802E+002  0.2633670E+02  0.7546771E-02  0.1454387E+00
          2   -1    0    0  502    0  0.00000000000E+00  0.00000000000E+00  0.29122216954E+03  0.29122216954E+03  0.00000000000E+00 0.  1.
         -2   -1    0    0    0  501 -0.00000000000E+00 -0.00000000000E+00 -0.29542383896E+01  0.29542383896E+01  0.00000000000E+00 0. -1.
         21    1    1    2  502  503 -0.21598600503E+02 -0.15070569512E+02  0.79384790275E+02  0.83639503442E+02  0.00000000000E+00 0. -1.
         21    1    1    2  503  501  0.21598600503E+02  0.15070569512E+02  0.20888314088E+03  0.21053690449E+03  0.00000000000E+00 0.  1.
</event>
<event>
 4    1  0.6008802E+002  0.3366826E+02  0.7546771E-02  0.1390175E+00
          2   -1    0    0  502    0  0.00000000000E+00  0.00000000000E+00  0.10314782320E+04  0.10314782320E+04  0.00000000000E+00 0.  1.
         -2   -1    0    0    0  501 -0.00000000000E+00 -0.00000000000E+00 -0.20956262440E+01  0.20956262440E+01  0.00000000000E+00 0. -1.
         21    1    1    2  502  503 -0.24685070285E+02  0.22895390419E+02  0.87108486023E+03  0.87173527250E+03  0.00000000000E+00 0.  1.
         21    1    1    2  503  501  0.24685070285E+02 -0.22895390419E+02  0.15829774555E+03  0.16183858577E+03  0.00000000000E+00 0. -1.
</event>
<event>
 4    1  0.6008802E+002  0.2008073E+02  0.7546771E-02  0.1532805E+00
          2   -1    0    0  502    0  0.00000000000E+00  0.00000000000E+00  0.12175358433E+04  0.12175358433E+04  0.00000000000E+00 0.  1.
         -2   -1    0    0    0  501 -0.00000000000E+00 -0.00000000000E+00 -0.86118406928E+00  0.86118406928E+00  0.00000000000E+00 0. -1.
         21    1    1    2  502  503 -0.75386930975E+01 -0.18611931155E+02  0.10862475146E+04  0.10864331083E+04  0.00000000000E+00 0.  1.
         21    1    1    2  503  501  0.75386930975E+01  0.18611931155E+02  0.13042714467E+03  0.13196391909E+03  0.00000000000E+00 0. -1.
</event>
<event>
 4    1  0.6008802E+002  0.2349616E+02  0.7546771E-02  0.1486360E+00
          2   -1    0    0  503    0  0.00000000000E+00  0.00000000000E+00  0.98778428858E+01  0.98778428858E+01  0.00000000000E+00 0.  1.
         -2   -1    0    0    0  501 -0.00000000000E+00 -0.00000000000E+00 -0.93427771069E+02  0.93427771069E+02  0.00000000000E+00 0. -1.
         21    1    1    2  502  501 -0.11890873690E+02 -0.20265155852E+02 -0.74515973146E+02  0.78132577538E+02  0.00000000000E+00 0. -1.
         21    1    1    2  503  502  0.11890873690E+02  0.20265155852E+02 -0.90339550372E+01  0.25173036417E+02  0.00000000000E+00 0.  1.
</event>
<event>
 4    1  0.6008802E+002  0.2003178E+02  0.7546771E-02  0.1533550E+00
          2   -1    0    0  503    0  0.00000000000E+00  0.00000000000E+00  0.82875579795E+00  0.82875579795E+00  0.00000000000E+00 0. -1.
         -2   -1    0    0    0  501 -0.00000000000E+00 -0.00000000000E+00 -0.11087345661E+04  0.11087345661E+04  0.00000000000E+00 0.  1.
         21    1    1    2  502  501 -0.11569422535E+02  0.16353003301E+02 -0.97033427033E+03  0.97054101842E+03  0.00000000000E+00 0.  1.
         21    1    1    2  503  502  0.11569422535E+02 -0.16353003301E+02 -0.13757154001E+03  0.13902230352E+03  0.00000000000E+00 0. -1.
</event>
<event>
 4    1  0.6008802E+002  0.2415540E+02  0.7546771E-02  0.1478478E+00
          2   -1    0    0  503    0  0.00000000000E+00  0.00000000000E+00  0.21206530968E+02  0.21206530968E+02  0.00000000000E+00 0. -1.
         -2   -1    0    0    0  501 -0.00000000000E+00 -0.00000000000E+00 -0.34085300921E+02  0.34085300921E+02  0.00000000000E+00 0.  1.
         21    1    1    2  502  501 -0.21919300087E+02 -0.10150260371E+02 -0.18577805328E+02  0.30473239945E+02  0.00000000000E+00 0.  1.
         21    1    1    2  503  502  0.21919300087E+02  0.10150260371E+02  0.56990353743E+01  0.24818591944E+02  0.00000000000E+00 0. -1.
</event>
<event>
 4    1  0.6008802E+002  0.2176672E+02  0.7546771E-02  0.1508594E+00
          2   -1    0    0  503    0  0.00000000000E+00  0.00000000000E+00  0.12448323225E+04  0.12448323225E+04  0.00000000000E+00 0. -1.
         -2   -1    0    0    0  501 -0.00000000000E+00 -0.00000000000E+00 -0.70222548089E+00  0.70222548089E+00  0.00000000000E+00 0.  1.
         21    1    1    2  502  501 -0.16308093487E+01 -0.21705538792E+02  0.20060244835E+03  0.20177991039E+03  0.00000000000E+00 0.  1.
         21    1    1    2  503  502  0.16308093487E+01  0.21705538792E+02  0.10435276487E+04  0.10437546376E+04  0.00000000000E+00 0. -1.
</event>
<event>
 4    1  0.6008802E+002  0.2278786E+02  0.7546771E-02  0.1495179E+00
          2   -1    0    0  503    0  0.00000000000E+00  0.00000000000E+00  0.17818297884E+04  0.17818297884E+04  0.00000000000E+00 0.  1.
         -2   -1    0    0    0  501 -0.00000000000E+00 -0.00000000000E+00 -0.32723715278E+00  0.32723715278E+00  0.00000000000E+00 0. -1.
         21    1    1    2  502  501  0.22508110361E+02  0.35596830252E+01  0.59600841985E+03  0.59644389754E+03  0.00000000000E+00 0.  1.
         21    1    1    2  503  502 -0.22508110361E+02 -0.35596830252E+01  0.11854941314E+04  0.11857131280E+04  0.00000000000E+00 0. -1.
</event>
<event>
 4    1  0.6008802E+002  0.4842567E+02  0.7546771E-02  0.1305146E+00
          2   -1    0    0  502    0  0.00000000000E+00  0.00000000000E+00  0.24445073757E+03  0.24445073757E+03  0.00000000000E+00 0. -1.
         -2   -1    0    0    0  501 -0.00000000000E+00 -0.00000000000E+00 -0.11356191521E+02  0.11356191521E+02  0.00000000000E+00 0.  1.
         21    1    1    2  502  503  0.29109968122E+01 -0.48338098607E+02  0.16694381155E+03  0.17382543512E+03  0.00000000000E+00 0. -1.
         21    1    1    2  503  501 -0.29109968122E+01  0.48338098607E+02  0.66150734501E+02  0.81981493975E+02  0.00000000000E+00 0.  1.
</event>
<event>
 4    1  0.6008802E+002  0.2707903E+02  0.7546771E-02  0.1446816E+00
          2   -1    0    0  503    0  0.00000000000E+00  0.00000000000E+00  0.67251746196E+03  0.67251746196E+03  0.00000000000E+00 0. -1.
         -2   -1    0    0    0  501 -0.00000000000E+00 -0.00000000000E+00 -0.40969500193E+01  0.40969500193E+01  0.00000000000E+00 0.  1.
         21    1    1    2  502  501 -0.25473914133E+02  0.91844166120E+01  0.44396266412E+02  0.52002906468E+02  0.00000000000E+00 0.  1.
         21    1    1    2  503  502  0.25473914133E+02 -0.91844166120E+01  0.62402424553E+03  0.62461150551E+03  0.00000000000E+00 0. -1.
</event>
<event>
 4    1  0.6008802E+002  0.2582846E+02  0.7546771E-02  0.1459745E+00
          2   -1    0    0  502    0  0.00000000000E+00  0.00000000000E+00  0.49252148350E+03  0.49252148350E+03  0.00000000000E+00 0.  1.
         -2   -1    0    0    0  501 -0.00000000000E+00 -0.00000000000E+00 -0.61170437734E+01  0.61170437734E+01  0.00000000000E+00 0. -1.
         21    1    1    2  502  503  0.17450365902E+02  0.19041905908E+02  0.46319353729E+03  0.46391309794E+03  0.00000000000E+00 0.  1.
         21    1    1    2  503  501 -0.17450365902E+02 -0.19041905908E+02  0.23210902441E+02  0.34725429340E+02  0.00000000000E+00 0. -1.
</event>
<event>
 4    1  0.6008802E+002  0.3041328E+02  0.7546771E-02  0.1416038E+00
          2   -1    0    0  503    0  0.00000000000E+00  0.00000000000E+00  0.16017624504E+04  0.16017624504E+04  0.00000000000E+00 0. -1.
         -2   -1    0    0    0  501 -0.00000000000E+00 -0.00000000000E+00 -0.58177544518E+00  0.58177544518E+00  0.00000000000E+00 0.  1.
         21    1    1    2  502  501 -0.16158698471E+02  0.25765560486E+02  0.73165786319E+03  0.73228969432E+03  0.00000000000E+00 0.  1.
         21    1    1    2  503  502  0.16158698471E+02 -0.25765560486E+02  0.86952281174E+03  0.87005453150E+03  0.00000000000E+00 0. -1.
</event>
<event>
 4    1  0.6008802E+002  0.2966461E+02  0.7546771E-02  0.1422534E+00
          2   -1    0    0  503    0  0.00000000000E+00  0.00000000000E+00  0.16446084682E+03  0.16446084682E+03  0.00000000000E+00 0. -1.
         -2   -1    0    0    0  501 -0.00000000000E+00 -0.00000000000E+00 -0.56920527013E+01  0.56920527013E+01  0.00000000000E+00 0.  1.
         21    1    1    2  502  501  0.11145459215E+02  0.27491232761E+02  0.58551784120E+02  0.65637645932E+02  0.00000000000E+00 0.  1.
         21    1    1    2  503  502 -0.11145459215E+02 -0.27491232761E+02  0.10021701000E+03  0.10451525359E+03  0.00000000000E+00 0. -1.
</event>
<event>
 4    1  0.6008802E+002  0.2319781E+02  0.7546771E-02  0.1490029E+00
          2   -1    0    0  502    0  0.00000000000E+00  0.00000000000E+00  0.10741654286E+04  0.10741654286E+04  0.00000000000E+00 0.  1.
         -2   -1    0    0    0  501 -0.00000000000E+00 -0.00000000000E+00 -0.22827214033E+01  0.22827214033E+01  0.00000000000E+00 0. -1.
         21    1    1    2  502  503 -0.21483515368E+02  0.87519767181E+01  0.10114502484E+04  0.10117162367E+04  0.00000000000E+00 0.  1.
         21    1    1    2  503  501  0.21483515368E+02 -0.87519767181E+01  0.60432458783E+02  0.64731913332E+02  0.00000000000E+00 0. -1.
</event>
<event>
 4    1  0.6008802E+002  0.2477185E+02  0.7546771E-02  0.1471372E+00
          2   -1    0    0  502    0  0.00000000000E+00  0.00000000000E+00  0.31416101371E+01  0.31416101371E+01  0.00000000000E+00 0. -1.
         -2   -1    0    0    0  501 -0.00000000000E+00 -0.00000000000E+00 -0.74479886714E+03  0.74479886714E+03  0.00000000000E+00 0.  1.
         21    1    1    2  502  503  0.18147566650E+02 -0.16861509271E+02 -0.49618047833E+02  0.55458050281E+02  0.00000000000E+00 0. -1.
         21    1    1    2  503  501 -0.18147566650E+02  0.16861509271E+02 -0.69203920917E+03  0.69248242699E+03  0.00000000000E+00 0.  1.
</event>
<event>
 4    1  0.6008802E+002  0.3514297E+02  0.7546771E-02  0.1379561E+00
          2   -1    0    0  503    0  0.00000000000E+00  0.00000000000E+00  0.98635299229E+03  0.98635299229E+03  0.00000000000E+00 0.  1.
         -2   -1    0    0    0  501 -0.00000000000E+00 -0.00000000000E+00 -0.14673576879E+01  0.14673576879E+01  0.00000000000E+00 0. -1.
         21    1    1    2  502  501 -0.19856982138E+02  0.28995323895E+02  0.30327685963E+03  0.30530621045E+03  0.00000000000E+00 0. -1.
         21    1    1    2  503  502  0.19856982138E+02 -0.28995323895E+02  0.68160877497E+03  0.68251413953E+03  0.00000000000E+00 0.  1.
</event>
<event>
 4    1  0.6008802E+002  0.2103062E+02  0.7546771E-02  0.1518828E+00
          2   -1    0    0  502    0  0.00000000000E+00  0.00000000000E+00  0.67534613786E+02  0.67534613786E+02  0.00000000000E+00 0.  1.
         -2   -1    0    0    0  501 -0.00000000000E+00 -0.00000000000E+00 -0.12617536671E+03  0.12617536671E+03  0.00000000000E+00 0. -1.
         21    1    1    2  502  503 -0.19253497473E+02  0.84610659377E+01  0.64987529090E+02  0.68305678673E+02  0.00000000000E+00 0.  1.
         21    1    1    2  503  501  0.19253497473E+02 -0.84610659377E+01 -0.12362828202E+03  0.12540430183E+03  0.00000000000E+00 0. -1.
</event>
<event>
 4    1  0.6008802E+002  0.2159863E+02  0.7546771E-02  0.1510887E+00
          2   -1    0    0  503    0  0.00000000000E+00  0.00000000000E+00  0.86236889901E+00  0.86236889901E+00  0.00000000000E+00 0. -1.
         -2   -1    0    0    0  501 -0.00000000000E+00 -0.00000000000E+00 -0.66117461851E+03  0.66117461851E+03  0.00000000000E+00 0.  1.
         21    1    1    2  502  501 -0.21159337827E+02 -0.43339693138E+01 -0.18900451852E+03  0.19023461538E+03  0.00000000000E+00 0. -1.
         21    1    1    2  503  502  0.21159337827E+02  0.43339693138E+01 -0.47130773108E+03  0.47180237202E+03  0.00000000000E+00 0.  1.
</event>
<event>
 4    1  0.6008802E+002  0.2497574E+02  0.7546771E-02  0.1469075E+00
          2   -1    0    0  502    0  0.00000000000E+00  0.00000000000E+00  0.87643692831E+03  0.87643692831E+03  0.00000000000E+00 0.  1.
         -2   -1    0    0    0  501 -0.00000000000E+00 -0.00000000000E+00 -0.14129589663E+01  0.14129589663E+01  0.00000000000E+00 0. -1.
         21    1    1    2  502  503  0.31800265574E+01  0.24772465379E+02  0.74672303283E+03  0.74714059946E+03  0.00000000000E+00 0.  1.
         21    1    1    2  503  501 -0.31800265574E+01 -0.24772465379E+02  0.12830093651E+03  0.13070928781E+03  0.00000000000E+00 0. -1.
</event>
<event>
 4    1  0.6008802E+002  0.5776959E+02  0.7546771E-02  0.1267605E+00
          2   -1    0    0  502    0  0.00000000000E+00  0.00000000000E+00  0.45003436698E+03  0.45003436698E+03  0.00000000000E+00 0.  1.
         -2   -1    0    0    0  501 -0.00000000000E+00 -0.00000000000E+00 -0.14272713248E+02  0.14272713248E+02  0.00000000000E+00 0. -1.
         21    1    1    2  502  503 -0.49563362969E+02 -0.29678260620E+02  0.37879307225E+03  0.38317296053E+03  0.00000000000E+00 0.  1.
         21    1    1    2  503  501  0.49563362969E+02  0.29678260620E+02  0.56968581488E+02  0.81134119697E+02  0.00000000000E+00 0. -1.
</event>
<event>
 4    1  0.6008802E+002  0.2704041E+02  0.7546771E-02  0.1447203E+00
          2   -1    0    0  503    0  0.00000000000E+00  0.00000000000E+00  0.19312116504E+03  0.19312116504E+03  0.00000000000E+00 0. -1.
         -2   -1    0    0    0  501 -0.00000000000E+00 -0.00000000000E+00 -0.47783443331E+01  0.47783443331E+01  0.00000000000E+00 0.  1.
         21    1    1    2  502  501 -0.25177872488E+02  0.98619796462E+01  0.49081808103E+02  0.56037556980E+02  0.00000000000E+00 0. -1.
         21    1    1    2  503  502  0.25177872488E+02 -0.98619796462E+01  0.13926101261E+03  0.14186195240E+03  0.00000000000E+00 0.  1.
</event>
<event>
 4    1  0.6008802E+002  0.3044603E+02  0.7546771E-02  0.1415759E+00
          2   -1    0    0  502    0  0.00000000000E+00  0.00000000000E+00  0.44740520162E+03  0.44740520162E+03  0.00000000000E+00 0.  1.
         -2   -1    0    0    0  501 -0.00000000000E+00 -0.00000000000E+00 -0.20729016172E+01  0.20729016172E+01  0.00000000000E+00 0. -1.
         21    1    1    2  502  503 -0.28010355660E+02  0.11932334878E+02  0.22770560489E+03  0.22973202463E+03  0.00000000000E+00 0.  1.
         21    1    1    2  503  501  0.28010355660E+02 -0.11932334878E+02  0.21762669512E+03  0.21974607862E+03  0.00000000000E+00 0. -1.
</event>
<event>
 4    1  0.6008802E+002  0.4638023E+02  0.7546771E-02  0.1314678E+00
          2   -1    0    0  503    0  0.00000000000E+00  0.00000000000E+00  0.17037062027E+04  0.17037062027E+04  0.00000000000E+00 0. -1.
         -2   -1    0    0    0  501 -0.00000000000E+00 -0.00000000000E+00 -0.14176608466E+01  0.14176608466E+01  0.00000000000E+00 0.  1.
         21    1    1    2  502  501  0.46363905966E+02 -0.12305018134E+01  0.11330923172E+04  0.11340411479E+04  0.00000000000E+00 0.  1.
         21    1    1    2  503  502 -0.46363905966E+02  0.12305018134E+01  0.56919622465E+03  0.57108271561E+03  0.00000000000E+00 0. -1.
</event>
<event>
 4    1  0.6008802E+002  0.2867119E+02  0.7546771E-02  0.1431506E+00
          2   -1    0    0  503    0  0.00000000000E+00  0.00000000000E+00  0.15515647852E+03  0.15515647852E+03  0.00000000000E+00 0. -1.
         -2   -1    0    0    0  501 -0.00000000000E+00 -0.00000000000E+00 -0.84247394083E+01  0.84247394083E+01  0.00000000000E+00 0.  1.
         21    1    1    2  502  501 -0.28627179923E+02  0.15880221263E+01  0.23539081655E+02  0.37096167049E+02  0.00000000000E+00 0.  1.
         21    1    1    2  503  502  0.28627179923E+02 -0.15880221263E+01  0.12319265746E+03  0.12648505088E+03  0.00000000000E+00 0. -1.
</event>
<event>
 4    1  0.6008802E+002  0.2253297E+02  0.7546771E-02  0.1498447E+00
          2   -1    0    0  502    0  0.00000000000E+00  0.00000000000E+00  0.11837977551E+02  0.11837977551E+02  0.00000000000E+00 0. -1.
         -2   -1    0    0    0  501 -0.00000000000E+00 -0.00000000000E+00 -0.16261077083E+03  0.16261077083E+03  0.00000000000E+00 0.  1.
         21    1    1    2  502  503 -0.22125200504E+02  0.42673631442E+01 -0.54405916368E+00  0.22539540499E+02  0.00000000000E+00 0. -1.
         21    1    1    2  503  501  0.22125200504E+02 -0.42673631442E+01 -0.15022873412E+03  0.15190920789E+03  0.00000000000E+00 0.  1.
</event>
<event>
 4    1  0.6008802E+002  0.2641577E+02  0.7546771E-02  0.1453567E+00
          2   -1    0    0  503    0  0.00000000000E+00  0.00000000000E+00  0.31350537002E+02  0.31350537002E+02  0.00000000000E+00 0.  1.
         -2   -1    0    0    0  501 -0.00000000000E+00 -0.00000000000E+00 -0.24546331107E+02  0.24546331107E+02  0.00000000000E+00 0. -1.
         21    1    1    2  502  501 -0.10150959102E+02 -0.24387517983E+02 -0.51317578921E+01  0.26909625474E+02  0.00000000000E+00 0. -1.
         21    1    1    2  503  502  0.10150959102E+02  0.24387517983E+02  0.11935963787E+02  0.28987242635E+02  0.00000000000E+00 0.  1.
</event>
<event>
 4    1  0.6008802E+002  0.2183680E+02  0.7546771E-02  0.1507645E+00
          2   -1    0    0  503    0  0.00000000000E+00  0.00000000000E+00  0.75339757567E+01  0.75339757567E+01  0.00000000000E+00 0.  1.
         -2   -1    0    0    0  501 -0.00000000000E+00 -0.00000000000E+00 -0.11228744321E+04  0.11228744321E+04  0.00000000000E+00 0. -1.
         21    1    1    2  502  501 -0.43001737339E+01  0.21409216029E+02 -0.11067140491E+04  0.11069294613E+04  0.00000000000E+00 0. -1.
         21    1    1    2  503  502  0.43001737339E+01 -0.21409216029E+02 -0.86264072434E+01  0.23478946464E+02  0.00000000000E+00 0.  1.
</event>
<event>
 4    1  0.6008802E+002  0.2189052E+02  0.7546771E-02  0.1506921E+00
          2   -1    0    0  502    0  0.00000000000E+00  0.00000000000E+00  0.36454272867E+03  0.36454272867E+03  0.00000000000E+00 0.  1.
         -2   -1    0    0    0  501 -0.00000000000E+00 -0.00000000000E+00 -0.35730546661E+01  0.35730546661E+01  0.00000000000E+00 0. -1.
         21    1    1    2  502  503 -0.20462880511E+02  0.77759386398E+01  0.32682011938E+03  0.32755241585E+03  0.00000000000E+00 0.  1.
         21    1    1    2  503  501  0.20462880511E+02 -0.77759386398E+01  0.34149554631E+02  0.40563367489E+02  0.00000000000E+00 0. -1.
</event>
<event>
 4    1  0.6008802E+002  0.5141418E+02  0.7546771E-02  0.1292155E+00
          2   -1    0    0  503    0  0.00000000000E+00  0.00000000000E+00  0.71130384715E+03  0.71130384715E+03  0.00000000000E+00 0. -1.
         -2   -1    0    0    0  501 -0.00000000000E+00 -0.00000000000E+00 -0.37165204363E+01  0.37165204363E+01  0.00000000000E+00 0.  1.
         21    1    1    2  502  501  0.18998986503E+02 -0.47775059592E+02  0.35655297905E+03  0.36024081484E+03  0.00000000000E+00 0. -1.
         21    1    1    2  503  502 -0.18998986503E+02  0.47775059592E+02  0.35103434767E+03  0.35477955275E+03  0.00000000000E+00 0.  1.
</event>
<event>
 4    1  0.6008802E+002  0.5850879E+02  0.7546771E-02  0.1264985E+00
          2   -1    0    0  503    0  0.00000000000E+00  0.00000000000E+00  0.76815140515E+03  0.76815140515E+03  0.00000000000E+00 0.  1.
         -2   -1    0    0    0  501 -0.00000000000E+00 -0.00000000000E+00 -0.46161528000E+02  0.46161528000E+02  0.00000000000E+00 0. -1.
         21    1    1    2  502  501  0.47774190184E+02  0.33777293581E+02 -0.26008991609E+02  0.64029262481E+02  0.00000000000E+00 0. -1.
         21    1    1    2  503  502 -0.47774190184E+02 -0.33777293581E+02  0.74799886876E+03  0.75028367067E+03  0.00000000000E+00 0.  1.
</event>
<event>
 4    1  0.6008802E+002  0.2009723E+02  0.7546771E-02  0.1532555E+00
          2   -1    0    0  503    0  0.00000000000E+00  0.00000000000E+00  0.73600865316E+00  0.73600865316E+00  0.00000000000E+00 0. -1.
         -2   -1    0    0    0  501 -0.00000000000E+00 -0.00000000000E+00 -0.65988751687E+03  0.65988751687E+03  0.00000000000E+00 0.  1.
         21    1    1    2  502  501  0.14661191258E+02 -0.13745833225E+02 -0.46512060516E+03  0.46555458950E+03  0.00000000000E+00 0.  1.
         21    1    1    2  503  502 -0.14661191258E+02  0.13745833225E+02 -0.19403090305E+03  0.19506893602E+03  0.00000000000E+00 0. -1.
</event>
<event>
 4    1  0.6008802E+002  0.3204170E+02  0.7546771E-02  0.1402646E+00
          2   -1    0    0  502    0  0.00000000000E+00  0.00000000000E+00  0.43487242058E+03  0.43487242058E+03  0.00000000000E+00 0.  1.
         -2   -1    0    0    0  501 -0.00000000000E+00 -0.00000000000E+00 -0.23807392416E+01  0.23807392416E+01  0.00000000000E+00 0. -1.
         21    1    1    2  502  503 -0.10807101763E+02  0.30164165301E+02  0.19626508543E+03  0.19886340557E+03  0.00000000000E+00 0. -1.
         21    1    1    2  503  501  0.10807101763E+02 -0.30164165301E+02  0.23622659591E+03  0.23838975425E+03  0.00000000000E+00 0.  1.
</event>
<event>
 4    1  0.6008802E+002  0.2459370E+02  0.7546771E-02  0.1473400E+00
          2   -1    0    0  503    0  0.00000000000E+00  0.00000000000E+00  0.11131909712E+04  0.11131909712E+04  0.00000000000E+00 0.  1.
         -2   -1    0    0    0  501 -0.00000000000E+00 -0.00000000000E+00 -0.80560676358E+00  0.80560676358E+00  0.00000000000E+00 0. -1.
         21    1    1    2  502  501  0.67412988358E+01  0.23651742440E+02  0.23839014760E+03  0.23965540366E+03  0.00000000000E+00 0. -1.
         21    1    1    2  503  502 -0.67412988358E+01 -0.23651742440E+02  0.87399521683E+03  0.87434117430E+03  0.00000000000E+00 0.  1.
</event>
<event>
 4    1  0.6008802E+002  0.2183315E+02  0.7546771E-02  0.1507694E+00
          2   -1    0    0  502    0  0.00000000000E+00  0.00000000000E+00  0.40322435471E+03  0.40322435471E+03  0.00000000000E+00 0.  1.
         -2   -1    0    0    0  501 -0.00000000000E+00 -0.00000000000E+00 -0.11969090945E+01  0.11969090945E+01  0.00000000000E+00 0. -1.
         21    1    1    2  502  503  0.21725383870E+02  0.21665494461E+01  0.22344071255E+03  0.22450487359E+03  0.00000000000E+00 0. -1.
         21    1    1    2  503  501 -0.21725383870E+02 -0.21665494461E+01  0.17858673306E+03  0.17991639021E+03  0.00000000000E+00 0.  1.
</event>
<event>
 4    1  0.6008802E+002  0.2928429E+02  0.7546771E-02  0.1425920E+00
          2   -1    0    0  502    0  0.00000000000E+00  0.00000000000E+00  0.13934930778E+04  0.13934930778E+04  0.00000000000E+00 0. -1.
         -2   -1    0    0    0  501 -0.00000000000E+00 -0.00000000000E+00 -0.12997211512E+01  0.12997211512E+01  0.00000000000E+00 0.  1.
         21    1    1    2  502  503  0.21128621920E+02  0.20276858995E+02  0.12021326541E+04  0.12024892880E+04  0.00000000000E+00 0. -1.
         21    1    1    2  503  501 -0.21128621920E+02 -0.20276858995E+02  0.19006070254E+03  0.19230351096E+03  0.00000000000E+00 0.  1.
</event>
<event>
 4    1  0.6008802E+002  0.2630289E+02  0.7546771E-02  0.1454739E+00
          2   -1    0    0  503    0  0.00000000000E+00  0.00000000000E+00  0.25139908708E+02  0.25139908708E+02  0.00000000000E+00 0. -1.
         -2   -1    0    0    0  501 -0.00000000000E+00 -0.00000000000E+00 -0.33833316355E+02  0.33833316355E+02  0.00000000000E+00 0.  1.
         21    1    1    2  502  501 -0.57617145714E+01 -0.25664072648E+02  0.83910467509E+01  0.27608905180E+02  0.00000000000E+00 0. -1.
         21    1    1    2  503  502  0.57617145714E+01  0.25664072648E+02 -0.17084454398E+02  0.31364319883E+02  0.00000000000E+00 0.  1.
</event>
<event>
 4    1  0.6008802E+002  0.2169426E+02  0.7546771E-02  0.1509579E+00
          2   -1    0    0  502    0  0.00000000000E+00  0.00000000000E+00  0.34889451888E+03  0.34889451888E+03  0.00000000000E+00 0. -1.
         -2   -1    0    0    0  501 -0.00000000000E+00 -0.00000000000E+00 -0.13492617545E+01  0.13492617545E+01  0.00000000000E+00 0.  1.
         21    1    1    2  502  503  0.41757902642E+01  0.21288582063E+02  0.17643837017E+03  0.17776709319E+03  0.00000000000E+00 0.  1.
         21    1    1    2  503  501 -0.41757902642E+01 -0.21288582063E+02  0.17110688695E+03  0.17247668745E+03  0.00000000000E+00 0. -1.
</event>
<event>
 4    1  0.6008802E+002  0.2132158E+02  0.7546771E-02  0.1514723E+00
          2   -1    0    0  502    0  0.00000000000E+00  0.00000000000E+00  0.17194037275E+03  0.17194037275E+03  0.00000000000E+00 0. -1.
         -2   -1    0    0    0  501 -0.00000000000E+00 -0.00000000000E+00 -0.26454343600E+01  0.26454343600E+01  0.00000000000E+00 0.  1.
         21    1    1    2  502  503  0.17758542058E+02 -0.11800161190E+02  0.82611846288E+02  0.85318970734E+02  0.00000000000E+00 0.  1.
         21    1    1    2  503  501 -0.17758542058E+02  0.11800161190E+02  0.86683092106E+02  0.89266836379E+02  0.00000000000E+00 0. -1.
</event>
<event>
 4    1  0.6008802E+002  0.2156371E+02  0.7546771E-02  0.1511367E+00
          2   -1    0    0  503    0  0.00000000000E+00  0.00000000000E+00  0.12150800106E+04  0.12150800106E+04  0.00000000000E+00 0.  1.
         -2   -1    0    0    0  501 -0.00000000000E+00 -0.00000000000E+00 -0.16991128410E+02  0.16991128410E+02  0.00000000000E+00 0. -1.
         21    1    1    2  502  501 -0.19360637050E+02 -0.94952299491E+01 -0.10014236268E+02  0.23775588043E+02  0.00000000000E+00 0. -1.
         21    1    1    2  503  502  0.19360637050E+02  0.94952299491E+01  0.12081031184E+04  0.12082955509E+04  0.00000000000E+00 0.  1.
</event>
<event>
 4    1  0.6008802E+002  0.3612165E+02  0.7546771E-02  0.1372845E+00
          2   -1    0    0  502    0  0.00000000000E+00  0.00000000000E+00  0.97228031226E+03  0.97228031226E+03  0.00000000000E+00 0. -1.
         -2   -1    0    0    0  501 -0.00000000000E+00 -0.00000000000E+00 -0.15307852995E+01  0.15307852995E+01  0.00000000000E+00 0.  1.
         21    1    1    2  502  503 -0.26215716478E+02 -0.24849739208E+02  0.65637764585E+03  0.65737081416E+03  0.00000000000E+00 0. -1.
         21    1    1    2  503  501  0.26215716478E+02  0.24849739208E+02  0.31437188111E+03  0.31644028340E+03  0.00000000000E+00 0.  1.
</event>
<event>
 4    1  0.6008802E+002  0.2395126E+02  0.7546771E-02  0.1480886E+00
          2   -1    0    0  502    0  0.00000000000E+00  0.00000000000E+00  0.11092921764E+04  0.11092921764E+04  0.00000000000E+00 0.  1.
         -2   -1    0    0    0  501 -0.00000000000E+00 -0.00000000000E+00 -0.61326776782E+00  0.61326776782E+00  0.00000000000E+00 0. -1.
         21    1    1    2  502  503  0.15467147278E+02  0.18287438611E+02  0.77404843580E+03  0.77441890732E+03  0.00000000000E+00 0.  1.
         21    1    1    2  503  501 -0.15467147278E+02 -0.18287438611E+02  0.33463047288E+03  0.33548653689E+03  0.00000000000E+00 0. -1.
</event>
<event>
 4    1  0.6008802E+002  0.2413397E+02  0.7546771E-02  0.1478729E+00
          2   -1    0    0  502    0  0.00000000000E+00  0.00000000000E+00  0.66133712338E+02  0.66133712338E+02  0.00000000000E+00 0. -1.
         -2   -1    0    0    0  501 -0.00000000000E+00 -0.00000000000E+00 -0.11066087729E+02  0.11066087729E+02  0.00000000000E+00 0.  1.
         21    1    1    2  502  503 -0.13336737758E+01  0.24097091871E+02  0.44973660962E+02  0.51039971617E+02  0.00000000000E+00 0. -1.
         21    1    1    2  503  501  0.13336737758E+01 -0.24097091871E+02  0.10093963648E+02  0.26159828450E+02  0.00000000000E+00 0.  1.
</event>
<event>
 4    1  0.6008802E+002  0.4011076E+02  0.7546771E-02  0.1347838E+00
          2   -1    0    0  502    0  0.00000000000E+00  0.00000000000E+00  0.27106236211E+02  0.27106236211E+02  0.00000000000E+00 0. -1.
         -2   -1    0    0    0  501 -0.00000000000E+00 -0.00000000000E+00 -0.82288184237E+02  0.82288184237E+02  0.00000000000E+00 0.  1.
         21    1    1    2  502  503  0.40103854811E+02 -0.74413111969E+00  0.12848785898E+01  0.40131332083E+02  0.00000000000E+00 0. -1.
         21    1    1    2  503  501 -0.40103854811E+02  0.74413111969E+00 -0.56466826616E+02  0.69263088365E+02  0.00000000000E+00 0.  1.
</event>
<event>
 4    1  0.6008802E+002  0.3976725E+02  0.7546771E-02  0.1349855E+00
          2   -1    0    0  502    0  0.00000000000E+00  0.00000000000E+00  0.44561137574E+03  0.44561137574E+03  0.00000000000E+00 0.  1.
         -2   -1    0    0    0  501 -0.00000000000E+00 -0.00000000000E+00 -0.53202764491E+01  0.53202764491E+01  0.00000000000E+00 0. -1.
         21    1    1    2  502  503 -0.30626282772E+02 -0.25366613218E+02  0.35024274797E+03  0.35249314429E+03  0.00000000000E+00 0.  1.
         21    1    1    2  503  501  0.30626282772E+02  0.25366613218E+02  0.90048351314E+02  0.98438507897E+02  0.00000000000E+00 0. -1.
</event>
<event>
 4    1  0.6008802E+002  0.2233378E+02  0.7546771E-02  0.1501038E+00
          2   -1    0    0  503    0  0.00000000000E+00  0.00000000000E+00  0.28675115831E+01  0.28675115831E+01  0.00000000000E+00 0. -1.
         -2   -1    0    0    0  501 -0.00000000000E+00 -0.00000000000E+00 -0.39893980603E+03  0.39893980603E+03  0.00000000000E+00 0.  1.
         21    1    1    2  502  501  0.21613876950E+02 -0.56247693857E+01 -0.34891124944E+03  0.34962531043E+03  0.00000000000E+00 0.  1.
         21    1    1    2  503  502 -0.21613876950E+02  0.56247693857E+01 -0.47161044999E+02  0.52182007175E+02  0.00000000000E+00 0. -1.
</event>
<event>
 4    1  0.6008802E+002  0.8094664E+02  0.7546771E-02  0.1201667E+00
          2   -1    0    0  502    0  0.00000000000E+00  0.00000000000E+00  0.17959229706E+04  0.17959229706E+04  0.00000000000E+00 0.  1.
         -2   -1    0    0    0  501 -0.00000000000E+00 -0.00000000000E+00 -0.86721614127E+01  0.86721614127E+01  0.00000000000E+00 0. -1.
         21    1    1    2  502  503 -0.62054531201E+01 -0.80708426302E+02  0.15803742030E+04  0.15824458850E+04  0.00000000000E+00 0.  1.
         21    1    1    2  503  501  0.62054531201E+01  0.80708426302E+02  0.20687660629E+03  0.22214924702E+03  0.00000000000E+00 0. -1.
</event>
<event>
 4    1  0.6008802E+002  0.2025929E+02  0.7546771E-02  0.1530108E+00
          2   -1    0    0  502    0  0.00000000000E+00  0.00000000000E+00  0.14835391436E+04  0.14835391436E+04  0.00000000000E+00 0. -1.
         -2   -1    0    0    0  501 -0.00000000000E+00 -0.00000000000E+00 -0.28340225501E+00  0.28340225501E+00  0.00000000000E+00 0.  1.
         21    1    1    2  502  503 -0.11113778503E+02 -0.16938791414E+02  0.62721039069E+03  0.62753749921E+03  0.00000000000E+00 0.  1.
         21    1    1    2  503  501  0.11113778503E+02  0.16938791414E+02  0.85604535064E+03  0.85628504663E+03  0.00000000000E+00 0. -1.
</event>
<event>
 4    1  0.6008802E+002  0.3091269E+02  0.7546771E-02  0.1411827E+00
          2   -1    0    0  502    0  0.00000000000E+00  0.00000000000E+00  0.23157178072E+01  0.23157178072E+01  0.00000000000E+00 0.  1.
         -2   -1    0    0    0  501 -0.00000000000E+00 -0.00000000000E+00 -0.43504908103E+03  0.43504908103E+03  0.00000000000E+00 0. -1.
         21    1    1    2  502  503 -0.12104825158E+02 -0.28444112461E+02 -0.16675273067E+03  0.16959383100E+03  0.00000000000E+00 0.  1.
         21    1    1    2  503  501  0.12104825158E+02  0.28444112461E+02 -0.26598063255E+03  0.26777096784E+03  0.00000000000E+00 0. -1.
</event>
<event>
 4    1  0.6008802E+002  0.2181245E+02  0.7546771E-02  0.1507974E+00
          2   -1    0    0  503    0  0.00000000000E+00  0.00000000000E+00  0.75256837515E+01  0.75256837515E+01  0.00000000000E+00 0. -1.
         -2   -1    0    0    0  501 -0.00000000000E+00 -0.00000000000E+00 -0.93984910605E+02  0.93984910605E+02  0.00000000000E+00 0.  1.
         21    1    1    2  502  501  0.17489539754E+02 -0.13034529598E+02 -0.72267932631E+02  0.75487992750E+02  0.00000000000E+00 0.  1.
         21    1    1    2  503  502 -0.17489539754E+02  0.13034529598E+02 -0.14191294222E+02  0.26022601606E+02  0.00000000000E+00 0. -1.
</event>
<event>
 4    1  0.6008802E+002  0.2110087E+02  0.7546771E-02  0.1517830E+00
          2   -1    0    0  503    0  0.00000000000E+00  0.00000000000E+00  0.14469250073E+04  0.14469250073E+04  0.00000000000E+00 0.  1.
         -2   -1    0    0    0  501 -0.00000000000E+00 -0.00000000000E+00 -0.12010028922E+01  0.12010028922E+01  0.00000000000E+00 0. -1.
         21    1    1    2  502  501  0.68352429145E+01 -0.19963116934E+02  0.98410034662E+02  0.10064681568E+03  0.00000000000E+00 0. -1.
         21    1    1    2  503  502 -0.68352429145E+01  0.19963116934E+02  0.13473139697E+04  0.13474791945E+04  0.00000000000E+00 0.  1.
</event>
<event>
 4    1  0.6008802E+002  0.2209442E+02  0.7546771E-02  0.1504194E+00
          2   -1    0    0  502    0  0.00000000000E+00  0.00000000000E+00  0.24712713266E+01  0.24712713266E+01  0.00000000000E+00 0. -1.
         -2   -1    0    0    0  501 -0.00000000000E+00 -0.00000000000E+00 -0.45596588292E+03  0.45596588292E+03  0.00000000000E+00 0.  1.
         21    1    1    2  502  503 -0.57048121765E+01 -0.21345226541E+02 -0.54181197520E+02  0.58512953632E+02  0.00000000000E+00 0. -1.
         21    1    1    2  503  501  0.57048121765E+01  0.21345226541E+02 -0.39931341408E+03  0.39992420062E+03  0.00000000000E+00 0.  1.
</event>
<event>
 4    1  0.6008802E+002  0.2580446E+02  0.7546771E-02  0.1460002E+00
          2   -1    0    0  503    0  0.00000000000E+00  0.00000000000E+00  0.24481639109E+02  0.24481639109E+02  0.00000000000E+00 0.  1.
         -2   -1    0    0    0  501 -0.00000000000E+00 -0.00000000000E+00 -0.48113858126E+02  0.48113858126E+02  0.00000000000E+00 0. -1.
         21    1    1    2  502  501 -0.25710530576E+02 -0.21997567818E+01 -0.35747862615E+02  0.44088320380E+02  0.00000000000E+00 0. -1.
         21    1    1    2  503  502  0.25710530576E+02  0.21997567818E+01  0.12115643598E+02  0.28507176854E+02  0.00000000000E+00 0.  1.
</event>
<event>
 4    1  0.6008802E+002  0.2597518E+02  0.7546771E-02  0.1458183E+00
          2   -1    0    0  503    0  0.00000000000E+00  0.00000000000E+00  0.15663609171E+02  0.15663609171E+02  0.00000000000E+00 0.  1.
         -2   -1    0    0    0  501 -0.00000000000E+00 -0.00000000000E+00 -0.49111992299E+02  0.49111992299E+02  0.00000000000E+00 0. -1.
         21    1    1    2  502  501 -0.25963484875E+02  0.77947168849E+00 -0.28079465895E+02  0.38251359818E+02  0.00000000000E+00 0. -1.
         21    1    1    2  503  502  0.25963484875E+02 -0.77947168849E+00 -0.53689172330E+01  0.26524241652E+02  0.00000000000E+00 0.  1.
</event>
<event>
 4    1  0.6008802E+002  0.3724201E+02  0.7546771E-02  0.1365452E+00
          2   -1    0    0  503    0  0.00000000000E+00  0.00000000000E+00  0.14962276168E+04  0.14962276168E+04  0.00000000000E+00 0.  1.
         -2   -1    0    0    0  501 -0.00000000000E+00 -0.00000000000E+00 -0.55987285810E+01  0.55987285810E+01  0.00000000000E+00 0. -1.
         21    1    1    2  502  501  0.32737533090E+02 -0.17754465266E+02  0.59376334183E+02  0.70089344202E+02  0.00000000000E+00 0. -1.
         21    1    1    2  503  502 -0.32737533090E+02  0.17754465266E+02  0.14312525540E+04  0.14317370012E+04  0.00000000000E+00 0.  1.
</event>
<event>
 4    1  0.6008802E+002  0.2428947E+02  0.7546771E-02  0.1476911E+00
          2   -1    0    0  502    0  0.00000000000E+00  0.00000000000E+00  0.96878224730E+01  0.96878224730E+01  0.00000000000E+00 0.  1.
         -2   -1    0    0    0  501 -0.00000000000E+00 -0.00000000000E+00 -0.61342783415E+02  0.61342783415E+02  0.00000000000E+00 0. -1.
         21    1    1    2  502  503  0.15835092108E+02  0.18418147636E+02 -0.22806559677E+02  0.33318425363E+02  0.00000000000E+00 0. -1.
         21    1    1    2  503  501 -0.15835092108E+02 -0.18418147636E+02 -0.28848401265E+02  0.37712180525E+02  0.00000000000E+00 0.  1.
</event>
<event>
 4    1  0.6008802E+002  0.2212079E+02  0.7546771E-02  0.1503844E+00
          2   -1    0    0  502    0  0.00000000000E+00  0.00000000000E+00  0.78752142501E+03  0.78752142501E+03  0.00000000000E+00 0.  1.
         -2   -1    0    0    0  501 -0.00000000000E+00 -0.00000000000E+00 -0.62416175298E+00  0.62416175298E+00  0.00000000000E+00 0. -1.
         21    1    1    2  502  503  0.11596335703E+02  0.18837581798E+02  0.36701742882E+03  0.36768345427E+03  0.00000000000E+00 0. -1.
         21    1    1    2  503  501 -0.11596335703E+02 -0.18837581798E+02  0.41987983444E+03  0.42046213249E+03  0.00000000000E+00 0.  1.
</event>
<event>
 4    1  0.6008802E+002  0.2226839E+02  0.7546771E-02  0.1501895E+00
          2   -1    0    0  503    0  0.00000000000E+00  0.00000000000E+00  0.13969395623E+04  0.13969395623E+04  0.00000000000E+00 0. -1.
         -2   -1    0    0    0  501 -0.00000000000E+00 -0.00000000000E+00 -0.15576451674E+01  0.15576451674E+01  0.00000000000E+00 0.  1.
         21    1    1    2  502  501 -0.14213464987E+02  0.17142309950E+02  0.83264011027E+02  0.86190352764E+02  0.00000000000E+00 0.  1.
         21    1    1    2  503  502  0.14213464987E+02 -0.17142309950E+02  0.13121179061E+04  0.13123068547E+04  0.00000000000E+00 0. -1.
</event>
<event>
 4    1  0.6008802E+002  0.8294027E+02  0.7546771E-02  0.1197181E+00
          2   -1    0    0  503    0  0.00000000000E+00  0.00000000000E+00  0.39260034176E+03  0.39260034176E+03  0.00000000000E+00 0. -1.
         -2   -1    0    0    0  501 -0.00000000000E+00 -0.00000000000E+00 -0.26188728299E+02  0.26188728299E+02  0.00000000000E+00 0.  1.
         21    1    1    2  502  501  0.28936731781E+02  0.77728717165E+02  0.62746806050E+02  0.10400119993E+03  0.00000000000E+00 0.  1.
         21    1    1    2  503  502 -0.28936731781E+02 -0.77728717165E+02  0.30366480741E+03  0.31478787013E+03  0.00000000000E+00 0. -1.
</event>
<event>
 4    1  0.6008802E+002  0.2858934E+02  0.7546771E-02  0.1432265E+00
          2   -1    0    0  503    0  0.00000000000E+00  0.00000000000E+00  0.25993926151E+02  0.25993926151E+02  0.00000000000E+00 0. -1.
         -2   -1    0    0    0  501 -0.00000000000E+00 -0.00000000000E+00 -0.48627598617E+02  0.48627598617E+02  0.00000000000E+00 0.  1.
         21    1    1    2  502  501 -0.26300142141E+02  0.11209495110E+02 -0.33496303552E+02  0.44038081348E+02  0.00000000000E+00 0.  1.
         21    1    1    2  503  502  0.26300142141E+02 -0.11209495110E+02  0.10862631086E+02  0.30583443419E+02  0.00000000000E+00 0. -1.
</event>
<event>
 4    1  0.6008802E+002  0.2192921E+02  0.7546771E-02  0.1506400E+00
          2   -1    0    0  503    0  0.00000000000E+00  0.00000000000E+00  0.80023262405E+02  0.80023262405E+02  0.00000000000E+00 0. -1.
         -2   -1    0    0    0  501 -0.00000000000E+00 -0.00000000000E+00 -0.27179985029E+02  0.27179985029E+02  0.00000000000E+00 0.  1.
         21    1    1    2  502  501 -0.21403476704E+02 -0.47729816682E+01 -0.20884769737E+02  0.30283060875E+02  0.00000000000E+00 0.  1.
         21    1    1    2  503  502  0.21403476704E+02  0.47729816682E+01  0.73728047113E+02  0.76920186558E+02  0.00000000000E+00 0. -1.
</event>
<event>
 4    1  0.6008802E+002  0.2081270E+02  0.7546771E-02  0.1521956E+00
          2   -1    0    0  503    0  0.00000000000E+00  0.00000000000E+00  0.67697741359E+03  0.67697741359E+03  0.00000000000E+00 0. -1.
         -2   -1    0    0    0  501 -0.00000000000E+00 -0.00000000000E+00 -0.10810146293E+03  0.10810146293E+03  0.00000000000E+00 0.  1.
         21    1    1    2  502  501  0.15947382681E+02  0.13373463025E+02 -0.10693801078E+03  0.10894451191E+03  0.00000000000E+00 0.  1.
         21    1    1    2  503  502 -0.15947382681E+02 -0.13373463025E+02  0.67581396144E+03  0.67613436461E+03  0.00000000000E+00 0. -1.
</event>
<event>
 4    1  0.6008802E+002  0.2037053E+02  0.7546771E-02  0.1528445E+00
          2   -1    0    0  502    0  0.00000000000E+00  0.00000000000E+00  0.96261746228E+02  0.96261746228E+02  0.00000000000E+00 0.  1.
         -2   -1    0    0    0  501 -0.00000000000E+00 -0.00000000000E+00 -0.43448771193E+01  0.43448771193E+01  0.00000000000E+00 0. -1.
         21    1    1    2  502  503 -0.46012852408E+01  0.19844054211E+02  0.50417978103E+02  0.54377668480E+02  0.00000000000E+00 0.  1.
         21    1    1    2  503  501  0.46012852408E+01 -0.19844054211E+02  0.41498891006E+02  0.46228954867E+02  0.00000000000E+00 0. -1.
</event>
<event>
 4    1  0.6008802E+002  0.2096800E+02  0.7546771E-02  0.1519722E+00
          2   -1    0    0  502    0  0.00000000000E+00  0.00000000000E+00  0.64125564168E+03  0.64125564168E+03  0.00000000000E+00 0.  1.
         -2   -1    0    0    0  501 -0.00000000000E+00 -0.00000000000E+00 -0.77566232643E+00  0.77566232643E+00  0.00000000000E+00 0. -1.
         21    1    1    2  502  503  0.20957918847E+02  0.65028527625E+00  0.42961420277E+03  0.43012558685E+03  0.00000000000E+00 0.  1.
         21    1    1    2  503  501 -0.20957918847E+02 -0.65028527625E+00  0.21086577658E+03  0.21190571716E+03  0.00000000000E+00 0. -1.
</event>
<event>
 4    1  0.6008802E+002  0.1186054E+03  0.7546771E-02  0.1134980E+00
          2   -1    0    0  502    0  0.00000000000E+00  0.00000000000E+00  0.63072315325E+03  0.63072315325E+03  0.00000000000E+00 0. -1.
         -2   -1    0    0    0  501 -0.00000000000E+00 -0.00000000000E+00 -0.19760112975E+03  0.19760112975E+03  0.00000000000E+00 0.  1.
         21    1    1    2  502  503  0.70874982117E+02  0.95099780023E+02  0.60665019630E+03  0.61813565818E+03  0.00000000000E+00 0. -1.
         21    1    1    2  503  501 -0.70874982117E+02 -0.95099780023E+02 -0.17352817279E+03  0.21018862482E+03  0.00000000000E+00 0.  1.
</event>
<event>
 4    1  0.6008802E+002  0.2149526E+02  0.7546771E-02  0.1512310E+00
          2   -1    0    0  503    0  0.00000000000E+00  0.00000000000E+00  0.65630158616E+01  0.65630158616E+01  0.00000000000E+00 0.  1.
         -2   -1    0    0    0  501 -0.00000000000E+00 -0.00000000000E+00 -0.10120116107E+03  0.10120116107E+03  0.00000000000E+00 0. -1.
         21    1    1    2  502  501  0.20759785175E+02  0.55747319390E+01 -0.77044251337E+02  0.79986642515E+02  0.00000000000E+00 0. -1.
         21    1    1    2  503  502 -0.20759785175E+02 -0.55747319390E+01 -0.17593893871E+02  0.27777534416E+02  0.00000000000E+00 0.  1.
</event>
<event>
 4    1  0.6008802E+002  0.2093659E+02  0.7546771E-02  0.1520172E+00
          2   -1    0    0  502    0  0.00000000000E+00  0.00000000000E+00  0.28095955975E+01  0.28095955975E+01  0.00000000000E+00 0. -1.
         -2   -1    0    0    0  501 -0.00000000000E+00 -0.00000000000E+00 -0.17641659269E+03  0.17641659269E+03  0.00000000000E+00 0.  1.
         21    1    1    2  502  503 -0.19878853976E+02 -0.65705494253E+01 -0.11727729791E+03  0.11913146335E+03  0.00000000000E+00 0.  1.
         21    1    1    2  503  501  0.19878853976E+02  0.65705494253E+01 -0.56329699178E+02  0.60094724932E+02  0.00000000000E+00 0. -1.
</event>
<event>
 4    1  0.6008802E+002  0.2935338E+02  0.7546771E-02  0.1425300E+00
          2   -1    0    0  502    0  0.00000000000E+00  0.00000000000E+00  0.55617393039E+02  0.55617393039E+02  0.00000000000E+00 0. -1.
         -2   -1    0    0    0  501 -0.00000000000E+00 -0.00000000000E+00 -0.32931505379E+02  0.32931505379E+02  0.00000000000E+00 0.  1.
         21    1    1    2  502  503  0.27071147620E+02  0.11347857784E+02  0.43562184049E+02  0.52528894800E+02  0.00000000000E+00 0. -1.
         21    1    1    2  503  501 -0.27071147620E+02 -0.11347857784E+02 -0.20876296389E+02  0.36020003618E+02  0.00000000000E+00 0.  1.
</event>
<event>
 4    1  0.6008802E+002  0.2483273E+02  0.7546771E-02  0.1470683E+00
          2   -1    0    0  503    0  0.00000000000E+00  0.00000000000E+00  0.38547225092E+03  0.38547225092E+03  0.00000000000E+00 0.  1.
         -2   -1    0    0    0  501 -0.00000000000E+00 -0.00000000000E+00 -0.22005769529E+01  0.22005769529E+01  0.00000000000E+00 0. -1.
         21    1    1    2  502  501  0.19557277330E+02  0.15302855092E+02  0.90352761686E+02  0.93703180388E+02  0.00000000000E+00 0. -1.
         21    1    1    2  503  502 -0.19557277330E+02 -0.15302855092E+02  0.29291891228E+03  0.29396964748E+03  0.00000000000E+00 0.  1.
</event>
<event>
 4    1  0.6008802E+002  0.2306779E+02  0.7546771E-02  0.1491649E+00
          2   -1    0    0  503    0  0.00000000000E+00  0.00000000000E+00  0.12688547076E+03  0.12688547076E+03  0.00000000000E+00 0.  1.
         -2   -1    0    0    0  501 -0.00000000000E+00 -0.00000000000E+00 -0.13340228801E+02  0.13340228801E+02  0.00000000000E+00 0. -1.
         21    1    1    2  502  501  0.12951005777E+02 -0.19089122208E+02 -0.12828926250E+01  0.23103440237E+02  0.00000000000E+00 0. -1.
         21    1    1    2  503  502 -0.12951005777E+02  0.19089122208E+02  0.11482813458E+03  0.11712225933E+03  0.00000000000E+00 0.  1.
</event>
<event>
 4    1  0.6008802E+002  0.4681783E+02  0.7546771E-02  0.1312592E+00
          2   -1    0    0  502    0  0.00000000000E+00  0.00000000000E+00  0.11574614114E+04  0.11574614114E+04  0.00000000000E+00 0.  1.
         -2   -1    0    0    0  501 -0.00000000000E+00 -0.00000000000E+00 -0.79603845659E+01  0.79603845659E+01  0.00000000000E+00 0. -1.
         21    1    1    2  502  503 -0.37485909692E+00  0.46816328231E+02  0.10834497287E+04  0.10844607986E+04  0.00000000000E+00 0.  1.
         21    1    1    2  503  501  0.37485909692E+00 -0.46816328231E+02  0.66051298175E+02  0.80960997394E+02  0.00000000000E+00 0. -1.
</event>
<event>
 4    1  0.6008802E+002  0.7404247E+02  0.7546771E-02  0.1218397E+00
          2   -1    0    0  502    0  0.00000000000E+00  0.00000000000E+00  0.23565271293E+04  0.23565271293E+04  0.00000000000E+00 0. -1.
         -2   -1    0    0    0  501 -0.00000000000E+00 -0.00000000000E+00 -0.41243400451E+01  0.41243400451E+01  0.00000000000E+00 0.  1.
         21    1    1    2  502  503 -0.26425114483E+02  0.69166467644E+02  0.19555092576E+04  0.19569105098E+04  0.00000000000E+00 0. -1.
         21    1    1    2  503  501  0.26425114483E+02 -0.69166467644E+02  0.39689353170E+03  0.40374095956E+03  0.00000000000E+00 0.  1.
</event>
<event>
 4    1  0.6008802E+002  0.3001235E+02  0.7546771E-02  0.1419489E+00
          2   -1    0    0  503    0  0.00000000000E+00  0.00000000000E+00  0.82495385082E+01  0.82495385082E+01  0.00000000000E+00 0.  1.
         -2   -1    0    0    0  501 -0.00000000000E+00 -0.00000000000E+00 -0.12846390537E+03  0.12846390537E+03  0.00000000000E+00 0. -1.
         21    1    1    2  502  501 -0.19284942019E+02 -0.22996350560E+02 -0.86586758373E+02  0.91640645203E+02  0.00000000000E+00 0. -1.
         21    1    1    2  503  502  0.19284942019E+02  0.22996350560E+02 -0.33627608492E+02  0.45072798678E+02  0.00000000000E+00 0.  1.
</event>
<event>
 4    1  0.6008802E+002  0.2131396E+02  0.7546771E-02  0.1514829E+00
          2   -1    0    0  503    0  0.00000000000E+00  0.00000000000E+00  0.72920466373E+03  0.72920466373E+03  0.00000000000E+00 0. -1.
         -2   -1    0    0    0  501 -0.00000000000E+00 -0.00000000000E+00 -0.73655127838E+00  0.73655127838E+00  0.00000000000E+00 0.  1.
         21    1    1    2  502  501 -0.17480409427E+02 -0.12195090543E+02  0.22092373286E+03  0.22194950031E+03  0.00000000000E+00 0. -1.
         21    1    1    2  503  502  0.17480409427E+02  0.12195090543E+02  0.50754437959E+03  0.50799171470E+03  0.00000000000E+00 0.  1.
</event>
<event>
 4    1  0.6008802E+002  0.3023150E+02  0.7546771E-02  0.1417595E+00
          2   -1    0    0  503    0  0.00000000000E+00  0.00000000000E+00  0.27055229465E+01  0.27055229465E+01  0.00000000000E+00 0. -1.
         -2   -1    0    0    0  501 -0.00000000000E+00 -0.00000000000E+00 -0.33788031748E+03  0.33788031748E+03  0.00000000000E+00 0.  1.
         21    1    1    2  502  501  0.17926729920E+02  0.24342879576E+02 -0.17010323858E+03  0.17276879118E+03  0.00000000000E+00 0.  1.
         21    1    1    2  503  502 -0.17926729920E+02 -0.24342879576E+02 -0.16507155595E+03  0.16781704924E+03  0.00000000000E+00 0. -1.
</event>
<event>
 4    1  0.6008802E+002  0.2467106E+02  0.7546771E-02  0.1472517E+00
          2   -1    0    0  502    0  0.00000000000E+00  0.00000000000E+00  0.15362553083E+03  0.15362553083E+03  0.00000000000E+00 0.  1.
         -2   -1    0    0    0  501 -0.00000000000E+00 -0.00000000000E+00 -0.55333970028E+01  0.55333970028E+01  0.00000000000E+00 0. -1.
         21    1    1    2  502  503  0.35779876746E+01  0.24410225190E+02  0.11645437924E+03  0.11903900005E+03  0.00000000000E+00 0.  1.
         21    1    1    2  503  501 -0.35779876746E+01 -0.24410225190E+02  0.31637754583E+02  0.40119927775E+02  0.00000000000E+00 0. -1.
</event>
<event>
 4    1  0.6008802E+002  0.2420182E+02  0.7546771E-02  0.1477934E+00
          2   -1    0    0  503    0  0.00000000000E+00  0.00000000000E+00  0.24722862468E+01  0.24722862468E+01  0.00000000000E+00 0. -1.
         -2   -1    0    0    0  501 -0.00000000000E+00 -0.00000000000E+00 -0.32236327207E+03  0.32236327207E+03  0.00000000000E+00 0.  1.
         21    1    1    2  502  501  0.23653543498E+02 -0.51223219739E+01 -0.24356462237E+03  0.24476407737E+03  0.00000000000E+00 0.  1.
         21    1    1    2  503  502 -0.23653543498E+02  0.51223219739E+01 -0.76326363459E+02  0.80071480949E+02  0.00000000000E+00 0. -1.
</event>
<event>
 4    1  0.6008802E+002  0.4675811E+02  0.7546771E-02  0.1312875E+00
          2   -1    0    0  502    0  0.00000000000E+00  0.00000000000E+00  0.28104143886E+02  0.28104143886E+02  0.00000000000E+00 0.  1.
         -2   -1    0    0    0  501 -0.00000000000E+00 -0.00000000000E+00 -0.16470042314E+03  0.16470042314E+03  0.00000000000E+00 0. -1.
         21    1    1    2  502  503  0.25940565672E+02 -0.38902540099E+02  0.17291108840E+01  0.46790067300E+02  0.00000000000E+00 0.  1.
         21    1    1    2  503  501 -0.25940565672E+02  0.38902540099E+02 -0.13832539014E+03  0.14601449973E+03  0.00000000000E+00 0. -1.
</event>
<event>
 4    1  0.6008802E+002  0.2103328E+02  0.7546771E-02  0.1518790E+00
          2   -1    0    0  502    0  0.00000000000E+00  0.00000000000E+00  0.15261947221E+04  0.15261947221E+04  0.00000000000E+00 0. -1.
         -2   -1    0    0    0  501 -0.00000000000E+00 -0.00000000000E+00 -0.68567366261E+00  0.68567366261E+00  0.00000000000E+00 0.  1.
         21    1    1    2  502  503  0.12002741859E+02  0.17272314986E+02  0.13427918924E+04  0.13429566132E+04  0.00000000000E+00 0. -1.
         21    1    1    2  503  501 -0.12002741859E+02 -0.17272314986E+02  0.18271715608E+03  0.18392378260E+03  0.00000000000E+00 0.  1.
</event>
<event>
 4    1  0.6008802E+002  0.2453097E+02  0.7546771E-02  0.1474119E+00
          2   -1    0    0  503    0  0.00000000000E+00  0.00000000000E+00  0.20350057441E+03  0.20350057441E+03  0.00000000000E+00 0.  1.
         -2   -1    0    0    0  501 -0.00000000000E+00 -0.00000000000E+00 -0.20630720277E+02  0.20630720277E+02  0.00000000000E+00 0. -1.
         21    1    1    2  502  501  0.11755069746E+02  0.21531065695E+02 -0.12288833865E+02  0.27436907487E+02  0.00000000000E+00 0. -1.
         21    1    1    2  503  502 -0.11755069746E+02 -0.21531065695E+02  0.19515868800E+03  0.19669438720E+03  0.00000000000E+00 0.  1.
</event>
<event>
 4    1  0.6008802E+002  0.2628443E+02  0.7546771E-02  0.1454932E+00
          2   -1    0    0  502    0  0.00000000000E+00  0.00000000000E+00  0.48076326845E+03  0.48076326845E+03  0.00000000000E+00 0.  1.
         -2   -1    0    0    0  501 -0.00000000000E+00 -0.00000000000E+00 -0.27961098072E+01  0.27961098072E+01  0.00000000000E+00 0. -1.
         21    1    1    2  502  503 -0.23451813912E+01 -0.26179602192E+02  0.40754769039E+03  0.40839440665E+03  0.00000000000E+00 0.  1.
         21    1    1    2  503  501  0.23451813912E+01  0.26179602192E+02  0.70419468257E+02  0.75164971604E+02  0.00000000000E+00 0. -1.
</event>
<event>
 4    1  0.6008802E+002  0.2373734E+02  0.7546771E-02  0.1483441E+00
          2   -1    0    0  502    0  0.00000000000E+00  0.00000000000E+00  0.23204752261E+03  0.23204752261E+03  0.00000000000E+00 0.  1.
         -2   -1    0    0    0  501 -0.00000000000E+00 -0.00000000000E+00 -0.24812456291E+01  0.24812456291E+01  0.00000000000E+00 0. -1.
         21    1    1    2  502  503  0.20564908994E+02 -0.11855201957E+02  0.13192643274E+03  0.13404493631E+03  0.00000000000E+00 0.  1.
         21    1    1    2  503  501 -0.20564908994E+02  0.11855201957E+02  0.97639844246E+02  0.10048383193E+03  0.00000000000E+00 0. -1.
</event>
<event>
 4    1  0.6008802E+002  0.2018220E+02  0.7546771E-02  0.1531268E+00
          2   -1    0    0  502    0  0.00000000000E+00  0.00000000000E+00  0.12875507436E+03  0.12875507436E+03  0.00000000000E+00 0.  1.
         -2   -1    0    0    0  501 -0.00000000000E+00 -0.00000000000E+00 -0.35256691910E+01  0.35256691910E+01  0.00000000000E+00 0. -1.
         21    1    1    2  502  503 -0.13972722105E+02 -0.14563112631E+02  0.83811999586E+02  0.86207728697E+02  0.00000000000E+00 0.  1.
         21    1    1    2  503  501  0.13972722105E+02  0.14563112631E+02  0.41417405587E+02  0.46073014858E+02  0.00000000000E+00 0. -1.
</event>
<event>
 4    1  0.6008802E+002  0.2045545E+02  0.7546771E-02  0.1527183E+00
          2   -1    0    0  502    0  0.00000000000E+00  0.00000000000E+00  0.50411457161E+01  0.50411457161E+01  0.00000000000E+00 0. -1.
         -2   -1    0    0    0  501 -0.00000000000E+00 -0.00000000000E+00 -0.24257895507E+03  0.24257895507E+03  0.00000000000E+00 0.  1.
         21    1    1    2  502  503  0.48707460569E+01  0.19867093642E+02 -0.18350268486E+02  0.27480137016E+02  0.00000000000E+00 0. -1.
         21    1    1    2  503  501 -0.48707460569E+01 -0.19867093642E+02 -0.21918754087E+03  0.22013996377E+03  0.00000000000E+00 0.  1.
</event>
<event>
 4    1  0.6008802E+002  0.2260603E+02  0.7546771E-02  0.1497505E+00
          2   -1    0    0  503    0  0.00000000000E+00  0.00000000000E+00  0.10136726402E+04  0.10136726402E+04  0.00000000000E+00 0.  1.
         -2   -1    0    0    0  501 -0.00000000000E+00 -0.00000000000E+00 -0.83051513304E+00  0.83051513304E+00  0.00000000000E+00 0. -1.
         21    1    1    2  502  501  0.14672065679E+02 -0.17197759870E+02  0.82440740696E+03  0.82471728799E+03  0.00000000000E+00 0.  1.
         21    1    1    2  503  502 -0.14672065679E+02  0.17197759870E+02  0.18843471810E+03  0.18978586734E+03  0.00000000000E+00 0. -1.
</event>
<event>
 4    1  0.6008802E+002  0.2163563E+02  0.7546771E-02  0.1510380E+00
          2   -1    0    0  502    0  0.00000000000E+00  0.00000000000E+00  0.12135949428E+04  0.12135949428E+04  0.00000000000E+00 0. -1.
         -2   -1    0    0    0  501 -0.00000000000E+00 -0.00000000000E+00 -0.22983072063E+01  0.22983072063E+01  0.00000000000E+00 0.  1.
         21    1    1    2  502  503  0.21368453615E+02  0.33896190709E+01  0.11602392170E+04  0.11604409253E+04  0.00000000000E+00 0. -1.
         21    1    1    2  503  501 -0.21368453615E+02 -0.33896190709E+01  0.51057418569E+02  0.55452324733E+02  0.00000000000E+00 0.  1.
</event>
<event>
 4    1  0.6008802E+002  0.2271258E+02  0.7546771E-02  0.1496139E+00
          2   -1    0    0  502    0  0.00000000000E+00  0.00000000000E+00  0.37587393570E+03  0.37587393570E+03  0.00000000000E+00 0.  1.
         -2   -1    0    0    0  501 -0.00000000000E+00 -0.00000000000E+00 -0.35008251878E+01  0.35008251878E+01  0.00000000000E+00 0. -1.
         21    1    1    2  502  503  0.16822577735E+02  0.15259828670E+02  0.33409028851E+03  0.33486143756E+03  0.00000000000E+00 0.  1.
         21    1    1    2  503  501 -0.16822577735E+02 -0.15259828670E+02  0.38282822008E+02  0.44513323327E+02  0.00000000000E+00 0. -1.
</event>
<event>
 4    1  0.6008802E+002  0.2185857E+02  0.7546771E-02  0.1507351E+00
          2   -1    0    0  502    0  0.00000000000E+00  0.00000000000E+00  0.83788099353E+03  0.83788099353E+03  0.00000000000E+00 0. -1.
         -2   -1    0    0    0  501 -0.00000000000E+00 -0.00000000000E+00 -0.62171573693E+00  0.62171573693E+00  0.00000000000E+00 0.  1.
         21    1    1    2  502  503  0.66433094667E+01 -0.20824593074E+02  0.53926087936E+03  0.53970370876E+03  0.00000000000E+00 0. -1.
         21    1    1    2  503  501 -0.66433094667E+01  0.20824593074E+02  0.29799839844E+03  0.29879900052E+03  0.00000000000E+00 0.  1.
</event>
<event>
 4    1  0.6008802E+002  0.3659557E+02  0.7546771E-02  0.1369680E+00
          2   -1    0    0  503    0  0.00000000000E+00  0.00000000000E+00  0.24501465872E+04  0.24501465872E+04  0.00000000000E+00 0. -1.
         -2   -1    0    0    0  501 -0.00000000000E+00 -0.00000000000E+00 -0.79503573430E+00  0.79503573430E+00  0.00000000000E+00 0.  1.
         21    1    1    2  502  501  0.35076526919E+02 -0.10434215786E+02  0.53962642305E+03  0.54086589101E+03  0.00000000000E+00 0.  1.
         21    1    1    2  503  502 -0.35076526919E+02  0.10434215786E+02  0.19097251284E+04  0.19100757319E+04  0.00000000000E+00 0. -1.
</event>
<event>
 4    1  0.6008802E+002  0.3967776E+02  0.7546771E-02  0.1350385E+00
          2   -1    0    0  503    0  0.00000000000E+00  0.00000000000E+00  0.30321158881E+03  0.30321158881E+03  0.00000000000E+00 0. -1.
         -2   -1    0    0    0  501 -0.00000000000E+00 -0.00000000000E+00 -0.68489984512E+01  0.68489984512E+01  0.00000000000E+00 0.  1.
         21    1    1    2  502  501  0.90415713662E+01 -0.38633857118E+02  0.71930861113E+02  0.82148485738E+02  0.00000000000E+00 0.  1.
         21    1    1    2  503  502 -0.90415713662E+01  0.38633857118E+02  0.22443172925E+03  0.22791210153E+03  0.00000000000E+00 0. -1.
</event>
<event>
 4    1  0.6008802E+002  0.2050300E+02  0.7546771E-02  0.1526480E+00
          2   -1    0    0  503    0  0.00000000000E+00  0.00000000000E+00  0.76910441865E+03  0.76910441865E+03  0.00000000000E+00 0.  1.
         -2   -1    0    0    0  501 -0.00000000000E+00 -0.00000000000E+00 -0.95509418967E+00  0.95509418967E+00  0.00000000000E+00 0. -1.
         21    1    1    2  502  501  0.13751221738E+02 -0.15207787087E+02  0.13226193715E+03  0.13384167104E+03  0.00000000000E+00 0. -1.
         21    1    1    2  503  502 -0.13751221738E+02  0.15207787087E+02  0.63588738731E+03  0.63621784180E+03  0.00000000000E+00 0.  1.
</event>
<event>
 4    1  0.6008802E+002  0.2273634E+02  0.7546771E-02  0.1495836E+00
          2   -1    0    0  502    0  0.00000000000E+00  0.00000000000E+00  0.11392286821E+02  0.11392286821E+02  0.00000000000E+00 0. -1.
         -2   -1    0    0    0  501 -0.00000000000E+00 -0.00000000000E+00 -0.10421849902E+03  0.10421849902E+03  0.00000000000E+00 0.  1.
         21    1    1    2  502  503 -0.12422595252E+02  0.19042589351E+02 -0.29780896342E+01  0.22930549488E+02  0.00000000000E+00 0. -1.
         21    1    1    2  503  501  0.12422595252E+02 -0.19042589351E+02 -0.89848122569E+02  0.92680236356E+02  0.00000000000E+00 0.  1.
</event>
<event>
 4    1  0.6008802E+002  0.2258885E+02  0.7546771E-02  0.1497727E+00
          2   -1    0    0  503    0  0.00000000000E+00  0.00000000000E+00  0.44097873642E+02  0.44097873642E+02  0.00000000000E+00 0. -1.
         -2   -1    0    0    0  501 -0.00000000000E+00 -0.00000000000E+00 -0.14410992906E+02  0.14410992906E+02  0.00000000000E+00 0.  1.
         21    1    1    2  502  501  0.91249707002E+01  0.20663757906E+02  0.18565774230E+01  0.22665014026E+02  0.00000000000E+00 0.  1.
         21    1    1    2  503  502 -0.91249707002E+01 -0.20663757906E+02  0.27830303313E+02  0.35843852521E+02  0.00000000000E+00 0. -1.
</event>
<event>
 4    1  0.6008802E+002  0.3798395E+02  0.7546771E-02  0.1360723E+00
          2   -1    0    0  503    0  0.00000000000E+00  0.00000000000E+00  0.26275040787E+03  0.26275040787E+03  0.00000000000E+00 0.  1.
         -2   -1    0    0    0  501 -0.00000000000E+00 -0.00000000000E+00 -0.17372707521E+02  0.17372707521E+02  0.00000000000E+00 0. -1.
         21    1    1    2  502  501 -0.18155068014E+02  0.33364267128E+02  0.68582378723E+01  0.38598137809E+02  0.00000000000E+00 0. -1.
         21    1    1    2  503  502  0.18155068014E+02 -0.33364267128E+02  0.23851946248E+03  0.24152497758E+03  0.00000000000E+00 0.  1.
</event>
<event>
 4    1  0.6008802E+002  0.2208587E+02  0.7546771E-02  0.1504307E+00
          2   -1    0    0  502    0  0.00000000000E+00  0.00000000000E+00  0.78513739562E+03  0.78513739562E+03  0.00000000000E+00 0. -1.
         -2   -1    0    0    0  501 -0.00000000000E+00 -0.00000000000E+00 -0.82391197627E+00  0.82391197627E+00  0.00000000000E+00 0.  1.
         21    1    1    2  502  503 -0.21143890879E+02 -0.63813331401E+01  0.58704742066E+03  0.58746273043E+03  0.00000000000E+00 0. -1.
         21    1    1    2  503  501  0.21143890879E+02  0.63813331401E+01  0.19726606298E+03  0.19849857717E+03  0.00000000000E+00 0.  1.
</event>
<event>
 4    1  0.6008802E+002  0.3337754E+02  0.7546771E-02  0.1392343E+00
          2   -1    0    0  502    0  0.00000000000E+00  0.00000000000E+00  0.21659093509E+03  0.21659093509E+03  0.00000000000E+00 0. -1.
         -2   -1    0    0    0  501 -0.00000000000E+00 -0.00000000000E+00 -0.14297893937E+02  0.14297893937E+02  0.00000000000E+00 0.  1.
         21    1    1    2  502  503 -0.32941635708E+02 -0.53766902392E+01  0.19352035787E+03  0.19637766948E+03  0.00000000000E+00 0. -1.
         21    1    1    2  503  501  0.32941635708E+02  0.53766902392E+01  0.87726832803E+01  0.34511159543E+02  0.00000000000E+00 0.  1.
</event>
<event>
 4    1  0.6008802E+002  0.2034114E+02  0.7546771E-02  0.1528883E+00
          2   -1    0    0  503    0  0.00000000000E+00  0.00000000000E+00  0.54870085397E+02  0.54870085397E+02  0.00000000000E+00 0. -1.
         -2   -1    0    0    0  501 -0.00000000000E+00 -0.00000000000E+00 -0.86654499681E+01  0.86654499681E+01  0.00000000000E+00 0.  1.
         21    1    1    2  502  501  0.15206570121E+02 -0.13510080399E+02  0.11657525988E+02  0.23444827989E+02  0.00000000000E+00 0.  1.
         21    1    1    2  503  502 -0.15206570121E+02  0.13510080399E+02  0.34547109440E+02  0.40090707376E+02  0.00000000000E+00 0. -1.
</event>
<event>
 4    1  0.6008802E+002  0.2295506E+02  0.7546771E-02  0.1493063E+00
          2   -1    0    0  502    0  0.00000000000E+00  0.00000000000E+00  0.12046944700E+04  0.12046944700E+04  0.00000000000E+00 0.  1.
         -2   -1    0    0    0  501 -0.00000000000E+00 -0.00000000000E+00 -0.81392833433E+01  0.81392833433E+01  0.00000000000E+00 0. -1.
         21    1    1    2  502  503  0.93877737326E+01 -0.20947659791E+02  0.11881751962E+04  0.11883969167E+04  0.00000000000E+00 0.  1.
         21    1    1    2  503  501 -0.93877737326E+01  0.20947659791E+02  0.83799904900E+01  0.24436836681E+02  0.00000000000E+00 0. -1.
</event>
<event>
 4    1  0.6008802E+002  0.3113016E+02  0.7546771E-02  0.1410023E+00
          2   -1    0    0  503    0  0.00000000000E+00  0.00000000000E+00  0.17748678500E+03  0.17748678500E+03  0.00000000000E+00 0.  1.
         -2   -1    0    0    0  501 -0.00000000000E+00 -0.00000000000E+00 -0.59811285522E+01  0.59811285522E+01  0.00000000000E+00 0. -1.
         21    1    1    2  502  501  0.90685627583E+01 -0.29779995947E+02  0.58676515210E+02  0.66423041381E+02  0.00000000000E+00 0. -1.
         21    1    1    2  503  502 -0.90685627583E+01  0.29779995947E+02  0.11282914124E+03  0.11704487218E+03  0.00000000000E+00 0.  1.
</event>
<event>
 4    1  0.6008802E+002  0.4427958E+02  0.7546771E-02  0.1325081E+00
          2   -1    0    0  502    0  0.00000000000E+00  0.00000000000E+00  0.16028499158E+03  0.16028499158E+03  0.00000000000E+00 0. -1.
         -2   -1    0    0    0  501 -0.00000000000E+00 -0.00000000000E+00 -0.42750507706E+02  0.42750507706E+02  0.00000000000E+00 0.  1.
         21    1    1    2  502  503 -0.40667178791E+02 -0.17517466280E+02  0.14454005614E+03  0.15117046300E+03  0.00000000000E+00 0. -1.
         21    1    1    2  503  501  0.40667178791E+02  0.17517466280E+02 -0.27005572263E+02  0.51865036286E+02  0.00000000000E+00 0.  1.
</event>
<event>
 4    1  0.6008802E+002  0.3256662E+02  0.7546771E-02  0.1398528E+00
          2   -1    0    0  502    0  0.00000000000E+00  0.00000000000E+00  0.81581870108E+01  0.81581870108E+01  0.00000000000E+00 0. -1.
         -2   -1    0    0    0  501 -0.00000000000E+00 -0.00000000000E+00 -0.19766831692E+03  0.19766831692E+03  0.00000000000E+00 0.  1.
         21    1    1    2  502  503 -0.22234796527E+02 -0.23794921013E+02 -0.34542443108E+02  0.47473832987E+02  0.00000000000E+00 0. -1.
         21    1    1    2  503  501  0.22234796527E+02  0.23794921013E+02 -0.15496768680E+03  0.15835267095E+03  0.00000000000E+00 0.  1.
</event>
<event>
 4    1  0.6008802E+002  0.2146723E+02  0.7546771E-02  0.1512697E+00
          2   -1    0    0  503    0  0.00000000000E+00  0.00000000000E+00  0.35087689162E+02  0.35087689162E+02  0.00000000000E+00 0. -1.
         -2   -1    0    0    0  501 -0.00000000000E+00 -0.00000000000E+00 -0.30615696499E+02  0.30615696499E+02  0.00000000000E+00 0.  1.
         21    1    1    2  502  501  0.83668316207E+01 -0.19769622415E+02 -0.22588327198E+02  0.31162066161E+02  0.00000000000E+00 0.  1.
         21    1    1    2  503  502 -0.83668316207E+01  0.19769622415E+02  0.27060319861E+02  0.34541319500E+02  0.00000000000E+00 0. -1.
</event>
<event>
 4    1  0.6008802E+002  0.2264022E+02  0.7546771E-02  0.1497066E+00
          2   -1    0    0  503    0  0.00000000000E+00  0.00000000000E+00  0.21464241410E+01  0.21464241410E+01  0.00000000000E+00 0.  1.
         -2   -1    0    0    0  501 -0.00000000000E+00 -0.00000000000E+00 -0.25299221195E+03  0.25299221195E+03  0.00000000000E+00 0. -1.
         21    1    1    2  502  501 -0.22304638454E+02  0.38836229044E+01 -0.15563093751E+03  0.15726909465E+03  0.00000000000E+00 0. -1.
         21    1    1    2  503  502  0.22304638454E+02 -0.38836229044E+01 -0.95214850305E+02  0.97869541442E+02  0.00000000000E+00 0.  1.
</event>
<event>
 4    1  0.6008802E+002  0.5614211E+02  0.7546771E-02  0.1273535E+00
          2   -1    0    0  503    0  0.00000000000E+00  0.00000000000E+00  0.18565170662E+04  0.18565170662E+04  0.00000000000E+00 0.  1.
         -2   -1    0    0    0  501 -0.00000000000E+00 -0.00000000000E+00 -0.66447764203E+01  0.66447764203E+01  0.00000000000E+00 0. -1.
         21    1    1    2  502  501 -0.44805294474E+01  0.55963030931E+02  0.12112928664E+03  0.13350745319E+03  0.00000000000E+00 0. -1.
         21    1    1    2  503  502  0.44805294474E+01 -0.55963030931E+02  0.17287430032E+04  0.17296543895E+04  0.00000000000E+00 0.  1.
</event>
<event>
 4    1  0.6008802E+002  0.4893008E+02  0.7546771E-02  0.1302879E+00
          2   -1    0    0  502    0  0.00000000000E+00  0.00000000000E+00  0.10838570689E+03  0.10838570689E+03  0.00000000000E+00 0.  1.
         -2   -1    0    0    0  501 -0.00000000000E+00 -0.00000000000E+00 -0.36376154034E+02  0.36376154034E+02  0.00000000000E+00 0. -1.
         21    1    1    2  502  503 -0.15347882551E+02  0.46460682302E+02  0.81366102668E+02  0.94945221903E+02  0.00000000000E+00 0.  1.
         21    1    1    2  503  501  0.15347882551E+02 -0.46460682302E+02 -0.93565498138E+01  0.49816639020E+02  0.00000000000E+00 0. -1.
</event>
<event>
 4    1  0.6008802E+002  0.2333871E+02  0.7546771E-02  0.1488288E+00
          2   -1    0    0  502    0  0.00000000000E+00  0.00000000000E+00  0.12355362801E+04  0.12355362801E+04  0.00000000000E+00 0.  1.
         -2   -1    0    0    0  501 -0.00000000000E+00 -0.00000000000E+00 -0.77321175804E+00  0.77321175804E+00  0.00000000000E+00 0. -1.
         21    1    1    2  502  503 -0.23120229514E+02  0.31859529361E+01  0.10226554697E+04  0.10229217492E+04  0.00000000000E+00 0.  1.
         21    1    1    2  503  501  0.23120229514E+02 -0.31859529361E+01  0.21210759868E+03  0.21338774268E+03  0.00000000000E+00 0. -1.
</event>
<event>
 4    1  0.6008802E+002  0.4809500E+02  0.7546771E-02  0.1306650E+00
          2   -1    0    0  503    0  0.00000000000E+00  0.00000000000E+00  0.21963861694E+03  0.21963861694E+03  0.00000000000E+00 0. -1.
         -2   -1    0    0    0  501 -0.00000000000E+00 -0.00000000000E+00 -0.12215706398E+02  0.12215706398E+02  0.00000000000E+00 0.  1.
         21    1    1    2  502  501  0.48094690668E+02 -0.17231013547E+00  0.60666653782E+02  0.77418162225E+02  0.00000000000E+00 0.  1.
         21    1    1    2  503  502 -0.48094690668E+02  0.17231013547E+00  0.14675625676E+03  0.15443616112E+03  0.00000000000E+00 0. -1.
</event>
<event>
 4    1  0.6008802E+002  0.3008803E+02  0.7546771E-02  0.1418833E+00
          2   -1    0    0  502    0  0.00000000000E+00  0.00000000000E+00  0.69333487432E+02  0.69333487432E+02  0.00000000000E+00 0.  1.
         -2   -1    0    0    0  501 -0.00000000000E+00 -0.00000000000E+00 -0.26342428888E+02  0.26342428888E+02  0.00000000000E+00 0. -1.
         21    1    1    2  502  503  0.29537891547E+02 -0.57273393133E+01  0.55468382219E+02  0.63103334925E+02  0.00000000000E+00 0.  1.
         21    1    1    2  503  501 -0.29537891547E+02  0.57273393133E+01 -0.12477323675E+02  0.32572581395E+02  0.00000000000E+00 0. -1.
</event>
<event>
 4    1  0.6008802E+002  0.3357386E+02  0.7546771E-02  0.1390876E+00
          2   -1    0    0  502    0  0.00000000000E+00  0.00000000000E+00  0.20228781733E+02  0.20228781733E+02  0.00000000000E+00 0.  1.
         -2   -1    0    0    0  501 -0.00000000000E+00 -0.00000000000E+00 -0.80231675374E+02  0.80231675374E+02  0.00000000000E+00 0. -1.
         21    1    1    2  502  503 -0.11796741348E+02 -0.31433115969E+02 -0.22392312254E+01  0.33648447845E+02  0.00000000000E+00 0.  1.
         21    1    1    2  503  501  0.11796741348E+02  0.31433115969E+02 -0.57763662416E+02  0.66812009262E+02  0.00000000000E+00 0. -1.
</event>
<event>
 4    1  0.6008802E+002  0.2055200E+02  0.7546771E-02  0.1525758E+00
          2   -1    0    0  503    0  0.00000000000E+00  0.00000000000E+00  0.10466634393E+03  0.10466634393E+03  0.00000000000E+00 0. -1.
         -2   -1    0    0    0  501 -0.00000000000E+00 -0.00000000000E+00 -0.46682593320E+01  0.46682593320E+01  0.00000000000E+00 0.  1.
         21    1    1    2  502  501  0.20302603865E+02  0.31920193317E+01  0.70125037430E+02  0.73074657616E+02  0.00000000000E+00 0. -1.
         21    1    1    2  503  502 -0.20302603865E+02 -0.31920193317E+01  0.29873047166E+02  0.36259945644E+02  0.00000000000E+00 0.  1.
</event>
<event>
 4    1  0.6008802E+002  0.3336106E+02  0.7546771E-02  0.1392466E+00
          2   -1    0    0  502    0  0.00000000000E+00  0.00000000000E+00  0.18196835016E+03  0.18196835016E+03  0.00000000000E+00 0. -1.
         -2   -1    0    0    0  501 -0.00000000000E+00 -0.00000000000E+00 -0.82212263933E+01  0.82212263933E+01  0.00000000000E+00 0.  1.
         21    1    1    2  502  503  0.33880052839E+01 -0.33188579224E+02  0.13499227896E+03  0.13905349959E+03  0.00000000000E+00 0.  1.
         21    1    1    2  503  501 -0.33880052839E+01  0.33188579224E+02  0.38754844808E+02  0.51136076960E+02  0.00000000000E+00 0. -1.
</event>
<event>
 4    1  0.6008802E+002  0.3041117E+02  0.7546771E-02  0.1416056E+00
          2   -1    0    0  502    0  0.00000000000E+00  0.00000000000E+00  0.37162403735E+03  0.37162403735E+03  0.00000000000E+00 0.  1.
         -2   -1    0    0    0  501 -0.00000000000E+00 -0.00000000000E+00 -0.42574920515E+01  0.42574920515E+01  0.00000000000E+00 0. -1.
         21    1    1    2  502  503 -0.74969552947E+01 -0.29472615949E+02  0.30482381007E+03  0.30633706047E+03  0.00000000000E+00 0.  1.
         21    1    1    2  503  501  0.74969552947E+01  0.29472615949E+02  0.62542735223E+02  0.69544468930E+02  0.00000000000E+00 0. -1.
</event>
<event>
 4    1  0.6008802E+002  0.2886398E+02  0.7546771E-02  0.1429732E+00
          2   -1    0    0  502    0  0.00000000000E+00  0.00000000000E+00  0.71281440406E+02  0.71281440406E+02  0.00000000000E+00 0. -1.
         -2   -1    0    0    0  501 -0.00000000000E+00 -0.00000000000E+00 -0.19670488438E+02  0.19670488438E+02  0.00000000000E+00 0.  1.
         21    1    1    2  502  503  0.19720201894E+02  0.21077068723E+02  0.54775353402E+02  0.61915010530E+02  0.00000000000E+00 0. -1.
         21    1    1    2  503  501 -0.19720201894E+02 -0.21077068723E+02 -0.31644014344E+01  0.29036918313E+02  0.00000000000E+00 0.  1.
</event>
<event>
 4    1  0.6008802E+002  0.3452901E+02  0.7546771E-02  0.1383905E+00
          2   -1    0    0  502    0  0.00000000000E+00  0.00000000000E+00  0.10259711691E+03  0.10259711691E+03  0.00000000000E+00 0. -1.
         -2   -1    0    0    0  501 -0.00000000000E+00 -0.00000000000E+00 -0.32267428335E+02  0.32267428335E+02  0.00000000000E+00 0.  1.
         21    1    1    2  502  503 -0.69623820536E+01  0.33819786050E+02  0.89104851198E+02  0.95561117613E+02  0.00000000000E+00 0. -1.
         21    1    1    2  503  501  0.69623820536E+01 -0.33819786050E+02 -0.18775162622E+02  0.39303427634E+02  0.00000000000E+00 0.  1.
</event>
<event>
 4    1  0.6008802E+002  0.5137883E+02  0.7546771E-02  0.1292303E+00
          2   -1    0    0  502    0  0.00000000000E+00  0.00000000000E+00  0.35049031826E+03  0.35049031826E+03  0.00000000000E+00 0. -1.
         -2   -1    0    0    0  501 -0.00000000000E+00 -0.00000000000E+00 -0.11333762198E+02  0.11333762198E+02  0.00000000000E+00 0.  1.
         21    1    1    2  502  503  0.29747720565E+01  0.51292635523E+02  0.27436125108E+03  0.27913057844E+03  0.00000000000E+00 0. -1.
         21    1    1    2  503  501 -0.29747720565E+01 -0.51292635523E+02  0.64795304980E+02  0.82693502012E+02  0.00000000000E+00 0.  1.
</event>
<event>
 4    1  0.6008802E+002  0.2818282E+02  0.7546771E-02  0.1436075E+00
          2   -1    0    0  502    0  0.00000000000E+00  0.00000000000E+00  0.12498258534E+04  0.12498258534E+04  0.00000000000E+00 0. -1.
         -2   -1    0    0    0  501 -0.00000000000E+00 -0.00000000000E+00 -0.22202388759E+01  0.22202388759E+01  0.00000000000E+00 0.  1.
         21    1    1    2  502  503  0.17639232433E+02  0.21980192750E+02  0.11526966992E+04  0.11530411752E+04  0.00000000000E+00 0. -1.
         21    1    1    2  503  501 -0.17639232433E+02 -0.21980192750E+02  0.94908915308E+02  0.99004917045E+02  0.00000000000E+00 0.  1.
</event>
<event>
 4    1  0.6008802E+002  0.2387775E+02  0.7546771E-02  0.1481761E+00
          2   -1    0    0  503    0  0.00000000000E+00  0.00000000000E+00  0.16770841913E+04  0.16770841913E+04  0.00000000000E+00 0. -1.
         -2   -1    0    0    0  501 -0.00000000000E+00 -0.00000000000E+00 -0.51413152558E+00  0.51413152558E+00  0.00000000000E+00 0.  1.
         21    1    1    2  502  501  0.23869155712E+02 -0.64059160919E+00  0.35007642920E+03  0.35088980212E+03  0.00000000000E+00 0.  1.
         21    1    1    2  503  502 -0.23869155712E+02  0.64059160919E+00  0.13264936306E+04  0.13267085207E+04  0.00000000000E+00 0. -1.
</event>
<event>
 4    1  0.6008802E+002  0.3123521E+02  0.7546771E-02  0.1409158E+00
          2   -1    0    0  503    0  0.00000000000E+00  0.00000000000E+00  0.29112912568E+03  0.29112912568E+03  0.00000000000E+00 0.  1.
         -2   -1    0    0    0  501 -0.00000000000E+00 -0.00000000000E+00 -0.59748924532E+01  0.59748924532E+01  0.00000000000E+00 0. -1.
         21    1    1    2  502  501  0.21696629901E+02  0.22469863363E+02  0.44137916712E+02  0.54072120360E+02  0.00000000000E+00 0. -1.
         21    1    1    2  503  502 -0.21696629901E+02 -0.22469863363E+02  0.24101631651E+03  0.24303189777E+03  0.00000000000E+00 0.  1.
</event>
<event>
 4    1  0.6008802E+002  0.2091335E+02  0.7546771E-02  0.1520506E+00
          2   -1    0    0  503    0  0.00000000000E+00  0.00000000000E+00  0.10167338765E+02  0.10167338765E+02  0.00000000000E+00 0.  1.
         -2   -1    0    0    0  501 -0.00000000000E+00 -0.00000000000E+00 -0.86817531464E+03  0.86817531464E+03  0.00000000000E+00 0. -1.
         21    1    1    2  502  501 -0.19753799036E+02  0.68669977573E+01 -0.85715690333E+03  0.85741199266E+03  0.00000000000E+00 0. -1.
         21    1    1    2  503  502  0.19753799036E+02 -0.68669977573E+01 -0.85107254190E+00  0.20930660740E+02  0.00000000000E+00 0.  1.
</event>
<event>
 4    1  0.6008802E+002  0.3721840E+02  0.7546771E-02  0.1365605E+00
          2   -1    0    0  503    0  0.00000000000E+00  0.00000000000E+00  0.73650410462E+03  0.73650410462E+03  0.00000000000E+00 0. -1.
         -2   -1    0    0    0  501 -0.00000000000E+00 -0.00000000000E+00 -0.16589700429E+02  0.16589700429E+02  0.00000000000E+00 0.  1.
         21    1    1    2  502  501 -0.22284036513E+02  0.29809918058E+02  0.53969395003E+01  0.37607664829E+02  0.00000000000E+00 0.  1.
         21    1    1    2  503  502  0.22284036513E+02 -0.29809918058E+02  0.71451746469E+03  0.71548614022E+03  0.00000000000E+00 0. -1.
</event>
<event>
 4    1  0.6008802E+002  0.3141350E+02  0.7546771E-02  0.1407698E+00
          2   -1    0    0  502    0  0.00000000000E+00  0.00000000000E+00  0.19878635403E+03  0.19878635403E+03  0.00000000000E+00 0. -1.
         -2   -1    0    0    0  501 -0.00000000000E+00 -0.00000000000E+00 -0.49738468339E+01  0.49738468339E+01  0.00000000000E+00 0.  1.
         21    1    1    2  502  503  0.10857972439E+02  0.29477323876E+02  0.10140125865E+03  0.10615565668E+03  0.00000000000E+00 0.  1.
         21    1    1    2  503  501 -0.10857972439E+02 -0.29477323876E+02  0.92411248543E+02  0.97604544186E+02  0.00000000000E+00 0. -1.
</event>
<event>
 4    1  0.6008802E+002  0.2226080E+02  0.7546771E-02  0.1501995E+00
          2   -1    0    0  502    0  0.00000000000E+00  0.00000000000E+00  0.21728190037E+04  0.21728190037E+04  0.00000000000E+00 0. -1.
         -2   -1    0    0    0  501 -0.00000000000E+00 -0.00000000000E+00 -0.23004292264E+00  0.23004292264E+00  0.00000000000E+00 0.  1.
         21    1    1    2  502  503 -0.20305045513E+02 -0.91240508099E+01  0.11870525034E+04  0.11872612135E+04  0.00000000000E+00 0. -1.
         21    1    1    2  503  501  0.20305045513E+02  0.91240508099E+01  0.98553645735E+03  0.98578783313E+03  0.00000000000E+00 0.  1.
</event>
<event>
 4    1  0.6008802E+002  0.2179573E+02  0.7546771E-02  0.1508200E+00
          2   -1    0    0  502    0  0.00000000000E+00  0.00000000000E+00  0.95523463864E+02  0.95523463864E+02  0.00000000000E+00 0. -1.
         -2   -1    0    0    0  501 -0.00000000000E+00 -0.00000000000E+00 -0.97419608565E+02  0.97419608565E+02  0.00000000000E+00 0.  1.
         21    1    1    2  502  503 -0.36999334244E+01 -0.21479398112E+02  0.93028825684E+02  0.95547979878E+02  0.00000000000E+00 0. -1.
         21    1    1    2  503  501  0.36999334244E+01  0.21479398112E+02 -0.94924970384E+02  0.97395092551E+02  0.00000000000E+00 0.  1.
</event>
<event>
 4    1  0.6008802E+002  0.3457849E+02  0.7546771E-02  0.1383551E+00
          2   -1    0    0  502    0  0.00000000000E+00  0.00000000000E+00  0.87732282684E+03  0.87732282684E+03  0.00000000000E+00 0. -1.
         -2   -1    0    0    0  501 -0.00000000000E+00 -0.00000000000E+00 -0.13638001188E+01  0.13638001188E+01  0.00000000000E+00 0.  1.
         21    1    1    2  502  503 -0.20537408980E+02  0.27818826925E+02  0.44948579267E+03  0.45081387524E+03  0.00000000000E+00 0. -1.
         21    1    1    2  503  501  0.20537408980E+02 -0.27818826925E+02  0.42647323406E+03  0.42787275172E+03  0.00000000000E+00 0.  1.
</event>
<event>
 4    1  0.6008802E+002  0.2031498E+02  0.7546771E-02  0.1529274E+00
          2   -1    0    0  503    0  0.00000000000E+00  0.00000000000E+00  0.89969851135E+03  0.89969851135E+03  0.00000000000E+00 0.  1.
         -2   -1    0    0    0  501 -0.00000000000E+00 -0.00000000000E+00 -0.15593422285E+01  0.15593422285E+01  0.00000000000E+00 0. -1.
         21    1    1    2  502  501  0.40442193804E+01  0.19908358673E+02  0.70478875021E+02  0.73348280686E+02  0.00000000000E+00 0. -1.
         21    1    1    2  503  502 -0.40442193804E+01 -0.19908358673E+02  0.82766029410E+03  0.82790957289E+03  0.00000000000E+00 0.  1.
</event>
<event>
 4    1  0.6008802E+002  0.4458146E+02  0.7546771E-02  0.1323546E+00
          2   -1    0    0  503    0  0.00000000000E+00  0.00000000000E+00  0.49359690438E+03  0.49359690438E+03  0.00000000000E+00 0. -1.
         -2   -1    0    0    0  501 -0.00000000000E+00 -0.00000000000E+00 -0.71019487959E+01  0.71019487959E+01  0.00000000000E+00 0.  1.
         21    1    1    2  502  501 -0.40992462913E+02  0.17524977178E+02  0.78504649483E+02  0.90280046695E+02  0.00000000000E+00 0.  1.
         21    1    1    2  503  502  0.40992462913E+02 -0.17524977178E+02  0.40799030611E+03  0.41041880649E+03  0.00000000000E+00 0. -1.
</event>
<event>
 4    1  0.6008802E+002  0.2249932E+02  0.7546771E-02  0.1498883E+00
          2   -1    0    0  502    0  0.00000000000E+00  0.00000000000E+00  0.33961263451E+03  0.33961263451E+03  0.00000000000E+00 0. -1.
         -2   -1    0    0    0  501 -0.00000000000E+00 -0.00000000000E+00 -0.85265060378E+01  0.85265060378E+01  0.00000000000E+00 0.  1.
         21    1    1    2  502  503 -0.10433145050E+02  0.19934118369E+02  0.32366712433E+03  0.32444818841E+03  0.00000000000E+00 0. -1.
         21    1    1    2  503  501  0.10433145050E+02 -0.19934118369E+02  0.74190041449E+01  0.23690952140E+02  0.00000000000E+00 0.  1.
</event>
<event>
 4    1  0.6008802E+002  0.2091323E+02  0.7546771E-02  0.1520507E+00
          2   -1    0    0  502    0  0.00000000000E+00  0.00000000000E+00  0.11144464908E+02  0.11144464908E+02  0.00000000000E+00 0.  1.
         -2   -1    0    0    0  501 -0.00000000000E+00 -0.00000000000E+00 -0.13044374519E+03  0.13044374519E+03  0.00000000000E+00 0. -1.
         21    1    1    2  502  503 -0.47392365598E+01  0.20369160061E+02 -0.45529586961E+00  0.20918182022E+02  0.00000000000E+00 0.  1.
         21    1    1    2  503  501  0.47392365598E+01 -0.20369160061E+02 -0.11884398441E+03  0.12067002807E+03  0.00000000000E+00 0. -1.
</event>
<event>
 4    1  0.6008802E+002  0.4633428E+02  0.7546771E-02  0.1314899E+00
          2   -1    0    0  503    0  0.00000000000E+00  0.00000000000E+00  0.35304129801E+03  0.35304129801E+03  0.00000000000E+00 0. -1.
         -2   -1    0    0    0  501 -0.00000000000E+00 -0.00000000000E+00 -0.13993328684E+02  0.13993328684E+02  0.00000000000E+00 0.  1.
         21    1    1    2  502  501 -0.90358593437E+01  0.45444674315E+02  0.31527809567E+02  0.56043447019E+02  0.00000000000E+00 0.  1.
         21    1    1    2  503  502  0.90358593437E+01 -0.45444674315E+02  0.30752015976E+03  0.31099117967E+03  0.00000000000E+00 0. -1.
</event>
<event>
 4    1  0.6008802E+002  0.4898668E+02  0.7546771E-02  0.1302627E+00
          2   -1    0    0  502    0  0.00000000000E+00  0.00000000000E+00  0.81490179765E+02  0.81490179765E+02  0.00000000000E+00 0.  1.
         -2   -1    0    0    0  501 -0.00000000000E+00 -0.00000000000E+00 -0.55930178582E+02  0.55930178582E+02  0.00000000000E+00 0. -1.
         21    1    1    2  502  503 -0.29084472113E+02 -0.39418125109E+02  0.60060017269E+02  0.77504198464E+02  0.00000000000E+00 0.  1.
         21    1    1    2  503  501  0.29084472113E+02  0.39418125109E+02 -0.34500016086E+02  0.59916159883E+02  0.00000000000E+00 0. -1.
</event>
<event>
 4    1  0.6008802E+002  0.2236354E+02  0.7546771E-02  0.1500649E+00
          2   -1    0    0  503    0  0.00000000000E+00  0.00000000000E+00  0.49664439700E+03  0.49664439700E+03  0.00000000000E+00 0.  1.
         -2   -1    0    0    0  501 -0.00000000000E+00 -0.00000000000E+00 -0.10394500999E+01  0.10394500999E+01  0.00000000000E+00 0. -1.
         21    1    1    2  502  501 -0.21939611075E+02  0.43337408866E+01  0.29176030551E+03  0.29261613714E+03  0.00000000000E+00 0.  1.
         21    1    1    2  503  502  0.21939611075E+02 -0.43337408866E+01  0.20384464139E+03  0.20506770995E+03  0.00000000000E+00 0. -1.
</event>
<event>
 4    1  0.6008802E+002  0.3144069E+02  0.7546771E-02  0.1407477E+00
          2   -1    0    0  503    0  0.00000000000E+00  0.00000000000E+00  0.21626984991E+03  0.21626984991E+03  0.00000000000E+00 0. -1.
         -2   -1    0    0    0  501 -0.00000000000E+00 -0.00000000000E+00 -0.65087483959E+01  0.65087483959E+01  0.00000000000E+00 0.  1.
         21    1    1    2  502  501 -0.31052826111E+02 -0.49233415585E+01  0.44099184283E+02  0.54159536150E+02  0.00000000000E+00 0. -1.
         21    1    1    2  503  502  0.31052826111E+02  0.49233415585E+01  0.16566191723E+03  0.16861906215E+03  0.00000000000E+00 0.  1.
</event>
<event>
 4    1  0.6008802E+002  0.2085402E+02  0.7546771E-02  0.1521359E+00
          2   -1    0    0  503    0  0.00000000000E+00  0.00000000000E+00  0.77123191387E+03  0.77123191387E+03  0.00000000000E+00 0. -1.
         -2   -1    0    0    0  501 -0.00000000000E+00 -0.00000000000E+00 -0.73927164984E+00  0.73927164984E+00  0.00000000000E+00 0.  1.
         21    1    1    2  502  501 -0.13908885395E+02  0.15538110699E+02  0.19724490388E+03  0.19834425145E+03  0.00000000000E+00 0.  1.
         21    1    1    2  503  502  0.13908885395E+02 -0.15538110699E+02  0.57324773834E+03  0.57362693406E+03  0.00000000000E+00 0. -1.
</event>
<event>
 4    1  0.6008802E+002  0.2367250E+02  0.7546771E-02  0.1484222E+00
          2   -1    0    0  502    0  0.00000000000E+00  0.00000000000E+00  0.31229955054E+01  0.31229955054E+01  0.00000000000E+00 0.  1.
         -2   -1    0    0    0  501 -0.00000000000E+00 -0.00000000000E+00 -0.35706451306E+03  0.35706451306E+03  0.00000000000E+00 0. -1.
         21    1    1    2  502  503  0.21195494427E+02 -0.10542219147E+02 -0.49949062058E+02  0.55274733550E+02  0.00000000000E+00 0.  1.
         21    1    1    2  503  501 -0.21195494427E+02  0.10542219147E+02 -0.30399245550E+03  0.30491277502E+03  0.00000000000E+00 0. -1.
</event>
<event>
 4    1  0.6008802E+002  0.3098664E+02  0.7546771E-02  0.1411212E+00
          2   -1    0    0  503    0  0.00000000000E+00  0.00000000000E+00  0.66144820449E+01  0.66144820449E+01  0.00000000000E+00 0.  1.
         -2   -1    0    0    0  501 -0.00000000000E+00 -0.00000000000E+00 -0.17724613236E+03  0.17724613236E+03  0.00000000000E+00 0. -1.
         21    1    1    2  502  501  0.26656006421E+02  0.15799649290E+02 -0.12442830213E+03  0.12822860042E+03  0.00000000000E+00 0. -1.
         21    1    1    2  503  502 -0.26656006421E+02 -0.15799649290E+02 -0.46203348191E+02  0.55632013985E+02  0.00000000000E+00 0.  1.
</event>
<event>
 4    1  0.6008802E+002  0.2093088E+02  0.7546771E-02  0.1520254E+00
          2   -1    0    0  502    0  0.00000000000E+00  0.00000000000E+00  0.35422106426E+03  0.35422106426E+03  0.00000000000E+00 0. -1.
         -2   -1    0    0    0  501 -0.00000000000E+00 -0.00000000000E+00 -0.33494021449E+01  0.33494021449E+01  0.00000000000E+00 0.  1.
         21    1    1    2  502  503  0.18429691285E+02 -0.99221017360E+01  0.31742543996E+03  0.31811477733E+03  0.00000000000E+00 0. -1.
         21    1    1    2  503  501 -0.18429691285E+02  0.99221017360E+01  0.33446222157E+02  0.39455689074E+02  0.00000000000E+00 0.  1.
</event>
<event>
 4    1  0.6008802E+002  0.3294786E+02  0.7546771E-02  0.1395594E+00
          2   -1    0    0  503    0  0.00000000000E+00  0.00000000000E+00  0.79477554532E+03  0.79477554532E+03  0.00000000000E+00 0. -1.
         -2   -1    0    0    0  501 -0.00000000000E+00 -0.00000000000E+00 -0.24308860211E+01  0.24308860211E+01  0.00000000000E+00 0.  1.
         21    1    1    2  502  501 -0.23665434823E+02  0.22923980514E+02  0.13233505250E+03  0.13637495301E+03  0.00000000000E+00 0.  1.
         21    1    1    2  503  502  0.23665434823E+02 -0.22923980514E+02  0.66000960680E+03  0.66083147834E+03  0.00000000000E+00 0. -1.
</event>
<event>
 4    1  0.6008802E+002  0.2394787E+02  0.7546771E-02  0.1480927E+00
          2   -1    0    0  503    0  0.00000000000E+00  0.00000000000E+00  0.10509551436E+01  0.10509551436E+01  0.00000000000E+00 0.  1.
         -2   -1    0    0    0  501 -0.00000000000E+00 -0.00000000000E+00 -0.54573586956E+03  0.54573586956E+03  0.00000000000E+00 0. -1.
         21    1    1    2  502  501 -0.19325667846E+02  0.14142810185E+02 -0.26996420891E+03  0.27102430631E+03  0.00000000000E+00 0. -1.
         21    1    1    2  503  502  0.19325667846E+02 -0.14142810185E+02 -0.27472070551E+03  0.27576251840E+03  0.00000000000E+00 0.  1.
</event>
<event>
 4    1  0.6008802E+002  0.3043762E+02  0.7546771E-02  0.1415831E+00
          2   -1    0    0  502    0  0.00000000000E+00  0.00000000000E+00  0.96882823134E+03  0.96882823134E+03  0.00000000000E+00 0.  1.
         -2   -1    0    0    0  501 -0.00000000000E+00 -0.00000000000E+00 -0.66049481945E+01  0.66049481945E+01  0.00000000000E+00 0. -1.
         21    1    1    2  502  503  0.20312021694E+02  0.22668716203E+02  0.93214299366E+03  0.93263980698E+03  0.00000000000E+00 0.  1.
         21    1    1    2  503  501 -0.20312021694E+02 -0.22668716203E+02  0.30080289480E+02  0.42793372557E+02  0.00000000000E+00 0. -1.
</event>
<event>
 4    1  0.6008802E+002  0.2042517E+02  0.7546771E-02  0.1527632E+00
          2   -1    0    0  502    0  0.00000000000E+00  0.00000000000E+00  0.20230734506E+01  0.20230734506E+01  0.00000000000E+00 0. -1.
         -2   -1    0    0    0  501 -0.00000000000E+00 -0.00000000000E+00 -0.28712730852E+03  0.28712730852E+03  0.00000000000E+00 0.  1.
         21    1    1    2  502  503 -0.12613858981E+02 -0.16064810582E+02 -0.65804570631E+02  0.68901589919E+02  0.00000000000E+00 0. -1.
         21    1    1    2  503  501  0.12613858981E+02  0.16064810582E+02 -0.21929966444E+03  0.22024879205E+03  0.00000000000E+00 0.  1.
</event>
<event>
 4    1  0.6008802E+002  0.3705685E+02  0.7546771E-02  0.1366653E+00
          2   -1    0    0  502    0  0.00000000000E+00  0.00000000000E+00  0.15913386569E+04  0.15913386569E+04  0.00000000000E+00 0. -1.
         -2   -1    0    0    0  501 -0.00000000000E+00 -0.00000000000E+00 -0.90173393983E+01  0.90173393983E+01  0.00000000000E+00 0.  1.
         21    1    1    2  502  503  0.36968023427E+02 -0.25643135465E+01  0.15520889134E+04  0.15525312254E+04  0.00000000000E+00 0. -1.
         21    1    1    2  503  501 -0.36968023427E+02  0.25643135465E+01  0.30232404035E+02  0.47824770923E+02  0.00000000000E+00 0.  1.
</event>
<event>
 4    1  0.6008802E+002  0.2827521E+02  0.7546771E-02  0.1435202E+00
          2   -1    0    0  503    0  0.00000000000E+00  0.00000000000E+00  0.13685521943E+03  0.13685521943E+03  0.00000000000E+00 0. -1.
         -2   -1    0    0    0  501 -0.00000000000E+00 -0.00000000000E+00 -0.12626653365E+02  0.12626653365E+02  0.00000000000E+00 0.  1.
         21    1    1    2  502  501 -0.80864424091E+01  0.27094218935E+02  0.73265747129E+01  0.29209004563E+02  0.00000000000E+00 0.  1.
         21    1    1    2  503  502  0.80864424091E+01 -0.27094218935E+02  0.11690199135E+03  0.12027286823E+03  0.00000000000E+00 0. -1.
</event>
<event>
 4    1  0.6008802E+002  0.2546835E+02  0.7546771E-02  0.1463632E+00
          2   -1    0    0  502    0  0.00000000000E+00  0.00000000000E+00  0.34060683089E+03  0.34060683089E+03  0.00000000000E+00 0.  1.
         -2   -1    0    0    0  501 -0.00000000000E+00 -0.00000000000E+00 -0.55233027276E+01  0.55233027276E+01  0.00000000000E+00 0. -1.
         21    1    1    2  502  503  0.20278530637E+02 -0.15408374368E+02  0.30762980458E+03  0.30868225325E+03  0.00000000000E+00 0.  1.
         21    1    1    2  503  501 -0.20278530637E+02  0.15408374368E+02  0.27453723582E+02  0.37447880367E+02  0.00000000000E+00 0. -1.
</event>
<event>
 4    1  0.6008802E+002  0.3211894E+02  0.7546771E-02  0.1402034E+00
          2   -1    0    0  503    0  0.00000000000E+00  0.00000000000E+00  0.12904200351E+04  0.12904200351E+04  0.00000000000E+00 0.  1.
         -2   -1    0    0    0  501 -0.00000000000E+00 -0.00000000000E+00 -0.32647688775E+01  0.32647688775E+01  0.00000000000E+00 0. -1.
         21    1    1    2  502  501 -0.31821393970E+02  0.43618101362E+01  0.81483830590E+02  0.87585621819E+02  0.00000000000E+00 0. -1.
         21    1    1    2  503  502  0.31821393970E+02 -0.43618101362E+01  0.12056714357E+04  0.12060991822E+04  0.00000000000E+00 0.  1.
</event>
<event>
 4    1  0.6008802E+002  0.2173624E+02  0.7546771E-02  0.1509008E+00
          2   -1    0    0  502    0  0.00000000000E+00  0.00000000000E+00  0.14860654672E+02  0.14860654672E+02  0.00000000000E+00 0. -1.
         -2   -1    0    0    0  501 -0.00000000000E+00 -0.00000000000E+00 -0.18379647409E+03  0.18379647409E+03  0.00000000000E+00 0.  1.
         21    1    1    2  502  503 -0.21727523309E+02 -0.61569271252E+00  0.58621652648E+01  0.22512870280E+02  0.00000000000E+00 0. -1.
         21    1    1    2  503  501  0.21727523309E+02  0.61569271252E+00 -0.17479798469E+03  0.17614425848E+03  0.00000000000E+00 0.  1.
</event>
<event>
 4    1  0.6008802E+002  0.2436953E+02  0.7546771E-02  0.1475981E+00
          2   -1    0    0  503    0  0.00000000000E+00  0.00000000000E+00  0.26706512540E+01  0.26706512540E+01  0.00000000000E+00 0.  1.
         -2   -1    0    0    0  501 -0.00000000000E+00 -0.00000000000E+00 -0.98770505133E+03  0.98770505133E+03  0.00000000000E+00 0. -1.
         21    1    1    2  502  501  0.18956157639E+02 -0.15314640883E+02 -0.92841230822E+03  0.92873208634E+03  0.00000000000E+00 0. -1.
         21    1    1    2  503  502 -0.18956157639E+02  0.15314640883E+02 -0.56622091854E+02  0.61643616245E+02  0.00000000000E+00 0.  1.
</event>
<event>
 4    1  0.6008802E+002  0.2087740E+02  0.7546771E-02  0.1521023E+00
          2   -1    0    0  502    0  0.00000000000E+00  0.00000000000E+00  0.31512177313E+01  0.31512177313E+01  0.00000000000E+00 0.  1.
         -2   -1    0    0    0  501 -0.00000000000E+00 -0.00000000000E+00 -0.15880926736E+03  0.15880926736E+03  0.00000000000E+00 0. -1.
         21    1    1    2  502  503 -0.15367748696E+02  0.14131456041E+02 -0.10691879601E+03  0.10893803142E+03  0.00000000000E+00 0. -1.
         21    1    1    2  503  501  0.15367748696E+02 -0.14131456041E+02 -0.48739253618E+02  0.53022453669E+02  0.00000000000E+00 0.  1.
</event>
<event>
 4    1  0.6008802E+002  0.2689088E+02  0.7546771E-02  0.1448707E+00
          2   -1    0    0  503    0  0.00000000000E+00  0.00000000000E+00  0.55115465417E+03  0.55115465417E+03  0.00000000000E+00 0.  1.
         -2   -1    0    0    0  501 -0.00000000000E+00 -0.00000000000E+00 -0.14576299887E+01  0.14576299887E+01  0.00000000000E+00 0. -1.
         21    1    1    2  502  501  0.24138423057E+02 -0.11851412527E+02  0.18751518291E+03  0.18943353259E+03  0.00000000000E+00 0. -1.
         21    1    1    2  503  502 -0.24138423057E+02  0.11851412527E+02  0.36218184127E+03  0.36317875157E+03  0.00000000000E+00 0.  1.
</event>
<event>
 4    1  0.6008802E+002  0.2439231E+02  0.7546771E-02  0.1475718E+00
          2   -1    0    0  503    0  0.00000000000E+00  0.00000000000E+00  0.44026764486E+03  0.44026764486E+03  0.00000000000E+00 0.  1.
         -2   -1    0    0    0  501 -0.00000000000E+00 -0.00000000000E+00 -0.20694374685E+01  0.20694374685E+01  0.00000000000E+00 0. -1.
         21    1    1    2  502  501  0.13338348122E+02 -0.20422367895E+02  0.88822633852E+02  0.92111046707E+02  0.00000000000E+00 0. -1.
         21    1    1    2  503  502 -0.13338348122E+02  0.20422367895E+02  0.34937557354E+03  0.35022603562E+03  0.00000000000E+00 0.  1.
</event>
<event>
 4    1  0.6008802E+002  0.2217987E+02  0.7546771E-02  0.1503062E+00
          2   -1    0    0  503    0  0.00000000000E+00  0.00000000000E+00  0.25868223987E+03  0.25868223987E+03  0.00000000000E+00 0.  1.
         -2   -1    0    0    0  501 -0.00000000000E+00 -0.00000000000E+00 -0.12525763803E+02  0.12525763803E+02  0.00000000000E+00 0. -1.
         21    1    1    2  502  501  0.21824989806E+02  0.39517848687E+01 -0.18080857123E+01  0.22253448218E+02  0.00000000000E+00 0. -1.
         21    1    1    2  503  502 -0.21824989806E+02 -0.39517848687E+01  0.24796456178E+03  0.24895455546E+03  0.00000000000E+00 0.  1.
</event>
<event>
 4    1  0.6008802E+002  0.2849041E+02  0.7546771E-02  0.1433185E+00
          2   -1    0    0  502    0  0.00000000000E+00  0.00000000000E+00  0.70981263695E+03  0.70981263695E+03  0.00000000000E+00 0.  1.
         -2   -1    0    0    0  501 -0.00000000000E+00 -0.00000000000E+00 -0.13525702515E+01  0.13525702515E+01  0.00000000000E+00 0. -1.
         21    1    1    2  502  503 -0.27471663064E+02  0.75505573563E+01  0.49401460545E+03  0.49483546112E+03  0.00000000000E+00 0.  1.
         21    1    1    2  503  501  0.27471663064E+02 -0.75505573563E+01  0.21444546125E+03  0.21632974608E+03  0.00000000000E+00 0. -1.
</event>
<event>
 4    1  0.6008802E+002  0.2033156E+02  0.7546771E-02  0.1529026E+00
          2   -1    0    0  502    0  0.00000000000E+00  0.00000000000E+00  0.36089127554E+01  0.36089127554E+01  0.00000000000E+00 0.  1.
         -2   -1    0    0    0  501 -0.00000000000E+00 -0.00000000000E+00 -0.13654315979E+03  0.13654315979E+03  0.00000000000E+00 0. -1.
         21    1    1    2  502  503 -0.13663838870E+01  0.20285593904E+02 -0.38337968576E+02  0.43395531562E+02  0.00000000000E+00 0.  1.
         21    1    1    2  503  501  0.13663838870E+01 -0.20285593904E+02 -0.94596278456E+02  0.96756540981E+02  0.00000000000E+00 0. -1.
</event>
<event>
 4    1  0.6008802E+002  0.2480250E+02  0.7546771E-02  0.1471025E+00
          2   -1    0    0  502    0  0.00000000000E+00  0.00000000000E+00  0.14745789431E+04  0.14745789431E+04  0.00000000000E+00 0.  1.
         -2   -1    0    0    0  501 -0.00000000000E+00 -0.00000000000E+00 -0.72459616342E+00  0.72459616342E+00  0.00000000000E+00 0. -1.
         21    1    1    2  502  503 -0.15037869271E+02  0.19723750714E+02  0.12173981917E+04  0.12176508207E+04  0.00000000000E+00 0.  1.
         21    1    1    2  503  501  0.15037869271E+02 -0.19723750714E+02  0.25645615519E+03  0.25765271857E+03  0.00000000000E+00 0. -1.
</event>
<event>
 4    1  0.6008802E+002  0.2236407E+02  0.7546771E-02  0.1500642E+00
          2   -1    0    0  503    0  0.00000000000E+00  0.00000000000E+00  0.14044825074E+04  0.14044825074E+04  0.00000000000E+00 0.  1.
         -2   -1    0    0    0  501 -0.00000000000E+00 -0.00000000000E+00 -0.36524077875E+00  0.36524077875E+00  0.00000000000E+00 0. -1.
         21    1    1    2  502  501 -0.18836872072E+02 -0.12055034343E+02  0.59100291967E+03  0.59142590632E+03  0.00000000000E+00 0. -1.
         21    1    1    2  503  502  0.18836872072E+02  0.12055034343E+02  0.81311434699E+03  0.81342184190E+03  0.00000000000E+00 0.  1.
</event>
<event>
 4    1  0.6008802E+002  0.3018022E+02  0.7546771E-02  0.1418037E+00
          2   -1    0    0  502    0  0.00000000000E+00  0.00000000000E+00  0.46026057329E+02  0.46026057329E+02  0.00000000000E+00 0.  1.
         -2   -1    0    0    0  501 -0.00000000000E+00 -0.00000000000E+00 -0.21438025128E+02  0.21438025128E+02  0.00000000000E+00 0. -1.
         21    1    1    2  502  503  0.17522497730E+02  0.24572499726E+02  0.21647228346E+02  0.37140923044E+02  0.00000000000E+00 0. -1.
         21    1    1    2  503  501 -0.17522497730E+02 -0.24572499726E+02  0.29408038544E+01  0.30323159413E+02  0.00000000000E+00 0.  1.
</event>
<event>
 4    1  0.6008802E+002  0.6098195E+02  0.7546771E-02  0.1256532E+00
          2   -1    0    0  503    0  0.00000000000E+00  0.00000000000E+00  0.72197282824E+02  0.72197282824E+02  0.00000000000E+00 0.  1.
         -2   -1    0    0    0  501 -0.00000000000E+00 -0.00000000000E+00 -0.13085874375E+03  0.13085874375E+03  0.00000000000E+00 0. -1.
         21    1    1    2  502  501 -0.59451212645E+02  0.13577597938E+02 -0.10839089855E+03  0.12436794096E+03  0.00000000000E+00 0. -1.
         21    1    1    2  503  502  0.59451212645E+02 -0.13577597938E+02  0.49729437625E+02  0.78688085612E+02  0.00000000000E+00 0.  1.
</event>
<event>
 4    1  0.6008802E+002  0.4341778E+02  0.7546771E-02  0.1329543E+00
          2   -1    0    0  503    0  0.00000000000E+00  0.00000000000E+00  0.25054950077E+03  0.25054950077E+03  0.00000000000E+00 0.  1.
         -2   -1    0    0    0  501 -0.00000000000E+00 -0.00000000000E+00 -0.16183500021E+02  0.16183500021E+02  0.00000000000E+00 0. -1.
         21    1    1    2  502  501  0.43325828417E+02  0.28242432184E+01  0.19625647230E+02  0.47647348163E+02  0.00000000000E+00 0. -1.
         21    1    1    2  503  502 -0.43325828417E+02 -0.28242432184E+01  0.21474035352E+03  0.21908565263E+03  0.00000000000E+00 0.  1.
</event>
<event>
 4    1  0.6008802E+002  0.2327124E+02  0.7546771E-02  0.1489120E+00
          2   -1    0    0  502    0  0.00000000000E+00  0.00000000000E+00  0.39015585187E+03  0.39015585187E+03  0.00000000000E+00 0.  1.
         -2   -1    0    0    0  501 -0.00000000000E+00 -0.00000000000E+00 -0.12526442447E+02  0.12526442447E+02  0.00000000000E+00 0. -1.
         21    1    1    2  502  503  0.22973062668E+02  0.37133618919E+01  0.37867326398E+03  0.37938765336E+03  0.00000000000E+00 0.  1.
         21    1    1    2  503  501 -0.22973062668E+02 -0.37133618919E+01 -0.10438545645E+01  0.23294640955E+02  0.00000000000E+00 0. -1.
</event>
<event>
 4    1  0.6008802E+002  0.2164784E+02  0.7546771E-02  0.1510213E+00
          2   -1    0    0  503    0  0.00000000000E+00  0.00000000000E+00  0.23621517316E+02  0.23621517316E+02  0.00000000000E+00 0. -1.
         -2   -1    0    0    0  501 -0.00000000000E+00 -0.00000000000E+00 -0.25634758469E+02  0.25634758469E+02  0.00000000000E+00 0.  1.
         21    1    1    2  502  501 -0.19188649029E+02  0.10021204760E+02 -0.12716965814E+02  0.25106772312E+02  0.00000000000E+00 0.  1.
         21    1    1    2  503  502  0.19188649029E+02 -0.10021204760E+02  0.10703724660E+02  0.24149503473E+02  0.00000000000E+00 0. -1.
</event>
<event>
 4    1  0.6008802E+002  0.3228681E+02  0.7546771E-02  0.1400712E+00
          2   -1    0    0  503    0  0.00000000000E+00  0.00000000000E+00  0.50792331007E+01  0.50792331007E+01  0.00000000000E+00 0.  1.
         -2   -1    0    0    0  501 -0.00000000000E+00 -0.00000000000E+00 -0.35613213894E+03  0.35613213894E+03  0.00000000000E+00 0. -1.
         21    1    1    2  502  501  0.32048143385E+02 -0.39184966301E+01 -0.29308815217E+03  0.29486115895E+03  0.00000000000E+00 0. -1.
         21    1    1    2  503  502 -0.32048143385E+02  0.39184966301E+01 -0.57964753668E+02  0.66350213098E+02  0.00000000000E+00 0.  1.
</event>
<event>
 4    1  0.6008802E+002  0.2162717E+02  0.7546771E-02  0.1510496E+00
          2   -1    0    0  503    0  0.00000000000E+00  0.00000000000E+00  0.40526518219E+02  0.40526518219E+02  0.00000000000E+00 0.  1.
         -2   -1    0    0    0  501 -0.00000000000E+00 -0.00000000000E+00 -0.28350698797E+02  0.28350698797E+02  0.00000000000E+00 0. -1.
         21    1    1    2  502  501 -0.20128853213E+02  0.79097268002E+01 -0.20429918417E+02  0.29750900428E+02  0.00000000000E+00 0. -1.
         21    1    1    2  503  502  0.20128853213E+02 -0.79097268002E+01  0.32605737839E+02  0.39126316588E+02  0.00000000000E+00 0.  1.
</event>
<event>
 4    1  0.6008802E+002  0.5414613E+02  0.7546771E-02  0.1281132E+00
          2   -1    0    0  503    0  0.00000000000E+00  0.00000000000E+00  0.18051775903E+02  0.18051775903E+02  0.00000000000E+00 0. -1.
         -2   -1    0    0    0  501 -0.00000000000E+00 -0.00000000000E+00 -0.39669787030E+03  0.39669787030E+03  0.00000000000E+00 0.  1.
         21    1    1    2  502  501  0.26929284303E+02  0.46974637702E+02 -0.34869073687E+03  0.35286971097E+03  0.00000000000E+00 0.  1.
         21    1    1    2  503  502 -0.26929284303E+02 -0.46974637702E+02 -0.29955357531E+02  0.61879935239E+02  0.00000000000E+00 0. -1.
</event>
<event>
 4    1  0.6008802E+002  0.2295405E+02  0.7546771E-02  0.1493076E+00
          2   -1    0    0  502    0  0.00000000000E+00  0.00000000000E+00  0.18046042394E+03  0.18046042394E+03  0.00000000000E+00 0. -1.
         -2   -1    0    0    0  501 -0.00000000000E+00 -0.00000000000E+00 -0.11216525511E+02  0.11216525511E+02  0.00000000000E+00 0.  1.
         21    1    1    2  502  503  0.22103652359E+02  0.61900549258E+01  0.16704847554E+03  0.16861815267E+03  0.00000000000E+00 0. -1.
         21    1    1    2  503  501 -0.22103652359E+02 -0.61900549258E+01  0.21954228882E+01  0.23058796787E+02  0.00000000000E+00 0.  1.
</event>
<event>
 4    1  0.6008802E+002  0.2858584E+02  0.7546771E-02  0.1432297E+00
          2   -1    0    0  502    0  0.00000000000E+00  0.00000000000E+00  0.11867552301E+03  0.11867552301E+03  0.00000000000E+00 0.  1.
         -2   -1    0    0    0  501 -0.00000000000E+00 -0.00000000000E+00 -0.27508326787E+02  0.27508326787E+02  0.00000000000E+00 0. -1.
         21    1    1    2  502  503 -0.11650355351E+02 -0.26104015410E+02  0.10887001591E+03  0.11256034277E+03  0.00000000000E+00 0.  1.
         21    1    1    2  503  501  0.11650355351E+02  0.26104015410E+02 -0.17702819683E+02  0.33623507031E+02  0.00000000000E+00 0. -1.
</event>
<event>
 4    1  0.6008802E+002  0.2465269E+02  0.7546771E-02  0.1472726E+00
          2   -1    0    0  503    0  0.00000000000E+00  0.00000000000E+00  0.79344572267E+03  0.79344572267E+03  0.00000000000E+00 0. -1.
         -2   -1    0    0    0  501 -0.00000000000E+00 -0.00000000000E+00 -0.93320755993E+00  0.93320755993E+00  0.00000000000E+00 0.  1.
         21    1    1    2  502  501  0.24479123343E+02 -0.29202012372E+01  0.22811417079E+03  0.22944243280E+03  0.00000000000E+00 0.  1.
         21    1    1    2  503  502 -0.24479123343E+02  0.29202012372E+01  0.56439834432E+03  0.56493649743E+03  0.00000000000E+00 0. -1.
</event>
<event>
 4    1  0.6008802E+002  0.4844141E+02  0.7546771E-02  0.1305075E+00
          2   -1    0    0  503    0  0.00000000000E+00  0.00000000000E+00  0.72306480475E+03  0.72306480475E+03  0.00000000000E+00 0. -1.
         -2   -1    0    0    0  501 -0.00000000000E+00 -0.00000000000E+00 -0.42627612723E+01  0.42627612723E+01  0.00000000000E+00 0.  1.
         21    1    1    2  502  501  0.44580990945E+02  0.18950086449E+02  0.18173227670E+03  0.18807761942E+03  0.00000000000E+00 0.  1.
         21    1    1    2  503  502 -0.44580990945E+02 -0.18950086449E+02  0.53706976677E+03  0.53924994660E+03  0.00000000000E+00 0. -1.
</event>
<event>
 4    1  0.6008802E+002  0.2573561E+02  0.7546771E-02  0.1460740E+00
          2   -1    0    0  502    0  0.00000000000E+00  0.00000000000E+00  0.53769915676E+02  0.53769915676E+02  0.00000000000E+00 0.  1.
         -2   -1    0    0    0  501 -0.00000000000E+00 -0.00000000000E+00 -0.22946998499E+02  0.22946998499E+02  0.00000000000E+00 0. -1.
         21    1    1    2  502  503  0.25600262060E+02 -0.26359516224E+01  0.41518069716E+02  0.48847433622E+02  0.00000000000E+00 0.  1.
         21    1    1    2  503  501 -0.25600262060E+02  0.26359516224E+01 -0.10695152538E+02  0.27869480553E+02  0.00000000000E+00 0. -1.
</event>
<event>
 4    1  0.6008802E+002  0.2061395E+02  0.7546771E-02  0.1524849E+00
          2   -1    0    0  502    0  0.00000000000E+00  0.00000000000E+00  0.11138226387E+04  0.11138226387E+04  0.00000000000E+00 0.  1.
         -2   -1    0    0    0  501 -0.00000000000E+00 -0.00000000000E+00 -0.97603427727E+00  0.97603427727E+00  0.00000000000E+00 0. -1.
         21    1    1    2  502  503 -0.66091854884E+01  0.19525717118E+02  0.99145264343E+03  0.99166691945E+03  0.00000000000E+00 0.  1.
         21    1    1    2  503  501  0.66091854884E+01 -0.19525717118E+02  0.12139396098E+03  0.12313175351E+03  0.00000000000E+00 0. -1.
</event>
<event>
 4    1  0.6008802E+002  0.2140256E+02  0.7546771E-02  0.1513594E+00
          2   -1    0    0  503    0  0.00000000000E+00  0.00000000000E+00  0.40162469381E+03  0.40162469381E+03  0.00000000000E+00 0.  1.
         -2   -1    0    0    0  501 -0.00000000000E+00 -0.00000000000E+00 -0.13277495987E+01  0.13277495987E+01  0.00000000000E+00 0. -1.
         21    1    1    2  502  501 -0.19551761615E+02  0.87062193227E+01  0.12449514954E+03  0.12632146253E+03  0.00000000000E+00 0. -1.
         21    1    1    2  503  502  0.19551761615E+02 -0.87062193227E+01  0.27580179467E+03  0.27663098088E+03  0.00000000000E+00 0.  1.
</event>
<event>
 4    1  0.6008802E+002  0.2225534E+02  0.7546771E-02  0.1502067E+00
          2   -1    0    0  503    0  0.00000000000E+00  0.00000000000E+00  0.26403213460E+02  0.26403213460E+02  0.00000000000E+00 0. -1.
         -2   -1    0    0    0  501 -0.00000000000E+00 -0.00000000000E+00 -0.25461392667E+02  0.25461392667E+02  0.00000000000E+00 0.  1.
         21    1    1    2  502  501  0.19277920411E+02  0.11120337549E+02 -0.12834007375E+02  0.25690696134E+02  0.00000000000E+00 0.  1.
         21    1    1    2  503  502 -0.19277920411E+02 -0.11120337549E+02  0.13775828169E+02  0.26173909992E+02  0.00000000000E+00 0. -1.
</event>
<event>
 4    1  0.6008802E+002  0.2911322E+02  0.7546771E-02  0.1427462E+00
          2   -1    0    0  502    0  0.00000000000E+00  0.00000000000E+00  0.12497679328E+04  0.12497679328E+04  0.00000000000E+00 0.  1.
         -2   -1    0    0    0  501 -0.00000000000E+00 -0.00000000000E+00 -0.12045560943E+01  0.12045560943E+01  0.00000000000E+00 0. -1.
         21    1    1    2  502  503 -0.27616033877E+02 -0.92159670596E+01  0.10377559170E+04  0.10381642079E+04  0.00000000000E+00 0.  1.
         21    1    1    2  503  501  0.27616033877E+02  0.92159670596E+01  0.21080745974E+03  0.21280828099E+03  0.00000000000E+00 0. -1.
</event>
<event>
 4    1  0.6008802E+002  0.4004561E+02  0.7546771E-02  0.1348219E+00
          2   -1    0    0  502    0  0.00000000000E+00  0.00000000000E+00  0.15909251836E+04  0.15909251836E+04  0.00000000000E+00 0.  1.
         -2   -1    0    0    0  501 -0.00000000000E+00 -0.00000000000E+00 -0.27640570894E+01  0.27640570894E+01  0.00000000000E+00 0. -1.
         21    1    1    2  502  503  0.26305306184E+02 -0.30194063906E+02  0.14292207729E+04  0.14297816855E+04  0.00000000000E+00 0.  1.
         21    1    1    2  503  501 -0.26305306184E+02  0.30194063906E+02  0.15894035369E+03  0.16390755522E+03  0.00000000000E+00 0. -1.
</event>
<event>
 4    1  0.6008802E+002  0.2129636E+02  0.7546771E-02  0.1515075E+00
          2   -1    0    0  502    0  0.00000000000E+00  0.00000000000E+00  0.13609944382E+04  0.13609944382E+04  0.00000000000E+00 0. -1.
         -2   -1    0    0    0  501 -0.00000000000E+00 -0.00000000000E+00 -0.16370268336E+01  0.16370268336E+01  0.00000000000E+00 0.  1.
         21    1    1    2  502  503 -0.25196327316E+01 -0.21146784924E+02  0.12877075010E+04  0.12878835907E+04  0.00000000000E+00 0. -1.
         21    1    1    2  503  501  0.25196327316E+01  0.21146784924E+02  0.71649910332E+02  0.74747874300E+02  0.00000000000E+00 0.  1.
</event>
<event>
 4    1  0.6008802E+002  0.2614715E+02  0.7546771E-02  0.1456369E+00
          2   -1    0    0  503    0  0.00000000000E+00  0.00000000000E+00  0.60593889673E+03  0.60593889673E+03  0.00000000000E+00 0. -1.
         -2   -1    0    0    0  501 -0.00000000000E+00 -0.00000000000E+00 -0.25817798235E+01  0.25817798235E+01  0.00000000000E+00 0.  1.
         21    1    1    2  502  501 -0.22627247343E+01 -0.26049055178E+02  0.73385800642E+02  0.77904742698E+02  0.00000000000E+00 0.  1.
         21    1    1    2  503  502  0.22627247343E+01  0.26049055178E+02  0.52997131626E+03  0.53061593385E+03  0.00000000000E+00 0. -1.
</event>
<event>
 4    1  0.6008802E+002  0.3095385E+02  0.7546771E-02  0.1411485E+00
          2   -1    0    0  502    0  0.00000000000E+00  0.00000000000E+00  0.12270066317E+02  0.12270066317E+02  0.00000000000E+00 0.  1.
         -2   -1    0    0    0  501 -0.00000000000E+00 -0.00000000000E+00 -0.78092454970E+02  0.78092454970E+02  0.00000000000E+00 0. -1.
         21    1    1    2  502  503  0.23517015759E+02 -0.20126860137E+02 -0.32556444906E+02  0.44922852026E+02  0.00000000000E+00 0. -1.
         21    1    1    2  503  501 -0.23517015759E+02  0.20126860137E+02 -0.33265943747E+02  0.45439669261E+02  0.00000000000E+00 0.  1.
</event>
<event>
 4    1  0.6008802E+002  0.3005801E+02  0.7546771E-02  0.1419093E+00
          2   -1    0    0  502    0  0.00000000000E+00  0.00000000000E+00  0.62905545997E+03  0.62905545997E+03  0.00000000000E+00 0. -1.
         -2   -1    0    0    0  501 -0.00000000000E+00 -0.00000000000E+00 -0.33024872547E+01  0.33024872547E+01  0.00000000000E+00 0.  1.
         21    1    1    2  502  503 -0.28417305843E+02 -0.97949252038E+01  0.55055794071E+03  0.55137784677E+03  0.00000000000E+00 0. -1.
         21    1    1    2  503  501  0.28417305843E+02  0.97949252038E+01  0.75195032002E+02  0.80980100450E+02  0.00000000000E+00 0.  1.
</event>
<event>
 4    1  0.6008802E+002  0.3680397E+02  0.7546771E-02  0.1368306E+00
          2   -1    0    0  503    0  0.00000000000E+00  0.00000000000E+00  0.20667278645E+04  0.20667278645E+04  0.00000000000E+00 0. -1.
         -2   -1    0    0    0  501 -0.00000000000E+00 -0.00000000000E+00 -0.27432835896E+02  0.27432835896E+02  0.00000000000E+00 0.  1.
         21    1    1    2  502  501 -0.32694066261E+02  0.16900595387E+02 -0.14849296770E+02  0.39686694341E+02  0.00000000000E+00 0.  1.
         21    1    1    2  503  502  0.32694066261E+02 -0.16900595387E+02  0.20541443253E+04  0.20544740060E+04  0.00000000000E+00 0. -1.
</event>
<event>
 4    1  0.6008802E+002  0.4007642E+02  0.7546771E-02  0.1348039E+00
          2   -1    0    0  502    0  0.00000000000E+00  0.00000000000E+00  0.45777168223E+02  0.45777168223E+02  0.00000000000E+00 0.  1.
         -2   -1    0    0    0  501 -0.00000000000E+00 -0.00000000000E+00 -0.35653105521E+02  0.35653105521E+02  0.00000000000E+00 0. -1.
         21    1    1    2  502  503 -0.31997502806E+02 -0.24130457967E+02  0.10198849011E+02  0.41353787114E+02  0.00000000000E+00 0.  1.
         21    1    1    2  503  501  0.31997502806E+02  0.24130457967E+02 -0.74786308835E-01  0.40076486629E+02  0.00000000000E+00 0. -1.
</event>
<event>
 4    1  0.6008802E+002  0.2797452E+02  0.7546771E-02  0.1438057E+00
          2   -1    0    0  502    0  0.00000000000E+00  0.00000000000E+00  0.13300462401E+04  0.13300462401E+04  0.00000000000E+00 0. -1.
         -2   -1    0    0    0  501 -0.00000000000E+00 -0.00000000000E+00 -0.11104343152E+01  0.11104343152E+01  0.00000000000E+00 0.  1.
         21    1    1    2  502  503 -0.14599175488E+02 -0.23862896390E+02  0.11208306955E+04  0.11211797455E+04  0.00000000000E+00 0. -1.
         21    1    1    2  503  501  0.14599175488E+02  0.23862896390E+02  0.20810511025E+03  0.20997692888E+03  0.00000000000E+00 0.  1.
</event>
<event>
 4    1  0.6008802E+002  0.2322868E+02  0.7546771E-02  0.1489646E+00
          2   -1    0    0  503    0  0.00000000000E+00  0.00000000000E+00  0.34929496070E+02  0.34929496070E+02  0.00000000000E+00 0.  1.
         -2   -1    0    0    0  501 -0.00000000000E+00 -0.00000000000E+00 -0.52380467294E+02  0.52380467294E+02  0.00000000000E+00 0. -1.
         21    1    1    2  502  501 -0.11770711675E+02 -0.20025532679E+02 -0.45382452404E+02  0.50981747701E+02  0.00000000000E+00 0. -1.
         21    1    1    2  503  502  0.11770711675E+02  0.20025532679E+02  0.27931481180E+02  0.36328215664E+02  0.00000000000E+00 0.  1.
</event>
<event>
 4    1  0.6008802E+002  0.2848194E+02  0.7546771E-02  0.1433264E+00
          2   -1    0    0  502    0  0.00000000000E+00  0.00000000000E+00  0.18654646568E+04  0.18654646568E+04  0.00000000000E+00 0.  1.
         -2   -1    0    0    0  501 -0.00000000000E+00 -0.00000000000E+00 -0.66060367347E+00  0.66060367347E+00  0.00000000000E+00 0. -1.
         21    1    1    2  502  503 -0.25021808055E+02 -0.13606256607E+02  0.14778400990E+04  0.14781145353E+04  0.00000000000E+00 0.  1.
         21    1    1    2  503  501  0.25021808055E+02  0.13606256607E+02  0.38696395409E+03  0.38801072519E+03  0.00000000000E+00 0. -1.
</event>
<event>
 4    1  0.6008802E+002  0.2080408E+02  0.7546771E-02  0.1522081E+00
          2   -1    0    0  502    0  0.00000000000E+00  0.00000000000E+00  0.22013351389E+04  0.22013351389E+04  0.00000000000E+00 0.  1.
         -2   -1    0    0    0  501 -0.00000000000E+00 -0.00000000000E+00 -0.22608563761E+00  0.22608563761E+00  0.00000000000E+00 0. -1.
         21    1    1    2  502  503 -0.49359059088E+01  0.20210056797E+02  0.14980012770E+04  0.14981457324E+04  0.00000000000E+00 0.  1.
         21    1    1    2  503  501  0.49359059088E+01 -0.20210056797E+02  0.70310777627E+03  0.70341549216E+03  0.00000000000E+00 0. -1.
</event>
<event>
 4    1  0.6008802E+002  0.2258567E+02  0.7546771E-02  0.1497767E+00
          2   -1    0    0  503    0  0.00000000000E+00  0.00000000000E+00  0.11328059007E+04  0.11328059007E+04  0.00000000000E+00 0.  1.
         -2   -1    0    0    0  501 -0.00000000000E+00 -0.00000000000E+00 -0.49589189807E+00  0.49589189807E+00  0.00000000000E+00 0. -1.
         21    1    1    2  502  501 -0.22506740517E+02 -0.18866031045E+01  0.39435496444E+03  0.39500120331E+03  0.00000000000E+00 0. -1.
         21    1    1    2  503  502  0.22506740517E+02  0.18866031045E+01  0.73795504433E+03  0.73830058925E+03  0.00000000000E+00 0.  1.
</event>
<event>
 4    1  0.6008802E+002  0.6346240E+02  0.7546771E-02  0.1248502E+00
          2   -1    0    0  503    0  0.00000000000E+00  0.00000000000E+00  0.17991561552E+04  0.17991561552E+04  0.00000000000E+00 0.  1.
         -2   -1    0    0    0  501 -0.00000000000E+00 -0.00000000000E+00 -0.46829348708E+01  0.46829348708E+01  0.00000000000E+00 0. -1.
         21    1    1    2  502  501 -0.24537392629E+02 -0.58526852681E+02  0.24561607533E+03  0.25368234582E+03  0.00000000000E+00 0. -1.
         21    1    1    2  503  502  0.24537392629E+02  0.58526852681E+02  0.15488571450E+04  0.15501567442E+04  0.00000000000E+00 0.  1.
</event>
<event>
 4    1  0.6008802E+002  0.2250809E+02  0.7546771E-02  0.1498769E+00
          2   -1    0    0  503    0  0.00000000000E+00  0.00000000000E+00  0.38319412801E+03  0.38319412801E+03  0.00000000000E+00 0.  1.
         -2   -1    0    0    0  501 -0.00000000000E+00 -0.00000000000E+00 -0.33684024633E+01  0.33684024633E+01  0.00000000000E+00 0. -1.
         21    1    1    2  502  501  0.11102853200E+01 -0.22480693707E+02  0.39264463194E+02  0.45258285351E+02  0.00000000000E+00 0. -1.
         21    1    1    2  503  502 -0.11102853200E+01  0.22480693707E+02  0.34056126235E+03  0.34130424512E+03  0.00000000000E+00 0.  1.
</event>
<event>
 4    1  0.6008802E+002  0.3138455E+02  0.7546771E-02  0.1407935E+00
          2   -1    0    0  503    0  0.00000000000E+00  0.00000000000E+00  0.13489590328E+04  0.13489590328E+04  0.00000000000E+00 0. -1.
         -2   -1    0    0    0  501 -0.00000000000E+00 -0.00000000000E+00 -0.76425882649E+00  0.76425882649E+00  0.00000000000E+00 0.  1.
         21    1    1    2  502  501  0.17737807794E+02 -0.25891311741E+02  0.81659383371E+03  0.81719671996E+03  0.00000000000E+00 0. -1.
         21    1    1    2  503  502 -0.17737807794E+02  0.25891311741E+02  0.53160094022E+03  0.53252657163E+03  0.00000000000E+00 0.  1.
</event>
<event>
 4    1  0.6008802E+002  0.2767012E+02  0.7546771E-02  0.1440990E+00
          2   -1    0    0  502    0  0.00000000000E+00  0.00000000000E+00  0.15327010819E+04  0.15327010819E+04  0.00000000000E+00 0. -1.
         -2   -1    0    0    0  501 -0.00000000000E+00 -0.00000000000E+00 -0.18041114148E+01  0.18041114148E+01  0.00000000000E+00 0.  1.
         21    1    1    2  502  503 -0.26785435138E+02 -0.69408867141E+01  0.14178901854E+04  0.14181601508E+04  0.00000000000E+00 0. -1.
         21    1    1    2  503  501  0.26785435138E+02  0.69408867141E+01  0.11300678506E+03  0.11634504249E+03  0.00000000000E+00 0.  1.
</event>
<event>
 4    1  0.6008802E+002  0.2065207E+02  0.7546771E-02  0.1524291E+00
          2   -1    0    0  503    0  0.00000000000E+00  0.00000000000E+00  0.17502823364E+03  0.17502823364E+03  0.00000000000E+00 0.  1.
         -2   -1    0    0    0  501 -0.00000000000E+00 -0.00000000000E+00 -0.35148413228E+01  0.35148413228E+01  0.00000000000E+00 0. -1.
         21    1    1    2  502  501  0.13312263755E+02 -0.15788977589E+02  0.36316683816E+02  0.41778100759E+02  0.00000000000E+00 0. -1.
         21    1    1    2  503  502 -0.13312263755E+02  0.15788977589E+02  0.13519670851E+03  0.13676497421E+03  0.00000000000E+00 0.  1.
</event>
<event>
 4    1  0.6008802E+002  0.2092225E+02  0.7546771E-02  0.1520378E+00
          2   -1    0    0  503    0  0.00000000000E+00  0.00000000000E+00  0.20892139899E+02  0.20892139899E+02  0.00000000000E+00 0. -1.
         -2   -1    0    0    0  501 -0.00000000000E+00 -0.00000000000E+00 -0.52792362902E+02  0.52792362902E+02  0.00000000000E+00 0.  1.
         21    1    1    2  502  501  0.17824284717E+02 -0.10956069679E+02 -0.44562021474E+02  0.49229202170E+02  0.00000000000E+00 0.  1.
         21    1    1    2  503  502 -0.17824284717E+02  0.10956069679E+02  0.12661798470E+02  0.24455300631E+02  0.00000000000E+00 0. -1.
</event>
<event>
 4    1  0.6008802E+002  0.2283918E+02  0.7546771E-02  0.1494527E+00
          2   -1    0    0  502    0  0.00000000000E+00  0.00000000000E+00  0.61368863403E+03  0.61368863403E+03  0.00000000000E+00 0.  1.
         -2   -1    0    0    0  501 -0.00000000000E+00 -0.00000000000E+00 -0.10841426703E+01  0.10841426703E+01  0.00000000000E+00 0. -1.
         21    1    1    2  502  503  0.22824051388E+02  0.83126538466E+00  0.44915621024E+03  0.44973651122E+03  0.00000000000E+00 0.  1.
         21    1    1    2  503  501 -0.22824051388E+02 -0.83126538466E+00  0.16344828112E+03  0.16503626548E+03  0.00000000000E+00 0. -1.
</event>
<event>
 4    1  0.6008802E+002  0.2064268E+02  0.7546771E-02  0.1524428E+00
          2   -1    0    0  502    0  0.00000000000E+00  0.00000000000E+00  0.45686607656E+03  0.45686607656E+03  0.00000000000E+00 0.  1.
         -2   -1    0    0    0  501 -0.00000000000E+00 -0.00000000000E+00 -0.21952881606E+01  0.21952881606E+01  0.00000000000E+00 0. -1.
         21    1    1    2  502  503 -0.17929185360E+02  0.10230578557E+02  0.40140594199E+03  0.40193637642E+03  0.00000000000E+00 0.  1.
         21    1    1    2  503  501  0.17929185360E+02 -0.10230578557E+02  0.53264846415E+02  0.57124988305E+02  0.00000000000E+00 0. -1.
</event>
<event>
 4    1  0.6008802E+002  0.2009969E+02  0.7546771E-02  0.1532517E+00
          2   -1    0    0  502    0  0.00000000000E+00  0.00000000000E+00  0.13941114053E+04  0.13941114053E+04  0.00000000000E+00 0. -1.
         -2   -1    0    0    0  501 -0.00000000000E+00 -0.00000000000E+00 -0.65575497282E+00  0.65575497282E+00  0.00000000000E+00 0.  1.
         21    1    1    2  502  503  0.85361123686E+01 -0.18197041496E+02  0.12177084080E+04  0.12178742811E+04  0.00000000000E+00 0. -1.
         21    1    1    2  503  501 -0.85361123686E+01  0.18197041496E+02  0.17574724237E+03  0.17689287926E+03  0.00000000000E+00 0.  1.
</event>
<event>
 4    1  0.6008802E+002  0.1973585E+03  0.7546771E-02  0.1057025E+00
          2   -1    0    0  503    0  0.00000000000E+00  0.00000000000E+00  0.22584377688E+04  0.22584377688E+04  0.00000000000E+00 0. -1.
         -2   -1    0    0    0  501 -0.00000000000E+00 -0.00000000000E+00 -0.18672225428E+02  0.18672225428E+02  0.00000000000E+00 0.  1.
         21    1    1    2  502  501 -0.15398012360E+03 -0.12345234854E+03  0.80528220649E+03  0.82911386004E+03  0.00000000000E+00 0.  1.
         21    1    1    2  503  502  0.15398012360E+03  0.12345234854E+03  0.14344833369E+04  0.14479961342E+04  0.00000000000E+00 0. -1.
</event>
<event>
 4    1  0.6008802E+002  0.2921424E+02  0.7546771E-02  0.1426550E+00
          2   -1    0    0  502    0  0.00000000000E+00  0.00000000000E+00  0.21352088868E+04  0.21352088868E+04  0.00000000000E+00 0.  1.
         -2   -1    0    0    0  501 -0.00000000000E+00 -0.00000000000E+00 -0.69756869338E+00  0.69756869338E+00  0.00000000000E+00 0. -1.
         21    1    1    2  502  503  0.10433632548E+02 -0.27287564447E+02  0.17651044257E+04  0.17653461716E+04  0.00000000000E+00 0.  1.
         21    1    1    2  503  501 -0.10433632548E+02  0.27287564447E+02  0.36940689239E+03  0.37056028390E+03  0.00000000000E+00 0. -1.
</event>
<event>
 4    1  0.6008802E+002  0.2231067E+02  0.7546771E-02  0.1501340E+00
          2   -1    0    0  503    0  0.00000000000E+00  0.00000000000E+00  0.19000218410E+03  0.19000218410E+03  0.00000000000E+00 0. -1.
         -2   -1    0    0    0  501 -0.00000000000E+00 -0.00000000000E+00 -0.27564049848E+01  0.27564049848E+01  0.00000000000E+00 0.  1.
         21    1    1    2  502  501  0.21927508668E+02  0.41170906643E+01  0.72166368508E+02  0.75536420458E+02  0.00000000000E+00 0. -1.
         21    1    1    2  503  502 -0.21927508668E+02 -0.41170906643E+01  0.11507941061E+03  0.11722216863E+03  0.00000000000E+00 0.  1.
</event>
<event>
 4    1  0.6008802E+002  0.2756191E+02  0.7546771E-02  0.1442044E+00
          2   -1    0    0  502    0  0.00000000000E+00  0.00000000000E+00  0.28683999711E+03  0.28683999711E+03  0.00000000000E+00 0.  1.
         -2   -1    0    0    0  501 -0.00000000000E+00 -0.00000000000E+00 -0.30287848275E+01  0.30287848275E+01  0.00000000000E+00 0. -1.
         21    1    1    2  502  503  0.19938235412E+02 -0.19029606466E+02  0.19327028103E+03  0.19522566605E+03  0.00000000000E+00 0.  1.
         21    1    1    2  503  501 -0.19938235412E+02  0.19029606466E+02  0.90540931251E+02  0.94643115891E+02  0.00000000000E+00 0. -1.
</event>
<event>
 4    1  0.6008802E+002  0.2357173E+02  0.7546771E-02  0.1485441E+00
          2   -1    0    0  503    0  0.00000000000E+00  0.00000000000E+00  0.87089866049E+03  0.87089866049E+03  0.00000000000E+00 0. -1.
         -2   -1    0    0    0  501 -0.00000000000E+00 -0.00000000000E+00 -0.42819251922E+01  0.42819251922E+01  0.00000000000E+00 0.  1.
         21    1    1    2  502  501 -0.32054821526E+01  0.23352756891E+02  0.29631981605E+02  0.37863976338E+02  0.00000000000E+00 0.  1.
         21    1    1    2  503  502  0.32054821526E+01 -0.23352756891E+02  0.83698475369E+03  0.83731660934E+03  0.00000000000E+00 0. -1.
</event>
<event>
 4    1  0.6008802E+002  0.2291968E+02  0.7546771E-02  0.1493509E+00
          2   -1    0    0  502    0  0.00000000000E+00  0.00000000000E+00  0.11155875921E+04  0.11155875921E+04  0.00000000000E+00 0. -1.
         -2   -1    0    0    0  501 -0.00000000000E+00 -0.00000000000E+00 -0.10734728921E+01  0.10734728921E+01  0.00000000000E+00 0.  1.
         21    1    1    2  502  503  0.16518170432E+02  0.15889046441E+02  0.97557509647E+03  0.97584429117E+03  0.00000000000E+00 0. -1.
         21    1    1    2  503  501 -0.16518170432E+02 -0.15889046441E+02  0.13893902278E+03  0.14081677387E+03  0.00000000000E+00 0.  1.
</event>
<event>
 4    1  0.6008802E+002  0.2283797E+02  0.7546771E-02  0.1494543E+00
          2   -1    0    0  503    0  0.00000000000E+00  0.00000000000E+00  0.11525257426E+04  0.11525257426E+04  0.00000000000E+00 0.  1.
         -2   -1    0    0    0  501 -0.00000000000E+00 -0.00000000000E+00 -0.92184924675E+00  0.92184924675E+00  0.00000000000E+00 0. -1.
         21    1    1    2  502  501  0.17881976478E+02  0.14205905598E+02  0.16430754960E+03  0.16588714143E+03  0.00000000000E+00 0. -1.
         21    1    1    2  503  502 -0.17881976478E+02 -0.14205905598E+02  0.98729634376E+03  0.98756045043E+03  0.00000000000E+00 0.  1.
</event>
<event>
 4    1  0.6008802E+002  0.2529894E+02  0.7546771E-02  0.1465487E+00
          2   -1    0    0  502    0  0.00000000000E+00  0.00000000000E+00  0.15969361319E+02  0.15969361319E+02  0.00000000000E+00 0.  1.
         -2   -1    0    0    0  501 -0.00000000000E+00 -0.00000000000E+00 -0.25382548691E+03  0.25382548691E+03  0.00000000000E+00 0. -1.
         21    1    1    2  502  503 -0.12200557091E+01  0.25269507113E+02  0.48619204675E+01  0.25761886505E+02  0.00000000000E+00 0.  1.
         21    1    1    2  503  501  0.12200557091E+01 -0.25269507113E+02 -0.24271804605E+03  0.24403296172E+03  0.00000000000E+00 0. -1.
</event>
<event>
 4    1  0.6008802E+002  0.2044442E+02  0.7546771E-02  0.1527347E+00
          2   -1    0    0  502    0  0.00000000000E+00  0.00000000000E+00  0.22120587948E+01  0.22120587948E+01  0.00000000000E+00 0.  1.
         -2   -1    0    0    0  501 -0.00000000000E+00 -0.00000000000E+00 -0.71605348965E+03  0.71605348965E+03  0.00000000000E+00 0. -1.
         21    1    1    2  502  503  0.20381888605E+02 -0.15978133168E+01 -0.48794139395E+02  0.52904087081E+02  0.00000000000E+00 0.  1.
         21    1    1    2  503  501 -0.20381888605E+02  0.15978133168E+01 -0.66504729146E+03  0.66536146136E+03  0.00000000000E+00 0. -1.
</event>
<event>
 4    1  0.6008802E+002  0.2984376E+02  0.7546771E-02  0.1420959E+00
          2   -1    0    0  502    0  0.00000000000E+00  0.00000000000E+00  0.12186775575E+03  0.12186775575E+03  0.00000000000E+00 0. -1.
         -2   -1    0    0    0  501 -0.00000000000E+00 -0.00000000000E+00 -0.85060618839E+01  0.85060618839E+01  0.00000000000E+00 0.  1.
         21    1    1    2  502  503 -0.21615373832E+02  0.20577310012E+02  0.81141918616E+02  0.86456121993E+02  0.00000000000E+00 0.  1.
         21    1    1    2  503  501  0.21615373832E+02 -0.20577310012E+02  0.32219775247E+02  0.43917695639E+02  0.00000000000E+00 0. -1.
</event>
<event>
 4    1  0.6008802E+002  0.3277514E+02  0.7546771E-02  0.1396918E+00
          2   -1    0    0  502    0  0.00000000000E+00  0.00000000000E+00  0.11191361003E+03  0.11191361003E+03  0.00000000000E+00 0.  1.
         -2   -1    0    0    0  501 -0.00000000000E+00 -0.00000000000E+00 -0.11515129156E+02  0.11515129156E+02  0.00000000000E+00 0. -1.
         21    1    1    2  502  503 -0.50393847830E+01  0.32385408886E+02  0.25021687188E+02  0.41234632743E+02  0.00000000000E+00 0. -1.
         21    1    1    2  503  501  0.50393847830E+01 -0.32385408886E+02  0.75376793681E+02  0.82194106439E+02  0.00000000000E+00 0.  1.
</event>
<event>
 4    1  0.6008802E+002  0.3321731E+02  0.7546771E-02  0.1393549E+00
          2   -1    0    0  502    0  0.00000000000E+00  0.00000000000E+00  0.61088461277E+02  0.61088461277E+02  0.00000000000E+00 0. -1.
         -2   -1    0    0    0  501 -0.00000000000E+00 -0.00000000000E+00 -0.57141254955E+02  0.57141254955E+02  0.00000000000E+00 0.  1.
         21    1    1    2  502  503 -0.20126014355E+02 -0.26425992060E+02  0.50860674139E+02  0.60746997325E+02  0.00000000000E+00 0. -1.
         21    1    1    2  503  501  0.20126014355E+02  0.26425992060E+02 -0.46913467817E+02  0.57482718906E+02  0.00000000000E+00 0.  1.
</event>
<event>
 4    1  0.6008802E+002  0.4012125E+02  0.7546771E-02  0.1347777E+00
          2   -1    0    0  503    0  0.00000000000E+00  0.00000000000E+00  0.55477739027E+03  0.55477739027E+03  0.00000000000E+00 0. -1.
         -2   -1    0    0    0  501 -0.00000000000E+00 -0.00000000000E+00 -0.15237966530E+02  0.15237966530E+02  0.00000000000E+00 0.  1.
         21    1    1    2  502  501  0.26395334671E+02  0.30215901018E+02  0.13328651389E+02  0.42277267113E+02  0.00000000000E+00 0.  1.
         21    1    1    2  503  502 -0.26395334671E+02 -0.30215901018E+02  0.52621077235E+03  0.52773808969E+03  0.00000000000E+00 0. -1.
</event>
<event>
 4    1  0.6008802E+002  0.2947962E+02  0.7546771E-02  0.1424173E+00
          2   -1    0    0  503    0  0.00000000000E+00  0.00000000000E+00  0.50199232490E+03  0.50199232490E+03  0.00000000000E+00 0.  1.
         -2   -1    0    0    0  501 -0.00000000000E+00 -0.00000000000E+00 -0.34297890671E+01  0.34297890671E+01  0.00000000000E+00 0. -1.
         21    1    1    2  502  501 -0.19179181740E+02 -0.22387648298E+02  0.71438981673E+02  0.77282442450E+02  0.00000000000E+00 0. -1.
         21    1    1    2  503  502  0.19179181740E+02  0.22387648298E+02  0.42712355416E+03  0.42813967152E+03  0.00000000000E+00 0.  1.
</event>
<event>
 4    1  0.6008802E+002  0.2283182E+02  0.7546771E-02  0.1494621E+00
          2   -1    0    0  503    0  0.00000000000E+00  0.00000000000E+00  0.16682610148E+03  0.16682610148E+03  0.00000000000E+00 0.  1.
         -2   -1    0    0    0  501 -0.00000000000E+00 -0.00000000000E+00 -0.83845111378E+01  0.83845111378E+01  0.00000000000E+00 0. -1.
         21    1    1    2  502  501  0.13218432169E+02 -0.18616262381E+02  0.98344554828E+01  0.24859780544E+02  0.00000000000E+00 0. -1.
         21    1    1    2  503  502 -0.13218432169E+02  0.18616262381E+02  0.14860713486E+03  0.15035083208E+03  0.00000000000E+00 0.  1.
</event>
<event>
 4    1  0.6008802E+002  0.4224093E+02  0.7546771E-02  0.1335832E+00
          2   -1    0    0  502    0  0.00000000000E+00  0.00000000000E+00  0.19801080204E+03  0.19801080204E+03  0.00000000000E+00 0. -1.
         -2   -1    0    0    0  501 -0.00000000000E+00 -0.00000000000E+00 -0.92951444380E+01  0.92951444380E+01  0.00000000000E+00 0.  1.
         21    1    1    2  502  503 -0.17483361459E+02  0.38452933910E+02  0.11247720747E+03  0.12014748543E+03  0.00000000000E+00 0.  1.
         21    1    1    2  503  501  0.17483361459E+02 -0.38452933910E+02  0.76238450128E+02  0.87158461047E+02  0.00000000000E+00 0. -1.
</event>
<event>
 4    1  0.6008802E+002  0.4149402E+02  0.7546771E-02  0.1339947E+00
          2   -1    0    0  503    0  0.00000000000E+00  0.00000000000E+00  0.39736091278E+02  0.39736091278E+02  0.00000000000E+00 0. -1.
         -2   -1    0    0    0  501 -0.00000000000E+00 -0.00000000000E+00 -0.60320615593E+02  0.60320615593E+02  0.00000000000E+00 0.  1.
         21    1    1    2  502  501  0.17352406466E+02 -0.37691477774E+02 -0.36843912940E+02  0.55490786872E+02  0.00000000000E+00 0.  1.
         21    1    1    2  503  502 -0.17352406466E+02  0.37691477774E+02  0.16259388625E+02  0.44565920000E+02  0.00000000000E+00 0. -1.
</event>
<event>
 4    1  0.6008802E+002  0.2380290E+02  0.7546771E-02  0.1482655E+00
          2   -1    0    0  502    0  0.00000000000E+00  0.00000000000E+00  0.12063273632E+02  0.12063273632E+02  0.00000000000E+00 0.  1.
         -2   -1    0    0    0  501 -0.00000000000E+00 -0.00000000000E+00 -0.47962189855E+02  0.47962189855E+02  0.00000000000E+00 0. -1.
         21    1    1    2  502  503 -0.74696700379E+01 -0.22600492920E+02 -0.13626667818E+02  0.27427437477E+02  0.00000000000E+00 0.  1.
         21    1    1    2  503  501  0.74696700379E+01  0.22600492920E+02 -0.22272248405E+02  0.32598026010E+02  0.00000000000E+00 0. -1.
</event>
<event>
 4    1  0.6008802E+002  0.2205034E+02  0.7546771E-02  0.1504780E+00
          2   -1    0    0  503    0  0.00000000000E+00  0.00000000000E+00  0.14915125892E+04  0.14915125892E+04  0.00000000000E+00 0.  1.
         -2   -1    0    0    0  501 -0.00000000000E+00 -0.00000000000E+00 -0.35890265555E+00  0.35890265555E+00  0.00000000000E+00 0. -1.
         21    1    1    2  502  501  0.19925426067E+02  0.94443055834E+01  0.51968656484E+03  0.52015415329E+03  0.00000000000E+00 0. -1.
         21    1    1    2  503  502 -0.19925426067E+02 -0.94443055834E+01  0.97146712170E+03  0.97171733856E+03  0.00000000000E+00 0.  1.
</event>
<event>
 4    1  0.6008802E+002  0.2401305E+02  0.7546771E-02  0.1480154E+00
          2   -1    0    0  502    0  0.00000000000E+00  0.00000000000E+00  0.57909468165E+03  0.57909468165E+03  0.00000000000E+00 0. -1.
         -2   -1    0    0    0  501 -0.00000000000E+00 -0.00000000000E+00 -0.10363323233E+01  0.10363323233E+01  0.00000000000E+00 0.  1.
         21    1    1    2  502  503  0.16593446023E+02 -0.17357543472E+02  0.23162050286E+03  0.23286194217E+03  0.00000000000E+00 0. -1.
         21    1    1    2  503  501 -0.16593446023E+02  0.17357543472E+02  0.34643784647E+03  0.34726907180E+03  0.00000000000E+00 0.  1.
</event>
<event>
 4    1  0.6008802E+002  0.3477892E+02  0.7546771E-02  0.1382124E+00
          2   -1    0    0  503    0  0.00000000000E+00  0.00000000000E+00  0.25198447939E+04  0.25198447939E+04  0.00000000000E+00 0.  1.
         -2   -1    0    0    0  501 -0.00000000000E+00 -0.00000000000E+00 -0.48957268550E+00  0.48957268550E+00  0.00000000000E+00 0. -1.
         21    1    1    2  502  501 -0.69329135475E+01 -0.34080900662E+02  0.10836390805E+04  0.10841970438E+04  0.00000000000E+00 0. -1.
         21    1    1    2  503  502  0.69329135475E+01  0.34080900662E+02  0.14357161408E+04  0.14361373228E+04  0.00000000000E+00 0.  1.
</event>
<event>
 4    1  0.6008802E+002  0.2133509E+02  0.7546771E-02  0.1514534E+00
          2   -1    0    0  503    0  0.00000000000E+00  0.00000000000E+00  0.80083628358E+01  0.80083628358E+01  0.00000000000E+00 0. -1.
         -2   -1    0    0    0  501 -0.00000000000E+00 -0.00000000000E+00 -0.16556526774E+03  0.16556526774E+03  0.00000000000E+00 0.  1.
         21    1    1    2  502  501 -0.18511628391E+02 -0.10606867297E+02 -0.14910781842E+03  0.15062645031E+03  0.00000000000E+00 0.  1.
         21    1    1    2  503  502  0.18511628391E+02  0.10606867297E+02 -0.84490864808E+01  0.22947180261E+02  0.00000000000E+00 0. -1.
</event>
<event>
 4    1  0.6008802E+002  0.3527420E+02  0.7546771E-02  0.1378646E+00
          2   -1    0    0  502    0  0.00000000000E+00  0.00000000000E+00  0.21245499939E+03  0.21245499939E+03  0.00000000000E+00 0. -1.
         -2   -1    0    0    0  501 -0.00000000000E+00 -0.00000000000E+00 -0.13686323159E+02  0.13686323159E+02  0.00000000000E+00 0.  1.
         21    1    1    2  502  503 -0.13069577659E+02  0.32763626122E+02  0.18490657933E+03  0.18824110108E+03  0.00000000000E+00 0. -1.
         21    1    1    2  503  501  0.13069577659E+02 -0.32763626122E+02  0.13862096903E+02  0.37900221469E+02  0.00000000000E+00 0.  1.
</event>
<event>
 4    1  0.6008802E+002  0.3041997E+02  0.7546771E-02  0.1415981E+00
          2   -1    0    0  503    0  0.00000000000E+00  0.00000000000E+00  0.11601120559E+02  0.11601120559E+02  0.00000000000E+00 0. -1.
         -2   -1    0    0    0  501 -0.00000000000E+00 -0.00000000000E+00 -0.13322762000E+03  0.13322762000E+03  0.00000000000E+00 0.  1.
         21    1    1    2  502  501 -0.24565488877E+02  0.17941882565E+02 -0.10668537767E+03  0.11093756894E+03  0.00000000000E+00 0.  1.
         21    1    1    2  503  502  0.24565488877E+02 -0.17941882565E+02 -0.14941121767E+02  0.33891171614E+02  0.00000000000E+00 0. -1.
</event>
<event>
 4    1  0.6008802E+002  0.2224064E+02  0.7546771E-02  0.1502260E+00
          2   -1    0    0  502    0  0.00000000000E+00  0.00000000000E+00  0.12459834051E+02  0.12459834051E+02  0.00000000000E+00 0.  1.
         -2   -1    0    0    0  501 -0.00000000000E+00 -0.00000000000E+00 -0.39914788014E+02  0.39914788014E+02  0.00000000000E+00 0. -1.
         21    1    1    2  502  503 -0.15717463585E+02  0.15735539175E+02 -0.15651911310E+02  0.27196106014E+02  0.00000000000E+00 0. -1.
         21    1    1    2  503  501  0.15717463585E+02 -0.15735539175E+02 -0.11803042652E+02  0.25178516051E+02  0.00000000000E+00 0.  1.
</event>
<event>
 4    1  0.6008802E+002  0.2728102E+02  0.7546771E-02  0.1444805E+00
          2   -1    0    0  502    0  0.00000000000E+00  0.00000000000E+00  0.19593588429E+02  0.19593588429E+02  0.00000000000E+00 0. -1.
         -2   -1    0    0    0  501 -0.00000000000E+00 -0.00000000000E+00 -0.70342063879E+02  0.70342063879E+02  0.00000000000E+00 0.  1.
         21    1    1    2  502  503 -0.19628278053E+02 -0.18946899626E+02  0.51244873520E+01  0.27758146109E+02  0.00000000000E+00 0. -1.
         21    1    1    2  503  501  0.19628278053E+02  0.18946899626E+02 -0.55872962803E+02  0.62177506199E+02  0.00000000000E+00 0.  1.
</event>
<event>
 4    1  0.6008802E+002  0.2440922E+02  0.7546771E-02  0.1475522E+00
          2   -1    0    0  503    0  0.00000000000E+00  0.00000000000E+00  0.23175685347E+02  0.23175685347E+02  0.00000000000E+00 0. -1.
         -2   -1    0    0    0  501 -0.00000000000E+00 -0.00000000000E+00 -0.11478002250E+03  0.11478002250E+03  0.00000000000E+00 0.  1.
         21    1    1    2  502  501  0.65651725510E+01  0.23509752831E+02 -0.10656614524E+03  0.10932590398E+03  0.00000000000E+00 0.  1.
         21    1    1    2  503  502 -0.65651725510E+01 -0.23509752831E+02  0.14961808083E+02  0.28629803875E+02  0.00000000000E+00 0. -1.
</event>
<event>
 4    1  0.6008802E+002  0.4328626E+02  0.7546771E-02  0.1330235E+00
          2   -1    0    0  503    0  0.00000000000E+00  0.00000000000E+00  0.27423430964E+02  0.27423430964E+02  0.00000000000E+00 0.  1.
         -2   -1    0    0    0  501 -0.00000000000E+00 -0.00000000000E+00 -0.69747264137E+02  0.69747264137E+02  0.00000000000E+00 0. -1.
         21    1    1    2  502  501 -0.35797142424E+02  0.24336494221E+02 -0.28100372437E+02  0.51607473178E+02  0.00000000000E+00 0. -1.
         21    1    1    2  503  502  0.35797142424E+02 -0.24336494221E+02 -0.14223460737E+02  0.45563221923E+02  0.00000000000E+00 0.  1.
</event>
<event>
 4    1  0.6008802E+002  0.2139651E+02  0.7546771E-02  0.1513678E+00
          2   -1    0    0  502    0  0.00000000000E+00  0.00000000000E+00  0.17466527334E+01  0.17466527334E+01  0.00000000000E+00 0.  1.
         -2   -1    0    0    0  501 -0.00000000000E+00 -0.00000000000E+00 -0.37711257626E+03  0.37711257626E+03  0.00000000000E+00 0. -1.
         21    1    1    2  502  503  0.20946800195E+02 -0.43637390998E+01 -0.83073490570E+02  0.85784704305E+02  0.00000000000E+00 0.  1.
         21    1    1    2  503  501 -0.20946800195E+02  0.43637390998E+01 -0.29229243296E+03  0.29307452469E+03  0.00000000000E+00 0. -1.
</event>
<event>
 4    1  0.6008802E+002  0.2198611E+02  0.7546771E-02  0.1505638E+00
          2   -1    0    0  502    0  0.00000000000E+00  0.00000000000E+00  0.24270094537E+04  0.24270094537E+04  0.00000000000E+00 0.  1.
         -2   -1    0    0    0  501 -0.00000000000E+00 -0.00000000000E+00 -0.21844144289E+00  0.21844144289E+00  0.00000000000E+00 0. -1.
         21    1    1    2  502  503  0.15768063584E+02  0.15321792131E+02  0.15738599243E+04  0.15740134848E+04  0.00000000000E+00 0.  1.
         21    1    1    2  503  501 -0.15768063584E+02 -0.15321792131E+02  0.85293108794E+03  0.85321441029E+03  0.00000000000E+00 0. -1.
</event>
<event>
 4    1  0.6008802E+002  0.2448967E+02  0.7546771E-02  0.1474594E+00
          2   -1    0    0  503    0  0.00000000000E+00  0.00000000000E+00  0.13095160922E+04  0.13095160922E+04  0.00000000000E+00 0.  1.
         -2   -1    0    0    0  501 -0.00000000000E+00 -0.00000000000E+00 -0.83645924978E+00  0.83645924978E+00  0.00000000000E+00 0. -1.
         21    1    1    2  502  501 -0.17686661770E+02  0.16938891875E+02  0.21363114090E+03  0.21503025002E+03  0.00000000000E+00 0. -1.
         21    1    1    2  503  502  0.17686661770E+02 -0.16938891875E+02  0.10950484921E+04  0.10953223015E+04  0.00000000000E+00 0.  1.
</event>
<event>
 4    1  0.6008802E+002  0.2056667E+02  0.7546771E-02  0.1525542E+00
          2   -1    0    0  502    0  0.00000000000E+00  0.00000000000E+00  0.17358323709E+02  0.17358323709E+02  0.00000000000E+00 0. -1.
         -2   -1    0    0    0  501 -0.00000000000E+00 -0.00000000000E+00 -0.33915260039E+02  0.33915260039E+02  0.00000000000E+00 0.  1.
         21    1    1    2  502  503  0.16102748276E+02  0.12794120016E+02  0.53236011607E+01  0.21244499014E+02  0.00000000000E+00 0. -1.
         21    1    1    2  503  501 -0.16102748276E+02 -0.12794120016E+02 -0.21880537491E+02  0.30029084734E+02  0.00000000000E+00 0.  1.
</event>
<event>
 4    1  0.6008802E+002  0.3065122E+02  0.7546771E-02  0.1414020E+00
          2   -1    0    0  502    0  0.00000000000E+00  0.00000000000E+00  0.23067228361E+03  0.23067228361E+03  0.00000000000E+00 0. -1.
         -2   -1    0    0    0  501 -0.00000000000E+00 -0.00000000000E+00 -0.43037199626E+01  0.43037199626E+01  0.00000000000E+00 0.  1.
         21    1    1    2  502  503 -0.26194333383E+02  0.15917100419E+02  0.14039504023E+03  0.14370199897E+03  0.00000000000E+00 0. -1.
         21    1    1    2  503  501  0.26194333383E+02 -0.15917100419E+02  0.85973523415E+02  0.91274004599E+02  0.00000000000E+00 0.  1.
</event>
<event>
 4    1  0.6008802E+002  0.2346960E+02  0.7546771E-02  0.1486684E+00
          2   -1    0    0  502    0  0.00000000000E+00  0.00000000000E+00  0.53883805518E+01  0.53883805518E+01  0.00000000000E+00 0.  1.
         -2   -1    0    0    0  501 -0.00000000000E+00 -0.00000000000E+00 -0.23471637681E+03  0.23471637681E+03  0.00000000000E+00 0. -1.
         21    1    1    2  502  503 -0.16622465268E+02  0.16568523355E+02 -0.24466526178E+02  0.33903292185E+02  0.00000000000E+00 0.  1.
         21    1    1    2  503  501  0.16622465268E+02 -0.16568523355E+02 -0.20486147008E+03  0.20620146518E+03  0.00000000000E+00 0. -1.
</event>
<event>
 4    1  0.6008802E+002  0.3137917E+02  0.7546771E-02  0.1407978E+00
          2   -1    0    0  502    0  0.00000000000E+00  0.00000000000E+00  0.10665437616E+03  0.10665437616E+03  0.00000000000E+00 0. -1.
         -2   -1    0    0    0  501 -0.00000000000E+00 -0.00000000000E+00 -0.17408384256E+02  0.17408384256E+02  0.00000000000E+00 0.  1.
         21    1    1    2  502  503  0.26418537799E+02  0.16932612686E+02  0.87134654631E+02  0.92612637093E+02  0.00000000000E+00 0. -1.
         21    1    1    2  503  501 -0.26418537799E+02 -0.16932612686E+02  0.21113372707E+01  0.31450123321E+02  0.00000000000E+00 0.  1.
</event>
<event>
 4    1  0.6008802E+002  0.2853551E+02  0.7546771E-02  0.1432765E+00
          2   -1    0    0  503    0  0.00000000000E+00  0.00000000000E+00  0.10424769553E+02  0.10424769553E+02  0.00000000000E+00 0.  1.
         -2   -1    0    0    0  501 -0.00000000000E+00 -0.00000000000E+00 -0.78110833721E+02  0.78110833721E+02  0.00000000000E+00 0. -1.
         21    1    1    2  502  501 -0.27701059558E+02 -0.68503041236E+01 -0.33672571998E+02  0.44137483755E+02  0.00000000000E+00 0.  1.
         21    1    1    2  503  502  0.27701059558E+02  0.68503041236E+01 -0.34013492170E+02  0.44398119520E+02  0.00000000000E+00 0. -1.
</event>
<event>
 4    1  0.6008802E+002  0.7835918E+02  0.7546771E-02  0.1207709E+00
          2   -1    0    0  503    0  0.00000000000E+00  0.00000000000E+00  0.51900387263E+02  0.51900387263E+02  0.00000000000E+00 0. -1.
         -2   -1    0    0    0  501 -0.00000000000E+00 -0.00000000000E+00 -0.12938284471E+03  0.12938284471E+03  0.00000000000E+00 0.  1.
         21    1    1    2  502  501 -0.30338849799E+02  0.72247598015E+02 -0.12220559510E+02  0.79306388777E+02  0.00000000000E+00 0.  1.
         21    1    1    2  503  502  0.30338849799E+02 -0.72247598015E+02 -0.65261897939E+02  0.10197684320E+03  0.00000000000E+00 0. -1.
</event>
<event>
 4    1  0.6008802E+002  0.2689350E+02  0.7546771E-02  0.1448681E+00
          2   -1    0    0  503    0  0.00000000000E+00  0.00000000000E+00  0.26744712507E+01  0.26744712507E+01  0.00000000000E+00 0. -1.
         -2   -1    0    0    0  501 -0.00000000000E+00 -0.00000000000E+00 -0.66470992805E+03  0.66470992805E+03  0.00000000000E+00 0.  1.
         21    1    1    2  502  501  0.22240018470E+02  0.15120917066E+02 -0.58801684353E+03  0.58863152211E+03  0.00000000000E+00 0.  1.
         21    1    1    2  503  502 -0.22240018470E+02 -0.15120917066E+02 -0.74018613273E+02  0.78752877188E+02  0.00000000000E+00 0. -1.
</event>
<event>
 4    1  0.6008802E+002  0.2586536E+02  0.7546771E-02  0.1459351E+00
          2   -1    0    0  502    0  0.00000000000E+00  0.00000000000E+00  0.29992629224E+03  0.29992629224E+03  0.00000000000E+00 0.  1.
         -2   -1    0    0    0  501 -0.00000000000E+00 -0.00000000000E+00 -0.23340666161E+01  0.23340666161E+01  0.00000000000E+00 0. -1.
         21    1    1    2  502  503  0.13999278373E+02 -0.21749419017E+02  0.18061497569E+03  0.18245762924E+03  0.00000000000E+00 0.  1.
         21    1    1    2  503  501 -0.13999278373E+02  0.21749419017E+02  0.11697724993E+03  0.11980272961E+03  0.00000000000E+00 0. -1.
</event>
<event>
 4    1  0.6008802E+002  0.2568267E+02  0.7546771E-02  0.1461309E+00
          2   -1    0    0  503    0  0.00000000000E+00  0.00000000000E+00  0.61037785901E+03  0.61037785901E+03  0.00000000000E+00 0. -1.
         -2   -1    0    0    0  501 -0.00000000000E+00 -0.00000000000E+00 -0.11293512725E+01  0.11293512725E+01  0.00000000000E+00 0.  1.
         21    1    1    2  502  501  0.25218607596E+02  0.48601735680E+01  0.24112531115E+03  0.24248920622E+03  0.00000000000E+00 0.  1.
         21    1    1    2  503  502 -0.25218607596E+02 -0.48601735680E+01  0.36812319659E+03  0.36901800407E+03  0.00000000000E+00 0. -1.
</event>
<event>
 4    1  0.6008802E+002  0.3156942E+02  0.7546771E-02  0.1406431E+00
          2   -1    0    0  503    0  0.00000000000E+00  0.00000000000E+00  0.89212705975E+02  0.89212705975E+02  0.00000000000E+00 0. -1.
         -2   -1    0    0    0  501 -0.00000000000E+00 -0.00000000000E+00 -0.17592709987E+02  0.17592709987E+02  0.00000000000E+00 0.  1.
         21    1    1    2  502  501  0.85201944103E-01  0.31569309557E+02  0.35466388720E+01  0.31768021855E+02  0.00000000000E+00 0.  1.
         21    1    1    2  503  502 -0.85201944103E-01 -0.31569309557E+02  0.68073357116E+02  0.75037394107E+02  0.00000000000E+00 0. -1.
</event>
<event>
 4    1  0.6008802E+002  0.2300989E+02  0.7546771E-02  0.1492374E+00
          2   -1    0    0  503    0  0.00000000000E+00  0.00000000000E+00  0.55116174997E+03  0.55116174997E+03  0.00000000000E+00 0.  1.
         -2   -1    0    0    0  501 -0.00000000000E+00 -0.00000000000E+00 -0.30630447662E+02  0.30630447662E+02  0.00000000000E+00 0. -1.
         21    1    1    2  502  501  0.22056429406E+02  0.65550564605E+01 -0.26032646359E+02  0.34744114894E+02  0.00000000000E+00 0. -1.
         21    1    1    2  503  502 -0.22056429406E+02 -0.65550564605E+01  0.54656394867E+03  0.54704808274E+03  0.00000000000E+00 0.  1.
</event>
<event>
 4    1  0.6008802E+002  0.2790059E+02  0.7546771E-02  0.1438765E+00
          2   -1    0    0  503    0  0.00000000000E+00  0.00000000000E+00  0.59562203898E+03  0.59562203898E+03  0.00000000000E+00 0. -1.
         -2   -1    0    0    0  501 -0.00000000000E+00 -0.00000000000E+00 -0.15316235939E+01  0.15316235939E+01  0.00000000000E+00 0.  1.
         21    1    1    2  502  501  0.22886848201E+02 -0.15957288038E+02  0.18268766962E+03  0.18480591845E+03  0.00000000000E+00 0.  1.
         21    1    1    2  503  502 -0.22886848201E+02  0.15957288038E+02  0.41140274576E+03  0.41234774412E+03  0.00000000000E+00 0. -1.
</event>
<event>
 4    1  0.6008802E+002  0.2511066E+02  0.7546771E-02  0.1467569E+00
          2   -1    0    0  503    0  0.00000000000E+00  0.00000000000E+00  0.80815741055E+01  0.80815741055E+01  0.00000000000E+00 0.  1.
         -2   -1    0    0    0  501 -0.00000000000E+00 -0.00000000000E+00 -0.19770999684E+03  0.19770999684E+03  0.00000000000E+00 0. -1.
         21    1    1    2  502  501 -0.21709459898E+02 -0.12619215237E+02 -0.17487272516E+03  0.17666639535E+03  0.00000000000E+00 0. -1.
         21    1    1    2  503  502  0.21709459898E+02  0.12619215237E+02 -0.14755697571E+02  0.29125175588E+02  0.00000000000E+00 0.  1.
</event>
<event>
 4    1  0.6008802E+002  0.1362804E+03  0.7546771E-02  0.1112574E+00
          2   -1    0    0  502    0  0.00000000000E+00  0.00000000000E+00  0.20923384643E+03  0.20923384643E+03  0.00000000000E+00 0.  1.
         -2   -1    0    0    0  501 -0.00000000000E+00 -0.00000000000E+00 -0.18722287648E+03  0.18722287648E+03  0.00000000000E+00 0. -1.
         21    1    1    2  502  503  0.35847269178E+02  0.13148126365E+03  0.15475773631E+03  0.20620937502E+03  0.00000000000E+00 0. -1.
         21    1    1    2  503  501 -0.35847269178E+02 -0.13148126365E+03 -0.13274676637E+03  0.19024734789E+03  0.00000000000E+00 0.  1.
</event>
<event>
 4    1  0.6008802E+002  0.3743752E+02  0.7546771E-02  0.1364193E+00
          2   -1    0    0  503    0  0.00000000000E+00  0.00000000000E+00  0.25045404447E+04  0.25045404447E+04  0.00000000000E+00 0. -1.
         -2   -1    0    0    0  501 -0.00000000000E+00 -0.00000000000E+00 -0.61941812096E+00  0.61941812096E+00  0.00000000000E+00 0.  1.
         21    1    1    2  502  501 -0.35809746819E+02  0.10919237413E+02  0.86274430682E+03  0.86355619774E+03  0.00000000000E+00 0.  1.
         21    1    1    2  503  502  0.35809746819E+02 -0.10919237413E+02  0.16411767197E+04  0.16416036650E+04  0.00000000000E+00 0. -1.
</event>
<event>
 4    1  0.6008802E+002  0.2283156E+02  0.7546771E-02  0.1494624E+00
          2   -1    0    0  502    0  0.00000000000E+00  0.00000000000E+00  0.24711841447E+03  0.24711841447E+03  0.00000000000E+00 0. -1.
         -2   -1    0    0    0  501 -0.00000000000E+00 -0.00000000000E+00 -0.11166652747E+02  0.11166652747E+02  0.00000000000E+00 0.  1.
         21    1    1    2  502  503 -0.27763344162E+01  0.22662131444E+02  0.23428270610E+03  0.23539257978E+03  0.00000000000E+00 0. -1.
         21    1    1    2  503  501  0.27763344162E+01 -0.22662131444E+02  0.16690556155E+01  0.22892487437E+02  0.00000000000E+00 0.  1.
</event>
<event>
 4    1  0.6008802E+002  0.3476528E+02  0.7546771E-02  0.1382221E+00
          2   -1    0    0  502    0  0.00000000000E+00  0.00000000000E+00  0.39646910374E+03  0.39646910374E+03  0.00000000000E+00 0.  1.
         -2   -1    0    0    0  501 -0.00000000000E+00 -0.00000000000E+00 -0.80435688471E+01  0.80435688471E+01  0.00000000000E+00 0. -1.
         21    1    1    2  502  503 -0.33867054001E+02 -0.78516030221E+01  0.35359859247E+03  0.35530351760E+03  0.00000000000E+00 0.  1.
         21    1    1    2  503  501  0.33867054001E+02  0.78516030221E+01  0.34826942421E+02  0.49209154993E+02  0.00000000000E+00 0. -1.
</event>
<event>
 4    1  0.6008802E+002  0.2455539E+02  0.7546771E-02  0.1473839E+00
          2   -1    0    0  502    0  0.00000000000E+00  0.00000000000E+00  0.55799624896E+03  0.55799624896E+03  0.00000000000E+00 0.  1.
         -2   -1    0    0    0  501 -0.00000000000E+00 -0.00000000000E+00 -0.41890917170E+01  0.41890917170E+01  0.00000000000E+00 0. -1.
         21    1    1    2  502  503  0.21616632486E+02 -0.11648536315E+02  0.51904265874E+03  0.51962317961E+03  0.00000000000E+00 0.  1.
         21    1    1    2  503  501 -0.21616632486E+02  0.11648536315E+02  0.34764498502E+02  0.42562161064E+02  0.00000000000E+00 0. -1.
</event>
<event>
 4    1  0.6008802E+002  0.2904102E+02  0.7546771E-02  0.1428117E+00
          2   -1    0    0  503    0  0.00000000000E+00  0.00000000000E+00  0.60569306280E+03  0.60569306280E+03  0.00000000000E+00 0. -1.
         -2   -1    0    0    0  501 -0.00000000000E+00 -0.00000000000E+00 -0.14043899640E+01  0.14043899640E+01  0.00000000000E+00 0.  1.
         21    1    1    2  502  501  0.15917682912E+02  0.24290089896E+02  0.27412407331E+03  0.27565810103E+03  0.00000000000E+00 0. -1.
         21    1    1    2  503  502 -0.15917682912E+02 -0.24290089896E+02  0.33016459953E+03  0.33143935173E+03  0.00000000000E+00 0.  1.
</event>
<event>
 4    1  0.6008802E+002  0.2030637E+02  0.7546771E-02  0.1529403E+00
          2   -1    0    0  503    0  0.00000000000E+00  0.00000000000E+00  0.14486591723E+01  0.14486591723E+01  0.00000000000E+00 0.  1.
         -2   -1    0    0    0  501 -0.00000000000E+00 -0.00000000000E+00 -0.30585250843E+03  0.30585250843E+03  0.00000000000E+00 0. -1.
         21    1    1    2  502  501 -0.17641692225E+02  0.10055816211E+02 -0.19266484865E+03  0.19373201246E+03  0.00000000000E+00 0. -1.
         21    1    1    2  503  502  0.17641692225E+02 -0.10055816211E+02 -0.11173900061E+03  0.11356915515E+03  0.00000000000E+00 0.  1.
</event>
<event>
 4    1  0.6008802E+002  0.2145171E+02  0.7546771E-02  0.1512912E+00
          2   -1    0    0  503    0  0.00000000000E+00  0.00000000000E+00  0.52636918917E+03  0.52636918917E+03  0.00000000000E+00 0.  1.
         -2   -1    0    0    0  501 -0.00000000000E+00 -0.00000000000E+00 -0.10894205096E+01  0.10894205096E+01  0.00000000000E+00 0. -1.
         21    1    1    2  502  501  0.16504880071E+02  0.13702722966E+02  0.14543196977E+03  0.14700555607E+03  0.00000000000E+00 0. -1.
         21    1    1    2  503  502 -0.16504880071E+02 -0.13702722966E+02  0.37984779889E+03  0.38045305361E+03  0.00000000000E+00 0.  1.
</event>
<event>
 4    1  0.6008802E+002  0.2155058E+02  0.7546771E-02  0.1511547E+00
          2   -1    0    0  503    0  0.00000000000E+00  0.00000000000E+00  0.35445721398E+02  0.35445721398E+02  0.00000000000E+00 0. -1.
         -2   -1    0    0    0  501 -0.00000000000E+00 -0.00000000000E+00 -0.14947908200E+02  0.14947908200E+02  0.00000000000E+00 0.  1.
         21    1    1    2  502  501  0.15641422079E+02  0.14824754050E+02  0.19102144710E+02  0.28797905303E+02  0.00000000000E+00 0. -1.
         21    1    1    2  503  502 -0.15641422079E+02 -0.14824754050E+02  0.13956684879E+01  0.21595724295E+02  0.00000000000E+00 0.  1.
</event>
<event>
 4    1  0.6008802E+002  0.2091094E+02  0.7546771E-02  0.1520540E+00
          2   -1    0    0  503    0  0.00000000000E+00  0.00000000000E+00  0.89516268694E+01  0.89516268694E+01  0.00000000000E+00 0.  1.
         -2   -1    0    0    0  501 -0.00000000000E+00 -0.00000000000E+00 -0.35923367694E+03  0.35923367694E+03  0.00000000000E+00 0. -1.
         21    1    1    2  502  501 -0.12001263363E+02 -0.17124172361E+02 -0.34626028086E+03  0.34689112082E+03  0.00000000000E+00 0. -1.
         21    1    1    2  503  502  0.12001263363E+02  0.17124172361E+02 -0.40217692007E+01  0.21294182981E+02  0.00000000000E+00 0.  1.
</event>
<event>
 4    1  0.6008802E+002  0.2934457E+02  0.7546771E-02  0.1425379E+00
          2   -1    0    0  503    0  0.00000000000E+00  0.00000000000E+00  0.36041728300E+02  0.36041728300E+02  0.00000000000E+00 0. -1.
         -2   -1    0    0    0  501 -0.00000000000E+00 -0.00000000000E+00 -0.23926371503E+02  0.23926371503E+02  0.00000000000E+00 0.  1.
         21    1    1    2  502  501  0.24361394486E+02  0.16359289265E+02  0.71964609804E+01  0.30214118177E+02  0.00000000000E+00 0. -1.
         21    1    1    2  503  502 -0.24361394486E+02 -0.16359289265E+02  0.49188958166E+01  0.29753981626E+02  0.00000000000E+00 0.  1.
</event>
<event>
 4    1  0.6008802E+002  0.2276114E+02  0.7546771E-02  0.1495520E+00
          2   -1    0    0  502    0  0.00000000000E+00  0.00000000000E+00  0.12756428049E+01  0.12756428049E+01  0.00000000000E+00 0. -1.
         -2   -1    0    0    0  501 -0.00000000000E+00 -0.00000000000E+00 -0.51079294453E+03  0.51079294453E+03  0.00000000000E+00 0.  1.
         21    1    1    2  502  503  0.22501523401E+02 -0.34279316304E+01 -0.13885838439E+03  0.14071147852E+03  0.00000000000E+00 0. -1.
         21    1    1    2  503  501 -0.22501523401E+02  0.34279316304E+01 -0.37065891733E+03  0.37135710882E+03  0.00000000000E+00 0.  1.
</event>
<event>
 4    1  0.6008802E+002  0.2580178E+02  0.7546771E-02  0.1460030E+00
          2   -1    0    0  502    0  0.00000000000E+00  0.00000000000E+00  0.22789610619E+04  0.22789610619E+04  0.00000000000E+00 0.  1.
         -2   -1    0    0    0  501 -0.00000000000E+00 -0.00000000000E+00 -0.33264076612E+00  0.33264076612E+00  0.00000000000E+00 0. -1.
         21    1    1    2  502  503  0.17493217570E+02  0.18966266873E+02  0.74155790914E+03  0.74200664724E+03  0.00000000000E+00 0. -1.
         21    1    1    2  503  501 -0.17493217570E+02 -0.18966266873E+02  0.15370705120E+04  0.15372870555E+04  0.00000000000E+00 0.  1.
</event>
<event>
 4    1  0.6008802E+002  0.2075601E+02  0.7546771E-02  0.1522777E+00
          2   -1    0    0  503    0  0.00000000000E+00  0.00000000000E+00  0.14891091577E+03  0.14891091577E+03  0.00000000000E+00 0.  1.
         -2   -1    0    0    0  501 -0.00000000000E+00 -0.00000000000E+00 -0.63394920476E+01  0.63394920476E+01  0.00000000000E+00 0. -1.
         21    1    1    2  502  501 -0.15442108996E+02  0.13869148621E+02  0.14051095569E+02  0.25064821970E+02  0.00000000000E+00 0. -1.
         21    1    1    2  503  502  0.15442108996E+02 -0.13869148621E+02  0.12852032815E+03  0.13018558585E+03  0.00000000000E+00 0.  1.
</event>
<event>
 4    1  0.6008802E+002  0.6020894E+02  0.7546771E-02  0.1259124E+00
          2   -1    0    0  502    0  0.00000000000E+00  0.00000000000E+00  0.28013032059E+04  0.28013032059E+04  0.00000000000E+00 0. -1.
         -2   -1    0    0    0  501 -0.00000000000E+00 -0.00000000000E+00 -0.21262736524E+01  0.21262736524E+01  0.00000000000E+00 0.  1.
         21    1    1    2  502  503  0.48224436527E+02 -0.36048862153E+02  0.22765118985E+04  0.22773079591E+04  0.00000000000E+00 0. -1.
         21    1    1    2  503  501 -0.48224436527E+02  0.36048862153E+02  0.52266503375E+03  0.52612152042E+03  0.00000000000E+00 0.  1.
</event>
<event>
 4    1  0.6008802E+002  0.2991599E+02  0.7546771E-02  0.1420328E+00
          2   -1    0    0  502    0  0.00000000000E+00  0.00000000000E+00  0.15631578586E+03  0.15631578586E+03  0.00000000000E+00 0. -1.
         -2   -1    0    0    0  501 -0.00000000000E+00 -0.00000000000E+00 -0.10456132956E+02  0.10456132956E+02  0.00000000000E+00 0.  1.
         21    1    1    2  502  503 -0.44746332871E+01 -0.29579453852E+02  0.12901818923E+03  0.13244115518E+03  0.00000000000E+00 0. -1.
         21    1    1    2  503  501  0.44746332871E+01  0.29579453852E+02  0.16841463677E+02  0.34330763639E+02  0.00000000000E+00 0.  1.
</event>
<event>
 4    1  0.6008802E+002  0.3062452E+02  0.7546771E-02  0.1414246E+00
          2   -1    0    0  502    0  0.00000000000E+00  0.00000000000E+00  0.22844104448E+04  0.22844104448E+04  0.00000000000E+00 0. -1.
         -2   -1    0    0    0  501 -0.00000000000E+00 -0.00000000000E+00 -0.43790967571E+00  0.43790967571E+00  0.00000000000E+00 0.  1.
         21    1    1    2  502  503 -0.25673021470E+02 -0.16696024773E+02  0.85642288586E+03  0.85697025660E+03  0.00000000000E+00 0.  1.
         21    1    1    2  503  501  0.25673021470E+02  0.16696024773E+02  0.14275496492E+04  0.14278780978E+04  0.00000000000E+00 0. -1.
</event>
<event>
 4    1  0.6008802E+002  0.2748787E+02  0.7546771E-02  0.1442768E+00
          2   -1    0    0  502    0  0.00000000000E+00  0.00000000000E+00  0.29279435223E+01  0.29279435223E+01  0.00000000000E+00 0. -1.
         -2   -1    0    0    0  501 -0.00000000000E+00 -0.00000000000E+00 -0.41996039381E+03  0.41996039381E+03  0.00000000000E+00 0.  1.
         21    1    1    2  502  503  0.27101002958E+02  0.45955155614E+01 -0.77230833163E+02  0.81976732770E+02  0.00000000000E+00 0. -1.
         21    1    1    2  503  501 -0.27101002958E+02 -0.45955155614E+01 -0.33980161712E+03  0.34091160456E+03  0.00000000000E+00 0.  1.
</event>
