<event>
 4    1  0.3664744E+003  0.2021528E+02  0.7546771E-02  0.1530770E+00
          2   -1    0    0  502    0  0.00000000000E+00  0.00000000000E+00  0.17812653565E+03  0.17812653565E+03  0.00000000000E+00 0.  1.
          1   -1    0    0  501    0 -0.00000000000E+00 -0.00000000000E+00 -0.73265845549E+03  0.73265845549E+03  0.00000000000E+00 0. -1.
          2    1    1    2  501    0 -0.15313097780E+02 -0.13197222276E+02  0.17741298355E+03  0.17856098222E+03  0.00000000000E+00 0.  1.
          1    1    1    2  502    0  0.15313097780E+02  0.13197222276E+02 -0.73194490339E+03  0.73222400892E+03  0.00000000000E+00 0. -1.
</event>
<event>
 4    1  0.3664744E+003  0.2427990E+02  0.7546771E-02  0.1477023E+00
          2   -1    0    0  502    0  0.00000000000E+00  0.00000000000E+00  0.16784734058E+04  0.16784734058E+04  0.00000000000E+00 0. -1.
          1   -1    0    0  501    0 -0.00000000000E+00 -0.00000000000E+00 -0.56323937586E+01  0.56323937586E+01  0.00000000000E+00 0.  1.
          2    1    1    2  501    0 -0.17849182913E+02  0.16459657014E+02  0.16517968262E+04  0.16519752627E+04  0.00000000000E+00 0. -1.
          1    1    1    2  502    0  0.17849182913E+02 -0.16459657014E+02  0.21044185875E+02  0.32130536858E+02  0.00000000000E+00 0.  1.
</event>
<event>
 4    1  0.3664744E+003  0.2116614E+02  0.7546771E-02  0.1516906E+00
          2   -1    0    0  502    0  0.00000000000E+00  0.00000000000E+00  0.11694440103E+04  0.11694440103E+04  0.00000000000E+00 0. -1.
          1   -1    0    0  501    0 -0.00000000000E+00 -0.00000000000E+00 -0.88636296830E+00  0.88636296830E+00  0.00000000000E+00 0.  1.
          2    1    1    2  501    0 -0.20195709749E+02 -0.63355062748E+01  0.10252125967E+04  0.10254310673E+04  0.00000000000E+00 0. -1.
          1    1    1    2  502    0  0.20195709749E+02  0.63355062748E+01  0.14334505055E+03  0.14489930590E+03  0.00000000000E+00 0.  1.
</event>
<event>
 4    1  0.3664744E+003  0.2064908E+02  0.7546771E-02  0.1524335E+00
          2   -1    0    0  502    0  0.00000000000E+00  0.00000000000E+00  0.28656092094E+03  0.28656092094E+03  0.00000000000E+00 0.  1.
          1   -1    0    0  501    0 -0.00000000000E+00 -0.00000000000E+00 -0.27357759864E+03  0.27357759864E+03  0.00000000000E+00 0.  1.
          2    1    1    2  501    0  0.19062955258E+02  0.79365159374E+01  0.28579826066E+03  0.28654324341E+03  0.00000000000E+00 0.  1.
          1    1    1    2  502    0 -0.19062955258E+02 -0.79365159374E+01 -0.27281493836E+03  0.27359527617E+03  0.00000000000E+00 0.  1.
</event>
<event>
 4    1  0.3664744E+003  0.2183336E+02  0.7546771E-02  0.1507691E+00
          2   -1    0    0  502    0  0.00000000000E+00  0.00000000000E+00  0.16695392353E+03  0.16695392353E+03  0.00000000000E+00 0.  1.
          1   -1    0    0  501    0 -0.00000000000E+00 -0.00000000000E+00 -0.10946470750E+03  0.10946470750E+03  0.00000000000E+00 0.  1.
          2    1    1    2  501    0  0.15306434435E+02  0.15569481183E+02  0.16513950319E+03  0.16657656256E+03  0.00000000000E+00 0.  1.
          1    1    1    2  502    0 -0.15306434435E+02 -0.15569481183E+02 -0.10765028716E+03  0.10984206847E+03  0.00000000000E+00 0.  1.
</event>
<event>
 4    1  0.3664744E+003  0.3278517E+02  0.7546771E-02  0.1396841E+00
          2   -1    0    0  502    0  0.00000000000E+00  0.00000000000E+00  0.35269630483E+03  0.35269630483E+03  0.00000000000E+00 0.  1.
          1   -1    0    0  501    0 -0.00000000000E+00 -0.00000000000E+00 -0.13972466539E+02  0.13972466539E+02  0.00000000000E+00 0.  1.
          2    1    1    2  501    0  0.22551137808E+02 -0.23797341196E+02  0.33147423945E+03  0.33309163707E+03  0.00000000000E+00 0.  1.
          1    1    1    2  502    0 -0.22551137808E+02  0.23797341196E+02  0.72495988374E+01  0.33577134299E+02  0.00000000000E+00 0.  1.
</event>
<event>
 4    1  0.3664744E+003  0.2134847E+02  0.7546771E-02  0.1514347E+00
          2   -1    0    0  502    0  0.00000000000E+00  0.00000000000E+00  0.13334434590E+03  0.13334434590E+03  0.00000000000E+00 0. -1.
          1   -1    0    0  501    0 -0.00000000000E+00 -0.00000000000E+00 -0.41827306033E+01  0.41827306033E+01  0.00000000000E+00 0. -1.
          2    1    1    2  501    0  0.11867418166E+02 -0.17746029862E+02  0.93985176041E+02  0.96379305378E+02  0.00000000000E+00 0. -1.
          1    1    1    2  502    0 -0.11867418166E+02  0.17746029862E+02  0.35176439251E+02  0.41147771120E+02  0.00000000000E+00 0. -1.
</event>
<event>
 4    1  0.3664744E+003  0.4390522E+02  0.7546771E-02  0.1327005E+00
          2   -1    0    0  502    0  0.00000000000E+00  0.00000000000E+00  0.19776170697E+02  0.19776170697E+02  0.00000000000E+00 0. -1.
          1   -1    0    0  501    0 -0.00000000000E+00 -0.00000000000E+00 -0.65934651278E+03  0.65934651278E+03  0.00000000000E+00 0.  1.
          2    1    1    2  501    0 -0.12297490603E+02  0.42147836200E+02 -0.63265909327E+01  0.44358698406E+02  0.00000000000E+00 0. -1.
          1    1    1    2  502    0  0.12297490603E+02 -0.42147836200E+02 -0.63324375115E+03  0.63476398507E+03  0.00000000000E+00 0.  1.
</event>
<event>
 4    1  0.3664744E+003  0.5050199E+02  0.7546771E-02  0.1296011E+00
          2   -1    0    0  502    0  0.00000000000E+00  0.00000000000E+00  0.11061147368E+03  0.11061147368E+03  0.00000000000E+00 0. -1.
          1   -1    0    0  501    0 -0.00000000000E+00 -0.00000000000E+00 -0.23091910903E+02  0.23091910903E+02  0.00000000000E+00 0. -1.
          2    1    1    2  501    0 -0.19726006164E+02 -0.46490167755E+02  0.46331283020E+02  0.68534945855E+02  0.00000000000E+00 0. -1.
          1    1    1    2  502    0  0.19726006164E+02  0.46490167755E+02  0.41188279762E+02  0.65168438732E+02  0.00000000000E+00 0. -1.
</event>
<event>
 4    1  0.3664744E+003  0.4948293E+02  0.7546771E-02  0.1300430E+00
          2   -1    0    0  502    0  0.00000000000E+00  0.00000000000E+00  0.30328231089E+01  0.30328231089E+01  0.00000000000E+00 0.  1.
          1   -1    0    0  501    0 -0.00000000000E+00 -0.00000000000E+00 -0.93307287448E+03  0.93307287448E+03  0.00000000000E+00 0.  1.
          2    1    1    2  501    0  0.24921916552E+02  0.42748756559E+02 -0.63682648677E+03  0.63874606250E+03  0.00000000000E+00 0.  1.
          1    1    1    2  502    0 -0.24921916552E+02 -0.42748756559E+02 -0.29321356460E+03  0.29735963508E+03  0.00000000000E+00 0.  1.
</event>
<event>
 4    1  0.3664744E+003  0.2188719E+02  0.7546771E-02  0.1506965E+00
          2   -1    0    0  502    0  0.00000000000E+00  0.00000000000E+00  0.28241500378E+03  0.28241500378E+03  0.00000000000E+00 0. -1.
          1   -1    0    0  501    0 -0.00000000000E+00 -0.00000000000E+00 -0.98714671854E+03  0.98714671854E+03  0.00000000000E+00 0. -1.
          2    1    1    2  501    0  0.13298677230E+02  0.17383731695E+02  0.28186938296E+03  0.28271787703E+03  0.00000000000E+00 0. -1.
          1    1    1    2  502    0 -0.13298677230E+02 -0.17383731695E+02 -0.98660109772E+03  0.98684384528E+03  0.00000000000E+00 0. -1.
</event>
<event>
 4    1  0.3664744E+003  0.2671373E+02  0.7546771E-02  0.1450505E+00
          2   -1    0    0  502    0  0.00000000000E+00  0.00000000000E+00  0.89944627868E+03  0.89944627868E+03  0.00000000000E+00 0. -1.
          1   -1    0    0  501    0 -0.00000000000E+00 -0.00000000000E+00 -0.80888017622E+02  0.80888017622E+02  0.00000000000E+00 0. -1.
          2    1    1    2  501    0  0.23847936360E+02  0.12037403881E+02  0.89703641420E+03  0.89743409316E+03  0.00000000000E+00 0. -1.
          1    1    1    2  502    0 -0.23847936360E+02 -0.12037403881E+02 -0.78478153142E+02  0.82900203144E+02  0.00000000000E+00 0. -1.
</event>
<event>
 4    1  0.3664744E+003  0.2128478E+02  0.7546771E-02  0.1515237E+00
          2   -1    0    0  502    0  0.00000000000E+00  0.00000000000E+00  0.24219058846E+01  0.24219058846E+01  0.00000000000E+00 0. -1.
          1   -1    0    0  501    0 -0.00000000000E+00 -0.00000000000E+00 -0.65512775722E+03  0.65512775722E+03  0.00000000000E+00 0. -1.
          2    1    1    2  501    0  0.11045035448E+02 -0.18194757636E+02 -0.48452079351E+02  0.52921130061E+02  0.00000000000E+00 0. -1.
          1    1    1    2  502    0 -0.11045035448E+02  0.18194757636E+02 -0.60425377198E+03  0.60462853304E+03  0.00000000000E+00 0. -1.
</event>
<event>
 4    1  0.3664744E+003  0.2691653E+02  0.7546771E-02  0.1448448E+00
          2   -1    0    0  502    0  0.00000000000E+00  0.00000000000E+00  0.19537833894E+04  0.19537833894E+04  0.00000000000E+00 0. -1.
          1   -1    0    0  501    0 -0.00000000000E+00 -0.00000000000E+00 -0.11450760967E+03  0.11450760967E+03  0.00000000000E+00 0. -1.
          2    1    1    2  501    0  0.20094458249E+02  0.17908448979E+02  0.19521075546E+04  0.19522931144E+04  0.00000000000E+00 0. -1.
          1    1    1    2  502    0 -0.20094458249E+02 -0.17908448979E+02 -0.11283177494E+03  0.11599788460E+03  0.00000000000E+00 0. -1.
</event>
<event>
 4    1  0.3664744E+003  0.2145196E+02  0.7546771E-02  0.1512909E+00
          2   -1    0    0  502    0  0.00000000000E+00  0.00000000000E+00  0.74760729067E+03  0.74760729067E+03  0.00000000000E+00 0.  1.
          1   -1    0    0  501    0 -0.00000000000E+00 -0.00000000000E+00 -0.24891944862E+02  0.24891944862E+02  0.00000000000E+00 0. -1.
          2    1    1    2  501    0  0.10109277954E+02  0.18920594616E+02  0.74280166853E+03  0.74311136795E+03  0.00000000000E+00 0.  1.
          1    1    1    2  502    0 -0.10109277954E+02 -0.18920594616E+02 -0.20086322715E+02  0.29387867592E+02  0.00000000000E+00 0. -1.
</event>
<event>
 4    1  0.3664744E+003  0.3613900E+02  0.7546771E-02  0.1372728E+00
          2   -1    0    0  502    0  0.00000000000E+00  0.00000000000E+00  0.16998634198E+03  0.16998634198E+03  0.00000000000E+00 0. -1.
          1   -1    0    0  501    0 -0.00000000000E+00 -0.00000000000E+00 -0.87451999722E+02  0.87451999722E+02  0.00000000000E+00 0.  1.
          2    1    1    2  501    0  0.66921843205E+01 -0.35513972677E+02  0.16420203754E+03  0.16813190274E+03  0.00000000000E+00 0. -1.
          1    1    1    2  502    0 -0.66921843205E+01  0.35513972677E+02 -0.81667695286E+02  0.89306438960E+02  0.00000000000E+00 0.  1.
</event>
<event>
 4    1  0.3664744E+003  0.3141825E+02  0.7546771E-02  0.1407660E+00
          2   -1    0    0  502    0  0.00000000000E+00  0.00000000000E+00  0.22445544336E+03  0.22445544336E+03  0.00000000000E+00 0.  1.
          1   -1    0    0  501    0 -0.00000000000E+00 -0.00000000000E+00 -0.54387241223E+01  0.54387241223E+01  0.00000000000E+00 0.  1.
          2    1    1    2  501    0  0.19113823170E+02  0.24935278360E+02  0.15979614568E+03  0.16285550196E+03  0.00000000000E+00 0.  1.
          1    1    1    2  502    0 -0.19113823170E+02 -0.24935278360E+02  0.59220573559E+02  0.67038665528E+02  0.00000000000E+00 0.  1.
</event>
<event>
 4    1  0.3664744E+003  0.2494318E+02  0.7546771E-02  0.1469440E+00
          2   -1    0    0  502    0  0.00000000000E+00  0.00000000000E+00  0.13993042032E+04  0.13993042032E+04  0.00000000000E+00 0. -1.
          1   -1    0    0  501    0 -0.00000000000E+00 -0.00000000000E+00 -0.11674400421E+02  0.11674400421E+02  0.00000000000E+00 0.  1.
          2    1    1    2  501    0  0.24037849422E+02  0.66591336319E+01  0.13857394226E+04  0.13859638918E+04  0.00000000000E+00 0. -1.
          1    1    1    2  502    0 -0.24037849422E+02 -0.66591336319E+01  0.18903801708E+01  0.25014711726E+02  0.00000000000E+00 0.  1.
</event>
<event>
 4    1  0.3664744E+003  0.2066099E+02  0.7546771E-02  0.1524160E+00
          2   -1    0    0  502    0  0.00000000000E+00  0.00000000000E+00  0.41524956351E+02  0.41524956351E+02  0.00000000000E+00 0.  1.
          1   -1    0    0  501    0 -0.00000000000E+00 -0.00000000000E+00 -0.10309189070E+02  0.10309189070E+02  0.00000000000E+00 0.  1.
          2    1    1    2  501    0  0.20646126994E+02 -0.78337547226E+00  0.14228642747E+02  0.25086460719E+02  0.00000000000E+00 0.  1.
          1    1    1    2  502    0 -0.20646126994E+02  0.78337547226E+00  0.16987124534E+02  0.26747684702E+02  0.00000000000E+00 0.  1.
</event>
<event>
 4    1  0.3664744E+003  0.2110993E+02  0.7546771E-02  0.1517701E+00
          2   -1    0    0  502    0  0.00000000000E+00  0.00000000000E+00  0.41900320919E+01  0.41900320919E+01  0.00000000000E+00 0. -1.
          1   -1    0    0  501    0 -0.00000000000E+00 -0.00000000000E+00 -0.12755364311E+03  0.12755364311E+03  0.00000000000E+00 0. -1.
          2    1    1    2  501    0  0.21109542044E+02 -0.12795376711E+00 -0.34827644049E+02  0.40725838573E+02  0.00000000000E+00 0. -1.
          1    1    1    2  502    0 -0.21109542044E+02  0.12795376711E+00 -0.88535966973E+02  0.91017836633E+02  0.00000000000E+00 0. -1.
</event>
<event>
 4    1  0.3664744E+003  0.2452810E+02  0.7546771E-02  0.1474152E+00
          2   -1    0    0  502    0  0.00000000000E+00  0.00000000000E+00  0.27397966436E+03  0.27397966436E+03  0.00000000000E+00 0. -1.
          1   -1    0    0  501    0 -0.00000000000E+00 -0.00000000000E+00 -0.59197794163E+03  0.59197794163E+03  0.00000000000E+00 0.  1.
          2    1    1    2  501    0  0.46357342639E+01  0.24086050318E+02  0.27317587172E+03  0.27427483432E+03  0.00000000000E+00 0. -1.
          1    1    1    2  502    0 -0.46357342639E+01 -0.24086050318E+02 -0.59117414899E+03  0.59168277167E+03  0.00000000000E+00 0.  1.
</event>
<event>
 4    1  0.3664744E+003  0.2558098E+02  0.7546771E-02  0.1462408E+00
          2   -1    0    0  502    0  0.00000000000E+00  0.00000000000E+00  0.28787887581E+02  0.28787887581E+02  0.00000000000E+00 0. -1.
          1   -1    0    0  501    0 -0.00000000000E+00 -0.00000000000E+00 -0.53931734924E+02  0.53931734924E+02  0.00000000000E+00 0.  1.
          2    1    1    2  501    0 -0.10332848359E+02  0.23401252461E+02  0.18886475072E+02  0.31797567715E+02  0.00000000000E+00 0. -1.
          1    1    1    2  502    0  0.10332848359E+02 -0.23401252461E+02 -0.44030322415E+02  0.50922054789E+02  0.00000000000E+00 0.  1.
</event>
<event>
 4    1  0.3664744E+003  0.2116273E+02  0.7546771E-02  0.1516954E+00
          2   -1    0    0  502    0  0.00000000000E+00  0.00000000000E+00  0.16886863381E+04  0.16886863381E+04  0.00000000000E+00 0.  1.
          1   -1    0    0  501    0 -0.00000000000E+00 -0.00000000000E+00 -0.88348137717E+00  0.88348137717E+00  0.00000000000E+00 0.  1.
          2    1    1    2  501    0 -0.21076176398E+02 -0.19120210347E+01  0.15506030303E+04  0.15507474387E+04  0.00000000000E+00 0.  1.
          1    1    1    2  502    0  0.21076176398E+02  0.19120210347E+01  0.13719982635E+03  0.13882238071E+03  0.00000000000E+00 0.  1.
</event>
<event>
 4    1  0.3664744E+003  0.2004441E+02  0.7546771E-02  0.1533358E+00
          2   -1    0    0  502    0  0.00000000000E+00  0.00000000000E+00  0.63383265728E+02  0.63383265728E+02  0.00000000000E+00 0.  1.
          1   -1    0    0  501    0 -0.00000000000E+00 -0.00000000000E+00 -0.91494215166E+02  0.91494215166E+02  0.00000000000E+00 0. -1.
          2    1    1    2  501    0 -0.12537225408E+02 -0.15639575732E+02  0.60652577985E+02  0.63878897660E+02  0.00000000000E+00 0.  1.
          1    1    1    2  502    0  0.12537225408E+02  0.15639575732E+02 -0.88763527423E+02  0.90998583234E+02  0.00000000000E+00 0. -1.
</event>
<event>
 4    1  0.3664744E+003  0.2097856E+02  0.7546771E-02  0.1519571E+00
          2   -1    0    0  502    0  0.00000000000E+00  0.00000000000E+00  0.52771625474E+03  0.52771625474E+03  0.00000000000E+00 0. -1.
          1   -1    0    0  501    0 -0.00000000000E+00 -0.00000000000E+00 -0.69146937258E+02  0.69146937258E+02  0.00000000000E+00 0.  1.
          2    1    1    2  501    0 -0.75853350720E+01 -0.19559209884E+02  0.52591112589E+03  0.52632937628E+03  0.00000000000E+00 0. -1.
          1    1    1    2  502    0  0.75853350720E+01  0.19559209884E+02 -0.67341808410E+02  0.70533815716E+02  0.00000000000E+00 0.  1.
</event>
<event>
 4    1  0.3664744E+003  0.2220452E+02  0.7546771E-02  0.1502736E+00
          2   -1    0    0  502    0  0.00000000000E+00  0.00000000000E+00  0.88892153716E+02  0.88892153716E+02  0.00000000000E+00 0.  1.
          1   -1    0    0  501    0 -0.00000000000E+00 -0.00000000000E+00 -0.96411387250E+01  0.96411387250E+01  0.00000000000E+00 0. -1.
          2    1    1    2  501    0  0.16265302840E+02  0.15115580167E+02  0.71732255825E+02  0.75090328046E+02  0.00000000000E+00 0.  1.
          1    1    1    2  502    0 -0.16265302840E+02 -0.15115580167E+02  0.75187591656E+01  0.23442964395E+02  0.00000000000E+00 0. -1.
</event>
<event>
 4    1  0.3664744E+003  0.2299585E+02  0.7546771E-02  0.1492550E+00
          2   -1    0    0  502    0  0.00000000000E+00  0.00000000000E+00  0.13232366151E+03  0.13232366151E+03  0.00000000000E+00 0.  1.
          1   -1    0    0  501    0 -0.00000000000E+00 -0.00000000000E+00 -0.43340634046E+01  0.43340634046E+01  0.00000000000E+00 0.  1.
          2    1    1    2  501    0  0.14589850632E+02 -0.17774834222E+02  0.44920604056E+02  0.50464533504E+02  0.00000000000E+00 0.  1.
          1    1    1    2  502    0 -0.14589850632E+02  0.17774834222E+02  0.83068994047E+02  0.86193191408E+02  0.00000000000E+00 0.  1.
</event>
<event>
 4    1  0.3664744E+003  0.2202663E+02  0.7546771E-02  0.1505096E+00
          2   -1    0    0  502    0  0.00000000000E+00  0.00000000000E+00  0.11807537291E+02  0.11807537291E+02  0.00000000000E+00 0. -1.
          1   -1    0    0  501    0 -0.00000000000E+00 -0.00000000000E+00 -0.41346058158E+02  0.41346058158E+02  0.00000000000E+00 0. -1.
          2    1    1    2  501    0  0.47351532741E+01  0.21511631516E+02 -0.16860656312E+02  0.27739028431E+02  0.00000000000E+00 0. -1.
          1    1    1    2  502    0 -0.47351532741E+01 -0.21511631516E+02 -0.12677864556E+02  0.25414567018E+02  0.00000000000E+00 0. -1.
</event>
<event>
 4    1  0.3664744E+003  0.2223499E+02  0.7546771E-02  0.1502334E+00
          2   -1    0    0  502    0  0.00000000000E+00  0.00000000000E+00  0.28487205656E+01  0.28487205656E+01  0.00000000000E+00 0. -1.
          1   -1    0    0  501    0 -0.00000000000E+00 -0.00000000000E+00 -0.39848742986E+03  0.39848742986E+03  0.00000000000E+00 0. -1.
          2    1    1    2  501    0  0.68506668774E+01  0.21153327216E+02 -0.47053835442E+02  0.52042850794E+02  0.00000000000E+00 0. -1.
          1    1    1    2  502    0 -0.68506668774E+01 -0.21153327216E+02 -0.34858487385E+03  0.34929329963E+03  0.00000000000E+00 0. -1.
</event>
<event>
 4    1  0.3664744E+003  0.2195889E+02  0.7546771E-02  0.1506002E+00
          2   -1    0    0  502    0  0.00000000000E+00  0.00000000000E+00  0.21765123076E+02  0.21765123076E+02  0.00000000000E+00 0. -1.
          1   -1    0    0  501    0 -0.00000000000E+00 -0.00000000000E+00 -0.87896882908E+02  0.87896882908E+02  0.00000000000E+00 0. -1.
          2    1    1    2  501    0 -0.77927801977E+01  0.20529620548E+02  0.14354232606E+02  0.26234266461E+02  0.00000000000E+00 0. -1.
          1    1    1    2  502    0  0.77927801977E+01 -0.20529620548E+02 -0.80485992438E+02  0.83427739522E+02  0.00000000000E+00 0. -1.
</event>
<event>
 4    1  0.3664744E+003  0.2248676E+02  0.7546771E-02  0.1499045E+00
          2   -1    0    0  502    0  0.00000000000E+00  0.00000000000E+00  0.15421499724E+02  0.15421499724E+02  0.00000000000E+00 0. -1.
          1   -1    0    0  501    0 -0.00000000000E+00 -0.00000000000E+00 -0.22902896812E+03  0.22902896812E+03  0.00000000000E+00 0.  1.
          2    1    1    2  501    0 -0.10436502042E+02 -0.19918182963E+02  0.63345193847E+01  0.23361950331E+02  0.00000000000E+00 0. -1.
          1    1    1    2  502    0  0.10436502042E+02  0.19918182963E+02 -0.21994198778E+03  0.22108851752E+03  0.00000000000E+00 0.  1.
</event>
<event>
 4    1  0.3664744E+003  0.2045019E+03  0.7546771E-02  0.1051990E+00
          2   -1    0    0  502    0  0.00000000000E+00  0.00000000000E+00  0.95435415297E+03  0.95435415297E+03  0.00000000000E+00 0. -1.
          1   -1    0    0  501    0 -0.00000000000E+00 -0.00000000000E+00 -0.25754684140E+03  0.25754684140E+03  0.00000000000E+00 0. -1.
          2    1    1    2  501    0  0.82209673109E+02  0.18725012692E+03  0.90040132547E+03  0.92333286917E+03  0.00000000000E+00 0. -1.
          1    1    1    2  502    0 -0.82209673109E+02 -0.18725012692E+03 -0.20359401390E+03  0.28856812520E+03  0.00000000000E+00 0. -1.
</event>
<event>
 4    1  0.3664744E+003  0.2346835E+02  0.7546771E-02  0.1486699E+00
          2   -1    0    0  502    0  0.00000000000E+00  0.00000000000E+00  0.23427211924E+01  0.23427211924E+01  0.00000000000E+00 0. -1.
          1   -1    0    0  501    0 -0.00000000000E+00 -0.00000000000E+00 -0.25507975192E+03  0.25507975192E+03  0.00000000000E+00 0. -1.
          2    1    1    2  501    0  0.23770090712E+01  0.23347658446E+02 -0.90342031704E+02  0.93340484354E+02  0.00000000000E+00 0. -1.
          1    1    1    2  502    0 -0.23770090712E+01 -0.23347658446E+02 -0.16239499903E+03  0.16408198876E+03  0.00000000000E+00 0. -1.
</event>
<event>
 4    1  0.3664744E+003  0.4028431E+02  0.7546771E-02  0.1346828E+00
          2   -1    0    0  502    0  0.00000000000E+00  0.00000000000E+00  0.43405115836E+03  0.43405115836E+03  0.00000000000E+00 0.  1.
          1   -1    0    0  501    0 -0.00000000000E+00 -0.00000000000E+00 -0.54560527555E+01  0.54560527555E+01  0.00000000000E+00 0.  1.
          2    1    1    2  501    0 -0.37132573620E+01 -0.40112789369E+02  0.91011008104E+02  0.99528024934E+02  0.00000000000E+00 0.  1.
          1    1    1    2  502    0  0.37132573620E+01  0.40112789369E+02  0.33758409750E+03  0.33997918619E+03  0.00000000000E+00 0.  1.
</event>
<event>
 4    1  0.3664744E+003  0.2034087E+02  0.7546771E-02  0.1528887E+00
          2   -1    0    0  502    0  0.00000000000E+00  0.00000000000E+00  0.91857463447E+03  0.91857463447E+03  0.00000000000E+00 0.  1.
          1   -1    0    0  501    0 -0.00000000000E+00 -0.00000000000E+00 -0.83161016313E+00  0.83161016313E+00  0.00000000000E+00 0. -1.
          2    1    1    2  501    0 -0.10334634194E+02 -0.17519880598E+02  0.77010360635E+03  0.77037219277E+03  0.00000000000E+00 0.  1.
          1    1    1    2  502    0  0.10334634194E+02  0.17519880598E+02  0.14763941795E+03  0.14903405186E+03  0.00000000000E+00 0. -1.
</event>
<event>
 4    1  0.3664744E+003  0.2067447E+02  0.7546771E-02  0.1523964E+00
          2   -1    0    0  502    0  0.00000000000E+00  0.00000000000E+00  0.12103022972E+04  0.12103022972E+04  0.00000000000E+00 0.  1.
          1   -1    0    0  501    0 -0.00000000000E+00 -0.00000000000E+00 -0.75032965903E+01  0.75032965903E+01  0.00000000000E+00 0.  1.
          2    1    1    2  501    0 -0.20604791434E+02  0.16959811822E+01  0.11957997667E+04  0.11959784763E+04  0.00000000000E+00 0.  1.
          1    1    1    2  502    0  0.20604791434E+02 -0.16959811822E+01  0.69992339264E+01  0.21827117487E+02  0.00000000000E+00 0.  1.
</event>
<event>
 4    1  0.3664744E+003  0.3654816E+02  0.7546771E-02  0.1369994E+00
          2   -1    0    0  502    0  0.00000000000E+00  0.00000000000E+00  0.86556522853E+03  0.86556522853E+03  0.00000000000E+00 0. -1.
          1   -1    0    0  501    0 -0.00000000000E+00 -0.00000000000E+00 -0.33998069716E+01  0.33998069716E+01  0.00000000000E+00 0. -1.
          2    1    1    2  501    0  0.27618437570E+02  0.23937206459E+02  0.75215396438E+03  0.75304140264E+03  0.00000000000E+00 0. -1.
          1    1    1    2  502    0 -0.27618437570E+02 -0.23937206459E+02  0.11001145717E+03  0.11592363286E+03  0.00000000000E+00 0. -1.
</event>
<event>
 4    1  0.3664744E+003  0.2033537E+02  0.7546771E-02  0.1528969E+00
          2   -1    0    0  502    0  0.00000000000E+00  0.00000000000E+00  0.10561794729E+04  0.10561794729E+04  0.00000000000E+00 0. -1.
          1   -1    0    0  501    0 -0.00000000000E+00 -0.00000000000E+00 -0.86109072045E+00  0.86109072045E+00  0.00000000000E+00 0.  1.
          2    1    1    2  501    0  0.15582486367E+02  0.13065740164E+02  0.91794470090E+03  0.91816991965E+03  0.00000000000E+00 0. -1.
          1    1    1    2  502    0 -0.15582486367E+02 -0.13065740164E+02  0.13737368132E+03  0.13887064401E+03  0.00000000000E+00 0.  1.
</event>
<event>
 4    1  0.3664744E+003  0.2092023E+02  0.7546771E-02  0.1520407E+00
          2   -1    0    0  502    0  0.00000000000E+00  0.00000000000E+00  0.33164227284E+00  0.33164227284E+00  0.00000000000E+00 0.  1.
          1   -1    0    0  501    0 -0.00000000000E+00 -0.00000000000E+00 -0.15884316830E+04  0.15884316830E+04  0.00000000000E+00 0.  1.
          2    1    1    2  501    0  0.18879764033E+02 -0.90116840031E+01 -0.46728578939E+03  0.46775385076E+03  0.00000000000E+00 0.  1.
          1    1    1    2  502    0 -0.18879764033E+02  0.90116840031E+01 -0.11208142513E+04  0.11210094745E+04  0.00000000000E+00 0.  1.
</event>
<event>
 4    1  0.3664744E+003  0.2119537E+02  0.7546771E-02  0.1516494E+00
          2   -1    0    0  502    0  0.00000000000E+00  0.00000000000E+00  0.91328790046E+03  0.91328790046E+03  0.00000000000E+00 0. -1.
          1   -1    0    0  501    0 -0.00000000000E+00 -0.00000000000E+00 -0.22588199598E+03  0.22588199598E+03  0.00000000000E+00 0. -1.
          2    1    1    2  501    0  0.14275453502E+02  0.15667014012E+02  0.91266737728E+03  0.91291346001E+03  0.00000000000E+00 0. -1.
          1    1    1    2  502    0 -0.14275453502E+02 -0.15667014012E+02 -0.22526147280E+03  0.22625643644E+03  0.00000000000E+00 0. -1.
</event>
<event>
 4    1  0.3664744E+003  0.2546685E+02  0.7546771E-02  0.1463648E+00
          2   -1    0    0  502    0  0.00000000000E+00  0.00000000000E+00  0.32713319816E+01  0.32713319816E+01  0.00000000000E+00 0. -1.
          1   -1    0    0  501    0 -0.00000000000E+00 -0.00000000000E+00 -0.20561672004E+03  0.20561672004E+03  0.00000000000E+00 0. -1.
          2    1    1    2  501    0 -0.22989625389E+02 -0.10956124791E+02 -0.12093462583E+03  0.12358698665E+03  0.00000000000E+00 0. -1.
          1    1    1    2  502    0  0.22989625389E+02  0.10956124791E+02 -0.81410762234E+02  0.85301065372E+02  0.00000000000E+00 0. -1.
</event>
<event>
 4    1  0.3664744E+003  0.3170257E+02  0.7546771E-02  0.1405356E+00
          2   -1    0    0  502    0  0.00000000000E+00  0.00000000000E+00  0.15982573656E+04  0.15982573656E+04  0.00000000000E+00 0.  1.
          1   -1    0    0  501    0 -0.00000000000E+00 -0.00000000000E+00 -0.40521503644E+01  0.40521503644E+01  0.00000000000E+00 0.  1.
          2    1    1    2  501    0 -0.62253350257E+01  0.31085333006E+02  0.15334734716E+04  0.15338011412E+04  0.00000000000E+00 0.  1.
          1    1    1    2  502    0  0.62253350257E+01 -0.31085333006E+02  0.60731743634E+02  0.68508374737E+02  0.00000000000E+00 0.  1.
</event>
<event>
 4    1  0.3664744E+003  0.2015090E+02  0.7546771E-02  0.1531741E+00
          2   -1    0    0  502    0  0.00000000000E+00  0.00000000000E+00  0.19841616099E+03  0.19841616099E+03  0.00000000000E+00 0. -1.
          1   -1    0    0  501    0 -0.00000000000E+00 -0.00000000000E+00 -0.92930731796E+01  0.92930731796E+01  0.00000000000E+00 0. -1.
          2    1    1    2  501    0 -0.17983289713E+02 -0.90917578711E+01  0.18627064927E+03  0.18735744861E+03  0.00000000000E+00 0. -1.
          1    1    1    2  502    0  0.17983289713E+02  0.90917578711E+01  0.28524385475E+01  0.20351785567E+02  0.00000000000E+00 0. -1.
</event>
<event>
 4    1  0.3664744E+003  0.2084241E+02  0.7546771E-02  0.1521527E+00
          2   -1    0    0  502    0  0.00000000000E+00  0.00000000000E+00  0.20898563006E+01  0.20898563006E+01  0.00000000000E+00 0.  1.
          1   -1    0    0  501    0 -0.00000000000E+00 -0.00000000000E+00 -0.90152274226E+03  0.90152274226E+03  0.00000000000E+00 0. -1.
          2    1    1    2  501    0 -0.10105238970E+02  0.18228823391E+02 -0.53404759902E+02  0.57327778930E+02  0.00000000000E+00 0.  1.
          1    1    1    2  502    0  0.10105238970E+02 -0.18228823391E+02 -0.84602812606E+03  0.84628481963E+03  0.00000000000E+00 0. -1.
</event>
<event>
 4    1  0.3664744E+003  0.3286845E+02  0.7546771E-02  0.1396201E+00
          2   -1    0    0  502    0  0.00000000000E+00  0.00000000000E+00  0.33441995980E+03  0.33441995980E+03  0.00000000000E+00 0.  1.
          1   -1    0    0  501    0 -0.00000000000E+00 -0.00000000000E+00 -0.43032053697E+02  0.43032053697E+02  0.00000000000E+00 0.  1.
          2    1    1    2  501    0 -0.32362292352E+02  0.57460511097E+01  0.32719781385E+03  0.32884455972E+03  0.00000000000E+00 0.  1.
          1    1    1    2  502    0  0.32362292352E+02 -0.57460511097E+01 -0.35809907748E+02  0.48607453775E+02  0.00000000000E+00 0.  1.
</event>
<event>
 4    1  0.3664744E+003  0.3942797E+02  0.7546771E-02  0.1351871E+00
          2   -1    0    0  502    0  0.00000000000E+00  0.00000000000E+00  0.14511059725E+03  0.14511059725E+03  0.00000000000E+00 0. -1.
          1   -1    0    0  501    0 -0.00000000000E+00 -0.00000000000E+00 -0.10679628196E+03  0.10679628196E+03  0.00000000000E+00 0. -1.
          2    1    1    2  501    0  0.31519805303E+02 -0.23686854364E+02  0.13862635667E+03  0.14412436282E+03  0.00000000000E+00 0. -1.
          1    1    1    2  502    0 -0.31519805303E+02  0.23686854364E+02 -0.10031204137E+03  0.10778251639E+03  0.00000000000E+00 0. -1.
</event>
<event>
 4    1  0.3664744E+003  0.2328235E+02  0.7546771E-02  0.1488983E+00
          2   -1    0    0  502    0  0.00000000000E+00  0.00000000000E+00  0.15990609768E+04  0.15990609768E+04  0.00000000000E+00 0. -1.
          1   -1    0    0  501    0 -0.00000000000E+00 -0.00000000000E+00 -0.34965187505E+00  0.34965187505E+00  0.00000000000E+00 0. -1.
          2    1    1    2  501    0 -0.10367473918E+02  0.20846652481E+02  0.65971673731E+03  0.66012744294E+03  0.00000000000E+00 0. -1.
          1    1    1    2  502    0  0.10367473918E+02 -0.20846652481E+02  0.93899458761E+03  0.93928318573E+03  0.00000000000E+00 0. -1.
</event>
<event>
 4    1  0.3664744E+003  0.2155530E+02  0.7546771E-02  0.1511482E+00
          2   -1    0    0  502    0  0.00000000000E+00  0.00000000000E+00  0.18723136147E+02  0.18723136147E+02  0.00000000000E+00 0. -1.
          1   -1    0    0  501    0 -0.00000000000E+00 -0.00000000000E+00 -0.30224917006E+02  0.30224917006E+02  0.00000000000E+00 0. -1.
          2    1    1    2  501    0 -0.11679537910E+01  0.21523633469E+02  0.46025155539E+01  0.22041190149E+02  0.00000000000E+00 0. -1.
          1    1    1    2  502    0  0.11679537910E+01 -0.21523633469E+02 -0.16104296413E+02  0.26906863004E+02  0.00000000000E+00 0. -1.
</event>
<event>
 4    1  0.3664744E+003  0.2794663E+02  0.7546771E-02  0.1438324E+00
          2   -1    0    0  502    0  0.00000000000E+00  0.00000000000E+00  0.27105772063E+02  0.27105772063E+02  0.00000000000E+00 0.  1.
          1   -1    0    0  501    0 -0.00000000000E+00 -0.00000000000E+00 -0.27340781699E+03  0.27340781699E+03  0.00000000000E+00 0. -1.
          2    1    1    2  501    0 -0.17921019676E+02 -0.21444136609E+02  0.18967858397E+02  0.33775636090E+02  0.00000000000E+00 0.  1.
          1    1    1    2  502    0  0.17921019676E+02  0.21444136609E+02 -0.26526990333E+03  0.26673795296E+03  0.00000000000E+00 0. -1.
</event>
<event>
 4    1  0.3664744E+003  0.2037919E+02  0.7546771E-02  0.1528316E+00
          2   -1    0    0  502    0  0.00000000000E+00  0.00000000000E+00  0.73152793765E+02  0.73152793765E+02  0.00000000000E+00 0. -1.
          1   -1    0    0  501    0 -0.00000000000E+00 -0.00000000000E+00 -0.60754458449E+03  0.60754458449E+03  0.00000000000E+00 0.  1.
          2    1    1    2  501    0 -0.17009853754E+02  0.11223920258E+02  0.71558834771E+02  0.74404155425E+02  0.00000000000E+00 0. -1.
          1    1    1    2  502    0  0.17009853754E+02 -0.11223920258E+02 -0.60595062550E+03  0.60629322283E+03  0.00000000000E+00 0.  1.
</event>
<event>
 4    1  0.3664744E+003  0.2044731E+02  0.7546771E-02  0.1527304E+00
          2   -1    0    0  502    0  0.00000000000E+00  0.00000000000E+00  0.10819339673E+04  0.10819339673E+04  0.00000000000E+00 0. -1.
          1   -1    0    0  501    0 -0.00000000000E+00 -0.00000000000E+00 -0.15139959709E+01  0.15139959709E+01  0.00000000000E+00 0. -1.
          2    1    1    2  501    0  0.13593182591E+02  0.15274740226E+02  0.10077153334E+04  0.10079227577E+04  0.00000000000E+00 0. -1.
          1    1    1    2  502    0 -0.13593182591E+02 -0.15274740226E+02  0.72704638006E+02  0.75525205657E+02  0.00000000000E+00 0. -1.
</event>
<event>
 4    1  0.3664744E+003  0.2771905E+02  0.7546771E-02  0.1440516E+00
          2   -1    0    0  502    0  0.00000000000E+00  0.00000000000E+00  0.65020148926E+03  0.65020148926E+03  0.00000000000E+00 0. -1.
          1   -1    0    0  501    0 -0.00000000000E+00 -0.00000000000E+00 -0.17023662070E+02  0.17023662070E+02  0.00000000000E+00 0. -1.
          2    1    1    2  501    0  0.25626124119E+02 -0.10566340209E+02  0.63841433481E+03  0.63901581254E+03  0.00000000000E+00 0. -1.
          1    1    1    2  502    0 -0.25626124119E+02  0.10566340209E+02 -0.52365076233E+01  0.28209338788E+02  0.00000000000E+00 0. -1.
</event>
<event>
 4    1  0.3664744E+003  0.2132393E+02  0.7546771E-02  0.1514690E+00
          2   -1    0    0  502    0  0.00000000000E+00  0.00000000000E+00  0.50814191432E+01  0.50814191432E+01  0.00000000000E+00 0. -1.
          1   -1    0    0  501    0 -0.00000000000E+00 -0.00000000000E+00 -0.95936813622E+02  0.95936813622E+02  0.00000000000E+00 0. -1.
          2    1    1    2  501    0 -0.31719974902E+01  0.21086689010E+02 -0.32329149839E+02  0.38728335244E+02  0.00000000000E+00 0. -1.
          1    1    1    2  502    0  0.31719974902E+01 -0.21086689010E+02 -0.58526244640E+02  0.62289897521E+02  0.00000000000E+00 0. -1.
</event>
<event>
 4    1  0.3664744E+003  0.2599661E+02  0.7546771E-02  0.1457956E+00
          2   -1    0    0  502    0  0.00000000000E+00  0.00000000000E+00  0.96224520117E+03  0.96224520117E+03  0.00000000000E+00 0.  1.
          1   -1    0    0  501    0 -0.00000000000E+00 -0.00000000000E+00 -0.39716291572E+01  0.39716291572E+01  0.00000000000E+00 0.  1.
          2    1    1    2  501    0  0.25878062356E+02 -0.24798834568E+01  0.91745233798E+03  0.91782057964E+03  0.00000000000E+00 0.  1.
          1    1    1    2  502    0 -0.25878062356E+02  0.24798834568E+01  0.40821234032E+02  0.48396250693E+02  0.00000000000E+00 0.  1.
</event>
<event>
 4    1  0.3664744E+003  0.2146054E+02  0.7546771E-02  0.1512790E+00
          2   -1    0    0  502    0  0.00000000000E+00  0.00000000000E+00  0.76332406668E+03  0.76332406668E+03  0.00000000000E+00 0.  1.
          1   -1    0    0  501    0 -0.00000000000E+00 -0.00000000000E+00 -0.14585268333E+03  0.14585268333E+03  0.00000000000E+00 0. -1.
          2    1    1    2  501    0  0.21174815474E+02  0.34902888614E+01  0.76238283568E+03  0.76268482551E+03  0.00000000000E+00 0.  1.
          1    1    1    2  502    0 -0.21174815474E+02 -0.34902888614E+01 -0.14491145233E+03  0.14649192450E+03  0.00000000000E+00 0. -1.
</event>
<event>
 4    1  0.3664744E+003  0.2449817E+02  0.7546771E-02  0.1474496E+00
          2   -1    0    0  502    0  0.00000000000E+00  0.00000000000E+00  0.13976887544E+01  0.13976887544E+01  0.00000000000E+00 0. -1.
          1   -1    0    0  501    0 -0.00000000000E+00 -0.00000000000E+00 -0.74550982552E+03  0.74550982552E+03  0.00000000000E+00 0. -1.
          2    1    1    2  501    0 -0.22710940807E+02  0.91854964549E+01 -0.12887331648E+03  0.13118114148E+03  0.00000000000E+00 0. -1.
          1    1    1    2  502    0  0.22710940807E+02 -0.91854964549E+01 -0.61523882028E+03  0.61572637279E+03  0.00000000000E+00 0. -1.
</event>
<event>
 4    1  0.3664744E+003  0.5135022E+02  0.7546771E-02  0.1292422E+00
          2   -1    0    0  502    0  0.00000000000E+00  0.00000000000E+00  0.12076275705E+04  0.12076275705E+04  0.00000000000E+00 0. -1.
          1   -1    0    0  501    0 -0.00000000000E+00 -0.00000000000E+00 -0.10623437044E+03  0.10623437044E+03  0.00000000000E+00 0. -1.
          2    1    1    2  501    0 -0.50008281662E+02  0.11662638296E+02  0.12008413916E+04  0.12019388059E+04  0.00000000000E+00 0. -1.
          1    1    1    2  502    0  0.50008281662E+02 -0.11662638296E+02 -0.99448191508E+02  0.11192313506E+03  0.00000000000E+00 0. -1.
</event>
<event>
 4    1  0.3664744E+003  0.2471559E+02  0.7546771E-02  0.1472010E+00
          2   -1    0    0  502    0  0.00000000000E+00  0.00000000000E+00  0.11304104276E+04  0.11304104276E+04  0.00000000000E+00 0. -1.
          1   -1    0    0  501    0 -0.00000000000E+00 -0.00000000000E+00 -0.46479372724E+01  0.46479372724E+01  0.00000000000E+00 0.  1.
          2    1    1    2  501    0 -0.23892569209E+02  0.63249922038E+01  0.10963997068E+04  0.10966782470E+04  0.00000000000E+00 0. -1.
          1    1    1    2  502    0  0.23892569209E+02 -0.63249922038E+01  0.29362783474E+02  0.38380117810E+02  0.00000000000E+00 0.  1.
</event>
<event>
 4    1  0.3664744E+003  0.4950972E+02  0.7546771E-02  0.1300312E+00
          2   -1    0    0  502    0  0.00000000000E+00  0.00000000000E+00  0.15072672317E+04  0.15072672317E+04  0.00000000000E+00 0. -1.
          1   -1    0    0  501    0 -0.00000000000E+00 -0.00000000000E+00 -0.19997012238E+01  0.19997012238E+01  0.00000000000E+00 0. -1.
          2    1    1    2  501    0  0.36912646931E+02  0.32994982862E+02  0.10787429982E+04  0.10798785434E+04  0.00000000000E+00 0. -1.
          1    1    1    2  502    0 -0.36912646931E+02 -0.32994982862E+02  0.42652453226E+03  0.42938838948E+03  0.00000000000E+00 0. -1.
</event>
<event>
 4    1  0.3664744E+003  0.3791087E+02  0.7546771E-02  0.1361183E+00
          2   -1    0    0  502    0  0.00000000000E+00  0.00000000000E+00  0.52742180738E+03  0.52742180738E+03  0.00000000000E+00 0.  1.
          1   -1    0    0  501    0 -0.00000000000E+00 -0.00000000000E+00 -0.24366824879E+02  0.24366824879E+02  0.00000000000E+00 0.  1.
          2    1    1    2  501    0  0.37851158080E+02  0.21268917663E+01  0.51153748602E+03  0.51294038001E+03  0.00000000000E+00 0.  1.
          1    1    1    2  502    0 -0.37851158080E+02 -0.21268917663E+01 -0.84825035260E+01  0.38848252247E+02  0.00000000000E+00 0.  1.
</event>
<event>
 4    1  0.3664744E+003  0.2444747E+02  0.7546771E-02  0.1475080E+00
          2   -1    0    0  502    0  0.00000000000E+00  0.00000000000E+00  0.10585629262E+04  0.10585629262E+04  0.00000000000E+00 0.  1.
          1   -1    0    0  501    0 -0.00000000000E+00 -0.00000000000E+00 -0.18347231229E+01  0.18347231229E+01  0.00000000000E+00 0.  1.
          2    1    1    2  501    0 -0.19752269407E+02  0.14405782641E+02  0.96950175502E+03  0.96980994618E+03  0.00000000000E+00 0.  1.
          1    1    1    2  502    0  0.19752269407E+02 -0.14405782641E+02  0.87226448051E+02  0.90587703138E+02  0.00000000000E+00 0.  1.
</event>
<event>
 4    1  0.3664744E+003  0.2321291E+02  0.7546771E-02  0.1489842E+00
          2   -1    0    0  502    0  0.00000000000E+00  0.00000000000E+00  0.24764954987E+01  0.24764954987E+01  0.00000000000E+00 0.  1.
          1   -1    0    0  501    0 -0.00000000000E+00 -0.00000000000E+00 -0.23404915960E+03  0.23404915960E+03  0.00000000000E+00 0.  1.
          2    1    1    2  501    0 -0.19496377185E+02 -0.12598823540E+02 -0.84416408213E+02  0.87549808986E+02  0.00000000000E+00 0.  1.
          1    1    1    2  502    0  0.19496377185E+02  0.12598823540E+02 -0.14715625589E+03  0.14897584611E+03  0.00000000000E+00 0.  1.
</event>
<event>
 4    1  0.3664744E+003  0.3361982E+02  0.7546771E-02  0.1390535E+00
          2   -1    0    0  502    0  0.00000000000E+00  0.00000000000E+00  0.10056057835E+03  0.10056057835E+03  0.00000000000E+00 0. -1.
          1   -1    0    0  501    0 -0.00000000000E+00 -0.00000000000E+00 -0.73596549286E+02  0.73596549286E+02  0.00000000000E+00 0.  1.
          2    1    1    2  501    0 -0.18097853677E+02 -0.28333017078E+02  0.93635769227E+02  0.99488438741E+02  0.00000000000E+00 0. -1.
          1    1    1    2  502    0  0.18097853677E+02  0.28333017078E+02 -0.66671740165E+02  0.74668688893E+02  0.00000000000E+00 0.  1.
</event>
<event>
 4    1  0.3664744E+003  0.3117325E+02  0.7546771E-02  0.1409668E+00
          2   -1    0    0  502    0  0.00000000000E+00  0.00000000000E+00  0.70361043603E+03  0.70361043603E+03  0.00000000000E+00 0.  1.
          1   -1    0    0  501    0 -0.00000000000E+00 -0.00000000000E+00 -0.99764797147E+01  0.99764797147E+01  0.00000000000E+00 0. -1.
          2    1    1    2  501    0  0.24305452389E+02  0.19519638671E+02  0.67799401644E+03  0.67871028992E+03  0.00000000000E+00 0.  1.
          1    1    1    2  502    0 -0.24305452389E+02 -0.19519638671E+02  0.15639939870E+02  0.34876625823E+02  0.00000000000E+00 0. -1.
</event>
<event>
 4    1  0.3664744E+003  0.2716417E+02  0.7546771E-02  0.1445966E+00
          2   -1    0    0  502    0  0.00000000000E+00  0.00000000000E+00  0.11330494304E+01  0.11330494304E+01  0.00000000000E+00 0. -1.
          1   -1    0    0  501    0 -0.00000000000E+00 -0.00000000000E+00 -0.20574069764E+04  0.20574069764E+04  0.00000000000E+00 0.  1.
          2    1    1    2  501    0 -0.24406410787E+02  0.11925566795E+02 -0.17722037022E+03  0.17929013261E+03  0.00000000000E+00 0. -1.
          1    1    1    2  502    0  0.24406410787E+02 -0.11925566795E+02 -0.18790535568E+04  0.18792498933E+04  0.00000000000E+00 0.  1.
</event>
<event>
 4    1  0.3664744E+003  0.2739732E+02  0.7546771E-02  0.1443657E+00
          2   -1    0    0  502    0  0.00000000000E+00  0.00000000000E+00  0.58186163575E+03  0.58186163575E+03  0.00000000000E+00 0.  1.
          1   -1    0    0  501    0 -0.00000000000E+00 -0.00000000000E+00 -0.50946323520E+01  0.50946323520E+01  0.00000000000E+00 0. -1.
          2    1    1    2  501    0 -0.18274308244E+02  0.20412324612E+02  0.54199825436E+03  0.54269026255E+03  0.00000000000E+00 0.  1.
          1    1    1    2  502    0  0.18274308244E+02 -0.20412324612E+02  0.34768749039E+02  0.44266005553E+02  0.00000000000E+00 0. -1.
</event>
<event>
 4    1  0.3664744E+003  0.2977690E+02  0.7546771E-02  0.1421545E+00
          2   -1    0    0  502    0  0.00000000000E+00  0.00000000000E+00  0.87271355431E+02  0.87271355431E+02  0.00000000000E+00 0. -1.
          1   -1    0    0  501    0 -0.00000000000E+00 -0.00000000000E+00 -0.17067507243E+02  0.17067507243E+02  0.00000000000E+00 0. -1.
          2    1    1    2  501    0 -0.95018640782E+01  0.28220178911E+02  0.68291097103E+02  0.74500589677E+02  0.00000000000E+00 0. -1.
          1    1    1    2  502    0  0.95018640782E+01 -0.28220178911E+02  0.19127510847E+01  0.29838272997E+02  0.00000000000E+00 0. -1.
</event>
<event>
 4    1  0.3664744E+003  0.2110929E+02  0.7546771E-02  0.1517710E+00
          2   -1    0    0  502    0  0.00000000000E+00  0.00000000000E+00  0.23811408770E+01  0.23811408770E+01  0.00000000000E+00 0.  1.
          1   -1    0    0  501    0 -0.00000000000E+00 -0.00000000000E+00 -0.50166243501E+03  0.50166243501E+03  0.00000000000E+00 0. -1.
          2    1    1    2  501    0 -0.18013517181E+02 -0.11005236935E+02 -0.50087094431E+02  0.54353648173E+02  0.00000000000E+00 0.  1.
          1    1    1    2  502    0  0.18013517181E+02  0.11005236935E+02 -0.44919419970E+03  0.44968992772E+03  0.00000000000E+00 0. -1.
</event>
<event>
 4    1  0.3664744E+003  0.3339717E+02  0.7546771E-02  0.1392196E+00
          2   -1    0    0  502    0  0.00000000000E+00  0.00000000000E+00  0.66917020562E+03  0.66917020562E+03  0.00000000000E+00 0. -1.
          1   -1    0    0  501    0 -0.00000000000E+00 -0.00000000000E+00 -0.25739111718E+01  0.25739111718E+01  0.00000000000E+00 0. -1.
          2    1    1    2  501    0  0.26414876014E+01 -0.33292544327E+02  0.53269029350E+03  0.53373618928E+03  0.00000000000E+00 0. -1.
          1    1    1    2  502    0 -0.26414876014E+01  0.33292544327E+02  0.13390600095E+03  0.13800792751E+03  0.00000000000E+00 0. -1.
</event>
<event>
 4    1  0.3664744E+003  0.2003732E+02  0.7546771E-02  0.1533466E+00
          2   -1    0    0  502    0  0.00000000000E+00  0.00000000000E+00  0.21854341172E+02  0.21854341172E+02  0.00000000000E+00 0. -1.
          1   -1    0    0  501    0 -0.00000000000E+00 -0.00000000000E+00 -0.88516412911E+02  0.88516412911E+02  0.00000000000E+00 0.  1.
          2    1    1    2  501    0  0.17891536620E+02 -0.90214695652E+01  0.15794876696E+02  0.25514155396E+02  0.00000000000E+00 0. -1.
          1    1    1    2  502    0 -0.17891536620E+02  0.90214695652E+01 -0.82456948434E+02  0.84856598687E+02  0.00000000000E+00 0.  1.
</event>
<event>
 4    1  0.3664744E+003  0.4722938E+02  0.7546771E-02  0.1310653E+00
          2   -1    0    0  502    0  0.00000000000E+00  0.00000000000E+00  0.12587192680E+04  0.12587192680E+04  0.00000000000E+00 0. -1.
          1   -1    0    0  501    0 -0.00000000000E+00 -0.00000000000E+00 -0.35812477735E+02  0.35812477735E+02  0.00000000000E+00 0.  1.
          2    1    1    2  501    0  0.25100642662E+01 -0.47162637074E+02  0.12425015711E+04  0.12433988776E+04  0.00000000000E+00 0. -1.
          1    1    1    2  502    0 -0.25100642662E+01  0.47162637074E+02 -0.19594780864E+02  0.51132868054E+02  0.00000000000E+00 0.  1.
</event>
<event>
 4    1  0.3664744E+003  0.2621617E+02  0.7546771E-02  0.1455645E+00
          2   -1    0    0  502    0  0.00000000000E+00  0.00000000000E+00  0.10794447429E+03  0.10794447429E+03  0.00000000000E+00 0. -1.
          1   -1    0    0  501    0 -0.00000000000E+00 -0.00000000000E+00 -0.19058787106E+03  0.19058787106E+03  0.00000000000E+00 0.  1.
          2    1    1    2  501    0 -0.25755658194E+02 -0.48922051153E+01  0.10542999709E+03  0.10864056280E+03  0.00000000000E+00 0. -1.
          1    1    1    2  502    0  0.25755658194E+02  0.48922051153E+01 -0.18807339386E+03  0.18989178255E+03  0.00000000000E+00 0.  1.
</event>
<event>
 4    1  0.3664744E+003  0.3722812E+02  0.7546771E-02  0.1365542E+00
          2   -1    0    0  502    0  0.00000000000E+00  0.00000000000E+00  0.10215161770E+04  0.10215161770E+04  0.00000000000E+00 0.  1.
          1   -1    0    0  501    0 -0.00000000000E+00 -0.00000000000E+00 -0.17415778263E+02  0.17415778263E+02  0.00000000000E+00 0.  1.
          2    1    1    2  501    0 -0.36666153398E+02 -0.64440921448E+01  0.10008719877E+04  0.10015641112E+04  0.00000000000E+00 0.  1.
          1    1    1    2  502    0  0.36666153398E+02  0.64440921448E+01  0.32284110120E+01  0.37367844014E+02  0.00000000000E+00 0.  1.
</event>
<event>
 4    1  0.3664744E+003  0.3319904E+02  0.7546771E-02  0.1393687E+00
          2   -1    0    0  502    0  0.00000000000E+00  0.00000000000E+00  0.30527855133E+03  0.30527855133E+03  0.00000000000E+00 0.  1.
          1   -1    0    0  501    0 -0.00000000000E+00 -0.00000000000E+00 -0.74732916475E+01  0.74732916475E+01  0.00000000000E+00 0. -1.
          2    1    1    2  501    0  0.15881927641E+02 -0.29153745183E+02  0.26132957240E+03  0.26342991838E+03  0.00000000000E+00 0.  1.
          1    1    1    2  502    0 -0.15881927641E+02  0.29153745183E+02  0.36475687280E+02  0.49321924601E+02  0.00000000000E+00 0. -1.
</event>
<event>
 4    1  0.3664744E+003  0.2512505E+02  0.7546771E-02  0.1467409E+00
          2   -1    0    0  502    0  0.00000000000E+00  0.00000000000E+00  0.74137815493E+03  0.74137815493E+03  0.00000000000E+00 0.  1.
          1   -1    0    0  501    0 -0.00000000000E+00 -0.00000000000E+00 -0.10103850216E+03  0.10103850216E+03  0.00000000000E+00 0. -1.
          2    1    1    2  501    0 -0.23220446178E+02 -0.95957846217E+01  0.73959958039E+03  0.74002622083E+03  0.00000000000E+00 0.  1.
          1    1    1    2  502    0  0.23220446178E+02  0.95957846217E+01 -0.99259927626E+02  0.10239043625E+03  0.00000000000E+00 0. -1.
</event>
<event>
 4    1  0.3664744E+003  0.3814044E+02  0.7546771E-02  0.1359741E+00
          2   -1    0    0  502    0  0.00000000000E+00  0.00000000000E+00  0.32913317715E+03  0.32913317715E+03  0.00000000000E+00 0.  1.
          1   -1    0    0  501    0 -0.00000000000E+00 -0.00000000000E+00 -0.69903140526E+02  0.69903140526E+02  0.00000000000E+00 0.  1.
          2    1    1    2  501    0 -0.22154854530E+02  0.31046018997E+02  0.32272272126E+03  0.32496868725E+03  0.00000000000E+00 0.  1.
          1    1    1    2  502    0  0.22154854530E+02 -0.31046018997E+02 -0.63492684637E+02  0.74067630427E+02  0.00000000000E+00 0.  1.
</event>
<event>
 4    1  0.3664744E+003  0.2218791E+02  0.7546771E-02  0.1502955E+00
          2   -1    0    0  502    0  0.00000000000E+00  0.00000000000E+00  0.13227066219E+02  0.13227066219E+02  0.00000000000E+00 0.  1.
          1   -1    0    0  501    0 -0.00000000000E+00 -0.00000000000E+00 -0.38376731226E+03  0.38376731226E+03  0.00000000000E+00 0. -1.
          2    1    1    2  501    0 -0.98481000584E+01 -0.19882615741E+02  0.33560761978E+01  0.22440292576E+02  0.00000000000E+00 0.  1.
          1    1    1    2  502    0  0.98481000584E+01  0.19882615741E+02 -0.37389632224E+03  0.37455408590E+03  0.00000000000E+00 0. -1.
</event>
<event>
 4    1  0.3664744E+003  0.2838689E+02  0.7546771E-02  0.1434153E+00
          2   -1    0    0  502    0  0.00000000000E+00  0.00000000000E+00  0.11560160179E+04  0.11560160179E+04  0.00000000000E+00 0.  1.
          1   -1    0    0  501    0 -0.00000000000E+00 -0.00000000000E+00 -0.13714513224E+01  0.13714513224E+01  0.00000000000E+00 0.  1.
          2    1    1    2  501    0  0.27122275420E+02 -0.83784115371E+01  0.98312384198E+03  0.98353358065E+03  0.00000000000E+00 0.  1.
          1    1    1    2  502    0 -0.27122275420E+02  0.83784115371E+01  0.17152072456E+03  0.17385388853E+03  0.00000000000E+00 0.  1.
</event>
<event>
 4    1  0.3664744E+003  0.2156719E+02  0.7546771E-02  0.1511319E+00
          2   -1    0    0  502    0  0.00000000000E+00  0.00000000000E+00  0.25199083976E+03  0.25199083976E+03  0.00000000000E+00 0.  1.
          1   -1    0    0  501    0 -0.00000000000E+00 -0.00000000000E+00 -0.17468923657E+02  0.17468923657E+02  0.00000000000E+00 0. -1.
          2    1    1    2  501    0  0.19732907402E+02  0.87037910201E+01  0.24467395953E+03  0.24562265792E+03  0.00000000000E+00 0.  1.
          1    1    1    2  502    0 -0.19732907402E+02 -0.87037910201E+01 -0.10152043427E+02  0.23837105495E+02  0.00000000000E+00 0. -1.
</event>
<event>
 4    1  0.3664744E+003  0.2646095E+02  0.7546771E-02  0.1453099E+00
          2   -1    0    0  502    0  0.00000000000E+00  0.00000000000E+00  0.82782421589E+03  0.82782421589E+03  0.00000000000E+00 0. -1.
          1   -1    0    0  501    0 -0.00000000000E+00 -0.00000000000E+00 -0.91966248511E+00  0.91966248511E+00  0.00000000000E+00 0. -1.
          2    1    1    2  501    0 -0.17573849941E+02 -0.19782362842E+02  0.53087668227E+03  0.53153573150E+03  0.00000000000E+00 0. -1.
          1    1    1    2  502    0  0.17573849941E+02  0.19782362842E+02  0.29602787114E+03  0.29720814688E+03  0.00000000000E+00 0. -1.
</event>
<event>
 4    1  0.3664744E+003  0.3642595E+02  0.7546771E-02  0.1370806E+00
          2   -1    0    0  502    0  0.00000000000E+00  0.00000000000E+00  0.43807817829E+02  0.43807817829E+02  0.00000000000E+00 0.  1.
          1   -1    0    0  501    0 -0.00000000000E+00 -0.00000000000E+00 -0.52151581716E+03  0.52151581716E+03  0.00000000000E+00 0. -1.
          2    1    1    2  501    0  0.19150268050E+01  0.36375576326E+02  0.35477004942E+02  0.50847495124E+02  0.00000000000E+00 0.  1.
          1    1    1    2  502    0 -0.19150268050E+01 -0.36375576326E+02 -0.51318500427E+03  0.51447613987E+03  0.00000000000E+00 0. -1.
</event>
<event>
 4    1  0.3664744E+003  0.3356175E+02  0.7546771E-02  0.1390966E+00
          2   -1    0    0  502    0  0.00000000000E+00  0.00000000000E+00  0.13695705602E+03  0.13695705602E+03  0.00000000000E+00 0. -1.
          1   -1    0    0  501    0 -0.00000000000E+00 -0.00000000000E+00 -0.11351736856E+03  0.11351736856E+03  0.00000000000E+00 0.  1.
          2    1    1    2  501    0  0.12457054734E+02  0.31164289292E+02  0.13233500346E+03  0.13652451897E+03  0.00000000000E+00 0. -1.
          1    1    1    2  502    0 -0.12457054734E+02 -0.31164289292E+02 -0.10889531600E+03  0.11394990560E+03  0.00000000000E+00 0.  1.
</event>
<event>
 4    1  0.3664744E+003  0.2496665E+02  0.7546771E-02  0.1469177E+00
          2   -1    0    0  502    0  0.00000000000E+00  0.00000000000E+00  0.10666327895E+02  0.10666327895E+02  0.00000000000E+00 0.  1.
          1   -1    0    0  501    0 -0.00000000000E+00 -0.00000000000E+00 -0.48504710910E+03  0.48504710910E+03  0.00000000000E+00 0. -1.
          2    1    1    2  501    0 -0.21746056725E+02 -0.12265512276E+02 -0.47438505021E+01  0.25413340829E+02  0.00000000000E+00 0.  1.
          1    1    1    2  502    0  0.21746056725E+02  0.12265512276E+02 -0.46963693070E+03  0.47030009616E+03  0.00000000000E+00 0. -1.
</event>
<event>
 4    1  0.3664744E+003  0.2792328E+02  0.7546771E-02  0.1438548E+00
          2   -1    0    0  502    0  0.00000000000E+00  0.00000000000E+00  0.70261399742E+03  0.70261399742E+03  0.00000000000E+00 0.  1.
          1   -1    0    0  501    0 -0.00000000000E+00 -0.00000000000E+00 -0.54433996204E+02  0.54433996204E+02  0.00000000000E+00 0. -1.
          2    1    1    2  501    0 -0.95862459481E+01  0.26226195995E+02  0.69873571188E+03  0.69929343235E+03  0.00000000000E+00 0.  1.
          1    1    1    2  502    0  0.95862459481E+01 -0.26226195995E+02 -0.50555710663E+02  0.57754561278E+02  0.00000000000E+00 0. -1.
</event>
<event>
 4    1  0.3664744E+003  0.2247751E+02  0.7546771E-02  0.1499165E+00
          2   -1    0    0  502    0  0.00000000000E+00  0.00000000000E+00  0.35414042913E+01  0.35414042913E+01  0.00000000000E+00 0. -1.
          1   -1    0    0  501    0 -0.00000000000E+00 -0.00000000000E+00 -0.69215621805E+03  0.69215621805E+03  0.00000000000E+00 0.  1.
          2    1    1    2  501    0 -0.21805608488E+02  0.54547033113E+01 -0.34373990794E+02  0.41070787585E+02  0.00000000000E+00 0. -1.
          1    1    1    2  502    0  0.21805608488E+02 -0.54547033113E+01 -0.65424082297E+03  0.65462683476E+03  0.00000000000E+00 0.  1.
</event>
<event>
 4    1  0.3664744E+003  0.2222278E+02  0.7546771E-02  0.1502495E+00
          2   -1    0    0  502    0  0.00000000000E+00  0.00000000000E+00  0.12074553124E+03  0.12074553124E+03  0.00000000000E+00 0. -1.
          1   -1    0    0  501    0 -0.00000000000E+00 -0.00000000000E+00 -0.14868620017E+02  0.14868620017E+02  0.00000000000E+00 0. -1.
          2    1    1    2  501    0 -0.13927369500E+02 -0.17317048464E+02  0.11067101833E+03  0.11288014036E+03  0.00000000000E+00 0. -1.
          1    1    1    2  502    0  0.13927369500E+02  0.17317048464E+02 -0.47941071072E+01  0.22734010901E+02  0.00000000000E+00 0. -1.
</event>
<event>
 4    1  0.3664744E+003  0.5340520E+02  0.7546771E-02  0.1284047E+00
          2   -1    0    0  502    0  0.00000000000E+00  0.00000000000E+00  0.43914539280E+03  0.43914539280E+03  0.00000000000E+00 0. -1.
          1   -1    0    0  501    0 -0.00000000000E+00 -0.00000000000E+00 -0.37540868394E+02  0.37540868394E+02  0.00000000000E+00 0.  1.
          2    1    1    2  501    0  0.37967400151E+02 -0.37557842030E+02  0.41754997741E+03  0.42095142072E+03  0.00000000000E+00 0. -1.
          1    1    1    2  502    0 -0.37967400151E+02  0.37557842030E+02 -0.15945452997E+02  0.55734840481E+02  0.00000000000E+00 0.  1.
</event>
<event>
 4    1  0.3664744E+003  0.4226756E+02  0.7546771E-02  0.1335687E+00
          2   -1    0    0  502    0  0.00000000000E+00  0.00000000000E+00  0.88358761993E+03  0.88358761993E+03  0.00000000000E+00 0.  1.
          1   -1    0    0  501    0 -0.00000000000E+00 -0.00000000000E+00 -0.13736825861E+02  0.13736825861E+02  0.00000000000E+00 0. -1.
          2    1    1    2  501    0  0.21830983654E+02 -0.36193299667E+02  0.84925469054E+03  0.85030587214E+03  0.00000000000E+00 0.  1.
          1    1    1    2  502    0 -0.21830983654E+02  0.36193299667E+02  0.20596103535E+02  0.47018573659E+02  0.00000000000E+00 0. -1.
</event>
<event>
 4    1  0.3664744E+003  0.2351115E+02  0.7546771E-02  0.1486177E+00
          2   -1    0    0  502    0  0.00000000000E+00  0.00000000000E+00  0.87778917145E+01  0.87778917145E+01  0.00000000000E+00 0.  1.
          1   -1    0    0  501    0 -0.00000000000E+00 -0.00000000000E+00 -0.81843532896E+02  0.81843532896E+02  0.00000000000E+00 0.  1.
          2    1    1    2  501    0  0.26253728045E+01 -0.23364109091E+02 -0.14775994380E+02  0.27768762772E+02  0.00000000000E+00 0.  1.
          1    1    1    2  502    0 -0.26253728045E+01  0.23364109091E+02 -0.58289646801E+02  0.62852661838E+02  0.00000000000E+00 0.  1.
</event>
<event>
 4    1  0.3664744E+003  0.2543449E+02  0.7546771E-02  0.1464001E+00
          2   -1    0    0  502    0  0.00000000000E+00  0.00000000000E+00  0.11024527693E+03  0.11024527693E+03  0.00000000000E+00 0.  1.
          1   -1    0    0  501    0 -0.00000000000E+00 -0.00000000000E+00 -0.37504912930E+02  0.37504912930E+02  0.00000000000E+00 0.  1.
          2    1    1    2  501    0 -0.23487598577E+02 -0.97594065801E+01  0.10422042278E+03  0.10727912112E+03  0.00000000000E+00 0.  1.
          1    1    1    2  502    0  0.23487598577E+02  0.97594065801E+01 -0.31480058783E+02  0.40471068737E+02  0.00000000000E+00 0.  1.
</event>
<event>
 4    1  0.3664744E+003  0.3395573E+02  0.7546771E-02  0.1388057E+00
          2   -1    0    0  502    0  0.00000000000E+00  0.00000000000E+00  0.27250968498E+03  0.27250968498E+03  0.00000000000E+00 0. -1.
          1   -1    0    0  501    0 -0.00000000000E+00 -0.00000000000E+00 -0.20193827206E+03  0.20193827206E+03  0.00000000000E+00 0.  1.
          2    1    1    2  501    0 -0.14193224539E+02  0.30847101947E+02  0.27001137128E+03  0.27213807514E+03  0.00000000000E+00 0. -1.
          1    1    1    2  502    0  0.14193224539E+02 -0.30847101947E+02 -0.19943995836E+03  0.20230988190E+03  0.00000000000E+00 0.  1.
</event>
<event>
 4    1  0.3664744E+003  0.2014327E+02  0.7546771E-02  0.1531857E+00
          2   -1    0    0  502    0  0.00000000000E+00  0.00000000000E+00  0.33633700278E+02  0.33633700278E+02  0.00000000000E+00 0. -1.
          1   -1    0    0  501    0 -0.00000000000E+00 -0.00000000000E+00 -0.10340956857E+04  0.10340956857E+04  0.00000000000E+00 0. -1.
          2    1    1    2  501    0  0.98091286817E+01 -0.17593533169E+02  0.30510512645E+02  0.36560125776E+02  0.00000000000E+00 0. -1.
          1    1    1    2  502    0 -0.98091286817E+01  0.17593533169E+02 -0.10309724980E+04  0.10311692602E+04  0.00000000000E+00 0. -1.
</event>
<event>
 4    1  0.3664744E+003  0.3007174E+02  0.7546771E-02  0.1418974E+00
          2   -1    0    0  502    0  0.00000000000E+00  0.00000000000E+00  0.12062028870E+04  0.12062028870E+04  0.00000000000E+00 0.  1.
          1   -1    0    0  501    0 -0.00000000000E+00 -0.00000000000E+00 -0.94850258302E+01  0.94850258302E+01  0.00000000000E+00 0. -1.
          2    1    1    2  501    0 -0.25453335879E+02  0.16013663112E+02  0.11816858228E+04  0.11820683963E+04  0.00000000000E+00 0.  1.
          1    1    1    2  502    0  0.25453335879E+02 -0.16013663112E+02  0.15032038347E+02  0.33619516512E+02  0.00000000000E+00 0. -1.
</event>
<event>
 4    1  0.3664744E+003  0.3394480E+02  0.7546771E-02  0.1388137E+00
          2   -1    0    0  502    0  0.00000000000E+00  0.00000000000E+00  0.13258855137E+04  0.13258855137E+04  0.00000000000E+00 0. -1.
          1   -1    0    0  501    0 -0.00000000000E+00 -0.00000000000E+00 -0.33468332607E+02  0.33468332607E+02  0.00000000000E+00 0.  1.
          2    1    1    2  501    0 -0.68189883713E+01  0.33252836260E+02  0.13170031996E+04  0.13174405784E+04  0.00000000000E+00 0. -1.
          1    1    1    2  502    0  0.68189883713E+01 -0.33252836260E+02 -0.24586018531E+02  0.41913267935E+02  0.00000000000E+00 0.  1.
</event>
<event>
 4    1  0.3664744E+003  0.2492522E+02  0.7546771E-02  0.1469642E+00
          2   -1    0    0  502    0  0.00000000000E+00  0.00000000000E+00  0.22874039056E+02  0.22874039056E+02  0.00000000000E+00 0. -1.
          1   -1    0    0  501    0 -0.00000000000E+00 -0.00000000000E+00 -0.30245042009E+02  0.30245042009E+02  0.00000000000E+00 0. -1.
          2    1    1    2  501    0 -0.81209426828E+00  0.24911987953E+02  0.47965359406E+01  0.25382541202E+02  0.00000000000E+00 0. -1.
          1    1    1    2  502    0  0.81209426828E+00 -0.24911987953E+02 -0.12167538894E+02  0.27736539863E+02  0.00000000000E+00 0. -1.
</event>
<event>
 4    1  0.3664744E+003  0.2065525E+02  0.7546771E-02  0.1524244E+00
          2   -1    0    0  502    0  0.00000000000E+00  0.00000000000E+00  0.14100619683E+04  0.14100619683E+04  0.00000000000E+00 0.  1.
          1   -1    0    0  501    0 -0.00000000000E+00 -0.00000000000E+00 -0.70799785431E+01  0.70799785431E+01  0.00000000000E+00 0. -1.
          2    1    1    2  501    0 -0.82724813394E+01  0.18926314688E+02  0.13947560194E+04  0.13949089551E+04  0.00000000000E+00 0.  1.
          1    1    1    2  502    0  0.82724813394E+01 -0.18926314688E+02  0.82259703977E+01  0.22232991795E+02  0.00000000000E+00 0. -1.
</event>
<event>
 4    1  0.3664744E+003  0.2155353E+02  0.7546771E-02  0.1511507E+00
          2   -1    0    0  502    0  0.00000000000E+00  0.00000000000E+00  0.16848365106E+01  0.16848365106E+01  0.00000000000E+00 0.  1.
          1   -1    0    0  501    0 -0.00000000000E+00 -0.00000000000E+00 -0.65455865141E+03  0.65455865141E+03  0.00000000000E+00 0. -1.
          2    1    1    2  501    0  0.22995070707E+01  0.21430518172E+02 -0.76814319467E+02  0.79780915744E+02  0.00000000000E+00 0.  1.
          1    1    1    2  502    0 -0.22995070707E+01 -0.21430518172E+02 -0.57605949543E+03  0.57646257218E+03  0.00000000000E+00 0. -1.
</event>
<event>
 4    1  0.3664744E+003  0.2190865E+02  0.7546771E-02  0.1506677E+00
          2   -1    0    0  502    0  0.00000000000E+00  0.00000000000E+00  0.58796930861E+03  0.58796930861E+03  0.00000000000E+00 0. -1.
          1   -1    0    0  501    0 -0.00000000000E+00 -0.00000000000E+00 -0.17861015469E+01  0.17861015469E+01  0.00000000000E+00 0. -1.
          2    1    1    2  501    0  0.32276264360E+01  0.21669600425E+02  0.51037120151E+03  0.51084122043E+03  0.00000000000E+00 0. -1.
          1    1    1    2  502    0 -0.32276264360E+01 -0.21669600425E+02  0.75812005551E+02  0.78914189730E+02  0.00000000000E+00 0. -1.
</event>
<event>
 4    1  0.3664744E+003  0.3523678E+02  0.7546771E-02  0.1378906E+00
          2   -1    0    0  502    0  0.00000000000E+00  0.00000000000E+00  0.27348661936E+02  0.27348661936E+02  0.00000000000E+00 0.  1.
          1   -1    0    0  501    0 -0.00000000000E+00 -0.00000000000E+00 -0.43819294759E+03  0.43819294759E+03  0.00000000000E+00 0.  1.
          2    1    1    2  501    0 -0.11724069564E+02 -0.33229155678E+02  0.14960623385E+02  0.38281207482E+02  0.00000000000E+00 0.  1.
          1    1    1    2  502    0  0.11724069564E+02  0.33229155678E+02 -0.42580490904E+03  0.42726040204E+03  0.00000000000E+00 0.  1.
</event>
<event>
 4    1  0.3664744E+003  0.2772678E+02  0.7546771E-02  0.1440441E+00
          2   -1    0    0  502    0  0.00000000000E+00  0.00000000000E+00  0.31516976175E+03  0.31516976175E+03  0.00000000000E+00 0.  1.
          1   -1    0    0  501    0 -0.00000000000E+00 -0.00000000000E+00 -0.68566582610E+01  0.68566582610E+01  0.00000000000E+00 0.  1.
          2    1    1    2  501    0 -0.14551239360E+02  0.23601609802E+02  0.28339434642E+03  0.28474748486E+03  0.00000000000E+00 0.  1.
          1    1    1    2  502    0  0.14551239360E+02 -0.23601609802E+02  0.24918757076E+02  0.37278935156E+02  0.00000000000E+00 0.  1.
</event>
<event>
 4    1  0.3664744E+003  0.3130200E+02  0.7546771E-02  0.1408610E+00
          2   -1    0    0  502    0  0.00000000000E+00  0.00000000000E+00  0.30976296202E+03  0.30976296202E+03  0.00000000000E+00 0.  1.
          1   -1    0    0  501    0 -0.00000000000E+00 -0.00000000000E+00 -0.14970245522E+02  0.14970245522E+02  0.00000000000E+00 0. -1.
          2    1    1    2  501    0  0.31290138051E+02 -0.86178676477E+00  0.29159277029E+03  0.29326806696E+03  0.00000000000E+00 0.  1.
          1    1    1    2  502    0 -0.31290138051E+02  0.86178676477E+00  0.31999462055E+01  0.31465140575E+02  0.00000000000E+00 0. -1.
</event>
<event>
 4    1  0.3664744E+003  0.2104083E+02  0.7546771E-02  0.1518683E+00
          2   -1    0    0  502    0  0.00000000000E+00  0.00000000000E+00  0.28875208891E+02  0.28875208891E+02  0.00000000000E+00 0.  1.
          1   -1    0    0  501    0 -0.00000000000E+00 -0.00000000000E+00 -0.24488670753E+02  0.24488670753E+02  0.00000000000E+00 0.  1.
          2    1    1    2  501    0 -0.16583897428E+02 -0.12949558857E+02  0.18508827004E+02  0.28023087010E+02  0.00000000000E+00 0.  1.
          1    1    1    2  502    0  0.16583897428E+02  0.12949558857E+02 -0.14122288866E+02  0.25340792634E+02  0.00000000000E+00 0.  1.
</event>
<event>
 4    1  0.3664744E+003  0.2147620E+02  0.7546771E-02  0.1512573E+00
          2   -1    0    0  502    0  0.00000000000E+00  0.00000000000E+00  0.13582327327E+03  0.13582327327E+03  0.00000000000E+00 0. -1.
          1   -1    0    0  501    0 -0.00000000000E+00 -0.00000000000E+00 -0.17106098883E+02  0.17106098883E+02  0.00000000000E+00 0. -1.
          2    1    1    2  501    0  0.13964123098E+02  0.16316566480E+02  0.12781420087E+03  0.12960592973E+03  0.00000000000E+00 0. -1.
          1    1    1    2  502    0 -0.13964123098E+02 -0.16316566480E+02 -0.90970264875E+01  0.23323442424E+02  0.00000000000E+00 0. -1.
</event>
<event>
 4    1  0.3664744E+003  0.2099514E+02  0.7546771E-02  0.1519334E+00
          2   -1    0    0  502    0  0.00000000000E+00  0.00000000000E+00  0.13350955733E+04  0.13350955733E+04  0.00000000000E+00 0.  1.
          1   -1    0    0  501    0 -0.00000000000E+00 -0.00000000000E+00 -0.24122300110E+02  0.24122300110E+02  0.00000000000E+00 0. -1.
          2    1    1    2  501    0 -0.18482589966E+02 -0.99594146423E+01  0.13304286630E+04  0.13305943121E+04  0.00000000000E+00 0.  1.
          1    1    1    2  502    0  0.18482589966E+02  0.99594146423E+01 -0.19455389782E+02  0.28623561334E+02  0.00000000000E+00 0. -1.
</event>
<event>
 4    1  0.3664744E+003  0.3502304E+02  0.7546771E-02  0.1380401E+00
          2   -1    0    0  502    0  0.00000000000E+00  0.00000000000E+00  0.14768524969E+02  0.14768524969E+02  0.00000000000E+00 0.  1.
          1   -1    0    0  501    0 -0.00000000000E+00 -0.00000000000E+00 -0.21008883036E+03  0.21008883036E+03  0.00000000000E+00 0.  1.
          2    1    1    2  501    0 -0.28795501536E+02 -0.19935706654E+02 -0.10235531547E+02  0.36488072223E+02  0.00000000000E+00 0.  1.
          1    1    1    2  502    0  0.28795501536E+02  0.19935706654E+02 -0.18508477385E+03  0.18836928311E+03  0.00000000000E+00 0.  1.
</event>
<event>
 4    1  0.3664744E+003  0.2034336E+02  0.7546771E-02  0.1528850E+00
          2   -1    0    0  502    0  0.00000000000E+00  0.00000000000E+00  0.56837604326E+02  0.56837604326E+02  0.00000000000E+00 0. -1.
          1   -1    0    0  501    0 -0.00000000000E+00 -0.00000000000E+00 -0.32284459590E+03  0.32284459590E+03  0.00000000000E+00 0.  1.
          2    1    1    2  501    0  0.29231366761E+01 -0.20132253268E+02  0.54684594126E+02  0.58346012584E+02  0.00000000000E+00 0. -1.
          1    1    1    2  502    0 -0.29231366761E+01  0.20132253268E+02 -0.32069158570E+03  0.32133618764E+03  0.00000000000E+00 0.  1.
</event>
<event>
 4    1  0.3664744E+003  0.2644888E+02  0.7546771E-02  0.1453224E+00
          2   -1    0    0  502    0  0.00000000000E+00  0.00000000000E+00  0.68932663074E+03  0.68932663074E+03  0.00000000000E+00 0.  1.
          1   -1    0    0  501    0 -0.00000000000E+00 -0.00000000000E+00 -0.29095907640E+02  0.29095907640E+02  0.00000000000E+00 0.  1.
          2    1    1    2  501    0 -0.26339270790E+02 -0.24054530477E+01  0.68300666033E+03  0.68351857432E+03  0.00000000000E+00 0.  1.
          1    1    1    2  502    0  0.26339270790E+02  0.24054530477E+01 -0.22775937230E+02  0.34903964056E+02  0.00000000000E+00 0.  1.
</event>
<event>
 4    1  0.3664744E+003  0.2035688E+02  0.7546771E-02  0.1528648E+00
          2   -1    0    0  502    0  0.00000000000E+00  0.00000000000E+00  0.22333875935E+03  0.22333875935E+03  0.00000000000E+00 0.  1.
          1   -1    0    0  501    0 -0.00000000000E+00 -0.00000000000E+00 -0.18896632308E+01  0.18896632308E+01  0.00000000000E+00 0. -1.
          2    1    1    2  501    0 -0.32893228086E+01 -0.20089377659E+02  0.12586876162E+03  0.12750430538E+03  0.00000000000E+00 0.  1.
          1    1    1    2  502    0  0.32893228086E+01  0.20089377659E+02  0.95580334504E+02  0.97724117204E+02  0.00000000000E+00 0. -1.
</event>
<event>
 4    1  0.3664744E+003  0.3998978E+02  0.7546771E-02  0.1348546E+00
          2   -1    0    0  502    0  0.00000000000E+00  0.00000000000E+00  0.37881566184E+01  0.37881566184E+01  0.00000000000E+00 0.  1.
          1   -1    0    0  501    0 -0.00000000000E+00 -0.00000000000E+00 -0.46430504445E+03  0.46430504445E+03  0.00000000000E+00 0.  1.
          2    1    1    2  501    0 -0.37208196477E+02  0.14653752728E+02 -0.15973897340E+03  0.16466852151E+03  0.00000000000E+00 0.  1.
          1    1    1    2  502    0  0.37208196477E+02 -0.14653752728E+02 -0.30077791444E+03  0.30342467956E+03  0.00000000000E+00 0.  1.
</event>
<event>
 4    1  0.3664744E+003  0.2455061E+02  0.7546771E-02  0.1473894E+00
          2   -1    0    0  502    0  0.00000000000E+00  0.00000000000E+00  0.13797552507E+04  0.13797552507E+04  0.00000000000E+00 0. -1.
          1   -1    0    0  501    0 -0.00000000000E+00 -0.00000000000E+00 -0.57216003375E+00  0.57216003375E+00  0.00000000000E+00 0. -1.
          2    1    1    2  501    0  0.15871581062E+02  0.18730332761E+02  0.10252319314E+04  0.10255258386E+04  0.00000000000E+00 0. -1.
          1    1    1    2  502    0 -0.15871581062E+02 -0.18730332761E+02  0.35395115927E+03  0.35480157214E+03  0.00000000000E+00 0. -1.
</event>
<event>
 4    1  0.3664744E+003  0.2096892E+02  0.7546771E-02  0.1519709E+00
          2   -1    0    0  502    0  0.00000000000E+00  0.00000000000E+00  0.52696732208E+03  0.52696732208E+03  0.00000000000E+00 0. -1.
          1   -1    0    0  501    0 -0.00000000000E+00 -0.00000000000E+00 -0.80061841012E+01  0.80061841012E+01  0.00000000000E+00 0.  1.
          2    1    1    2  501    0 -0.20827423071E+02 -0.24318483334E+01  0.51264544206E+03  0.51307411229E+03  0.00000000000E+00 0. -1.
          1    1    1    2  502    0  0.20827423071E+02  0.24318483334E+01  0.63156959267E+01  0.21899393898E+02  0.00000000000E+00 0.  1.
</event>
<event>
 4    1  0.3664744E+003  0.2256168E+02  0.7546771E-02  0.1498077E+00
          2   -1    0    0  502    0  0.00000000000E+00  0.00000000000E+00  0.25270493031E+03  0.25270493031E+03  0.00000000000E+00 0. -1.
          1   -1    0    0  501    0 -0.00000000000E+00 -0.00000000000E+00 -0.71090613987E+03  0.71090613987E+03  0.00000000000E+00 0. -1.
          2    1    1    2  501    0  0.16846182696E+02 -0.15007841914E+02  0.25202185834E+03  0.25302973397E+03  0.00000000000E+00 0. -1.
          1    1    1    2  502    0 -0.16846182696E+02  0.15007841914E+02 -0.71022306791E+03  0.71058133621E+03  0.00000000000E+00 0. -1.
</event>
<event>
 4    1  0.3664744E+003  0.3158972E+02  0.7546771E-02  0.1406267E+00
          2   -1    0    0  502    0  0.00000000000E+00  0.00000000000E+00  0.51385453234E+03  0.51385453234E+03  0.00000000000E+00 0.  1.
          1   -1    0    0  501    0 -0.00000000000E+00 -0.00000000000E+00 -0.72463884646E+01  0.72463884646E+01  0.00000000000E+00 0. -1.
          2    1    1    2  501    0  0.29738942905E+02  0.10653911084E+02  0.47622369396E+03  0.47727027692E+03  0.00000000000E+00 0.  1.
          1    1    1    2  502    0 -0.29738942905E+02 -0.10653911084E+02  0.30384449923E+02  0.43830643887E+02  0.00000000000E+00 0. -1.
</event>
<event>
 4    1  0.3664744E+003  0.2495209E+02  0.7546771E-02  0.1469340E+00
          2   -1    0    0  502    0  0.00000000000E+00  0.00000000000E+00  0.18249267494E+02  0.18249267494E+02  0.00000000000E+00 0. -1.
          1   -1    0    0  501    0 -0.00000000000E+00 -0.00000000000E+00 -0.11865009845E+04  0.11865009845E+04  0.00000000000E+00 0. -1.
          2    1    1    2  501    0  0.12247956901E+02 -0.21739233429E+02  0.95257135929E+01  0.26708536796E+02  0.00000000000E+00 0. -1.
          1    1    1    2  502    0 -0.12247956901E+02  0.21739233429E+02 -0.11777774306E+04  0.11780417152E+04  0.00000000000E+00 0. -1.
</event>
<event>
 4    1  0.3664744E+003  0.3666132E+02  0.7546771E-02  0.1369245E+00
          2   -1    0    0  502    0  0.00000000000E+00  0.00000000000E+00  0.44516298582E+03  0.44516298582E+03  0.00000000000E+00 0. -1.
          1   -1    0    0  501    0 -0.00000000000E+00 -0.00000000000E+00 -0.17593548363E+04  0.17593548363E+04  0.00000000000E+00 0. -1.
          2    1    1    2  501    0  0.29084942340E+02  0.22318567290E+02  0.44421678405E+03  0.44572705050E+03  0.00000000000E+00 0. -1.
          1    1    1    2  502    0 -0.29084942340E+02 -0.22318567290E+02 -0.17584086345E+04  0.17587907716E+04  0.00000000000E+00 0. -1.
</event>
<event>
 4    1  0.3664744E+003  0.2140477E+02  0.7546771E-02  0.1513564E+00
          2   -1    0    0  502    0  0.00000000000E+00  0.00000000000E+00  0.20155794708E+02  0.20155794708E+02  0.00000000000E+00 0.  1.
          1   -1    0    0  501    0 -0.00000000000E+00 -0.00000000000E+00 -0.63202128067E+02  0.63202128067E+02  0.00000000000E+00 0.  1.
          2    1    1    2  501    0  0.19352969518E+02 -0.91447609753E+01  0.11828916867E+02  0.24455824597E+02  0.00000000000E+00 0.  1.
          1    1    1    2  502    0 -0.19352969518E+02  0.91447609753E+01 -0.54875250226E+02  0.58902098179E+02  0.00000000000E+00 0.  1.
</event>
<event>
 4    1  0.3664744E+003  0.3512117E+02  0.7546771E-02  0.1379713E+00
          2   -1    0    0  502    0  0.00000000000E+00  0.00000000000E+00  0.48818520112E+03  0.48818520112E+03  0.00000000000E+00 0. -1.
          1   -1    0    0  501    0 -0.00000000000E+00 -0.00000000000E+00 -0.48870145325E+03  0.48870145325E+03  0.00000000000E+00 0.  1.
          2    1    1    2  501    0 -0.59493035322E+01 -0.34613616644E+02  0.48692088298E+03  0.48818586927E+03  0.00000000000E+00 0. -1.
          1    1    1    2  502    0  0.59493035322E+01  0.34613616644E+02 -0.48743713511E+03  0.48870078510E+03  0.00000000000E+00 0.  1.
</event>
<event>
 4    1  0.3664744E+003  0.3121427E+02  0.7546771E-02  0.1409330E+00
          2   -1    0    0  502    0  0.00000000000E+00  0.00000000000E+00  0.11214711337E+02  0.11214711337E+02  0.00000000000E+00 0. -1.
          1   -1    0    0  501    0 -0.00000000000E+00 -0.00000000000E+00 -0.22444739362E+04  0.22444739362E+04  0.00000000000E+00 0.  1.
          2    1    1    2  501    0 -0.30836532889E+02 -0.48413572047E+01 -0.10829158646E+02  0.33039388269E+02  0.00000000000E+00 0. -1.
          1    1    1    2  502    0  0.30836532889E+02  0.48413572047E+01 -0.22224300662E+04  0.22226492593E+04  0.00000000000E+00 0.  1.
</event>
<event>
 4    1  0.3664744E+003  0.2263820E+02  0.7546771E-02  0.1497092E+00
          2   -1    0    0  502    0  0.00000000000E+00  0.00000000000E+00  0.10269638504E+02  0.10269638504E+02  0.00000000000E+00 0.  1.
          1   -1    0    0  501    0 -0.00000000000E+00 -0.00000000000E+00 -0.10270610635E+03  0.10270610635E+03  0.00000000000E+00 0.  1.
          2    1    1    2  501    0  0.20128647766E+02 -0.10359814218E+02 -0.57153596677E+01  0.23348523458E+02  0.00000000000E+00 0.  1.
          1    1    1    2  502    0 -0.20128647766E+02  0.10359814218E+02 -0.86721108181E+02  0.89627221399E+02  0.00000000000E+00 0.  1.
</event>
<event>
 4    1  0.3664744E+003  0.2327114E+02  0.7546771E-02  0.1489121E+00
          2   -1    0    0  502    0  0.00000000000E+00  0.00000000000E+00  0.99856354779E+03  0.99856354779E+03  0.00000000000E+00 0.  1.
          1   -1    0    0  501    0 -0.00000000000E+00 -0.00000000000E+00 -0.94677769601E+00  0.94677769601E+00  0.00000000000E+00 0. -1.
          2    1    1    2  501    0  0.20061060574E+02 -0.11794049817E+02  0.82544680217E+03  0.82577476891E+03  0.00000000000E+00 0.  1.
          1    1    1    2  502    0 -0.20061060574E+02  0.11794049817E+02  0.17216996793E+03  0.17373555658E+03  0.00000000000E+00 0. -1.
</event>
<event>
 4    1  0.3664744E+003  0.4185565E+02  0.7546771E-02  0.1337942E+00
          2   -1    0    0  502    0  0.00000000000E+00  0.00000000000E+00  0.48004949947E+01  0.48004949947E+01  0.00000000000E+00 0.  1.
          1   -1    0    0  501    0 -0.00000000000E+00 -0.00000000000E+00 -0.68423186917E+03  0.68423186917E+03  0.00000000000E+00 0.  1.
          2    1    1    2  501    0  0.41608468124E+02  0.45421161302E+01 -0.10437256517E+03  0.11245233567E+03  0.00000000000E+00 0.  1.
          1    1    1    2  502    0 -0.41608468124E+02 -0.45421161302E+01 -0.57505880901E+03  0.57658002850E+03  0.00000000000E+00 0.  1.
</event>
<event>
 4    1  0.3664744E+003  0.2967069E+02  0.7546771E-02  0.1422480E+00
          2   -1    0    0  502    0  0.00000000000E+00  0.00000000000E+00  0.12894028024E+04  0.12894028024E+04  0.00000000000E+00 0.  1.
          1   -1    0    0  501    0 -0.00000000000E+00 -0.00000000000E+00 -0.39812075382E+02  0.39812075382E+02  0.00000000000E+00 0. -1.
          2    1    1    2  501    0  0.16603520101E+02 -0.24590097912E+02  0.12836793100E+04  0.12840221651E+04  0.00000000000E+00 0.  1.
          1    1    1    2  502    0 -0.16603520101E+02  0.24590097912E+02 -0.34088582893E+02  0.45192712673E+02  0.00000000000E+00 0. -1.
</event>
<event>
 4    1  0.3664744E+003  0.5765388E+02  0.7546771E-02  0.1268019E+00
          2   -1    0    0  502    0  0.00000000000E+00  0.00000000000E+00  0.10866021815E+04  0.10866021815E+04  0.00000000000E+00 0.  1.
          1   -1    0    0  501    0 -0.00000000000E+00 -0.00000000000E+00 -0.63002086448E+03  0.63002086448E+03  0.00000000000E+00 0.  1.
          2    1    1    2  501    0  0.27143107732E+01 -0.57589952148E+02  0.10845158914E+04  0.10860472774E+04  0.00000000000E+00 0.  1.
          1    1    1    2  502    0 -0.27143107732E+01  0.57589952148E+02 -0.62793457443E+03  0.63057576851E+03  0.00000000000E+00 0.  1.
</event>
<event>
 4    1  0.3664744E+003  0.2094783E+02  0.7546771E-02  0.1520011E+00
          2   -1    0    0  502    0  0.00000000000E+00  0.00000000000E+00  0.42889317710E+02  0.42889317710E+02  0.00000000000E+00 0. -1.
          1   -1    0    0  501    0 -0.00000000000E+00 -0.00000000000E+00 -0.44904970128E+02  0.44904970128E+02  0.00000000000E+00 0.  1.
          2    1    1    2  501    0  0.14732654355E+01  0.20895955823E+02  0.37565692439E+02  0.43011541814E+02  0.00000000000E+00 0. -1.
          1    1    1    2  502    0 -0.14732654355E+01 -0.20895955823E+02 -0.39581344857E+02  0.44782746024E+02  0.00000000000E+00 0.  1.
</event>
<event>
 4    1  0.3664744E+003  0.2715216E+02  0.7546771E-02  0.1446086E+00
          2   -1    0    0  502    0  0.00000000000E+00  0.00000000000E+00  0.14502706223E+01  0.14502706223E+01  0.00000000000E+00 0.  1.
          1   -1    0    0  501    0 -0.00000000000E+00 -0.00000000000E+00 -0.52365616174E+03  0.52365616174E+03  0.00000000000E+00 0.  1.
          2    1    1    2  501    0  0.13211249861E+02  0.23721349195E+02 -0.21620964121E+03  0.21790788991E+03  0.00000000000E+00 0.  1.
          1    1    1    2  502    0 -0.13211249861E+02 -0.23721349195E+02 -0.30599624991E+03  0.30719854246E+03  0.00000000000E+00 0.  1.
</event>
<event>
 4    1  0.3664744E+003  0.2319096E+02  0.7546771E-02  0.1490114E+00
          2   -1    0    0  502    0  0.00000000000E+00  0.00000000000E+00  0.21399981432E+02  0.21399981432E+02  0.00000000000E+00 0.  1.
          1   -1    0    0  501    0 -0.00000000000E+00 -0.00000000000E+00 -0.24758226730E+03  0.24758226730E+03  0.00000000000E+00 0. -1.
          2    1    1    2  501    0  0.22157380214E+02  0.68462521215E+01  0.14391333024E+02  0.27293426540E+02  0.00000000000E+00 0.  1.
          1    1    1    2  502    0 -0.22157380214E+02 -0.68462521215E+01 -0.24057361889E+03  0.24168882219E+03  0.00000000000E+00 0. -1.
</event>
<event>
 4    1  0.3664744E+003  0.2032328E+02  0.7546771E-02  0.1529150E+00
          2   -1    0    0  502    0  0.00000000000E+00  0.00000000000E+00  0.31434383063E+03  0.31434383063E+03  0.00000000000E+00 0.  1.
          1   -1    0    0  501    0 -0.00000000000E+00 -0.00000000000E+00 -0.16423581402E+01  0.16423581402E+01  0.00000000000E+00 0.  1.
          2    1    1    2  501    0  0.19787347828E+02 -0.46364451101E+01  0.22699930775E+03  0.22790726508E+03  0.00000000000E+00 0.  1.
          1    1    1    2  502    0 -0.19787347828E+02  0.46364451101E+01  0.85702164737E+02  0.88078923688E+02  0.00000000000E+00 0.  1.
</event>
<event>
 4    1  0.3664744E+003  0.2216901E+02  0.7546771E-02  0.1503205E+00
          2   -1    0    0  502    0  0.00000000000E+00  0.00000000000E+00  0.11567829120E+03  0.11567829120E+03  0.00000000000E+00 0.  1.
          1   -1    0    0  501    0 -0.00000000000E+00 -0.00000000000E+00 -0.88809385511E+01  0.88809385511E+01  0.00000000000E+00 0.  1.
          2    1    1    2  501    0  0.10857865622E+02 -0.19328009805E+02  0.98378618473E+02  0.10084551443E+03  0.00000000000E+00 0.  1.
          1    1    1    2  502    0 -0.10857865622E+02  0.19328009805E+02  0.84187341722E+01  0.23713715313E+02  0.00000000000E+00 0.  1.
</event>
<event>
 4    1  0.3664744E+003  0.4688461E+02  0.7546771E-02  0.1312276E+00
          2   -1    0    0  502    0  0.00000000000E+00  0.00000000000E+00  0.83427949710E+02  0.83427949710E+02  0.00000000000E+00 0. -1.
          1   -1    0    0  501    0 -0.00000000000E+00 -0.00000000000E+00 -0.27412529611E+02  0.27412529611E+02  0.00000000000E+00 0.  1.
          2    1    1    2  501    0 -0.46256258160E+02 -0.76500625260E+01  0.17086774033E+02  0.49901129471E+02  0.00000000000E+00 0. -1.
          1    1    1    2  502    0  0.46256258160E+02  0.76500625260E+01  0.38928646065E+02  0.60939349850E+02  0.00000000000E+00 0.  1.
</event>
<event>
 4    1  0.3664744E+003  0.2302714E+02  0.7546771E-02  0.1492158E+00
          2   -1    0    0  502    0  0.00000000000E+00  0.00000000000E+00  0.69382185230E+01  0.69382185230E+01  0.00000000000E+00 0. -1.
          1   -1    0    0  501    0 -0.00000000000E+00 -0.00000000000E+00 -0.15193437475E+03  0.15193437475E+03  0.00000000000E+00 0.  1.
          2    1    1    2  501    0  0.90838235101E+01  0.21159706245E+02 -0.16497411039E+02  0.28326905742E+02  0.00000000000E+00 0. -1.
          1    1    1    2  502    0 -0.90838235101E+01 -0.21159706245E+02 -0.12849874519E+03  0.13054568753E+03  0.00000000000E+00 0.  1.
</event>
<event>
 4    1  0.3664744E+003  0.2547240E+02  0.7546771E-02  0.1463588E+00
          2   -1    0    0  502    0  0.00000000000E+00  0.00000000000E+00  0.30261983750E+03  0.30261983750E+03  0.00000000000E+00 0. -1.
          1   -1    0    0  501    0 -0.00000000000E+00 -0.00000000000E+00 -0.17219915689E+04  0.17219915689E+04  0.00000000000E+00 0. -1.
          2    1    1    2  501    0 -0.23444009009E+02  0.99609916350E+01  0.30198942025E+03  0.30306179709E+03  0.00000000000E+00 0. -1.
          1    1    1    2  502    0  0.23444009009E+02 -0.99609916350E+01 -0.17213611516E+04  0.17215496093E+04  0.00000000000E+00 0. -1.
</event>
<event>
 4    1  0.3664744E+003  0.3107254E+02  0.7546771E-02  0.1410499E+00
          2   -1    0    0  502    0  0.00000000000E+00  0.00000000000E+00  0.74253741622E+02  0.74253741622E+02  0.00000000000E+00 0. -1.
          1   -1    0    0  501    0 -0.00000000000E+00 -0.00000000000E+00 -0.11510560860E+03  0.11510560860E+03  0.00000000000E+00 0. -1.
          2    1    1    2  501    0  0.26204879285E+02 -0.16697524622E+02  0.68745851780E+02  0.75441998673E+02  0.00000000000E+00 0. -1.
          1    1    1    2  502    0 -0.26204879285E+02  0.16697524622E+02 -0.10959771876E+03  0.11391735155E+03  0.00000000000E+00 0. -1.
</event>
<event>
 4    1  0.3664744E+003  0.6791405E+02  0.7546771E-02  0.1235081E+00
          2   -1    0    0  502    0  0.00000000000E+00  0.00000000000E+00  0.60361701762E+03  0.60361701762E+03  0.00000000000E+00 0. -1.
          1   -1    0    0  501    0 -0.00000000000E+00 -0.00000000000E+00 -0.76627461666E+01  0.76627461666E+01  0.00000000000E+00 0. -1.
          2    1    1    2  501    0 -0.63959242832E+02 -0.22837008528E+02  0.28174233076E+03  0.28981210231E+03  0.00000000000E+00 0. -1.
          1    1    1    2  502    0  0.63959242832E+02  0.22837008528E+02  0.31421194069E+03  0.32146766147E+03  0.00000000000E+00 0. -1.
</event>
<event>
 4    1  0.3664744E+003  0.3659898E+02  0.7546771E-02  0.1369657E+00
          2   -1    0    0  502    0  0.00000000000E+00  0.00000000000E+00  0.50348767450E+01  0.50348767450E+01  0.00000000000E+00 0. -1.
          1   -1    0    0  501    0 -0.00000000000E+00 -0.00000000000E+00 -0.11650902660E+04  0.11650902660E+04  0.00000000000E+00 0. -1.
          2    1    1    2  501    0  0.34506235921E+02  0.12198563788E+02 -0.66085593427E+02  0.75543305028E+02  0.00000000000E+00 0. -1.
          1    1    1    2  502    0 -0.34506235921E+02 -0.12198563788E+02 -0.10939697958E+04  0.10945818377E+04  0.00000000000E+00 0. -1.
</event>
<event>
 4    1  0.3664744E+003  0.2680091E+02  0.7546771E-02  0.1449618E+00
          2   -1    0    0  502    0  0.00000000000E+00  0.00000000000E+00  0.17929241131E+03  0.17929241131E+03  0.00000000000E+00 0. -1.
          1   -1    0    0  501    0 -0.00000000000E+00 -0.00000000000E+00 -0.51210500363E+01  0.51210500363E+01  0.00000000000E+00 0. -1.
          2    1    1    2  501    0 -0.47551365660E+01  0.26375693756E+02  0.13010697019E+03  0.13283866996E+03  0.00000000000E+00 0. -1.
          1    1    1    2  502    0  0.47551365660E+01 -0.26375693756E+02  0.44064391082E+02  0.51574791384E+02  0.00000000000E+00 0. -1.
</event>
<event>
 4    1  0.3664744E+003  0.2850875E+02  0.7546771E-02  0.1433014E+00
          2   -1    0    0  502    0  0.00000000000E+00  0.00000000000E+00  0.17477121859E+03  0.17477121859E+03  0.00000000000E+00 0. -1.
          1   -1    0    0  501    0 -0.00000000000E+00 -0.00000000000E+00 -0.49008441022E+01  0.49008441022E+01  0.00000000000E+00 0. -1.
          2    1    1    2  501    0  0.12664801464E+02  0.25541172535E+02  0.10524505753E+03  0.10903793296E+03  0.00000000000E+00 0. -1.
          1    1    1    2  502    0 -0.12664801464E+02 -0.25541172535E+02  0.64625316964E+02  0.70634129734E+02  0.00000000000E+00 0. -1.
</event>
<event>
 4    1  0.3664744E+003  0.2571503E+02  0.7546771E-02  0.1460961E+00
          2   -1    0    0  502    0  0.00000000000E+00  0.00000000000E+00  0.11886168174E+04  0.11886168174E+04  0.00000000000E+00 0. -1.
          1   -1    0    0  501    0 -0.00000000000E+00 -0.00000000000E+00 -0.90217302991E+00  0.90217302991E+00  0.00000000000E+00 0. -1.
          2    1    1    2  501    0  0.23779587203E+02 -0.97874345469E+01  0.96210182234E+03  0.96244541621E+03  0.00000000000E+00 0. -1.
          1    1    1    2  502    0 -0.23779587203E+02  0.97874345469E+01  0.22561282203E+03  0.22707357422E+03  0.00000000000E+00 0. -1.
</event>
<event>
 4    1  0.3664744E+003  0.3087987E+02  0.7546771E-02  0.1412101E+00
          2   -1    0    0  502    0  0.00000000000E+00  0.00000000000E+00  0.35027225389E+02  0.35027225389E+02  0.00000000000E+00 0.  1.
          1   -1    0    0  501    0 -0.00000000000E+00 -0.00000000000E+00 -0.32621522449E+02  0.32621522449E+02  0.00000000000E+00 0.  1.
          2    1    1    2  501    0  0.21864593859E+02  0.21806100875E+02  0.14962005966E+02  0.34313672531E+02  0.00000000000E+00 0.  1.
          1    1    1    2  502    0 -0.21864593859E+02 -0.21806100875E+02 -0.12556303026E+02  0.33335075307E+02  0.00000000000E+00 0.  1.
</event>
<event>
 4    1  0.3664744E+003  0.2105563E+02  0.7546771E-02  0.1518472E+00
          2   -1    0    0  502    0  0.00000000000E+00  0.00000000000E+00  0.17271708626E+02  0.17271708626E+02  0.00000000000E+00 0. -1.
          1   -1    0    0  501    0 -0.00000000000E+00 -0.00000000000E+00 -0.50627393727E+02  0.50627393727E+02  0.00000000000E+00 0.  1.
          2    1    1    2  501    0  0.19653529222E+02 -0.75550136860E+01  0.71592685490E+01  0.22239482207E+02  0.00000000000E+00 0. -1.
          1    1    1    2  502    0 -0.19653529222E+02  0.75550136860E+01 -0.40514953650E+02  0.45659620147E+02  0.00000000000E+00 0.  1.
</event>
<event>
 4    1  0.3664744E+003  0.2784917E+02  0.7546771E-02  0.1439260E+00
          2   -1    0    0  502    0  0.00000000000E+00  0.00000000000E+00  0.15207736189E+04  0.15207736189E+04  0.00000000000E+00 0. -1.
          1   -1    0    0  501    0 -0.00000000000E+00 -0.00000000000E+00 -0.98522272320E+00  0.98522272320E+00  0.00000000000E+00 0. -1.
          2    1    1    2  501    0 -0.23996137228E+02  0.14133706942E+02  0.12883427564E+04  0.12886437189E+04  0.00000000000E+00 0. -1.
          1    1    1    2  502    0  0.23996137228E+02 -0.14133706942E+02  0.23144563976E+03  0.23311512271E+03  0.00000000000E+00 0. -1.
</event>
<event>
 4    1  0.3664744E+003  0.2347968E+02  0.7546771E-02  0.1486561E+00
          2   -1    0    0  502    0  0.00000000000E+00  0.00000000000E+00  0.39452987046E+01  0.39452987046E+01  0.00000000000E+00 0.  1.
          1   -1    0    0  501    0 -0.00000000000E+00 -0.00000000000E+00 -0.21369148433E+03  0.21369148433E+03  0.00000000000E+00 0. -1.
          2    1    1    2  501    0 -0.19269254724E+02 -0.13416079189E+02 -0.40855766071E+02  0.47122064680E+02  0.00000000000E+00 0.  1.
          1    1    1    2  502    0  0.19269254724E+02  0.13416079189E+02 -0.16889041956E+03  0.17051471836E+03  0.00000000000E+00 0. -1.
</event>
<event>
 4    1  0.3664744E+003  0.3108650E+02  0.7546771E-02  0.1410384E+00
          2   -1    0    0  502    0  0.00000000000E+00  0.00000000000E+00  0.18654299705E+02  0.18654299705E+02  0.00000000000E+00 0.  1.
          1   -1    0    0  501    0 -0.00000000000E+00 -0.00000000000E+00 -0.82168780574E+02  0.82168780574E+02  0.00000000000E+00 0.  1.
          2    1    1    2  501    0 -0.29693811408E+02 -0.92004331179E+01 -0.11121826871E+01  0.31106387701E+02  0.00000000000E+00 0.  1.
          1    1    1    2  502    0  0.29693811408E+02  0.92004331179E+01 -0.62402298182E+02  0.69716692577E+02  0.00000000000E+00 0.  1.
</event>
<event>
 4    1  0.3664744E+003  0.2373689E+02  0.7546771E-02  0.1483447E+00
          2   -1    0    0  502    0  0.00000000000E+00  0.00000000000E+00  0.45857364052E+01  0.45857364052E+01  0.00000000000E+00 0.  1.
          1   -1    0    0  501    0 -0.00000000000E+00 -0.00000000000E+00 -0.28317299103E+03  0.28317299103E+03  0.00000000000E+00 0.  1.
          2    1    1    2  501    0  0.23612064385E+02 -0.24310935897E+01 -0.31039054024E+02  0.39075090214E+02  0.00000000000E+00 0.  1.
          1    1    1    2  502    0 -0.23612064385E+02  0.24310935897E+01 -0.24754820060E+03  0.24868363722E+03  0.00000000000E+00 0.  1.
</event>
<event>
 4    1  0.3664744E+003  0.4744314E+02  0.7546771E-02  0.1309656E+00
          2   -1    0    0  502    0  0.00000000000E+00  0.00000000000E+00  0.17312371687E+03  0.17312371687E+03  0.00000000000E+00 0. -1.
          1   -1    0    0  501    0 -0.00000000000E+00 -0.00000000000E+00 -0.13246384395E+02  0.13246384395E+02  0.00000000000E+00 0. -1.
          2    1    1    2  501    0 -0.47042849628E+02  0.61499609643E+01  0.92611143294E+02  0.10405611747E+03  0.00000000000E+00 0. -1.
          1    1    1    2  502    0  0.47042849628E+02 -0.61499609643E+01  0.67266189183E+02  0.82313983795E+02  0.00000000000E+00 0. -1.
</event>
<event>
 4    1  0.3664744E+003  0.2599086E+02  0.7546771E-02  0.1458017E+00
          2   -1    0    0  502    0  0.00000000000E+00  0.00000000000E+00  0.20154211376E+02  0.20154211376E+02  0.00000000000E+00 0. -1.
          1   -1    0    0  501    0 -0.00000000000E+00 -0.00000000000E+00 -0.16622281654E+03  0.16622281654E+03  0.00000000000E+00 0. -1.
          2    1    1    2  501    0  0.21616397498E+02  0.14431079560E+02  0.10230364211E+02  0.27931792817E+02  0.00000000000E+00 0. -1.
          1    1    1    2  502    0 -0.21616397498E+02 -0.14431079560E+02 -0.15629896937E+03  0.15844523510E+03  0.00000000000E+00 0. -1.
</event>
<event>
 4    1  0.3664744E+003  0.2640684E+02  0.7546771E-02  0.1453659E+00
          2   -1    0    0  502    0  0.00000000000E+00  0.00000000000E+00  0.11992467445E+02  0.11992467445E+02  0.00000000000E+00 0. -1.
          1   -1    0    0  501    0 -0.00000000000E+00 -0.00000000000E+00 -0.18884092412E+03  0.18884092412E+03  0.00000000000E+00 0.  1.
          2    1    1    2  501    0  0.17004317678E+01  0.26352033363E+02 -0.48858111248E+01  0.26855023383E+02  0.00000000000E+00 0. -1.
          1    1    1    2  502    0 -0.17004317678E+01 -0.26352033363E+02 -0.17196264555E+03  0.17397836818E+03  0.00000000000E+00 0.  1.
</event>
<event>
 4    1  0.3664744E+003  0.3224533E+02  0.7546771E-02  0.1401038E+00
          2   -1    0    0  502    0  0.00000000000E+00  0.00000000000E+00  0.12296523490E+04  0.12296523490E+04  0.00000000000E+00 0. -1.
          1   -1    0    0  501    0 -0.00000000000E+00 -0.00000000000E+00 -0.38690760052E+02  0.38690760052E+02  0.00000000000E+00 0. -1.
          2    1    1    2  501    0 -0.29684655080E+02  0.12592955087E+02  0.12226842660E+04  0.12231093882E+04  0.00000000000E+00 0. -1.
          1    1    1    2  502    0  0.29684655080E+02 -0.12592955087E+02 -0.31722677016E+02  0.45233720852E+02  0.00000000000E+00 0. -1.
</event>
<event>
 4    1  0.3664744E+003  0.2378876E+02  0.7546771E-02  0.1482824E+00
          2   -1    0    0  502    0  0.00000000000E+00  0.00000000000E+00  0.25011035637E+02  0.25011035637E+02  0.00000000000E+00 0.  1.
          1   -1    0    0  501    0 -0.00000000000E+00 -0.00000000000E+00 -0.71369775712E+02  0.71369775712E+02  0.00000000000E+00 0. -1.
          2    1    1    2  501    0  0.23328577056E+02  0.46564380857E+01  0.16646206169E+02  0.29034481275E+02  0.00000000000E+00 0.  1.
          1    1    1    2  502    0 -0.23328577056E+02 -0.46564380857E+01 -0.63004946245E+02  0.67346330074E+02  0.00000000000E+00 0. -1.
</event>
<event>
 4    1  0.3664744E+003  0.2606349E+02  0.7546771E-02  0.1457249E+00
          2   -1    0    0  502    0  0.00000000000E+00  0.00000000000E+00  0.86276212275E+01  0.86276212275E+01  0.00000000000E+00 0. -1.
          1   -1    0    0  501    0 -0.00000000000E+00 -0.00000000000E+00 -0.11505688139E+03  0.11505688139E+03  0.00000000000E+00 0.  1.
          2    1    1    2  501    0 -0.52894222049E+01  0.25521120638E+02 -0.18468507347E+02  0.31943565072E+02  0.00000000000E+00 0. -1.
          1    1    1    2  502    0  0.52894222049E+01 -0.25521120638E+02 -0.87960752820E+02  0.91740937550E+02  0.00000000000E+00 0.  1.
</event>
<event>
 4    1  0.3664744E+003  0.7438132E+02  0.7546771E-02  0.1217529E+00
          2   -1    0    0  502    0  0.00000000000E+00  0.00000000000E+00  0.50119682093E+02  0.50119682093E+02  0.00000000000E+00 0. -1.
          1   -1    0    0  501    0 -0.00000000000E+00 -0.00000000000E+00 -0.88694428175E+03  0.88694428175E+03  0.00000000000E+00 0. -1.
          2    1    1    2  501    0 -0.73382547709E+02  0.12148369228E+02  0.19994932077E+02  0.77021935135E+02  0.00000000000E+00 0. -1.
          1    1    1    2  502    0  0.73382547709E+02 -0.12148369228E+02 -0.85681953174E+03  0.86004202871E+03  0.00000000000E+00 0. -1.
</event>
<event>
 4    1  0.3664744E+003  0.6983494E+02  0.7546771E-02  0.1229642E+00
          2   -1    0    0  502    0  0.00000000000E+00  0.00000000000E+00  0.12653406889E+02  0.12653406889E+02  0.00000000000E+00 0.  1.
          1   -1    0    0  501    0 -0.00000000000E+00 -0.00000000000E+00 -0.12687521307E+04  0.12687521307E+04  0.00000000000E+00 0. -1.
          2    1    1    2  501    0 -0.44713292255E+02 -0.53643639811E+02 -0.93448817686E+02  0.11666019082E+03  0.00000000000E+00 0.  1.
          1    1    1    2  502    0  0.44713292255E+02  0.53643639811E+02 -0.11626499061E+04  0.11647453468E+04  0.00000000000E+00 0. -1.
</event>
<event>
 4    1  0.3664744E+003  0.3474970E+02  0.7546771E-02  0.1382331E+00
          2   -1    0    0  502    0  0.00000000000E+00  0.00000000000E+00  0.14071101327E+03  0.14071101327E+03  0.00000000000E+00 0. -1.
          1   -1    0    0  501    0 -0.00000000000E+00 -0.00000000000E+00 -0.32588588991E+02  0.32588588991E+02  0.00000000000E+00 0. -1.
          2    1    1    2  501    0  0.32317555795E+02  0.12771725746E+02  0.12843204163E+03  0.13305010601E+03  0.00000000000E+00 0. -1.
          1    1    1    2  502    0 -0.32317555795E+02 -0.12771725746E+02 -0.20309617357E+02  0.40249496249E+02  0.00000000000E+00 0. -1.
</event>
<event>
 4    1  0.3664744E+003  0.3165695E+02  0.7546771E-02  0.1405724E+00
          2   -1    0    0  502    0  0.00000000000E+00  0.00000000000E+00  0.24565532273E+04  0.24565532273E+04  0.00000000000E+00 0. -1.
          1   -1    0    0  501    0 -0.00000000000E+00 -0.00000000000E+00 -0.48023089272E+00  0.48023089272E+00  0.00000000000E+00 0.  1.
          2    1    1    2  501    0  0.25900613799E+02  0.18202217442E+02  0.17046359772E+04  0.17049299039E+04  0.00000000000E+00 0. -1.
          1    1    1    2  502    0 -0.25900613799E+02 -0.18202217442E+02  0.75143701921E+03  0.75210355427E+03  0.00000000000E+00 0.  1.
</event>
<event>
 4    1  0.3664744E+003  0.2074618E+02  0.7546771E-02  0.1522920E+00
          2   -1    0    0  502    0  0.00000000000E+00  0.00000000000E+00  0.73769006034E+03  0.73769006034E+03  0.00000000000E+00 0.  1.
          1   -1    0    0  501    0 -0.00000000000E+00 -0.00000000000E+00 -0.64659090603E+00  0.64659090603E+00  0.00000000000E+00 0.  1.
          2    1    1    2  501    0  0.20587474095E+02 -0.25611696662E+01  0.25315716931E+03  0.25400581894E+03  0.00000000000E+00 0.  1.
          1    1    1    2  502    0 -0.20587474095E+02  0.25611696662E+01  0.48388630013E+03  0.48433083231E+03  0.00000000000E+00 0.  1.
</event>
<event>
 4    1  0.3664744E+003  0.2640999E+02  0.7546771E-02  0.1453627E+00
          2   -1    0    0  502    0  0.00000000000E+00  0.00000000000E+00  0.23431149616E+03  0.23431149616E+03  0.00000000000E+00 0.  1.
          1   -1    0    0  501    0 -0.00000000000E+00 -0.00000000000E+00 -0.12041629133E+03  0.12041629133E+03  0.00000000000E+00 0.  1.
          2    1    1    2  501    0 -0.11885151278E+02 -0.23584549563E+02  0.23210551289E+03  0.23360320398E+03  0.00000000000E+00 0.  1.
          1    1    1    2  502    0  0.11885151278E+02  0.23584549563E+02 -0.11821030806E+03  0.12112458351E+03  0.00000000000E+00 0.  1.
</event>
<event>
 4    1  0.3664744E+003  0.2127935E+02  0.7546771E-02  0.1515314E+00
          2   -1    0    0  502    0  0.00000000000E+00  0.00000000000E+00  0.10190667947E+04  0.10190667947E+04  0.00000000000E+00 0.  1.
          1   -1    0    0  501    0 -0.00000000000E+00 -0.00000000000E+00 -0.13068002355E+02  0.13068002355E+02  0.00000000000E+00 0.  1.
          2    1    1    2  501    0  0.17094928011E+02 -0.12671785717E+02  0.10102172490E+04  0.10104413397E+04  0.00000000000E+00 0.  1.
          1    1    1    2  502    0 -0.17094928011E+02  0.12671785717E+02 -0.42184566599E+01  0.21693457391E+02  0.00000000000E+00 0.  1.
</event>
<event>
 4    1  0.3664744E+003  0.3129836E+02  0.7546771E-02  0.1408639E+00
          2   -1    0    0  502    0  0.00000000000E+00  0.00000000000E+00  0.98069053869E+03  0.98069053869E+03  0.00000000000E+00 0. -1.
          1   -1    0    0  501    0 -0.00000000000E+00 -0.00000000000E+00 -0.36476476374E+01  0.36476476374E+01  0.00000000000E+00 0. -1.
          2    1    1    2  501    0 -0.26741393794E+02 -0.16262996884E+02  0.90792320045E+03  0.90846250617E+03  0.00000000000E+00 0. -1.
          1    1    1    2  502    0  0.26741393794E+02  0.16262996884E+02  0.69119690606E+02  0.75875680156E+02  0.00000000000E+00 0. -1.
</event>
<event>
 4    1  0.3664744E+003  0.4117558E+02  0.7546771E-02  0.1341731E+00
          2   -1    0    0  502    0  0.00000000000E+00  0.00000000000E+00  0.15426241201E+03  0.15426241201E+03  0.00000000000E+00 0. -1.
          1   -1    0    0  501    0 -0.00000000000E+00 -0.00000000000E+00 -0.12124609715E+03  0.12124609715E+03  0.00000000000E+00 0. -1.
          2    1    1    2  501    0 -0.36403427736E+02 -0.19241066701E+02  0.14787064641E+03  0.15349643732E+03  0.00000000000E+00 0. -1.
          1    1    1    2  502    0  0.36403427736E+02  0.19241066701E+02 -0.11485433155E+03  0.12201207184E+03  0.00000000000E+00 0. -1.
</event>
<event>
 4    1  0.3664744E+003  0.2325980E+02  0.7546771E-02  0.1489261E+00
          2   -1    0    0  502    0  0.00000000000E+00  0.00000000000E+00  0.34669348562E+03  0.34669348562E+03  0.00000000000E+00 0. -1.
          1   -1    0    0  501    0 -0.00000000000E+00 -0.00000000000E+00 -0.14432976108E+04  0.14432976108E+04  0.00000000000E+00 0.  1.
          2    1    1    2  501    0 -0.21301442369E+02 -0.93416651832E+01  0.34620951547E+03  0.34698998077E+03  0.00000000000E+00 0. -1.
          1    1    1    2  502    0  0.21301442369E+02  0.93416651832E+01 -0.14428136407E+04  0.14430011157E+04  0.00000000000E+00 0.  1.
</event>
<event>
 4    1  0.3664744E+003  0.3376617E+02  0.7546771E-02  0.1389451E+00
          2   -1    0    0  502    0  0.00000000000E+00  0.00000000000E+00  0.86928605500E+00  0.86928605500E+00  0.00000000000E+00 0.  1.
          1   -1    0    0  501    0 -0.00000000000E+00 -0.00000000000E+00 -0.13117287196E+04  0.13117287196E+04  0.00000000000E+00 0.  1.
          2    1    1    2  501    0  0.23722205063E+01 -0.33682738769E+02 -0.64889163698E+03  0.64976958290E+03  0.00000000000E+00 0.  1.
          1    1    1    2  502    0 -0.23722205063E+01  0.33682738769E+02 -0.66196779657E+03  0.66282842276E+03  0.00000000000E+00 0.  1.
</event>
<event>
 4    1  0.3664744E+003  0.2418058E+02  0.7546771E-02  0.1478183E+00
          2   -1    0    0  502    0  0.00000000000E+00  0.00000000000E+00  0.90526282428E+01  0.90526282428E+01  0.00000000000E+00 0. -1.
          1   -1    0    0  501    0 -0.00000000000E+00 -0.00000000000E+00 -0.11625646673E+03  0.11625646673E+03  0.00000000000E+00 0. -1.
          2    1    1    2  501    0  0.17378888340E+02 -0.16812930773E+02 -0.11833067987E+02  0.26920659337E+02  0.00000000000E+00 0. -1.
          1    1    1    2  502    0 -0.17378888340E+02  0.16812930773E+02 -0.95370770503E+02  0.98388435639E+02  0.00000000000E+00 0. -1.
</event>
<event>
 4    1  0.3664744E+003  0.3395099E+02  0.7546771E-02  0.1388092E+00
          2   -1    0    0  502    0  0.00000000000E+00  0.00000000000E+00  0.64812167504E+03  0.64812167504E+03  0.00000000000E+00 0. -1.
          1   -1    0    0  501    0 -0.00000000000E+00 -0.00000000000E+00 -0.46997604061E+01  0.46997604061E+01  0.00000000000E+00 0. -1.
          2    1    1    2  501    0  0.30756092555E+02  0.14378205416E+02  0.57905453635E+03  0.58004898594E+03  0.00000000000E+00 0. -1.
          1    1    1    2  502    0 -0.30756092555E+02 -0.14378205416E+02  0.64367378283E+02  0.72772449507E+02  0.00000000000E+00 0. -1.
</event>
<event>
 4    1  0.3664744E+003  0.2082697E+02  0.7546771E-02  0.1521750E+00
          2   -1    0    0  502    0  0.00000000000E+00  0.00000000000E+00  0.66752625842E+03  0.66752625842E+03  0.00000000000E+00 0. -1.
          1   -1    0    0  501    0 -0.00000000000E+00 -0.00000000000E+00 -0.15920967473E+03  0.15920967473E+03  0.00000000000E+00 0.  1.
          2    1    1    2  501    0  0.11424756690E+02  0.17413718752E+02  0.66668182580E+03  0.66700706108E+03  0.00000000000E+00 0. -1.
          1    1    1    2  502    0 -0.11424756690E+02 -0.17413718752E+02 -0.15836524211E+03  0.15972887208E+03  0.00000000000E+00 0.  1.
</event>
<event>
 4    1  0.3664744E+003  0.2136378E+02  0.7546771E-02  0.1514134E+00
          2   -1    0    0  502    0  0.00000000000E+00  0.00000000000E+00  0.96433212020E+02  0.96433212020E+02  0.00000000000E+00 0.  1.
          1   -1    0    0  501    0 -0.00000000000E+00 -0.00000000000E+00 -0.23220171776E+02  0.23220171776E+02  0.00000000000E+00 0.  1.
          2    1    1    2  501    0  0.18630712313E+02 -0.10455038118E+02  0.89988955356E+02  0.92490125686E+02  0.00000000000E+00 0.  1.
          1    1    1    2  502    0 -0.18630712313E+02  0.10455038118E+02 -0.16775915112E+02  0.27163258111E+02  0.00000000000E+00 0.  1.
</event>
<event>
 4    1  0.3664744E+003  0.2286533E+02  0.7546771E-02  0.1494196E+00
          2   -1    0    0  502    0  0.00000000000E+00  0.00000000000E+00  0.13319758490E+04  0.13319758490E+04  0.00000000000E+00 0. -1.
          1   -1    0    0  501    0 -0.00000000000E+00 -0.00000000000E+00 -0.12457395439E+01  0.12457395439E+01  0.00000000000E+00 0. -1.
          2    1    1    2  501    0  0.17969797659E+02  0.14138945754E+02  0.12170483445E+04  0.12172631171E+04  0.00000000000E+00 0. -1.
          1    1    1    2  502    0 -0.17969797659E+02 -0.14138945754E+02  0.11368176498E+03  0.11595847146E+03  0.00000000000E+00 0. -1.
</event>
<event>
 4    1  0.3664744E+003  0.2962709E+02  0.7546771E-02  0.1422865E+00
          2   -1    0    0  502    0  0.00000000000E+00  0.00000000000E+00  0.26564687710E+03  0.26564687710E+03  0.00000000000E+00 0.  1.
          1   -1    0    0  501    0 -0.00000000000E+00 -0.00000000000E+00 -0.47366393786E+01  0.47366393786E+01  0.00000000000E+00 0.  1.
          2    1    1    2  501    0  0.29165256919E+02  0.52106922351E+01  0.56111157558E+02  0.63452545475E+02  0.00000000000E+00 0.  1.
          1    1    1    2  502    0 -0.29165256919E+02 -0.52106922351E+01  0.20479908016E+03  0.20693097100E+03  0.00000000000E+00 0.  1.
</event>
<event>
 4    1  0.3664744E+003  0.3164863E+02  0.7546771E-02  0.1405791E+00
          2   -1    0    0  502    0  0.00000000000E+00  0.00000000000E+00  0.10467168926E+01  0.10467168926E+01  0.00000000000E+00 0. -1.
          1   -1    0    0  501    0 -0.00000000000E+00 -0.00000000000E+00 -0.95984141756E+03  0.95984141756E+03  0.00000000000E+00 0. -1.
          2    1    1    2  501    0  0.85391553416E+01  0.30474887004E+02 -0.45294185975E+03  0.45404621376E+03  0.00000000000E+00 0. -1.
          1    1    1    2  502    0 -0.85391553416E+01 -0.30474887004E+02 -0.50585284092E+03  0.50684192070E+03  0.00000000000E+00 0. -1.
</event>
<event>
 4    1  0.3664744E+003  0.2015063E+02  0.7546771E-02  0.1531745E+00
          2   -1    0    0  502    0  0.00000000000E+00  0.00000000000E+00  0.56565849733E+03  0.56565849733E+03  0.00000000000E+00 0.  1.
          1   -1    0    0  501    0 -0.00000000000E+00 -0.00000000000E+00 -0.13919803278E+01  0.13919803278E+01  0.00000000000E+00 0.  1.
          2    1    1    2  501    0  0.19744229351E+02  0.40265345324E+01  0.84821476277E+02  0.87182167963E+02  0.00000000000E+00 0.  1.
          1    1    1    2  502    0 -0.19744229351E+02 -0.40265345324E+01  0.47944504072E+03  0.47986830969E+03  0.00000000000E+00 0.  1.
</event>
<event>
 4    1  0.3664744E+003  0.2030563E+02  0.7546771E-02  0.1529414E+00
          2   -1    0    0  502    0  0.00000000000E+00  0.00000000000E+00  0.83062464205E+01  0.83062464205E+01  0.00000000000E+00 0.  1.
          1   -1    0    0  501    0 -0.00000000000E+00 -0.00000000000E+00 -0.21447255725E+03  0.21447255725E+03  0.00000000000E+00 0. -1.
          2    1    1    2  501    0 -0.76474718731E+01 -0.18810500639E+02 -0.54314055016E+01  0.21019489196E+02  0.00000000000E+00 0.  1.
          1    1    1    2  502    0  0.76474718731E+01  0.18810500639E+02 -0.20073490533E+03  0.20175931447E+03  0.00000000000E+00 0. -1.
</event>
<event>
 4    1  0.3664744E+003  0.2674399E+02  0.7546771E-02  0.1450197E+00
          2   -1    0    0  502    0  0.00000000000E+00  0.00000000000E+00  0.16877606703E+04  0.16877606703E+04  0.00000000000E+00 0.  1.
          1   -1    0    0  501    0 -0.00000000000E+00 -0.00000000000E+00 -0.15520766397E+02  0.15520766397E+02  0.00000000000E+00 0. -1.
          2    1    1    2  501    0 -0.10437383100E+02  0.24623206521E+02  0.16760535443E+04  0.16762669014E+04  0.00000000000E+00 0.  1.
          1    1    1    2  502    0  0.10437383100E+02 -0.24623206521E+02 -0.38136404060E+01  0.27014535319E+02  0.00000000000E+00 0. -1.
</event>
<event>
 4    1  0.3664744E+003  0.2884877E+02  0.7546771E-02  0.1429871E+00
          2   -1    0    0  502    0  0.00000000000E+00  0.00000000000E+00  0.64444465290E+01  0.64444465290E+01  0.00000000000E+00 0. -1.
          1   -1    0    0  501    0 -0.00000000000E+00 -0.00000000000E+00 -0.20316439813E+03  0.20316439813E+03  0.00000000000E+00 0. -1.
          2    1    1    2  501    0  0.16664205781E+01 -0.28800602864E+02 -0.35098979195E+02  0.45433358047E+02  0.00000000000E+00 0. -1.
          1    1    1    2  502    0 -0.16664205781E+01  0.28800602864E+02 -0.16162097241E+03  0.16417548661E+03  0.00000000000E+00 0. -1.
</event>
<event>
 4    1  0.3664744E+003  0.2364157E+02  0.7546771E-02  0.1484595E+00
          2   -1    0    0  502    0  0.00000000000E+00  0.00000000000E+00  0.99598413421E+03  0.99598413421E+03  0.00000000000E+00 0.  1.
          1   -1    0    0  501    0 -0.00000000000E+00 -0.00000000000E+00 -0.56491110923E+00  0.56491110923E+00  0.00000000000E+00 0.  1.
          2    1    1    2  501    0 -0.73808169226E+00 -0.23630029526E+02  0.45719689997E+03  0.45780774175E+03  0.00000000000E+00 0.  1.
          1    1    1    2  502    0  0.73808169226E+00  0.23630029526E+02  0.53822232313E+03  0.53874130357E+03  0.00000000000E+00 0.  1.
</event>
<event>
 4    1  0.3664744E+003  0.2588113E+02  0.7546771E-02  0.1459183E+00
          2   -1    0    0  502    0  0.00000000000E+00  0.00000000000E+00  0.71225128542E+02  0.71225128542E+02  0.00000000000E+00 0.  1.
          1   -1    0    0  501    0 -0.00000000000E+00 -0.00000000000E+00 -0.25898415768E+03  0.25898415768E+03  0.00000000000E+00 0. -1.
          2    1    1    2  501    0  0.20719152268E+02  0.15509653912E+02  0.68199702335E+02  0.72945404473E+02  0.00000000000E+00 0.  1.
          1    1    1    2  502    0 -0.20719152268E+02 -0.15509653912E+02 -0.25595873147E+03  0.25726388174E+03  0.00000000000E+00 0. -1.
</event>
<event>
 4    1  0.3664744E+003  0.2377030E+02  0.7546771E-02  0.1483046E+00
          2   -1    0    0  502    0  0.00000000000E+00  0.00000000000E+00  0.80357507849E+03  0.80357507849E+03  0.00000000000E+00 0. -1.
          1   -1    0    0  501    0 -0.00000000000E+00 -0.00000000000E+00 -0.17489433711E+03  0.17489433711E+03  0.00000000000E+00 0.  1.
          2    1    1    2  501    0  0.44918069747E+01  0.23342039674E+02  0.80259063331E+03  0.80294255823E+03  0.00000000000E+00 0. -1.
          1    1    1    2  502    0 -0.44918069747E+01 -0.23342039674E+02 -0.17390989192E+03  0.17552685736E+03  0.00000000000E+00 0.  1.
</event>
<event>
 4    1  0.3664744E+003  0.2374438E+02  0.7546771E-02  0.1483357E+00
          2   -1    0    0  502    0  0.00000000000E+00  0.00000000000E+00  0.17674956342E+03  0.17674956342E+03  0.00000000000E+00 0.  1.
          1   -1    0    0  501    0 -0.00000000000E+00 -0.00000000000E+00 -0.68005001670E+03  0.68005001670E+03  0.00000000000E+00 0. -1.
          2    1    1    2  501    0 -0.94513047744E+01  0.21782297427E+02  0.17574367008E+03  0.17734044439E+03  0.00000000000E+00 0.  1.
          1    1    1    2  502    0  0.94513047744E+01 -0.21782297427E+02 -0.67904412337E+03  0.67945913573E+03  0.00000000000E+00 0. -1.
</event>
<event>
 4    1  0.3664744E+003  0.1042948E+03  0.7546771E-02  0.1156567E+00
          2   -1    0    0  502    0  0.00000000000E+00  0.00000000000E+00  0.57557513006E+02  0.57557513006E+02  0.00000000000E+00 0.  1.
          1   -1    0    0  501    0 -0.00000000000E+00 -0.00000000000E+00 -0.23916994703E+03  0.23916994703E+03  0.00000000000E+00 0.  1.
          2    1    1    2  501    0 -0.94942593690E+02 -0.43165993343E+02 -0.22843730885E+02  0.10676720058E+03  0.00000000000E+00 0.  1.
          1    1    1    2  502    0  0.94942593690E+02  0.43165993343E+02 -0.15876870313E+03  0.18996025946E+03  0.00000000000E+00 0.  1.
</event>
<event>
 4    1  0.4834427E+003  0.2332472E+02  0.7546771E-02  0.1488460E+00
          2   -1    0    0  502    0  0.00000000000E+00  0.00000000000E+00  0.66360276599E+03  0.66360276599E+03  0.00000000000E+00 0.  1.
          1   -1    0    0  501    0 -0.00000000000E+00 -0.00000000000E+00 -0.12422446816E+04  0.12422446816E+04  0.00000000000E+00 0. -1.
          2    1    1    2  501    0  0.18962503407E+02 -0.13581833532E+02  0.66328826827E+03  0.66369825189E+03  0.00000000000E+00 0.  1.
          1    1    1    2  502    0 -0.18962503407E+02  0.13581833532E+02 -0.12419301839E+04  0.12421491957E+04  0.00000000000E+00 0. -1.
</event>
<event>
 4    1  0.3664744E+003  0.2338728E+02  0.7546771E-02  0.1487691E+00
          2   -1    0    0  502    0  0.00000000000E+00  0.00000000000E+00  0.20525882728E+01  0.20525882728E+01  0.00000000000E+00 0.  1.
          1   -1    0    0  501    0 -0.00000000000E+00 -0.00000000000E+00 -0.50123763387E+03  0.50123763387E+03  0.00000000000E+00 0.  1.
          2    1    1    2  501    0  0.23202151248E+02  0.29368659772E+01 -0.77373764929E+02  0.80831086246E+02  0.00000000000E+00 0.  1.
          1    1    1    2  502    0 -0.23202151248E+02 -0.29368659772E+01 -0.42181128067E+03  0.42245913590E+03  0.00000000000E+00 0.  1.
</event>
<event>
 4    1  0.3664744E+003  0.3168917E+02  0.7546771E-02  0.1405464E+00
          2   -1    0    0  502    0  0.00000000000E+00  0.00000000000E+00  0.13609498997E+04  0.13609498997E+04  0.00000000000E+00 0. -1.
          1   -1    0    0  501    0 -0.00000000000E+00 -0.00000000000E+00 -0.82680422382E+01  0.82680422382E+01  0.00000000000E+00 0.  1.
          2    1    1    2  501    0 -0.10666195817E+02 -0.29840173094E+02  0.13296876360E+04  0.13300651913E+04  0.00000000000E+00 0. -1.
          1    1    1    2  502    0  0.10666195817E+02  0.29840173094E+02  0.22994221407E+02  0.39152750626E+02  0.00000000000E+00 0.  1.
</event>
<event>
 4    1  0.3664744E+003  0.2735204E+02  0.7546771E-02  0.1444104E+00
          2   -1    0    0  502    0  0.00000000000E+00  0.00000000000E+00  0.42072113760E+03  0.42072113760E+03  0.00000000000E+00 0.  1.
          1   -1    0    0  501    0 -0.00000000000E+00 -0.00000000000E+00 -0.47032460064E+01  0.47032460064E+01  0.00000000000E+00 0. -1.
          2    1    1    2  501    0 -0.24807562703E+02 -0.11520370234E+02  0.37575739519E+03  0.37675158146E+03  0.00000000000E+00 0.  1.
          1    1    1    2  502    0  0.24807562703E+02  0.11520370234E+02  0.40260496410E+02  0.48672802146E+02  0.00000000000E+00 0. -1.
</event>
<event>
 4    1  0.3664744E+003  0.2422900E+02  0.7546771E-02  0.1477616E+00
          2   -1    0    0  502    0  0.00000000000E+00  0.00000000000E+00  0.55000306971E+01  0.55000306971E+01  0.00000000000E+00 0. -1.
          1   -1    0    0  501    0 -0.00000000000E+00 -0.00000000000E+00 -0.22576539557E+03  0.22576539557E+03  0.00000000000E+00 0. -1.
          2    1    1    2  501    0 -0.82594466162E+01 -0.22777754682E+02 -0.26170954543E+02  0.35664596289E+02  0.00000000000E+00 0. -1.
          1    1    1    2  502    0  0.82594466162E+01  0.22777754682E+02 -0.19409441033E+03  0.19560082998E+03  0.00000000000E+00 0. -1.
</event>
<event>
 4    1  0.3664744E+003  0.3033041E+02  0.7546771E-02  0.1416746E+00
          2   -1    0    0  502    0  0.00000000000E+00  0.00000000000E+00  0.10037379182E+04  0.10037379182E+04  0.00000000000E+00 0.  1.
          1   -1    0    0  501    0 -0.00000000000E+00 -0.00000000000E+00 -0.26996356012E+01  0.26996356012E+01  0.00000000000E+00 0. -1.
          2    1    1    2  501    0  0.15290637915E+02 -0.26194089682E+02  0.90949291827E+03  0.90999851776E+03  0.00000000000E+00 0.  1.
          1    1    1    2  502    0 -0.15290637915E+02  0.26194089682E+02  0.91545364292E+02  0.96439036004E+02  0.00000000000E+00 0. -1.
</event>
<event>
 4    1  0.3664744E+003  0.3469658E+02  0.7546771E-02  0.1382709E+00
          2   -1    0    0  502    0  0.00000000000E+00  0.00000000000E+00  0.33481110114E+04  0.33481110114E+04  0.00000000000E+00 0. -1.
          1   -1    0    0  501    0 -0.00000000000E+00 -0.00000000000E+00 -0.48772794767E+00  0.48772794767E+00  0.00000000000E+00 0.  1.
          2    1    1    2  501    0 -0.77164024988E+01 -0.33827651267E+02  0.25320954902E+04  0.25323331978E+04  0.00000000000E+00 0. -1.
          1    1    1    2  502    0  0.77164024988E+01  0.33827651267E+02  0.81552779325E+03  0.81626554162E+03  0.00000000000E+00 0.  1.
</event>
<event>
 4    1  0.3664744E+003  0.4453227E+02  0.7546771E-02  0.1323795E+00
          2   -1    0    0  502    0  0.00000000000E+00  0.00000000000E+00  0.99437082059E+03  0.99437082059E+03  0.00000000000E+00 0.  1.
          1   -1    0    0  501    0 -0.00000000000E+00 -0.00000000000E+00 -0.24178617354E+02  0.24178617354E+02  0.00000000000E+00 0. -1.
          2    1    1    2  501    0  0.30394904233E+02  0.32546468159E+02  0.97291535633E+03  0.97393398820E+03  0.00000000000E+00 0.  1.
          1    1    1    2  502    0 -0.30394904233E+02 -0.32546468159E+02 -0.27231530937E+01  0.44615449743E+02  0.00000000000E+00 0. -1.
</event>
<event>
 4    1  0.3664744E+003  0.3321048E+02  0.7546771E-02  0.1393600E+00
          2   -1    0    0  502    0  0.00000000000E+00  0.00000000000E+00  0.12848299780E+04  0.12848299780E+04  0.00000000000E+00 0.  1.
          1   -1    0    0  501    0 -0.00000000000E+00 -0.00000000000E+00 -0.87302128459E+01  0.87302128459E+01  0.00000000000E+00 0. -1.
          2    1    1    2  501    0 -0.28862391608E+02  0.16428576813E+02  0.12522088536E+04  0.12526491722E+04  0.00000000000E+00 0.  1.
          1    1    1    2  502    0  0.28862391608E+02 -0.16428576813E+02  0.23890911565E+02  0.40911018575E+02  0.00000000000E+00 0. -1.
</event>
<event>
 4    1  0.3664744E+003  0.2940644E+02  0.7546771E-02  0.1424826E+00
          2   -1    0    0  502    0  0.00000000000E+00  0.00000000000E+00  0.21216255664E+01  0.21216255664E+01  0.00000000000E+00 0.  1.
          1   -1    0    0  501    0 -0.00000000000E+00 -0.00000000000E+00 -0.60130123672E+03  0.60130123672E+03  0.00000000000E+00 0. -1.
          2    1    1    2  501    0  0.20004518191E+02 -0.21553605339E+02 -0.12833968059E+03  0.13166553180E+03  0.00000000000E+00 0.  1.
          1    1    1    2  502    0 -0.20004518191E+02  0.21553605339E+02 -0.47083993057E+03  0.47175733048E+03  0.00000000000E+00 0. -1.
</event>
<event>
 4    1  0.3664744E+003  0.3713885E+02  0.7546771E-02  0.1366120E+00
          2   -1    0    0  502    0  0.00000000000E+00  0.00000000000E+00  0.10724633416E+04  0.10724633416E+04  0.00000000000E+00 0.  1.
          1   -1    0    0  501    0 -0.00000000000E+00 -0.00000000000E+00 -0.33215399694E+01  0.33215399694E+01  0.00000000000E+00 0.  1.
          2    1    1    2  501    0  0.36092448919E+02  0.87538089194E+01  0.95564153517E+03  0.95636292159E+03  0.00000000000E+00 0.  1.
          1    1    1    2  502    0 -0.36092448919E+02 -0.87538089194E+01  0.11350026642E+03  0.11942195995E+03  0.00000000000E+00 0.  1.
</event>
<event>
 4    1  0.3664744E+003  0.2318700E+02  0.7546771E-02  0.1490163E+00
          2   -1    0    0  502    0  0.00000000000E+00  0.00000000000E+00  0.76519792753E+02  0.76519792753E+02  0.00000000000E+00 0. -1.
          1   -1    0    0  501    0 -0.00000000000E+00 -0.00000000000E+00 -0.43130082418E+03  0.43130082418E+03  0.00000000000E+00 0.  1.
          2    1    1    2  501    0 -0.10626992518E+02  0.20608344770E+02  0.74443135076E+02  0.77970617569E+02  0.00000000000E+00 0. -1.
          1    1    1    2  502    0  0.10626992518E+02 -0.20608344770E+02 -0.42922416650E+03  0.42984999936E+03  0.00000000000E+00 0.  1.
</event>
<event>
 4    1  0.3664744E+003  0.4793847E+02  0.7546771E-02  0.1307367E+00
          2   -1    0    0  502    0  0.00000000000E+00  0.00000000000E+00  0.13891653687E+04  0.13891653687E+04  0.00000000000E+00 0.  1.
          1   -1    0    0  501    0 -0.00000000000E+00 -0.00000000000E+00 -0.59550795602E+01  0.59550795602E+01  0.00000000000E+00 0. -1.
          2    1    1    2  501    0 -0.15882554707E+02  0.45230979007E+02  0.12844096412E+04  0.12853039421E+04  0.00000000000E+00 0.  1.
          1    1    1    2  502    0  0.15882554707E+02 -0.45230979007E+02  0.98800647940E+02  0.10981650622E+03  0.00000000000E+00 0. -1.
</event>
<event>
 4    1  0.3664744E+003  0.6630507E+02  0.7546771E-02  0.1239794E+00
          2   -1    0    0  502    0  0.00000000000E+00  0.00000000000E+00  0.10000190945E+04  0.10000190945E+04  0.00000000000E+00 0.  1.
          1   -1    0    0  501    0 -0.00000000000E+00 -0.00000000000E+00 -0.19308550259E+02  0.19308550259E+02  0.00000000000E+00 0.  1.
          2    1    1    2  501    0  0.65638431570E+02 -0.93786580778E+01  0.93825507505E+03  0.94059499721E+03  0.00000000000E+00 0.  1.
          1    1    1    2  502    0 -0.65638431570E+02  0.93786580778E+01  0.42455469208E+02  0.78732647561E+02  0.00000000000E+00 0.  1.
</event>
<event>
 4    1  0.3664744E+003  0.2970002E+02  0.7546771E-02  0.1422221E+00
          2   -1    0    0  502    0  0.00000000000E+00  0.00000000000E+00  0.83243224025E+02  0.83243224025E+02  0.00000000000E+00 0.  1.
          1   -1    0    0  501    0 -0.00000000000E+00 -0.00000000000E+00 -0.15392578517E+03  0.15392578517E+03  0.00000000000E+00 0.  1.
          2    1    1    2  501    0 -0.27113965702E+02  0.12121228717E+02  0.79088651568E+02  0.84481395162E+02  0.00000000000E+00 0.  1.
          1    1    1    2  502    0  0.27113965702E+02 -0.12121228717E+02 -0.14977121271E+03  0.15268761403E+03  0.00000000000E+00 0.  1.
</event>
<event>
 4    1  0.3664744E+003  0.2407924E+02  0.7546771E-02  0.1479373E+00
          2   -1    0    0  502    0  0.00000000000E+00  0.00000000000E+00  0.36635843817E+03  0.36635843817E+03  0.00000000000E+00 0.  1.
          1   -1    0    0  501    0 -0.00000000000E+00 -0.00000000000E+00 -0.72508576260E+02  0.72508576260E+02  0.00000000000E+00 0.  1.
          2    1    1    2  501    0  0.23936899441E+02 -0.26143324609E+01  0.36395046058E+03  0.36474614138E+03  0.00000000000E+00 0.  1.
          1    1    1    2  502    0 -0.23936899441E+02  0.26143324609E+01 -0.70100598670E+02  0.74120873059E+02  0.00000000000E+00 0.  1.
</event>
<event>
 4    1  0.3664744E+003  0.2405433E+02  0.7546771E-02  0.1479667E+00
          2   -1    0    0  502    0  0.00000000000E+00  0.00000000000E+00  0.10658198994E+04  0.10658198994E+04  0.00000000000E+00 0.  1.
          1   -1    0    0  501    0 -0.00000000000E+00 -0.00000000000E+00 -0.89116325762E+02  0.89116325762E+02  0.00000000000E+00 0.  1.
          2    1    1    2  501    0 -0.11999674839E+02 -0.20847509070E+02  0.10640583030E+04  0.10643301570E+04  0.00000000000E+00 0.  1.
          1    1    1    2  502    0  0.11999674839E+02  0.20847509070E+02 -0.87354729425E+02  0.90606068139E+02  0.00000000000E+00 0.  1.
</event>
<event>
 4    1  0.3664744E+003  0.3547282E+02  0.7546771E-02  0.1377269E+00
          2   -1    0    0  502    0  0.00000000000E+00  0.00000000000E+00  0.62102861627E+03  0.62102861627E+03  0.00000000000E+00 0.  1.
          1   -1    0    0  501    0 -0.00000000000E+00 -0.00000000000E+00 -0.37872911974E+02  0.37872911974E+02  0.00000000000E+00 0.  1.
          2    1    1    2  501    0 -0.10009259559E+02 -0.34031391570E+02  0.61209473046E+03  0.61312174969E+03  0.00000000000E+00 0.  1.
          1    1    1    2  502    0  0.10009259559E+02  0.34031391570E+02 -0.28939026163E+02  0.45779778553E+02  0.00000000000E+00 0.  1.
</event>
<event>
 4    1  0.3664744E+003  0.2732908E+02  0.7546771E-02  0.1444330E+00
          2   -1    0    0  502    0  0.00000000000E+00  0.00000000000E+00  0.56372588751E+01  0.56372588751E+01  0.00000000000E+00 0. -1.
          1   -1    0    0  501    0 -0.00000000000E+00 -0.00000000000E+00 -0.14470076524E+03  0.14470076524E+03  0.00000000000E+00 0. -1.
          2    1    1    2  501    0 -0.27249207286E+02 -0.20879622330E+01 -0.47695418548E+02  0.54970281375E+02  0.00000000000E+00 0. -1.
          1    1    1    2  502    0  0.27249207286E+02  0.20879622330E+01 -0.91368087820E+02  0.95367742743E+02  0.00000000000E+00 0. -1.
</event>
<event>
 4    1  0.3664744E+003  0.2096552E+02  0.7546771E-02  0.1519758E+00
          2   -1    0    0  502    0  0.00000000000E+00  0.00000000000E+00  0.23228958778E+02  0.23228958778E+02  0.00000000000E+00 0.  1.
          1   -1    0    0  501    0 -0.00000000000E+00 -0.00000000000E+00 -0.99297423434E+02  0.99297423434E+02  0.00000000000E+00 0.  1.
          2    1    1    2  501    0  0.17288211601E+02 -0.11860478790E+02  0.17083397495E+02  0.27044328194E+02  0.00000000000E+00 0.  1.
          1    1    1    2  502    0 -0.17288211601E+02  0.11860478790E+02 -0.93151862151E+02  0.95482054019E+02  0.00000000000E+00 0.  1.
</event>
<event>
 4    1  0.3664744E+003  0.2976650E+02  0.7546771E-02  0.1421637E+00
          2   -1    0    0  502    0  0.00000000000E+00  0.00000000000E+00  0.38595556983E+03  0.38595556983E+03  0.00000000000E+00 0.  1.
          1   -1    0    0  501    0 -0.00000000000E+00 -0.00000000000E+00 -0.38172380508E+01  0.38172380508E+01  0.00000000000E+00 0. -1.
          2    1    1    2  501    0  0.19752899173E+02  0.22268086263E+02  0.31410905440E+03  0.31551631139E+03  0.00000000000E+00 0.  1.
          1    1    1    2  502    0 -0.19752899173E+02 -0.22268086263E+02  0.68029277373E+02  0.74256496493E+02  0.00000000000E+00 0. -1.
</event>
<event>
 4    1  0.3664744E+003  0.2230533E+02  0.7546771E-02  0.1501410E+00
          2   -1    0    0  502    0  0.00000000000E+00  0.00000000000E+00  0.76418354386E+03  0.76418354386E+03  0.00000000000E+00 0. -1.
          1   -1    0    0  501    0 -0.00000000000E+00 -0.00000000000E+00 -0.65926700227E+00  0.65926700227E+00  0.00000000000E+00 0. -1.
          2    1    1    2  501    0 -0.14241937368E+02 -0.17166661482E+02  0.33908619503E+03  0.33981903229E+03  0.00000000000E+00 0. -1.
          1    1    1    2  502    0  0.14241937368E+02  0.17166661482E+02  0.42443808183E+03  0.42502377857E+03  0.00000000000E+00 0. -1.
</event>
<event>
 4    1  0.3664744E+003  0.2352773E+02  0.7546771E-02  0.1485976E+00
          2   -1    0    0  502    0  0.00000000000E+00  0.00000000000E+00  0.81498895246E+03  0.81498895246E+03  0.00000000000E+00 0. -1.
          1   -1    0    0  501    0 -0.00000000000E+00 -0.00000000000E+00 -0.78087226936E+00  0.78087226936E+00  0.00000000000E+00 0. -1.
          2    1    1    2  501    0  0.16855432789E+02 -0.16414885262E+02  0.55427201675E+03  0.55477114436E+03  0.00000000000E+00 0. -1.
          1    1    1    2  502    0 -0.16855432789E+02  0.16414885262E+02  0.25993606344E+03  0.26099868036E+03  0.00000000000E+00 0. -1.
</event>
<event>
 4    1  0.3664744E+003  0.2316676E+02  0.7546771E-02  0.1490415E+00
          2   -1    0    0  502    0  0.00000000000E+00  0.00000000000E+00  0.16328860188E+03  0.16328860188E+03  0.00000000000E+00 0. -1.
          1   -1    0    0  501    0 -0.00000000000E+00 -0.00000000000E+00 -0.18943337850E+02  0.18943337850E+02  0.00000000000E+00 0.  1.
          2    1    1    2  501    0 -0.22163292330E+02  0.67444225784E+01  0.15500764874E+03  0.15672928868E+03  0.00000000000E+00 0. -1.
          1    1    1    2  502    0  0.22163292330E+02 -0.67444225784E+01 -0.10662384710E+02  0.25502651049E+02  0.00000000000E+00 0.  1.
</event>
<event>
 4    1  0.3664744E+003  0.2277327E+02  0.7546771E-02  0.1495365E+00
          2   -1    0    0  502    0  0.00000000000E+00  0.00000000000E+00  0.11781865204E+01  0.11781865204E+01  0.00000000000E+00 0. -1.
          1   -1    0    0  501    0 -0.00000000000E+00 -0.00000000000E+00 -0.12451715451E+04  0.12451715451E+04  0.00000000000E+00 0.  1.
          2    1    1    2  501    0  0.69227962120E+01 -0.21695551116E+02 -0.12093731266E+03  0.12306281176E+03  0.00000000000E+00 0. -1.
          1    1    1    2  502    0 -0.69227962120E+01  0.21695551116E+02 -0.11230560459E+04  0.11232869199E+04  0.00000000000E+00 0.  1.
</event>
<event>
 4    1  0.3664744E+003  0.2255089E+02  0.7546771E-02  0.1498216E+00
          2   -1    0    0  502    0  0.00000000000E+00  0.00000000000E+00  0.27786300027E+03  0.27786300027E+03  0.00000000000E+00 0.  1.
          1   -1    0    0  501    0 -0.00000000000E+00 -0.00000000000E+00 -0.34443008664E+03  0.34443008664E+03  0.00000000000E+00 0. -1.
          2    1    1    2  501    0 -0.19571156220E+02  0.11203242208E+02  0.27703523202E+03  0.27795154716E+03  0.00000000000E+00 0.  1.
          1    1    1    2  502    0  0.19571156220E+02 -0.11203242208E+02 -0.34360231839E+03  0.34434153975E+03  0.00000000000E+00 0. -1.
</event>
<event>
 4    1  0.3664744E+003  0.2170145E+02  0.7546771E-02  0.1509481E+00
          2   -1    0    0  502    0  0.00000000000E+00  0.00000000000E+00  0.43265443831E+03  0.43265443831E+03  0.00000000000E+00 0.  1.
          1   -1    0    0  501    0 -0.00000000000E+00 -0.00000000000E+00 -0.25055076858E+02  0.25055076858E+02  0.00000000000E+00 0. -1.
          2    1    1    2  501    0  0.23176070313E+01 -0.21577337018E+02  0.42762793291E+03  0.42817823599E+03  0.00000000000E+00 0.  1.
          1    1    1    2  502    0 -0.23176070313E+01  0.21577337018E+02 -0.20028571456E+02  0.29531279175E+02  0.00000000000E+00 0. -1.
</event>
<event>
 4    1  0.3664744E+003  0.2349238E+02  0.7546771E-02  0.1486406E+00
          2   -1    0    0  502    0  0.00000000000E+00  0.00000000000E+00  0.22868451709E+02  0.22868451709E+02  0.00000000000E+00 0.  1.
          1   -1    0    0  501    0 -0.00000000000E+00 -0.00000000000E+00 -0.11153737294E+03  0.11153737294E+03  0.00000000000E+00 0.  1.
          2    1    1    2  501    0  0.21352735914E+02  0.97955432888E+01  0.15155494014E+02  0.27956770166E+02  0.00000000000E+00 0.  1.
          1    1    1    2  502    0 -0.21352735914E+02 -0.97955432888E+01 -0.10382441525E+03  0.10644905449E+03  0.00000000000E+00 0.  1.
</event>
<event>
 4    1  0.3664744E+003  0.2267844E+02  0.7546771E-02  0.1496576E+00
          2   -1    0    0  502    0  0.00000000000E+00  0.00000000000E+00  0.28960098382E+03  0.28960098382E+03  0.00000000000E+00 0. -1.
          1   -1    0    0  501    0 -0.00000000000E+00 -0.00000000000E+00 -0.12838709829E+03  0.12838709829E+03  0.00000000000E+00 0.  1.
          2    1    1    2  501    0  0.19351175095E+01  0.22595729741E+02  0.28815048095E+03  0.28904153915E+03  0.00000000000E+00 0. -1.
          1    1    1    2  502    0 -0.19351175095E+01 -0.22595729741E+02 -0.12693659543E+03  0.12894654296E+03  0.00000000000E+00 0.  1.
</event>
<event>
 4    1  0.3664744E+003  0.2192427E+02  0.7546771E-02  0.1506467E+00
          2   -1    0    0  502    0  0.00000000000E+00  0.00000000000E+00  0.44102194350E+01  0.44102194350E+01  0.00000000000E+00 0. -1.
          1   -1    0    0  501    0 -0.00000000000E+00 -0.00000000000E+00 -0.16932423516E+03  0.16932423516E+03  0.00000000000E+00 0.  1.
          2    1    1    2  501    0 -0.96600344436E+01 -0.19681392129E+02 -0.30603835781E+02  0.37646623037E+02  0.00000000000E+00 0. -1.
          1    1    1    2  502    0  0.96600344436E+01  0.19681392129E+02 -0.13431017994E+03  0.13608783156E+03  0.00000000000E+00 0.  1.
</event>
<event>
 4    1  0.3664744E+003  0.2489004E+02  0.7546771E-02  0.1470037E+00
          2   -1    0    0  502    0  0.00000000000E+00  0.00000000000E+00  0.58817683985E+01  0.58817683985E+01  0.00000000000E+00 0.  1.
          1   -1    0    0  501    0 -0.00000000000E+00 -0.00000000000E+00 -0.12790189936E+04  0.12790189936E+04  0.00000000000E+00 0. -1.
          2    1    1    2  501    0  0.24378641694E+02 -0.50195406368E+01 -0.21139537930E+02  0.32655688983E+02  0.00000000000E+00 0.  1.
          1    1    1    2  502    0 -0.24378641694E+02  0.50195406368E+01 -0.12519976872E+04  0.12522450730E+04  0.00000000000E+00 0. -1.
</event>
<event>
 4    1  0.3664744E+003  0.1136138E+03  0.7546771E-02  0.1142105E+00
          2   -1    0    0  502    0  0.00000000000E+00  0.00000000000E+00  0.30408610299E+03  0.30408610299E+03  0.00000000000E+00 0. -1.
          1   -1    0    0  501    0 -0.00000000000E+00 -0.00000000000E+00 -0.87891518496E+02  0.87891518496E+02  0.00000000000E+00 0. -1.
          2    1    1    2  501    0  0.70079545312E+01 -0.11339742560E+03  0.24902292282E+03  0.27371610045E+03  0.00000000000E+00 0. -1.
          1    1    1    2  502    0 -0.70079545312E+01  0.11339742560E+03 -0.32828338325E+02  0.11826152103E+03  0.00000000000E+00 0. -1.
</event>
<event>
 4    1  0.3664744E+003  0.2121353E+02  0.7546771E-02  0.1516238E+00
          2   -1    0    0  502    0  0.00000000000E+00  0.00000000000E+00  0.66284803453E+03  0.66284803453E+03  0.00000000000E+00 0.  1.
          1   -1    0    0  501    0 -0.00000000000E+00 -0.00000000000E+00 -0.20103511937E+01  0.20103511937E+01  0.00000000000E+00 0. -1.
          2    1    1    2  501    0 -0.18267942530E+02  0.10784071498E+02  0.60095432937E+03  0.60132862888E+03  0.00000000000E+00 0.  1.
          1    1    1    2  502    0  0.18267942530E+02 -0.10784071498E+02  0.59883353971E+02  0.63529756848E+02  0.00000000000E+00 0. -1.
</event>
<event>
 4    1  0.3664744E+003  0.2133528E+02  0.7546771E-02  0.1514531E+00
          2   -1    0    0  502    0  0.00000000000E+00  0.00000000000E+00  0.36143316528E+02  0.36143316528E+02  0.00000000000E+00 0.  1.
          1   -1    0    0  501    0 -0.00000000000E+00 -0.00000000000E+00 -0.12935086538E+02  0.12935086538E+02  0.00000000000E+00 0.  1.
          2    1    1    2  501    0 -0.21229466620E+02 -0.21221797863E+01  0.76201046458E+01  0.22655239898E+02  0.00000000000E+00 0.  1.
          1    1    1    2  502    0  0.21229466620E+02  0.21221797863E+01  0.15588125345E+02  0.26423163168E+02  0.00000000000E+00 0.  1.
</event>
<event>
 4    1  0.3664744E+003  0.2098104E+02  0.7546771E-02  0.1519536E+00
          2   -1    0    0  502    0  0.00000000000E+00  0.00000000000E+00  0.28628489987E+01  0.28628489987E+01  0.00000000000E+00 0. -1.
          1   -1    0    0  501    0 -0.00000000000E+00 -0.00000000000E+00 -0.59292009898E+03  0.59292009898E+03  0.00000000000E+00 0. -1.
          2    1    1    2  501    0  0.15266591699E+02  0.14392198082E+02 -0.38657410415E+02  0.43984083118E+02  0.00000000000E+00 0. -1.
          1    1    1    2  502    0 -0.15266591699E+02 -0.14392198082E+02 -0.55139983956E+03  0.55179886486E+03  0.00000000000E+00 0. -1.
</event>
<event>
 4    1  0.3664744E+003  0.2398438E+02  0.7546771E-02  0.1480494E+00
          2   -1    0    0  502    0  0.00000000000E+00  0.00000000000E+00  0.30101538674E+03  0.30101538674E+03  0.00000000000E+00 0. -1.
          1   -1    0    0  501    0 -0.00000000000E+00 -0.00000000000E+00 -0.57059371444E+02  0.57059371444E+02  0.00000000000E+00 0.  1.
          2    1    1    2  501    0 -0.20919663657E+02  0.11731069412E+02  0.29799169307E+03  0.29895534692E+03  0.00000000000E+00 0. -1.
          1    1    1    2  502    0  0.20919663657E+02 -0.11731069412E+02 -0.54035677765E+02  0.59119411267E+02  0.00000000000E+00 0.  1.
</event>
<event>
 4    1  0.3664744E+003  0.2898732E+02  0.7546771E-02  0.1428605E+00
          2   -1    0    0  502    0  0.00000000000E+00  0.00000000000E+00  0.14943509068E+04  0.14943509068E+04  0.00000000000E+00 0. -1.
          1   -1    0    0  501    0 -0.00000000000E+00 -0.00000000000E+00 -0.42004462134E+01  0.42004462134E+01  0.00000000000E+00 0.  1.
          2    1    1    2  501    0  0.15192340817E+02  0.24687189191E+02  0.14423988146E+04  0.14426900585E+04  0.00000000000E+00 0. -1.
          1    1    1    2  502    0 -0.15192340817E+02 -0.24687189191E+02  0.47751645933E+02  0.55861294462E+02  0.00000000000E+00 0.  1.
</event>
<event>
 4    1  0.3664744E+003  0.2473852E+02  0.7546771E-02  0.1471750E+00
          2   -1    0    0  502    0  0.00000000000E+00  0.00000000000E+00  0.11382833822E+02  0.11382833822E+02  0.00000000000E+00 0. -1.
          1   -1    0    0  501    0 -0.00000000000E+00 -0.00000000000E+00 -0.71610232718E+02  0.71610232718E+02  0.00000000000E+00 0. -1.
          2    1    1    2  501    0  0.13358497673E+02  0.20821744413E+02 -0.93984967528E+01  0.26463677781E+02  0.00000000000E+00 0. -1.
          1    1    1    2  502    0 -0.13358497673E+02 -0.20821744413E+02 -0.50828902143E+02  0.56529388760E+02  0.00000000000E+00 0. -1.
</event>
<event>
 4    1  0.3664744E+003  0.2410778E+02  0.7546771E-02  0.1479037E+00
          2   -1    0    0  502    0  0.00000000000E+00  0.00000000000E+00  0.47845010139E+02  0.47845010139E+02  0.00000000000E+00 0.  1.
          1   -1    0    0  501    0 -0.00000000000E+00 -0.00000000000E+00 -0.12307797412E+02  0.12307797412E+02  0.00000000000E+00 0.  1.
          2    1    1    2  501    0  0.16167762758E+02  0.17882626466E+02  0.21203783956E+02  0.32105845822E+02  0.00000000000E+00 0.  1.
          1    1    1    2  502    0 -0.16167762758E+02 -0.17882626466E+02  0.14333428771E+02  0.28046961729E+02  0.00000000000E+00 0.  1.
</event>
<event>
 4    1  0.3664744E+003  0.2113063E+02  0.7546771E-02  0.1517408E+00
          2   -1    0    0  502    0  0.00000000000E+00  0.00000000000E+00  0.25278373580E+02  0.25278373580E+02  0.00000000000E+00 0.  1.
          1   -1    0    0  501    0 -0.00000000000E+00 -0.00000000000E+00 -0.77113500251E+03  0.77113500251E+03  0.00000000000E+00 0. -1.
          2    1    1    2  501    0 -0.13805805215E+02 -0.15996970324E+02  0.20691335965E+02  0.29574223594E+02  0.00000000000E+00 0.  1.
          1    1    1    2  502    0  0.13805805215E+02  0.15996970324E+02 -0.76654796489E+03  0.76683915250E+03  0.00000000000E+00 0. -1.
</event>
<event>
 4    1  0.3664744E+003  0.2063610E+02  0.7546771E-02  0.1524524E+00
          2   -1    0    0  502    0  0.00000000000E+00  0.00000000000E+00  0.13778930518E+04  0.13778930518E+04  0.00000000000E+00 0. -1.
          1   -1    0    0  501    0 -0.00000000000E+00 -0.00000000000E+00 -0.11719232232E+01  0.11719232232E+01  0.00000000000E+00 0. -1.
          2    1    1    2  501    0 -0.12167803718E+02 -0.16667133190E+02  0.12800266180E+04  0.12801929509E+04  0.00000000000E+00 0. -1.
          1    1    1    2  502    0  0.12167803718E+02  0.16667133190E+02  0.96694510561E+02  0.98872024096E+02  0.00000000000E+00 0. -1.
</event>
<event>
 4    1  0.3664744E+003  0.2011252E+02  0.7546771E-02  0.1532323E+00
          2   -1    0    0  502    0  0.00000000000E+00  0.00000000000E+00  0.29426605094E+03  0.29426605094E+03  0.00000000000E+00 0. -1.
          1   -1    0    0  501    0 -0.00000000000E+00 -0.00000000000E+00 -0.25031892523E+01  0.25031892523E+01  0.00000000000E+00 0.  1.
          2    1    1    2  501    0  0.96476233220E+01  0.17647578062E+02  0.24551365938E+03  0.24633609275E+03  0.00000000000E+00 0. -1.
          1    1    1    2  502    0 -0.96476233220E+01 -0.17647578062E+02  0.46249202305E+02  0.50433147444E+02  0.00000000000E+00 0.  1.
</event>
<event>
 4    1  0.3664744E+003  0.2256370E+02  0.7546771E-02  0.1498051E+00
          2   -1    0    0  502    0  0.00000000000E+00  0.00000000000E+00  0.69826559730E+02  0.69826559730E+02  0.00000000000E+00 0.  1.
          1   -1    0    0  501    0 -0.00000000000E+00 -0.00000000000E+00 -0.57744492679E+03  0.57744492679E+03  0.00000000000E+00 0. -1.
          2    1    1    2  501    0  0.57016228686E+01  0.21831449058E+02  0.67776844810E+02  0.71434035051E+02  0.00000000000E+00 0.  1.
          1    1    1    2  502    0 -0.57016228686E+01 -0.21831449058E+02 -0.57539521187E+03  0.57583745147E+03  0.00000000000E+00 0. -1.
</event>
<event>
 4    1  0.3664744E+003  0.2181163E+02  0.7546771E-02  0.1507985E+00
          2   -1    0    0  502    0  0.00000000000E+00  0.00000000000E+00  0.15947071208E+03  0.15947071208E+03  0.00000000000E+00 0.  1.
          1   -1    0    0  501    0 -0.00000000000E+00 -0.00000000000E+00 -0.87288424441E+01  0.87288424441E+01  0.00000000000E+00 0.  1.
          2    1    1    2  501    0  0.20426246800E+02  0.76495586186E+01  0.14360204422E+03  0.14524907714E+03  0.00000000000E+00 0.  1.
          1    1    1    2  502    0 -0.20426246800E+02 -0.76495586186E+01  0.71398254199E+01  0.22950477390E+02  0.00000000000E+00 0.  1.
</event>
<event>
 4    1  0.3664744E+003  0.2449431E+02  0.7546771E-02  0.1474541E+00
          2   -1    0    0  502    0  0.00000000000E+00  0.00000000000E+00  0.35007899574E+03  0.35007899574E+03  0.00000000000E+00 0.  1.
          1   -1    0    0  501    0 -0.00000000000E+00 -0.00000000000E+00 -0.33920323086E+01  0.33920323086E+01  0.00000000000E+00 0.  1.
          2    1    1    2  501    0 -0.15458325112E+02  0.19000305055E+02  0.29765679719E+03  0.29866292090E+03  0.00000000000E+00 0.  1.
          1    1    1    2  502    0  0.15458325112E+02 -0.19000305055E+02  0.49030166240E+02  0.54808107147E+02  0.00000000000E+00 0.  1.
</event>
<event>
 4    1  0.3664744E+003  0.4024681E+02  0.7546771E-02  0.1347046E+00
          2   -1    0    0  502    0  0.00000000000E+00  0.00000000000E+00  0.17365393242E+04  0.17365393242E+04  0.00000000000E+00 0. -1.
          1   -1    0    0  501    0 -0.00000000000E+00 -0.00000000000E+00 -0.42282816814E+01  0.42282816814E+01  0.00000000000E+00 0. -1.
          2    1    1    2  501    0 -0.38044413487E+02 -0.13131194786E+02  0.16345597487E+04  0.16350551605E+04  0.00000000000E+00 0. -1.
          1    1    1    2  502    0  0.38044413487E+02  0.13131194786E+02  0.97751293827E+02  0.10571244543E+03  0.00000000000E+00 0. -1.
</event>
<event>
 4    1  0.3664744E+003  0.3958793E+02  0.7546771E-02  0.1350918E+00
          2   -1    0    0  502    0  0.00000000000E+00  0.00000000000E+00  0.22036165628E+04  0.22036165628E+04  0.00000000000E+00 0.  1.
          1   -1    0    0  501    0 -0.00000000000E+00 -0.00000000000E+00 -0.71968956586E+00  0.71968956586E+00  0.00000000000E+00 0.  1.
          2    1    1    2  501    0 -0.12982062020E+02 -0.37398778041E+02  0.98171126501E+03  0.98250914010E+03  0.00000000000E+00 0.  1.
          1    1    1    2  502    0  0.12982062020E+02  0.37398778041E+02  0.12211856082E+04  0.12218271123E+04  0.00000000000E+00 0.  1.
</event>
<event>
 4    1  0.3664744E+003  0.4767773E+02  0.7546771E-02  0.1308568E+00
          2   -1    0    0  502    0  0.00000000000E+00  0.00000000000E+00  0.51838855001E+03  0.51838855001E+03  0.00000000000E+00 0.  1.
          1   -1    0    0  501    0 -0.00000000000E+00 -0.00000000000E+00 -0.85700138815E+01  0.85700138815E+01  0.00000000000E+00 0.  1.
          2    1    1    2  501    0 -0.24987229373E+02  0.40605472984E+02  0.43902925241E+03  0.44161051905E+03  0.00000000000E+00 0.  1.
          1    1    1    2  502    0  0.24987229373E+02 -0.40605472984E+02  0.70789283716E+02  0.85348044835E+02  0.00000000000E+00 0.  1.
</event>
<event>
 4    1  0.3664744E+003  0.2254866E+02  0.7546771E-02  0.1498245E+00
          2   -1    0    0  502    0  0.00000000000E+00  0.00000000000E+00  0.10560031403E+04  0.10560031403E+04  0.00000000000E+00 0. -1.
          1   -1    0    0  501    0 -0.00000000000E+00 -0.00000000000E+00 -0.66877767853E+01  0.66877767853E+01  0.00000000000E+00 0.  1.
          2    1    1    2  501    0  0.22435454457E+02  0.22566662289E+01  0.10365191430E+04  0.10367643782E+04  0.00000000000E+00 0. -1.
          1    1    1    2  502    0 -0.22435454457E+02 -0.22566662289E+01  0.12796220574E+02  0.25926538916E+02  0.00000000000E+00 0.  1.
</event>
<event>
 4    1  0.3664744E+003  0.2508438E+02  0.7546771E-02  0.1467862E+00
          2   -1    0    0  502    0  0.00000000000E+00  0.00000000000E+00  0.63410547232E+01  0.63410547232E+01  0.00000000000E+00 0.  1.
          1   -1    0    0  501    0 -0.00000000000E+00 -0.00000000000E+00 -0.29013617413E+03  0.29013617413E+03  0.00000000000E+00 0.  1.
          2    1    1    2  501    0 -0.24626548624E+02  0.47706388122E+01 -0.21651777904E+02  0.33136465988E+02  0.00000000000E+00 0.  1.
          1    1    1    2  502    0  0.24626548624E+02 -0.47706388122E+01 -0.26214334150E+03  0.26334076286E+03  0.00000000000E+00 0.  1.
</event>
<event>
 4    1  0.3664744E+003  0.5828484E+02  0.7546771E-02  0.1265774E+00
          2   -1    0    0  502    0  0.00000000000E+00  0.00000000000E+00  0.56356160836E+03  0.56356160836E+03  0.00000000000E+00 0. -1.
          1   -1    0    0  501    0 -0.00000000000E+00 -0.00000000000E+00 -0.74739424524E+01  0.74739424524E+01  0.00000000000E+00 0.  1.
          2    1    1    2  501    0 -0.37982438161E-01  0.58284824317E+02  0.40362977431E+03  0.40781627837E+03  0.00000000000E+00 0. -1.
          1    1    1    2  502    0  0.37982438161E-01 -0.58284824317E+02  0.15245789159E+03  0.16321927244E+03  0.00000000000E+00 0.  1.
</event>
<event>
 4    1  0.3664744E+003  0.2074761E+02  0.7546771E-02  0.1522899E+00
          2   -1    0    0  502    0  0.00000000000E+00  0.00000000000E+00  0.81024895400E+03  0.81024895400E+03  0.00000000000E+00 0.  1.
          1   -1    0    0  501    0 -0.00000000000E+00 -0.00000000000E+00 -0.84184398456E+02  0.84184398456E+02  0.00000000000E+00 0.  1.
          2    1    1    2  501    0 -0.12371479693E+02 -0.16655621817E+02  0.80883556796E+03  0.80910162479E+03  0.00000000000E+00 0.  1.
          1    1    1    2  502    0  0.12371479693E+02  0.16655621817E+02 -0.82771012421E+02  0.85331727658E+02  0.00000000000E+00 0.  1.
</event>
<event>
 4    1  0.3664744E+003  0.2487667E+02  0.7546771E-02  0.1470188E+00
          2   -1    0    0  502    0  0.00000000000E+00  0.00000000000E+00  0.77063633211E+03  0.77063633211E+03  0.00000000000E+00 0.  1.
          1   -1    0    0  501    0 -0.00000000000E+00 -0.00000000000E+00 -0.73125227205E+01  0.73125227205E+01  0.00000000000E+00 0. -1.
          2    1    1    2  501    0  0.23907969796E+02 -0.68744123665E+01  0.74865746903E+03  0.74907066055E+03  0.00000000000E+00 0.  1.
          1    1    1    2  502    0 -0.23907969796E+02  0.68744123665E+01  0.14666340357E+02  0.28878194276E+02  0.00000000000E+00 0. -1.
</event>
<event>
 4    1  0.3664744E+003  0.2362575E+02  0.7546771E-02  0.1484787E+00
          2   -1    0    0  502    0  0.00000000000E+00  0.00000000000E+00  0.66350728110E+01  0.66350728110E+01  0.00000000000E+00 0. -1.
          1   -1    0    0  501    0 -0.00000000000E+00 -0.00000000000E+00 -0.27186217040E+03  0.27186217040E+03  0.00000000000E+00 0. -1.
          2    1    1    2  501    0  0.18840310545E+01 -0.23550511745E+02 -0.16898050186E+02  0.29046863455E+02  0.00000000000E+00 0. -1.
          1    1    1    2  502    0 -0.18840310545E+01  0.23550511745E+02 -0.24832904740E+03  0.24945037976E+03  0.00000000000E+00 0. -1.
</event>
<event>
 4    1  0.3664744E+003  0.2215569E+02  0.7546771E-02  0.1503381E+00
          2   -1    0    0  502    0  0.00000000000E+00  0.00000000000E+00  0.40607175447E+01  0.40607175447E+01  0.00000000000E+00 0.  1.
          1   -1    0    0  501    0 -0.00000000000E+00 -0.00000000000E+00 -0.55606596845E+03  0.55606596845E+03  0.00000000000E+00 0.  1.
          2    1    1    2  501    0 -0.15456477226E+02  0.15873621244E+02 -0.28244042397E+02  0.35897081644E+02  0.00000000000E+00 0.  1.
          1    1    1    2  502    0  0.15456477226E+02 -0.15873621244E+02 -0.52376120851E+03  0.52422960435E+03  0.00000000000E+00 0.  1.
</event>
<event>
 4    1  0.3664744E+003  0.2562407E+02  0.7546771E-02  0.1461942E+00
          2   -1    0    0  502    0  0.00000000000E+00  0.00000000000E+00  0.10977360573E+03  0.10977360573E+03  0.00000000000E+00 0.  1.
          1   -1    0    0  501    0 -0.00000000000E+00 -0.00000000000E+00 -0.84840285363E+01  0.84840285363E+01  0.00000000000E+00 0.  1.
          2    1    1    2  501    0 -0.23747963252E+02 -0.96243154893E+01  0.82759318840E+02  0.86635431909E+02  0.00000000000E+00 0.  1.
          1    1    1    2  502    0  0.23747963252E+02  0.96243154893E+01  0.18530258354E+02  0.31622202357E+02  0.00000000000E+00 0.  1.
</event>
<event>
 4    1  0.3664744E+003  0.2522558E+02  0.7546771E-02  0.1466296E+00
          2   -1    0    0  502    0  0.00000000000E+00  0.00000000000E+00  0.11191621925E+04  0.11191621925E+04  0.00000000000E+00 0.  1.
          1   -1    0    0  501    0 -0.00000000000E+00 -0.00000000000E+00 -0.63675173652E+00  0.63675173652E+00  0.00000000000E+00 0.  1.
          2    1    1    2  501    0  0.16496615891E+02 -0.19083799048E+02  0.74246765974E+03  0.74289605968E+03  0.00000000000E+00 0.  1.
          1    1    1    2  502    0 -0.16496615891E+02  0.19083799048E+02  0.37605778107E+03  0.37690288460E+03  0.00000000000E+00 0.  1.
</event>
<event>
 4    1  0.3664744E+003  0.2553060E+02  0.7546771E-02  0.1462954E+00
          2   -1    0    0  502    0  0.00000000000E+00  0.00000000000E+00  0.14657133356E+04  0.14657133356E+04  0.00000000000E+00 0. -1.
          1   -1    0    0  501    0 -0.00000000000E+00 -0.00000000000E+00 -0.28348491291E+02  0.28348491291E+02  0.00000000000E+00 0. -1.
          2    1    1    2  501    0  0.36197890872E+01  0.25272686251E+02  0.14598307947E+04  0.14600540267E+04  0.00000000000E+00 0. -1.
          1    1    1    2  502    0 -0.36197890872E+01 -0.25272686251E+02 -0.22465950461E+02  0.34007800186E+02  0.00000000000E+00 0. -1.
</event>
<event>
 4    1  0.3664744E+003  0.3840670E+02  0.7546771E-02  0.1358084E+00
          2   -1    0    0  502    0  0.00000000000E+00  0.00000000000E+00  0.47630215563E+03  0.47630215563E+03  0.00000000000E+00 0. -1.
          1   -1    0    0  501    0 -0.00000000000E+00 -0.00000000000E+00 -0.31033416679E+01  0.31033416679E+01  0.00000000000E+00 0.  1.
          2    1    1    2  501    0  0.33474160247E+02  0.18829600994E+02  0.22570192945E+03  0.22894635668E+03  0.00000000000E+00 0. -1.
          1    1    1    2  502    0 -0.33474160247E+02 -0.18829600994E+02  0.24749688451E+03  0.25045914062E+03  0.00000000000E+00 0.  1.
</event>
<event>
 4    1  0.3664744E+003  0.4324257E+02  0.7546771E-02  0.1330465E+00
          2   -1    0    0  502    0  0.00000000000E+00  0.00000000000E+00  0.18275154387E+02  0.18275154387E+02  0.00000000000E+00 0.  1.
          1   -1    0    0  501    0 -0.00000000000E+00 -0.00000000000E+00 -0.24280371891E+03  0.24280371891E+03  0.00000000000E+00 0.  1.
          2    1    1    2  501    0 -0.14521597754E+01 -0.43218176713E+02 -0.12969465958E+02  0.45145615664E+02  0.00000000000E+00 0.  1.
          1    1    1    2  502    0  0.14521597754E+01  0.43218176713E+02 -0.21155909857E+03  0.21593325763E+03  0.00000000000E+00 0.  1.
</event>
<event>
 4    1  0.3664744E+003  0.2978508E+02  0.7546771E-02  0.1421473E+00
          2   -1    0    0  502    0  0.00000000000E+00  0.00000000000E+00  0.60842677483E+03  0.60842677483E+03  0.00000000000E+00 0. -1.
          1   -1    0    0  501    0 -0.00000000000E+00 -0.00000000000E+00 -0.20022675798E+02  0.20022675798E+02  0.00000000000E+00 0.  1.
          2    1    1    2  501    0 -0.27432606473E+02  0.11601858439E+02  0.59676917331E+03  0.59751200593E+03  0.00000000000E+00 0. -1.
          1    1    1    2  502    0  0.27432606473E+02 -0.11601858439E+02 -0.83650742738E+01  0.30937444703E+02  0.00000000000E+00 0.  1.
</event>
<event>
 4    1  0.3664744E+003  0.2253752E+02  0.7546771E-02  0.1498389E+00
          2   -1    0    0  502    0  0.00000000000E+00  0.00000000000E+00  0.59609990151E+00  0.59609990151E+00  0.00000000000E+00 0.  1.
          1   -1    0    0  501    0 -0.00000000000E+00 -0.00000000000E+00 -0.17360339420E+04  0.17360339420E+04  0.00000000000E+00 0.  1.
          2    1    1    2  501    0  0.22533011423E+02 -0.45053531536E+00 -0.24812530458E+03  0.24914675667E+03  0.00000000000E+00 0.  1.
          1    1    1    2  502    0 -0.22533011423E+02  0.45053531536E+00 -0.14873125375E+04  0.14874832853E+04  0.00000000000E+00 0.  1.
</event>
<event>
 4    1  0.3664744E+003  0.2042231E+02  0.7546771E-02  0.1527675E+00
          2   -1    0    0  502    0  0.00000000000E+00  0.00000000000E+00  0.43515816000E+03  0.43515816000E+03  0.00000000000E+00 0.  1.
          1   -1    0    0  501    0 -0.00000000000E+00 -0.00000000000E+00 -0.46540559240E+01  0.46540559240E+01  0.00000000000E+00 0.  1.
          2    1    1    2  501    0  0.18143013886E+02  0.93755902997E+01  0.41121105646E+03  0.41171786893E+03  0.00000000000E+00 0.  1.
          1    1    1    2  502    0 -0.18143013886E+02 -0.93755902997E+01  0.19293047615E+02  0.28094346987E+02  0.00000000000E+00 0.  1.
</event>
<event>
 4    1  0.3664744E+003  0.2676296E+02  0.7546771E-02  0.1450004E+00
          2   -1    0    0  502    0  0.00000000000E+00  0.00000000000E+00  0.10974757233E+02  0.10974757233E+02  0.00000000000E+00 0. -1.
          1   -1    0    0  501    0 -0.00000000000E+00 -0.00000000000E+00 -0.72698257772E+02  0.72698257772E+02  0.00000000000E+00 0. -1.
          2    1    1    2  501    0 -0.89683815841E+01 -0.25215554706E+02 -0.17483062155E+02  0.31967382278E+02  0.00000000000E+00 0. -1.
          1    1    1    2  502    0  0.89683815841E+01  0.25215554706E+02 -0.44240438384E+02  0.51705632727E+02  0.00000000000E+00 0. -1.
</event>
<event>
 4    1  0.3664744E+003  0.2382397E+02  0.7546771E-02  0.1482403E+00
          2   -1    0    0  502    0  0.00000000000E+00  0.00000000000E+00  0.15281451699E+04  0.15281451699E+04  0.00000000000E+00 0.  1.
          1   -1    0    0  501    0 -0.00000000000E+00 -0.00000000000E+00 -0.25684186576E+02  0.25684186576E+02  0.00000000000E+00 0. -1.
          2    1    1    2  501    0  0.23672301032E+02 -0.26840053533E+01  0.15225072361E+04  0.15226936218E+04  0.00000000000E+00 0.  1.
          1    1    1    2  502    0 -0.23672301032E+02  0.26840053533E+01 -0.20046252836E+02  0.31135734673E+02  0.00000000000E+00 0. -1.
</event>
<event>
 4    1  0.3664744E+003  0.2316575E+02  0.7546771E-02  0.1490427E+00
          2   -1    0    0  502    0  0.00000000000E+00  0.00000000000E+00  0.14096627765E+04  0.14096627765E+04  0.00000000000E+00 0. -1.
          1   -1    0    0  501    0 -0.00000000000E+00 -0.00000000000E+00 -0.94169992065E+01  0.94169992065E+01  0.00000000000E+00 0. -1.
          2    1    1    2  501    0  0.18764322273E+02  0.13584996593E+02  0.13951727540E+04  0.13953650653E+04  0.00000000000E+00 0. -1.
          1    1    1    2  502    0 -0.18764322273E+02 -0.13584996593E+02  0.50730232378E+01  0.23714710363E+02  0.00000000000E+00 0. -1.
</event>
<event>
 4    1  0.3664744E+003  0.2885288E+02  0.7546771E-02  0.1429834E+00
          2   -1    0    0  502    0  0.00000000000E+00  0.00000000000E+00  0.74563111557E+03  0.74563111557E+03  0.00000000000E+00 0.  1.
          1   -1    0    0  501    0 -0.00000000000E+00 -0.00000000000E+00 -0.12746742517E+01  0.12746742517E+01  0.00000000000E+00 0.  1.
          2    1    1    2  501    0  0.24466026407E+02  0.15293826313E+02  0.24061886565E+03  0.24234257999E+03  0.00000000000E+00 0.  1.
          1    1    1    2  502    0 -0.24466026407E+02 -0.15293826313E+02  0.50373757568E+03  0.50456320983E+03  0.00000000000E+00 0.  1.
</event>
<event>
 4    1  0.3664744E+003  0.2134707E+02  0.7546771E-02  0.1514367E+00
          2   -1    0    0  502    0  0.00000000000E+00  0.00000000000E+00  0.56556475087E+01  0.56556475087E+01  0.00000000000E+00 0. -1.
          1   -1    0    0  501    0 -0.00000000000E+00 -0.00000000000E+00 -0.13168551729E+04  0.13168551729E+04  0.00000000000E+00 0. -1.
          2    1    1    2  501    0 -0.55711472172E+01  0.20607268734E+02 -0.14893619469E+02  0.26029158782E+02  0.00000000000E+00 0. -1.
          1    1    1    2  502    0  0.55711472172E+01 -0.20607268734E+02 -0.12963059059E+04  0.12964816616E+04  0.00000000000E+00 0. -1.
</event>
<event>
 4    1  0.3664744E+003  0.2893884E+02  0.7546771E-02  0.1429047E+00
          2   -1    0    0  502    0  0.00000000000E+00  0.00000000000E+00  0.17431733225E+02  0.17431733225E+02  0.00000000000E+00 0. -1.
          1   -1    0    0  501    0 -0.00000000000E+00 -0.00000000000E+00 -0.73919656092E+02  0.73919656092E+02  0.00000000000E+00 0. -1.
          2    1    1    2  501    0 -0.24609159154E+01 -0.28834015588E+02 -0.12188765704E+01  0.28964499343E+02  0.00000000000E+00 0. -1.
          1    1    1    2  502    0  0.24609159154E+01  0.28834015588E+02 -0.55269046296E+02  0.62386889974E+02  0.00000000000E+00 0. -1.
</event>
<event>
 4    1  0.3664744E+003  0.4833921E+02  0.7546771E-02  0.1305538E+00
          2   -1    0    0  502    0  0.00000000000E+00  0.00000000000E+00  0.22928648063E+04  0.22928648063E+04  0.00000000000E+00 0. -1.
          1   -1    0    0  501    0 -0.00000000000E+00 -0.00000000000E+00 -0.17734868061E+01  0.17734868061E+01  0.00000000000E+00 0. -1.
          2    1    1    2  501    0  0.47827656574E+02 -0.70139005381E+01  0.18938265680E+04  0.18944433877E+04  0.00000000000E+00 0. -1.
          1    1    1    2  502    0 -0.47827656574E+02  0.70139005381E+01  0.39726475148E+03  0.40019490539E+03  0.00000000000E+00 0. -1.
</event>
<event>
 4    1  0.3664744E+003  0.2278662E+02  0.7546771E-02  0.1495195E+00
          2   -1    0    0  502    0  0.00000000000E+00  0.00000000000E+00  0.48975233634E+03  0.48975233634E+03  0.00000000000E+00 0. -1.
          1   -1    0    0  501    0 -0.00000000000E+00 -0.00000000000E+00 -0.57266651270E+03  0.57266651270E+03  0.00000000000E+00 0.  1.
          2    1    1    2  501    0 -0.12572854312E+02  0.19004037226E+02  0.48926038916E+03  0.48979072929E+03  0.00000000000E+00 0. -1.
          1    1    1    2  502    0  0.12572854312E+02 -0.19004037226E+02 -0.57217456553E+03  0.57262811975E+03  0.00000000000E+00 0.  1.
</event>
<event>
 4    1  0.3664744E+003  0.2490863E+02  0.7546771E-02  0.1469828E+00
          2   -1    0    0  502    0  0.00000000000E+00  0.00000000000E+00  0.34892993892E+02  0.34892993892E+02  0.00000000000E+00 0.  1.
          1   -1    0    0  501    0 -0.00000000000E+00 -0.00000000000E+00 -0.67592767058E+02  0.67592767058E+02  0.00000000000E+00 0.  1.
          2    1    1    2  501    0  0.24019253144E+02  0.65966233865E+01  0.27639554265E+02  0.37207323495E+02  0.00000000000E+00 0.  1.
          1    1    1    2  502    0 -0.24019253144E+02 -0.65966233865E+01 -0.60339327431E+02  0.65278437455E+02  0.00000000000E+00 0.  1.
</event>
<event>
 4    1  0.3664744E+003  0.4381311E+02  0.7546771E-02  0.1327482E+00
          2   -1    0    0  502    0  0.00000000000E+00  0.00000000000E+00  0.37882136252E+02  0.37882136252E+02  0.00000000000E+00 0.  1.
          1   -1    0    0  501    0 -0.00000000000E+00 -0.00000000000E+00 -0.29499497043E+03  0.29499497043E+03  0.00000000000E+00 0. -1.
          2    1    1    2  501    0  0.25192162429E+02  0.35846108062E+02  0.22914129375E+02  0.49443359878E+02  0.00000000000E+00 0.  1.
          1    1    1    2  502    0 -0.25192162429E+02 -0.35846108062E+02 -0.28002696355E+03  0.28343374680E+03  0.00000000000E+00 0. -1.
</event>
<event>
 4    1  0.3664744E+003  0.2009975E+02  0.7546771E-02  0.1532516E+00
          2   -1    0    0  502    0  0.00000000000E+00  0.00000000000E+00  0.68907040960E+03  0.68907040960E+03  0.00000000000E+00 0.  1.
          1   -1    0    0  501    0 -0.00000000000E+00 -0.00000000000E+00 -0.48960546731E+03  0.48960546731E+03  0.00000000000E+00 0.  1.
          2    1    1    2  501    0 -0.22443718089E+01 -0.19974047261E+02  0.68871744127E+03  0.68901067748E+03  0.00000000000E+00 0.  1.
          1    1    1    2  502    0  0.22443718089E+01  0.19974047261E+02 -0.48925249898E+03  0.48966519943E+03  0.00000000000E+00 0.  1.
</event>
<event>
 4    1  0.3664744E+003  0.3585414E+02  0.7546771E-02  0.1374656E+00
          2   -1    0    0  502    0  0.00000000000E+00  0.00000000000E+00  0.35933320669E+03  0.35933320669E+03  0.00000000000E+00 0.  1.
          1   -1    0    0  501    0 -0.00000000000E+00 -0.00000000000E+00 -0.90208811147E+03  0.90208811147E+03  0.00000000000E+00 0. -1.
          2    1    1    2  501    0 -0.90910596388E+01  0.34682447275E+02  0.35808132364E+03  0.35987185754E+03  0.00000000000E+00 0.  1.
          1    1    1    2  502    0  0.90910596388E+01 -0.34682447275E+02 -0.90083622842E+03  0.90154946062E+03  0.00000000000E+00 0. -1.
</event>
<event>
 4    1  0.3664744E+003  0.2086734E+02  0.7546771E-02  0.1521167E+00
          2   -1    0    0  502    0  0.00000000000E+00  0.00000000000E+00  0.67484469224E+03  0.67484469224E+03  0.00000000000E+00 0. -1.
          1   -1    0    0  501    0 -0.00000000000E+00 -0.00000000000E+00 -0.21089099955E+02  0.21089099955E+02  0.00000000000E+00 0. -1.
          2    1    1    2  501    0 -0.10765891217E+02 -0.17875724697E+02  0.66948004637E+03  0.66980517946E+03  0.00000000000E+00 0. -1.
          1    1    1    2  502    0  0.10765891217E+02  0.17875724697E+02 -0.15724454084E+02  0.26128612733E+02  0.00000000000E+00 0. -1.
</event>
<event>
 4    1  0.3664744E+003  0.3491630E+02  0.7546771E-02  0.1381153E+00
          2   -1    0    0  502    0  0.00000000000E+00  0.00000000000E+00  0.71742156530E+03  0.71742156530E+03  0.00000000000E+00 0. -1.
          1   -1    0    0  501    0 -0.00000000000E+00 -0.00000000000E+00 -0.84008722044E+01  0.84008722044E+01  0.00000000000E+00 0. -1.
          2    1    1    2  501    0 -0.20947800692E+02  0.27934525523E+02  0.67864468158E+03  0.67954231060E+03  0.00000000000E+00 0. -1.
          1    1    1    2  502    0  0.20947800692E+02 -0.27934525523E+02  0.30376011518E+02  0.46280126899E+02  0.00000000000E+00 0. -1.
</event>
<event>
 4    1  0.3664744E+003  0.5950800E+02  0.7546771E-02  0.1261513E+00
          2   -1    0    0  502    0  0.00000000000E+00  0.00000000000E+00  0.12552027374E+04  0.12552027374E+04  0.00000000000E+00 0.  1.
          1   -1    0    0  501    0 -0.00000000000E+00 -0.00000000000E+00 -0.37891941335E+01  0.37891941335E+01  0.00000000000E+00 0.  1.
          2    1    1    2  501    0  0.48481770735E+02  0.34506803143E+02  0.94387123390E+03  0.94574526577E+03  0.00000000000E+00 0.  1.
          1    1    1    2  502    0 -0.48481770735E+02 -0.34506803143E+02  0.30754230937E+03  0.31324666576E+03  0.00000000000E+00 0.  1.
</event>
<event>
 4    1  0.3664744E+003  0.4093721E+02  0.7546771E-02  0.1343080E+00
          2   -1    0    0  502    0  0.00000000000E+00  0.00000000000E+00  0.24870991341E+04  0.24870991341E+04  0.00000000000E+00 0. -1.
          1   -1    0    0  501    0 -0.00000000000E+00 -0.00000000000E+00 -0.19122232209E+01  0.19122232209E+01  0.00000000000E+00 0.  1.
          2    1    1    2  501    0  0.40720944854E+02  0.42023162285E+01  0.22441115249E+04  0.22444848832E+04  0.00000000000E+00 0. -1.
          1    1    1    2  502    0 -0.40720944854E+02 -0.42023162285E+01  0.24107538598E+03  0.24452647410E+03  0.00000000000E+00 0.  1.
</event>
<event>
 4    1  0.3664744E+003  0.3360562E+02  0.7546771E-02  0.1390640E+00
          2   -1    0    0  502    0  0.00000000000E+00  0.00000000000E+00  0.11273764012E+04  0.11273764012E+04  0.00000000000E+00 0. -1.
          1   -1    0    0  501    0 -0.00000000000E+00 -0.00000000000E+00 -0.64921837940E+01  0.64921837940E+01  0.00000000000E+00 0.  1.
          2    1    1    2  501    0  0.30463078353E+02  0.14189384182E+02  0.10818061311E+04  0.10823279738E+04  0.00000000000E+00 0. -1.
          1    1    1    2  502    0 -0.30463078353E+02 -0.14189384182E+02  0.39078086383E+02  0.51540611187E+02  0.00000000000E+00 0.  1.
</event>
<event>
 4    1  0.3664744E+003  0.5324584E+02  0.7546771E-02  0.1284681E+00
          2   -1    0    0  502    0  0.00000000000E+00  0.00000000000E+00  0.10954500210E+02  0.10954500210E+02  0.00000000000E+00 0.  1.
          1   -1    0    0  501    0 -0.00000000000E+00 -0.00000000000E+00 -0.35897063029E+04  0.35897063029E+04  0.00000000000E+00 0. -1.
          2    1    1    2  501    0 -0.52769431368E+02  0.71068121658E+01 -0.55159060653E+02  0.76665778795E+02  0.00000000000E+00 0.  1.
          1    1    1    2  502    0  0.52769431368E+02 -0.71068121658E+01 -0.35235927420E+04  0.35239950243E+04  0.00000000000E+00 0. -1.
</event>
<event>
 4    1  0.3664744E+003  0.2533167E+02  0.7546771E-02  0.1465127E+00
          2   -1    0    0  502    0  0.00000000000E+00  0.00000000000E+00  0.54989243601E+02  0.54989243601E+02  0.00000000000E+00 0.  1.
          1   -1    0    0  501    0 -0.00000000000E+00 -0.00000000000E+00 -0.56160807860E+03  0.56160807860E+03  0.00000000000E+00 0.  1.
          2    1    1    2  501    0 -0.27770680836E+01 -0.25178987080E+02  0.51769420715E+02  0.57634767447E+02  0.00000000000E+00 0.  1.
          1    1    1    2  502    0  0.27770680836E+01  0.25178987080E+02 -0.55838825571E+03  0.55896255475E+03  0.00000000000E+00 0.  1.
</event>
<event>
 4    1  0.3664744E+003  0.2454861E+02  0.7546771E-02  0.1473917E+00
          2   -1    0    0  502    0  0.00000000000E+00  0.00000000000E+00  0.35556329171E+03  0.35556329171E+03  0.00000000000E+00 0.  1.
          1   -1    0    0  501    0 -0.00000000000E+00 -0.00000000000E+00 -0.53443240972E+01  0.53443240972E+01  0.00000000000E+00 0. -1.
          2    1    1    2  501    0 -0.23975091466E+02  0.52753557640E+01  0.32422865135E+03  0.32515665878E+03  0.00000000000E+00 0.  1.
          1    1    1    2  502    0  0.23975091466E+02 -0.52753557640E+01  0.25990316259E+02  0.35750957029E+02  0.00000000000E+00 0. -1.
</event>
<event>
 4    1  0.3664744E+003  0.4371077E+02  0.7546771E-02  0.1328013E+00
          2   -1    0    0  502    0  0.00000000000E+00  0.00000000000E+00  0.13391561721E+04  0.13391561721E+04  0.00000000000E+00 0. -1.
          1   -1    0    0  501    0 -0.00000000000E+00 -0.00000000000E+00 -0.11082535536E+02  0.11082535536E+02  0.00000000000E+00 0.  1.
          2    1    1    2  501    0  0.32413654699E+02 -0.29325523434E+02  0.12942028087E+04  0.12949407482E+04  0.00000000000E+00 0. -1.
          1    1    1    2  502    0 -0.32413654699E+02  0.29325523434E+02  0.33870827851E+02  0.55297959410E+02  0.00000000000E+00 0.  1.
</event>
<event>
 4    1  0.3664744E+003  0.2359975E+02  0.7546771E-02  0.1485101E+00
          2   -1    0    0  502    0  0.00000000000E+00  0.00000000000E+00  0.80999771376E+03  0.80999771376E+03  0.00000000000E+00 0.  1.
          1   -1    0    0  501    0 -0.00000000000E+00 -0.00000000000E+00 -0.34934976030E+02  0.34934976030E+02  0.00000000000E+00 0.  1.
          2    1    1    2  501    0  0.22838045158E+02 -0.59474082152E+01  0.80581955052E+03  0.80616505504E+03  0.00000000000E+00 0.  1.
          1    1    1    2  502    0 -0.22838045158E+02  0.59474082152E+01 -0.30756812788E+02  0.38767634749E+02  0.00000000000E+00 0.  1.
</event>
<event>
 4    1  0.3664744E+003  0.2035581E+02  0.7546771E-02  0.1528664E+00
          2   -1    0    0  502    0  0.00000000000E+00  0.00000000000E+00  0.56140629039E+00  0.56140629039E+00  0.00000000000E+00 0. -1.
          1   -1    0    0  501    0 -0.00000000000E+00 -0.00000000000E+00 -0.11344302615E+04  0.11344302615E+04  0.00000000000E+00 0.  1.
          2    1    1    2  501    0  0.20355703305E+02  0.65409932011E-01 -0.23149270642E+03  0.23238595495E+03  0.00000000000E+00 0. -1.
          1    1    1    2  502    0 -0.20355703305E+02 -0.65409932011E-01 -0.90237614877E+03  0.90260571281E+03  0.00000000000E+00 0.  1.
</event>
<event>
 4    1  0.3664744E+003  0.2194214E+02  0.7546771E-02  0.1506227E+00
          2   -1    0    0  502    0  0.00000000000E+00  0.00000000000E+00  0.13144186176E+04  0.13144186176E+04  0.00000000000E+00 0.  1.
          1   -1    0    0  501    0 -0.00000000000E+00 -0.00000000000E+00 -0.41283956426E+01  0.41283956426E+01  0.00000000000E+00 0.  1.
          2    1    1    2  501    0 -0.15151197799E+02 -0.15871318977E+02  0.12844925918E+04  0.12846799897E+04  0.00000000000E+00 0.  1.
          1    1    1    2  502    0  0.15151197799E+02  0.15871318977E+02  0.25797630114E+02  0.33867023494E+02  0.00000000000E+00 0.  1.
</event>
<event>
 4    1  0.3664744E+003  0.3290455E+02  0.7546771E-02  0.1395925E+00
          2   -1    0    0  502    0  0.00000000000E+00  0.00000000000E+00  0.68823244856E+03  0.68823244856E+03  0.00000000000E+00 0.  1.
          1   -1    0    0  501    0 -0.00000000000E+00 -0.00000000000E+00 -0.19700347530E+01  0.19700347530E+01  0.00000000000E+00 0.  1.
          2    1    1    2  501    0 -0.39411970833E+01  0.32667661846E+02  0.49802315295E+03  0.49910897612E+03  0.00000000000E+00 0.  1.
          1    1    1    2  502    0  0.39411970833E+01 -0.32667661846E+02  0.18823926085E+03  0.19109350719E+03  0.00000000000E+00 0.  1.
</event>
<event>
 4    1  0.3664744E+003  0.2095843E+02  0.7546771E-02  0.1519859E+00
          2   -1    0    0  502    0  0.00000000000E+00  0.00000000000E+00  0.74794204568E+01  0.74794204568E+01  0.00000000000E+00 0.  1.
          1   -1    0    0  501    0 -0.00000000000E+00 -0.00000000000E+00 -0.17988574455E+03  0.17988574455E+03  0.00000000000E+00 0.  1.
          2    1    1    2  501    0  0.19403464321E+02 -0.79222054452E+01 -0.93193293685E+01  0.22936993409E+02  0.00000000000E+00 0.  1.
          1    1    1    2  502    0 -0.19403464321E+02  0.79222054452E+01 -0.16308699473E+03  0.16442817160E+03  0.00000000000E+00 0.  1.
</event>
<event>
 4    1  0.3664744E+003  0.4706378E+02  0.7546771E-02  0.1311431E+00
          2   -1    0    0  502    0  0.00000000000E+00  0.00000000000E+00  0.10052198388E+03  0.10052198388E+03  0.00000000000E+00 0.  1.
          1   -1    0    0  501    0 -0.00000000000E+00 -0.00000000000E+00 -0.31683929670E+02  0.31683929670E+02  0.00000000000E+00 0. -1.
          2    1    1    2  501    0  0.26035263194E+02 -0.39206685651E+02  0.70897912458E+02  0.85097080563E+02  0.00000000000E+00 0.  1.
          1    1    1    2  502    0 -0.26035263194E+02  0.39206685651E+02 -0.20598582496E+01  0.47108832986E+02  0.00000000000E+00 0. -1.
</event>
<event>
 4    1  0.3664744E+003  0.2247055E+02  0.7546771E-02  0.1499256E+00
          2   -1    0    0  502    0  0.00000000000E+00  0.00000000000E+00  0.13437861985E+03  0.13437861985E+03  0.00000000000E+00 0. -1.
          1   -1    0    0  501    0 -0.00000000000E+00 -0.00000000000E+00 -0.14502560324E+02  0.14502560324E+02  0.00000000000E+00 0.  1.
          2    1    1    2  501    0 -0.11878450190E+02  0.19074277014E+02  0.12401355913E+03  0.12603288647E+03  0.00000000000E+00 0. -1.
          1    1    1    2  502    0  0.11878450190E+02 -0.19074277014E+02 -0.41374996021E+01  0.22848293711E+02  0.00000000000E+00 0.  1.
</event>
<event>
 4    1  0.3664744E+003  0.2281680E+02  0.7546771E-02  0.1494812E+00
          2   -1    0    0  502    0  0.00000000000E+00  0.00000000000E+00  0.24514711792E+03  0.24514711792E+03  0.00000000000E+00 0.  1.
          1   -1    0    0  501    0 -0.00000000000E+00 -0.00000000000E+00 -0.24099322344E+01  0.24099322344E+01  0.00000000000E+00 0. -1.
          2    1    1    2  501    0 -0.21827163108E+02  0.66468941068E+01  0.16403061199E+03  0.16560992700E+03  0.00000000000E+00 0.  1.
          1    1    1    2  502    0  0.21827163108E+02 -0.66468941068E+01  0.78706573692E+02  0.81947123152E+02  0.00000000000E+00 0. -1.
</event>
<event>
 4    1  0.3664744E+003  0.2966997E+02  0.7546771E-02  0.1422486E+00
          2   -1    0    0  502    0  0.00000000000E+00  0.00000000000E+00  0.33838095739E+02  0.33838095739E+02  0.00000000000E+00 0.  1.
          1   -1    0    0  501    0 -0.00000000000E+00 -0.00000000000E+00 -0.20923794134E+04  0.20923794134E+04  0.00000000000E+00 0. -1.
          2    1    1    2  501    0  0.90671164702E+01  0.28250567828E+02  0.27208426487E+02  0.40256746709E+02  0.00000000000E+00 0.  1.
          1    1    1    2  502    0 -0.90671164702E+01 -0.28250567828E+02 -0.20857497442E+04  0.20859607625E+04  0.00000000000E+00 0. -1.
</event>
<event>
 4    1  0.3664744E+003  0.2173019E+02  0.7546771E-02  0.1509090E+00
          2   -1    0    0  502    0  0.00000000000E+00  0.00000000000E+00  0.66958228485E+03  0.66958228485E+03  0.00000000000E+00 0.  1.
          1   -1    0    0  501    0 -0.00000000000E+00 -0.00000000000E+00 -0.16549781398E+01  0.16549781398E+01  0.00000000000E+00 0.  1.
          2    1    1    2  501    0 -0.42216329099E+01 -0.21316168293E+02  0.58821132895E+03  0.58861257948E+03  0.00000000000E+00 0.  1.
          1    1    1    2  502    0  0.42216329099E+01  0.21316168293E+02  0.79715977766E+02  0.82624683517E+02  0.00000000000E+00 0.  1.
</event>
<event>
 4    1  0.3664744E+003  0.2033264E+02  0.7546771E-02  0.1529010E+00
          2   -1    0    0  502    0  0.00000000000E+00  0.00000000000E+00  0.12143766965E+03  0.12143766965E+03  0.00000000000E+00 0. -1.
          1   -1    0    0  501    0 -0.00000000000E+00 -0.00000000000E+00 -0.62540632290E+02  0.62540632290E+02  0.00000000000E+00 0.  1.
          2    1    1    2  501    0  0.43012136051E+00  0.20328085557E+02  0.11889896128E+03  0.12062495206E+03  0.00000000000E+00 0. -1.
          1    1    1    2  502    0 -0.43012136051E+00 -0.20328085557E+02 -0.60001923919E+02  0.63353349878E+02  0.00000000000E+00 0.  1.
</event>
<event>
 4    1  0.3664744E+003  0.2397936E+02  0.7546771E-02  0.1480553E+00
          2   -1    0    0  502    0  0.00000000000E+00  0.00000000000E+00  0.13204138543E+01  0.13204138543E+01  0.00000000000E+00 0.  1.
          1   -1    0    0  501    0 -0.00000000000E+00 -0.00000000000E+00 -0.45397920559E+03  0.45397920559E+03  0.00000000000E+00 0.  1.
          2    1    1    2  501    0 -0.16514719078E+02 -0.17386010438E+02 -0.27228791534E+03  0.27334176070E+03  0.00000000000E+00 0.  1.
          1    1    1    2  502    0  0.16514719078E+02  0.17386010438E+02 -0.18037087640E+03  0.18195785874E+03  0.00000000000E+00 0.  1.
</event>
<event>
 4    1  0.3664744E+003  0.2211135E+02  0.7546771E-02  0.1503969E+00
          2   -1    0    0  502    0  0.00000000000E+00  0.00000000000E+00  0.47168732351E+02  0.47168732351E+02  0.00000000000E+00 0. -1.
          1   -1    0    0  501    0 -0.00000000000E+00 -0.00000000000E+00 -0.10660356753E+02  0.10660356753E+02  0.00000000000E+00 0. -1.
          2    1    1    2  501    0 -0.66812317869E+01 -0.21077779623E+02  0.23065718327E+02  0.31952136298E+02  0.00000000000E+00 0. -1.
          1    1    1    2  502    0  0.66812317869E+01  0.21077779623E+02  0.13442657271E+02  0.25876952806E+02  0.00000000000E+00 0. -1.
</event>
<event>
 4    1  0.3664744E+003  0.2003521E+02  0.7546771E-02  0.1533498E+00
          2   -1    0    0  502    0  0.00000000000E+00  0.00000000000E+00  0.50588665477E+02  0.50588665477E+02  0.00000000000E+00 0.  1.
          1   -1    0    0  501    0 -0.00000000000E+00 -0.00000000000E+00 -0.10795525559E+03  0.10795525559E+03  0.00000000000E+00 0.  1.
          2    1    1    2  501    0  0.95316302498E+01 -0.17622642354E+02  0.47619804556E+02  0.51662900468E+02  0.00000000000E+00 0.  1.
          1    1    1    2  502    0 -0.95316302498E+01  0.17622642354E+02 -0.10498639467E+03  0.10688102060E+03  0.00000000000E+00 0.  1.
</event>
<event>
 4    1  0.3664744E+003  0.2701780E+02  0.7546771E-02  0.1447429E+00
          2   -1    0    0  502    0  0.00000000000E+00  0.00000000000E+00  0.84467226816E+03  0.84467226816E+03  0.00000000000E+00 0. -1.
          1   -1    0    0  501    0 -0.00000000000E+00 -0.00000000000E+00 -0.55840473479E+02  0.55840473479E+02  0.00000000000E+00 0. -1.
          2    1    1    2  501    0  0.24032573731E+02 -0.12344914135E+02  0.84117456751E+03  0.84160834985E+03  0.00000000000E+00 0. -1.
          1    1    1    2  502    0 -0.24032573731E+02  0.12344914135E+02 -0.52342772829E+02  0.58904391793E+02  0.00000000000E+00 0. -1.
</event>
<event>
 4    1  0.3664744E+003  0.3431236E+02  0.7546771E-02  0.1385463E+00
          2   -1    0    0  502    0  0.00000000000E+00  0.00000000000E+00  0.23670034834E+03  0.23670034834E+03  0.00000000000E+00 0. -1.
          1   -1    0    0  501    0 -0.00000000000E+00 -0.00000000000E+00 -0.11226964669E+02  0.11226964669E+02  0.00000000000E+00 0. -1.
          2    1    1    2  501    0  0.28267525359E+02  0.19449544284E+02  0.20525072633E+03  0.20809901110E+03  0.00000000000E+00 0. -1.
          1    1    1    2  502    0 -0.28267525359E+02 -0.19449544284E+02  0.20222657341E+02  0.39828301906E+02  0.00000000000E+00 0. -1.
</event>
<event>
 4    1  0.3664744E+003  0.3802148E+02  0.7546771E-02  0.1360487E+00
          2   -1    0    0  502    0  0.00000000000E+00  0.00000000000E+00  0.11573165091E+04  0.11573165091E+04  0.00000000000E+00 0. -1.
          1   -1    0    0  501    0 -0.00000000000E+00 -0.00000000000E+00 -0.27678777658E+01  0.27678777658E+01  0.00000000000E+00 0. -1.
          2    1    1    2  501    0  0.36257096199E+02 -0.11447955082E+02  0.10069390492E+04  0.10076566287E+04  0.00000000000E+00 0. -1.
          1    1    1    2  502    0 -0.36257096199E+02  0.11447955082E+02  0.14760958214E+03  0.15242775810E+03  0.00000000000E+00 0. -1.
</event>
<event>
 4    1  0.3664744E+003  0.2055425E+02  0.7546771E-02  0.1525725E+00
          2   -1    0    0  502    0  0.00000000000E+00  0.00000000000E+00  0.65614621122E+03  0.65614621122E+03  0.00000000000E+00 0. -1.
          1   -1    0    0  501    0 -0.00000000000E+00 -0.00000000000E+00 -0.20107487858E+02  0.20107487858E+02  0.00000000000E+00 0. -1.
          2    1    1    2  501    0  0.15457937027E+02 -0.13547307000E+02  0.65068845831E+03  0.65101301609E+03  0.00000000000E+00 0. -1.
          1    1    1    2  502    0 -0.15457937027E+02  0.13547307000E+02 -0.14649734941E+02  0.25240682993E+02  0.00000000000E+00 0. -1.
</event>
<event>
 4    1  0.3664744E+003  0.3174610E+02  0.7546771E-02  0.1405006E+00
          2   -1    0    0  502    0  0.00000000000E+00  0.00000000000E+00  0.18162548936E+04  0.18162548936E+04  0.00000000000E+00 0. -1.
          1   -1    0    0  501    0 -0.00000000000E+00 -0.00000000000E+00 -0.11915903813E+03  0.11915903813E+03  0.00000000000E+00 0.  1.
          2    1    1    2  501    0 -0.29412482333E+02 -0.11946584195E+02  0.18139991103E+04  0.18142768772E+04  0.00000000000E+00 0. -1.
          1    1    1    2  502    0  0.29412482333E+02  0.11946584195E+02 -0.11690325482E+03  0.12113705452E+03  0.00000000000E+00 0.  1.
</event>
<event>
 4    1  0.3664744E+003  0.4365529E+02  0.7546771E-02  0.1328302E+00
          2   -1    0    0  502    0  0.00000000000E+00  0.00000000000E+00  0.34461104479E+01  0.34461104479E+01  0.00000000000E+00 0. -1.
          1   -1    0    0  501    0 -0.00000000000E+00 -0.00000000000E+00 -0.28722615351E+04  0.28722615351E+04  0.00000000000E+00 0.  1.
          2    1    1    2  501    0  0.39869517226E+02 -0.17782187573E+02 -0.14236971966E+03  0.14891246313E+03  0.00000000000E+00 0. -1.
          1    1    1    2  502    0 -0.39869517226E+02  0.17782187573E+02 -0.27264457050E+04  0.27267951824E+04  0.00000000000E+00 0.  1.
</event>
<event>
 4    1  0.3664744E+003  0.2681532E+02  0.7546771E-02  0.1449472E+00
          2   -1    0    0  502    0  0.00000000000E+00  0.00000000000E+00  0.89466054393E+02  0.89466054393E+02  0.00000000000E+00 0.  1.
          1   -1    0    0  501    0 -0.00000000000E+00 -0.00000000000E+00 -0.41687399429E+02  0.41687399429E+02  0.00000000000E+00 0.  1.
          2    1    1    2  501    0 -0.17328780209E+02 -0.20463984892E+02  0.82806353220E+02  0.87039953095E+02  0.00000000000E+00 0.  1.
          1    1    1    2  502    0  0.17328780209E+02  0.20463984892E+02 -0.35027698256E+02  0.44113500726E+02  0.00000000000E+00 0.  1.
</event>
<event>
 4    1  0.3664744E+003  0.2406422E+02  0.7546771E-02  0.1479550E+00
          2   -1    0    0  502    0  0.00000000000E+00  0.00000000000E+00  0.12657659037E+02  0.12657659037E+02  0.00000000000E+00 0. -1.
          1   -1    0    0  501    0 -0.00000000000E+00 -0.00000000000E+00 -0.12954222631E+03  0.12954222631E+03  0.00000000000E+00 0. -1.
          2    1    1    2  501    0 -0.90234761305E+01  0.22308377216E+02 -0.12594517496E+01  0.24097158219E+02  0.00000000000E+00 0. -1.
          1    1    1    2  502    0  0.90234761305E+01 -0.22308377216E+02 -0.11562511553E+03  0.11810272713E+03  0.00000000000E+00 0. -1.
</event>
<event>
 4    1  0.3664744E+003  0.2296769E+02  0.7546771E-02  0.1492904E+00
          2   -1    0    0  502    0  0.00000000000E+00  0.00000000000E+00  0.15842257733E+04  0.15842257733E+04  0.00000000000E+00 0.  1.
          1   -1    0    0  501    0 -0.00000000000E+00 -0.00000000000E+00 -0.39305872586E+00  0.39305872586E+00  0.00000000000E+00 0.  1.
          2    1    1    2  501    0  0.15709120388E+02  0.16755247692E+02  0.11016783086E+04  0.11019176968E+04  0.00000000000E+00 0.  1.
          1    1    1    2  502    0 -0.15709120388E+02 -0.16755247692E+02  0.48215440593E+03  0.48270113523E+03  0.00000000000E+00 0.  1.
</event>
<event>
 4    1  0.3664744E+003  0.2600674E+02  0.7546771E-02  0.1457849E+00
          2   -1    0    0  502    0  0.00000000000E+00  0.00000000000E+00  0.22281487745E+03  0.22281487745E+03  0.00000000000E+00 0. -1.
          1   -1    0    0  501    0 -0.00000000000E+00 -0.00000000000E+00 -0.54230502479E+01  0.54230502479E+01  0.00000000000E+00 0. -1.
          2    1    1    2  501    0 -0.41961883541E+00 -0.26003351310E+02  0.18441650210E+03  0.18624123229E+03  0.00000000000E+00 0. -1.
          1    1    1    2  502    0  0.41961883541E+00  0.26003351310E+02  0.32975325101E+02  0.41996695404E+02  0.00000000000E+00 0. -1.
</event>
<event>
 4    1  0.3664744E+003  0.2997388E+02  0.7546771E-02  0.1419824E+00
          2   -1    0    0  502    0  0.00000000000E+00  0.00000000000E+00  0.11817236487E+03  0.11817236487E+03  0.00000000000E+00 0.  1.
          1   -1    0    0  501    0 -0.00000000000E+00 -0.00000000000E+00 -0.10372398452E+02  0.10372398452E+02  0.00000000000E+00 0. -1.
          2    1    1    2  501    0 -0.96192752287E+01  0.28388432049E+02  0.87112215097E+02  0.92124760783E+02  0.00000000000E+00 0.  1.
          1    1    1    2  502    0  0.96192752287E+01 -0.28388432049E+02  0.20687751317E+02  0.36420002535E+02  0.00000000000E+00 0. -1.
</event>
<event>
 4    1  0.3664744E+003  0.2840656E+02  0.7546771E-02  0.1433969E+00
          2   -1    0    0  502    0  0.00000000000E+00  0.00000000000E+00  0.26367545836E+03  0.26367545836E+03  0.00000000000E+00 0.  1.
          1   -1    0    0  501    0 -0.00000000000E+00 -0.00000000000E+00 -0.15403087510E+04  0.15403087510E+04  0.00000000000E+00 0. -1.
          2    1    1    2  501    0  0.20839473759E+02  0.19304111509E+02  0.26277896254E+03  0.26430988544E+03  0.00000000000E+00 0.  1.
          1    1    1    2  502    0 -0.20839473759E+02 -0.19304111509E+02 -0.15394122551E+04  0.15396743239E+04  0.00000000000E+00 0. -1.
</event>
<event>
 4    1  0.3664744E+003  0.5567746E+02  0.7546771E-02  0.1275271E+00
          2   -1    0    0  502    0  0.00000000000E+00  0.00000000000E+00  0.60610270457E+03  0.60610270457E+03  0.00000000000E+00 0. -1.
          1   -1    0    0  501    0 -0.00000000000E+00 -0.00000000000E+00 -0.20475206071E+02  0.20475206071E+02  0.00000000000E+00 0.  1.
          2    1    1    2  501    0  0.55481673927E+02  0.46651856760E+01  0.56416695183E+03  0.56690769058E+03  0.00000000000E+00 0. -1.
          1    1    1    2  502    0 -0.55481673927E+02 -0.46651856760E+01  0.21460546670E+02  0.59670220064E+02  0.00000000000E+00 0.  1.
</event>
<event>
 4    1  0.3664744E+003  0.2559021E+02  0.7546771E-02  0.1462308E+00
          2   -1    0    0  502    0  0.00000000000E+00  0.00000000000E+00  0.88438643358E+01  0.88438643358E+01  0.00000000000E+00 0.  1.
          1   -1    0    0  501    0 -0.00000000000E+00 -0.00000000000E+00 -0.74048056504E+02  0.74048056504E+02  0.00000000000E+00 0.  1.
          2    1    1    2  501    0 -0.18500633025E+02  0.17680086762E+02 -0.32424119641E+02  0.41305961128E+02  0.00000000000E+00 0.  1.
          1    1    1    2  502    0  0.18500633025E+02 -0.17680086762E+02 -0.32780072528E+02  0.41585959712E+02  0.00000000000E+00 0.  1.
</event>
<event>
 4    1  0.3664744E+003  0.7331889E+02  0.7546771E-02  0.1220270E+00
          2   -1    0    0  502    0  0.00000000000E+00  0.00000000000E+00  0.10576478419E+04  0.10576478419E+04  0.00000000000E+00 0. -1.
          1   -1    0    0  501    0 -0.00000000000E+00 -0.00000000000E+00 -0.13178271176E+03  0.13178271176E+03  0.00000000000E+00 0. -1.
          2    1    1    2  501    0  0.72522231846E+02 -0.10778968394E+02  0.10460664488E+04  0.10486327649E+04  0.00000000000E+00 0. -1.
          1    1    1    2  502    0 -0.72522231846E+02  0.10778968394E+02 -0.12020131875E+03  0.14079778869E+03  0.00000000000E+00 0. -1.
</event>
<event>
 4    1  0.3664744E+003  0.2365799E+02  0.7546771E-02  0.1484397E+00
          2   -1    0    0  502    0  0.00000000000E+00  0.00000000000E+00  0.28916395328E+03  0.28916395328E+03  0.00000000000E+00 0.  1.
          1   -1    0    0  501    0 -0.00000000000E+00 -0.00000000000E+00 -0.38330220887E+01  0.38330220887E+01  0.00000000000E+00 0.  1.
          2    1    1    2  501    0  0.97414034556E+01 -0.21559349365E+02  0.24573885062E+03  0.24687503558E+03  0.00000000000E+00 0.  1.
          1    1    1    2  502    0 -0.97414034556E+01  0.21559349365E+02  0.39592080571E+02  0.46121939793E+02  0.00000000000E+00 0.  1.
</event>
<event>
 4    1  0.3664744E+003  0.3016405E+02  0.7546771E-02  0.1418176E+00
          2   -1    0    0  502    0  0.00000000000E+00  0.00000000000E+00  0.34269422997E+03  0.34269422997E+03  0.00000000000E+00 0.  1.
          1   -1    0    0  501    0 -0.00000000000E+00 -0.00000000000E+00 -0.78577087905E+02  0.78577087905E+02  0.00000000000E+00 0.  1.
          2    1    1    2  501    0  0.65893305823E+01 -0.29435529951E+02  0.33910505721E+03  0.34044398883E+03  0.00000000000E+00 0.  1.
          1    1    1    2  502    0 -0.65893305823E+01  0.29435529951E+02 -0.74987915154E+02  0.80827329042E+02  0.00000000000E+00 0.  1.
</event>
<event>
 4    1  0.3664744E+003  0.2293642E+02  0.7546771E-02  0.1493298E+00
          2   -1    0    0  502    0  0.00000000000E+00  0.00000000000E+00  0.37149510882E+02  0.37149510882E+02  0.00000000000E+00 0. -1.
          1   -1    0    0  501    0 -0.00000000000E+00 -0.00000000000E+00 -0.20525224349E+03  0.20525224349E+03  0.00000000000E+00 0.  1.
          2    1    1    2  501    0  0.94857037284E+01  0.20883024712E+02  0.32893737768E+02  0.40100838902E+02  0.00000000000E+00 0. -1.
          1    1    1    2  502    0 -0.94857037284E+01 -0.20883024712E+02 -0.20099647037E+03  0.20230091547E+03  0.00000000000E+00 0.  1.
</event>
<event>
 4    1  0.3664744E+003  0.2341972E+02  0.7546771E-02  0.1487294E+00
          2   -1    0    0  502    0  0.00000000000E+00  0.00000000000E+00  0.12360497729E+04  0.12360497729E+04  0.00000000000E+00 0. -1.
          1   -1    0    0  501    0 -0.00000000000E+00 -0.00000000000E+00 -0.25904066184E+01  0.25904066184E+01  0.00000000000E+00 0.  1.
          2    1    1    2  501    0  0.51856102036E+01  0.22838405193E+02  0.11805148109E+04  0.11807470948E+04  0.00000000000E+00 0. -1.
          1    1    1    2  502    0 -0.51856102036E+01 -0.22838405193E+02  0.52944555394E+02  0.57893084655E+02  0.00000000000E+00 0.  1.
</event>
<event>
 4    1  0.3664744E+003  0.3112852E+02  0.7546771E-02  0.1410037E+00
          2   -1    0    0  502    0  0.00000000000E+00  0.00000000000E+00  0.15945013061E+01  0.15945013061E+01  0.00000000000E+00 0. -1.
          1   -1    0    0  501    0 -0.00000000000E+00 -0.00000000000E+00 -0.21602579147E+04  0.21602579147E+04  0.00000000000E+00 0.  1.
          2    1    1    2  501    0 -0.57721127540E+01  0.30588686121E+02 -0.16297075703E+03  0.16591700531E+03  0.00000000000E+00 0. -1.
          1    1    1    2  502    0  0.57721127540E+01 -0.30588686121E+02 -0.19956926563E+04  0.19959354107E+04  0.00000000000E+00 0.  1.
</event>
<event>
 4    1  0.3664744E+003  0.3126053E+02  0.7546771E-02  0.1408950E+00
          2   -1    0    0  502    0  0.00000000000E+00  0.00000000000E+00  0.11261710258E+03  0.11261710258E+03  0.00000000000E+00 0. -1.
          1   -1    0    0  501    0 -0.00000000000E+00 -0.00000000000E+00 -0.10524277425E+03  0.10524277425E+03  0.00000000000E+00 0. -1.
          2    1    1    2  501    0 -0.14841641791E+02 -0.27512663290E+02  0.10802981879E+03  0.11246182784E+03  0.00000000000E+00 0. -1.
          1    1    1    2  502    0  0.14841641791E+02  0.27512663290E+02 -0.10065549046E+03  0.10539804899E+03  0.00000000000E+00 0. -1.
</event>
<event>
 4    1  0.3664744E+003  0.2080953E+02  0.7546771E-02  0.1522002E+00
          2   -1    0    0  502    0  0.00000000000E+00  0.00000000000E+00  0.15630445225E+01  0.15630445225E+01  0.00000000000E+00 0.  1.
          1   -1    0    0  501    0 -0.00000000000E+00 -0.00000000000E+00 -0.30556738258E+03  0.30556738258E+03  0.00000000000E+00 0.  1.
          2    1    1    2  501    0  0.12471967174E+02  0.16657930398E+02 -0.10508649846E+03  0.10712706833E+03  0.00000000000E+00 0.  1.
          1    1    1    2  502    0 -0.12471967174E+02 -0.16657930398E+02 -0.19891783959E+03  0.20000335877E+03  0.00000000000E+00 0.  1.
</event>
<event>
 4    1  0.3664744E+003  0.2176696E+02  0.7546771E-02  0.1508590E+00
          2   -1    0    0  502    0  0.00000000000E+00  0.00000000000E+00  0.34883241897E+03  0.34883241897E+03  0.00000000000E+00 0.  1.
          1   -1    0    0  501    0 -0.00000000000E+00 -0.00000000000E+00 -0.16799322328E+02  0.16799322328E+02  0.00000000000E+00 0.  1.
          2    1    1    2  501    0  0.13018854431E+02 -0.17444485246E+02  0.34128622375E+03  0.34197965898E+03  0.00000000000E+00 0.  1.
          1    1    1    2  502    0 -0.13018854431E+02  0.17444485246E+02 -0.92531271142E+01  0.23652082310E+02  0.00000000000E+00 0.  1.
</event>
<event>
 4    1  0.3664744E+003  0.3797148E+02  0.7546771E-02  0.1360801E+00
          2   -1    0    0  502    0  0.00000000000E+00  0.00000000000E+00  0.58886518356E+03  0.58886518356E+03  0.00000000000E+00 0.  1.
          1   -1    0    0  501    0 -0.00000000000E+00 -0.00000000000E+00 -0.16882571563E+03  0.16882571563E+03  0.00000000000E+00 0.  1.
          2    1    1    2  501    0 -0.32706424192E+02 -0.19290494758E+02  0.58610793472E+03  0.58733665348E+03  0.00000000000E+00 0.  1.
          1    1    1    2  502    0  0.32706424192E+02  0.19290494758E+02 -0.16606846679E+03  0.17035424571E+03  0.00000000000E+00 0.  1.
</event>
<event>
 4    1  0.3664744E+003  0.4433865E+02  0.7546771E-02  0.1324780E+00
          2   -1    0    0  502    0  0.00000000000E+00  0.00000000000E+00  0.11053619552E+04  0.11053619552E+04  0.00000000000E+00 0. -1.
          1   -1    0    0  501    0 -0.00000000000E+00 -0.00000000000E+00 -0.46469805508E+01  0.46469805508E+01  0.00000000000E+00 0. -1.
          2    1    1    2  501    0 -0.31883481543E+02  0.30811673234E+02  0.98640618682E+03  0.98740218807E+03  0.00000000000E+00 0. -1.
          1    1    1    2  502    0  0.31883481543E+02 -0.30811673234E+02  0.11430878784E+03  0.12260674769E+03  0.00000000000E+00 0. -1.
</event>
<event>
 4    1  0.3664744E+003  0.2091251E+02  0.7546771E-02  0.1520518E+00
          2   -1    0    0  502    0  0.00000000000E+00  0.00000000000E+00  0.75796039540E+03  0.75796039540E+03  0.00000000000E+00 0. -1.
          1   -1    0    0  501    0 -0.00000000000E+00 -0.00000000000E+00 -0.93441711257E+00  0.93441711257E+00  0.00000000000E+00 0. -1.
          2    1    1    2  501    0 -0.19813269211E+02  0.66908330707E+01  0.61319353784E+03  0.61355003687E+03  0.00000000000E+00 0. -1.
          1    1    1    2  502    0  0.19813269211E+02 -0.66908330707E+01  0.14383244044E+03  0.14534477565E+03  0.00000000000E+00 0. -1.
</event>
<event>
 4    1  0.3664744E+003  0.2134588E+02  0.7546771E-02  0.1514383E+00
          2   -1    0    0  502    0  0.00000000000E+00  0.00000000000E+00  0.22804205952E+02  0.22804205952E+02  0.00000000000E+00 0.  1.
          1   -1    0    0  501    0 -0.00000000000E+00 -0.00000000000E+00 -0.13180793186E+03  0.13180793186E+03  0.00000000000E+00 0. -1.
          2    1    1    2  501    0 -0.12404710048E+02 -0.17371520417E+02  0.16704103668E+02  0.27104863629E+02  0.00000000000E+00 0.  1.
          1    1    1    2  502    0  0.12404710048E+02  0.17371520417E+02 -0.12570782958E+03  0.12750727419E+03  0.00000000000E+00 0. -1.
</event>
<event>
 4    1  0.3664744E+003  0.2088876E+02  0.7546771E-02  0.1520859E+00
          2   -1    0    0  502    0  0.00000000000E+00  0.00000000000E+00  0.88982368573E+03  0.88982368573E+03  0.00000000000E+00 0. -1.
          1   -1    0    0  501    0 -0.00000000000E+00 -0.00000000000E+00 -0.17294465077E+02  0.17294465077E+02  0.00000000000E+00 0. -1.
          2    1    1    2  501    0  0.34836594384E+00 -0.20885855911E+02  0.88334734207E+03  0.88359428873E+03  0.00000000000E+00 0. -1.
          1    1    1    2  502    0 -0.34836594384E+00  0.20885855911E+02 -0.10818121417E+02  0.23523862076E+02  0.00000000000E+00 0. -1.
</event>
<event>
 4    1  0.3664744E+003  0.2931348E+02  0.7546771E-02  0.1425658E+00
          2   -1    0    0  502    0  0.00000000000E+00  0.00000000000E+00  0.22335384301E+04  0.22335384301E+04  0.00000000000E+00 0. -1.
          1   -1    0    0  501    0 -0.00000000000E+00 -0.00000000000E+00 -0.62923247258E+00  0.62923247258E+00  0.00000000000E+00 0. -1.
          2    1    1    2  501    0 -0.15163369991E+02 -0.25086875570E+02  0.42009461225E+03  0.42111609131E+03  0.00000000000E+00 0. -1.
          1    1    1    2  502    0  0.15163369991E+02  0.25086875570E+02  0.18128145853E+04  0.18130515712E+04  0.00000000000E+00 0. -1.
</event>
<event>
 4    1  0.3664744E+003  0.2615195E+02  0.7546771E-02  0.1456318E+00
          2   -1    0    0  502    0  0.00000000000E+00  0.00000000000E+00  0.41475221354E+01  0.41475221354E+01  0.00000000000E+00 0.  1.
          1   -1    0    0  501    0 -0.00000000000E+00 -0.00000000000E+00 -0.53646946401E+03  0.53646946401E+03  0.00000000000E+00 0. -1.
          2    1    1    2  501    0 -0.26059397855E-01 -0.26151937899E+02 -0.41199854431E+02  0.48799103886E+02  0.00000000000E+00 0.  1.
          1    1    1    2  502    0  0.26059397855E-01  0.26151937899E+02 -0.49112208745E+03  0.49181788226E+03  0.00000000000E+00 0. -1.
</event>
<event>
 4    1  0.3664744E+003  0.2394776E+02  0.7546771E-02  0.1480928E+00
          2   -1    0    0  502    0  0.00000000000E+00  0.00000000000E+00  0.42876364959E+02  0.42876364959E+02  0.00000000000E+00 0. -1.
          1   -1    0    0  501    0 -0.00000000000E+00 -0.00000000000E+00 -0.19601755389E+02  0.19601755389E+02  0.00000000000E+00 0.  1.
          2    1    1    2  501    0  0.15773815194E+02 -0.18018938174E+02  0.29243351938E+02  0.37797738176E+02  0.00000000000E+00 0. -1.
          1    1    1    2  502    0 -0.15773815194E+02  0.18018938174E+02 -0.59687423680E+01  0.24680382172E+02  0.00000000000E+00 0.  1.
</event>
<event>
 4    1  0.3664744E+003  0.2002595E+02  0.7546771E-02  0.1533639E+00
          2   -1    0    0  502    0  0.00000000000E+00  0.00000000000E+00  0.13743718244E+04  0.13743718244E+04  0.00000000000E+00 0. -1.
          1   -1    0    0  501    0 -0.00000000000E+00 -0.00000000000E+00 -0.82606156085E+00  0.82606156085E+00  0.00000000000E+00 0.  1.
          2    1    1    2  501    0  0.35989953370E+01  0.19699899760E+02  0.12397495524E+04  0.12399112838E+04  0.00000000000E+00 0. -1.
          1    1    1    2  502    0 -0.35989953370E+01 -0.19699899760E+02  0.13379621035E+03  0.13528660215E+03  0.00000000000E+00 0.  1.
</event>
<event>
 4    1  0.3664744E+003  0.2217199E+02  0.7546771E-02  0.1503166E+00
          2   -1    0    0  502    0  0.00000000000E+00  0.00000000000E+00  0.12280332103E+04  0.12280332103E+04  0.00000000000E+00 0. -1.
          1   -1    0    0  501    0 -0.00000000000E+00 -0.00000000000E+00 -0.83532995100E+00  0.83532995100E+00  0.00000000000E+00 0. -1.
          2    1    1    2  501    0 -0.21032083766E+02  0.70177203705E+01  0.10570031204E+04  0.10572356377E+04  0.00000000000E+00 0. -1.
          1    1    1    2  502    0  0.21032083766E+02 -0.70177203705E+01  0.17019475991E+03  0.17163290258E+03  0.00000000000E+00 0. -1.
</event>
<event>
 4    1  0.3664744E+003  0.2145749E+02  0.7546771E-02  0.1512832E+00
          2   -1    0    0  502    0  0.00000000000E+00  0.00000000000E+00  0.45793834844E+03  0.45793834844E+03  0.00000000000E+00 0.  1.
          1   -1    0    0  501    0 -0.00000000000E+00 -0.00000000000E+00 -0.84544508866E+01  0.84544508866E+01  0.00000000000E+00 0. -1.
          2    1    1    2  501    0  0.13400280873E+02  0.16758768226E+02  0.44363340230E+03  0.44415202293E+03  0.00000000000E+00 0.  1.
          1    1    1    2  502    0 -0.13400280873E+02 -0.16758768226E+02  0.58504952562E+01  0.22240776396E+02  0.00000000000E+00 0. -1.
</event>
<event>
 4    1  0.3664744E+003  0.3059471E+02  0.7546771E-02  0.1414497E+00
          2   -1    0    0  502    0  0.00000000000E+00  0.00000000000E+00  0.54894072915E+03  0.54894072915E+03  0.00000000000E+00 0. -1.
          1   -1    0    0  501    0 -0.00000000000E+00 -0.00000000000E+00 -0.16380287611E+02  0.16380287611E+02  0.00000000000E+00 0.  1.
          2    1    1    2  501    0  0.25284073420E+02  0.17226487017E+02  0.53382420948E+03  0.53470021774E+03  0.00000000000E+00 0. -1.
          1    1    1    2  502    0 -0.25284073420E+02 -0.17226487017E+02 -0.12637679365E+01  0.30620799027E+02  0.00000000000E+00 0.  1.
</event>
<event>
 4    1  0.3664744E+003  0.2337137E+02  0.7546771E-02  0.1487887E+00
          2   -1    0    0  502    0  0.00000000000E+00  0.00000000000E+00  0.13058157375E+03  0.13058157375E+03  0.00000000000E+00 0. -1.
          1   -1    0    0  501    0 -0.00000000000E+00 -0.00000000000E+00 -0.12690612503E+02  0.12690612503E+02  0.00000000000E+00 0. -1.
          2    1    1    2  501    0 -0.77470212207E+01  0.22050052808E+02  0.11759909172E+03  0.11989898890E+03  0.00000000000E+00 0. -1.
          1    1    1    2  502    0  0.77470212207E+01 -0.22050052808E+02  0.29186952933E+00  0.23373197352E+02  0.00000000000E+00 0. -1.
</event>
<event>
 4    1  0.3664744E+003  0.2231162E+02  0.7546771E-02  0.1501328E+00
          2   -1    0    0  502    0  0.00000000000E+00  0.00000000000E+00  0.49918066404E+03  0.49918066404E+03  0.00000000000E+00 0.  1.
          1   -1    0    0  501    0 -0.00000000000E+00 -0.00000000000E+00 -0.39411971192E+02  0.39411971192E+02  0.00000000000E+00 0. -1.
          2    1    1    2  501    0 -0.81983807625E+01 -0.20750782721E+02  0.49575179844E+03  0.49625361872E+03  0.00000000000E+00 0.  1.
          1    1    1    2  502    0  0.81983807625E+01  0.20750782721E+02 -0.35983105598E+02  0.42339016511E+02  0.00000000000E+00 0. -1.
</event>
<event>
 4    1  0.3664744E+003  0.2437884E+02  0.7546771E-02  0.1475874E+00
          2   -1    0    0  502    0  0.00000000000E+00  0.00000000000E+00  0.42744856009E+02  0.42744856009E+02  0.00000000000E+00 0.  1.
          1   -1    0    0  501    0 -0.00000000000E+00 -0.00000000000E+00 -0.22514172680E+02  0.22514172680E+02  0.00000000000E+00 0.  1.
          2    1    1    2  501    0 -0.14081574848E+02  0.19900686709E+02  0.30293727310E+02  0.38884932764E+02  0.00000000000E+00 0.  1.
          1    1    1    2  502    0  0.14081574848E+02 -0.19900686709E+02 -0.10063043981E+02  0.26374095925E+02  0.00000000000E+00 0.  1.
</event>
<event>
 4    1  0.3664744E+003  0.2098454E+02  0.7546771E-02  0.1519486E+00
          2   -1    0    0  502    0  0.00000000000E+00  0.00000000000E+00  0.75836176144E+03  0.75836176144E+03  0.00000000000E+00 0. -1.
          1   -1    0    0  501    0 -0.00000000000E+00 -0.00000000000E+00 -0.82909718776E+00  0.82909718776E+00  0.00000000000E+00 0. -1.
          2    1    1    2  501    0 -0.10501336045E+02  0.18167912796E+02  0.58655682058E+03  0.58693207008E+03  0.00000000000E+00 0. -1.
          1    1    1    2  502    0  0.10501336045E+02 -0.18167912796E+02  0.17097584367E+03  0.17225878855E+03  0.00000000000E+00 0. -1.
</event>
<event>
 4    1  0.3664744E+003  0.2074350E+02  0.7546771E-02  0.1522959E+00
          2   -1    0    0  502    0  0.00000000000E+00  0.00000000000E+00  0.16612330455E+03  0.16612330455E+03  0.00000000000E+00 0.  1.
          1   -1    0    0  501    0 -0.00000000000E+00 -0.00000000000E+00 -0.57726228894E+01  0.57726228894E+01  0.00000000000E+00 0. -1.
          2    1    1    2  501    0 -0.60314671351E+01 -0.19847276957E+02  0.14399107539E+03  0.14547756799E+03  0.00000000000E+00 0.  1.
          1    1    1    2  502    0  0.60314671351E+01  0.19847276957E+02  0.16359606277E+02  0.26418359448E+02  0.00000000000E+00 0. -1.
</event>
<event>
 4    1  0.3664744E+003  0.2663228E+02  0.7546771E-02  0.1451337E+00
          2   -1    0    0  502    0  0.00000000000E+00  0.00000000000E+00  0.20986522353E+03  0.20986522353E+03  0.00000000000E+00 0. -1.
          1   -1    0    0  501    0 -0.00000000000E+00 -0.00000000000E+00 -0.43462697857E+03  0.43462697857E+03  0.00000000000E+00 0.  1.
          2    1    1    2  501    0 -0.24441981319E+02  0.10576759237E+02  0.20860987613E+03  0.21030301639E+03  0.00000000000E+00 0. -1.
          1    1    1    2  502    0  0.24441981319E+02 -0.10576759237E+02 -0.43337163117E+03  0.43418918571E+03  0.00000000000E+00 0.  1.
</event>
<event>
 4    1  0.3664744E+003  0.3098616E+02  0.7546771E-02  0.1411216E+00
          2   -1    0    0  502    0  0.00000000000E+00  0.00000000000E+00  0.12258111073E+04  0.12258111073E+04  0.00000000000E+00 0. -1.
          1   -1    0    0  501    0 -0.00000000000E+00 -0.00000000000E+00 -0.44417882937E+02  0.44417882937E+02  0.00000000000E+00 0.  1.
          2    1    1    2  501    0  0.27761251015E+02 -0.13764257684E+02  0.12201863549E+04  0.12205797322E+04  0.00000000000E+00 0. -1.
          1    1    1    2  502    0 -0.27761251015E+02  0.13764257684E+02 -0.38793130562E+02  0.49649258064E+02  0.00000000000E+00 0.  1.
</event>
<event>
 4    1  0.3664744E+003  0.2932917E+02  0.7546771E-02  0.1425517E+00
          2   -1    0    0  502    0  0.00000000000E+00  0.00000000000E+00  0.43035722978E+03  0.43035722978E+03  0.00000000000E+00 0. -1.
          1   -1    0    0  501    0 -0.00000000000E+00 -0.00000000000E+00 -0.29327295262E+01  0.29327295262E+01  0.00000000000E+00 0.  1.
          2    1    1    2  501    0  0.28901647176E+02  0.49895176270E+01  0.33596773291E+03  0.33724548633E+03  0.00000000000E+00 0. -1.
          1    1    1    2  502    0 -0.28901647176E+02 -0.49895176270E+01  0.91456767350E+02  0.96044472979E+02  0.00000000000E+00 0.  1.
</event>
<event>
 4    1  0.3664744E+003  0.3359523E+02  0.7546771E-02  0.1390717E+00
          2   -1    0    0  502    0  0.00000000000E+00  0.00000000000E+00  0.17487299167E+04  0.17487299167E+04  0.00000000000E+00 0. -1.
          1   -1    0    0  501    0 -0.00000000000E+00 -0.00000000000E+00 -0.10663579599E+01  0.10663579599E+01  0.00000000000E+00 0.  1.
          2    1    1    2  501    0  0.67776443759E+01 -0.32904448143E+02  0.14235279698E+04  0.14239243378E+04  0.00000000000E+00 0. -1.
          1    1    1    2  502    0 -0.67776443759E+01  0.32904448143E+02  0.32413558900E+03  0.32587193685E+03  0.00000000000E+00 0.  1.
</event>
<event>
 4    1  0.3664744E+003  0.9985856E+02  0.7546771E-02  0.1164053E+00
          2   -1    0    0  502    0  0.00000000000E+00  0.00000000000E+00  0.15152519059E+04  0.15152519059E+04  0.00000000000E+00 0.  1.
          1   -1    0    0  501    0 -0.00000000000E+00 -0.00000000000E+00 -0.43692753486E+02  0.43692753486E+02  0.00000000000E+00 0. -1.
          2    1    1    2  501    0 -0.16789651979E+02 -0.98436982968E+02  0.14541563401E+04  0.14575810076E+04  0.00000000000E+00 0.  1.
          1    1    1    2  502    0  0.16789651979E+02  0.98436982968E+02  0.17402812231E+02  0.10136365178E+03  0.00000000000E+00 0. -1.
</event>
<event>
 4    1  0.3664744E+003  0.3211672E+02  0.7546771E-02  0.1402052E+00
          2   -1    0    0  502    0  0.00000000000E+00  0.00000000000E+00  0.33677349234E+01  0.33677349234E+01  0.00000000000E+00 0. -1.
          1   -1    0    0  501    0 -0.00000000000E+00 -0.00000000000E+00 -0.60712355039E+03  0.60712355039E+03  0.00000000000E+00 0. -1.
          2    1    1    2  501    0 -0.11385890351E+02 -0.30030741780E+02 -0.87006680480E+02  0.92745061320E+02  0.00000000000E+00 0. -1.
          1    1    1    2  502    0  0.11385890351E+02  0.30030741780E+02 -0.51674913499E+03  0.51774622399E+03  0.00000000000E+00 0. -1.
</event>
<event>
 4    1  0.3664744E+003  0.4337953E+02  0.7546771E-02  0.1329744E+00
          2   -1    0    0  502    0  0.00000000000E+00  0.00000000000E+00  0.19151881278E+04  0.19151881278E+04  0.00000000000E+00 0. -1.
          1   -1    0    0  501    0 -0.00000000000E+00 -0.00000000000E+00 -0.74971819059E+01  0.74971819059E+01  0.00000000000E+00 0.  1.
          2    1    1    2  501    0 -0.65248108360E+01  0.42886013518E+02  0.18499813491E+04  0.18504898745E+04  0.00000000000E+00 0. -1.
          1    1    1    2  502    0  0.65248108360E+01 -0.42886013518E+02  0.57709596721E+02  0.72195435213E+02  0.00000000000E+00 0.  1.
</event>
<event>
 4    1  0.3664744E+003  0.2582151E+02  0.7546771E-02  0.1459819E+00
          2   -1    0    0  502    0  0.00000000000E+00  0.00000000000E+00  0.21843339682E+03  0.21843339682E+03  0.00000000000E+00 0.  1.
          1   -1    0    0  501    0 -0.00000000000E+00 -0.00000000000E+00 -0.75626081568E+01  0.75626081568E+01  0.00000000000E+00 0.  1.
          2    1    1    2  501    0  0.25065867672E+02  0.62010140449E+01  0.19269883548E+03  0.19442117038E+03  0.00000000000E+00 0.  1.
          1    1    1    2  502    0 -0.25065867672E+02 -0.62010140449E+01  0.18171953188E+02  0.31574834600E+02  0.00000000000E+00 0.  1.
</event>
<event>
 4    1  0.3664744E+003  0.3339273E+02  0.7546771E-02  0.1392229E+00
          2   -1    0    0  502    0  0.00000000000E+00  0.00000000000E+00  0.42894292037E+03  0.42894292037E+03  0.00000000000E+00 0. -1.
          1   -1    0    0  501    0 -0.00000000000E+00 -0.00000000000E+00 -0.90414526249E+01  0.90414526249E+01  0.00000000000E+00 0.  1.
          2    1    1    2  501    0  0.13140279537E+02 -0.30698655909E+02  0.39479898516E+03  0.39620867369E+03  0.00000000000E+00 0. -1.
          1    1    1    2  502    0 -0.13140279537E+02  0.30698655909E+02  0.25102482591E+02  0.41775699314E+02  0.00000000000E+00 0.  1.
</event>
<event>
 4    1  0.3664744E+003  0.2377699E+02  0.7546771E-02  0.1482965E+00
          2   -1    0    0  502    0  0.00000000000E+00  0.00000000000E+00  0.29559404809E+02  0.29559404809E+02  0.00000000000E+00 0. -1.
          1   -1    0    0  501    0 -0.00000000000E+00 -0.00000000000E+00 -0.10569930575E+03  0.10569930575E+03  0.00000000000E+00 0. -1.
          2    1    1    2  501    0 -0.84954345412E+01 -0.22207490242E+02  0.23135749857E+02  0.33175411864E+02  0.00000000000E+00 0. -1.
          1    1    1    2  502    0  0.84954345412E+01  0.22207490242E+02 -0.99275650802E+02  0.10208329870E+03  0.00000000000E+00 0. -1.
</event>
<event>
 4    1  0.3664744E+003  0.2064762E+02  0.7546771E-02  0.1524356E+00
          2   -1    0    0  502    0  0.00000000000E+00  0.00000000000E+00  0.55530973960E+03  0.55530973960E+03  0.00000000000E+00 0. -1.
          1   -1    0    0  501    0 -0.00000000000E+00 -0.00000000000E+00 -0.10049268155E+01  0.10049268155E+01  0.00000000000E+00 0. -1.
          2    1    1    2  501    0 -0.62741078804E+01 -0.19671295830E+02  0.41229234564E+03  0.41280903888E+03  0.00000000000E+00 0. -1.
          1    1    1    2  502    0  0.62741078804E+01  0.19671295830E+02  0.14201246715E+03  0.14350562754E+03  0.00000000000E+00 0. -1.
</event>
<event>
 4    1  0.3664744E+003  0.2742203E+02  0.7546771E-02  0.1443414E+00
          2   -1    0    0  502    0  0.00000000000E+00  0.00000000000E+00  0.27705608786E+03  0.27705608786E+03  0.00000000000E+00 0.  1.
          1   -1    0    0  501    0 -0.00000000000E+00 -0.00000000000E+00 -0.40077251340E+03  0.40077251340E+03  0.00000000000E+00 0.  1.
          2    1    1    2  501    0 -0.27355860117E+02  0.19038697867E+01  0.27590653041E+03  0.27726590364E+03  0.00000000000E+00 0.  1.
          1    1    1    2  502    0  0.27355860117E+02 -0.19038697867E+01 -0.39962295595E+03  0.40056269762E+03  0.00000000000E+00 0.  1.
</event>
<event>
 4    1  0.3664744E+003  0.2246372E+02  0.7546771E-02  0.1499344E+00
          2   -1    0    0  502    0  0.00000000000E+00  0.00000000000E+00  0.72768786749E+03  0.72768786749E+03  0.00000000000E+00 0. -1.
          1   -1    0    0  501    0 -0.00000000000E+00 -0.00000000000E+00 -0.12274652465E+01  0.12274652465E+01  0.00000000000E+00 0.  1.
          2    1    1    2  501    0  0.22131400216E+02 -0.38496349357E+01  0.60362076094E+03  0.60403860937E+03  0.00000000000E+00 0. -1.
          1    1    1    2  502    0 -0.22131400216E+02  0.38496349357E+01  0.12283964130E+03  0.12487672336E+03  0.00000000000E+00 0.  1.
</event>
<event>
 4    1  0.3664744E+003  0.2487082E+02  0.7546771E-02  0.1470254E+00
          2   -1    0    0  502    0  0.00000000000E+00  0.00000000000E+00  0.10648602324E+04  0.10648602324E+04  0.00000000000E+00 0. -1.
          1   -1    0    0  501    0 -0.00000000000E+00 -0.00000000000E+00 -0.81176193373E+00  0.81176193373E+00  0.00000000000E+00 0.  1.
          2    1    1    2  501    0 -0.14313598175E+02  0.20339087636E+02  0.81619068923E+03  0.81656953088E+03  0.00000000000E+00 0. -1.
          1    1    1    2  502    0  0.14313598175E+02 -0.20339087636E+02  0.24785778126E+03  0.24910246347E+03  0.00000000000E+00 0.  1.
</event>
<event>
 4    1  0.3664744E+003  0.2035891E+02  0.7546771E-02  0.1528618E+00
          2   -1    0    0  502    0  0.00000000000E+00  0.00000000000E+00  0.63238880422E+02  0.63238880422E+02  0.00000000000E+00 0. -1.
          1   -1    0    0  501    0 -0.00000000000E+00 -0.00000000000E+00 -0.33862048252E+02  0.33862048252E+02  0.00000000000E+00 0.  1.
          2    1    1    2  501    0 -0.16866724258E+02  0.11401703018E+02  0.58287753961E+02  0.61740970844E+02  0.00000000000E+00 0. -1.
          1    1    1    2  502    0  0.16866724258E+02 -0.11401703018E+02 -0.28910921791E+02  0.35359957830E+02  0.00000000000E+00 0.  1.
</event>
<event>
 4    1  0.3664744E+003  0.3339339E+02  0.7546771E-02  0.1392224E+00
          2   -1    0    0  502    0  0.00000000000E+00  0.00000000000E+00  0.61720737807E+02  0.61720737807E+02  0.00000000000E+00 0.  1.
          1   -1    0    0  501    0 -0.00000000000E+00 -0.00000000000E+00 -0.19932861429E+03  0.19932861429E+03  0.00000000000E+00 0.  1.
          2    1    1    2  501    0  0.33367896248E+02  0.13046152019E+01  0.55664869275E+02  0.64912989395E+02  0.00000000000E+00 0.  1.
          1    1    1    2  502    0 -0.33367896248E+02 -0.13046152019E+01 -0.19327274576E+03  0.19613636270E+03  0.00000000000E+00 0.  1.
</event>
<event>
 4    1  0.3664744E+003  0.3670737E+02  0.7546771E-02  0.1368941E+00
          2   -1    0    0  502    0  0.00000000000E+00  0.00000000000E+00  0.72795703757E+01  0.72795703757E+01  0.00000000000E+00 0.  1.
          1   -1    0    0  501    0 -0.00000000000E+00 -0.00000000000E+00 -0.25918248500E+03  0.25918248500E+03  0.00000000000E+00 0. -1.
          2    1    1    2  501    0 -0.22632893066E+02  0.28899531794E+02 -0.54720718832E+02  0.65892244277E+02  0.00000000000E+00 0.  1.
          1    1    1    2  502    0  0.22632893066E+02 -0.28899531794E+02 -0.19718219579E+03  0.20056981110E+03  0.00000000000E+00 0. -1.
</event>
<event>
 4    1  0.3664744E+003  0.2369504E+02  0.7546771E-02  0.1483950E+00
          2   -1    0    0  502    0  0.00000000000E+00  0.00000000000E+00  0.50379365385E+03  0.50379365385E+03  0.00000000000E+00 0. -1.
          1   -1    0    0  501    0 -0.00000000000E+00 -0.00000000000E+00 -0.17257586210E+02  0.17257586210E+02  0.00000000000E+00 0.  1.
          2    1    1    2  501    0 -0.23633417884E+02  0.17077061119E+01  0.49524121454E+03  0.49580774024E+03  0.00000000000E+00 0. -1.
          1    1    1    2  502    0  0.23633417884E+02 -0.17077061119E+01 -0.87051468953E+01  0.25243499827E+02  0.00000000000E+00 0.  1.
</event>
<event>
 4    1  0.3664744E+003  0.2703558E+02  0.7546771E-02  0.1447251E+00
          2   -1    0    0  502    0  0.00000000000E+00  0.00000000000E+00  0.54321063313E+03  0.54321063313E+03  0.00000000000E+00 0. -1.
          1   -1    0    0  501    0 -0.00000000000E+00 -0.00000000000E+00 -0.37549210893E+02  0.37549210893E+02  0.00000000000E+00 0. -1.
          2    1    1    2  501    0 -0.16594439496E+02  0.21343546882E+02  0.53796034871E+03  0.53863926630E+03  0.00000000000E+00 0. -1.
          1    1    1    2  502    0  0.16594439496E+02 -0.21343546882E+02 -0.32298926478E+02  0.42120577719E+02  0.00000000000E+00 0. -1.
</event>
<event>
 4    1  0.3848908E+003  0.2640894E+02  0.7546771E-02  0.1453637E+00
          2   -1    0    0  502    0  0.00000000000E+00  0.00000000000E+00  0.99642946977E+03  0.99642946977E+03  0.00000000000E+00 0.  1.
          1   -1    0    0  501    0 -0.00000000000E+00 -0.00000000000E+00 -0.41916208313E+03  0.41916208313E+03  0.00000000000E+00 0.  1.
          2    1    1    2  501    0 -0.46361953844E+01  0.25998805561E+02  0.99583827195E+03  0.99618838383E+03  0.00000000000E+00 0.  1.
          1    1    1    2  502    0  0.46361953844E+01 -0.25998805561E+02 -0.41857088531E+03  0.41940316907E+03  0.00000000000E+00 0.  1.
</event>
<event>
 4    1  0.3664744E+003  0.3001085E+02  0.7546771E-02  0.1419502E+00
          2   -1    0    0  502    0  0.00000000000E+00  0.00000000000E+00  0.15879473185E+03  0.15879473185E+03  0.00000000000E+00 0. -1.
          1   -1    0    0  501    0 -0.00000000000E+00 -0.00000000000E+00 -0.70635616101E+03  0.70635616101E+03  0.00000000000E+00 0. -1.
          2    1    1    2  501    0  0.42051493369E+01 -0.29714777211E+02  0.15705451588E+03  0.15989612949E+03  0.00000000000E+00 0. -1.
          1    1    1    2  502    0 -0.42051493369E+01  0.29714777211E+02 -0.70461594504E+03  0.70525476338E+03  0.00000000000E+00 0. -1.
</event>
<event>
 4    1  0.3664744E+003  0.2061370E+02  0.7546771E-02  0.1524852E+00
          2   -1    0    0  502    0  0.00000000000E+00  0.00000000000E+00  0.44956051521E+00  0.44956051521E+00  0.00000000000E+00 0. -1.
          1   -1    0    0  501    0 -0.00000000000E+00 -0.00000000000E+00 -0.16910079964E+04  0.16910079964E+04  0.00000000000E+00 0. -1.
          2    1    1    2  501    0  0.15576507040E+02 -0.13501742305E+02 -0.28362143083E+03  0.28436954943E+03  0.00000000000E+00 0. -1.
          1    1    1    2  502    0 -0.15576507040E+02  0.13501742305E+02 -0.14069370050E+04  0.14070880074E+04  0.00000000000E+00 0. -1.
</event>
<event>
 4    1  0.3664744E+003  0.2492277E+02  0.7546771E-02  0.1469669E+00
          2   -1    0    0  502    0  0.00000000000E+00  0.00000000000E+00  0.45446226300E+02  0.45446226300E+02  0.00000000000E+00 0.  1.
          1   -1    0    0  501    0 -0.00000000000E+00 -0.00000000000E+00 -0.26501465613E+03  0.26501465613E+03  0.00000000000E+00 0. -1.
          2    1    1    2  501    0  0.24599170892E+02  0.40031350500E+01  0.41390368830E+02  0.48314665793E+02  0.00000000000E+00 0.  1.
          1    1    1    2  502    0 -0.24599170892E+02 -0.40031350500E+01 -0.26095879866E+03  0.26214621664E+03  0.00000000000E+00 0. -1.
</event>
<event>
 4    1  0.3664744E+003  0.2396724E+02  0.7546771E-02  0.1480697E+00
          2   -1    0    0  502    0  0.00000000000E+00  0.00000000000E+00  0.57003124239E+02  0.57003124239E+02  0.00000000000E+00 0.  1.
          1   -1    0    0  501    0 -0.00000000000E+00 -0.00000000000E+00 -0.24330439452E+02  0.24330439452E+02  0.00000000000E+00 0. -1.
          2    1    1    2  501    0  0.23659467236E+02  0.38285840997E+01  0.47462286896E+02  0.53170453482E+02  0.00000000000E+00 0.  1.
          1    1    1    2  502    0 -0.23659467236E+02 -0.38285840997E+01 -0.14789602109E+02  0.28163110209E+02  0.00000000000E+00 0. -1.
</event>
<event>
 4    1  0.3664744E+003  0.5605691E+02  0.7546771E-02  0.1273852E+00
          2   -1    0    0  502    0  0.00000000000E+00  0.00000000000E+00  0.12417865975E+04  0.12417865975E+04  0.00000000000E+00 0.  1.
          1   -1    0    0  501    0 -0.00000000000E+00 -0.00000000000E+00 -0.35802798804E+01  0.35802798804E+01  0.00000000000E+00 0.  1.
          2    1    1    2  501    0  0.37711647117E+02  0.41475396591E+02  0.95627552541E+03  0.95791714535E+03  0.00000000000E+00 0.  1.
          1    1    1    2  502    0 -0.37711647117E+02 -0.41475396591E+02  0.28193079223E+03  0.28744973205E+03  0.00000000000E+00 0.  1.
</event>
<event>
 4    1  0.3664744E+003  0.3613952E+02  0.7546771E-02  0.1372724E+00
          2   -1    0    0  502    0  0.00000000000E+00  0.00000000000E+00  0.17946435701E+02  0.17946435701E+02  0.00000000000E+00 0. -1.
          1   -1    0    0  501    0 -0.00000000000E+00 -0.00000000000E+00 -0.18686411420E+03  0.18686411420E+03  0.00000000000E+00 0. -1.
          2    1    1    2  501    0 -0.31974864689E+02  0.16842583744E+02 -0.44422330176E+01  0.36411509626E+02  0.00000000000E+00 0. -1.
          1    1    1    2  502    0  0.31974864689E+02 -0.16842583744E+02 -0.16447544549E+03  0.16839904028E+03  0.00000000000E+00 0. -1.
</event>
<event>
 4    1  0.3664744E+003  0.2132103E+02  0.7546771E-02  0.1514730E+00
          2   -1    0    0  502    0  0.00000000000E+00  0.00000000000E+00  0.12862370517E+04  0.12862370517E+04  0.00000000000E+00 0. -1.
          1   -1    0    0  501    0 -0.00000000000E+00 -0.00000000000E+00 -0.25833552725E+02  0.25833552725E+02  0.00000000000E+00 0.  1.
          2    1    1    2  501    0 -0.19404586731E+02 -0.88344944428E+01  0.12817340570E+04  0.12819113773E+04  0.00000000000E+00 0. -1.
          1    1    1    2  502    0  0.19404586731E+02  0.88344944428E+01 -0.21330558017E+02  0.30159227171E+02  0.00000000000E+00 0.  1.
</event>
<event>
 4    1  0.3664744E+003  0.2074892E+02  0.7546771E-02  0.1522880E+00
          2   -1    0    0  502    0  0.00000000000E+00  0.00000000000E+00  0.18073000916E+03  0.18073000916E+03  0.00000000000E+00 0. -1.
          1   -1    0    0  501    0 -0.00000000000E+00 -0.00000000000E+00 -0.23811262836E+02  0.23811262836E+02  0.00000000000E+00 0. -1.
          2    1    1    2  501    0 -0.13055840195E+02  0.16126466153E+02  0.17547960168E+03  0.17670203304E+03  0.00000000000E+00 0. -1.
          1    1    1    2  502    0  0.13055840195E+02 -0.16126466153E+02 -0.18560855360E+02  0.27839238953E+02  0.00000000000E+00 0. -1.
</event>
<event>
 4    1  0.3664744E+003  0.2093441E+02  0.7546771E-02  0.1520203E+00
          2   -1    0    0  502    0  0.00000000000E+00  0.00000000000E+00  0.50774687598E+01  0.50774687598E+01  0.00000000000E+00 0.  1.
          1   -1    0    0  501    0 -0.00000000000E+00 -0.00000000000E+00 -0.97919722775E+02  0.97919722775E+02  0.00000000000E+00 0.  1.
          2    1    1    2  501    0  0.16111346281E+02  0.13366888113E+02 -0.64151745706E+02  0.67481076265E+02  0.00000000000E+00 0.  1.
          1    1    1    2  502    0 -0.16111346281E+02 -0.13366888113E+02 -0.28690508310E+02  0.35516115270E+02  0.00000000000E+00 0.  1.
</event>
<event>
 4    1  0.3664744E+003  0.2032510E+02  0.7546771E-02  0.1529123E+00
          2   -1    0    0  502    0  0.00000000000E+00  0.00000000000E+00  0.10530798722E+02  0.10530798722E+02  0.00000000000E+00 0.  1.
          1   -1    0    0  501    0 -0.00000000000E+00 -0.00000000000E+00 -0.14770774723E+03  0.14770774723E+03  0.00000000000E+00 0. -1.
          2    1    1    2  501    0 -0.13963036672E+02  0.14769670392E+02 -0.78474527655E+00  0.20340240454E+02  0.00000000000E+00 0.  1.
          1    1    1    2  502    0  0.13963036672E+02 -0.14769670392E+02 -0.13639220323E+03  0.13789830550E+03  0.00000000000E+00 0. -1.
</event>
<event>
 4    1  0.3664744E+003  0.3434580E+02  0.7546771E-02  0.1385222E+00
          2   -1    0    0  502    0  0.00000000000E+00  0.00000000000E+00  0.60565651040E+03  0.60565651040E+03  0.00000000000E+00 0. -1.
          1   -1    0    0  501    0 -0.00000000000E+00 -0.00000000000E+00 -0.24794197994E+02  0.24794197994E+02  0.00000000000E+00 0. -1.
          2    1    1    2  501    0 -0.31539079367E+02  0.13598549927E+02  0.59302213561E+03  0.59401589828E+03  0.00000000000E+00 0. -1.
          1    1    1    2  502    0  0.31539079367E+02 -0.13598549927E+02 -0.12159823206E+02  0.36434810111E+02  0.00000000000E+00 0. -1.
</event>
<event>
 4    1  0.3664744E+003  0.2246914E+02  0.7546771E-02  0.1499274E+00
          2   -1    0    0  502    0  0.00000000000E+00  0.00000000000E+00  0.43095658374E+02  0.43095658374E+02  0.00000000000E+00 0. -1.
          1   -1    0    0  501    0 -0.00000000000E+00 -0.00000000000E+00 -0.12845534124E+02  0.12845534124E+02  0.00000000000E+00 0. -1.
          2    1    1    2  501    0  0.17086726560E+02  0.14591276330E+02  0.68268294026E+01  0.23483338118E+02  0.00000000000E+00 0. -1.
          1    1    1    2  502    0 -0.17086726560E+02 -0.14591276330E+02  0.23423294847E+02  0.32457854380E+02  0.00000000000E+00 0. -1.
</event>
<event>
 4    1  0.3664744E+003  0.3384935E+02  0.7546771E-02  0.1388838E+00
          2   -1    0    0  502    0  0.00000000000E+00  0.00000000000E+00  0.19535275715E+04  0.19535275715E+04  0.00000000000E+00 0.  1.
          1   -1    0    0  501    0 -0.00000000000E+00 -0.00000000000E+00 -0.48420019530E+01  0.48420019530E+01  0.00000000000E+00 0. -1.
          2    1    1    2  501    0 -0.18753310398E+02 -0.28179631252E+02  0.18923089564E+04  0.18926116782E+04  0.00000000000E+00 0.  1.
          1    1    1    2  502    0  0.18753310398E+02  0.28179631252E+02  0.56376613146E+02  0.65757895178E+02  0.00000000000E+00 0. -1.
</event>
<event>
 4    1  0.3664744E+003  0.2176562E+02  0.7546771E-02  0.1508609E+00
          2   -1    0    0  502    0  0.00000000000E+00  0.00000000000E+00  0.10793536970E+02  0.10793536970E+02  0.00000000000E+00 0.  1.
          1   -1    0    0  501    0 -0.00000000000E+00 -0.00000000000E+00 -0.48470606659E+03  0.48470606659E+03  0.00000000000E+00 0. -1.
          2    1    1    2  501    0  0.12073758605E+02 -0.18109843429E+02 -0.68975354488E+00  0.21776543248E+02  0.00000000000E+00 0.  1.
          1    1    1    2  502    0 -0.12073758605E+02  0.18109843429E+02 -0.47322277607E+03  0.47372306031E+03  0.00000000000E+00 0. -1.
</event>
<event>
 4    1  0.3664744E+003  0.2311326E+02  0.7546771E-02  0.1491081E+00
          2   -1    0    0  502    0  0.00000000000E+00  0.00000000000E+00  0.19622476075E+03  0.19622476075E+03  0.00000000000E+00 0.  1.
          1   -1    0    0  501    0 -0.00000000000E+00 -0.00000000000E+00 -0.11328462238E+04  0.11328462238E+04  0.00000000000E+00 0.  1.
          2    1    1    2  501    0 -0.11093389244E+01  0.23086626500E+02  0.19542576012E+03  0.19678783162E+03  0.00000000000E+00 0.  1.
          1    1    1    2  502    0  0.11093389244E+01 -0.23086626500E+02 -0.11320472232E+04  0.11322831530E+04  0.00000000000E+00 0.  1.
</event>
<event>
 4    1  0.3664744E+003  0.3810940E+02  0.7546771E-02  0.1359936E+00
          2   -1    0    0  502    0  0.00000000000E+00  0.00000000000E+00  0.87800518079E+02  0.87800518079E+02  0.00000000000E+00 0. -1.
          1   -1    0    0  501    0 -0.00000000000E+00 -0.00000000000E+00 -0.31206718305E+03  0.31206718305E+03  0.00000000000E+00 0. -1.
          2    1    1    2  501    0  0.11073776604E+02  0.36465018802E+02  0.82429604558E+02  0.90812806542E+02  0.00000000000E+00 0. -1.
          1    1    1    2  502    0 -0.11073776604E+02 -0.36465018802E+02 -0.30669626953E+03  0.30905489459E+03  0.00000000000E+00 0. -1.
</event>
<event>
 4    1  0.3664744E+003  0.2613386E+02  0.7546771E-02  0.1456508E+00
          2   -1    0    0  502    0  0.00000000000E+00  0.00000000000E+00  0.18886837551E+03  0.18886837551E+03  0.00000000000E+00 0.  1.
          1   -1    0    0  501    0 -0.00000000000E+00 -0.00000000000E+00 -0.55454704992E+03  0.55454704992E+03  0.00000000000E+00 0. -1.
          2    1    1    2  501    0 -0.11270761535E+02  0.23578563975E+02  0.18765445330E+03  0.18946549181E+03  0.00000000000E+00 0.  1.
          1    1    1    2  502    0  0.11270761535E+02 -0.23578563975E+02 -0.55333312771E+03  0.55394993363E+03  0.00000000000E+00 0. -1.
</event>
<event>
 4    1  0.3664744E+003  0.2782405E+02  0.7546771E-02  0.1439501E+00
          2   -1    0    0  502    0  0.00000000000E+00  0.00000000000E+00  0.12578774752E+03  0.12578774752E+03  0.00000000000E+00 0. -1.
          1   -1    0    0  501    0 -0.00000000000E+00 -0.00000000000E+00 -0.61558093688E+01  0.61558093688E+01  0.00000000000E+00 0.  1.
          2    1    1    2  501    0  0.23651923053E+02 -0.14654819677E+02  0.58903313305E+02  0.65144282345E+02  0.00000000000E+00 0. -1.
          1    1    1    2  502    0 -0.23651923053E+02  0.14654819677E+02  0.60728624841E+02  0.66799274539E+02  0.00000000000E+00 0.  1.
</event>
<event>
 4    1  0.3664744E+003  0.2262931E+02  0.7546771E-02  0.1497206E+00
          2   -1    0    0  502    0  0.00000000000E+00  0.00000000000E+00  0.18181324817E+03  0.18181324817E+03  0.00000000000E+00 0. -1.
          1   -1    0    0  501    0 -0.00000000000E+00 -0.00000000000E+00 -0.16419178074E+02  0.16419178074E+02  0.00000000000E+00 0.  1.
          2    1    1    2  501    0  0.46448451848E+01  0.22147481576E+02  0.17291238888E+03  0.17438686807E+03  0.00000000000E+00 0. -1.
          1    1    1    2  502    0 -0.46448451848E+01 -0.22147481576E+02 -0.75183187897E+01  0.23845558169E+02  0.00000000000E+00 0.  1.
</event>
<event>
 4    1  0.3664744E+003  0.2125206E+02  0.7546771E-02  0.1515696E+00
          2   -1    0    0  502    0  0.00000000000E+00  0.00000000000E+00  0.15314034494E+04  0.15314034494E+04  0.00000000000E+00 0.  1.
          1   -1    0    0  501    0 -0.00000000000E+00 -0.00000000000E+00 -0.20097499487E+02  0.20097499487E+02  0.00000000000E+00 0. -1.
          2    1    1    2  501    0  0.21223473820E+02  0.11019495404E+01  0.15256904434E+04  0.15258384513E+04  0.00000000000E+00 0.  1.
          1    1    1    2  502    0 -0.21223473820E+02 -0.11019495404E+01 -0.14384493487E+02  0.25662497670E+02  0.00000000000E+00 0. -1.
</event>
<event>
 4    1  0.3664744E+003  0.3160323E+02  0.7546771E-02  0.1406158E+00
          2   -1    0    0  502    0  0.00000000000E+00  0.00000000000E+00  0.19248726586E+04  0.19248726586E+04  0.00000000000E+00 0.  1.
          1   -1    0    0  501    0 -0.00000000000E+00 -0.00000000000E+00 -0.12789546570E+01  0.12789546570E+01  0.00000000000E+00 0.  1.
          2    1    1    2  501    0  0.23842833209E+02  0.20743269560E+02  0.17042398280E+04  0.17045328261E+04  0.00000000000E+00 0.  1.
          1    1    1    2  502    0 -0.23842833209E+02 -0.20743269560E+02  0.21935387592E+03  0.22161878713E+03  0.00000000000E+00 0.  1.
</event>
<event>
 4    1  0.3664744E+003  0.4416560E+02  0.7546771E-02  0.1325665E+00
          2   -1    0    0  502    0  0.00000000000E+00  0.00000000000E+00  0.43970929556E+03  0.43970929556E+03  0.00000000000E+00 0.  1.
          1   -1    0    0  501    0 -0.00000000000E+00 -0.00000000000E+00 -0.20043813139E+02  0.20043813139E+02  0.00000000000E+00 0. -1.
          2    1    1    2  501    0  0.33799061425E+02  0.28429269228E+02  0.41268225423E+03  0.41503884500E+03  0.00000000000E+00 0.  1.
          1    1    1    2  502    0 -0.33799061425E+02 -0.28429269228E+02  0.69832281887E+01  0.44714263697E+02  0.00000000000E+00 0. -1.
</event>
<event>
 4    1  0.3664744E+003  0.2847221E+02  0.7546771E-02  0.1433355E+00
          2   -1    0    0  502    0  0.00000000000E+00  0.00000000000E+00  0.24841760869E+03  0.24841760869E+03  0.00000000000E+00 0.  1.
          1   -1    0    0  501    0 -0.00000000000E+00 -0.00000000000E+00 -0.67652674724E+01  0.67652674724E+01  0.00000000000E+00 0. -1.
          2    1    1    2  501    0  0.27882966620E+02 -0.57625543641E+01  0.21262426867E+03  0.21452213519E+03  0.00000000000E+00 0.  1.
          1    1    1    2  502    0 -0.27882966620E+02  0.57625543641E+01  0.29028072547E+02  0.40660740969E+02  0.00000000000E+00 0. -1.
</event>
<event>
 4    1  0.3664744E+003  0.2116445E+02  0.7546771E-02  0.1516930E+00
          2   -1    0    0  502    0  0.00000000000E+00  0.00000000000E+00  0.35317315844E+02  0.35317315844E+02  0.00000000000E+00 0.  1.
          1   -1    0    0  501    0 -0.00000000000E+00 -0.00000000000E+00 -0.25288283494E+02  0.25288283494E+02  0.00000000000E+00 0.  1.
          2    1    1    2  501    0  0.15148394349E+02  0.14780391210E+02  0.26408777233E+02  0.33843128262E+02  0.00000000000E+00 0.  1.
          1    1    1    2  502    0 -0.15148394349E+02 -0.14780391210E+02 -0.16379744883E+02  0.26762471076E+02  0.00000000000E+00 0.  1.
</event>
<event>
 4    1  0.3664744E+003  0.3794537E+02  0.7546771E-02  0.1360965E+00
          2   -1    0    0  502    0  0.00000000000E+00  0.00000000000E+00  0.25557920674E+03  0.25557920674E+03  0.00000000000E+00 0.  1.
          1   -1    0    0  501    0 -0.00000000000E+00 -0.00000000000E+00 -0.92821289782E+03  0.92821289782E+03  0.00000000000E+00 0.  1.
          2    1    1    2  501    0  0.14513152649E+02  0.35060227162E+02  0.25378025132E+03  0.25660137780E+03  0.00000000000E+00 0.  1.
          1    1    1    2  502    0 -0.14513152649E+02 -0.35060227162E+02 -0.92641394239E+03  0.92719072676E+03  0.00000000000E+00 0.  1.
</event>
<event>
 4    1  0.3664744E+003  0.3842550E+02  0.7546771E-02  0.1357968E+00
          2   -1    0    0  502    0  0.00000000000E+00  0.00000000000E+00  0.23806436177E+02  0.23806436177E+02  0.00000000000E+00 0.  1.
          1   -1    0    0  501    0 -0.00000000000E+00 -0.00000000000E+00 -0.14278071450E+03  0.14278071450E+03  0.00000000000E+00 0.  1.
          2    1    1    2  501    0  0.78348474171E+01 -0.37618270095E+02  0.31557595843E+01  0.38554868662E+02  0.00000000000E+00 0.  1.
          1    1    1    2  502    0 -0.78348474171E+01  0.37618270095E+02 -0.12213003791E+03  0.12803228202E+03  0.00000000000E+00 0.  1.
</event>
<event>
 4    1  0.3664744E+003  0.3845635E+02  0.7546771E-02  0.1357777E+00
          2   -1    0    0  502    0  0.00000000000E+00  0.00000000000E+00  0.70631847320E+01  0.70631847320E+01  0.00000000000E+00 0. -1.
          1   -1    0    0  501    0 -0.00000000000E+00 -0.00000000000E+00 -0.45657961268E+03  0.45657961268E+03  0.00000000000E+00 0. -1.
          2    1    1    2  501    0  0.34337194192E+02  0.17316108262E+02 -0.54181773955E+02  0.66442118715E+02  0.00000000000E+00 0. -1.
          1    1    1    2  502    0 -0.34337194192E+02 -0.17316108262E+02 -0.39533465399E+03  0.39720067870E+03  0.00000000000E+00 0. -1.
</event>
<event>
 4    1  0.3664744E+003  0.4555983E+02  0.7546771E-02  0.1318663E+00
          2   -1    0    0  502    0  0.00000000000E+00  0.00000000000E+00  0.16525144759E+04  0.16525144759E+04  0.00000000000E+00 0.  1.
          1   -1    0    0  501    0 -0.00000000000E+00 -0.00000000000E+00 -0.12504770714E+04  0.12504770714E+04  0.00000000000E+00 0. -1.
          2    1    1    2  501    0  0.43655229787E+02  0.13035316186E+02  0.16517852902E+04  0.16524134905E+04  0.00000000000E+00 0.  1.
          1    1    1    2  502    0 -0.43655229787E+02 -0.13035316186E+02 -0.12497478856E+04  0.12505780568E+04  0.00000000000E+00 0. -1.
</event>
<event>
 4    1  0.3664744E+003  0.2794152E+02  0.7546771E-02  0.1438373E+00
          2   -1    0    0  502    0  0.00000000000E+00  0.00000000000E+00  0.80804545172E+03  0.80804545172E+03  0.00000000000E+00 0. -1.
          1   -1    0    0  501    0 -0.00000000000E+00 -0.00000000000E+00 -0.11031636045E+02  0.11031636045E+02  0.00000000000E+00 0.  1.
          2    1    1    2  501    0  0.12115589744E+02 -0.25178185621E+02  0.78970006441E+03  0.79019422946E+03  0.00000000000E+00 0. -1.
          1    1    1    2  502    0 -0.12115589744E+02  0.25178185621E+02  0.73137512613E+01  0.28882858299E+02  0.00000000000E+00 0.  1.
</event>
<event>
 4    1  0.3664744E+003  0.2809874E+02  0.7546771E-02  0.1436873E+00
          2   -1    0    0  502    0  0.00000000000E+00  0.00000000000E+00  0.84195566770E+03  0.84195566770E+03  0.00000000000E+00 0. -1.
          1   -1    0    0  501    0 -0.00000000000E+00 -0.00000000000E+00 -0.68761368938E+01  0.68761368938E+01  0.00000000000E+00 0. -1.
          2    1    1    2  501    0  0.28044282323E+02 -0.17485765244E+01  0.81195514092E+03  0.81244119182E+03  0.00000000000E+00 0. -1.
          1    1    1    2  502    0 -0.28044282323E+02  0.17485765244E+01  0.23124389889E+02  0.36390612781E+02  0.00000000000E+00 0. -1.
</event>
<event>
 4    1  0.3664744E+003  0.2234262E+02  0.7546771E-02  0.1500922E+00
          2   -1    0    0  502    0  0.00000000000E+00  0.00000000000E+00  0.16722607059E+01  0.16722607059E+01  0.00000000000E+00 0. -1.
          1   -1    0    0  501    0 -0.00000000000E+00 -0.00000000000E+00 -0.82942194375E+03  0.82942194375E+03  0.00000000000E+00 0.  1.
          2    1    1    2  501    0 -0.14892865198E+02  0.16655185946E+02 -0.81412659344E+02  0.84422827210E+02  0.00000000000E+00 0. -1.
          1    1    1    2  502    0  0.14892865198E+02 -0.16655185946E+02 -0.74633702370E+03  0.74667137725E+03  0.00000000000E+00 0.  1.
</event>
<event>
 4    1  0.3664744E+003  0.2989262E+02  0.7546771E-02  0.1420532E+00
          2   -1    0    0  502    0  0.00000000000E+00  0.00000000000E+00  0.47890389149E+01  0.47890389149E+01  0.00000000000E+00 0.  1.
          1   -1    0    0  501    0 -0.00000000000E+00 -0.00000000000E+00 -0.28407858032E+03  0.28407858032E+03  0.00000000000E+00 0.  1.
          2    1    1    2  501    0  0.89826476162E+01  0.28511067025E+02 -0.55032216306E+02  0.62626781273E+02  0.00000000000E+00 0.  1.
          1    1    1    2  502    0 -0.89826476162E+01 -0.28511067025E+02 -0.22425732510E+03  0.22624083796E+03  0.00000000000E+00 0.  1.
</event>
<event>
 4    1  0.3664744E+003  0.5224488E+02  0.7546771E-02  0.1288722E+00
          2   -1    0    0  502    0  0.00000000000E+00  0.00000000000E+00  0.25308506101E+03  0.25308506101E+03  0.00000000000E+00 0.  1.
          1   -1    0    0  501    0 -0.00000000000E+00 -0.00000000000E+00 -0.10852319998E+02  0.10852319998E+02  0.00000000000E+00 0.  1.
          2    1    1    2  501    0  0.31517274680E+02  0.41667599714E+02  0.13150879377E+03  0.14150650270E+03  0.00000000000E+00 0.  1.
          1    1    1    2  502    0 -0.31517274680E+02 -0.41667599714E+02  0.11072394724E+03  0.12243087830E+03  0.00000000000E+00 0.  1.
</event>
<event>
 4    1  0.3664744E+003  0.2311096E+02  0.7546771E-02  0.1491109E+00
          2   -1    0    0  502    0  0.00000000000E+00  0.00000000000E+00  0.20827204133E+03  0.20827204133E+03  0.00000000000E+00 0. -1.
          1   -1    0    0  501    0 -0.00000000000E+00 -0.00000000000E+00 -0.38277529402E+01  0.38277529402E+01  0.00000000000E+00 0. -1.
          2    1    1    2  501    0 -0.15051602666E+02 -0.17537555045E+02  0.16314511082E+03  0.16477391712E+03  0.00000000000E+00 0. -1.
          1    1    1    2  502    0  0.15051602666E+02  0.17537555045E+02  0.41299177571E+02  0.47325877148E+02  0.00000000000E+00 0. -1.
</event>
<event>
 4    1  0.3664744E+003  0.2134082E+02  0.7546771E-02  0.1514454E+00
          2   -1    0    0  502    0  0.00000000000E+00  0.00000000000E+00  0.14895938865E+04  0.14895938865E+04  0.00000000000E+00 0. -1.
          1   -1    0    0  501    0 -0.00000000000E+00 -0.00000000000E+00 -0.94715190769E+00  0.94715190769E+00  0.00000000000E+00 0. -1.
          2    1    1    2  501    0  0.70537500576E+01 -0.20141382019E+02  0.13576221835E+04  0.13577899042E+04  0.00000000000E+00 0. -1.
          1    1    1    2  502    0 -0.70537500576E+01  0.20141382019E+02  0.13102455101E+03  0.13275113418E+03  0.00000000000E+00 0. -1.
</event>
<event>
 4    1  0.3664744E+003  0.2554782E+02  0.7546771E-02  0.1462767E+00
          2   -1    0    0  502    0  0.00000000000E+00  0.00000000000E+00  0.14594844521E+04  0.14594844521E+04  0.00000000000E+00 0.  1.
          1   -1    0    0  501    0 -0.00000000000E+00 -0.00000000000E+00 -0.13691341228E+01  0.13691341228E+01  0.00000000000E+00 0. -1.
          2    1    1    2  501    0 -0.25304345898E+02  0.35187167107E+01  0.13284373929E+04  0.13286830315E+04  0.00000000000E+00 0.  1.
          1    1    1    2  502    0  0.25304345898E+02 -0.35187167107E+01  0.12967792507E+03  0.13217055474E+03  0.00000000000E+00 0. -1.
</event>
<event>
 4    1  0.3664744E+003  0.2718764E+02  0.7546771E-02  0.1445732E+00
          2   -1    0    0  502    0  0.00000000000E+00  0.00000000000E+00  0.85073122462E+00  0.85073122462E+00  0.00000000000E+00 0.  1.
          1   -1    0    0  501    0 -0.00000000000E+00 -0.00000000000E+00 -0.12112302207E+04  0.12112302207E+04  0.00000000000E+00 0.  1.
          2    1    1    2  501    0 -0.95081079421E+01 -0.25470844348E+02 -0.28298271747E+03  0.28428574782E+03  0.00000000000E+00 0.  1.
          1    1    1    2  502    0  0.95081079421E+01  0.25470844348E+02 -0.92739677203E+03  0.92779520412E+03  0.00000000000E+00 0.  1.
</event>
<event>
 4    1  0.3664744E+003  0.2345747E+02  0.7546771E-02  0.1486832E+00
          2   -1    0    0  502    0  0.00000000000E+00  0.00000000000E+00  0.14042227708E+01  0.14042227708E+01  0.00000000000E+00 0.  1.
          1   -1    0    0  501    0 -0.00000000000E+00 -0.00000000000E+00 -0.40447011750E+03  0.40447011750E+03  0.00000000000E+00 0.  1.
          2    1    1    2  501    0 -0.20911748484E+02 -0.10627865222E+02 -0.16569431703E+03  0.16734652503E+03  0.00000000000E+00 0.  1.
          1    1    1    2  502    0  0.20911748484E+02  0.10627865222E+02 -0.23737157770E+03  0.23852781524E+03  0.00000000000E+00 0.  1.
</event>
<event>
 4    1  0.3664744E+003  0.2020697E+02  0.7546771E-02  0.1530895E+00
          2   -1    0    0  502    0  0.00000000000E+00  0.00000000000E+00  0.56812035970E+03  0.56812035970E+03  0.00000000000E+00 0. -1.
          1   -1    0    0  501    0 -0.00000000000E+00 -0.00000000000E+00 -0.87407772568E+01  0.87407772568E+01  0.00000000000E+00 0. -1.
          2    1    1    2  501    0  0.20130447627E+02  0.17569201598E+01  0.55600769912E+03  0.55637476863E+03  0.00000000000E+00 0. -1.
          1    1    1    2  502    0 -0.20130447627E+02 -0.17569201598E+01  0.33718833271E+01  0.20486368328E+02  0.00000000000E+00 0. -1.
</event>
<event>
 4    1  0.3664744E+003  0.3168921E+02  0.7546771E-02  0.1405464E+00
          2   -1    0    0  502    0  0.00000000000E+00  0.00000000000E+00  0.69810129007E+01  0.69810129007E+01  0.00000000000E+00 0. -1.
          1   -1    0    0  501    0 -0.00000000000E+00 -0.00000000000E+00 -0.79781521297E+03  0.79781521297E+03  0.00000000000E+00 0.  1.
          2    1    1    2  501    0  0.15150982659E+02 -0.27832607378E+02 -0.31097369596E+02  0.44398791704E+02  0.00000000000E+00 0. -1.
          1    1    1    2  502    0 -0.15150982659E+02  0.27832607378E+02 -0.75973683047E+03  0.76039743416E+03  0.00000000000E+00 0.  1.
</event>
<event>
 4    1  0.3664744E+003  0.9547195E+02  0.7546771E-02  0.1171894E+00
          2   -1    0    0  502    0  0.00000000000E+00  0.00000000000E+00  0.55228287231E+03  0.55228287231E+03  0.00000000000E+00 0. -1.
          1   -1    0    0  501    0 -0.00000000000E+00 -0.00000000000E+00 -0.81425453926E+03  0.81425453926E+03  0.00000000000E+00 0. -1.
          2    1    1    2  501    0  0.69080369258E+02  0.65899892048E+02  0.54532287713E+03  0.55361713622E+03  0.00000000000E+00 0. -1.
          1    1    1    2  502    0 -0.69080369258E+02 -0.65899892048E+02 -0.80729454408E+03  0.81292027536E+03  0.00000000000E+00 0. -1.
</event>
<event>
 4    1  0.3664744E+003  0.2973442E+02  0.7546771E-02  0.1421919E+00
          2   -1    0    0  502    0  0.00000000000E+00  0.00000000000E+00  0.13429654536E+04  0.13429654536E+04  0.00000000000E+00 0.  1.
          1   -1    0    0  501    0 -0.00000000000E+00 -0.00000000000E+00 -0.10151970390E+02  0.10151970390E+02  0.00000000000E+00 0. -1.
          2    1    1    2  501    0 -0.18400200050E+02  0.23357404865E+02  0.13206606801E+04  0.13209953701E+04  0.00000000000E+00 0.  1.
          1    1    1    2  502    0  0.18400200050E+02 -0.23357404865E+02  0.12152803057E+02  0.32122053888E+02  0.00000000000E+00 0. -1.
</event>
<event>
 4    1  0.3664744E+003  0.2087184E+02  0.7546771E-02  0.1521102E+00
          2   -1    0    0  502    0  0.00000000000E+00  0.00000000000E+00  0.65468743205E+03  0.65468743205E+03  0.00000000000E+00 0.  1.
          1   -1    0    0  501    0 -0.00000000000E+00 -0.00000000000E+00 -0.76523731266E+00  0.76523731266E+00  0.00000000000E+00 0.  1.
          2    1    1    2  501    0 -0.14468141288E+01 -0.20821638180E+02  0.44533161103E+03  0.44582045453E+03  0.00000000000E+00 0.  1.
          1    1    1    2  502    0  0.14468141288E+01  0.20821638180E+02  0.20859058370E+03  0.20963221483E+03  0.00000000000E+00 0.  1.
</event>
<event>
 4    1  0.3664744E+003  0.3001480E+02  0.7546771E-02  0.1419468E+00
          2   -1    0    0  502    0  0.00000000000E+00  0.00000000000E+00  0.37909590527E+03  0.37909590527E+03  0.00000000000E+00 0.  1.
          1   -1    0    0  501    0 -0.00000000000E+00 -0.00000000000E+00 -0.20405132199E+03  0.20405132199E+03  0.00000000000E+00 0.  1.
          2    1    1    2  501    0  0.23281481525E+02 -0.18943629907E+02  0.37739307727E+03  0.37858476365E+03  0.00000000000E+00 0.  1.
          1    1    1    2  502    0 -0.23281481525E+02  0.18943629907E+02 -0.20234849399E+03  0.20456246361E+03  0.00000000000E+00 0.  1.
</event>
<event>
 4    1  0.3664744E+003  0.2809882E+02  0.7546771E-02  0.1436872E+00
          2   -1    0    0  502    0  0.00000000000E+00  0.00000000000E+00  0.25220752547E+02  0.25220752547E+02  0.00000000000E+00 0.  1.
          1   -1    0    0  501    0 -0.00000000000E+00 -0.00000000000E+00 -0.33470200274E+02  0.33470200274E+02  0.00000000000E+00 0.  1.
          2    1    1    2  501    0 -0.25584334951E+02 -0.11618332995E+02  0.33385339494E+01  0.28296460298E+02  0.00000000000E+00 0.  1.
          1    1    1    2  502    0  0.25584334951E+02  0.11618332995E+02 -0.11587981676E+02  0.30394492524E+02  0.00000000000E+00 0.  1.
</event>
<event>
 4    1  0.3664744E+003  0.2386920E+02  0.7546771E-02  0.1481863E+00
          2   -1    0    0  502    0  0.00000000000E+00  0.00000000000E+00  0.48638297369E+03  0.48638297369E+03  0.00000000000E+00 0. -1.
          1   -1    0    0  501    0 -0.00000000000E+00 -0.00000000000E+00 -0.49722709397E+03  0.49722709397E+03  0.00000000000E+00 0. -1.
          2    1    1    2  501    0 -0.61054236847E+01 -0.23075152638E+02  0.48580332924E+03  0.48638936416E+03  0.00000000000E+00 0. -1.
          1    1    1    2  502    0  0.61054236847E+01  0.23075152638E+02 -0.49664744953E+03  0.49722070350E+03  0.00000000000E+00 0. -1.
</event>
<event>
 4    1  0.3664744E+003  0.2788902E+02  0.7546771E-02  0.1438876E+00
          2   -1    0    0  502    0  0.00000000000E+00  0.00000000000E+00  0.39225189041E+03  0.39225189041E+03  0.00000000000E+00 0.  1.
          1   -1    0    0  501    0 -0.00000000000E+00 -0.00000000000E+00 -0.13553831298E+03  0.13553831298E+03  0.00000000000E+00 0. -1.
          2    1    1    2  501    0 -0.24773069449E+02  0.12809857536E+02  0.39031440737E+03  0.39130951179E+03  0.00000000000E+00 0.  1.
          1    1    1    2  502    0  0.24773069449E+02 -0.12809857536E+02 -0.13360082993E+03  0.13648069160E+03  0.00000000000E+00 0. -1.
</event>
<event>
 4    1  0.3664744E+003  0.2210823E+02  0.7546771E-02  0.1504010E+00
          2   -1    0    0  502    0  0.00000000000E+00  0.00000000000E+00  0.17550820701E+04  0.17550820701E+04  0.00000000000E+00 0. -1.
          1   -1    0    0  501    0 -0.00000000000E+00 -0.00000000000E+00 -0.57603705654E+00  0.57603705654E+00  0.00000000000E+00 0.  1.
          2    1    1    2  501    0 -0.30085951195E-01 -0.22108210601E+02  0.15081553321E+04  0.15083173670E+04  0.00000000000E+00 0. -1.
          1    1    1    2  502    0  0.30085951195E-01  0.22108210601E+02  0.24635070096E+03  0.24734074016E+03  0.00000000000E+00 0.  1.
</event>
<event>
 4    1  0.3664744E+003  0.2770066E+02  0.7546771E-02  0.1440694E+00
          2   -1    0    0  502    0  0.00000000000E+00  0.00000000000E+00  0.51351508485E+01  0.51351508485E+01  0.00000000000E+00 0. -1.
          1   -1    0    0  501    0 -0.00000000000E+00 -0.00000000000E+00 -0.24174708606E+03  0.24174708606E+03  0.00000000000E+00 0. -1.
          2    1    1    2  501    0  0.23827451366E+02  0.14127255766E+02 -0.42022771996E+02  0.50331303980E+02  0.00000000000E+00 0. -1.
          1    1    1    2  502    0 -0.23827451366E+02 -0.14127255766E+02 -0.19458916322E+03  0.19655093293E+03  0.00000000000E+00 0. -1.
</event>
<event>
 4    1  0.3664744E+003  0.3274756E+02  0.7546771E-02  0.1397130E+00
          2   -1    0    0  502    0  0.00000000000E+00  0.00000000000E+00  0.51884391243E+01  0.51884391243E+01  0.00000000000E+00 0. -1.
          1   -1    0    0  501    0 -0.00000000000E+00 -0.00000000000E+00 -0.34465710152E+03  0.34465710152E+03  0.00000000000E+00 0. -1.
          2    1    1    2  501    0  0.32626952067E+02  0.28079667468E+01 -0.59061956528E+02  0.67533083651E+02  0.00000000000E+00 0. -1.
          1    1    1    2  502    0 -0.32626952067E+02 -0.28079667468E+01 -0.28040670587E+03  0.28231245700E+03  0.00000000000E+00 0. -1.
</event>
<event>
 4    1  0.3664744E+003  0.2103183E+02  0.7546771E-02  0.1518811E+00
          2   -1    0    0  502    0  0.00000000000E+00  0.00000000000E+00  0.20058809790E+01  0.20058809790E+01  0.00000000000E+00 0.  1.
          1   -1    0    0  501    0 -0.00000000000E+00 -0.00000000000E+00 -0.41965997297E+03  0.41965997297E+03  0.00000000000E+00 0.  1.
          2    1    1    2  501    0 -0.15189783193E+02  0.14546765173E+02 -0.63593034550E+02  0.66980683288E+02  0.00000000000E+00 0.  1.
          1    1    1    2  502    0  0.15189783193E+02 -0.14546765173E+02 -0.35406105744E+03  0.35468517066E+03  0.00000000000E+00 0.  1.
</event>
<event>
 4    1  0.3664744E+003  0.2502661E+02  0.7546771E-02  0.1468506E+00
          2   -1    0    0  502    0  0.00000000000E+00  0.00000000000E+00  0.26113606452E+03  0.26113606452E+03  0.00000000000E+00 0. -1.
          1   -1    0    0  501    0 -0.00000000000E+00 -0.00000000000E+00 -0.32825706641E+01  0.32825706641E+01  0.00000000000E+00 0.  1.
          2    1    1    2  501    0  0.32281976273E+01  0.24817528663E+02  0.19753907317E+03  0.19911809666E+03  0.00000000000E+00 0. -1.
          1    1    1    2  502    0 -0.32281976273E+01 -0.24817528663E+02  0.60314420692E+02  0.65300538530E+02  0.00000000000E+00 0.  1.
</event>
<event>
 4    1  0.3664744E+003  0.2337932E+02  0.7546771E-02  0.1487789E+00
          2   -1    0    0  502    0  0.00000000000E+00  0.00000000000E+00  0.85239797658E+02  0.85239797658E+02  0.00000000000E+00 0. -1.
          1   -1    0    0  501    0 -0.00000000000E+00 -0.00000000000E+00 -0.75904138705E+01  0.75904138705E+01  0.00000000000E+00 0. -1.
          2    1    1    2  501    0 -0.54510043672E+01 -0.22734975260E+02  0.57109901216E+02  0.61710075073E+02  0.00000000000E+00 0. -1.
          1    1    1    2  502    0  0.54510043672E+01  0.22734975260E+02  0.20539482572E+02  0.31120136455E+02  0.00000000000E+00 0. -1.
</event>
<event>
 4    1  0.3664744E+003  0.2205295E+02  0.7546771E-02  0.1504745E+00
          2   -1    0    0  502    0  0.00000000000E+00  0.00000000000E+00  0.24195190016E+02  0.24195190016E+02  0.00000000000E+00 0.  1.
          1   -1    0    0  501    0 -0.00000000000E+00 -0.00000000000E+00 -0.21771799740E+03  0.21771799740E+03  0.00000000000E+00 0. -1.
          2    1    1    2  501    0 -0.19370461577E+02 -0.10541253231E+02  0.18476460078E+02  0.28769990935E+02  0.00000000000E+00 0.  1.
          1    1    1    2  502    0  0.19370461577E+02  0.10541253231E+02 -0.21199926746E+03  0.21314319648E+03  0.00000000000E+00 0. -1.
</event>
<event>
 4    1  0.3664744E+003  0.2946852E+02  0.7546771E-02  0.1424272E+00
          2   -1    0    0  502    0  0.00000000000E+00  0.00000000000E+00  0.25854325180E+03  0.25854325180E+03  0.00000000000E+00 0. -1.
          1   -1    0    0  501    0 -0.00000000000E+00 -0.00000000000E+00 -0.16012559510E+02  0.16012559510E+02  0.00000000000E+00 0. -1.
          2    1    1    2  501    0 -0.28661453959E+02  0.68494510261E+01  0.24329914505E+03  0.24507726925E+03  0.00000000000E+00 0. -1.
          1    1    1    2  502    0  0.28661453959E+02 -0.68494510261E+01 -0.76845275575E+00  0.29478542061E+02  0.00000000000E+00 0. -1.
</event>
<event>
 4    1  0.3664744E+003  0.2163805E+02  0.7546771E-02  0.1510347E+00
          2   -1    0    0  502    0  0.00000000000E+00  0.00000000000E+00  0.13780621912E+01  0.13780621912E+01  0.00000000000E+00 0.  1.
          1   -1    0    0  501    0 -0.00000000000E+00 -0.00000000000E+00 -0.91631899331E+03  0.91631899331E+03  0.00000000000E+00 0.  1.
          2    1    1    2  501    0  0.10590370770E+02 -0.18869271622E+02 -0.93497394939E+02  0.95968579363E+02  0.00000000000E+00 0.  1.
          1    1    1    2  502    0 -0.10590370770E+02  0.18869271622E+02 -0.82144353618E+03  0.82172847614E+03  0.00000000000E+00 0.  1.
</event>
<event>
 4    1  0.3664744E+003  0.2486738E+02  0.7546771E-02  0.1470293E+00
          2   -1    0    0  502    0  0.00000000000E+00  0.00000000000E+00  0.75885543118E+03  0.75885543118E+03  0.00000000000E+00 0.  1.
          1   -1    0    0  501    0 -0.00000000000E+00 -0.00000000000E+00 -0.21170043981E+02  0.21170043981E+02  0.00000000000E+00 0.  1.
          2    1    1    2  501    0 -0.24831701513E+02  0.13315874129E+01  0.75127543553E+03  0.75168688066E+03  0.00000000000E+00 0.  1.
          1    1    1    2  502    0  0.24831701513E+02 -0.13315874129E+01 -0.13590048326E+02  0.28338594506E+02  0.00000000000E+00 0.  1.
</event>
<event>
 4    1  0.3664744E+003  0.2034884E+02  0.7546771E-02  0.1528768E+00
          2   -1    0    0  502    0  0.00000000000E+00  0.00000000000E+00  0.25954239132E+03  0.25954239132E+03  0.00000000000E+00 0.  1.
          1   -1    0    0  501    0 -0.00000000000E+00 -0.00000000000E+00 -0.64957844441E+01  0.64957844441E+01  0.00000000000E+00 0.  1.
          2    1    1    2  501    0 -0.90756574599E+01 -0.18212850789E+02  0.24205814493E+03  0.24291196146E+03  0.00000000000E+00 0.  1.
          1    1    1    2  502    0  0.90756574599E+01  0.18212850789E+02  0.10988461945E+02  0.23126214306E+02  0.00000000000E+00 0.  1.
</event>
<event>
 4    1  0.3664744E+003  0.4972176E+02  0.7546771E-02  0.1299383E+00
          2   -1    0    0  502    0  0.00000000000E+00  0.00000000000E+00  0.18534477886E+02  0.18534477886E+02  0.00000000000E+00 0. -1.
          1   -1    0    0  501    0 -0.00000000000E+00 -0.00000000000E+00 -0.18690484235E+03  0.18690484235E+03  0.00000000000E+00 0. -1.
          2    1    1    2  501    0 -0.48504357206E+02  0.10935280729E+02 -0.29219228186E+02  0.57671624985E+02  0.00000000000E+00 0. -1.
          1    1    1    2  502    0  0.48504357206E+02 -0.10935280729E+02 -0.13915113628E+03  0.14776769525E+03  0.00000000000E+00 0. -1.
</event>
<event>
 4    1  0.3664744E+003  0.2959894E+02  0.7546771E-02  0.1423114E+00
          2   -1    0    0  502    0  0.00000000000E+00  0.00000000000E+00  0.25410193644E+03  0.25410193644E+03  0.00000000000E+00 0.  1.
          1   -1    0    0  501    0 -0.00000000000E+00 -0.00000000000E+00 -0.13857911319E+04  0.13857911319E+04  0.00000000000E+00 0.  1.
          2    1    1    2  501    0  0.24592686070E+02 -0.16471095291E+02  0.25308129675E+03  0.25480627926E+03  0.00000000000E+00 0.  1.
          1    1    1    2  502    0 -0.24592686070E+02  0.16471095291E+02 -0.13847704922E+04  0.13850867891E+04  0.00000000000E+00 0.  1.
</event>
<event>
 4    1  0.3664744E+003  0.2512700E+02  0.7546771E-02  0.1467388E+00
          2   -1    0    0  502    0  0.00000000000E+00  0.00000000000E+00  0.90057127402E+02  0.90057127402E+02  0.00000000000E+00 0.  1.
          1   -1    0    0  501    0 -0.00000000000E+00 -0.00000000000E+00 -0.14735482347E+04  0.14735482347E+04  0.00000000000E+00 0. -1.
          2    1    1    2  501    0 -0.14125600554E+01 -0.25087263750E+02  0.88195111098E+02  0.91704655007E+02  0.00000000000E+00 0.  1.
          1    1    1    2  502    0  0.14125600554E+01  0.25087263750E+02 -0.14716862184E+04  0.14719007071E+04  0.00000000000E+00 0. -1.
</event>
<event>
 4    1  0.3664744E+003  0.2055465E+02  0.7546771E-02  0.1525719E+00
          2   -1    0    0  502    0  0.00000000000E+00  0.00000000000E+00  0.44992128495E+03  0.44992128495E+03  0.00000000000E+00 0.  1.
          1   -1    0    0  501    0 -0.00000000000E+00 -0.00000000000E+00 -0.11050261308E+01  0.11050261308E+01  0.00000000000E+00 0.  1.
          2    1    1    2  501    0  0.34626624146E+01  0.20260880117E+02  0.13700563972E+03  0.13853894258E+03  0.00000000000E+00 0.  1.
          1    1    1    2  502    0 -0.34626624146E+01 -0.20260880117E+02  0.31181061909E+03  0.31248736850E+03  0.00000000000E+00 0.  1.
</event>
<event>
 4    1  0.3664744E+003  0.3583974E+02  0.7546771E-02  0.1374754E+00
          2   -1    0    0  502    0  0.00000000000E+00  0.00000000000E+00  0.33755537359E+02  0.33755537359E+02  0.00000000000E+00 0.  1.
          1   -1    0    0  501    0 -0.00000000000E+00 -0.00000000000E+00 -0.50112685858E+02  0.50112685858E+02  0.00000000000E+00 0. -1.
          2    1    1    2  501    0  0.33898467893E+02 -0.11635338027E+02  0.12393028861E+02  0.37921951174E+02  0.00000000000E+00 0.  1.
          1    1    1    2  502    0 -0.33898467893E+02  0.11635338027E+02 -0.28750177359E+02  0.45946272043E+02  0.00000000000E+00 0. -1.
</event>
<event>
 4    1  0.3664744E+003  0.2040274E+02  0.7546771E-02  0.1527965E+00
          2   -1    0    0  502    0  0.00000000000E+00  0.00000000000E+00  0.38669850268E+02  0.38669850268E+02  0.00000000000E+00 0. -1.
          1   -1    0    0  501    0 -0.00000000000E+00 -0.00000000000E+00 -0.83705416023E+02  0.83705416023E+02  0.00000000000E+00 0. -1.
          2    1    1    2  501    0 -0.15122820982E+02 -0.13695701706E+02  0.34600045055E+02  0.40167587400E+02  0.00000000000E+00 0. -1.
          1    1    1    2  502    0  0.15122820982E+02  0.13695701706E+02 -0.79635610810E+02  0.82207678892E+02  0.00000000000E+00 0. -1.
</event>
<event>
 4    1  0.3664744E+003  0.2089231E+02  0.7546771E-02  0.1520808E+00
          2   -1    0    0  502    0  0.00000000000E+00  0.00000000000E+00  0.34036588756E+03  0.34036588756E+03  0.00000000000E+00 0. -1.
          1   -1    0    0  501    0 -0.00000000000E+00 -0.00000000000E+00 -0.20282445999E+01  0.20282445999E+01  0.00000000000E+00 0. -1.
          2    1    1    2  501    0 -0.18006205735E+02  0.10595513853E+02  0.65354411883E+02  0.68612590035E+02  0.00000000000E+00 0. -1.
          1    1    1    2  502    0  0.18006205735E+02 -0.10595513853E+02  0.27298323108E+03  0.27378154212E+03  0.00000000000E+00 0. -1.
</event>
<event>
 4    1  0.3664744E+003  0.2258607E+02  0.7546771E-02  0.1497762E+00
          2   -1    0    0  502    0  0.00000000000E+00  0.00000000000E+00  0.79642417914E+02  0.79642417914E+02  0.00000000000E+00 0.  1.
          1   -1    0    0  501    0 -0.00000000000E+00 -0.00000000000E+00 -0.49421647065E+02  0.49421647065E+02  0.00000000000E+00 0.  1.
          2    1    1    2  501    0  0.20924444813E+02 -0.85028420203E+01  0.75315540824E+02  0.78629265562E+02  0.00000000000E+00 0.  1.
          1    1    1    2  502    0 -0.20924444813E+02  0.85028420203E+01 -0.45094769975E+02  0.50434799417E+02  0.00000000000E+00 0.  1.
</event>
<event>
 4    1  0.3664744E+003  0.3341087E+02  0.7546771E-02  0.1392093E+00
          2   -1    0    0  502    0  0.00000000000E+00  0.00000000000E+00  0.55885626157E+02  0.55885626157E+02  0.00000000000E+00 0.  1.
          1   -1    0    0  501    0 -0.00000000000E+00 -0.00000000000E+00 -0.67685146106E+03  0.67685146106E+03  0.00000000000E+00 0.  1.
          2    1    1    2  501    0 -0.17836993720E+02 -0.28251155389E+02  0.50439215663E+02  0.60501244636E+02  0.00000000000E+00 0.  1.
          1    1    1    2  502    0  0.17836993720E+02  0.28251155389E+02 -0.67140505057E+03  0.67223584259E+03  0.00000000000E+00 0.  1.
</event>
<event>
 4    1  0.3664744E+003  0.2633315E+02  0.7546771E-02  0.1454424E+00
          2   -1    0    0  502    0  0.00000000000E+00  0.00000000000E+00  0.15418965741E+03  0.15418965741E+03  0.00000000000E+00 0. -1.
          1   -1    0    0  501    0 -0.00000000000E+00 -0.00000000000E+00 -0.89507628314E+02  0.89507628314E+02  0.00000000000E+00 0.  1.
          2    1    1    2  501    0  0.22800546920E+02 -0.13174595349E+02  0.15108908335E+03  0.15336670438E+03  0.00000000000E+00 0. -1.
          1    1    1    2  502    0 -0.22800546920E+02  0.13174595349E+02 -0.86407054254E+02  0.90330581351E+02  0.00000000000E+00 0.  1.
</event>
<event>
 4    1  0.3664744E+003  0.2836289E+02  0.7546771E-02  0.1434378E+00
          2   -1    0    0  502    0  0.00000000000E+00  0.00000000000E+00  0.56987054507E+02  0.56987054507E+02  0.00000000000E+00 0. -1.
          1   -1    0    0  501    0 -0.00000000000E+00 -0.00000000000E+00 -0.12826846520E+03  0.12826846520E+03  0.00000000000E+00 0. -1.
          2    1    1    2  501    0  0.15338423487E+01 -0.28321383041E+02  0.51741510470E+02  0.59005400731E+02  0.00000000000E+00 0. -1.
          1    1    1    2  502    0 -0.15338423487E+01  0.28321383041E+02 -0.12302292116E+03  0.12625011898E+03  0.00000000000E+00 0. -1.
</event>
<event>
 4    1  0.3664744E+003  0.2298198E+02  0.7546771E-02  0.1492725E+00
          2   -1    0    0  502    0  0.00000000000E+00  0.00000000000E+00  0.39246907272E+03  0.39246907272E+03  0.00000000000E+00 0.  1.
          1   -1    0    0  501    0 -0.00000000000E+00 -0.00000000000E+00 -0.58050028642E+01  0.58050028642E+01  0.00000000000E+00 0.  1.
          2    1    1    2  501    0 -0.22739160982E+02 -0.33319376407E+01  0.36786647193E+03  0.36858365729E+03  0.00000000000E+00 0.  1.
          1    1    1    2  502    0  0.22739160982E+02  0.33319376407E+01  0.18797597920E+02  0.29690418289E+02  0.00000000000E+00 0.  1.
</event>
<event>
 4    1  0.3664744E+003  0.2548275E+02  0.7546771E-02  0.1463475E+00
          2   -1    0    0  502    0  0.00000000000E+00  0.00000000000E+00  0.11255653794E+04  0.11255653794E+04  0.00000000000E+00 0. -1.
          1   -1    0    0  501    0 -0.00000000000E+00 -0.00000000000E+00 -0.84586775400E+01  0.84586775400E+01  0.00000000000E+00 0.  1.
          2    1    1    2  501    0 -0.19051762780E+02 -0.16923376791E+02  0.11058872519E+04  0.11061808100E+04  0.00000000000E+00 0. -1.
          1    1    1    2  502    0  0.19051762780E+02  0.16923376791E+02  0.11219449975E+02  0.27843247023E+02  0.00000000000E+00 0.  1.
</event>
<event>
 4    1  0.3664744E+003  0.4601243E+02  0.7546771E-02  0.1316453E+00
          2   -1    0    0  502    0  0.00000000000E+00  0.00000000000E+00  0.71197669640E+02  0.71197669640E+02  0.00000000000E+00 0. -1.
          1   -1    0    0  501    0 -0.00000000000E+00 -0.00000000000E+00 -0.58204734556E+02  0.58204734556E+02  0.00000000000E+00 0. -1.
          2    1    1    2  501    0 -0.45656309281E+02 -0.57135722186E+01  0.51746224227E+02  0.69244604169E+02  0.00000000000E+00 0. -1.
          1    1    1    2  502    0  0.45656309281E+02  0.57135722186E+01 -0.38753289144E+02  0.60157800028E+02  0.00000000000E+00 0. -1.
</event>
<event>
 4    1  0.3664744E+003  0.2386212E+02  0.7546771E-02  0.1481947E+00
          2   -1    0    0  502    0  0.00000000000E+00  0.00000000000E+00  0.18214157538E+03  0.18214157538E+03  0.00000000000E+00 0. -1.
          1   -1    0    0  501    0 -0.00000000000E+00 -0.00000000000E+00 -0.53711818740E+01  0.53711818740E+01  0.00000000000E+00 0.  1.
          2    1    1    2  501    0  0.11867118014E+02  0.20701986753E+02  0.14899986831E+03  0.15089851392E+03  0.00000000000E+00 0. -1.
          1    1    1    2  502    0 -0.11867118014E+02 -0.20701986753E+02  0.27770525190E+02  0.36614243332E+02  0.00000000000E+00 0.  1.
</event>
<event>
 4    1  0.3664744E+003  0.3651272E+02  0.7546771E-02  0.1370229E+00
          2   -1    0    0  502    0  0.00000000000E+00  0.00000000000E+00  0.13854500765E+04  0.13854500765E+04  0.00000000000E+00 0. -1.
          1   -1    0    0  501    0 -0.00000000000E+00 -0.00000000000E+00 -0.45222045069E+01  0.45222045069E+01  0.00000000000E+00 0. -1.
          2    1    1    2  501    0 -0.35214073517E+02  0.96512983555E+01  0.13070901496E+04  0.13076000298E+04  0.00000000000E+00 0. -1.
          1    1    1    2  502    0  0.35214073517E+02 -0.96512983555E+01  0.73837722346E+02  0.82372251243E+02  0.00000000000E+00 0. -1.
</event>
<event>
 4    1  0.3664744E+003  0.2665300E+02  0.7546771E-02  0.1451125E+00
          2   -1    0    0  502    0  0.00000000000E+00  0.00000000000E+00  0.33125994521E+03  0.33125994521E+03  0.00000000000E+00 0. -1.
          1   -1    0    0  501    0 -0.00000000000E+00 -0.00000000000E+00 -0.65028263679E+02  0.65028263679E+02  0.00000000000E+00 0. -1.
          2    1    1    2  501    0  0.20366456910E+02  0.17192733622E+02  0.32796538045E+03  0.32904661285E+03  0.00000000000E+00 0. -1.
          1    1    1    2  502    0 -0.20366456910E+02 -0.17192733622E+02 -0.61733698914E+02  0.67241596040E+02  0.00000000000E+00 0. -1.
</event>
<event>
 4    1  0.3664744E+003  0.2537443E+02  0.7546771E-02  0.1464658E+00
          2   -1    0    0  502    0  0.00000000000E+00  0.00000000000E+00  0.99808365867E+03  0.99808365867E+03  0.00000000000E+00 0.  1.
          1   -1    0    0  501    0 -0.00000000000E+00 -0.00000000000E+00 -0.18613432826E+01  0.18613432826E+01  0.00000000000E+00 0.  1.
          2    1    1    2  501    0 -0.21578127823E+02  0.13350882793E+02  0.90226199467E+03  0.90261872831E+03  0.00000000000E+00 0.  1.
          1    1    1    2  502    0  0.21578127823E+02 -0.13350882793E+02  0.93960320720E+02  0.97326273644E+02  0.00000000000E+00 0.  1.
</event>
<event>
 4    1  0.3664744E+003  0.2006601E+02  0.7546771E-02  0.1533029E+00
          2   -1    0    0  502    0  0.00000000000E+00  0.00000000000E+00  0.67136817945E+03  0.67136817945E+03  0.00000000000E+00 0.  1.
          1   -1    0    0  501    0 -0.00000000000E+00 -0.00000000000E+00 -0.73052756140E+00  0.73052756140E+00  0.00000000000E+00 0.  1.
          2    1    1    2  501    0 -0.17930624940E+02 -0.90076184035E+01  0.19312767741E+03  0.19416731002E+03  0.00000000000E+00 0.  1.
          1    1    1    2  502    0  0.17930624940E+02  0.90076184035E+01  0.47750997448E+03  0.47793139699E+03  0.00000000000E+00 0.  1.
</event>
<event>
 4    1  0.3664744E+003  0.2228553E+02  0.7546771E-02  0.1501670E+00
          2   -1    0    0  502    0  0.00000000000E+00  0.00000000000E+00  0.99291028839E+02  0.99291028839E+02  0.00000000000E+00 0.  1.
          1   -1    0    0  501    0 -0.00000000000E+00 -0.00000000000E+00 -0.22446452778E+02  0.22446452778E+02  0.00000000000E+00 0.  1.
          2    1    1    2  501    0  0.40100231340E+01  0.21921780532E+02  0.92082237453E+02  0.94740610097E+02  0.00000000000E+00 0.  1.
          1    1    1    2  502    0 -0.40100231340E+01 -0.21921780532E+02 -0.15237661391E+02  0.26996871521E+02  0.00000000000E+00 0.  1.
</event>
<event>
 4    1  0.3664744E+003  0.3145237E+02  0.7546771E-02  0.1407382E+00
          2   -1    0    0  502    0  0.00000000000E+00  0.00000000000E+00  0.79012568706E+01  0.79012568706E+01  0.00000000000E+00 0.  1.
          1   -1    0    0  501    0 -0.00000000000E+00 -0.00000000000E+00 -0.29929296541E+03  0.29929296541E+03  0.00000000000E+00 0. -1.
          2    1    1    2  501    0  0.31394562587E+02  0.19060458839E+01 -0.28551014951E+02  0.42478371269E+02  0.00000000000E+00 0.  1.
          1    1    1    2  502    0 -0.31394562587E+02 -0.19060458839E+01 -0.26284069358E+03  0.26471585101E+03  0.00000000000E+00 0. -1.
</event>
<event>
 4    1  0.4380355E+003  0.2424167E+02  0.7546771E-02  0.1477468E+00
          2   -1    0    0  502    0  0.00000000000E+00  0.00000000000E+00  0.72184326048E+03  0.72184326048E+03  0.00000000000E+00 0. -1.
          1   -1    0    0  501    0 -0.00000000000E+00 -0.00000000000E+00 -0.79580700669E+03  0.79580700669E+03  0.00000000000E+00 0. -1.
          2    1    1    2  501    0  0.15911085806E+02  0.18289231817E+02  0.72145502315E+03  0.72186218150E+03  0.00000000000E+00 0. -1.
          1    1    1    2  502    0 -0.15911085806E+02 -0.18289231817E+02 -0.79541876935E+03  0.79578808567E+03  0.00000000000E+00 0. -1.
</event>
<event>
 4    1  0.3664744E+003  0.3397920E+02  0.7546771E-02  0.1387885E+00
          2   -1    0    0  502    0  0.00000000000E+00  0.00000000000E+00  0.52914880878E+03  0.52914880878E+03  0.00000000000E+00 0.  1.
          1   -1    0    0  501    0 -0.00000000000E+00 -0.00000000000E+00 -0.74565004357E+03  0.74565004357E+03  0.00000000000E+00 0. -1.
          2    1    1    2  501    0  0.48914481112E+01 -0.33625288658E+02  0.52821552597E+03  0.52930730977E+03  0.00000000000E+00 0.  1.
          1    1    1    2  502    0 -0.48914481112E+01  0.33625288658E+02 -0.74471676075E+03  0.74549154258E+03  0.00000000000E+00 0. -1.
</event>
<event>
 4    1  0.3664744E+003  0.2190771E+02  0.7546771E-02  0.1506689E+00
          2   -1    0    0  502    0  0.00000000000E+00  0.00000000000E+00  0.92238567355E+03  0.92238567355E+03  0.00000000000E+00 0.  1.
          1   -1    0    0  501    0 -0.00000000000E+00 -0.00000000000E+00 -0.27075978447E+02  0.27075978447E+02  0.00000000000E+00 0. -1.
          2    1    1    2  501    0 -0.20491180486E+02 -0.77497964209E+01  0.91780197056E+03  0.91806339922E+03  0.00000000000E+00 0.  1.
          1    1    1    2  502    0  0.20491180486E+02  0.77497964209E+01 -0.22492275457E+02  0.31398252778E+02  0.00000000000E+00 0. -1.
</event>
<event>
 4    1  0.3664744E+003  0.2480953E+02  0.7546771E-02  0.1470945E+00
          2   -1    0    0  502    0  0.00000000000E+00  0.00000000000E+00  0.11205319052E+02  0.11205319052E+02  0.00000000000E+00 0. -1.
          1   -1    0    0  501    0 -0.00000000000E+00 -0.00000000000E+00 -0.27541275891E+03  0.27541275891E+03  0.00000000000E+00 0. -1.
          2    1    1    2  501    0 -0.13747914261E+02  0.20652064290E+02 -0.38799748521E+01  0.25111095373E+02  0.00000000000E+00 0. -1.
          1    1    1    2  502    0  0.13747914261E+02 -0.20652064290E+02 -0.26032746500E+03  0.26150698259E+03  0.00000000000E+00 0. -1.
</event>
<event>
 4    1  0.3664744E+003  0.2584705E+02  0.7546771E-02  0.1459547E+00
          2   -1    0    0  502    0  0.00000000000E+00  0.00000000000E+00  0.33857301383E+03  0.33857301383E+03  0.00000000000E+00 0.  1.
          1   -1    0    0  501    0 -0.00000000000E+00 -0.00000000000E+00 -0.40980451926E+02  0.40980451926E+02  0.00000000000E+00 0. -1.
          2    1    1    2  501    0  0.13666966826E+02  0.21938185292E+02  0.33394781286E+03  0.33494658032E+03  0.00000000000E+00 0.  1.
          1    1    1    2  502    0 -0.13666966826E+02 -0.21938185292E+02 -0.36355250955E+02  0.44606885434E+02  0.00000000000E+00 0. -1.
</event>
<event>
 4    1  0.3664744E+003  0.3924436E+02  0.7546771E-02  0.1352972E+00
          2   -1    0    0  502    0  0.00000000000E+00  0.00000000000E+00  0.88280100110E+00  0.88280100110E+00  0.00000000000E+00 0. -1.
          1   -1    0    0  501    0 -0.00000000000E+00 -0.00000000000E+00 -0.22766459628E+04  0.22766459628E+04  0.00000000000E+00 0.  1.
          2    1    1    2  501    0 -0.36231463041E+02  0.15079824025E+02 -0.58736873161E+03  0.58867830509E+03  0.00000000000E+00 0. -1.
          1    1    1    2  502    0  0.36231463041E+02 -0.15079824025E+02 -0.16883944302E+04  0.16888504587E+04  0.00000000000E+00 0.  1.
</event>
<event>
 4    1  0.3664744E+003  0.3959471E+02  0.7546771E-02  0.1350877E+00
          2   -1    0    0  502    0  0.00000000000E+00  0.00000000000E+00  0.78579832172E+02  0.78579832172E+02  0.00000000000E+00 0.  1.
          1   -1    0    0  501    0 -0.00000000000E+00 -0.00000000000E+00 -0.22805306249E+02  0.22805306249E+02  0.00000000000E+00 0.  1.
          2    1    1    2  501    0 -0.23444499975E+02 -0.31907618805E+02  0.45821461432E+02  0.60558624858E+02  0.00000000000E+00 0.  1.
          1    1    1    2  502    0  0.23444499975E+02  0.31907618805E+02  0.99530644911E+01  0.40826513562E+02  0.00000000000E+00 0.  1.
</event>
<event>
 4    1  0.3664744E+003  0.2347849E+02  0.7546771E-02  0.1486576E+00
          2   -1    0    0  502    0  0.00000000000E+00  0.00000000000E+00  0.19699905063E+01  0.19699905063E+01  0.00000000000E+00 0. -1.
          1   -1    0    0  501    0 -0.00000000000E+00 -0.00000000000E+00 -0.48709930177E+03  0.48709930177E+03  0.00000000000E+00 0.  1.
          2    1    1    2  501    0 -0.18311853407E+02 -0.14694063755E+02 -0.83046049044E+02  0.86301134098E+02  0.00000000000E+00 0. -1.
          1    1    1    2  502    0  0.18311853407E+02  0.14694063755E+02 -0.40208326222E+03  0.40276815817E+03  0.00000000000E+00 0.  1.
</event>
<event>
 4    1  0.3664744E+003  0.2762629E+02  0.7546771E-02  0.1441416E+00
          2   -1    0    0  502    0  0.00000000000E+00  0.00000000000E+00  0.10793846218E+04  0.10793846218E+04  0.00000000000E+00 0. -1.
          1   -1    0    0  501    0 -0.00000000000E+00 -0.00000000000E+00 -0.70728063413E+00  0.70728063413E+00  0.00000000000E+00 0. -1.
          2    1    1    2  501    0 -0.22183887147E+02  0.16464717735E+02  0.54842387386E+03  0.54911925590E+03  0.00000000000E+00 0. -1.
          1    1    1    2  502    0  0.22183887147E+02 -0.16464717735E+02  0.53025346733E+03  0.53097264656E+03  0.00000000000E+00 0. -1.
</event>
<event>
 4    1  0.3664744E+003  0.2785690E+02  0.7546771E-02  0.1439185E+00
          2   -1    0    0  502    0  0.00000000000E+00  0.00000000000E+00  0.25724306248E+02  0.25724306248E+02  0.00000000000E+00 0. -1.
          1   -1    0    0  501    0 -0.00000000000E+00 -0.00000000000E+00 -0.56477504957E+03  0.56477504957E+03  0.00000000000E+00 0. -1.
          2    1    1    2  501    0 -0.19485614211E+01 -0.27788667678E+02  0.17731029749E+02  0.33021150175E+02  0.00000000000E+00 0. -1.
          1    1    1    2  502    0  0.19485614211E+01  0.27788667678E+02 -0.55678177307E+03  0.55747820565E+03  0.00000000000E+00 0. -1.
</event>
<event>
 4    1  0.3664744E+003  0.3850653E+02  0.7546771E-02  0.1357467E+00
          2   -1    0    0  502    0  0.00000000000E+00  0.00000000000E+00  0.26493003732E+04  0.26493003732E+04  0.00000000000E+00 0.  1.
          1   -1    0    0  501    0 -0.00000000000E+00 -0.00000000000E+00 -0.51254105629E+02  0.51254105629E+02  0.00000000000E+00 0. -1.
          2    1    1    2  501    0  0.29007047764E+02  0.25324771044E+02  0.26419078563E+04  0.26421884630E+04  0.00000000000E+00 0.  1.
          1    1    1    2  502    0 -0.29007047764E+02 -0.25324771044E+02 -0.43861588676E+02  0.58366015879E+02  0.00000000000E+00 0. -1.
</event>
<event>
 4    1  0.3664744E+003  0.2617069E+02  0.7546771E-02  0.1456121E+00
          2   -1    0    0  502    0  0.00000000000E+00  0.00000000000E+00  0.35963302933E+02  0.35963302933E+02  0.00000000000E+00 0. -1.
          1   -1    0    0  501    0 -0.00000000000E+00 -0.00000000000E+00 -0.41150394414E+03  0.41150394414E+03  0.00000000000E+00 0. -1.
          2    1    1    2  501    0  0.11900610849E+02  0.23308382156E+02  0.30724735854E+02  0.40359814304E+02  0.00000000000E+00 0. -1.
          1    1    1    2  502    0 -0.11900610849E+02 -0.23308382156E+02 -0.40626537706E+03  0.40710743277E+03  0.00000000000E+00 0. -1.
</event>
<event>
 4    1  0.3664744E+003  0.2020669E+02  0.7546771E-02  0.1530899E+00
          2   -1    0    0  502    0  0.00000000000E+00  0.00000000000E+00  0.21406669310E+03  0.21406669310E+03  0.00000000000E+00 0.  1.
          1   -1    0    0  501    0 -0.00000000000E+00 -0.00000000000E+00 -0.41739938919E+02  0.41739938919E+02  0.00000000000E+00 0. -1.
          2    1    1    2  501    0 -0.37710722367E+01  0.19851682961E+02  0.21111011065E+03  0.21207496109E+03  0.00000000000E+00 0.  1.
          1    1    1    2  502    0  0.37710722367E+01 -0.19851682961E+02 -0.38783356476E+02  0.43731670924E+02  0.00000000000E+00 0. -1.
</event>
<event>
 4    1  0.3664744E+003  0.2154676E+02  0.7546771E-02  0.1511600E+00
          2   -1    0    0  502    0  0.00000000000E+00  0.00000000000E+00  0.12206494616E+04  0.12206494616E+04  0.00000000000E+00 0.  1.
          1   -1    0    0  501    0 -0.00000000000E+00 -0.00000000000E+00 -0.43704062250E+00  0.43704062250E+00  0.00000000000E+00 0. -1.
          2    1    1    2  501    0 -0.21444512892E+02 -0.20965812752E+01  0.83001693126E+03  0.83029655484E+03  0.00000000000E+00 0.  1.
          1    1    1    2  502    0  0.21444512892E+02  0.20965812752E+01  0.39019548967E+03  0.39078994735E+03  0.00000000000E+00 0. -1.
</event>
<event>
 4    1  0.3664744E+003  0.2877576E+02  0.7546771E-02  0.1430542E+00
          2   -1    0    0  502    0  0.00000000000E+00  0.00000000000E+00  0.17193703000E+04  0.17193703000E+04  0.00000000000E+00 0.  1.
          1   -1    0    0  501    0 -0.00000000000E+00 -0.00000000000E+00 -0.18931141191E+01  0.18931141191E+01  0.00000000000E+00 0.  1.
          2    1    1    2  501    0 -0.23392718403E+02 -0.16757845022E+02  0.16018807939E+04  0.16021392332E+04  0.00000000000E+00 0.  1.
          1    1    1    2  502    0  0.23392718403E+02  0.16757845022E+02  0.11559639195E+03  0.11912418091E+03  0.00000000000E+00 0.  1.
</event>
<event>
 4    1  0.3664744E+003  0.2336975E+02  0.7546771E-02  0.1487907E+00
          2   -1    0    0  502    0  0.00000000000E+00  0.00000000000E+00  0.19136241101E+03  0.19136241101E+03  0.00000000000E+00 0. -1.
          1   -1    0    0  501    0 -0.00000000000E+00 -0.00000000000E+00 -0.36280763395E+02  0.36280763395E+02  0.00000000000E+00 0.  1.
          2    1    1    2  501    0  0.22530015825E+02 -0.62083425598E+01  0.18679390679E+03  0.18825012283E+03  0.00000000000E+00 0. -1.
          1    1    1    2  502    0 -0.22530015825E+02  0.62083425598E+01 -0.31712259177E+02  0.39393051576E+02  0.00000000000E+00 0.  1.
</event>
<event>
 4    1  0.3664744E+003  0.3481426E+02  0.7546771E-02  0.1381874E+00
          2   -1    0    0  502    0  0.00000000000E+00  0.00000000000E+00  0.19929979252E+04  0.19929979252E+04  0.00000000000E+00 0.  1.
          1   -1    0    0  501    0 -0.00000000000E+00 -0.00000000000E+00 -0.11173201592E+01  0.11173201592E+01  0.00000000000E+00 0.  1.
          2    1    1    2  501    0  0.15622091982E+02 -0.31112426737E+02  0.16690173834E+04  0.16693804416E+04  0.00000000000E+00 0.  1.
          1    1    1    2  502    0 -0.15622091982E+02  0.31112426737E+02  0.32286322172E+03  0.32473480379E+03  0.00000000000E+00 0.  1.
</event>
<event>
 4    1  0.3664744E+003  0.2818906E+02  0.7546771E-02  0.1436016E+00
          2   -1    0    0  502    0  0.00000000000E+00  0.00000000000E+00  0.56371561363E+01  0.56371561363E+01  0.00000000000E+00 0.  1.
          1   -1    0    0  501    0 -0.00000000000E+00 -0.00000000000E+00 -0.43111423206E+03  0.43111423206E+03  0.00000000000E+00 0. -1.
          2    1    1    2  501    0  0.27525107949E+02 -0.60820832287E+01 -0.33586697026E+02  0.43848483681E+02  0.00000000000E+00 0.  1.
          1    1    1    2  502    0 -0.27525107949E+02  0.60820832287E+01 -0.39189037890E+03  0.39290290452E+03  0.00000000000E+00 0. -1.
</event>
<event>
 4    1  0.3664744E+003  0.2319940E+02  0.7546771E-02  0.1490009E+00
          2   -1    0    0  502    0  0.00000000000E+00  0.00000000000E+00  0.14476019528E+04  0.14476019528E+04  0.00000000000E+00 0. -1.
          1   -1    0    0  501    0 -0.00000000000E+00 -0.00000000000E+00 -0.37769118972E+00  0.37769118972E+00  0.00000000000E+00 0. -1.
          2    1    1    2  501    0 -0.14165933963E+02  0.18372201915E+02  0.63315524934E+03  0.63358013010E+03  0.00000000000E+00 0. -1.
          1    1    1    2  502    0  0.14165933963E+02 -0.18372201915E+02  0.81406901224E+03  0.81439951387E+03  0.00000000000E+00 0. -1.
</event>
<event>
 4    1  0.3664744E+003  0.3332393E+02  0.7546771E-02  0.1392745E+00
          2   -1    0    0  502    0  0.00000000000E+00  0.00000000000E+00  0.18645257937E+04  0.18645257937E+04  0.00000000000E+00 0. -1.
          1   -1    0    0  501    0 -0.00000000000E+00 -0.00000000000E+00 -0.61839723137E+00  0.61839723137E+00  0.00000000000E+00 0. -1.
          2    1    1    2  501    0 -0.14861665269E+02 -0.29826395094E+02  0.75283708009E+03  0.75357425122E+03  0.00000000000E+00 0. -1.
          1    1    1    2  502    0  0.14861665269E+02  0.29826395094E+02  0.11110703164E+04  0.11115699397E+04  0.00000000000E+00 0. -1.
</event>
<event>
 4    1  0.3664744E+003  0.2296463E+02  0.7546771E-02  0.1492943E+00
          2   -1    0    0  502    0  0.00000000000E+00  0.00000000000E+00  0.69067268582E+03  0.69067268582E+03  0.00000000000E+00 0.  1.
          1   -1    0    0  501    0 -0.00000000000E+00 -0.00000000000E+00 -0.57299455794E+03  0.57299455794E+03  0.00000000000E+00 0. -1.
          2    1    1    2  501    0  0.20539087518E+02  0.10272301797E+02  0.69025155825E+03  0.69063346861E+03  0.00000000000E+00 0.  1.
          1    1    1    2  502    0 -0.20539087518E+02 -0.10272301797E+02 -0.57257343037E+03  0.57303377515E+03  0.00000000000E+00 0. -1.
</event>
<event>
 4    1  0.3664744E+003  0.2894431E+02  0.7546771E-02  0.1428998E+00
          2   -1    0    0  502    0  0.00000000000E+00  0.00000000000E+00  0.39165807468E+01  0.39165807468E+01  0.00000000000E+00 0.  1.
          1   -1    0    0  501    0 -0.00000000000E+00 -0.00000000000E+00 -0.40952936182E+03  0.40952936182E+03  0.00000000000E+00 0.  1.
          2    1    1    2  501    0 -0.12269709079E+02  0.26215016193E+02 -0.59930601973E+02  0.66554112478E+02  0.00000000000E+00 0.  1.
          1    1    1    2  502    0  0.12269709079E+02 -0.26215016193E+02 -0.34568217910E+03  0.34689183009E+03  0.00000000000E+00 0.  1.
</event>
<event>
 4    1  0.3664744E+003  0.3791710E+02  0.7546771E-02  0.1361144E+00
          2   -1    0    0  502    0  0.00000000000E+00  0.00000000000E+00  0.90986224802E+02  0.90986224802E+02  0.00000000000E+00 0. -1.
          1   -1    0    0  501    0 -0.00000000000E+00 -0.00000000000E+00 -0.16653906888E+02  0.16653906888E+02  0.00000000000E+00 0. -1.
          2    1    1    2  501    0 -0.23388298666E+00 -0.37916379579E+02  0.49343263648E+02  0.62229126694E+02  0.00000000000E+00 0. -1.
          1    1    1    2  502    0  0.23388298666E+00  0.37916379579E+02  0.24989054265E+02  0.45411004996E+02  0.00000000000E+00 0. -1.
</event>
<event>
 4    1  0.3664744E+003  0.3509093E+02  0.7546771E-02  0.1379925E+00
          2   -1    0    0  502    0  0.00000000000E+00  0.00000000000E+00  0.90264499961E+02  0.90264499961E+02  0.00000000000E+00 0. -1.
          1   -1    0    0  501    0 -0.00000000000E+00 -0.00000000000E+00 -0.13057960448E+03  0.13057960448E+03  0.00000000000E+00 0.  1.
          2    1    1    2  501    0  0.29094901331E+02  0.19617851749E+02  0.84337455671E+02  0.91346482252E+02  0.00000000000E+00 0. -1.
          1    1    1    2  502    0 -0.29094901331E+02 -0.19617851749E+02 -0.12465256019E+03  0.12949762219E+03  0.00000000000E+00 0.  1.
</event>
<event>
 4    1  0.3664744E+003  0.2837981E+02  0.7546771E-02  0.1434219E+00
          2   -1    0    0  502    0  0.00000000000E+00  0.00000000000E+00  0.81339850936E+00  0.81339850936E+00  0.00000000000E+00 0. -1.
          1   -1    0    0  501    0 -0.00000000000E+00 -0.00000000000E+00 -0.11033826602E+04  0.11033826602E+04  0.00000000000E+00 0. -1.
          2    1    1    2  501    0  0.35103298964E+01  0.28161870273E+02 -0.37444657350E+03  0.37552050511E+03  0.00000000000E+00 0. -1.
          1    1    1    2  502    0 -0.35103298964E+01 -0.28161870273E+02 -0.72812268821E+03  0.72867555362E+03  0.00000000000E+00 0. -1.
</event>
<event>
 4    1  0.3664744E+003  0.2607742E+02  0.7546771E-02  0.1457102E+00
          2   -1    0    0  502    0  0.00000000000E+00  0.00000000000E+00  0.93199488485E+03  0.93199488485E+03  0.00000000000E+00 0.  1.
          1   -1    0    0  501    0 -0.00000000000E+00 -0.00000000000E+00 -0.36588831961E+01  0.36588831961E+01  0.00000000000E+00 0.  1.
          2    1    1    2  501    0  0.25643979694E+02  0.47347525695E+01  0.88275694747E+03  0.88314203834E+03  0.00000000000E+00 0.  1.
          1    1    1    2  502    0 -0.25643979694E+02 -0.47347525695E+01  0.45579054185E+02  0.52511729708E+02  0.00000000000E+00 0.  1.
</event>
<event>
 4    1  0.3664744E+003  0.2132703E+02  0.7546771E-02  0.1514647E+00
          2   -1    0    0  502    0  0.00000000000E+00  0.00000000000E+00  0.41160710832E+03  0.41160710832E+03  0.00000000000E+00 0. -1.
          1   -1    0    0  501    0 -0.00000000000E+00 -0.00000000000E+00 -0.73656461546E+01  0.73656461546E+01  0.00000000000E+00 0. -1.
          2    1    1    2  501    0  0.13852939774E+02  0.16215365454E+02  0.39525466111E+03  0.39582962136E+03  0.00000000000E+00 0. -1.
          1    1    1    2  502    0 -0.13852939774E+02 -0.16215365454E+02  0.89868010582E+01  0.23143133117E+02  0.00000000000E+00 0. -1.
</event>
<event>
 4    1  0.3664744E+003  0.3651993E+02  0.7546771E-02  0.1370181E+00
          2   -1    0    0  502    0  0.00000000000E+00  0.00000000000E+00  0.18896287026E+04  0.18896287026E+04  0.00000000000E+00 0.  1.
          1   -1    0    0  501    0 -0.00000000000E+00 -0.00000000000E+00 -0.23452373544E+01  0.23452373544E+01  0.00000000000E+00 0.  1.
          2    1    1    2  501    0 -0.24538178026E+02 -0.27047797595E+02  0.17345730532E+04  0.17349574584E+04  0.00000000000E+00 0.  1.
          1    1    1    2  502    0  0.24538178026E+02  0.27047797595E+02  0.15271041202E+03  0.15701648154E+03  0.00000000000E+00 0.  1.
</event>
<event>
 4    1  0.3664744E+003  0.2910751E+02  0.7546771E-02  0.1427514E+00
          2   -1    0    0  502    0  0.00000000000E+00  0.00000000000E+00  0.36962124997E+03  0.36962124997E+03  0.00000000000E+00 0. -1.
          1   -1    0    0  501    0 -0.00000000000E+00 -0.00000000000E+00 -0.11113472912E+02  0.11113472912E+02  0.00000000000E+00 0. -1.
          2    1    1    2  501    0  0.83071265742E+01  0.27896933241E+02  0.34885673170E+03  0.35006894533E+03  0.00000000000E+00 0. -1.
          1    1    1    2  502    0 -0.83071265742E+01 -0.27896933241E+02  0.96510453634E+01  0.30665777551E+02  0.00000000000E+00 0. -1.
</event>
<event>
 4    1  0.3664744E+003  0.2014400E+02  0.7546771E-02  0.1531846E+00
          2   -1    0    0  502    0  0.00000000000E+00  0.00000000000E+00  0.11472647047E+03  0.11472647047E+03  0.00000000000E+00 0. -1.
          1   -1    0    0  501    0 -0.00000000000E+00 -0.00000000000E+00 -0.44980079085E+01  0.44980079085E+01  0.00000000000E+00 0.  1.
          2    1    1    2  501    0 -0.14645226311E+02  0.13831057451E+02  0.82669334866E+02  0.85088187965E+02  0.00000000000E+00 0. -1.
          1    1    1    2  502    0  0.14645226311E+02 -0.13831057451E+02  0.27559127697E+02  0.34136290415E+02  0.00000000000E+00 0.  1.
</event>
<event>
 4    1  0.3664744E+003  0.2199545E+02  0.7546771E-02  0.1505513E+00
          2   -1    0    0  502    0  0.00000000000E+00  0.00000000000E+00  0.14164174897E+04  0.14164174897E+04  0.00000000000E+00 0. -1.
          1   -1    0    0  501    0 -0.00000000000E+00 -0.00000000000E+00 -0.44018473034E+01  0.44018473034E+01  0.00000000000E+00 0. -1.
          2    1    1    2  501    0 -0.76331625224E+01  0.20628488530E+02  0.13882985212E+04  0.13884727522E+04  0.00000000000E+00 0. -1.
          1    1    1    2  502    0  0.76331625224E+01 -0.20628488530E+02  0.23717121212E+02  0.32346584792E+02  0.00000000000E+00 0. -1.
</event>
<event>
 4    1  0.3664744E+003  0.2349875E+02  0.7546771E-02  0.1486329E+00
          2   -1    0    0  502    0  0.00000000000E+00  0.00000000000E+00  0.33240632839E+03  0.33240632839E+03  0.00000000000E+00 0.  1.
          1   -1    0    0  501    0 -0.00000000000E+00 -0.00000000000E+00 -0.26108678810E+01  0.26108678810E+01  0.00000000000E+00 0. -1.
          2    1    1    2  501    0 -0.10149820011E+02 -0.21193684076E+02  0.26592348754E+03  0.26695972040E+03  0.00000000000E+00 0.  1.
          1    1    1    2  502    0  0.10149820011E+02  0.21193684076E+02  0.63871972977E+02  0.68057475879E+02  0.00000000000E+00 0. -1.
</event>
<event>
 4    1  0.3664744E+003  0.3375979E+02  0.7546771E-02  0.1389498E+00
          2   -1    0    0  502    0  0.00000000000E+00  0.00000000000E+00  0.19957768088E+03  0.19957768088E+03  0.00000000000E+00 0.  1.
          1   -1    0    0  501    0 -0.00000000000E+00 -0.00000000000E+00 -0.31195440428E+02  0.31195440428E+02  0.00000000000E+00 0.  1.
          2    1    1    2  501    0  0.32731806495E+02 -0.82675452482E+01  0.18848287624E+03  0.19148242242E+03  0.00000000000E+00 0.  1.
          1    1    1    2  502    0 -0.32731806495E+02  0.82675452482E+01 -0.20100635780E+02  0.39290698894E+02  0.00000000000E+00 0.  1.
</event>
<event>
 4    1  0.3664744E+003  0.3681131E+02  0.7546771E-02  0.1368258E+00
          2   -1    0    0  502    0  0.00000000000E+00  0.00000000000E+00  0.13887290243E+02  0.13887290243E+02  0.00000000000E+00 0.  1.
          1   -1    0    0  501    0 -0.00000000000E+00 -0.00000000000E+00 -0.58915263660E+03  0.58915263660E+03  0.00000000000E+00 0.  1.
          2    1    1    2  501    0  0.12926646710E+02  0.34467005544E+02 -0.12211343143E+02  0.38783882834E+02  0.00000000000E+00 0.  1.
          1    1    1    2  502    0 -0.12926646710E+02 -0.34467005544E+02 -0.56305400322E+03  0.56425604401E+03  0.00000000000E+00 0.  1.
</event>
<event>
 4    1  0.3664744E+003  0.4745626E+02  0.7546771E-02  0.1309595E+00
          2   -1    0    0  502    0  0.00000000000E+00  0.00000000000E+00  0.26924142820E+03  0.26924142820E+03  0.00000000000E+00 0. -1.
          1   -1    0    0  501    0 -0.00000000000E+00 -0.00000000000E+00 -0.44276494165E+03  0.44276494165E+03  0.00000000000E+00 0.  1.
          2    1    1    2  501    0  0.92627824075E+01 -0.46543496178E+02  0.26586263557E+03  0.27006487585E+03  0.00000000000E+00 0. -1.
          1    1    1    2  502    0 -0.92627824075E+01  0.46543496178E+02 -0.43938614902E+03  0.44194149401E+03  0.00000000000E+00 0.  1.
</event>
<event>
 4    1  0.3664744E+003  0.2248089E+02  0.7546771E-02  0.1499122E+00
          2   -1    0    0  502    0  0.00000000000E+00  0.00000000000E+00  0.12813110768E+02  0.12813110768E+02  0.00000000000E+00 0. -1.
          1   -1    0    0  501    0 -0.00000000000E+00 -0.00000000000E+00 -0.26544248645E+03  0.26544248645E+03  0.00000000000E+00 0.  1.
          2    1    1    2  501    0  0.95423375822E+01 -0.20355203752E+02  0.20608264119E+01  0.22575152974E+02  0.00000000000E+00 0. -1.
          1    1    1    2  502    0 -0.95423375822E+01  0.20355203752E+02 -0.25469020209E+03  0.25568044424E+03  0.00000000000E+00 0.  1.
</event>
<event>
 4    1  0.3664744E+003  0.2493018E+02  0.7546771E-02  0.1469586E+00
          2   -1    0    0  502    0  0.00000000000E+00  0.00000000000E+00  0.16897579113E+04  0.16897579113E+04  0.00000000000E+00 0.  1.
          1   -1    0    0  501    0 -0.00000000000E+00 -0.00000000000E+00 -0.13387759207E+01  0.13387759207E+01  0.00000000000E+00 0.  1.
          2    1    1    2  501    0  0.21944692958E+02  0.11829796518E+02  0.15642982589E+04  0.15644969021E+04  0.00000000000E+00 0.  1.
          1    1    1    2  502    0 -0.21944692958E+02 -0.11829796518E+02  0.12412087648E+03  0.12659978520E+03  0.00000000000E+00 0.  1.
</event>
<event>
 4    1  0.3664744E+003  0.4893655E+02  0.7546771E-02  0.1302850E+00
          2   -1    0    0  502    0  0.00000000000E+00  0.00000000000E+00  0.20442718336E+04  0.20442718336E+04  0.00000000000E+00 0.  1.
          1   -1    0    0  501    0 -0.00000000000E+00 -0.00000000000E+00 -0.16668397919E+02  0.16668397919E+02  0.00000000000E+00 0.  1.
          2    1    1    2  501    0  0.42828736653E+02 -0.23674563691E+02  0.20074012949E+04  0.20079976953E+04  0.00000000000E+00 0.  1.
          1    1    1    2  502    0 -0.42828736653E+02  0.23674563691E+02  0.20202140817E+02  0.52942536234E+02  0.00000000000E+00 0.  1.
</event>
<event>
 4    1  0.3664744E+003  0.2600348E+02  0.7546771E-02  0.1457884E+00
          2   -1    0    0  502    0  0.00000000000E+00  0.00000000000E+00  0.49555239804E+01  0.49555239804E+01  0.00000000000E+00 0. -1.
          1   -1    0    0  501    0 -0.00000000000E+00 -0.00000000000E+00 -0.41065557525E+03  0.41065557525E+03  0.00000000000E+00 0. -1.
          2    1    1    2  501    0 -0.24799440854E+02 -0.78210461404E+01 -0.33042687136E+02  0.42047594493E+02  0.00000000000E+00 0. -1.
          1    1    1    2  502    0  0.24799440854E+02  0.78210461404E+01 -0.37265736413E+03  0.37356350474E+03  0.00000000000E+00 0. -1.
</event>
<event>
 4    1  0.3664744E+003  0.3218949E+02  0.7546771E-02  0.1401477E+00
          2   -1    0    0  502    0  0.00000000000E+00  0.00000000000E+00  0.92820708785E+03  0.92820708785E+03  0.00000000000E+00 0. -1.
          1   -1    0    0  501    0 -0.00000000000E+00 -0.00000000000E+00 -0.17637542677E+03  0.17637542677E+03  0.00000000000E+00 0. -1.
          2    1    1    2  501    0 -0.32121113051E+02 -0.20969898850E+01  0.92645654711E+03  0.92701558614E+03  0.00000000000E+00 0. -1.
          1    1    1    2  502    0  0.32121113051E+02  0.20969898850E+01 -0.17462488602E+03  0.17756692848E+03  0.00000000000E+00 0. -1.
</event>
<event>
 4    1  0.3664744E+003  0.2870715E+02  0.7546771E-02  0.1431174E+00
          2   -1    0    0  502    0  0.00000000000E+00  0.00000000000E+00  0.69891072060E+02  0.69891072060E+02  0.00000000000E+00 0.  1.
          1   -1    0    0  501    0 -0.00000000000E+00 -0.00000000000E+00 -0.37569546881E+02  0.37569546881E+02  0.00000000000E+00 0.  1.
          2    1    1    2  501    0 -0.26535787693E+02 -0.10952279903E+02  0.60667810806E+02  0.67116940720E+02  0.00000000000E+00 0.  1.
          1    1    1    2  502    0  0.26535787693E+02  0.10952279903E+02 -0.28346285627E+02  0.40343678221E+02  0.00000000000E+00 0.  1.
</event>
<event>
 4    1  0.3664744E+003  0.2474157E+02  0.7546771E-02  0.1471715E+00
          2   -1    0    0  502    0  0.00000000000E+00  0.00000000000E+00  0.10337101766E+03  0.10337101766E+03  0.00000000000E+00 0.  1.
          1   -1    0    0  501    0 -0.00000000000E+00 -0.00000000000E+00 -0.10106698346E+02  0.10106698346E+02  0.00000000000E+00 0.  1.
          2    1    1    2  501    0 -0.36095044835E+01 -0.24476863719E+02  0.83142589475E+02  0.86745810071E+02  0.00000000000E+00 0.  1.
          1    1    1    2  502    0  0.36095044835E+01  0.24476863719E+02  0.10121729843E+02  0.26731905940E+02  0.00000000000E+00 0.  1.
</event>
<event>
 4    1  0.3664744E+003  0.2379893E+02  0.7546771E-02  0.1482702E+00
          2   -1    0    0  502    0  0.00000000000E+00  0.00000000000E+00  0.16997926885E+04  0.16997926885E+04  0.00000000000E+00 0.  1.
          1   -1    0    0  501    0 -0.00000000000E+00 -0.00000000000E+00 -0.61012256930E+00  0.61012256930E+00  0.00000000000E+00 0.  1.
          2    1    1    2  501    0  0.13450934823E+02 -0.19633177283E+02  0.14223661763E+04  0.14225652635E+04  0.00000000000E+00 0.  1.
          1    1    1    2  502    0 -0.13450934823E+02  0.19633177283E+02  0.27681638962E+03  0.27783754761E+03  0.00000000000E+00 0.  1.
</event>
<event>
 4    1  0.3664744E+003  0.2967149E+02  0.7546771E-02  0.1422473E+00
          2   -1    0    0  502    0  0.00000000000E+00  0.00000000000E+00  0.38404625477E+03  0.38404625477E+03  0.00000000000E+00 0.  1.
          1   -1    0    0  501    0 -0.00000000000E+00 -0.00000000000E+00 -0.93618458092E+01  0.93618458092E+01  0.00000000000E+00 0.  1.
          2    1    1    2  501    0 -0.15427958318E+02  0.25345124926E+02  0.35827463811E+03  0.35950120106E+03  0.00000000000E+00 0.  1.
          1    1    1    2  502    0  0.15427958318E+02 -0.25345124926E+02  0.16409770855E+02  0.33906899517E+02  0.00000000000E+00 0.  1.
</event>
<event>
 4    1  0.3664744E+003  0.3105999E+02  0.7546771E-02  0.1410603E+00
          2   -1    0    0  502    0  0.00000000000E+00  0.00000000000E+00  0.20586581805E+04  0.20586581805E+04  0.00000000000E+00 0. -1.
          1   -1    0    0  501    0 -0.00000000000E+00 -0.00000000000E+00 -0.13285546452E+01  0.13285546452E+01  0.00000000000E+00 0.  1.
          2    1    1    2  501    0 -0.23577067905E+02  0.20219916633E+02  0.18573280698E+04  0.18575877589E+04  0.00000000000E+00 0. -1.
          1    1    1    2  502    0  0.23577067905E+02 -0.20219916633E+02  0.20000155608E+03  0.20239897627E+03  0.00000000000E+00 0.  1.
</event>
<event>
 4    1  0.3664744E+003  0.3144606E+02  0.7546771E-02  0.1407433E+00
          2   -1    0    0  502    0  0.00000000000E+00  0.00000000000E+00  0.22813286664E+03  0.22813286664E+03  0.00000000000E+00 0.  1.
          1   -1    0    0  501    0 -0.00000000000E+00 -0.00000000000E+00 -0.55892044629E+03  0.55892044629E+03  0.00000000000E+00 0.  1.
          2    1    1    2  501    0 -0.30585626170E+02 -0.73057676095E+01  0.22660395182E+03  0.22877544831E+03  0.00000000000E+00 0.  1.
          1    1    1    2  502    0  0.30585626170E+02  0.73057676095E+01 -0.55739153147E+03  0.55827786462E+03  0.00000000000E+00 0.  1.
</event>
<event>
 4    1  0.3664744E+003  0.4809679E+02  0.7546771E-02  0.1306642E+00
          2   -1    0    0  502    0  0.00000000000E+00  0.00000000000E+00  0.45924911073E+03  0.45924911073E+03  0.00000000000E+00 0. -1.
          1   -1    0    0  501    0 -0.00000000000E+00 -0.00000000000E+00 -0.11187760180E+03  0.11187760180E+03  0.00000000000E+00 0.  1.
          2    1    1    2  501    0  0.46578303751E+02  0.11990116349E+02  0.45274652257E+03  0.45529409722E+03  0.00000000000E+00 0. -1.
          1    1    1    2  502    0 -0.46578303751E+02 -0.11990116349E+02 -0.10537501364E+03  0.11583261531E+03  0.00000000000E+00 0.  1.
</event>
<event>
 4    1  0.3664744E+003  0.3067266E+02  0.7546771E-02  0.1413839E+00
          2   -1    0    0  502    0  0.00000000000E+00  0.00000000000E+00  0.13486841572E+02  0.13486841572E+02  0.00000000000E+00 0.  1.
          1   -1    0    0  501    0 -0.00000000000E+00 -0.00000000000E+00 -0.32265346407E+03  0.32265346407E+03  0.00000000000E+00 0. -1.
          2    1    1    2  501    0 -0.19719653267E+02 -0.23493562654E+02 -0.57866685192E+01  0.31213742865E+02  0.00000000000E+00 0.  1.
          1    1    1    2  502    0  0.19719653267E+02  0.23493562654E+02 -0.30337995397E+03  0.30492656277E+03  0.00000000000E+00 0. -1.
</event>
<event>
 4    1  0.3664744E+003  0.4220059E+02  0.7546771E-02  0.1336051E+00
          2   -1    0    0  502    0  0.00000000000E+00  0.00000000000E+00  0.83276886744E+01  0.83276886744E+01  0.00000000000E+00 0.  1.
          1   -1    0    0  501    0 -0.00000000000E+00 -0.00000000000E+00 -0.47603894534E+03  0.47603894534E+03  0.00000000000E+00 0. -1.
          2    1    1    2  501    0  0.42194028005E+02  0.74438901107E+00 -0.54122229235E+02  0.68630210634E+02  0.00000000000E+00 0.  1.
          1    1    1    2  502    0 -0.42194028005E+02 -0.74438901107E+00 -0.41358902744E+03  0.41573642339E+03  0.00000000000E+00 0. -1.
</event>
<event>
 4    1  0.3664744E+003  0.3442073E+02  0.7546771E-02  0.1384682E+00
          2   -1    0    0  502    0  0.00000000000E+00  0.00000000000E+00  0.23066094992E+04  0.23066094992E+04  0.00000000000E+00 0. -1.
          1   -1    0    0  501    0 -0.00000000000E+00 -0.00000000000E+00 -0.28518946054E+02  0.28518946054E+02  0.00000000000E+00 0. -1.
          2    1    1    2  501    0 -0.29381144214E+02  0.17931398936E+02  0.22960473514E+04  0.22963053426E+04  0.00000000000E+00 0. -1.
          1    1    1    2  502    0  0.29381144214E+02 -0.17931398936E+02 -0.17956798175E+02  0.38823102707E+02  0.00000000000E+00 0. -1.
</event>
<event>
 4    1  0.3664744E+003  0.2072782E+02  0.7546771E-02  0.1523187E+00
          2   -1    0    0  502    0  0.00000000000E+00  0.00000000000E+00  0.63201132912E+00  0.63201132912E+00  0.00000000000E+00 0.  1.
          1   -1    0    0  501    0 -0.00000000000E+00 -0.00000000000E+00 -0.12613413345E+04  0.12613413345E+04  0.00000000000E+00 0. -1.
          2    1    1    2  501    0 -0.73405365533E+01 -0.19384509125E+02 -0.20191135937E+03  0.20297250975E+03  0.00000000000E+00 0.  1.
          1    1    1    2  502    0  0.73405365533E+01  0.19384509125E+02 -0.10587979638E+04  0.10590008361E+04  0.00000000000E+00 0. -1.
</event>
<event>
 4    1  0.3664744E+003  0.3203002E+02  0.7546771E-02  0.1402739E+00
          2   -1    0    0  502    0  0.00000000000E+00  0.00000000000E+00  0.92419988755E+03  0.92419988755E+03  0.00000000000E+00 0. -1.
          1   -1    0    0  501    0 -0.00000000000E+00 -0.00000000000E+00 -0.65214532218E+01  0.65214532218E+01  0.00000000000E+00 0. -1.
          2    1    1    2  501    0 -0.10152953256E+02  0.30378272525E+02  0.88274743199E+03  0.88332833680E+03  0.00000000000E+00 0. -1.
          1    1    1    2  502    0  0.10152953256E+02 -0.30378272525E+02  0.34931002334E+02  0.47393003971E+02  0.00000000000E+00 0. -1.
</event>
<event>
 4    1  0.3664744E+003  0.2709949E+02  0.7546771E-02  0.1446611E+00
          2   -1    0    0  502    0  0.00000000000E+00  0.00000000000E+00  0.13034222795E+04  0.13034222795E+04  0.00000000000E+00 0.  1.
          1   -1    0    0  501    0 -0.00000000000E+00 -0.00000000000E+00 -0.10809035050E+01  0.10809035050E+01  0.00000000000E+00 0. -1.
          2    1    1    2  501    0  0.26194582049E+02 -0.69444994381E+01  0.11024727920E+04  0.11028058031E+04  0.00000000000E+00 0.  1.
          1    1    1    2  502    0 -0.26194582049E+02  0.69444994381E+01  0.19986858391E+03  0.20169737985E+03  0.00000000000E+00 0. -1.
</event>
<event>
 4    1  0.3664744E+003  0.3097223E+02  0.7546771E-02  0.1411332E+00
          2   -1    0    0  502    0  0.00000000000E+00  0.00000000000E+00  0.76207331312E+00  0.76207331312E+00  0.00000000000E+00 0. -1.
          1   -1    0    0  501    0 -0.00000000000E+00 -0.00000000000E+00 -0.20598344785E+04  0.20598344785E+04  0.00000000000E+00 0.  1.
          2    1    1    2  501    0 -0.22527528389E+02  0.21255342205E+02 -0.38702737910E+03  0.38826469229E+03  0.00000000000E+00 0. -1.
          1    1    1    2  502    0  0.22527528389E+02 -0.21255342205E+02 -0.16720450260E+04  0.16723318595E+04  0.00000000000E+00 0.  1.
</event>
<event>
 4    1  0.3664744E+003  0.2207937E+02  0.7546771E-02  0.1504394E+00
          2   -1    0    0  502    0  0.00000000000E+00  0.00000000000E+00  0.16044632198E+04  0.16044632198E+04  0.00000000000E+00 0.  1.
          1   -1    0    0  501    0 -0.00000000000E+00 -0.00000000000E+00 -0.10832793161E+01  0.10832793161E+01  0.00000000000E+00 0.  1.
          2    1    1    2  501    0  0.15633098140E+01 -0.22023959040E+02  0.14826381501E+04  0.14828025434E+04  0.00000000000E+00 0.  1.
          1    1    1    2  502    0 -0.15633098140E+01  0.22023959040E+02  0.12074179044E+03  0.12274395573E+03  0.00000000000E+00 0.  1.
</event>
<event>
 4    1  0.3664744E+003  0.2553810E+02  0.7546771E-02  0.1462873E+00
          2   -1    0    0  502    0  0.00000000000E+00  0.00000000000E+00  0.56989035417E+03  0.56989035417E+03  0.00000000000E+00 0.  1.
          1   -1    0    0  501    0 -0.00000000000E+00 -0.00000000000E+00 -0.12969941360E+01  0.12969941360E+01  0.00000000000E+00 0.  1.
          2    1    1    2  501    0 -0.25516790619E+02 -0.10431057919E+01  0.38224977300E+03  0.38310192329E+03  0.00000000000E+00 0.  1.
          1    1    1    2  502    0  0.25516790619E+02  0.10431057919E+01  0.18634358703E+03  0.18808542501E+03  0.00000000000E+00 0.  1.
</event>
<event>
 4    1  0.3664744E+003  0.2879891E+02  0.7546771E-02  0.1430329E+00
          2   -1    0    0  502    0  0.00000000000E+00  0.00000000000E+00  0.40268395491E+03  0.40268395491E+03  0.00000000000E+00 0. -1.
          1   -1    0    0  501    0 -0.00000000000E+00 -0.00000000000E+00 -0.99936177020E+01  0.99936177020E+01  0.00000000000E+00 0.  1.
          2    1    1    2  501    0  0.97259894002E+01  0.27106872575E+02  0.38019593310E+03  0.38128509669E+03  0.00000000000E+00 0. -1.
          1    1    1    2  502    0 -0.97259894002E+01 -0.27106872575E+02  0.12494404107E+02  0.31392475923E+02  0.00000000000E+00 0.  1.
</event>
<event>
 4    1  0.3664744E+003  0.2103092E+02  0.7546771E-02  0.1518824E+00
          2   -1    0    0  502    0  0.00000000000E+00  0.00000000000E+00  0.30897176861E+03  0.30897176861E+03  0.00000000000E+00 0. -1.
          1   -1    0    0  501    0 -0.00000000000E+00 -0.00000000000E+00 -0.46621542441E+02  0.46621542441E+02  0.00000000000E+00 0.  1.
          2    1    1    2  501    0 -0.30711132770E+01  0.20805475495E+02  0.30622085170E+03  0.30694219254E+03  0.00000000000E+00 0. -1.
          1    1    1    2  502    0  0.30711132770E+01 -0.20805475495E+02 -0.43870625533E+02  0.48651118507E+02  0.00000000000E+00 0.  1.
</event>
<event>
 4    1  0.3664744E+003  0.3328912E+02  0.7546771E-02  0.1393007E+00
          2   -1    0    0  502    0  0.00000000000E+00  0.00000000000E+00  0.20016760178E+04  0.20016760178E+04  0.00000000000E+00 0.  1.
          1   -1    0    0  501    0 -0.00000000000E+00 -0.00000000000E+00 -0.19876735191E+01  0.19876735191E+01  0.00000000000E+00 0.  1.
          2    1    1    2  501    0 -0.81982245614E+01  0.32263832320E+02  0.18507963351E+04  0.18510956863E+04  0.00000000000E+00 0.  1.
          1    1    1    2  502    0  0.81982245614E+01 -0.32263832320E+02  0.14889200914E+03  0.15256800499E+03  0.00000000000E+00 0.  1.
</event>
<event>
 4    1  0.3664744E+003  0.5778286E+02  0.7546771E-02  0.1267558E+00
          2   -1    0    0  502    0  0.00000000000E+00  0.00000000000E+00  0.32153217477E+04  0.32153217477E+04  0.00000000000E+00 0.  1.
          1   -1    0    0  501    0 -0.00000000000E+00 -0.00000000000E+00 -0.11830191020E+04  0.11830191020E+04  0.00000000000E+00 0. -1.
          2    1    1    2  501    0 -0.52564197506E+02  0.23997155826E+02  0.32143563505E+04  0.32148756751E+04  0.00000000000E+00 0.  1.
          1    1    1    2  502    0  0.52564197506E+02 -0.23997155826E+02 -0.11820537048E+04  0.11834651746E+04  0.00000000000E+00 0. -1.
</event>
<event>
 4    1  0.3664744E+003  0.2408677E+02  0.7546771E-02  0.1479285E+00
          2   -1    0    0  502    0  0.00000000000E+00  0.00000000000E+00  0.41658127995E+01  0.41658127995E+01  0.00000000000E+00 0. -1.
          1   -1    0    0  501    0 -0.00000000000E+00 -0.00000000000E+00 -0.20493194346E+03  0.20493194346E+03  0.00000000000E+00 0. -1.
          2    1    1    2  501    0 -0.23647687852E+02 -0.45781328793E+01 -0.41203515413E+02  0.47727372898E+02  0.00000000000E+00 0. -1.
          1    1    1    2  502    0  0.23647687852E+02  0.45781328793E+01 -0.15956261525E+03  0.16137038336E+03  0.00000000000E+00 0. -1.
</event>
<event>
 4    1  0.3664744E+003  0.2669565E+02  0.7546771E-02  0.1450690E+00
          2   -1    0    0  502    0  0.00000000000E+00  0.00000000000E+00  0.34755431397E+03  0.34755431397E+03  0.00000000000E+00 0. -1.
          1   -1    0    0  501    0 -0.00000000000E+00 -0.00000000000E+00 -0.77765393305E+02  0.77765393305E+02  0.00000000000E+00 0. -1.
          2    1    1    2  501    0  0.18101452987E+02  0.19621296649E+02  0.34473191037E+03  0.34576400610E+03  0.00000000000E+00 0. -1.
          1    1    1    2  502    0 -0.18101452987E+02 -0.19621296649E+02 -0.74942989712E+02  0.79555701175E+02  0.00000000000E+00 0. -1.
</event>
<event>
 4    1  0.3664744E+003  0.2409234E+02  0.7546771E-02  0.1479219E+00
          2   -1    0    0  502    0  0.00000000000E+00  0.00000000000E+00  0.32172348602E+03  0.32172348602E+03  0.00000000000E+00 0. -1.
          1   -1    0    0  501    0 -0.00000000000E+00 -0.00000000000E+00 -0.82763109224E+01  0.82763109224E+01  0.00000000000E+00 0. -1.
          2    1    1    2  501    0 -0.17712514603E+02 -0.16331183548E+02  0.30263510941E+03  0.30359257267E+03  0.00000000000E+00 0. -1.
          1    1    1    2  502    0  0.17712514603E+02  0.16331183548E+02  0.10812065688E+02  0.26407224278E+02  0.00000000000E+00 0. -1.
</event>
<event>
 4    1  0.3664744E+003  0.3505035E+02  0.7546771E-02  0.1380210E+00
          2   -1    0    0  502    0  0.00000000000E+00  0.00000000000E+00  0.62720290624E+03  0.62720290624E+03  0.00000000000E+00 0. -1.
          1   -1    0    0  501    0 -0.00000000000E+00 -0.00000000000E+00 -0.13121729867E+02  0.13121729867E+02  0.00000000000E+00 0. -1.
          2    1    1    2  501    0  0.29376737082E+02 -0.19118945531E+02  0.60234161361E+03  0.60336054416E+03  0.00000000000E+00 0. -1.
          1    1    1    2  502    0 -0.29376737082E+02  0.19118945531E+02  0.11739562763E+02  0.36964091950E+02  0.00000000000E+00 0. -1.
</event>
<event>
 4    1  0.3664744E+003  0.2880537E+02  0.7546771E-02  0.1430270E+00
          2   -1    0    0  502    0  0.00000000000E+00  0.00000000000E+00  0.91735098316E+03  0.91735098316E+03  0.00000000000E+00 0.  1.
          1   -1    0    0  501    0 -0.00000000000E+00 -0.00000000000E+00 -0.25320170635E+01  0.25320170635E+01  0.00000000000E+00 0. -1.
          2    1    1    2  501    0  0.26047926499E+02 -0.12298574553E+02  0.82615883555E+03  0.82666085608E+03  0.00000000000E+00 0.  1.
          1    1    1    2  502    0 -0.26047926499E+02  0.12298574553E+02  0.88660130545E+02  0.93222144146E+02  0.00000000000E+00 0. -1.
</event>
<event>
 4    1  0.3664744E+003  0.2588521E+02  0.7546771E-02  0.1459140E+00
          2   -1    0    0  502    0  0.00000000000E+00  0.00000000000E+00  0.42638991697E+03  0.42638991697E+03  0.00000000000E+00 0. -1.
          1   -1    0    0  501    0 -0.00000000000E+00 -0.00000000000E+00 -0.84425550762E+01  0.84425550762E+01  0.00000000000E+00 0. -1.
          2    1    1    2  501    0 -0.25862158623E+02 -0.10920803730E+01  0.40511486913E+03  0.40594100689E+03  0.00000000000E+00 0. -1.
          1    1    1    2  502    0  0.25862158623E+02  0.10920803730E+01  0.12832492767E+02  0.28891465155E+02  0.00000000000E+00 0. -1.
</event>
<event>
 4    1  0.3664744E+003  0.2052511E+02  0.7546771E-02  0.1526154E+00
          2   -1    0    0  502    0  0.00000000000E+00  0.00000000000E+00  0.38705690586E+03  0.38705690586E+03  0.00000000000E+00 0. -1.
          1   -1    0    0  501    0 -0.00000000000E+00 -0.00000000000E+00 -0.78119828049E+01  0.78119828049E+01  0.00000000000E+00 0.  1.
          2    1    1    2  501    0  0.16140411973E+02 -0.12679398746E+02  0.37278727626E+03  0.37335188949E+03  0.00000000000E+00 0. -1.
          1    1    1    2  502    0 -0.16140411973E+02  0.12679398746E+02  0.64576468037E+01  0.21516999174E+02  0.00000000000E+00 0.  1.
</event>
<event>
 4    1  0.3664744E+003  0.2430932E+02  0.7546771E-02  0.1476680E+00
          2   -1    0    0  502    0  0.00000000000E+00  0.00000000000E+00  0.10297793893E+04  0.10297793893E+04  0.00000000000E+00 0. -1.
          1   -1    0    0  501    0 -0.00000000000E+00 -0.00000000000E+00 -0.20443017939E+03  0.20443017939E+03  0.00000000000E+00 0.  1.
          2    1    1    2  501    0  0.14576871889E+02  0.19453998583E+02  0.10289126458E+04  0.10291997745E+04  0.00000000000E+00 0. -1.
          1    1    1    2  502    0 -0.14576871889E+02 -0.19453998583E+02 -0.20356343589E+03  0.20500979413E+03  0.00000000000E+00 0.  1.
</event>
<event>
 4    1  0.3664744E+003  0.2750124E+02  0.7546771E-02  0.1442637E+00
          2   -1    0    0  502    0  0.00000000000E+00  0.00000000000E+00  0.15841756956E+04  0.15841756956E+04  0.00000000000E+00 0.  1.
          1   -1    0    0  501    0 -0.00000000000E+00 -0.00000000000E+00 -0.81264698333E+00  0.81264698333E+00  0.00000000000E+00 0. -1.
          2    1    1    2  501    0 -0.27026247387E+02 -0.50892230348E+01  0.13006772747E+04  0.13009679824E+04  0.00000000000E+00 0.  1.
          1    1    1    2  502    0  0.27026247387E+02  0.50892230348E+01  0.28268577386E+03  0.28402036015E+03  0.00000000000E+00 0. -1.
</event>
<event>
 4    1  0.3664744E+003  0.2088538E+02  0.7546771E-02  0.1520908E+00
          2   -1    0    0  502    0  0.00000000000E+00  0.00000000000E+00  0.97448782858E+01  0.97448782858E+01  0.00000000000E+00 0. -1.
          1   -1    0    0  501    0 -0.00000000000E+00 -0.00000000000E+00 -0.21353112294E+03  0.21353112294E+03  0.00000000000E+00 0.  1.
          2    1    1    2  501    0 -0.20870611025E+02 -0.78542078170E+00 -0.26436788470E+01  0.21052038576E+02  0.00000000000E+00 0. -1.
          1    1    1    2  502    0  0.20870611025E+02  0.78542078170E+00 -0.20114256581E+03  0.20222396265E+03  0.00000000000E+00 0.  1.
</event>
<event>
 4    1  0.3664744E+003  0.3168357E+02  0.7546771E-02  0.1405509E+00
          2   -1    0    0  502    0  0.00000000000E+00  0.00000000000E+00  0.25998115703E+03  0.25998115703E+03  0.00000000000E+00 0.  1.
          1   -1    0    0  501    0 -0.00000000000E+00 -0.00000000000E+00 -0.49028352952E+01  0.49028352952E+01  0.00000000000E+00 0.  1.
          2    1    1    2  501    0 -0.29671519743E+02  0.11110787305E+02  0.18858447655E+03  0.19122749142E+03  0.00000000000E+00 0.  1.
          1    1    1    2  502    0  0.29671519743E+02 -0.11110787305E+02  0.66493845180E+02  0.73656500902E+02  0.00000000000E+00 0.  1.
</event>
<event>
 4    1  0.3664744E+003  0.2163202E+02  0.7546771E-02  0.1510429E+00
          2   -1    0    0  502    0  0.00000000000E+00  0.00000000000E+00  0.71935205597E+03  0.71935205597E+03  0.00000000000E+00 0. -1.
          1   -1    0    0  501    0 -0.00000000000E+00 -0.00000000000E+00 -0.19490319569E+03  0.19490319569E+03  0.00000000000E+00 0. -1.
          2    1    1    2  501    0 -0.15403261864E+02 -0.15188274936E+02  0.71858856502E+03  0.71891409080E+03  0.00000000000E+00 0. -1.
          1    1    1    2  502    0  0.15403261864E+02  0.15188274936E+02 -0.19413970474E+03  0.19534116086E+03  0.00000000000E+00 0. -1.
</event>
<event>
 4    1  0.3664744E+003  0.2681383E+02  0.7546771E-02  0.1449487E+00
          2   -1    0    0  502    0  0.00000000000E+00  0.00000000000E+00  0.10734681747E+02  0.10734681747E+02  0.00000000000E+00 0. -1.
          1   -1    0    0  501    0 -0.00000000000E+00 -0.00000000000E+00 -0.12421951732E+03  0.12421951732E+03  0.00000000000E+00 0. -1.
          2    1    1    2  501    0  0.19492418069E+02 -0.18412687174E+02 -0.10936750626E+02  0.28958486241E+02  0.00000000000E+00 0. -1.
          1    1    1    2  502    0 -0.19492418069E+02  0.18412687174E+02 -0.10254808495E+03  0.10599571283E+03  0.00000000000E+00 0. -1.
</event>
<event>
 4    1  0.3664744E+003  0.2003183E+02  0.7546771E-02  0.1533550E+00
          2   -1    0    0  502    0  0.00000000000E+00  0.00000000000E+00  0.25502580766E+00  0.25502580766E+00  0.00000000000E+00 0.  1.
          1   -1    0    0  501    0 -0.00000000000E+00 -0.00000000000E+00 -0.15824761819E+04  0.15824761819E+04  0.00000000000E+00 0.  1.
          2    1    1    2  501    0  0.48657515469E+01 -0.19431899983E+02 -0.73139457864E+03  0.73166884855E+03  0.00000000000E+00 0.  1.
          1    1    1    2  502    0 -0.48657515469E+01  0.19431899983E+02 -0.85082657746E+03  0.85106235916E+03  0.00000000000E+00 0.  1.
</event>
<event>
 4    1  0.3664744E+003  0.2564062E+02  0.7546771E-02  0.1461763E+00
          2   -1    0    0  502    0  0.00000000000E+00  0.00000000000E+00  0.12123115717E+04  0.12123115717E+04  0.00000000000E+00 0.  1.
          1   -1    0    0  501    0 -0.00000000000E+00 -0.00000000000E+00 -0.33422605768E+01  0.33422605768E+01  0.00000000000E+00 0. -1.
          2    1    1    2  501    0  0.25551774196E+02 -0.21326503626E+01  0.11608184298E+04  0.11611015753E+04  0.00000000000E+00 0.  1.
          1    1    1    2  502    0 -0.25551774196E+02  0.21326503626E+01  0.48150881373E+02  0.54552256957E+02  0.00000000000E+00 0. -1.
</event>
<event>
 4    1  0.3664744E+003  0.2093873E+02  0.7546771E-02  0.1520141E+00
          2   -1    0    0  502    0  0.00000000000E+00  0.00000000000E+00  0.73707126434E+01  0.73707126434E+01  0.00000000000E+00 0. -1.
          1   -1    0    0  501    0 -0.00000000000E+00 -0.00000000000E+00 -0.10901260296E+03  0.10901260296E+03  0.00000000000E+00 0. -1.
          2    1    1    2  501    0  0.43757804463E+00  0.20934162090E+02 -0.11596601927E+02  0.23935575890E+02  0.00000000000E+00 0. -1.
          1    1    1    2  502    0 -0.43757804463E+00 -0.20934162090E+02 -0.90045288394E+02  0.92447739718E+02  0.00000000000E+00 0. -1.
</event>
<event>
 4    1  0.3664744E+003  0.2701906E+02  0.7546771E-02  0.1447417E+00
          2   -1    0    0  502    0  0.00000000000E+00  0.00000000000E+00  0.13958805775E+01  0.13958805775E+01  0.00000000000E+00 0.  1.
          1   -1    0    0  501    0 -0.00000000000E+00 -0.00000000000E+00 -0.13554120632E+04  0.13554120632E+04  0.00000000000E+00 0. -1.
          2    1    1    2  501    0 -0.15404495259E+02  0.22197547857E+02 -0.14535925252E+03  0.14784905106E+03  0.00000000000E+00 0.  1.
          1    1    1    2  502    0  0.15404495259E+02 -0.22197547857E+02 -0.12086569301E+04  0.12089588928E+04  0.00000000000E+00 0. -1.
</event>
<event>
 4    1  0.3664744E+003  0.2353501E+02  0.7546771E-02  0.1485887E+00
          2   -1    0    0  502    0  0.00000000000E+00  0.00000000000E+00  0.33028087396E+03  0.33028087396E+03  0.00000000000E+00 0.  1.
          1   -1    0    0  501    0 -0.00000000000E+00 -0.00000000000E+00 -0.17471876763E+02  0.17471876763E+02  0.00000000000E+00 0.  1.
          2    1    1    2  501    0  0.81559247686E+01  0.22076625689E+02  0.32172559457E+03  0.32258526735E+03  0.00000000000E+00 0.  1.
          1    1    1    2  502    0 -0.81559247686E+01 -0.22076625689E+02 -0.89165973716E+01  0.25167483373E+02  0.00000000000E+00 0.  1.
</event>
<event>
 4    1  0.3664744E+003  0.2098205E+02  0.7546771E-02  0.1519521E+00
          2   -1    0    0  502    0  0.00000000000E+00  0.00000000000E+00  0.65980355373E+03  0.65980355373E+03  0.00000000000E+00 0.  1.
          1   -1    0    0  501    0 -0.00000000000E+00 -0.00000000000E+00 -0.39247607438E+02  0.39247607438E+02  0.00000000000E+00 0.  1.
          2    1    1    2  501    0 -0.96739690076E+01 -0.18618825442E+02  0.65681972016E+03  0.65715476953E+03  0.00000000000E+00 0.  1.
          1    1    1    2  502    0  0.96739690076E+01  0.18618825442E+02 -0.36263773862E+02  0.41896391634E+02  0.00000000000E+00 0.  1.
</event>
<event>
 4    1  0.3664744E+003  0.2553708E+02  0.7546771E-02  0.1462884E+00
          2   -1    0    0  502    0  0.00000000000E+00  0.00000000000E+00  0.14221707259E+04  0.14221707259E+04  0.00000000000E+00 0.  1.
          1   -1    0    0  501    0 -0.00000000000E+00 -0.00000000000E+00 -0.81680570724E+01  0.81680570724E+01  0.00000000000E+00 0.  1.
          2    1    1    2  501    0 -0.78920516719E+01 -0.24286988621E+02  0.14018059992E+04  0.14020385878E+04  0.00000000000E+00 0.  1.
          1    1    1    2  502    0  0.78920516719E+01  0.24286988621E+02  0.12196669605E+02  0.28300195147E+02  0.00000000000E+00 0.  1.
</event>
<event>
 4    1  0.3664744E+003  0.2038828E+02  0.7546771E-02  0.1528181E+00
          2   -1    0    0  502    0  0.00000000000E+00  0.00000000000E+00  0.66424910280E+00  0.66424910280E+00  0.00000000000E+00 0.  1.
          1   -1    0    0  501    0 -0.00000000000E+00 -0.00000000000E+00 -0.14438918833E+04  0.14438918833E+04  0.00000000000E+00 0. -1.
          2    1    1    2  501    0  0.18999393014E+02 -0.73962766906E+01 -0.17793773597E+03  0.17910198135E+03  0.00000000000E+00 0.  1.
          1    1    1    2  502    0 -0.18999393014E+02  0.73962766906E+01 -0.12652898983E+04  0.12654541511E+04  0.00000000000E+00 0. -1.
</event>
<event>
 4    1  0.3664744E+003  0.4337009E+02  0.7546771E-02  0.1329794E+00
          2   -1    0    0  502    0  0.00000000000E+00  0.00000000000E+00  0.12765655322E+03  0.12765655322E+03  0.00000000000E+00 0. -1.
          1   -1    0    0  501    0 -0.00000000000E+00 -0.00000000000E+00 -0.40592849568E+02  0.40592849568E+02  0.00000000000E+00 0. -1.
          2    1    1    2  501    0  0.38484109331E+02  0.19998455656E+02  0.11067451259E+03  0.11886888843E+03  0.00000000000E+00 0. -1.
          1    1    1    2  502    0 -0.38484109331E+02 -0.19998455656E+02 -0.23610808937E+02  0.49380514358E+02  0.00000000000E+00 0. -1.
</event>
<event>
 4    1  0.3664744E+003  0.2725550E+02  0.7546771E-02  0.1445058E+00
          2   -1    0    0  502    0  0.00000000000E+00  0.00000000000E+00  0.69991796925E+01  0.69991796925E+01  0.00000000000E+00 0. -1.
          1   -1    0    0  501    0 -0.00000000000E+00 -0.00000000000E+00 -0.13413503232E+03  0.13413503232E+03  0.00000000000E+00 0. -1.
          2    1    1    2  501    0  0.23784730990E+02 -0.13309734504E+02 -0.31327152901E+02  0.41524125153E+02  0.00000000000E+00 0. -1.
          1    1    1    2  502    0 -0.23784730990E+02  0.13309734504E+02 -0.95808699722E+02  0.99610086855E+02  0.00000000000E+00 0. -1.
</event>
<event>
 4    1  0.3664744E+003  0.2740508E+02  0.7546771E-02  0.1443581E+00
          2   -1    0    0  502    0  0.00000000000E+00  0.00000000000E+00  0.16852027769E+04  0.16852027769E+04  0.00000000000E+00 0.  1.
          1   -1    0    0  501    0 -0.00000000000E+00 -0.00000000000E+00 -0.13004419761E+01  0.13004419761E+01  0.00000000000E+00 0.  1.
          2    1    1    2  501    0  0.99255157698E+01 -0.25544517540E+02  0.15256073467E+04  0.15258534709E+04  0.00000000000E+00 0.  1.
          1    1    1    2  502    0 -0.99255157698E+01  0.25544517540E+02  0.15829498818E+03  0.16064974797E+03  0.00000000000E+00 0.  1.
</event>
<event>
 4    1  0.3664744E+003  0.2190042E+02  0.7546771E-02  0.1506787E+00
          2   -1    0    0  502    0  0.00000000000E+00  0.00000000000E+00  0.69882903171E+03  0.69882903171E+03  0.00000000000E+00 0. -1.
          1   -1    0    0  501    0 -0.00000000000E+00 -0.00000000000E+00 -0.76855005187E+00  0.76855005187E+00  0.00000000000E+00 0. -1.
          2    1    1    2  501    0  0.21258964164E+02 -0.52616178156E+01  0.46344126849E+03  0.46395844374E+03  0.00000000000E+00 0. -1.
          1    1    1    2  502    0 -0.21258964164E+02  0.52616178156E+01  0.23461921317E+03  0.23563913802E+03  0.00000000000E+00 0. -1.
</event>
<event>
 4    1  0.3664744E+003  0.2665266E+02  0.7546771E-02  0.1451129E+00
          2   -1    0    0  502    0  0.00000000000E+00  0.00000000000E+00  0.16319630612E+03  0.16319630612E+03  0.00000000000E+00 0. -1.
          1   -1    0    0  501    0 -0.00000000000E+00 -0.00000000000E+00 -0.70039326127E+02  0.70039326127E+02  0.00000000000E+00 0.  1.
          2    1    1    2  501    0 -0.25931677837E+02  0.61572962632E+01  0.15951438671E+03  0.16172570538E+03  0.00000000000E+00 0. -1.
          1    1    1    2  502    0  0.25931677837E+02 -0.61572962632E+01 -0.66357406723E+02  0.71509926862E+02  0.00000000000E+00 0.  1.
</event>
<event>
 4    1  0.3664744E+003  0.3172210E+02  0.7546771E-02  0.1405199E+00
          2   -1    0    0  502    0  0.00000000000E+00  0.00000000000E+00  0.80023060749E+03  0.80023060749E+03  0.00000000000E+00 0. -1.
          1   -1    0    0  501    0 -0.00000000000E+00 -0.00000000000E+00 -0.13424269000E+01  0.13424269000E+01  0.00000000000E+00 0. -1.
          2    1    1    2  501    0  0.31718047974E+02 -0.50702436942E+00  0.50024980130E+03  0.50125458137E+03  0.00000000000E+00 0. -1.
          1    1    1    2  502    0 -0.31718047974E+02  0.50702436942E+00  0.29863837929E+03  0.30031845302E+03  0.00000000000E+00 0. -1.
</event>
<event>
 4    1  0.3664744E+003  0.2180173E+02  0.7546771E-02  0.1508119E+00
          2   -1    0    0  502    0  0.00000000000E+00  0.00000000000E+00  0.21294033053E+03  0.21294033053E+03  0.00000000000E+00 0.  1.
          1   -1    0    0  501    0 -0.00000000000E+00 -0.00000000000E+00 -0.72466629774E+01  0.72466629774E+01  0.00000000000E+00 0.  1.
          2    1    1    2  501    0 -0.50321231081E+01  0.21213047405E+02  0.19442814006E+03  0.19564666440E+03  0.00000000000E+00 0.  1.
          1    1    1    2  502    0  0.50321231081E+01 -0.21213047405E+02  0.11265527498E+02  0.24540329114E+02  0.00000000000E+00 0.  1.
</event>
<event>
 4    1  0.3664744E+003  0.2048263E+02  0.7546771E-02  0.1526781E+00
          2   -1    0    0  502    0  0.00000000000E+00  0.00000000000E+00  0.13448931972E+03  0.13448931972E+03  0.00000000000E+00 0.  1.
          1   -1    0    0  501    0 -0.00000000000E+00 -0.00000000000E+00 -0.33998679588E+02  0.33998679588E+02  0.00000000000E+00 0.  1.
          2    1    1    2  501    0 -0.13268795931E+02 -0.15603757518E+02  0.13053151838E+03  0.13212878371E+03  0.00000000000E+00 0.  1.
          1    1    1    2  502    0  0.13268795931E+02  0.15603757518E+02 -0.30040878239E+02  0.36359215607E+02  0.00000000000E+00 0.  1.
</event>
<event>
 4    1  0.3664744E+003  0.2304424E+02  0.7546771E-02  0.1491943E+00
          2   -1    0    0  502    0  0.00000000000E+00  0.00000000000E+00  0.15054331176E+03  0.15054331176E+03  0.00000000000E+00 0. -1.
          1   -1    0    0  501    0 -0.00000000000E+00 -0.00000000000E+00 -0.63046582301E+01  0.63046582301E+01  0.00000000000E+00 0. -1.
          2    1    1    2  501    0  0.21289620605E+02  0.88198110925E+01  0.12416933368E+03  0.12628958960E+03  0.00000000000E+00 0. -1.
          1    1    1    2  502    0 -0.21289620605E+02 -0.88198110925E+01  0.20069319849E+02  0.30558380395E+02  0.00000000000E+00 0. -1.
</event>
<event>
 4    1  0.3664744E+003  0.2958538E+02  0.7546771E-02  0.1423234E+00
          2   -1    0    0  502    0  0.00000000000E+00  0.00000000000E+00  0.12647737787E+02  0.12647737787E+02  0.00000000000E+00 0. -1.
          1   -1    0    0  501    0 -0.00000000000E+00 -0.00000000000E+00 -0.15366923386E+03  0.15366923386E+03  0.00000000000E+00 0. -1.
          2    1    1    2  501    0  0.27308559938E+02  0.11381443022E+02 -0.88586432575E+01  0.30883171008E+02  0.00000000000E+00 0. -1.
          1    1    1    2  502    0 -0.27308559938E+02 -0.11381443022E+02 -0.13216285282E+03  0.13543380064E+03  0.00000000000E+00 0. -1.
</event>
<event>
 4    1  0.3664744E+003  0.2894467E+02  0.7546771E-02  0.1428994E+00
          2   -1    0    0  502    0  0.00000000000E+00  0.00000000000E+00  0.18555092416E+01  0.18555092416E+01  0.00000000000E+00 0. -1.
          1   -1    0    0  501    0 -0.00000000000E+00 -0.00000000000E+00 -0.45701459415E+03  0.45701459415E+03  0.00000000000E+00 0. -1.
          2    1    1    2  501    0  0.28943920285E+02 -0.20816375647E+00 -0.20241532274E+03  0.20447434249E+03  0.00000000000E+00 0. -1.
          1    1    1    2  502    0 -0.28943920285E+02  0.20816375647E+00 -0.25274376217E+03  0.25439576091E+03  0.00000000000E+00 0. -1.
</event>
<event>
 4    1  0.3664744E+003  0.2036152E+02  0.7546771E-02  0.1528579E+00
          2   -1    0    0  502    0  0.00000000000E+00  0.00000000000E+00  0.15422704618E+03  0.15422704618E+03  0.00000000000E+00 0.  1.
          1   -1    0    0  501    0 -0.00000000000E+00 -0.00000000000E+00 -0.64800202605E+01  0.64800202605E+01  0.00000000000E+00 0. -1.
          2    1    1    2  501    0 -0.13854621663E+02  0.14921156077E+02  0.13534041154E+03  0.13686350294E+03  0.00000000000E+00 0.  1.
          1    1    1    2  502    0  0.13854621663E+02 -0.14921156077E+02  0.12406614373E+02  0.23843563498E+02  0.00000000000E+00 0. -1.
</event>
<event>
 4    1  0.3664744E+003  0.2268941E+02  0.7546771E-02  0.1496436E+00
          2   -1    0    0  502    0  0.00000000000E+00  0.00000000000E+00  0.10876640151E+03  0.10876640151E+03  0.00000000000E+00 0.  1.
          1   -1    0    0  501    0 -0.00000000000E+00 -0.00000000000E+00 -0.53543530282E+02  0.53543530282E+02  0.00000000000E+00 0.  1.
          2    1    1    2  501    0  0.82355543665E+01  0.21142014153E+02  0.10509643535E+03  0.10751776523E+03  0.00000000000E+00 0.  1.
          1    1    1    2  502    0 -0.82355543665E+01 -0.21142014153E+02 -0.49873564119E+02  0.54792166558E+02  0.00000000000E+00 0.  1.
</event>
<event>
 4    1  0.3664744E+003  0.4198763E+02  0.7546771E-02  0.1337216E+00
          2   -1    0    0  502    0  0.00000000000E+00  0.00000000000E+00  0.29656828970E+03  0.29656828970E+03  0.00000000000E+00 0.  1.
          1   -1    0    0  501    0 -0.00000000000E+00 -0.00000000000E+00 -0.85789776787E+01  0.85789776787E+01  0.00000000000E+00 0. -1.
          2    1    1    2  501    0 -0.38781278870E+01  0.41808148715E+02  0.22854316075E+03  0.23236810775E+03  0.00000000000E+00 0.  1.
          1    1    1    2  502    0  0.38781278870E+01 -0.41808148715E+02  0.59446151269E+02  0.72779159624E+02  0.00000000000E+00 0. -1.
</event>
<event>
 4    1  0.3664744E+003  0.6243480E+02  0.7546771E-02  0.1251777E+00
          2   -1    0    0  502    0  0.00000000000E+00  0.00000000000E+00  0.82847998160E+02  0.82847998160E+02  0.00000000000E+00 0.  1.
          1   -1    0    0  501    0 -0.00000000000E+00 -0.00000000000E+00 -0.48103861253E+02  0.48103861253E+02  0.00000000000E+00 0. -1.
          2    1    1    2  501    0  0.46886814380E+02 -0.41227798530E+02  0.27057491284E+02  0.68045665320E+02  0.00000000000E+00 0.  1.
          1    1    1    2  502    0 -0.46886814380E+02  0.41227798530E+02  0.76866456237E+01  0.62906194093E+02  0.00000000000E+00 0. -1.
</event>
<event>
 4    1  0.3664744E+003  0.2688557E+02  0.7546771E-02  0.1448761E+00
          2   -1    0    0  502    0  0.00000000000E+00  0.00000000000E+00  0.13165445845E+01  0.13165445845E+01  0.00000000000E+00 0.  1.
          1   -1    0    0  501    0 -0.00000000000E+00 -0.00000000000E+00 -0.15496243085E+04  0.15496243085E+04  0.00000000000E+00 0.  1.
          2    1    1    2  501    0 -0.16680419179E+01  0.26833774076E+02 -0.15102313969E+03  0.15339759619E+03  0.00000000000E+00 0.  1.
          1    1    1    2  502    0  0.16680419179E+01 -0.26833774076E+02 -0.13972846243E+04  0.13975432569E+04  0.00000000000E+00 0.  1.
</event>
<event>
 4    1  0.3664744E+003  0.2136060E+02  0.7546771E-02  0.1514178E+00
          2   -1    0    0  502    0  0.00000000000E+00  0.00000000000E+00  0.47025362454E+03  0.47025362454E+03  0.00000000000E+00 0. -1.
          1   -1    0    0  501    0 -0.00000000000E+00 -0.00000000000E+00 -0.49237545832E+01  0.49237545832E+01  0.00000000000E+00 0.  1.
          2    1    1    2  501    0 -0.32421090051E+01 -0.21113120111E+02  0.44556085540E+03  0.44607258488E+03  0.00000000000E+00 0. -1.
          1    1    1    2  502    0  0.32421090051E+01  0.21113120111E+02  0.19769014552E+02  0.29104794244E+02  0.00000000000E+00 0.  1.
</event>
<event>
 4    1  0.3664744E+003  0.2554057E+02  0.7546771E-02  0.1462846E+00
          2   -1    0    0  502    0  0.00000000000E+00  0.00000000000E+00  0.26682571800E+01  0.26682571800E+01  0.00000000000E+00 0. -1.
          1   -1    0    0  501    0 -0.00000000000E+00 -0.00000000000E+00 -0.36226136765E+03  0.36226136765E+03  0.00000000000E+00 0. -1.
          2    1    1    2  501    0  0.25175844778E+02 -0.43009014251E+01 -0.75752684856E+02  0.79942417879E+02  0.00000000000E+00 0. -1.
          1    1    1    2  502    0 -0.25175844778E+02  0.43009014251E+01 -0.28384042561E+03  0.28498720695E+03  0.00000000000E+00 0. -1.
</event>
<event>
 4    1  0.3664744E+003  0.2161147E+02  0.7546771E-02  0.1510711E+00
          2   -1    0    0  502    0  0.00000000000E+00  0.00000000000E+00  0.14073099755E+02  0.14073099755E+02  0.00000000000E+00 0. -1.
          1   -1    0    0  501    0 -0.00000000000E+00 -0.00000000000E+00 -0.41983026484E+03  0.41983026484E+03  0.00000000000E+00 0. -1.
          2    1    1    2  501    0  0.15903786189E+02  0.14633019923E+02  0.53215048084E+01  0.22257001160E+02  0.00000000000E+00 0. -1.
          1    1    1    2  502    0 -0.15903786189E+02 -0.14633019923E+02 -0.41107866990E+03  0.41164636344E+03  0.00000000000E+00 0. -1.
</event>
<event>
 4    1  0.3664744E+003  0.2992842E+02  0.7546771E-02  0.1420220E+00
          2   -1    0    0  502    0  0.00000000000E+00  0.00000000000E+00  0.14937829189E+03  0.14937829189E+03  0.00000000000E+00 0.  1.
          1   -1    0    0  501    0 -0.00000000000E+00 -0.00000000000E+00 -0.18713089645E+03  0.18713089645E+03  0.00000000000E+00 0.  1.
          2    1    1    2  501    0 -0.23278801184E+02 -0.18809778041E+02  0.14666064433E+03  0.14968318185E+03  0.00000000000E+00 0.  1.
          1    1    1    2  502    0  0.23278801184E+02  0.18809778041E+02 -0.18441324888E+03  0.18682600648E+03  0.00000000000E+00 0.  1.
</event>
<event>
 4    1  0.3664744E+003  0.2824245E+02  0.7546771E-02  0.1435511E+00
          2   -1    0    0  502    0  0.00000000000E+00  0.00000000000E+00  0.16861963029E+02  0.16861963029E+02  0.00000000000E+00 0.  1.
          1   -1    0    0  501    0 -0.00000000000E+00 -0.00000000000E+00 -0.11276897478E+04  0.11276897478E+04  0.00000000000E+00 0.  1.
          2    1    1    2  501    0 -0.24604418280E+01 -0.28135071536E+02  0.47305836722E+01  0.28635894367E+02  0.00000000000E+00 0.  1.
          1    1    1    2  502    0  0.24604418280E+01  0.28135071536E+02 -0.11155583684E+04  0.11159158164E+04  0.00000000000E+00 0.  1.
</event>
<event>
 4    1  0.3664744E+003  0.2078735E+02  0.7546771E-02  0.1522323E+00
          2   -1    0    0  502    0  0.00000000000E+00  0.00000000000E+00  0.98048212721E+03  0.98048212721E+03  0.00000000000E+00 0. -1.
          1   -1    0    0  501    0 -0.00000000000E+00 -0.00000000000E+00 -0.63683612213E+00  0.63683612213E+00  0.00000000000E+00 0. -1.
          2    1    1    2  501    0 -0.18072760488E+02  0.10270798989E+02  0.76215460419E+03  0.76243803333E+03  0.00000000000E+00 0. -1.
          1    1    1    2  502    0  0.18072760488E+02 -0.10270798989E+02  0.21769068690E+03  0.21868093000E+03  0.00000000000E+00 0. -1.
</event>
<event>
 4    1  0.3664744E+003  0.2359189E+02  0.7546771E-02  0.1485197E+00
          2   -1    0    0  502    0  0.00000000000E+00  0.00000000000E+00  0.77955337931E+01  0.77955337931E+01  0.00000000000E+00 0. -1.
          1   -1    0    0  501    0 -0.00000000000E+00 -0.00000000000E+00 -0.24195993748E+03  0.24195993748E+03  0.00000000000E+00 0.  1.
          2    1    1    2  501    0  0.13421531888E+01  0.23553680521E+02 -0.12235277257E+02  0.26575914863E+02  0.00000000000E+00 0. -1.
          1    1    1    2  502    0 -0.13421531888E+01 -0.23553680521E+02 -0.22192912643E+03  0.22317955641E+03  0.00000000000E+00 0.  1.
</event>
<event>
 4    1  0.3664744E+003  0.2871399E+02  0.7546771E-02  0.1431111E+00
          2   -1    0    0  502    0  0.00000000000E+00  0.00000000000E+00  0.32143978381E+03  0.32143978381E+03  0.00000000000E+00 0.  1.
          1   -1    0    0  501    0 -0.00000000000E+00 -0.00000000000E+00 -0.81938196809E+01  0.81938196809E+01  0.00000000000E+00 0. -1.
          2    1    1    2  501    0 -0.23934300979E+02 -0.15863245386E+02  0.29322808307E+03  0.29463061962E+03  0.00000000000E+00 0.  1.
          1    1    1    2  502    0  0.23934300979E+02  0.15863245386E+02  0.20017881054E+02  0.35002983864E+02  0.00000000000E+00 0. -1.
</event>
<event>
 4    1  0.3664744E+003  0.2453650E+02  0.7546771E-02  0.1474056E+00
          2   -1    0    0  502    0  0.00000000000E+00  0.00000000000E+00  0.12493061071E+02  0.12493061071E+02  0.00000000000E+00 0. -1.
          1   -1    0    0  501    0 -0.00000000000E+00 -0.00000000000E+00 -0.11918404803E+03  0.11918404803E+03  0.00000000000E+00 0. -1.
          2    1    1    2  501    0  0.27196735927E+01  0.24385307280E+02 -0.25316106294E+01  0.24666756738E+02  0.00000000000E+00 0. -1.
          1    1    1    2  502    0 -0.27196735927E+01 -0.24385307280E+02 -0.10415937633E+03  0.10701035236E+03  0.00000000000E+00 0. -1.
</event>
<event>
 4    1  0.3664744E+003  0.2388798E+02  0.7546771E-02  0.1481639E+00
          2   -1    0    0  502    0  0.00000000000E+00  0.00000000000E+00  0.71432795222E+01  0.71432795222E+01  0.00000000000E+00 0.  1.
          1   -1    0    0  501    0 -0.00000000000E+00 -0.00000000000E+00 -0.31570064389E+03  0.31570064389E+03  0.00000000000E+00 0. -1.
          2    1    1    2  501    0  0.18408535195E+02 -0.15223716494E+02 -0.14766587275E+02  0.28083586161E+02  0.00000000000E+00 0.  1.
          1    1    1    2  502    0 -0.18408535195E+02  0.15223716494E+02 -0.29379077709E+03  0.29476033725E+03  0.00000000000E+00 0. -1.
</event>
<event>
 4    1  0.3664744E+003  0.2307188E+02  0.7546771E-02  0.1491597E+00
          2   -1    0    0  502    0  0.00000000000E+00  0.00000000000E+00  0.84242057529E+02  0.84242057529E+02  0.00000000000E+00 0. -1.
          1   -1    0    0  501    0 -0.00000000000E+00 -0.00000000000E+00 -0.64492090294E+01  0.64492090294E+01  0.00000000000E+00 0. -1.
          2    1    1    2  501    0 -0.48655659204E+01 -0.22553006253E+02  0.45343675599E+02  0.50875934779E+02  0.00000000000E+00 0. -1.
          1    1    1    2  502    0  0.48655659204E+01  0.22553006253E+02  0.32449172900E+02  0.39815331779E+02  0.00000000000E+00 0. -1.
</event>
<event>
 4    1  0.3664744E+003  0.2746189E+02  0.7546771E-02  0.1443023E+00
          2   -1    0    0  502    0  0.00000000000E+00  0.00000000000E+00  0.36037308492E+03  0.36037308492E+03  0.00000000000E+00 0.  1.
          1   -1    0    0  501    0 -0.00000000000E+00 -0.00000000000E+00 -0.28275311946E+01  0.28275311946E+01  0.00000000000E+00 0.  1.
          2    1    1    2  501    0 -0.13156511128E+02  0.24105223936E+02  0.27135003893E+03  0.27273613482E+03  0.00000000000E+00 0.  1.
          1    1    1    2  502    0  0.13156511128E+02 -0.24105223936E+02  0.86195514787E+02  0.90464481292E+02  0.00000000000E+00 0.  1.
</event>
<event>
 4    1  0.3664744E+003  0.2269387E+02  0.7546771E-02  0.1496378E+00
          2   -1    0    0  502    0  0.00000000000E+00  0.00000000000E+00  0.13225177006E+03  0.13225177006E+03  0.00000000000E+00 0.  1.
          1   -1    0    0  501    0 -0.00000000000E+00 -0.00000000000E+00 -0.83375544675E+02  0.83375544675E+02  0.00000000000E+00 0.  1.
          2    1    1    2  501    0  0.14867086137E+02  0.17145883825E+02  0.12970386707E+03  0.13167423710E+03  0.00000000000E+00 0.  1.
          1    1    1    2  502    0 -0.14867086137E+02 -0.17145883825E+02 -0.80827641691E+02  0.83953077631E+02  0.00000000000E+00 0.  1.
</event>
<event>
 4    1  0.3664744E+003  0.2138337E+02  0.7546771E-02  0.1513861E+00
          2   -1    0    0  502    0  0.00000000000E+00  0.00000000000E+00  0.65956881427E+03  0.65956881427E+03  0.00000000000E+00 0. -1.
          1   -1    0    0  501    0 -0.00000000000E+00 -0.00000000000E+00 -0.88851666469E+01  0.88851666469E+01  0.00000000000E+00 0.  1.
          2    1    1    2  501    0  0.10419736815E+02  0.18672911296E+02  0.64626523024E+03  0.64661889576E+03  0.00000000000E+00 0. -1.
          1    1    1    2  502    0 -0.10419736815E+02 -0.18672911296E+02  0.44184173757E+01  0.21835085153E+02  0.00000000000E+00 0.  1.
</event>
<event>
 4    1  0.3664744E+003  0.2651271E+02  0.7546771E-02  0.1452565E+00
          2   -1    0    0  502    0  0.00000000000E+00  0.00000000000E+00  0.58881909185E+03  0.58881909185E+03  0.00000000000E+00 0. -1.
          1   -1    0    0  501    0 -0.00000000000E+00 -0.00000000000E+00 -0.22029357739E+03  0.22029357739E+03  0.00000000000E+00 0. -1.
          2    1    1    2  501    0  0.24892007726E+02 -0.91275340460E+01  0.58772144361E+03  0.58831914741E+03  0.00000000000E+00 0. -1.
          1    1    1    2  502    0 -0.24892007726E+02  0.91275340460E+01 -0.21919592915E+03  0.22079352183E+03  0.00000000000E+00 0. -1.
</event>
<event>
 4    1  0.3664744E+003  0.3103054E+02  0.7546771E-02  0.1410847E+00
          2   -1    0    0  502    0  0.00000000000E+00  0.00000000000E+00  0.23122409491E+03  0.23122409491E+03  0.00000000000E+00 0. -1.
          1   -1    0    0  501    0 -0.00000000000E+00 -0.00000000000E+00 -0.14498215779E+02  0.14498215779E+02  0.00000000000E+00 0. -1.
          2    1    1    2  501    0 -0.16027028175E+02 -0.26571205333E+02  0.21208927607E+03  0.21434727806E+03  0.00000000000E+00 0. -1.
          1    1    1    2  502    0  0.16027028175E+02  0.26571205333E+02  0.46366030615E+01  0.31375032636E+02  0.00000000000E+00 0. -1.
</event>
<event>
 4    1  0.3664744E+003  0.2048920E+02  0.7546771E-02  0.1526684E+00
          2   -1    0    0  502    0  0.00000000000E+00  0.00000000000E+00  0.92612350657E+03  0.92612350657E+03  0.00000000000E+00 0.  1.
          1   -1    0    0  501    0 -0.00000000000E+00 -0.00000000000E+00 -0.60152257510E+00  0.60152257510E+00  0.00000000000E+00 0.  1.
          2    1    1    2  501    0 -0.17358326062E+02  0.10885580826E+02  0.69277756000E+03  0.69308048234E+03  0.00000000000E+00 0.  1.
          1    1    1    2  502    0  0.17358326062E+02 -0.10885580826E+02  0.23274442399E+03  0.23364454680E+03  0.00000000000E+00 0.  1.
</event>
<event>
 4    1  0.3664744E+003  0.2406657E+02  0.7546771E-02  0.1479523E+00
          2   -1    0    0  502    0  0.00000000000E+00  0.00000000000E+00  0.14229843981E+03  0.14229843981E+03  0.00000000000E+00 0. -1.
          1   -1    0    0  501    0 -0.00000000000E+00 -0.00000000000E+00 -0.23757518778E+03  0.23757518778E+03  0.00000000000E+00 0. -1.
          2    1    1    2  501    0  0.18855845333E+02  0.14955157097E+02  0.14066434053E+03  0.14270829101E+03  0.00000000000E+00 0. -1.
          1    1    1    2  502    0 -0.18855845333E+02 -0.14955157097E+02 -0.23594108851E+03  0.23716533658E+03  0.00000000000E+00 0. -1.
</event>
<event>
 4    1  0.3664744E+003  0.2917527E+02  0.7546771E-02  0.1426901E+00
          2   -1    0    0  502    0  0.00000000000E+00  0.00000000000E+00  0.57255383388E+03  0.57255383388E+03  0.00000000000E+00 0.  1.
          1   -1    0    0  501    0 -0.00000000000E+00 -0.00000000000E+00 -0.73882989025E+02  0.73882989025E+02  0.00000000000E+00 0. -1.
          2    1    1    2  501    0 -0.28575016090E+02  0.58877021450E+01  0.56928542364E+03  0.57003253430E+03  0.00000000000E+00 0.  1.
          1    1    1    2  502    0  0.28575016090E+02 -0.58877021450E+01 -0.70614578787E+02  0.76404288612E+02  0.00000000000E+00 0. -1.
</event>
<event>
 4    1  0.3664744E+003  0.2821066E+02  0.7546771E-02  0.1435812E+00
          2   -1    0    0  502    0  0.00000000000E+00  0.00000000000E+00  0.10948096342E+02  0.10948096342E+02  0.00000000000E+00 0.  1.
          1   -1    0    0  501    0 -0.00000000000E+00 -0.00000000000E+00 -0.11170563644E+04  0.11170563644E+04  0.00000000000E+00 0.  1.
          2    1    1    2  501    0  0.18201540469E+02  0.21553314434E+02 -0.77117478667E+01  0.29245726076E+02  0.00000000000E+00 0.  1.
          1    1    1    2  502    0 -0.18201540469E+02 -0.21553314434E+02 -0.10983965202E+04  0.10987587346E+04  0.00000000000E+00 0.  1.
</event>
<event>
 4    1  0.3664744E+003  0.2659129E+02  0.7546771E-02  0.1451757E+00
          2   -1    0    0  502    0  0.00000000000E+00  0.00000000000E+00  0.68295701325E+00  0.68295701325E+00  0.00000000000E+00 0.  1.
          1   -1    0    0  501    0 -0.00000000000E+00 -0.00000000000E+00 -0.21626337659E+04  0.21626337659E+04  0.00000000000E+00 0.  1.
          2    1    1    2  501    0  0.26522078715E+02  0.19172518118E+01 -0.30003821877E+03  0.30121425802E+03  0.00000000000E+00 0.  1.
          1    1    1    2  502    0 -0.26522078715E+02 -0.19172518118E+01 -0.18619125901E+04  0.18621024649E+04  0.00000000000E+00 0.  1.
</event>
<event>
 4    1  0.3664744E+003  0.3975636E+02  0.7546771E-02  0.1349919E+00
          2   -1    0    0  502    0  0.00000000000E+00  0.00000000000E+00  0.36524928946E+03  0.36524928946E+03  0.00000000000E+00 0.  1.
          1   -1    0    0  501    0 -0.00000000000E+00 -0.00000000000E+00 -0.82896282457E+01  0.82896282457E+01  0.00000000000E+00 0.  1.
          2    1    1    2  501    0  0.38160404368E+02  0.11151308516E+02  0.30760467860E+03  0.31016319324E+03  0.00000000000E+00 0.  1.
          1    1    1    2  502    0 -0.38160404368E+02 -0.11151308516E+02  0.49354982621E+02  0.63375724475E+02  0.00000000000E+00 0.  1.
</event>
<event>
 4    1  0.3664744E+003  0.2036786E+02  0.7546771E-02  0.1528485E+00
          2   -1    0    0  502    0  0.00000000000E+00  0.00000000000E+00  0.13258606433E+04  0.13258606433E+04  0.00000000000E+00 0.  1.
          1   -1    0    0  501    0 -0.00000000000E+00 -0.00000000000E+00 -0.81213556676E+01  0.81213556676E+01  0.00000000000E+00 0. -1.
          2    1    1    2  501    0  0.20250106021E+02 -0.21870081677E+01  0.13128858866E+04  0.13130438687E+04  0.00000000000E+00 0.  1.
          1    1    1    2  502    0 -0.20250106021E+02  0.21870081677E+01  0.48534010171E+01  0.20938130290E+02  0.00000000000E+00 0. -1.
</event>
<event>
 4    1  0.3664744E+003  0.2349980E+02  0.7546771E-02  0.1486316E+00
          2   -1    0    0  502    0  0.00000000000E+00  0.00000000000E+00  0.12008832266E+03  0.12008832266E+03  0.00000000000E+00 0.  1.
          1   -1    0    0  501    0 -0.00000000000E+00 -0.00000000000E+00 -0.11506188254E+02  0.11506188254E+02  0.00000000000E+00 0. -1.
          2    1    1    2  501    0  0.96373776668E+00 -0.23480028130E+02  0.10527163249E+03  0.10786267714E+03  0.00000000000E+00 0.  1.
          1    1    1    2  502    0 -0.96373776668E+00  0.23480028130E+02  0.33105019137E+01  0.23731833777E+02  0.00000000000E+00 0. -1.
</event>
<event>
 4    1  0.3664744E+003  0.2529480E+02  0.7546771E-02  0.1465532E+00
          2   -1    0    0  502    0  0.00000000000E+00  0.00000000000E+00  0.16811488891E+02  0.16811488891E+02  0.00000000000E+00 0.  1.
          1   -1    0    0  501    0 -0.00000000000E+00 -0.00000000000E+00 -0.25367957274E+03  0.25367957274E+03  0.00000000000E+00 0. -1.
          2    1    1    2  501    0 -0.24356355180E+02 -0.68260296637E+01  0.62541638721E+01  0.26056501767E+02  0.00000000000E+00 0.  1.
          1    1    1    2  502    0  0.24356355180E+02  0.68260296637E+01 -0.24312224772E+03  0.24443455986E+03  0.00000000000E+00 0. -1.
</event>
<event>
 4    1  0.3664744E+003  0.3092789E+02  0.7546771E-02  0.1411701E+00
          2   -1    0    0  502    0  0.00000000000E+00  0.00000000000E+00  0.10547725809E+04  0.10547725809E+04  0.00000000000E+00 0. -1.
          1   -1    0    0  501    0 -0.00000000000E+00 -0.00000000000E+00 -0.13048916660E+02  0.13048916660E+02  0.00000000000E+00 0.  1.
          2    1    1    2  501    0 -0.25030219148E+02  0.18166528989E+02  0.10358858734E+04  0.10363474694E+04  0.00000000000E+00 0. -1.
          1    1    1    2  502    0  0.25030219148E+02 -0.18166528989E+02  0.58377908414E+01  0.31474028150E+02  0.00000000000E+00 0.  1.
</event>
<event>
 4    1  0.3664744E+003  0.2657873E+02  0.7546771E-02  0.1451886E+00
          2   -1    0    0  502    0  0.00000000000E+00  0.00000000000E+00  0.25961619398E+03  0.25961619398E+03  0.00000000000E+00 0.  1.
          1   -1    0    0  501    0 -0.00000000000E+00 -0.00000000000E+00 -0.19909695162E+02  0.19909695162E+02  0.00000000000E+00 0. -1.
          2    1    1    2  501    0  0.18719670469E+02  0.18868038196E+02  0.24971478857E+03  0.25112527662E+03  0.00000000000E+00 0.  1.
          1    1    1    2  502    0 -0.18719670469E+02 -0.18868038196E+02 -0.10008289751E+02  0.28400612521E+02  0.00000000000E+00 0. -1.
</event>
<event>
 4    1  0.3664744E+003  0.2857261E+02  0.7546771E-02  0.1432420E+00
          2   -1    0    0  502    0  0.00000000000E+00  0.00000000000E+00  0.70244188504E+02  0.70244188504E+02  0.00000000000E+00 0. -1.
          1   -1    0    0  501    0 -0.00000000000E+00 -0.00000000000E+00 -0.13056147137E+04  0.13056147137E+04  0.00000000000E+00 0.  1.
          2    1    1    2  501    0  0.11775103105E+02 -0.26033454038E+02  0.67175464044E+02  0.72999566792E+02  0.00000000000E+00 0. -1.
          1    1    1    2  502    0 -0.11775103105E+02  0.26033454038E+02 -0.13025459893E+04  0.13028593355E+04  0.00000000000E+00 0.  1.
</event>
<event>
 4    1  0.3664744E+003  0.4232740E+02  0.7546771E-02  0.1335362E+00
          2   -1    0    0  502    0  0.00000000000E+00  0.00000000000E+00  0.17246490733E+04  0.17246490733E+04  0.00000000000E+00 0. -1.
          1   -1    0    0  501    0 -0.00000000000E+00 -0.00000000000E+00 -0.24818515539E+01  0.24818515539E+01  0.00000000000E+00 0.  1.
          2    1    1    2  501    0 -0.35238818499E+02 -0.23448552076E+02  0.15195665010E+04  0.15201558998E+04  0.00000000000E+00 0. -1.
          1    1    1    2  502    0  0.35238818499E+02  0.23448552076E+02  0.20260072076E+03  0.20697502500E+03  0.00000000000E+00 0.  1.
</event>
<event>
 4    1  0.3664744E+003  0.2284977E+02  0.7546771E-02  0.1494393E+00
          2   -1    0    0  502    0  0.00000000000E+00  0.00000000000E+00  0.13616414860E+04  0.13616414860E+04  0.00000000000E+00 0.  1.
          1   -1    0    0  501    0 -0.00000000000E+00 -0.00000000000E+00 -0.82255889804E+02  0.82255889804E+02  0.00000000000E+00 0. -1.
          2    1    1    2  501    0 -0.10764991359E+02  0.20155074902E+02  0.13599568064E+04  0.13601487519E+04  0.00000000000E+00 0.  1.
          1    1    1    2  502    0  0.10764991359E+02 -0.20155074902E+02 -0.80571210219E+02  0.83748623866E+02  0.00000000000E+00 0. -1.
</event>
<event>
 4    1  0.3664744E+003  0.2205570E+02  0.7546771E-02  0.1504709E+00
          2   -1    0    0  502    0  0.00000000000E+00  0.00000000000E+00  0.38633211015E+03  0.38633211015E+03  0.00000000000E+00 0.  1.
          1   -1    0    0  501    0 -0.00000000000E+00 -0.00000000000E+00 -0.12382702457E+04  0.12382702457E+04  0.00000000000E+00 0.  1.
          2    1    1    2  501    0 -0.71320687692E+01  0.20870730902E+02  0.38591900281E+03  0.38654874278E+03  0.00000000000E+00 0.  1.
          1    1    1    2  502    0  0.71320687692E+01 -0.20870730902E+02 -0.12378571383E+04  0.12380536130E+04  0.00000000000E+00 0.  1.
</event>
<event>
 4    1  0.3664744E+003  0.3587324E+02  0.7546771E-02  0.1374526E+00
          2   -1    0    0  502    0  0.00000000000E+00  0.00000000000E+00  0.15777316336E+04  0.15777316336E+04  0.00000000000E+00 0. -1.
          1   -1    0    0  501    0 -0.00000000000E+00 -0.00000000000E+00 -0.57191239260E+02  0.57191239260E+02  0.00000000000E+00 0. -1.
          2    1    1    2  501    0 -0.87108551024E+01 -0.34799571279E+02  0.15718814082E+04  0.15722907017E+04  0.00000000000E+00 0. -1.
          1    1    1    2  502    0  0.87108551024E+01  0.34799571279E+02 -0.51341013879E+02  0.62632171158E+02  0.00000000000E+00 0. -1.
</event>
<event>
 4    1  0.3664744E+003  0.6455988E+02  0.7546771E-02  0.1245080E+00
          2   -1    0    0  502    0  0.00000000000E+00  0.00000000000E+00  0.30468556508E+04  0.30468556508E+04  0.00000000000E+00 0. -1.
          1   -1    0    0  501    0 -0.00000000000E+00 -0.00000000000E+00 -0.14762531086E+01  0.14762531086E+01  0.00000000000E+00 0. -1.
          2    1    1    2  501    0  0.40527145977E+02 -0.50254642272E+02  0.19355004066E+04  0.19365768259E+04  0.00000000000E+00 0. -1.
          1    1    1    2  502    0 -0.40527145977E+02  0.50254642272E+02  0.11098789911E+04  0.11117550780E+04  0.00000000000E+00 0. -1.
</event>
<event>
 4    1  0.3664744E+003  0.2310797E+02  0.7546771E-02  0.1491147E+00
          2   -1    0    0  502    0  0.00000000000E+00  0.00000000000E+00  0.47504438648E+01  0.47504438648E+01  0.00000000000E+00 0.  1.
          1   -1    0    0  501    0 -0.00000000000E+00 -0.00000000000E+00 -0.60722433799E+03  0.60722433799E+03  0.00000000000E+00 0. -1.
          2    1    1    2  501    0  0.96358041987E+01  0.21003085820E+02 -0.25019031361E+02  0.34057748997E+02  0.00000000000E+00 0.  1.
          1    1    1    2  502    0 -0.96358041987E+01 -0.21003085820E+02 -0.57745486277E+03  0.57791703286E+03  0.00000000000E+00 0. -1.
</event>
<event>
 4    1  0.3664744E+003  0.4072380E+02  0.7546771E-02  0.1344296E+00
          2   -1    0    0  502    0  0.00000000000E+00  0.00000000000E+00  0.71498722047E+03  0.71498722047E+03  0.00000000000E+00 0.  1.
          1   -1    0    0  501    0 -0.00000000000E+00 -0.00000000000E+00 -0.11524882544E+02  0.11524882544E+02  0.00000000000E+00 0.  1.
          2    1    1    2  501    0  0.36506739884E+02  0.18046774087E+02  0.67638088042E+03  0.67760572866E+03  0.00000000000E+00 0.  1.
          1    1    1    2  502    0 -0.36506739884E+02 -0.18046774087E+02  0.27081457501E+02  0.48906374352E+02  0.00000000000E+00 0.  1.
</event>
<event>
 4    1  0.3664744E+003  0.2528097E+02  0.7546771E-02  0.1465685E+00
          2   -1    0    0  502    0  0.00000000000E+00  0.00000000000E+00  0.16232805174E+03  0.16232805174E+03  0.00000000000E+00 0. -1.
          1   -1    0    0  501    0 -0.00000000000E+00 -0.00000000000E+00 -0.26640058259E+03  0.26640058259E+03  0.00000000000E+00 0. -1.
          2    1    1    2  501    0 -0.91700331155E+01 -0.23559247148E+02  0.16073805960E+03  0.16271401734E+03  0.00000000000E+00 0. -1.
          1    1    1    2  502    0  0.91700331155E+01  0.23559247148E+02 -0.26481059045E+03  0.26601461698E+03  0.00000000000E+00 0. -1.
</event>
<event>
 4    1  0.3664744E+003  0.2500807E+02  0.7546771E-02  0.1468713E+00
          2   -1    0    0  502    0  0.00000000000E+00  0.00000000000E+00  0.49090345044E+03  0.49090345044E+03  0.00000000000E+00 0.  1.
          1   -1    0    0  501    0 -0.00000000000E+00 -0.00000000000E+00 -0.17930791690E+02  0.17930791690E+02  0.00000000000E+00 0. -1.
          2    1    1    2  501    0  0.21746608882E+02  0.12348625665E+02  0.48169875660E+03  0.48234748435E+03  0.00000000000E+00 0.  1.
          1    1    1    2  502    0 -0.21746608882E+02 -0.12348625665E+02 -0.87260978514E+01  0.26486757774E+02  0.00000000000E+00 0. -1.
</event>
<event>
 4    1  0.3664744E+003  0.2039457E+02  0.7546771E-02  0.1528087E+00
          2   -1    0    0  502    0  0.00000000000E+00  0.00000000000E+00  0.97960348173E+02  0.97960348173E+02  0.00000000000E+00 0. -1.
          1   -1    0    0  501    0 -0.00000000000E+00 -0.00000000000E+00 -0.93354375015E+02  0.93354375015E+02  0.00000000000E+00 0.  1.
          2    1    1    2  501    0  0.19891552758E+02  0.45016396619E+01  0.95759666216E+02  0.97907365936E+02  0.00000000000E+00 0. -1.
          1    1    1    2  502    0 -0.19891552758E+02 -0.45016396619E+01 -0.91153693057E+02  0.93407357252E+02  0.00000000000E+00 0.  1.
</event>
<event>
 4    1  0.3664744E+003  0.2211164E+02  0.7546771E-02  0.1503965E+00
          2   -1    0    0  502    0  0.00000000000E+00  0.00000000000E+00  0.46997141355E+02  0.46997141355E+02  0.00000000000E+00 0. -1.
          1   -1    0    0  501    0 -0.00000000000E+00 -0.00000000000E+00 -0.54535373575E+03  0.54535373575E+03  0.00000000000E+00 0. -1.
          2    1    1    2  501    0 -0.18702293882E+02  0.11796137714E+02  0.44158585774E+02  0.49385274718E+02  0.00000000000E+00 0. -1.
          1    1    1    2  502    0  0.18702293882E+02 -0.11796137714E+02 -0.54251518017E+03  0.54296560239E+03  0.00000000000E+00 0. -1.
</event>
<event>
 4    1  0.3664744E+003  0.2011009E+02  0.7546771E-02  0.1532359E+00
          2   -1    0    0  502    0  0.00000000000E+00  0.00000000000E+00  0.43754422133E+03  0.43754422133E+03  0.00000000000E+00 0.  1.
          1   -1    0    0  501    0 -0.00000000000E+00 -0.00000000000E+00 -0.64550602410E+01  0.64550602410E+01  0.00000000000E+00 0.  1.
          2    1    1    2  501    0 -0.18656416176E+02 -0.75069111089E+01  0.42103667813E+03  0.42151666623E+03  0.00000000000E+00 0.  1.
          1    1    1    2  502    0  0.18656416176E+02  0.75069111089E+01  0.10052482958E+02  0.22482615340E+02  0.00000000000E+00 0.  1.
</event>
<event>
 4    1  0.3664744E+003  0.3009146E+02  0.7546771E-02  0.1418803E+00
          2   -1    0    0  502    0  0.00000000000E+00  0.00000000000E+00  0.23661658936E+03  0.23661658936E+03  0.00000000000E+00 0. -1.
          1   -1    0    0  501    0 -0.00000000000E+00 -0.00000000000E+00 -0.99269604140E+03  0.99269604140E+03  0.00000000000E+00 0.  1.
          2    1    1    2  501    0 -0.12962925938E+02 -0.27156184143E+02  0.23543069374E+03  0.23734596551E+03  0.00000000000E+00 0. -1.
          1    1    1    2  502    0  0.12962925938E+02  0.27156184143E+02 -0.99151014578E+03  0.99196666526E+03  0.00000000000E+00 0.  1.
</event>
<event>
 4    1  0.3664744E+003  0.2222632E+02  0.7546771E-02  0.1502449E+00
          2   -1    0    0  502    0  0.00000000000E+00  0.00000000000E+00  0.21942862640E+03  0.21942862640E+03  0.00000000000E+00 0.  1.
          1   -1    0    0  501    0 -0.00000000000E+00 -0.00000000000E+00 -0.14799146712E+02  0.14799146712E+02  0.00000000000E+00 0. -1.
          2    1    1    2  501    0  0.10037183431E+02 -0.19830890664E+02  0.21015325526E+03  0.21132534153E+03  0.00000000000E+00 0.  1.
          1    1    1    2  502    0 -0.10037183431E+02  0.19830890664E+02 -0.55237755734E+01  0.22902431582E+02  0.00000000000E+00 0. -1.
</event>
<event>
 4    1  0.3664744E+003  0.2055552E+02  0.7546771E-02  0.1525707E+00
          2   -1    0    0  502    0  0.00000000000E+00  0.00000000000E+00  0.15363492242E+04  0.15363492242E+04  0.00000000000E+00 0.  1.
          1   -1    0    0  501    0 -0.00000000000E+00 -0.00000000000E+00 -0.25454012585E+01  0.25454012585E+01  0.00000000000E+00 0.  1.
          2    1    1    2  501    0  0.11506663039E+01  0.20523284675E+02  0.14935932803E+04  0.14937347209E+04  0.00000000000E+00 0.  1.
          1    1    1    2  502    0 -0.11506663039E+01 -0.20523284675E+02  0.40210542643E+02  0.45159904633E+02  0.00000000000E+00 0.  1.
</event>
<event>
 4    1  0.3664744E+003  0.3504081E+02  0.7546771E-02  0.1380277E+00
          2   -1    0    0  502    0  0.00000000000E+00  0.00000000000E+00  0.91299488811E+00  0.91299488811E+00  0.00000000000E+00 0.  1.
          1   -1    0    0  501    0 -0.00000000000E+00 -0.00000000000E+00 -0.14279297385E+04  0.14279297385E+04  0.00000000000E+00 0.  1.
          2    1    1    2  501    0  0.40753273837E+01  0.34803019327E+02 -0.54120287856E+03  0.54233607128E+03  0.00000000000E+00 0.  1.
          1    1    1    2  502    0 -0.40753273837E+01 -0.34803019327E+02 -0.88581386504E+03  0.88650666210E+03  0.00000000000E+00 0.  1.
</event>
<event>
 4    1  0.3664744E+003  0.2143450E+02  0.7546771E-02  0.1513151E+00
          2   -1    0    0  502    0  0.00000000000E+00  0.00000000000E+00  0.59187821622E+02  0.59187821622E+02  0.00000000000E+00 0.  1.
          1   -1    0    0  501    0 -0.00000000000E+00 -0.00000000000E+00 -0.34253769840E+03  0.34253769840E+03  0.00000000000E+00 0. -1.
          2    1    1    2  501    0  0.11311859608E+02  0.18206582239E+02  0.56898867813E+02  0.60802294060E+02  0.00000000000E+00 0.  1.
          1    1    1    2  502    0 -0.11311859608E+02 -0.18206582239E+02 -0.34024874459E+03  0.34092322596E+03  0.00000000000E+00 0. -1.
</event>
<event>
 4    1  0.3664744E+003  0.3079969E+02  0.7546771E-02  0.1412772E+00
          2   -1    0    0  502    0  0.00000000000E+00  0.00000000000E+00  0.81104936056E+03  0.81104936056E+03  0.00000000000E+00 0.  1.
          1   -1    0    0  501    0 -0.00000000000E+00 -0.00000000000E+00 -0.22074330551E+03  0.22074330551E+03  0.00000000000E+00 0. -1.
          2    1    1    2  501    0  0.63061390464E+01 -0.30147198762E+02  0.80968079132E+03  0.81026637892E+03  0.00000000000E+00 0.  1.
          1    1    1    2  502    0 -0.63061390464E+01  0.30147198762E+02 -0.21937473627E+03  0.22152628715E+03  0.00000000000E+00 0. -1.
</event>
<event>
 4    1  0.3664744E+003  0.3000462E+02  0.7546771E-02  0.1419556E+00
          2   -1    0    0  502    0  0.00000000000E+00  0.00000000000E+00  0.58839160193E+01  0.58839160193E+01  0.00000000000E+00 0. -1.
          1   -1    0    0  501    0 -0.00000000000E+00 -0.00000000000E+00 -0.46073653536E+03  0.46073653536E+03  0.00000000000E+00 0. -1.
          2    1    1    2  501    0 -0.25917260139E+02  0.15118627210E+02 -0.36751901440E+02  0.47444488840E+02  0.00000000000E+00 0. -1.
          1    1    1    2  502    0  0.25917260139E+02 -0.15118627210E+02 -0.41810071790E+03  0.41917596254E+03  0.00000000000E+00 0. -1.
</event>
<event>
 4    1  0.3664744E+003  0.2261824E+02  0.7546771E-02  0.1497348E+00
          2   -1    0    0  502    0  0.00000000000E+00  0.00000000000E+00  0.99943056093E+01  0.99943056093E+01  0.00000000000E+00 0.  1.
          1   -1    0    0  501    0 -0.00000000000E+00 -0.00000000000E+00 -0.22860496545E+03  0.22860496545E+03  0.00000000000E+00 0. -1.
          2    1    1    2  501    0  0.22007583253E+02  0.52202623572E+01 -0.42073645866E+01  0.23006233427E+02  0.00000000000E+00 0.  1.
          1    1    1    2  502    0 -0.22007583253E+02 -0.52202623572E+01 -0.21440329526E+03  0.21559303763E+03  0.00000000000E+00 0. -1.
</event>
<event>
 4    1  0.3664744E+003  0.2136286E+02  0.7546771E-02  0.1514147E+00
          2   -1    0    0  502    0  0.00000000000E+00  0.00000000000E+00  0.63147812568E+03  0.63147812568E+03  0.00000000000E+00 0. -1.
          1   -1    0    0  501    0 -0.00000000000E+00 -0.00000000000E+00 -0.32670725553E+01  0.32670725553E+01  0.00000000000E+00 0.  1.
          2    1    1    2  501    0  0.39350703171E+01  0.20997310313E+02  0.59418420059E+03  0.59456810884E+03  0.00000000000E+00 0. -1.
          1    1    1    2  502    0 -0.39350703171E+01 -0.20997310313E+02  0.34026852527E+02  0.40177089388E+02  0.00000000000E+00 0.  1.
</event>
<event>
 4    1  0.3664744E+003  0.2012131E+02  0.7546771E-02  0.1532189E+00
          2   -1    0    0  502    0  0.00000000000E+00  0.00000000000E+00  0.27410422337E+03  0.27410422337E+03  0.00000000000E+00 0. -1.
          1   -1    0    0  501    0 -0.00000000000E+00 -0.00000000000E+00 -0.16305017387E+01  0.16305017387E+01  0.00000000000E+00 0. -1.
          2    1    1    2  501    0 -0.27752065419E+01  0.19929004515E+02  0.17853095966E+03  0.17966126613E+03  0.00000000000E+00 0. -1.
          1    1    1    2  502    0  0.27752065419E+01 -0.19929004515E+02  0.93942761977E+02  0.96073458979E+02  0.00000000000E+00 0. -1.
</event>
<event>
 4    1  0.3664744E+003  0.4266215E+02  0.7546771E-02  0.1333554E+00
          2   -1    0    0  502    0  0.00000000000E+00  0.00000000000E+00  0.12550428601E+04  0.12550428601E+04  0.00000000000E+00 0.  1.
          1   -1    0    0  501    0 -0.00000000000E+00 -0.00000000000E+00 -0.24661668166E+01  0.24661668166E+01  0.00000000000E+00 0. -1.
          2    1    1    2  501    0 -0.11120169044E+02 -0.41187385303E+02  0.10298504553E+04  0.10307337286E+04  0.00000000000E+00 0.  1.
          1    1    1    2  502    0  0.11120169044E+02  0.41187385303E+02  0.22272623798E+03  0.22677529837E+03  0.00000000000E+00 0. -1.
</event>
<event>
 4    1  0.3664744E+003  0.2070603E+02  0.7546771E-02  0.1523504E+00
          2   -1    0    0  502    0  0.00000000000E+00  0.00000000000E+00  0.10975453266E+03  0.10975453266E+03  0.00000000000E+00 0.  1.
          1   -1    0    0  501    0 -0.00000000000E+00 -0.00000000000E+00 -0.80478560647E+01  0.80478560647E+01  0.00000000000E+00 0. -1.
          2    1    1    2  501    0 -0.20519451326E+02 -0.27733751812E+01  0.93106889199E+02  0.95381509261E+02  0.00000000000E+00 0.  1.
          1    1    1    2  502    0  0.20519451326E+02  0.27733751812E+01  0.85997873942E+01  0.22420879462E+02  0.00000000000E+00 0. -1.
</event>
<event>
 4    1  0.3664744E+003  0.6273951E+02  0.7546771E-02  0.1250798E+00
          2   -1    0    0  502    0  0.00000000000E+00  0.00000000000E+00  0.12867357107E+04  0.12867357107E+04  0.00000000000E+00 0. -1.
          1   -1    0    0  501    0 -0.00000000000E+00 -0.00000000000E+00 -0.48974788616E+01  0.48974788616E+01  0.00000000000E+00 0.  1.
          2    1    1    2  501    0 -0.15058352118E+02 -0.60905597819E+02  0.10365963865E+04  0.10384932905E+04  0.00000000000E+00 0. -1.
          1    1    1    2  502    0  0.15058352118E+02  0.60905597819E+02  0.24524184529E+03  0.25313989906E+03  0.00000000000E+00 0.  1.
</event>
<event>
 4    1  0.3664744E+003  0.3969699E+02  0.7546771E-02  0.1350271E+00
          2   -1    0    0  502    0  0.00000000000E+00  0.00000000000E+00  0.56539172239E+01  0.56539172239E+01  0.00000000000E+00 0.  1.
          1   -1    0    0  501    0 -0.00000000000E+00 -0.00000000000E+00 -0.10771474657E+04  0.10771474657E+04  0.00000000000E+00 0.  1.
          2    1    1    2  501    0 -0.32625487245E+02  0.22614781130E+02 -0.69624996384E+02  0.80146683431E+02  0.00000000000E+00 0.  1.
          1    1    1    2  502    0  0.32625487245E+02 -0.22614781130E+02 -0.10018685521E+04  0.10026546995E+04  0.00000000000E+00 0.  1.
</event>
<event>
 4    1  0.3664744E+003  0.2080839E+02  0.7546771E-02  0.1522018E+00
          2   -1    0    0  502    0  0.00000000000E+00  0.00000000000E+00  0.17847744523E+02  0.17847744523E+02  0.00000000000E+00 0.  1.
          1   -1    0    0  501    0 -0.00000000000E+00 -0.00000000000E+00 -0.26269864003E+03  0.26269864003E+03  0.00000000000E+00 0. -1.
          2    1    1    2  501    0  0.39746356619E+00 -0.20804591517E+02  0.11213776946E+02  0.23637635221E+02  0.00000000000E+00 0.  1.
          1    1    1    2  502    0 -0.39746356619E+00  0.20804591517E+02 -0.25606467245E+03  0.25690874933E+03  0.00000000000E+00 0. -1.
</event>
<event>
 4    1  0.3664744E+003  0.2509876E+02  0.7546771E-02  0.1467702E+00
          2   -1    0    0  502    0  0.00000000000E+00  0.00000000000E+00  0.56164998152E+01  0.56164998152E+01  0.00000000000E+00 0.  1.
          1   -1    0    0  501    0 -0.00000000000E+00 -0.00000000000E+00 -0.41704564811E+03  0.41704564811E+03  0.00000000000E+00 0.  1.
          2    1    1    2  501    0  0.25077854670E+02 -0.10241078997E+01 -0.25022155747E+02  0.35440878517E+02  0.00000000000E+00 0.  1.
          1    1    1    2  502    0 -0.25077854670E+02  0.10241078997E+01 -0.38640699255E+03  0.38722126941E+03  0.00000000000E+00 0.  1.
</event>
<event>
 4    1  0.3664744E+003  0.2242200E+02  0.7546771E-02  0.1499887E+00
          2   -1    0    0  502    0  0.00000000000E+00  0.00000000000E+00  0.58096787290E+01  0.58096787290E+01  0.00000000000E+00 0.  1.
          1   -1    0    0  501    0 -0.00000000000E+00 -0.00000000000E+00 -0.15279294470E+04  0.15279294470E+04  0.00000000000E+00 0. -1.
          2    1    1    2  501    0  0.10766565993E+01 -0.22396131052E+02 -0.16223068647E+02  0.27675509605E+02  0.00000000000E+00 0.  1.
          1    1    1    2  502    0 -0.10766565993E+01  0.22396131052E+02 -0.15058966996E+04  0.15060636161E+04  0.00000000000E+00 0. -1.
</event>
<event>
 4    1  0.3664744E+003  0.2084843E+02  0.7546771E-02  0.1521440E+00
          2   -1    0    0  502    0  0.00000000000E+00  0.00000000000E+00  0.33428797888E+03  0.33428797888E+03  0.00000000000E+00 0. -1.
          1   -1    0    0  501    0 -0.00000000000E+00 -0.00000000000E+00 -0.13006188099E+01  0.13006188099E+01  0.00000000000E+00 0. -1.
          2    1    1    2  501    0  0.20660171996E+02  0.27953488249E+01  0.16365369605E+03  0.16497632834E+03  0.00000000000E+00 0. -1.
          1    1    1    2  502    0 -0.20660171996E+02 -0.27953488249E+01  0.16933366403E+03  0.17061226935E+03  0.00000000000E+00 0. -1.
</event>
<event>
 4    1  0.3664744E+003  0.2751082E+02  0.7546771E-02  0.1442543E+00
          2   -1    0    0  502    0  0.00000000000E+00  0.00000000000E+00  0.12563961267E+03  0.12563961267E+03  0.00000000000E+00 0. -1.
          1   -1    0    0  501    0 -0.00000000000E+00 -0.00000000000E+00 -0.34644025521E+02  0.34644025521E+02  0.00000000000E+00 0. -1.
          2    1    1    2  501    0 -0.16030313954E+02 -0.22357871019E+02  0.11833956391E+03  0.12149525813E+03  0.00000000000E+00 0. -1.
          1    1    1    2  502    0  0.16030313954E+02  0.22357871019E+02 -0.27343976765E+02  0.38788380055E+02  0.00000000000E+00 0. -1.
</event>
<event>
 4    1  0.3664744E+003  0.2490268E+02  0.7546771E-02  0.1469895E+00
          2   -1    0    0  502    0  0.00000000000E+00  0.00000000000E+00  0.22614501728E+02  0.22614501728E+02  0.00000000000E+00 0.  1.
          1   -1    0    0  501    0 -0.00000000000E+00 -0.00000000000E+00 -0.28137131325E+03  0.28137131325E+03  0.00000000000E+00 0.  1.
          2    1    1    2  501    0  0.96336350161E+00 -0.24884035372E+02  0.15018077747E+02  0.29080679924E+02  0.00000000000E+00 0.  1.
          1    1    1    2  502    0 -0.96336350161E+00  0.24884035372E+02 -0.27377488927E+03  0.27490513505E+03  0.00000000000E+00 0.  1.
</event>
<event>
 4    1  0.5481533E+003  0.2605698E+02  0.7546771E-02  0.1457318E+00
          2   -1    0    0  502    0  0.00000000000E+00  0.00000000000E+00  0.68492924810E+03  0.68492924810E+03  0.00000000000E+00 0.  1.
          1   -1    0    0  501    0 -0.00000000000E+00 -0.00000000000E+00 -0.13698485794E+04  0.13698485794E+04  0.00000000000E+00 0.  1.
          2    1    1    2  501    0  0.20251474115E+02  0.16396465900E+02  0.68455744465E+03  0.68505318139E+03  0.00000000000E+00 0.  1.
          1    1    1    2  502    0 -0.20251474115E+02 -0.16396465900E+02 -0.13694767760E+04  0.13697246462E+04  0.00000000000E+00 0.  1.
</event>
<event>
 4    1  0.3664744E+003  0.2715713E+02  0.7546771E-02  0.1446036E+00
          2   -1    0    0  502    0  0.00000000000E+00  0.00000000000E+00  0.11142399979E+04  0.11142399979E+04  0.00000000000E+00 0.  1.
          1   -1    0    0  501    0 -0.00000000000E+00 -0.00000000000E+00 -0.73436657451E+01  0.73436657451E+01  0.00000000000E+00 0.  1.
          2    1    1    2  501    0 -0.26069047907E+02 -0.76101496533E+01  0.10883708577E+04  0.10887096186E+04  0.00000000000E+00 0.  1.
          1    1    1    2  502    0  0.26069047907E+02  0.76101496533E+01  0.18525474438E+02  0.32874045077E+02  0.00000000000E+00 0.  1.
</event>
<event>
 4    1  0.3664744E+003  0.2495952E+02  0.7546771E-02  0.1469257E+00
          2   -1    0    0  502    0  0.00000000000E+00  0.00000000000E+00  0.32571800284E+03  0.32571800284E+03  0.00000000000E+00 0. -1.
          1   -1    0    0  501    0 -0.00000000000E+00 -0.00000000000E+00 -0.21419609154E+01  0.21419609154E+01  0.00000000000E+00 0. -1.
          2    1    1    2  501    0 -0.23100698586E+02  0.94517446775E+01  0.21542751968E+03  0.21686860996E+03  0.00000000000E+00 0. -1.
          1    1    1    2  502    0  0.23100698586E+02 -0.94517446775E+01  0.10814852225E+03  0.11099135379E+03  0.00000000000E+00 0. -1.
</event>
<event>
 4    1  0.3664744E+003  0.3542131E+02  0.7546771E-02  0.1377625E+00
          2   -1    0    0  502    0  0.00000000000E+00  0.00000000000E+00  0.24312488730E+01  0.24312488730E+01  0.00000000000E+00 0. -1.
          1   -1    0    0  501    0 -0.00000000000E+00 -0.00000000000E+00 -0.88825372863E+03  0.88825372863E+03  0.00000000000E+00 0.  1.
          2    1    1    2  501    0  0.18239657838E+02 -0.30364189409E+02 -0.15463395690E+03  0.15863899188E+03  0.00000000000E+00 0. -1.
          1    1    1    2  502    0 -0.18239657838E+02  0.30364189409E+02 -0.73118852285E+03  0.73204598562E+03  0.00000000000E+00 0.  1.
</event>
<event>
 4    1  0.3664744E+003  0.8580744E+02  0.7546771E-02  0.1190971E+00
          2   -1    0    0  502    0  0.00000000000E+00  0.00000000000E+00  0.40427820150E+03  0.40427820150E+03  0.00000000000E+00 0. -1.
          1   -1    0    0  501    0 -0.00000000000E+00 -0.00000000000E+00 -0.22552043481E+02  0.22552043481E+02  0.00000000000E+00 0. -1.
          2    1    1    2  501    0  0.55581295167E+02  0.65373056461E+02  0.28447997664E+03  0.29713931748E+03  0.00000000000E+00 0. -1.
          1    1    1    2  502    0 -0.55581295167E+02 -0.65373056461E+02  0.97246181383E+02  0.12969092751E+03  0.00000000000E+00 0. -1.
</event>
<event>
 4    1  0.3664744E+003  0.3065993E+02  0.7546771E-02  0.1413947E+00
          2   -1    0    0  502    0  0.00000000000E+00  0.00000000000E+00  0.75218652195E+02  0.75218652195E+02  0.00000000000E+00 0.  1.
          1   -1    0    0  501    0 -0.00000000000E+00 -0.00000000000E+00 -0.45037298283E+02  0.45037298283E+02  0.00000000000E+00 0.  1.
          2    1    1    2  501    0 -0.20720114616E+02 -0.22598850209E+02  0.66199876380E+02  0.72955156180E+02  0.00000000000E+00 0.  1.
          1    1    1    2  502    0  0.20720114616E+02  0.22598850209E+02 -0.36018522468E+02  0.47300794298E+02  0.00000000000E+00 0.  1.
</event>
<event>
 4    1  0.3664744E+003  0.2377956E+02  0.7546771E-02  0.1482934E+00
          2   -1    0    0  502    0  0.00000000000E+00  0.00000000000E+00  0.30685123909E+03  0.30685123909E+03  0.00000000000E+00 0.  1.
          1   -1    0    0  501    0 -0.00000000000E+00 -0.00000000000E+00 -0.24035771692E+01  0.24035771692E+01  0.00000000000E+00 0. -1.
          2    1    1    2  501    0  0.23013019580E+02 -0.59890224967E+01  0.22691170246E+03  0.22815430781E+03  0.00000000000E+00 0.  1.
          1    1    1    2  502    0 -0.23013019580E+02  0.59890224967E+01  0.77535959467E+02  0.81100508452E+02  0.00000000000E+00 0. -1.
</event>
<event>
 4    1  0.3664744E+003  0.5994168E+02  0.7546771E-02  0.1260031E+00
          2   -1    0    0  502    0  0.00000000000E+00  0.00000000000E+00  0.11661399398E+03  0.11661399398E+03  0.00000000000E+00 0.  1.
          1   -1    0    0  501    0 -0.00000000000E+00 -0.00000000000E+00 -0.60664107426E+02  0.60664107426E+02  0.00000000000E+00 0. -1.
          2    1    1    2  501    0  0.31935209902E+02 -0.50726204431E+02  0.90155303494E+02  0.10826349429E+03  0.00000000000E+00 0.  1.
          1    1    1    2  502    0 -0.31935209902E+02  0.50726204431E+02 -0.34205416940E+02  0.69014607117E+02  0.00000000000E+00 0. -1.
</event>
<event>
 4    1  0.3664744E+003  0.3691134E+02  0.7546771E-02  0.1367602E+00
          2   -1    0    0  502    0  0.00000000000E+00  0.00000000000E+00  0.23747927949E+02  0.23747927949E+02  0.00000000000E+00 0.  1.
          1   -1    0    0  501    0 -0.00000000000E+00 -0.00000000000E+00 -0.60927676592E+03  0.60927676592E+03  0.00000000000E+00 0.  1.
          2    1    1    2  501    0 -0.60169918044E+01 -0.36417615411E+02  0.84777308315E+01  0.37872401860E+02  0.00000000000E+00 0.  1.
          1    1    1    2  502    0  0.60169918044E+01  0.36417615411E+02 -0.59400656881E+03  0.59515229201E+03  0.00000000000E+00 0.  1.
</event>
<event>
 4    1  0.3664744E+003  0.9572150E+02  0.7546771E-02  0.1171436E+00
          2   -1    0    0  502    0  0.00000000000E+00  0.00000000000E+00  0.55050968265E+03  0.55050968265E+03  0.00000000000E+00 0.  1.
          1   -1    0    0  501    0 -0.00000000000E+00 -0.00000000000E+00 -0.95405738995E+02  0.95405738995E+02  0.00000000000E+00 0.  1.
          2    1    1    2  501    0 -0.50654155689E+02 -0.81220454465E+02  0.52099003281E+03  0.52971050584E+03  0.00000000000E+00 0.  1.
          1    1    1    2  502    0  0.50654155689E+02  0.81220454465E+02 -0.65886089156E+02  0.11620491580E+03  0.00000000000E+00 0.  1.
</event>
<event>
 4    1  0.3664744E+003  0.2344115E+02  0.7546771E-02  0.1487032E+00
          2   -1    0    0  502    0  0.00000000000E+00  0.00000000000E+00  0.10169073468E+03  0.10169073468E+03  0.00000000000E+00 0.  1.
          1   -1    0    0  501    0 -0.00000000000E+00 -0.00000000000E+00 -0.12596826513E+02  0.12596826513E+02  0.00000000000E+00 0. -1.
          2    1    1    2  501    0 -0.17754423162E+02 -0.15305817998E+02  0.87728955913E+02  0.90806703012E+02  0.00000000000E+00 0.  1.
          1    1    1    2  502    0  0.17754423162E+02  0.15305817998E+02  0.13649522586E+01  0.23480858184E+02  0.00000000000E+00 0. -1.
</event>
<event>
 4    1  0.3664744E+003  0.2426965E+02  0.7546771E-02  0.1477142E+00
          2   -1    0    0  502    0  0.00000000000E+00  0.00000000000E+00  0.12325965454E+01  0.12325965454E+01  0.00000000000E+00 0.  1.
          1   -1    0    0  501    0 -0.00000000000E+00 -0.00000000000E+00 -0.75022409565E+03  0.75022409565E+03  0.00000000000E+00 0.  1.
          2    1    1    2  501    0  0.16563266053E+02 -0.17739062852E+02 -0.14811030404E+03  0.15008556991E+03  0.00000000000E+00 0.  1.
          1    1    1    2  502    0 -0.16563266053E+02  0.17739062852E+02 -0.60088119506E+03  0.60137112228E+03  0.00000000000E+00 0.  1.
</event>
<event>
 4    1  0.3664744E+003  0.2136281E+02  0.7546771E-02  0.1514147E+00
          2   -1    0    0  502    0  0.00000000000E+00  0.00000000000E+00  0.82147561850E+03  0.82147561850E+03  0.00000000000E+00 0. -1.
          1   -1    0    0  501    0 -0.00000000000E+00 -0.00000000000E+00 -0.78291606856E+00  0.78291606856E+00  0.00000000000E+00 0. -1.
          2    1    1    2  501    0  0.20766959286E+02 -0.50102867742E+01  0.63190311959E+03  0.63226412370E+03  0.00000000000E+00 0. -1.
          1    1    1    2  502    0 -0.20766959286E+02  0.50102867742E+01  0.18878958284E+03  0.18999441087E+03  0.00000000000E+00 0. -1.
</event>
<event>
 4    1  0.3664744E+003  0.2845958E+02  0.7546771E-02  0.1433473E+00
          2   -1    0    0  502    0  0.00000000000E+00  0.00000000000E+00  0.10931768723E+02  0.10931768723E+02  0.00000000000E+00 0. -1.
          1   -1    0    0  501    0 -0.00000000000E+00 -0.00000000000E+00 -0.91769849827E+03  0.91769849827E+03  0.00000000000E+00 0. -1.
          2    1    1    2  501    0 -0.28357675863E+02  0.24061827196E+01 -0.82060749754E+01  0.29619033781E+02  0.00000000000E+00 0. -1.
          1    1    1    2  502    0  0.28357675863E+02 -0.24061827196E+01 -0.89856065457E+03  0.89901123321E+03  0.00000000000E+00 0. -1.
</event>
<event>
 4    1  0.3664744E+003  0.2643901E+02  0.7546771E-02  0.1453326E+00
          2   -1    0    0  502    0  0.00000000000E+00  0.00000000000E+00  0.35207618315E+02  0.35207618315E+02  0.00000000000E+00 0.  1.
          1   -1    0    0  501    0 -0.00000000000E+00 -0.00000000000E+00 -0.28221871163E+02  0.28221871163E+02  0.00000000000E+00 0. -1.
          2    1    1    2  501    0  0.19602494981E+02  0.17741574540E+02  0.20761946066E+02  0.33616657792E+02  0.00000000000E+00 0.  1.
          1    1    1    2  502    0 -0.19602494981E+02 -0.17741574540E+02 -0.13776198913E+02  0.29812831686E+02  0.00000000000E+00 0. -1.
</event>
<event>
 4    1  0.3664744E+003  0.5539488E+02  0.7546771E-02  0.1276336E+00
          2   -1    0    0  502    0  0.00000000000E+00  0.00000000000E+00  0.80585152495E+02  0.80585152495E+02  0.00000000000E+00 0. -1.
          1   -1    0    0  501    0 -0.00000000000E+00 -0.00000000000E+00 -0.50513245917E+02  0.50513245917E+02  0.00000000000E+00 0.  1.
          2    1    1    2  501    0 -0.53990986824E+02 -0.12392185785E+02  0.47557893665E+02  0.73009219806E+02  0.00000000000E+00 0. -1.
          1    1    1    2  502    0  0.53990986824E+02  0.12392185785E+02 -0.17485987087E+02  0.58089178606E+02  0.00000000000E+00 0.  1.
</event>
<event>
 4    1  0.3664744E+003  0.5004451E+02  0.7546771E-02  0.1297980E+00
          2   -1    0    0  502    0  0.00000000000E+00  0.00000000000E+00  0.96261858159E+02  0.96261858159E+02  0.00000000000E+00 0.  1.
          1   -1    0    0  501    0 -0.00000000000E+00 -0.00000000000E+00 -0.22345151362E+03  0.22345151362E+03  0.00000000000E+00 0. -1.
          2    1    1    2  501    0  0.25091627075E+02  0.43299691317E+02  0.86667667859E+02  0.10007865741E+03  0.00000000000E+00 0.  1.
          1    1    1    2  502    0 -0.25091627075E+02 -0.43299691317E+02 -0.21385732332E+03  0.21963471437E+03  0.00000000000E+00 0. -1.
</event>
<event>
 4    1  0.3664744E+003  0.2108055E+02  0.7546771E-02  0.1518118E+00
          2   -1    0    0  502    0  0.00000000000E+00  0.00000000000E+00  0.22174180930E+02  0.22174180930E+02  0.00000000000E+00 0. -1.
          1   -1    0    0  501    0 -0.00000000000E+00 -0.00000000000E+00 -0.48775270131E+02  0.48775270131E+02  0.00000000000E+00 0. -1.
          2    1    1    2  501    0  0.96714699521E+01  0.18731053430E+02  0.13927743205E+02  0.25266019164E+02  0.00000000000E+00 0. -1.
          1    1    1    2  502    0 -0.96714699521E+01 -0.18731053430E+02 -0.40528832406E+02  0.45683431896E+02  0.00000000000E+00 0. -1.
</event>
<event>
 4    1  0.3664744E+003  0.2323203E+02  0.7546771E-02  0.1489605E+00
          2   -1    0    0  502    0  0.00000000000E+00  0.00000000000E+00  0.29714899695E+03  0.29714899695E+03  0.00000000000E+00 0. -1.
          1   -1    0    0  501    0 -0.00000000000E+00 -0.00000000000E+00 -0.12899500383E+02  0.12899500383E+02  0.00000000000E+00 0. -1.
          2    1    1    2  501    0 -0.30046929815E+01  0.23036906301E+02  0.28582077520E+03  0.28676339161E+03  0.00000000000E+00 0. -1.
          1    1    1    2  502    0  0.30046929815E+01 -0.23036906301E+02 -0.15712786352E+01  0.23285105720E+02  0.00000000000E+00 0. -1.
</event>
<event>
 4    1  0.3664744E+003  0.2598130E+02  0.7546771E-02  0.1458118E+00
          2   -1    0    0  502    0  0.00000000000E+00  0.00000000000E+00  0.46197647907E+00  0.46197647907E+00  0.00000000000E+00 0.  1.
          1   -1    0    0  501    0 -0.00000000000E+00 -0.00000000000E+00 -0.16875747775E+04  0.16875747775E+04  0.00000000000E+00 0. -1.
          2    1    1    2  501    0  0.25971975820E+02 -0.69589217515E+00 -0.53441311665E+03  0.53504430382E+03  0.00000000000E+00 0.  1.
          1    1    1    2  502    0 -0.25971975820E+02  0.69589217515E+00 -0.11526996844E+04  0.11529924502E+04  0.00000000000E+00 0. -1.
</event>
<event>
 4    1  0.3664744E+003  0.2574614E+02  0.7546771E-02  0.1460627E+00
          2   -1    0    0  502    0  0.00000000000E+00  0.00000000000E+00  0.18655345198E+03  0.18655345198E+03  0.00000000000E+00 0. -1.
          1   -1    0    0  501    0 -0.00000000000E+00 -0.00000000000E+00 -0.71988277570E+02  0.71988277570E+02  0.00000000000E+00 0.  1.
          2    1    1    2  501    0  0.25695432683E+02  0.16151110110E+01  0.18332279449E+03  0.18512188100E+03  0.00000000000E+00 0. -1.
          1    1    1    2  502    0 -0.25695432683E+02 -0.16151110110E+01 -0.68757620073E+02  0.73419848560E+02  0.00000000000E+00 0.  1.
</event>
<event>
 4    1  0.3664744E+003  0.4202455E+02  0.7546771E-02  0.1337014E+00
          2   -1    0    0  502    0  0.00000000000E+00  0.00000000000E+00  0.27473247766E+03  0.27473247766E+03  0.00000000000E+00 0.  1.
          1   -1    0    0  501    0 -0.00000000000E+00 -0.00000000000E+00 -0.59628419563E+02  0.59628419563E+02  0.00000000000E+00 0. -1.
          2    1    1    2  501    0 -0.31672171858E+02  0.27621304153E+02  0.26546403094E+03  0.26876981720E+03  0.00000000000E+00 0.  1.
          1    1    1    2  502    0  0.31672171858E+02 -0.27621304153E+02 -0.50359972846E+02  0.65591080021E+02  0.00000000000E+00 0. -1.
</event>
<event>
 4    1  0.3664744E+003  0.2592115E+02  0.7546771E-02  0.1458757E+00
          2   -1    0    0  502    0  0.00000000000E+00  0.00000000000E+00  0.88231937709E+01  0.88231937709E+01  0.00000000000E+00 0. -1.
          1   -1    0    0  501    0 -0.00000000000E+00 -0.00000000000E+00 -0.26781363767E+03  0.26781363767E+03  0.00000000000E+00 0.  1.
          2    1    1    2  501    0 -0.17315126539E+02  0.19289703272E+02 -0.12483074452E+02  0.28770356396E+02  0.00000000000E+00 0. -1.
          1    1    1    2  502    0  0.17315126539E+02 -0.19289703272E+02 -0.24650736945E+03  0.24786647505E+03  0.00000000000E+00 0.  1.
</event>
<event>
 4    1  0.3664744E+003  0.3744458E+02  0.7546771E-02  0.1364148E+00
          2   -1    0    0  502    0  0.00000000000E+00  0.00000000000E+00  0.42918148571E+03  0.42918148571E+03  0.00000000000E+00 0.  1.
          1   -1    0    0  501    0 -0.00000000000E+00 -0.00000000000E+00 -0.74704684742E+02  0.74704684742E+02  0.00000000000E+00 0. -1.
          2    1    1    2  501    0  0.41707972007E+01  0.37211573161E+02  0.42361104639E+03  0.42526276036E+03  0.00000000000E+00 0.  1.
          1    1    1    2  502    0 -0.41707972007E+01 -0.37211573161E+02 -0.69134245415E+02  0.78623410098E+02  0.00000000000E+00 0. -1.
</event>
<event>
 4    1  0.3664744E+003  0.4940247E+02  0.7546771E-02  0.1300784E+00
          2   -1    0    0  502    0  0.00000000000E+00  0.00000000000E+00  0.36710951840E+03  0.36710951840E+03  0.00000000000E+00 0. -1.
          1   -1    0    0  501    0 -0.00000000000E+00 -0.00000000000E+00 -0.13610482111E+04  0.13610482111E+04  0.00000000000E+00 0. -1.
          2    1    1    2  501    0 -0.10239441991E+02  0.48329678398E+02  0.36499659934E+03  0.36832475008E+03  0.00000000000E+00 0. -1.
          1    1    1    2  502    0  0.10239441991E+02 -0.48329678398E+02 -0.13589352921E+04  0.13598329795E+04  0.00000000000E+00 0. -1.
</event>
<event>
 4    1  0.3664744E+003  0.2435130E+02  0.7546771E-02  0.1476193E+00
          2   -1    0    0  502    0  0.00000000000E+00  0.00000000000E+00  0.59374702646E+03  0.59374702646E+03  0.00000000000E+00 0. -1.
          1   -1    0    0  501    0 -0.00000000000E+00 -0.00000000000E+00 -0.36621665555E+01  0.36621665555E+01  0.00000000000E+00 0. -1.
          2    1    1    2  501    0 -0.18940007832E+02  0.15305613219E+02  0.54978119355E+03  0.55032022176E+03  0.00000000000E+00 0. -1.
          1    1    1    2  502    0  0.18940007832E+02 -0.15305613219E+02  0.40303666357E+02  0.47088971261E+02  0.00000000000E+00 0. -1.
</event>
<event>
 4    1  0.3664744E+003  0.2249672E+02  0.7546771E-02  0.1498916E+00
          2   -1    0    0  502    0  0.00000000000E+00  0.00000000000E+00  0.12200419381E+02  0.12200419381E+02  0.00000000000E+00 0.  1.
          1   -1    0    0  501    0 -0.00000000000E+00 -0.00000000000E+00 -0.97374391448E+03  0.97374391448E+03  0.00000000000E+00 0.  1.
          2    1    1    2  501    0 -0.14892198266E+01  0.22447371703E+02  0.15856099992E+01  0.22552526048E+02  0.00000000000E+00 0.  1.
          1    1    1    2  502    0  0.14892198266E+01 -0.22447371703E+02 -0.96312910510E+03  0.96339180782E+03  0.00000000000E+00 0.  1.
</event>
<event>
 4    1  0.3664744E+003  0.3467098E+02  0.7546771E-02  0.1382891E+00
          2   -1    0    0  502    0  0.00000000000E+00  0.00000000000E+00  0.78638021476E+03  0.78638021476E+03  0.00000000000E+00 0.  1.
          1   -1    0    0  501    0 -0.00000000000E+00 -0.00000000000E+00 -0.15180349226E+02  0.15180349226E+02  0.00000000000E+00 0.  1.
          2    1    1    2  501    0  0.29843836767E+02  0.17647164022E+02  0.76566616767E+03  0.76645075334E+03  0.00000000000E+00 0.  1.
          1    1    1    2  502    0 -0.29843836767E+02 -0.17647164022E+02  0.55336978614E+01  0.35109810638E+02  0.00000000000E+00 0.  1.
</event>
<event>
 4    1  0.3664744E+003  0.2494584E+02  0.7546771E-02  0.1469410E+00
          2   -1    0    0  502    0  0.00000000000E+00  0.00000000000E+00  0.10819420500E+03  0.10819420500E+03  0.00000000000E+00 0.  1.
          1   -1    0    0  501    0 -0.00000000000E+00 -0.00000000000E+00 -0.24039457040E+02  0.24039457040E+02  0.00000000000E+00 0.  1.
          2    1    1    2  501    0 -0.14301705211E+02  0.20439082620E+02  0.99744798239E+02  0.10281692296E+03  0.00000000000E+00 0.  1.
          1    1    1    2  502    0  0.14301705211E+02 -0.20439082620E+02 -0.15590050283E+02  0.29416739080E+02  0.00000000000E+00 0.  1.
</event>
<event>
 4    1  0.3664744E+003  0.3004149E+02  0.7546771E-02  0.1419236E+00
          2   -1    0    0  502    0  0.00000000000E+00  0.00000000000E+00  0.12271180291E+04  0.12271180291E+04  0.00000000000E+00 0. -1.
          1   -1    0    0  501    0 -0.00000000000E+00 -0.00000000000E+00 -0.29900387663E+02  0.29900387663E+02  0.00000000000E+00 0.  1.
          2    1    1    2  501    0 -0.95876562541E+01  0.28470478236E+02  0.12193402240E+04  0.12197102415E+04  0.00000000000E+00 0. -1.
          1    1    1    2  502    0  0.95876562541E+01 -0.28470478236E+02 -0.22122582571E+02  0.37308175284E+02  0.00000000000E+00 0.  1.
</event>
<event>
 4    1  0.3664744E+003  0.2054684E+02  0.7546771E-02  0.1525834E+00
          2   -1    0    0  502    0  0.00000000000E+00  0.00000000000E+00  0.14323022375E+04  0.14323022375E+04  0.00000000000E+00 0.  1.
          1   -1    0    0  501    0 -0.00000000000E+00 -0.00000000000E+00 -0.81090748031E+00  0.81090748031E+00  0.00000000000E+00 0. -1.
          2    1    1    2  501    0 -0.88377420229E+01  0.18549044599E+02  0.12874289010E+04  0.12875928502E+04  0.00000000000E+00 0.  1.
          1    1    1    2  502    0  0.88377420229E+01 -0.18549044599E+02  0.14406242896E+03  0.14552029473E+03  0.00000000000E+00 0. -1.
</event>
<event>
 4    1  0.3664744E+003  0.3923361E+02  0.7546771E-02  0.1353036E+00
          2   -1    0    0  502    0  0.00000000000E+00  0.00000000000E+00  0.73425732064E+03  0.73425732064E+03  0.00000000000E+00 0. -1.
          1   -1    0    0  501    0 -0.00000000000E+00 -0.00000000000E+00 -0.11932401251E+04  0.11932401251E+04  0.00000000000E+00 0. -1.
          2    1    1    2  501    0  0.13272602727E+02  0.36920377842E+02  0.73341035627E+03  0.73445900292E+03  0.00000000000E+00 0. -1.
          1    1    1    2  502    0 -0.13272602727E+02 -0.36920377842E+02 -0.11923931607E+04  0.11930384428E+04  0.00000000000E+00 0. -1.
</event>
<event>
 4    1  0.3664744E+003  0.3267494E+02  0.7546771E-02  0.1397690E+00
          2   -1    0    0  502    0  0.00000000000E+00  0.00000000000E+00  0.84441389698E+03  0.84441389698E+03  0.00000000000E+00 0.  1.
          1   -1    0    0  501    0 -0.00000000000E+00 -0.00000000000E+00 -0.14111321075E+01  0.14111321075E+01  0.00000000000E+00 0.  1.
          2    1    1    2  501    0 -0.32151443394E+02 -0.58254692174E+01  0.55788870739E+03  0.55884475594E+03  0.00000000000E+00 0.  1.
          1    1    1    2  502    0  0.32151443394E+02  0.58254692174E+01  0.28511405748E+03  0.28698027315E+03  0.00000000000E+00 0.  1.
</event>
<event>
 4    1  0.3664744E+003  0.6142992E+02  0.7546771E-02  0.1255050E+00
          2   -1    0    0  502    0  0.00000000000E+00  0.00000000000E+00  0.20384953702E+03  0.20384953702E+03  0.00000000000E+00 0. -1.
          1   -1    0    0  501    0 -0.00000000000E+00 -0.00000000000E+00 -0.19890608292E+02  0.19890608292E+02  0.00000000000E+00 0. -1.
          2    1    1    2  501    0 -0.60724177768E+02 -0.92848991342E+01  0.12143260342E+03  0.13608641479E+03  0.00000000000E+00 0. -1.
          1    1    1    2  502    0  0.60724177768E+02  0.92848991342E+01  0.62526325306E+02  0.87653730518E+02  0.00000000000E+00 0. -1.
</event>
<event>
 4    1  0.3664744E+003  0.2289494E+02  0.7546771E-02  0.1493822E+00
          2   -1    0    0  502    0  0.00000000000E+00  0.00000000000E+00  0.15324370134E+04  0.15324370134E+04  0.00000000000E+00 0.  1.
          1   -1    0    0  501    0 -0.00000000000E+00 -0.00000000000E+00 -0.77745825529E+01  0.77745825529E+01  0.00000000000E+00 0.  1.
          2    1    1    2  501    0  0.83996382415E+01  0.21298459014E+02  0.15153054352E+04  0.15154783866E+04  0.00000000000E+00 0.  1.
          1    1    1    2  502    0 -0.83996382415E+01 -0.21298459014E+02  0.93569956853E+01  0.24733209400E+02  0.00000000000E+00 0.  1.
</event>
<event>
 4    1  0.3664744E+003  0.2055237E+02  0.7546771E-02  0.1525753E+00
          2   -1    0    0  502    0  0.00000000000E+00  0.00000000000E+00  0.51031347892E+00  0.51031347892E+00  0.00000000000E+00 0.  1.
          1   -1    0    0  501    0 -0.00000000000E+00 -0.00000000000E+00 -0.97734039735E+03  0.97734039735E+03  0.00000000000E+00 0.  1.
          2    1    1    2  501    0 -0.73507532543E+01 -0.19192873307E+02 -0.29711912952E+03  0.29782910719E+03  0.00000000000E+00 0.  1.
          1    1    1    2  502    0  0.73507532543E+01  0.19192873307E+02 -0.67971095435E+03  0.68002160364E+03  0.00000000000E+00 0.  1.
</event>
<event>
 4    1  0.3664744E+003  0.2768079E+02  0.7546771E-02  0.1440887E+00
          2   -1    0    0  502    0  0.00000000000E+00  0.00000000000E+00  0.10216189194E+03  0.10216189194E+03  0.00000000000E+00 0.  1.
          1   -1    0    0  501    0 -0.00000000000E+00 -0.00000000000E+00 -0.44740757100E+02  0.44740757100E+02  0.00000000000E+00 0. -1.
          2    1    1    2  501    0  0.27481611957E+02 -0.33146443668E+01  0.95723180287E+02  0.99645135894E+02  0.00000000000E+00 0.  1.
          1    1    1    2  502    0 -0.27481611957E+02  0.33146443668E+01 -0.38302045449E+02  0.47257513144E+02  0.00000000000E+00 0. -1.
</event>
<event>
 4    1  0.3664744E+003  0.2596895E+02  0.7546771E-02  0.1458249E+00
          2   -1    0    0  502    0  0.00000000000E+00  0.00000000000E+00  0.11676745872E+03  0.11676745872E+03  0.00000000000E+00 0.  1.
          1   -1    0    0  501    0 -0.00000000000E+00 -0.00000000000E+00 -0.22327039252E+02  0.22327039252E+02  0.00000000000E+00 0.  1.
          2    1    1    2  501    0  0.25220888907E+02 -0.61881302117E+01  0.10710052264E+03  0.11020393887E+03  0.00000000000E+00 0.  1.
          1    1    1    2  502    0 -0.25220888907E+02  0.61881302117E+01 -0.12660103173E+02  0.28890559100E+02  0.00000000000E+00 0.  1.
</event>
<event>
 4    1  0.3664744E+003  0.2646437E+02  0.7546771E-02  0.1453064E+00
          2   -1    0    0  502    0  0.00000000000E+00  0.00000000000E+00  0.24470839762E+02  0.24470839762E+02  0.00000000000E+00 0.  1.
          1   -1    0    0  501    0 -0.00000000000E+00 -0.00000000000E+00 -0.57958622689E+03  0.57958622689E+03  0.00000000000E+00 0.  1.
          2    1    1    2  501    0 -0.26317540513E+02 -0.27838943300E+01  0.16919260719E+02  0.31410577670E+02  0.00000000000E+00 0.  1.
          1    1    1    2  502    0  0.26317540513E+02  0.27838943300E+01 -0.57203464785E+03  0.57264648899E+03  0.00000000000E+00 0.  1.
</event>
<event>
 4    1  0.3664744E+003  0.2107811E+02  0.7546771E-02  0.1518152E+00
          2   -1    0    0  502    0  0.00000000000E+00  0.00000000000E+00  0.60274601816E+03  0.60274601816E+03  0.00000000000E+00 0. -1.
          1   -1    0    0  501    0 -0.00000000000E+00 -0.00000000000E+00 -0.69857235954E+01  0.69857235954E+01  0.00000000000E+00 0.  1.
          2    1    1    2  501    0 -0.13806526679E+02  0.15926919094E+02  0.58621366347E+03  0.58659248731E+03  0.00000000000E+00 0. -1.
          1    1    1    2  502    0  0.13806526679E+02 -0.15926919094E+02  0.95466310861E+01  0.23139254436E+02  0.00000000000E+00 0.  1.
</event>
<event>
 4    1  0.3664744E+003  0.3527752E+02  0.7546771E-02  0.1378623E+00
          2   -1    0    0  502    0  0.00000000000E+00  0.00000000000E+00  0.13801828289E+04  0.13801828289E+04  0.00000000000E+00 0. -1.
          1   -1    0    0  501    0 -0.00000000000E+00 -0.00000000000E+00 -0.13162620121E+01  0.13162620121E+01  0.00000000000E+00 0. -1.
          2    1    1    2  501    0  0.29500198084E+01  0.35153955870E+02  0.10770897923E+04  0.10776673530E+04  0.00000000000E+00 0. -1.
          1    1    1    2  502    0 -0.29500198084E+01 -0.35153955870E+02  0.30177677467E+03  0.30383173791E+03  0.00000000000E+00 0. -1.
</event>
<event>
 4    1  0.3664744E+003  0.2024439E+02  0.7546771E-02  0.1530332E+00
          2   -1    0    0  502    0  0.00000000000E+00  0.00000000000E+00  0.34873462290E+01  0.34873462290E+01  0.00000000000E+00 0.  1.
          1   -1    0    0  501    0 -0.00000000000E+00 -0.00000000000E+00 -0.11963809852E+03  0.11963809852E+03  0.00000000000E+00 0. -1.
          2    1    1    2  501    0  0.85898958269E+01 -0.18331624637E+02 -0.66265716471E+02  0.69289104133E+02  0.00000000000E+00 0.  1.
          1    1    1    2  502    0 -0.85898958269E+01  0.18331624637E+02 -0.49885035819E+02  0.53836340615E+02  0.00000000000E+00 0. -1.
</event>
<event>
 4    1  0.3664744E+003  0.2100798E+02  0.7546771E-02  0.1519151E+00
          2   -1    0    0  502    0  0.00000000000E+00  0.00000000000E+00  0.97648202341E+02  0.97648202341E+02  0.00000000000E+00 0. -1.
          1   -1    0    0  501    0 -0.00000000000E+00 -0.00000000000E+00 -0.57438345192E+03  0.57438345192E+03  0.00000000000E+00 0. -1.
          2    1    1    2  501    0 -0.14731959059E+02  0.14976805858E+02  0.96323588991E+02  0.98587875155E+02  0.00000000000E+00 0. -1.
          1    1    1    2  502    0  0.14731959059E+02 -0.14976805858E+02 -0.57305883857E+03  0.57344377911E+03  0.00000000000E+00 0. -1.
</event>
<event>
 4    1  0.3664744E+003  0.2099812E+02  0.7546771E-02  0.1519292E+00
          2   -1    0    0  502    0  0.00000000000E+00  0.00000000000E+00  0.54566105968E+00  0.54566105968E+00  0.00000000000E+00 0.  1.
          1   -1    0    0  501    0 -0.00000000000E+00 -0.00000000000E+00 -0.11510389669E+04  0.11510389669E+04  0.00000000000E+00 0.  1.
          2    1    1    2  501    0 -0.20599451079E+02 -0.40723292922E+01 -0.26093453799E+03  0.26177806319E+03  0.00000000000E+00 0.  1.
          1    1    1    2  502    0  0.20599451079E+02  0.40723292922E+01 -0.88955876788E+03  0.88980656480E+03  0.00000000000E+00 0.  1.
</event>
<event>
 4    1  0.3664744E+003  0.3034495E+02  0.7546771E-02  0.1416622E+00
          2   -1    0    0  502    0  0.00000000000E+00  0.00000000000E+00  0.29831666303E+02  0.29831666303E+02  0.00000000000E+00 0.  1.
          1   -1    0    0  501    0 -0.00000000000E+00 -0.00000000000E+00 -0.11030321612E+03  0.11030321612E+03  0.00000000000E+00 0.  1.
          2    1    1    2  501    0 -0.24775438156E+02 -0.17521238828E+02  0.19225094073E+02  0.35922421801E+02  0.00000000000E+00 0.  1.
          1    1    1    2  502    0  0.24775438156E+02  0.17521238828E+02 -0.99696643885E+02  0.10421246062E+03  0.00000000000E+00 0.  1.
</event>
<event>
 4    1  0.3664744E+003  0.2552184E+02  0.7546771E-02  0.1463049E+00
          2   -1    0    0  502    0  0.00000000000E+00  0.00000000000E+00  0.37458323576E+03  0.37458323576E+03  0.00000000000E+00 0. -1.
          1   -1    0    0  501    0 -0.00000000000E+00 -0.00000000000E+00 -0.41223377965E+01  0.41223377965E+01  0.00000000000E+00 0.  1.
          2    1    1    2  501    0 -0.25096751482E+02 -0.46386934543E+01  0.32921020367E+03  0.33019800516E+03  0.00000000000E+00 0. -1.
          1    1    1    2  502    0  0.25096751482E+02  0.46386934543E+01  0.41250694289E+02  0.48507568391E+02  0.00000000000E+00 0.  1.
</event>
<event>
 4    1  0.3664744E+003  0.5146006E+02  0.7546771E-02  0.1291963E+00
          2   -1    0    0  502    0  0.00000000000E+00  0.00000000000E+00  0.20747059541E+04  0.20747059541E+04  0.00000000000E+00 0.  1.
          1   -1    0    0  501    0 -0.00000000000E+00 -0.00000000000E+00 -0.71514975664E+01  0.71514975664E+01  0.00000000000E+00 0. -1.
          2    1    1    2  501    0 -0.36058604468E+02  0.36713955361E+02  0.19772521139E+04  0.19779216515E+04  0.00000000000E+00 0.  1.
          1    1    1    2  502    0  0.36058604468E+02 -0.36713955361E+02  0.90302342609E+02  0.10393580016E+03  0.00000000000E+00 0. -1.
</event>
<event>
 4    1  0.3664744E+003  0.2891442E+02  0.7546771E-02  0.1429271E+00
          2   -1    0    0  502    0  0.00000000000E+00  0.00000000000E+00  0.60324675845E+03  0.60324675845E+03  0.00000000000E+00 0.  1.
          1   -1    0    0  501    0 -0.00000000000E+00 -0.00000000000E+00 -0.21550751192E+02  0.21550751192E+02  0.00000000000E+00 0. -1.
          2    1    1    2  501    0  0.23311243015E+02  0.17106418742E+02  0.59303483044E+03  0.59373929778E+03  0.00000000000E+00 0.  1.
          1    1    1    2  502    0 -0.23311243015E+02 -0.17106418742E+02 -0.11338823181E+02  0.31058211864E+02  0.00000000000E+00 0. -1.
</event>
<event>
 4    1  0.3664744E+003  0.2785334E+02  0.7546771E-02  0.1439219E+00
          2   -1    0    0  502    0  0.00000000000E+00  0.00000000000E+00  0.56187132724E+03  0.56187132724E+03  0.00000000000E+00 0. -1.
          1   -1    0    0  501    0 -0.00000000000E+00 -0.00000000000E+00 -0.11973647569E+02  0.11973647569E+02  0.00000000000E+00 0. -1.
          2    1    1    2  501    0 -0.18901313195E+02  0.20458467662E+02  0.54482129895E+03  0.54553281875E+03  0.00000000000E+00 0. -1.
          1    1    1    2  502    0  0.18901313195E+02 -0.20458467662E+02  0.50763807193E+01  0.28312156060E+02  0.00000000000E+00 0. -1.
</event>
<event>
 4    1  0.3664744E+003  0.2237368E+02  0.7546771E-02  0.1500516E+00
          2   -1    0    0  502    0  0.00000000000E+00  0.00000000000E+00  0.35470865026E+03  0.35470865026E+03  0.00000000000E+00 0.  1.
          1   -1    0    0  501    0 -0.00000000000E+00 -0.00000000000E+00 -0.14138469735E+01  0.14138469735E+01  0.00000000000E+00 0.  1.
          2    1    1    2  501    0 -0.15182160664E+02 -0.16434221634E+02  0.18428265293E+03  0.18563587427E+03  0.00000000000E+00 0.  1.
          1    1    1    2  502    0  0.15182160664E+02  0.16434221634E+02  0.16901215035E+03  0.17048662296E+03  0.00000000000E+00 0.  1.
</event>
<event>
 4    1  0.3664744E+003  0.2002530E+02  0.7546771E-02  0.1533649E+00
          2   -1    0    0  502    0  0.00000000000E+00  0.00000000000E+00  0.51587558027E+03  0.51587558027E+03  0.00000000000E+00 0.  1.
          1   -1    0    0  501    0 -0.00000000000E+00 -0.00000000000E+00 -0.22413879535E+01  0.22413879535E+01  0.00000000000E+00 0.  1.
          2    1    1    2  501    0 -0.49730695346E+01 -0.19397967443E+02  0.46618804715E+03  0.46661794636E+03  0.00000000000E+00 0.  1.
          1    1    1    2  502    0  0.49730695346E+01  0.19397967443E+02  0.47446145165E+02  0.51499021860E+02  0.00000000000E+00 0.  1.
</event>
<event>
 4    1  0.3664744E+003  0.2355283E+02  0.7546771E-02  0.1485670E+00
          2   -1    0    0  502    0  0.00000000000E+00  0.00000000000E+00  0.21878452532E+01  0.21878452532E+01  0.00000000000E+00 0. -1.
          1   -1    0    0  501    0 -0.00000000000E+00 -0.00000000000E+00 -0.31830410870E+03  0.31830410870E+03  0.00000000000E+00 0. -1.
          2    1    1    2  501    0 -0.22318824860E+02  0.75236508796E+01 -0.23033324691E+03  0.23153431689E+03  0.00000000000E+00 0. -1.
          1    1    1    2  502    0  0.22318824860E+02 -0.75236508796E+01 -0.85783016536E+02  0.88957637062E+02  0.00000000000E+00 0. -1.
</event>
<event>
 4    1  0.3664744E+003  0.2094312E+02  0.7546771E-02  0.1520078E+00
          2   -1    0    0  502    0  0.00000000000E+00  0.00000000000E+00  0.27060378091E+03  0.27060378091E+03  0.00000000000E+00 0. -1.
          1   -1    0    0  501    0 -0.00000000000E+00 -0.00000000000E+00 -0.13157613800E+02  0.13157613800E+02  0.00000000000E+00 0. -1.
          2    1    1    2  501    0 -0.14156885304E+02 -0.15433627073E+02  0.26157759989E+03  0.26241466234E+03  0.00000000000E+00 0. -1.
          1    1    1    2  502    0  0.14156885304E+02  0.15433627073E+02 -0.41314327788E+01  0.21346732372E+02  0.00000000000E+00 0. -1.
</event>
<event>
 4    1  0.3664744E+003  0.4112773E+02  0.7546771E-02  0.1342001E+00
          2   -1    0    0  502    0  0.00000000000E+00  0.00000000000E+00  0.24371751926E+02  0.24371751926E+02  0.00000000000E+00 0. -1.
          1   -1    0    0  501    0 -0.00000000000E+00 -0.00000000000E+00 -0.80644794320E+02  0.80644794320E+02  0.00000000000E+00 0.  1.
          2    1    1    2  501    0 -0.18174449012E+02 -0.36894172156E+02 -0.85325865321E+01  0.42003518530E+02  0.00000000000E+00 0. -1.
          1    1    1    2  502    0  0.18174449012E+02  0.36894172156E+02 -0.47740455861E+02  0.63013027715E+02  0.00000000000E+00 0.  1.
</event>
<event>
 4    1  0.3664744E+003  0.2375858E+02  0.7546771E-02  0.1483186E+00
          2   -1    0    0  502    0  0.00000000000E+00  0.00000000000E+00  0.43103158959E+02  0.43103158959E+02  0.00000000000E+00 0. -1.
          1   -1    0    0  501    0 -0.00000000000E+00 -0.00000000000E+00 -0.54275733283E+02  0.54275733283E+02  0.00000000000E+00 0. -1.
          2    1    1    2  501    0  0.22136400959E+02  0.86284455749E+01  0.36824350975E+02  0.43823545557E+02  0.00000000000E+00 0. -1.
          1    1    1    2  502    0 -0.22136400959E+02 -0.86284455749E+01 -0.47996925298E+02  0.53555346685E+02  0.00000000000E+00 0. -1.
</event>
<event>
 4    1  0.3664744E+003  0.2537216E+02  0.7546771E-02  0.1464683E+00
          2   -1    0    0  502    0  0.00000000000E+00  0.00000000000E+00  0.12821648124E+01  0.12821648124E+01  0.00000000000E+00 0.  1.
          1   -1    0    0  501    0 -0.00000000000E+00 -0.00000000000E+00 -0.95460984182E+03  0.95460984182E+03  0.00000000000E+00 0.  1.
          2    1    1    2  501    0 -0.15001426341E+02  0.20462249212E+02 -0.14759211335E+03  0.14975706447E+03  0.00000000000E+00 0.  1.
          1    1    1    2  502    0  0.15001426341E+02 -0.20462249212E+02 -0.80573556365E+03  0.80613494216E+03  0.00000000000E+00 0.  1.
</event>
<event>
 4    1  0.3664744E+003  0.2507908E+02  0.7546771E-02  0.1467921E+00
          2   -1    0    0  502    0  0.00000000000E+00  0.00000000000E+00  0.16432870884E+03  0.16432870884E+03  0.00000000000E+00 0.  1.
          1   -1    0    0  501    0 -0.00000000000E+00 -0.00000000000E+00 -0.41188776287E+01  0.41188776287E+01  0.00000000000E+00 0.  1.
          2    1    1    2  501    0  0.21287376387E+02  0.13259257665E+02  0.10250805817E+03  0.10553133325E+03  0.00000000000E+00 0.  1.
          1    1    1    2  502    0 -0.21287376387E+02 -0.13259257665E+02  0.57701773045E+02  0.62916253225E+02  0.00000000000E+00 0.  1.
</event>
<event>
 4    1  0.3664744E+003  0.4439161E+02  0.7546771E-02  0.1324510E+00
          2   -1    0    0  502    0  0.00000000000E+00  0.00000000000E+00  0.15714874620E+03  0.15714874620E+03  0.00000000000E+00 0. -1.
          1   -1    0    0  501    0 -0.00000000000E+00 -0.00000000000E+00 -0.13070075005E+02  0.13070075005E+02  0.00000000000E+00 0.  1.
          2    1    1    2  501    0 -0.40920713242E+02 -0.17207842581E+02  0.89182346925E+02  0.99619805368E+02  0.00000000000E+00 0. -1.
          1    1    1    2  502    0  0.40920713242E+02  0.17207842581E+02  0.54896324268E+02  0.70599015834E+02  0.00000000000E+00 0.  1.
</event>
<event>
 4    1  0.3664744E+003  0.2284279E+02  0.7546771E-02  0.1494482E+00
          2   -1    0    0  502    0  0.00000000000E+00  0.00000000000E+00  0.74594570056E+03  0.74594570056E+03  0.00000000000E+00 0.  1.
          1   -1    0    0  501    0 -0.00000000000E+00 -0.00000000000E+00 -0.13256313830E+01  0.13256313830E+01  0.00000000000E+00 0. -1.
          2    1    1    2  501    0 -0.28918290428E+01 -0.22659004121E+02  0.62909391371E+03  0.62950849511E+03  0.00000000000E+00 0.  1.
          1    1    1    2  502    0  0.28918290428E+01  0.22659004121E+02  0.11552615546E+03  0.11776283683E+03  0.00000000000E+00 0. -1.
</event>
<event>
 4    1  0.3664744E+003  0.3115980E+02  0.7546771E-02  0.1409778E+00
          2   -1    0    0  502    0  0.00000000000E+00  0.00000000000E+00  0.63327985647E+03  0.63327985647E+03  0.00000000000E+00 0.  1.
          1   -1    0    0  501    0 -0.00000000000E+00 -0.00000000000E+00 -0.17131234491E+02  0.17131234491E+02  0.00000000000E+00 0.  1.
          2    1    1    2  501    0 -0.30066456069E+02 -0.81817776407E+01  0.61838647633E+03  0.61917103241E+03  0.00000000000E+00 0.  1.
          1    1    1    2  502    0  0.30066456069E+02  0.81817776407E+01 -0.22378543563E+01  0.31240058548E+02  0.00000000000E+00 0.  1.
</event>
<event>
 4    1  0.3664744E+003  0.2444629E+02  0.7546771E-02  0.1475094E+00
          2   -1    0    0  502    0  0.00000000000E+00  0.00000000000E+00  0.62808497820E+02  0.62808497820E+02  0.00000000000E+00 0.  1.
          1   -1    0    0  501    0 -0.00000000000E+00 -0.00000000000E+00 -0.10883623599E+02  0.10883623599E+02  0.00000000000E+00 0.  1.
          2    1    1    2  501    0  0.24268850714E+02  0.29400237695E+01  0.39028699521E+02  0.46052798406E+02  0.00000000000E+00 0.  1.
          1    1    1    2  502    0 -0.24268850714E+02 -0.29400237695E+01  0.12896174700E+02  0.27639323013E+02  0.00000000000E+00 0.  1.
</event>
<event>
 4    1  0.3664744E+003  0.2374165E+02  0.7546771E-02  0.1483389E+00
          2   -1    0    0  502    0  0.00000000000E+00  0.00000000000E+00  0.26509974214E+02  0.26509974214E+02  0.00000000000E+00 0.  1.
          1   -1    0    0  501    0 -0.00000000000E+00 -0.00000000000E+00 -0.23552990350E+02  0.23552990350E+02  0.00000000000E+00 0.  1.
          2    1    1    2  501    0  0.10277227151E+02 -0.21401980245E+02  0.92846175452E+01  0.25492553408E+02  0.00000000000E+00 0.  1.
          1    1    1    2  502    0 -0.10277227151E+02  0.21401980245E+02 -0.63276336813E+01  0.24570411155E+02  0.00000000000E+00 0.  1.
</event>
<event>
 4    1  0.3664744E+003  0.6259041E+02  0.7546771E-02  0.1251276E+00
          2   -1    0    0  502    0  0.00000000000E+00  0.00000000000E+00  0.24195305412E+03  0.24195305412E+03  0.00000000000E+00 0.  1.
          1   -1    0    0  501    0 -0.00000000000E+00 -0.00000000000E+00 -0.66165175604E+03  0.66165175604E+03  0.00000000000E+00 0. -1.
          2    1    1    2  501    0  0.61467707426E+02  0.11801725957E+02  0.23639074344E+03  0.24453658903E+03  0.00000000000E+00 0.  1.
          1    1    1    2  502    0 -0.61467707426E+02 -0.11801725957E+02 -0.65608944535E+03  0.65906822112E+03  0.00000000000E+00 0. -1.
</event>
<event>
 4    1  0.3664744E+003  0.2432367E+02  0.7546771E-02  0.1476514E+00
          2   -1    0    0  502    0  0.00000000000E+00  0.00000000000E+00  0.45673448471E+03  0.45673448471E+03  0.00000000000E+00 0. -1.
          1   -1    0    0  501    0 -0.00000000000E+00 -0.00000000000E+00 -0.16394308545E+02  0.16394308545E+02  0.00000000000E+00 0.  1.
          2    1    1    2  501    0 -0.49705499391E+01  0.23810386746E+02  0.44719630723E+03  0.44785731889E+03  0.00000000000E+00 0. -1.
          1    1    1    2  502    0  0.49705499391E+01 -0.23810386746E+02 -0.68561310606E+01  0.25271474369E+02  0.00000000000E+00 0.  1.
</event>
<event>
 4    1  0.3664744E+003  0.2761192E+02  0.7546771E-02  0.1441556E+00
          2   -1    0    0  502    0  0.00000000000E+00  0.00000000000E+00  0.46960718050E+02  0.46960718050E+02  0.00000000000E+00 0. -1.
          1   -1    0    0  501    0 -0.00000000000E+00 -0.00000000000E+00 -0.31133161384E+03  0.31133161384E+03  0.00000000000E+00 0.  1.
          2    1    1    2  501    0  0.26990234769E+02 -0.58262575154E+01  0.42227149762E+02  0.50453446131E+02  0.00000000000E+00 0. -1.
          1    1    1    2  502    0 -0.26990234769E+02  0.58262575154E+01 -0.30659804555E+03  0.30783888576E+03  0.00000000000E+00 0.  1.
</event>
<event>
 4    1  0.3664744E+003  0.2319899E+02  0.7546771E-02  0.1490014E+00
          2   -1    0    0  502    0  0.00000000000E+00  0.00000000000E+00  0.15744532445E+04  0.15744532445E+04  0.00000000000E+00 0. -1.
          1   -1    0    0  501    0 -0.00000000000E+00 -0.00000000000E+00 -0.33154426157E+02  0.33154426157E+02  0.00000000000E+00 0. -1.
          2    1    1    2  501    0 -0.23182413062E+02  0.87674316192E+00  0.15702988229E+04  0.15704701800E+04  0.00000000000E+00 0. -1.
          1    1    1    2  502    0  0.23182413062E+02 -0.87674316192E+00 -0.29000004533E+02  0.37137490718E+02  0.00000000000E+00 0. -1.
</event>
<event>
 4    1  0.3664744E+003  0.3782144E+02  0.7546771E-02  0.1361748E+00
          2   -1    0    0  502    0  0.00000000000E+00  0.00000000000E+00  0.97216197909E+03  0.97216197909E+03  0.00000000000E+00 0. -1.
          1   -1    0    0  501    0 -0.00000000000E+00 -0.00000000000E+00 -0.97311645009E+02  0.97311645009E+02  0.00000000000E+00 0.  1.
          2    1    1    2  501    0  0.13921700924E+02  0.35166004426E+02  0.96810377436E+03  0.96884228828E+03  0.00000000000E+00 0. -1.
          1    1    1    2  502    0 -0.13921700924E+02 -0.35166004426E+02 -0.93253440283E+02  0.10063133582E+03  0.00000000000E+00 0.  1.
</event>
<event>
 4    1  0.3664744E+003  0.2425674E+02  0.7546771E-02  0.1477293E+00
          2   -1    0    0  502    0  0.00000000000E+00  0.00000000000E+00  0.12726433792E+04  0.12726433792E+04  0.00000000000E+00 0.  1.
          1   -1    0    0  501    0 -0.00000000000E+00 -0.00000000000E+00 -0.70856543765E+00  0.70856543765E+00  0.00000000000E+00 0.  1.
          2    1    1    2  501    0 -0.24177337725E+02 -0.19610452217E+01  0.10112842997E+04  0.10115751698E+04  0.00000000000E+00 0.  1.
          1    1    1    2  502    0  0.24177337725E+02  0.19610452217E+01  0.26065051406E+03  0.26177677483E+03  0.00000000000E+00 0.  1.
</event>
<event>
 4    1  0.3664744E+003  0.2567928E+02  0.7546771E-02  0.1461346E+00
          2   -1    0    0  502    0  0.00000000000E+00  0.00000000000E+00  0.60872258241E+02  0.60872258241E+02  0.00000000000E+00 0. -1.
          1   -1    0    0  501    0 -0.00000000000E+00 -0.00000000000E+00 -0.16704127279E+02  0.16704127279E+02  0.00000000000E+00 0. -1.
          2    1    1    2  501    0 -0.24351669011E+02 -0.81499603319E+01  0.45079972630E+02  0.51880917198E+02  0.00000000000E+00 0. -1.
          1    1    1    2  502    0  0.24351669011E+02  0.81499603319E+01 -0.91184166824E+00  0.25695468322E+02  0.00000000000E+00 0. -1.
</event>
<event>
 4    1  0.3664744E+003  0.4299144E+02  0.7546771E-02  0.1331795E+00
          2   -1    0    0  502    0  0.00000000000E+00  0.00000000000E+00  0.20259696368E+03  0.20259696368E+03  0.00000000000E+00 0. -1.
          1   -1    0    0  501    0 -0.00000000000E+00 -0.00000000000E+00 -0.12870195543E+03  0.12870195543E+03  0.00000000000E+00 0. -1.
          2    1    1    2  501    0  0.19637536254E+02 -0.38244356773E+02  0.19661815044E+03  0.20126341133E+03  0.00000000000E+00 0. -1.
          1    1    1    2  502    0 -0.19637536254E+02  0.38244356773E+02 -0.12272314219E+03  0.13003550779E+03  0.00000000000E+00 0. -1.
</event>
<event>
 4    1  0.3664744E+003  0.2180168E+02  0.7546771E-02  0.1508120E+00
          2   -1    0    0  502    0  0.00000000000E+00  0.00000000000E+00  0.16369309580E+04  0.16369309580E+04  0.00000000000E+00 0.  1.
          1   -1    0    0  501    0 -0.00000000000E+00 -0.00000000000E+00 -0.12631636502E+01  0.12631636502E+01  0.00000000000E+00 0.  1.
          2    1    1    2  501    0 -0.42208136872E+01  0.21389203844E+02  0.15366474212E+04  0.15368020726E+04  0.00000000000E+00 0.  1.
          1    1    1    2  502    0  0.42208136872E+01 -0.21389203844E+02  0.99020373188E+02  0.10139204907E+03  0.00000000000E+00 0.  1.
</event>
<event>
 4    1  0.3664744E+003  0.3139714E+02  0.7546771E-02  0.1407832E+00
          2   -1    0    0  502    0  0.00000000000E+00  0.00000000000E+00  0.49062650405E+01  0.49062650405E+01  0.00000000000E+00 0.  1.
          1   -1    0    0  501    0 -0.00000000000E+00 -0.00000000000E+00 -0.39918829733E+03  0.39918829733E+03  0.00000000000E+00 0.  1.
          2    1    1    2  501    0 -0.12022109794E+02  0.29004297693E+02 -0.54748322802E+02  0.63112275020E+02  0.00000000000E+00 0.  1.
          1    1    1    2  502    0  0.12022109794E+02 -0.29004297693E+02 -0.33953370949E+03  0.34098228735E+03  0.00000000000E+00 0.  1.
</event>
<event>
 4    1  0.3664744E+003  0.2656693E+02  0.7546771E-02  0.1452008E+00
          2   -1    0    0  502    0  0.00000000000E+00  0.00000000000E+00  0.98942771978E+03  0.98942771978E+03  0.00000000000E+00 0. -1.
          1   -1    0    0  501    0 -0.00000000000E+00 -0.00000000000E+00 -0.11304096786E+01  0.11304096786E+01  0.00000000000E+00 0.  1.
          2    1    1    2  501    0  0.13829601112E+02  0.22683563474E+02  0.79498789188E+03  0.79543167536E+03  0.00000000000E+00 0. -1.
          1    1    1    2  502    0 -0.13829601112E+02 -0.22683563474E+02  0.19330941822E+03  0.19512645410E+03  0.00000000000E+00 0.  1.
</event>
<event>
 4    1  0.3664744E+003  0.6999144E+02  0.7546771E-02  0.1229208E+00
          2   -1    0    0  502    0  0.00000000000E+00  0.00000000000E+00  0.62925061501E+02  0.62925061501E+02  0.00000000000E+00 0. -1.
          1   -1    0    0  501    0 -0.00000000000E+00 -0.00000000000E+00 -0.25592385111E+03  0.25592385111E+03  0.00000000000E+00 0. -1.
          2    1    1    2  501    0 -0.51248050607E+02  0.47670104903E+02  0.36484173165E+02  0.78929693297E+02  0.00000000000E+00 0. -1.
          1    1    1    2  502    0  0.51248050607E+02 -0.47670104903E+02 -0.22948296278E+03  0.23991921932E+03  0.00000000000E+00 0. -1.
</event>
<event>
 4    1  0.3664744E+003  0.2143318E+02  0.7546771E-02  0.1513169E+00
          2   -1    0    0  502    0  0.00000000000E+00  0.00000000000E+00  0.26973226779E+02  0.26973226779E+02  0.00000000000E+00 0. -1.
          1   -1    0    0  501    0 -0.00000000000E+00 -0.00000000000E+00 -0.17985432837E+02  0.17985432837E+02  0.00000000000E+00 0. -1.
          2    1    1    2  501    0  0.65690196312E+01 -0.20401694953E+02  0.96722818786E+01  0.23514553209E+02  0.00000000000E+00 0. -1.
          1    1    1    2  502    0 -0.65690196312E+01  0.20401694953E+02 -0.68448793660E+00  0.21444106407E+02  0.00000000000E+00 0. -1.
</event>
<event>
 4    1  0.3664744E+003  0.2437316E+02  0.7546771E-02  0.1475939E+00
          2   -1    0    0  502    0  0.00000000000E+00  0.00000000000E+00  0.10176985520E+03  0.10176985520E+03  0.00000000000E+00 0.  1.
          1   -1    0    0  501    0 -0.00000000000E+00 -0.00000000000E+00 -0.10739031045E+03  0.10739031045E+03  0.00000000000E+00 0. -1.
          2    1    1    2  501    0  0.23085809955E+02 -0.78164079829E+01  0.98887921850E+02  0.10184729718E+03  0.00000000000E+00 0.  1.
          1    1    1    2  502    0 -0.23085809955E+02  0.78164079829E+01 -0.10450837710E+03  0.10731286847E+03  0.00000000000E+00 0. -1.
</event>
<event>
 4    1  0.3664744E+003  0.3099003E+02  0.7546771E-02  0.1411184E+00
          2   -1    0    0  502    0  0.00000000000E+00  0.00000000000E+00  0.36385536667E+02  0.36385536667E+02  0.00000000000E+00 0.  1.
          1   -1    0    0  501    0 -0.00000000000E+00 -0.00000000000E+00 -0.56847638273E+03  0.56847638273E+03  0.00000000000E+00 0. -1.
          2    1    1    2  501    0  0.60215881554E+01  0.30399377612E+02  0.29281091994E+02  0.42635244006E+02  0.00000000000E+00 0.  1.
          1    1    1    2  502    0 -0.60215881554E+01 -0.30399377612E+02 -0.56137193805E+03  0.56222667539E+03  0.00000000000E+00 0. -1.
</event>
<event>
 4    1  0.3664744E+003  0.2548923E+02  0.7546771E-02  0.1463404E+00
          2   -1    0    0  502    0  0.00000000000E+00  0.00000000000E+00  0.12086745211E+04  0.12086745211E+04  0.00000000000E+00 0. -1.
          1   -1    0    0  501    0 -0.00000000000E+00 -0.00000000000E+00 -0.11873189974E+01  0.11873189974E+01  0.00000000000E+00 0.  1.
          2    1    1    2  501    0 -0.14463062433E+02  0.20988578971E+02  0.10512587611E+04  0.10515677265E+04  0.00000000000E+00 0. -1.
          1    1    1    2  502    0  0.14463062433E+02 -0.20988578971E+02  0.15622844099E+03  0.15829411359E+03  0.00000000000E+00 0.  1.
</event>
<event>
 4    1  0.3664744E+003  0.3291608E+02  0.7546771E-02  0.1395837E+00
          2   -1    0    0  502    0  0.00000000000E+00  0.00000000000E+00  0.45580464570E+01  0.45580464570E+01  0.00000000000E+00 0. -1.
          1   -1    0    0  501    0 -0.00000000000E+00 -0.00000000000E+00 -0.32506671593E+03  0.32506671593E+03  0.00000000000E+00 0. -1.
          2    1    1    2  501    0 -0.32020051967E+02  0.76278852198E+01 -0.74813537888E+02  0.81734532556E+02  0.00000000000E+00 0. -1.
          1    1    1    2  502    0  0.32020051967E+02 -0.76278852198E+01 -0.24569513158E+03  0.24789022983E+03  0.00000000000E+00 0. -1.
</event>
<event>
 4    1  0.3664744E+003  0.3332068E+02  0.7546771E-02  0.1392770E+00
          2   -1    0    0  502    0  0.00000000000E+00  0.00000000000E+00  0.36843122890E+03  0.36843122890E+03  0.00000000000E+00 0.  1.
          1   -1    0    0  501    0 -0.00000000000E+00 -0.00000000000E+00 -0.54531088132E+01  0.54531088132E+01  0.00000000000E+00 0.  1.
          2    1    1    2  501    0 -0.32394721454E+02  0.78006235624E+01  0.30652798873E+03  0.30833370814E+03  0.00000000000E+00 0.  1.
          1    1    1    2  502    0  0.32394721454E+02 -0.78006235624E+01  0.56450131357E+02  0.65550629564E+02  0.00000000000E+00 0.  1.
</event>
<event>
 4    1  0.3664744E+003  0.2344226E+02  0.7546771E-02  0.1487018E+00
          2   -1    0    0  502    0  0.00000000000E+00  0.00000000000E+00  0.55091110405E+02  0.55091110405E+02  0.00000000000E+00 0.  1.
          1   -1    0    0  501    0 -0.00000000000E+00 -0.00000000000E+00 -0.63719820424E+02  0.63719820424E+02  0.00000000000E+00 0. -1.
          2    1    1    2  501    0 -0.89412252110E+01 -0.21670114729E+02  0.50243467907E+02  0.55443173141E+02  0.00000000000E+00 0.  1.
          1    1    1    2  502    0  0.89412252110E+01  0.21670114729E+02 -0.58872177926E+02  0.63367757688E+02  0.00000000000E+00 0. -1.
</event>
<event>
 4    1  0.3664744E+003  0.2198228E+02  0.7546771E-02  0.1505689E+00
          2   -1    0    0  502    0  0.00000000000E+00  0.00000000000E+00  0.96901981759E+00  0.96901981759E+00  0.00000000000E+00 0.  1.
          1   -1    0    0  501    0 -0.00000000000E+00 -0.00000000000E+00 -0.50327639202E+03  0.50327639202E+03  0.00000000000E+00 0.  1.
          2    1    1    2  501    0 -0.77307074035E+01 -0.20578069549E+02 -0.22703214016E+03  0.22809386982E+03  0.00000000000E+00 0.  1.
          1    1    1    2  502    0  0.77307074035E+01  0.20578069549E+02 -0.27527523204E+03  0.27615154202E+03  0.00000000000E+00 0.  1.
</event>
<event>
 4    1  0.3664744E+003  0.2366341E+02  0.7546771E-02  0.1484332E+00
          2   -1    0    0  502    0  0.00000000000E+00  0.00000000000E+00  0.68880821213E+02  0.68880821213E+02  0.00000000000E+00 0.  1.
          1   -1    0    0  501    0 -0.00000000000E+00 -0.00000000000E+00 -0.99014055954E+01  0.99014055954E+01  0.00000000000E+00 0. -1.
          2    1    1    2  501    0 -0.10730737878E+02 -0.21090480083E+02  0.46154009210E+02  0.51866652598E+02  0.00000000000E+00 0.  1.
          1    1    1    2  502    0  0.10730737878E+02  0.21090480083E+02  0.12825406408E+02  0.26915574211E+02  0.00000000000E+00 0. -1.
</event>
<event>
 4    1  0.3664744E+003  0.2067614E+02  0.7546771E-02  0.1523939E+00
          2   -1    0    0  502    0  0.00000000000E+00  0.00000000000E+00  0.10253158580E+03  0.10253158580E+03  0.00000000000E+00 0.  1.
          1   -1    0    0  501    0 -0.00000000000E+00 -0.00000000000E+00 -0.42277776739E+01  0.42277776739E+01  0.00000000000E+00 0.  1.
          2    1    1    2  501    0 -0.71892398996E+01 -0.19386012914E+02  0.55420525104E+02  0.59151815440E+02  0.00000000000E+00 0.  1.
          1    1    1    2  502    0  0.71892398996E+01  0.19386012914E+02  0.42883283018E+02  0.47607548030E+02  0.00000000000E+00 0.  1.
</event>
<event>
 4    1  0.3664744E+003  0.2720157E+02  0.7546771E-02  0.1445594E+00
          2   -1    0    0  502    0  0.00000000000E+00  0.00000000000E+00  0.13050522827E+01  0.13050522827E+01  0.00000000000E+00 0. -1.
          1   -1    0    0  501    0 -0.00000000000E+00 -0.00000000000E+00 -0.81181428085E+03  0.81181428085E+03  0.00000000000E+00 0. -1.
          2    1    1    2  501    0  0.17504246772E+02  0.20821311845E+02 -0.18197925262E+03  0.18400101648E+03  0.00000000000E+00 0. -1.
          1    1    1    2  502    0 -0.17504246772E+02 -0.20821311845E+02 -0.62852997595E+03  0.62911831665E+03  0.00000000000E+00 0. -1.
</event>
<event>
 4    1  0.3664744E+003  0.2127726E+02  0.7546771E-02  0.1515343E+00
          2   -1    0    0  502    0  0.00000000000E+00  0.00000000000E+00  0.11246315992E+04  0.11246315992E+04  0.00000000000E+00 0. -1.
          1   -1    0    0  501    0 -0.00000000000E+00 -0.00000000000E+00 -0.15919321217E+03  0.15919321217E+03  0.00000000000E+00 0. -1.
          2    1    1    2  501    0 -0.21263015421E+02  0.77832237789E+00  0.11238194852E+04  0.11240208882E+04  0.00000000000E+00 0. -1.
          1    1    1    2  502    0  0.21263015421E+02 -0.77832237789E+00 -0.15838109820E+03  0.15980392322E+03  0.00000000000E+00 0. -1.
</event>
<event>
 4    1  0.3664744E+003  0.2589789E+02  0.7546771E-02  0.1459004E+00
          2   -1    0    0  502    0  0.00000000000E+00  0.00000000000E+00  0.83360324849E+01  0.83360324849E+01  0.00000000000E+00 0.  1.
          1   -1    0    0  501    0 -0.00000000000E+00 -0.00000000000E+00 -0.12969457947E+03  0.12969457947E+03  0.00000000000E+00 0. -1.
          2    1    1    2  501    0 -0.18868075555E+01  0.25829067235E+02 -0.18155841621E+02  0.31628078379E+02  0.00000000000E+00 0.  1.
          1    1    1    2  502    0  0.18868075555E+01 -0.25829067235E+02 -0.10320270536E+03  0.10640253357E+03  0.00000000000E+00 0. -1.
</event>
<event>
 4    1  0.3664744E+003  0.2239357E+02  0.7546771E-02  0.1500257E+00
          2   -1    0    0  502    0  0.00000000000E+00  0.00000000000E+00  0.39258135092E+02  0.39258135092E+02  0.00000000000E+00 0.  1.
          1   -1    0    0  501    0 -0.00000000000E+00 -0.00000000000E+00 -0.89461391314E+03  0.89461391314E+03  0.00000000000E+00 0. -1.
          2    1    1    2  501    0  0.22363102380E+02  0.11676802896E+01  0.35912587282E+02  0.42322402467E+02  0.00000000000E+00 0.  1.
          1    1    1    2  502    0 -0.22363102380E+02 -0.11676802896E+01 -0.89126836533E+03  0.89154964577E+03  0.00000000000E+00 0. -1.
</event>
<event>
 4    1  0.3664744E+003  0.2004155E+02  0.7546771E-02  0.1533402E+00
          2   -1    0    0  502    0  0.00000000000E+00  0.00000000000E+00  0.45680644622E+03  0.45680644622E+03  0.00000000000E+00 0.  1.
          1   -1    0    0  501    0 -0.00000000000E+00 -0.00000000000E+00 -0.12473806132E+03  0.12473806132E+03  0.00000000000E+00 0. -1.
          2    1    1    2  501    0  0.53299409772E+01  0.19319815449E+02  0.45577979829E+03  0.45622021883E+03  0.00000000000E+00 0.  1.
          1    1    1    2  502    0 -0.53299409772E+01 -0.19319815449E+02 -0.12371141338E+03  0.12532428871E+03  0.00000000000E+00 0. -1.
</event>
<event>
 4    1  0.3664744E+003  0.3040794E+02  0.7546771E-02  0.1416084E+00
          2   -1    0    0  502    0  0.00000000000E+00  0.00000000000E+00  0.39929667013E+02  0.39929667013E+02  0.00000000000E+00 0.  1.
          1   -1    0    0  501    0 -0.00000000000E+00 -0.00000000000E+00 -0.15914450518E+03  0.15914450518E+03  0.00000000000E+00 0.  1.
          2    1    1    2  501    0  0.13945836975E+02  0.27021403113E+02  0.32403411251E+02  0.44436737682E+02  0.00000000000E+00 0.  1.
          1    1    1    2  502    0 -0.13945836975E+02 -0.27021403113E+02 -0.15161824942E+03  0.15463743451E+03  0.00000000000E+00 0.  1.
</event>
<event>
 4    1  0.3664744E+003  0.3841565E+02  0.7546771E-02  0.1358029E+00
          2   -1    0    0  502    0  0.00000000000E+00  0.00000000000E+00  0.54480413584E+01  0.54480413584E+01  0.00000000000E+00 0.  1.
          1   -1    0    0  501    0 -0.00000000000E+00 -0.00000000000E+00 -0.65281161647E+03  0.65281161647E+03  0.00000000000E+00 0. -1.
          2    1    1    2  501    0  0.37759849856E+02  0.70679268716E+01 -0.71933521844E+02  0.81548718055E+02  0.00000000000E+00 0.  1.
          1    1    1    2  502    0 -0.37759849856E+02 -0.70679268716E+01 -0.57543005327E+03  0.57671093977E+03  0.00000000000E+00 0. -1.
</event>
<event>
 4    1  0.3664744E+003  0.2044975E+02  0.7546771E-02  0.1527268E+00
          2   -1    0    0  502    0  0.00000000000E+00  0.00000000000E+00  0.13981557272E+04  0.13981557272E+04  0.00000000000E+00 0.  1.
          1   -1    0    0  501    0 -0.00000000000E+00 -0.00000000000E+00 -0.78837147102E+00  0.78837147102E+00  0.00000000000E+00 0. -1.
          2    1    1    2  501    0  0.20180499272E+02 -0.33075397122E+01  0.12497179289E+04  0.12498852324E+04  0.00000000000E+00 0.  1.
          1    1    1    2  502    0 -0.20180499272E+02  0.33075397122E+01  0.14764942690E+03  0.14905886633E+03  0.00000000000E+00 0. -1.
</event>
<event>
 4    1  0.3664744E+003  0.2593703E+02  0.7546771E-02  0.1458588E+00
          2   -1    0    0  502    0  0.00000000000E+00  0.00000000000E+00  0.14787756200E+03  0.14787756200E+03  0.00000000000E+00 0.  1.
          1   -1    0    0  501    0 -0.00000000000E+00 -0.00000000000E+00 -0.24836986898E+02  0.24836986898E+02  0.00000000000E+00 0.  1.
          2    1    1    2  501    0  0.13488142307E+02  0.22154000015E+02  0.13956912550E+03  0.14195869290E+03  0.00000000000E+00 0.  1.
          1    1    1    2  502    0 -0.13488142307E+02 -0.22154000015E+02 -0.16528550395E+02  0.30755855991E+02  0.00000000000E+00 0.  1.
</event>
<event>
 4    1  0.3664744E+003  0.2462981E+02  0.7546771E-02  0.1472987E+00
          2   -1    0    0  502    0  0.00000000000E+00  0.00000000000E+00  0.65824369045E+00  0.65824369045E+00  0.00000000000E+00 0. -1.
          1   -1    0    0  501    0 -0.00000000000E+00 -0.00000000000E+00 -0.10982612008E+04  0.10982612008E+04  0.00000000000E+00 0.  1.
          2    1    1    2  501    0  0.74541796849E+01 -0.23474730576E+02 -0.32842178028E+03  0.32934403521E+03  0.00000000000E+00 0. -1.
          1    1    1    2  502    0 -0.74541796849E+01  0.23474730576E+02 -0.76918117688E+03  0.76957540933E+03  0.00000000000E+00 0.  1.
</event>
<event>
 4    1  0.3664744E+003  0.2289131E+02  0.7546771E-02  0.1493868E+00
          2   -1    0    0  502    0  0.00000000000E+00  0.00000000000E+00  0.10031013673E+04  0.10031013673E+04  0.00000000000E+00 0.  1.
          1   -1    0    0  501    0 -0.00000000000E+00 -0.00000000000E+00 -0.89710068093E+02  0.89710068093E+02  0.00000000000E+00 0. -1.
          2    1    1    2  501    0 -0.21683291324E+02 -0.73380388602E+01  0.10015081536E+04  0.10017697308E+04  0.00000000000E+00 0.  1.
          1    1    1    2  502    0  0.21683291324E+02  0.73380388602E+01 -0.88116854392E+02  0.91041704536E+02  0.00000000000E+00 0. -1.
</event>
<event>
 4    1  0.3664744E+003  0.2314036E+02  0.7546771E-02  0.1490743E+00
          2   -1    0    0  502    0  0.00000000000E+00  0.00000000000E+00  0.25007752045E+03  0.25007752045E+03  0.00000000000E+00 0.  1.
          1   -1    0    0  501    0 -0.00000000000E+00 -0.00000000000E+00 -0.18293121807E+03  0.18293121807E+03  0.00000000000E+00 0. -1.
          2    1    1    2  501    0  0.21011329778E+02  0.96953777347E+01  0.24880668023E+03  0.24988045232E+03  0.00000000000E+00 0.  1.
          1    1    1    2  502    0 -0.21011329778E+02 -0.96953777347E+01 -0.18166037785E+03  0.18312828620E+03  0.00000000000E+00 0. -1.
</event>
<event>
 4    1  0.3664744E+003  0.3814514E+02  0.7546771E-02  0.1359712E+00
          2   -1    0    0  502    0  0.00000000000E+00  0.00000000000E+00  0.55832435188E+03  0.55832435188E+03  0.00000000000E+00 0. -1.
          1   -1    0    0  501    0 -0.00000000000E+00 -0.00000000000E+00 -0.93980658571E+01  0.93980658571E+01  0.00000000000E+00 0. -1.
          2    1    1    2  501    0 -0.20712808948E+02  0.32031724413E+02  0.51577818657E+03  0.51718680336E+03  0.00000000000E+00 0. -1.
          1    1    1    2  502    0  0.20712808948E+02 -0.32031724413E+02  0.33148099446E+02  0.50535614375E+02  0.00000000000E+00 0. -1.
</event>
<event>
 4    1  0.3664744E+003  0.2657963E+02  0.7546771E-02  0.1451877E+00
          2   -1    0    0  502    0  0.00000000000E+00  0.00000000000E+00  0.62424497482E+02  0.62424497482E+02  0.00000000000E+00 0. -1.
          1   -1    0    0  501    0 -0.00000000000E+00 -0.00000000000E+00 -0.33581407953E+03  0.33581407953E+03  0.00000000000E+00 0. -1.
          2    1    1    2  501    0  0.23959656695E+02  0.11507020503E+02  0.59040473892E+02  0.64747619471E+02  0.00000000000E+00 0. -1.
          1    1    1    2  502    0 -0.23959656695E+02 -0.11507020503E+02 -0.33243005594E+03  0.33349095754E+03  0.00000000000E+00 0. -1.
</event>
<event>
 4    1  0.3664744E+003  0.2195372E+02  0.7546771E-02  0.1506071E+00
          2   -1    0    0  502    0  0.00000000000E+00  0.00000000000E+00  0.79774206257E+03  0.79774206257E+03  0.00000000000E+00 0.  1.
          1   -1    0    0  501    0 -0.00000000000E+00 -0.00000000000E+00 -0.13077479647E+03  0.13077479647E+03  0.00000000000E+00 0. -1.
          2    1    1    2  501    0  0.20487854755E+02 -0.78875634153E+01  0.79666841440E+03  0.79697084535E+03  0.00000000000E+00 0.  1.
          1    1    1    2  502    0 -0.20487854755E+02  0.78875634153E+01 -0.12970114829E+03  0.13154601369E+03  0.00000000000E+00 0. -1.
</event>
<event>
 4    1  0.4461884E+003  0.2334689E+02  0.7546771E-02  0.1488188E+00
          2   -1    0    0  502    0  0.00000000000E+00  0.00000000000E+00  0.92455410861E+03  0.92455410861E+03  0.00000000000E+00 0. -1.
          1   -1    0    0  501    0 -0.00000000000E+00 -0.00000000000E+00 -0.54550593550E+03  0.54550593550E+03  0.00000000000E+00 0. -1.
          2    1    1    2  501    0  0.52451135142E+01 -0.22750080943E+02  0.92415680836E+03  0.92445166658E+03  0.00000000000E+00 0. -1.
          1    1    1    2  502    0 -0.52451135142E+01  0.22750080943E+02 -0.54510863526E+03  0.54560837753E+03  0.00000000000E+00 0. -1.
</event>
<event>
 4    1  0.3664744E+003  0.2002559E+02  0.7546771E-02  0.1533645E+00
          2   -1    0    0  502    0  0.00000000000E+00  0.00000000000E+00  0.51248919742E+01  0.51248919742E+01  0.00000000000E+00 0. -1.
          1   -1    0    0  501    0 -0.00000000000E+00 -0.00000000000E+00 -0.11715799882E+03  0.11715799882E+03  0.00000000000E+00 0.  1.
          2    1    1    2  501    0 -0.22759358308E+01  0.19895836105E+02 -0.20782089220E+02  0.28860343217E+02  0.00000000000E+00 0. -1.
          1    1    1    2  502    0  0.22759358308E+01 -0.19895836105E+02 -0.91251017628E+02  0.93422547580E+02  0.00000000000E+00 0.  1.
</event>
<event>
 4    1  0.3664744E+003  0.4679505E+02  0.7546771E-02  0.1312700E+00
          2   -1    0    0  502    0  0.00000000000E+00  0.00000000000E+00  0.36535846866E+02  0.36535846866E+02  0.00000000000E+00 0. -1.
          1   -1    0    0  501    0 -0.00000000000E+00 -0.00000000000E+00 -0.79803936730E+02  0.79803936730E+02  0.00000000000E+00 0. -1.
          2    1    1    2  501    0 -0.46658902566E+02  0.35670548294E+01  0.73910124127E+01  0.47375142567E+02  0.00000000000E+00 0. -1.
          1    1    1    2  502    0  0.46658902566E+02 -0.35670548294E+01 -0.50659102276E+02  0.68964641029E+02  0.00000000000E+00 0. -1.
</event>
<event>
 4    1  0.3664744E+003  0.3355829E+02  0.7546771E-02  0.1390992E+00
          2   -1    0    0  502    0  0.00000000000E+00  0.00000000000E+00  0.24056416880E+04  0.24056416880E+04  0.00000000000E+00 0. -1.
          1   -1    0    0  501    0 -0.00000000000E+00 -0.00000000000E+00 -0.20629360921E+01  0.20629360921E+01  0.00000000000E+00 0.  1.
          2    1    1    2  501    0  0.25013792023E+02 -0.22371166727E+02  0.22602724947E+04  0.22605216012E+04  0.00000000000E+00 0. -1.
          1    1    1    2  502    0 -0.25013792023E+02  0.22371166727E+02  0.14330625717E+03  0.14718302292E+03  0.00000000000E+00 0.  1.
</event>
<event>
 4    1  0.3664744E+003  0.2164281E+02  0.7546771E-02  0.1510282E+00
          2   -1    0    0  502    0  0.00000000000E+00  0.00000000000E+00  0.50824351853E+01  0.50824351853E+01  0.00000000000E+00 0. -1.
          1   -1    0    0  501    0 -0.00000000000E+00 -0.00000000000E+00 -0.10939891382E+03  0.10939891382E+03  0.00000000000E+00 0. -1.
          2    1    1    2  501    0  0.21131442970E+02  0.46768899139E+01 -0.29437701936E+02  0.36537507804E+02  0.00000000000E+00 0. -1.
          1    1    1    2  502    0 -0.21131442970E+02 -0.46768899139E+01 -0.74878776699E+02  0.77943841201E+02  0.00000000000E+00 0. -1.
</event>
<event>
 4    1  0.3664744E+003  0.2076201E+02  0.7546771E-02  0.1522690E+00
          2   -1    0    0  502    0  0.00000000000E+00  0.00000000000E+00  0.76072187622E+03  0.76072187622E+03  0.00000000000E+00 0. -1.
          1   -1    0    0  501    0 -0.00000000000E+00 -0.00000000000E+00 -0.15997377554E+01  0.15997377554E+01  0.00000000000E+00 0.  1.
          2    1    1    2  501    0  0.17400146670E+02 -0.11326773126E+02  0.68586533397E+03  0.68617950803E+03  0.00000000000E+00 0. -1.
          1    1    1    2  502    0 -0.17400146670E+02  0.11326773126E+02  0.73256804490E+02  0.76142105945E+02  0.00000000000E+00 0.  1.
</event>
<event>
 4    1  0.3664744E+003  0.2985634E+02  0.7546771E-02  0.1420849E+00
          2   -1    0    0  502    0  0.00000000000E+00  0.00000000000E+00  0.87507365307E+03  0.87507365307E+03  0.00000000000E+00 0.  1.
          1   -1    0    0  501    0 -0.00000000000E+00 -0.00000000000E+00 -0.16985676781E+01  0.16985676781E+01  0.00000000000E+00 0.  1.
          2    1    1    2  501    0 -0.12072178689E+02 -0.27306840905E+02  0.71404565113E+03  0.71466956907E+03  0.00000000000E+00 0.  1.
          1    1    1    2  502    0  0.12072178689E+02  0.27306840905E+02  0.15932943426E+03  0.16210265168E+03  0.00000000000E+00 0.  1.
</event>
<event>
 4    1  0.5815336E+003  0.2591340E+02  0.7546771E-02  0.1458839E+00
          2   -1    0    0  502    0  0.00000000000E+00  0.00000000000E+00  0.14503895642E+04  0.14503895642E+04  0.00000000000E+00 0. -1.
          1   -1    0    0  501    0 -0.00000000000E+00 -0.00000000000E+00 -0.64491368650E+03  0.64491368650E+03  0.00000000000E+00 0. -1.
          2    1    1    2  501    0 -0.19158432788E+02  0.17448747576E+02  0.14500134433E+04  0.14502449759E+04  0.00000000000E+00 0. -1.
          1    1    1    2  502    0  0.19158432788E+02 -0.17448747576E+02 -0.64453756563E+03  0.64505827477E+03  0.00000000000E+00 0. -1.
</event>
<event>
 4    1  0.3664744E+003  0.2230116E+02  0.7546771E-02  0.1501465E+00
          2   -1    0    0  502    0  0.00000000000E+00  0.00000000000E+00  0.12135677565E+03  0.12135677565E+03  0.00000000000E+00 0.  1.
          1   -1    0    0  501    0 -0.00000000000E+00 -0.00000000000E+00 -0.40983700103E+01  0.40983700103E+01  0.00000000000E+00 0. -1.
          2    1    1    2  501    0 -0.21653102437E+02  0.53370695849E+01  0.58195165169E+02  0.62321893472E+02  0.00000000000E+00 0.  1.
          1    1    1    2  502    0  0.21653102437E+02 -0.53370695849E+01  0.59063240466E+02  0.63133252184E+02  0.00000000000E+00 0. -1.
</event>
<event>
 4    1  0.3664744E+003  0.2184895E+02  0.7546771E-02  0.1507481E+00
          2   -1    0    0  502    0  0.00000000000E+00  0.00000000000E+00  0.35438603166E+03  0.35438603166E+03  0.00000000000E+00 0.  1.
          1   -1    0    0  501    0 -0.00000000000E+00 -0.00000000000E+00 -0.74468759241E+02  0.74468759241E+02  0.00000000000E+00 0. -1.
          2    1    1    2  501    0  0.14535050143E+02 -0.16312846962E+02  0.35243781089E+03  0.35311441093E+03  0.00000000000E+00 0.  1.
          1    1    1    2  502    0 -0.14535050143E+02  0.16312846962E+02 -0.72520538471E+02  0.75740379975E+02  0.00000000000E+00 0. -1.
</event>
<event>
 4    1  0.3664744E+003  0.2698797E+02  0.7546771E-02  0.1447729E+00
          2   -1    0    0  502    0  0.00000000000E+00  0.00000000000E+00  0.29598411031E+01  0.29598411031E+01  0.00000000000E+00 0. -1.
          1   -1    0    0  501    0 -0.00000000000E+00 -0.00000000000E+00 -0.71571441063E+03  0.71571441063E+03  0.00000000000E+00 0.  1.
          2    1    1    2  501    0 -0.26451330008E+02 -0.53551311003E+01 -0.65296644241E+02  0.70654101349E+02  0.00000000000E+00 0. -1.
          1    1    1    2  502    0  0.26451330008E+02  0.53551311003E+01 -0.64745792529E+03  0.64802015039E+03  0.00000000000E+00 0.  1.
</event>
<event>
 4    1  0.3664744E+003  0.2005825E+02  0.7546771E-02  0.1533147E+00
          2   -1    0    0  502    0  0.00000000000E+00  0.00000000000E+00  0.33283737720E+03  0.33283737720E+03  0.00000000000E+00 0.  1.
          1   -1    0    0  501    0 -0.00000000000E+00 -0.00000000000E+00 -0.82906585890E+01  0.82906585890E+01  0.00000000000E+00 0.  1.
          2    1    1    2  501    0 -0.19696575941E+02 -0.37918754353E+01  0.31991340943E+03  0.32054160878E+03  0.00000000000E+00 0.  1.
          1    1    1    2  502    0  0.19696575941E+02  0.37918754353E+01  0.46333091774E+01  0.20586427010E+02  0.00000000000E+00 0.  1.
</event>
<event>
 4    1  0.3664744E+003  0.2054806E+02  0.7546771E-02  0.1525816E+00
          2   -1    0    0  502    0  0.00000000000E+00  0.00000000000E+00  0.25982643041E+03  0.25982643041E+03  0.00000000000E+00 0. -1.
          1   -1    0    0  501    0 -0.00000000000E+00 -0.00000000000E+00 -0.14821395897E+02  0.14821395897E+02  0.00000000000E+00 0. -1.
          2    1    1    2  501    0 -0.11718415752E+02  0.16879021020E+02  0.25207983592E+03  0.25291592733E+03  0.00000000000E+00 0. -1.
          1    1    1    2  502    0  0.11718415752E+02 -0.16879021020E+02 -0.70748014072E+01  0.21731898980E+02  0.00000000000E+00 0. -1.
</event>
<event>
 4    1  0.3664744E+003  0.2381246E+02  0.7546771E-02  0.1482540E+00
          2   -1    0    0  502    0  0.00000000000E+00  0.00000000000E+00  0.25748072537E+02  0.25748072537E+02  0.00000000000E+00 0. -1.
          1   -1    0    0  501    0 -0.00000000000E+00 -0.00000000000E+00 -0.98160841075E+02  0.98160841075E+02  0.00000000000E+00 0. -1.
          2    1    1    2  501    0 -0.22434261352E+02  0.79835516815E+01  0.18357532560E+02  0.30067127924E+02  0.00000000000E+00 0. -1.
          1    1    1    2  502    0  0.22434261352E+02 -0.79835516815E+01 -0.90770301098E+02  0.93841785689E+02  0.00000000000E+00 0. -1.
</event>
<event>
 4    1  0.3664744E+003  0.3112971E+02  0.7546771E-02  0.1410027E+00
          2   -1    0    0  502    0  0.00000000000E+00  0.00000000000E+00  0.68370338519E+03  0.68370338519E+03  0.00000000000E+00 0.  1.
          1   -1    0    0  501    0 -0.00000000000E+00 -0.00000000000E+00 -0.49062950352E+02  0.49062950352E+02  0.00000000000E+00 0. -1.
          2    1    1    2  501    0  0.27342850381E+02 -0.14880444122E+02  0.67837242455E+03  0.67908630193E+03  0.00000000000E+00 0.  1.
          1    1    1    2  502    0 -0.27342850381E+02  0.14880444122E+02 -0.43731989710E+02  0.53680033609E+02  0.00000000000E+00 0. -1.
</event>
<event>
 4    1  0.3664744E+003  0.2191105E+02  0.7546771E-02  0.1506644E+00
          2   -1    0    0  502    0  0.00000000000E+00  0.00000000000E+00  0.52595249349E+01  0.52595249349E+01  0.00000000000E+00 0.  1.
          1   -1    0    0  501    0 -0.00000000000E+00 -0.00000000000E+00 -0.50753216141E+03  0.50753216141E+03  0.00000000000E+00 0.  1.
          2    1    1    2  501    0 -0.19051633657E+02 -0.10822623372E+02 -0.18939105714E+02  0.28961761805E+02  0.00000000000E+00 0.  1.
          1    1    1    2  502    0  0.19051633657E+02  0.10822623372E+02 -0.48333353076E+03  0.48382992454E+03  0.00000000000E+00 0.  1.
</event>
<event>
 4    1  0.3664744E+003  0.4213086E+02  0.7546771E-02  0.1336432E+00
          2   -1    0    0  502    0  0.00000000000E+00  0.00000000000E+00  0.41553806782E+02  0.41553806782E+02  0.00000000000E+00 0. -1.
          1   -1    0    0  501    0 -0.00000000000E+00 -0.00000000000E+00 -0.90293520324E+03  0.90293520324E+03  0.00000000000E+00 0. -1.
          2    1    1    2  501    0 -0.28138928314E+02 -0.31356186751E+02  0.30248034472E+02  0.51864759940E+02  0.00000000000E+00 0. -1.
          1    1    1    2  502    0  0.28138928314E+02  0.31356186751E+02 -0.89162943093E+03  0.89262425008E+03  0.00000000000E+00 0. -1.
</event>
<event>
 4    1  0.3664744E+003  0.2333133E+02  0.7546771E-02  0.1488379E+00
          2   -1    0    0  502    0  0.00000000000E+00  0.00000000000E+00  0.25656754273E+03  0.25656754273E+03  0.00000000000E+00 0. -1.
          1   -1    0    0  501    0 -0.00000000000E+00 -0.00000000000E+00 -0.21420584617E+01  0.21420584617E+01  0.00000000000E+00 0. -1.
          2    1    1    2  501    0  0.18019239254E+01  0.23261634769E+02  0.11459145056E+03  0.11694251204E+03  0.00000000000E+00 0. -1.
          1    1    1    2  502    0 -0.18019239254E+01 -0.23261634769E+02  0.13983403371E+03  0.14176708915E+03  0.00000000000E+00 0. -1.
</event>
<event>
 4    1  0.3664744E+003  0.2829345E+02  0.7546771E-02  0.1435031E+00
          2   -1    0    0  502    0  0.00000000000E+00  0.00000000000E+00  0.81299202796E+03  0.81299202796E+03  0.00000000000E+00 0.  1.
          1   -1    0    0  501    0 -0.00000000000E+00 -0.00000000000E+00 -0.13382429166E+02  0.13382429166E+02  0.00000000000E+00 0.  1.
          2    1    1    2  501    0 -0.46186438303E+01  0.27913928838E+02  0.79750079350E+03  0.79800252815E+03  0.00000000000E+00 0.  1.
          1    1    1    2  502    0  0.46186438303E+01 -0.27913928838E+02  0.21088052883E+01  0.28371928975E+02  0.00000000000E+00 0.  1.
</event>
<event>
 4    1  0.3664744E+003  0.2628885E+02  0.7546771E-02  0.1454886E+00
          2   -1    0    0  502    0  0.00000000000E+00  0.00000000000E+00  0.13560553156E+03  0.13560553156E+03  0.00000000000E+00 0. -1.
          1   -1    0    0  501    0 -0.00000000000E+00 -0.00000000000E+00 -0.25658769237E+03  0.25658769237E+03  0.00000000000E+00 0.  1.
          2    1    1    2  501    0 -0.56310805235E+01 -0.25678674298E+02  0.13364829801E+03  0.13620929095E+03  0.00000000000E+00 0. -1.
          1    1    1    2  502    0  0.56310805235E+01  0.25678674298E+02 -0.25463045882E+03  0.25598393297E+03  0.00000000000E+00 0.  1.
</event>
<event>
 4    1  0.3664744E+003  0.2152980E+02  0.7546771E-02  0.1511833E+00
          2   -1    0    0  502    0  0.00000000000E+00  0.00000000000E+00  0.71575609624E+03  0.71575609624E+03  0.00000000000E+00 0. -1.
          1   -1    0    0  501    0 -0.00000000000E+00 -0.00000000000E+00 -0.21353825817E+02  0.21353825817E+02  0.00000000000E+00 0.  1.
          2    1    1    2  501    0 -0.15137953288E+02 -0.15309302984E+02  0.71012435778E+03  0.71045065691E+03  0.00000000000E+00 0. -1.
          1    1    1    2  502    0  0.15137953288E+02  0.15309302984E+02 -0.15722087356E+02  0.26659265152E+02  0.00000000000E+00 0.  1.
</event>
<event>
 4    1  0.3664744E+003  0.2173506E+02  0.7546771E-02  0.1509024E+00
          2   -1    0    0  502    0  0.00000000000E+00  0.00000000000E+00  0.25466172034E+03  0.25466172034E+03  0.00000000000E+00 0.  1.
          1   -1    0    0  501    0 -0.00000000000E+00 -0.00000000000E+00 -0.18643739984E+01  0.18643739984E+01  0.00000000000E+00 0.  1.
          2    1    1    2  501    0 -0.36201176636E+01 -0.21431463925E+02  0.13546416754E+03  0.13719676958E+03  0.00000000000E+00 0.  1.
          1    1    1    2  502    0  0.36201176636E+01  0.21431463925E+02  0.11733317881E+03  0.11932932475E+03  0.00000000000E+00 0.  1.
</event>
<event>
 4    1  0.3664744E+003  0.2318510E+02  0.7546771E-02  0.1490187E+00
          2   -1    0    0  502    0  0.00000000000E+00  0.00000000000E+00  0.65714111079E+03  0.65714111079E+03  0.00000000000E+00 0. -1.
          1   -1    0    0  501    0 -0.00000000000E+00 -0.00000000000E+00 -0.14224762339E+01  0.14224762339E+01  0.00000000000E+00 0.  1.
          2    1    1    2  501    0 -0.28243225119E+01 -0.23012433753E+02  0.54250924038E+03  0.54300444271E+03  0.00000000000E+00 0. -1.
          1    1    1    2  502    0  0.28243225119E+01  0.23012433753E+02  0.11320939418E+03  0.11555914432E+03  0.00000000000E+00 0.  1.
</event>
<event>
 4    1  0.3664744E+003  0.2113392E+02  0.7546771E-02  0.1517361E+00
          2   -1    0    0  502    0  0.00000000000E+00  0.00000000000E+00  0.21811471281E+03  0.21811471281E+03  0.00000000000E+00 0. -1.
          1   -1    0    0  501    0 -0.00000000000E+00 -0.00000000000E+00 -0.21781652000E+01  0.21781652000E+01  0.00000000000E+00 0. -1.
          2    1    1    2  501    0 -0.99198245538E+01 -0.18661165444E+02  0.81015256507E+02  0.83726422363E+02  0.00000000000E+00 0. -1.
          1    1    1    2  502    0  0.99198245538E+01  0.18661165444E+02  0.13492129110E+03  0.13656645565E+03  0.00000000000E+00 0. -1.
</event>
<event>
 4    1  0.3664744E+003  0.2644719E+02  0.7546771E-02  0.1453242E+00
          2   -1    0    0  502    0  0.00000000000E+00  0.00000000000E+00  0.23967960078E+01  0.23967960078E+01  0.00000000000E+00 0.  1.
          1   -1    0    0  501    0 -0.00000000000E+00 -0.00000000000E+00 -0.56274342700E+03  0.56274342700E+03  0.00000000000E+00 0. -1.
          2    1    1    2  501    0 -0.80911257426E+01 -0.25179108248E+02 -0.84114067309E+02  0.88173863062E+02  0.00000000000E+00 0.  1.
          1    1    1    2  502    0  0.80911257426E+01  0.25179108248E+02 -0.47623256368E+03  0.47696635994E+03  0.00000000000E+00 0. -1.
</event>
<event>
 4    1  0.3664744E+003  0.8014561E+02  0.7546771E-02  0.1203510E+00
          2   -1    0    0  502    0  0.00000000000E+00  0.00000000000E+00  0.96095090566E+03  0.96095090566E+03  0.00000000000E+00 0. -1.
          1   -1    0    0  501    0 -0.00000000000E+00 -0.00000000000E+00 -0.70485073232E+01  0.70485073232E+01  0.00000000000E+00 0. -1.
          2    1    1    2  501    0  0.50399932822E+02  0.62315049687E+02  0.58696557691E+03  0.59241194039E+03  0.00000000000E+00 0. -1.
          1    1    1    2  502    0 -0.50399932822E+02 -0.62315049687E+02  0.36693682143E+03  0.37558747259E+03  0.00000000000E+00 0. -1.
</event>
<event>
 4    1  0.3664744E+003  0.3066878E+02  0.7546771E-02  0.1413872E+00
          2   -1    0    0  502    0  0.00000000000E+00  0.00000000000E+00  0.18947639555E+03  0.18947639555E+03  0.00000000000E+00 0.  1.
          1   -1    0    0  501    0 -0.00000000000E+00 -0.00000000000E+00 -0.80981555881E+01  0.80981555881E+01  0.00000000000E+00 0.  1.
          2    1    1    2  501    0  0.13824910706E+02  0.27376006006E+02  0.15214500260E+03  0.15520526949E+03  0.00000000000E+00 0.  1.
          1    1    1    2  502    0 -0.13824910706E+02 -0.27376006006E+02  0.29233237364E+02  0.42369281651E+02  0.00000000000E+00 0.  1.
</event>
<event>
 4    1  0.3664744E+003  0.8716777E+02  0.7546771E-02  0.1188118E+00
          2   -1    0    0  502    0  0.00000000000E+00  0.00000000000E+00  0.10273541887E+02  0.10273541887E+02  0.00000000000E+00 0. -1.
          1   -1    0    0  501    0 -0.00000000000E+00 -0.00000000000E+00 -0.14348853603E+04  0.14348853603E+04  0.00000000000E+00 0.  1.
          2    1    1    2  501    0  0.76651662888E+02  0.41505933881E+02 -0.20931361480E+03  0.22673863656E+03  0.00000000000E+00 0. -1.
          1    1    1    2  502    0 -0.76651662888E+02 -0.41505933881E+02 -0.12152982037E+04  0.12184202657E+04  0.00000000000E+00 0.  1.
</event>
<event>
 4    1  0.3664744E+003  0.2040007E+02  0.7546771E-02  0.1528005E+00
          2   -1    0    0  502    0  0.00000000000E+00  0.00000000000E+00  0.11966865631E+03  0.11966865631E+03  0.00000000000E+00 0. -1.
          1   -1    0    0  501    0 -0.00000000000E+00 -0.00000000000E+00 -0.29187599628E+02  0.29187599628E+02  0.00000000000E+00 0.  1.
          2    1    1    2  501    0 -0.13554027610E+02 -0.15246355053E+02  0.11509411477E+03  0.11688805868E+03  0.00000000000E+00 0. -1.
          1    1    1    2  502    0  0.13554027610E+02  0.15246355053E+02 -0.24613058095E+02  0.31968197253E+02  0.00000000000E+00 0.  1.
</event>
<event>
 4    1  0.3664744E+003  0.2294936E+02  0.7546771E-02  0.1493135E+00
          2   -1    0    0  502    0  0.00000000000E+00  0.00000000000E+00  0.27086954224E+03  0.27086954224E+03  0.00000000000E+00 0. -1.
          1   -1    0    0  501    0 -0.00000000000E+00 -0.00000000000E+00 -0.17137253972E+02  0.17137253972E+02  0.00000000000E+00 0.  1.
          2    1    1    2  501    0  0.19781958341E+02  0.11633878481E+02  0.26245441063E+03  0.26345586094E+03  0.00000000000E+00 0. -1.
          1    1    1    2  502    0 -0.19781958341E+02 -0.11633878481E+02 -0.87221223607E+01  0.24550935273E+02  0.00000000000E+00 0.  1.
</event>
<event>
 4    1  0.3664744E+003  0.2135763E+02  0.7546771E-02  0.1514220E+00
          2   -1    0    0  502    0  0.00000000000E+00  0.00000000000E+00  0.52156690242E+03  0.52156690242E+03  0.00000000000E+00 0. -1.
          1   -1    0    0  501    0 -0.00000000000E+00 -0.00000000000E+00 -0.20893556575E+02  0.20893556575E+02  0.00000000000E+00 0.  1.
          2    1    1    2  501    0 -0.18407963680E+02  0.10830301294E+02  0.51582957315E+03  0.51627153426E+03  0.00000000000E+00 0. -1.
          1    1    1    2  502    0  0.18407963680E+02 -0.10830301294E+02 -0.15156227300E+02  0.26188924738E+02  0.00000000000E+00 0.  1.
</event>
<event>
 4    1  0.3664744E+003  0.3315026E+02  0.7546771E-02  0.1394055E+00
          2   -1    0    0  502    0  0.00000000000E+00  0.00000000000E+00  0.53361063306E+01  0.53361063306E+01  0.00000000000E+00 0. -1.
          1   -1    0    0  501    0 -0.00000000000E+00 -0.00000000000E+00 -0.30191197819E+03  0.30191197819E+03  0.00000000000E+00 0.  1.
          2    1    1    2  501    0  0.25068163140E+02 -0.21691628587E+02 -0.61675153776E+02  0.70019741125E+02  0.00000000000E+00 0. -1.
          1    1    1    2  502    0 -0.25068163140E+02  0.21691628587E+02 -0.23490071808E+03  0.23722834339E+03  0.00000000000E+00 0.  1.
</event>
<event>
 4    1  0.3664744E+003  0.4063997E+02  0.7546771E-02  0.1344776E+00
          2   -1    0    0  502    0  0.00000000000E+00  0.00000000000E+00  0.56511499952E+02  0.56511499952E+02  0.00000000000E+00 0.  1.
          1   -1    0    0  501    0 -0.00000000000E+00 -0.00000000000E+00 -0.22359003192E+03  0.22359003192E+03  0.00000000000E+00 0.  1.
          2    1    1    2  501    0  0.95195593572E+01  0.39509299635E+02  0.47037884232E+02  0.62162443010E+02  0.00000000000E+00 0.  1.
          1    1    1    2  502    0 -0.95195593572E+01 -0.39509299635E+02 -0.21411641620E+03  0.21793908886E+03  0.00000000000E+00 0.  1.
</event>
<event>
 4    1  0.3664744E+003  0.4114609E+02  0.7546771E-02  0.1341898E+00
          2   -1    0    0  502    0  0.00000000000E+00  0.00000000000E+00  0.21276566526E+04  0.21276566526E+04  0.00000000000E+00 0. -1.
          1   -1    0    0  501    0 -0.00000000000E+00 -0.00000000000E+00 -0.83490945105E+00  0.83490945105E+00  0.00000000000E+00 0. -1.
          2    1    1    2  501    0  0.34588583051E+02  0.22285211401E+02  0.12940082156E+04  0.12946622196E+04  0.00000000000E+00 0. -1.
          1    1    1    2  502    0 -0.34588583051E+02 -0.22285211401E+02  0.83281352749E+03  0.83382934243E+03  0.00000000000E+00 0. -1.
</event>
<event>
 4    1  0.3664744E+003  0.3450352E+02  0.7546771E-02  0.1384088E+00
          2   -1    0    0  502    0  0.00000000000E+00  0.00000000000E+00  0.60805848689E+02  0.60805848689E+02  0.00000000000E+00 0. -1.
          1   -1    0    0  501    0 -0.00000000000E+00 -0.00000000000E+00 -0.21878074776E+02  0.21878074776E+02  0.00000000000E+00 0. -1.
          2    1    1    2  501    0  0.19750078395E+02 -0.28291799659E+02  0.60608334859E+01  0.35031774536E+02  0.00000000000E+00 0. -1.
          1    1    1    2  502    0 -0.19750078395E+02  0.28291799659E+02  0.32866940427E+02  0.47652148929E+02  0.00000000000E+00 0. -1.
</event>
<event>
 4    1  0.3664744E+003  0.3362661E+02  0.7546771E-02  0.1390484E+00
          2   -1    0    0  502    0  0.00000000000E+00  0.00000000000E+00  0.73560626768E+03  0.73560626768E+03  0.00000000000E+00 0.  1.
          1   -1    0    0  501    0 -0.00000000000E+00 -0.00000000000E+00 -0.62067919900E+01  0.62067919900E+01  0.00000000000E+00 0.  1.
          2    1    1    2  501    0  0.98251937338E+01 -0.32159206368E+02  0.68641519665E+03  0.68723836562E+03  0.00000000000E+00 0.  1.
          1    1    1    2  502    0 -0.98251937338E+01  0.32159206368E+02  0.42984279036E+02  0.54574694048E+02  0.00000000000E+00 0.  1.
</event>
<event>
 4    1  0.3664744E+003  0.4072119E+02  0.7546771E-02  0.1344311E+00
          2   -1    0    0  502    0  0.00000000000E+00  0.00000000000E+00  0.29666079046E+01  0.29666079046E+01  0.00000000000E+00 0. -1.
          1   -1    0    0  501    0 -0.00000000000E+00 -0.00000000000E+00 -0.65741987293E+03  0.65741987293E+03  0.00000000000E+00 0. -1.
          2    1    1    2  501    0 -0.18570704722E+02  0.36240090128E+02 -0.19944266709E+03  0.20355734490E+03  0.00000000000E+00 0. -1.
          1    1    1    2  502    0  0.18570704722E+02 -0.36240090128E+02 -0.45501059793E+03  0.45682913593E+03  0.00000000000E+00 0. -1.
</event>
<event>
 4    1  0.3664744E+003  0.2647148E+02  0.7546771E-02  0.1452991E+00
          2   -1    0    0  502    0  0.00000000000E+00  0.00000000000E+00  0.35642730534E+02  0.35642730534E+02  0.00000000000E+00 0.  1.
          1   -1    0    0  501    0 -0.00000000000E+00 -0.00000000000E+00 -0.28418126628E+02  0.28418126628E+02  0.00000000000E+00 0.  1.
          2    1    1    2  501    0 -0.26358141211E+02 -0.24469248671E+01  0.21393809288E+02  0.34035777136E+02  0.00000000000E+00 0.  1.
          1    1    1    2  502    0  0.26358141211E+02  0.24469248671E+01 -0.14169205382E+02  0.30025080026E+02  0.00000000000E+00 0.  1.
</event>
<event>
 4    1  0.3664744E+003  0.2048626E+02  0.7546771E-02  0.1526728E+00
          2   -1    0    0  502    0  0.00000000000E+00  0.00000000000E+00  0.48552580359E+03  0.48552580359E+03  0.00000000000E+00 0.  1.
          1   -1    0    0  501    0 -0.00000000000E+00 -0.00000000000E+00 -0.20854016496E+01  0.20854016496E+01  0.00000000000E+00 0. -1.
          2    1    1    2  501    0 -0.16744280289E+02  0.11803218060E+02  0.42827548125E+03  0.42876517433E+03  0.00000000000E+00 0.  1.
          1    1    1    2  502    0  0.16744280289E+02 -0.11803218060E+02  0.55164920692E+02  0.58846030910E+02  0.00000000000E+00 0. -1.
</event>
<event>
 4    1  0.3664744E+003  0.2544141E+02  0.7546771E-02  0.1463925E+00
          2   -1    0    0  502    0  0.00000000000E+00  0.00000000000E+00  0.51184111679E+01  0.51184111679E+01  0.00000000000E+00 0. -1.
          1   -1    0    0  501    0 -0.00000000000E+00 -0.00000000000E+00 -0.11006970216E+04  0.11006970216E+04  0.00000000000E+00 0.  1.
          2    1    1    2  501    0  0.68539255400E+01 -0.24500801216E+02 -0.27611941145E+02  0.37545770059E+02  0.00000000000E+00 0. -1.
          1    1    1    2  502    0 -0.68539255400E+01  0.24500801216E+02 -0.10679666693E+04  0.10682696627E+04  0.00000000000E+00 0.  1.
</event>
<event>
 4    1  0.3664744E+003  0.2345379E+02  0.7546771E-02  0.1486877E+00
          2   -1    0    0  502    0  0.00000000000E+00  0.00000000000E+00  0.77943208737E+01  0.77943208737E+01  0.00000000000E+00 0. -1.
          1   -1    0    0  501    0 -0.00000000000E+00 -0.00000000000E+00 -0.10969406793E+03  0.10969406793E+03  0.00000000000E+00 0.  1.
          2    1    1    2  501    0  0.18348222165E+02 -0.14609011951E+02 -0.15869010264E+02  0.28317944374E+02  0.00000000000E+00 0. -1.
          1    1    1    2  502    0 -0.18348222165E+02  0.14609011951E+02 -0.86030736796E+02  0.89170444433E+02  0.00000000000E+00 0.  1.
</event>
<event>
 4    1  0.3664744E+003  0.2073712E+02  0.7546771E-02  0.1523051E+00
          2   -1    0    0  502    0  0.00000000000E+00  0.00000000000E+00  0.21455522827E+02  0.21455522827E+02  0.00000000000E+00 0. -1.
          1   -1    0    0  501    0 -0.00000000000E+00 -0.00000000000E+00 -0.91880584622E+02  0.91880584622E+02  0.00000000000E+00 0.  1.
          2    1    1    2  501    0 -0.19052935724E+02 -0.81861904148E+01  0.14894997721E+02  0.25532117624E+02  0.00000000000E+00 0. -1.
          1    1    1    2  502    0  0.19052935724E+02  0.81861904148E+01 -0.85320059517E+02  0.87803989825E+02  0.00000000000E+00 0.  1.
</event>
<event>
 4    1  0.3664744E+003  0.2067215E+02  0.7546771E-02  0.1523998E+00
          2   -1    0    0  502    0  0.00000000000E+00  0.00000000000E+00  0.69094226014E+03  0.69094226014E+03  0.00000000000E+00 0. -1.
          1   -1    0    0  501    0 -0.00000000000E+00 -0.00000000000E+00 -0.68447834897E+00  0.68447834897E+00  0.00000000000E+00 0. -1.
          2    1    1    2  501    0 -0.13196039635E+02  0.15912333548E+02  0.45250560604E+03  0.45297755056E+03  0.00000000000E+00 0. -1.
          1    1    1    2  502    0  0.13196039635E+02 -0.15912333548E+02  0.23775217575E+03  0.23864918792E+03  0.00000000000E+00 0. -1.
</event>
<event>
 4    1  0.3664744E+003  0.3179452E+02  0.7546771E-02  0.1404618E+00
          2   -1    0    0  502    0  0.00000000000E+00  0.00000000000E+00  0.45237312634E+02  0.45237312634E+02  0.00000000000E+00 0.  1.
          1   -1    0    0  501    0 -0.00000000000E+00 -0.00000000000E+00 -0.22416755301E+02  0.22416755301E+02  0.00000000000E+00 0.  1.
          2    1    1    2  501    0  0.43556426093E+01  0.31494755690E+02  0.13305299471E+02  0.34466248019E+02  0.00000000000E+00 0.  1.
          1    1    1    2  502    0 -0.43556426093E+01 -0.31494755690E+02  0.95152578624E+01  0.33187819915E+02  0.00000000000E+00 0.  1.
</event>
<event>
 4    1  0.3664744E+003  0.2616103E+02  0.7546771E-02  0.1456223E+00
          2   -1    0    0  502    0  0.00000000000E+00  0.00000000000E+00  0.50096840988E+03  0.50096840988E+03  0.00000000000E+00 0. -1.
          1   -1    0    0  501    0 -0.00000000000E+00 -0.00000000000E+00 -0.19225598095E+01  0.19225598095E+01  0.00000000000E+00 0.  1.
          2    1    1    2  501    0 -0.25568079482E+02  0.55383144644E+01  0.38479247247E+03  0.38568075721E+03  0.00000000000E+00 0. -1.
          1    1    1    2  502    0  0.25568079482E+02 -0.55383144644E+01  0.11425337760E+03  0.11721021248E+03  0.00000000000E+00 0.  1.
</event>
<event>
 4    1  0.3664744E+003  0.2075070E+02  0.7546771E-02  0.1522854E+00
          2   -1    0    0  502    0  0.00000000000E+00  0.00000000000E+00  0.41890282641E+03  0.41890282641E+03  0.00000000000E+00 0. -1.
          1   -1    0    0  501    0 -0.00000000000E+00 -0.00000000000E+00 -0.70092353153E+02  0.70092353153E+02  0.00000000000E+00 0. -1.
          2    1    1    2  501    0 -0.70520735822E+01 -0.19515631430E+02  0.41710342822E+03  0.41761927811E+03  0.00000000000E+00 0. -1.
          1    1    1    2  502    0  0.70520735822E+01  0.19515631430E+02 -0.68292954961E+02  0.71375901460E+02  0.00000000000E+00 0. -1.
</event>
<event>
 4    1  0.3664744E+003  0.2196331E+02  0.7546771E-02  0.1505943E+00
          2   -1    0    0  502    0  0.00000000000E+00  0.00000000000E+00  0.14253730299E+04  0.14253730299E+04  0.00000000000E+00 0.  1.
          1   -1    0    0  501    0 -0.00000000000E+00 -0.00000000000E+00 -0.16396517807E+01  0.16396517807E+01  0.00000000000E+00 0. -1.
          2    1    1    2  501    0  0.96130428900E+01  0.19747818156E+02  0.13474872394E+04  0.13476662225E+04  0.00000000000E+00 0.  1.
          1    1    1    2  502    0 -0.96130428900E+01 -0.19747818156E+02  0.76246138758E+02  0.79346459222E+02  0.00000000000E+00 0. -1.
</event>
<event>
 4    1  0.3664744E+003  0.2636889E+02  0.7546771E-02  0.1454053E+00
          2   -1    0    0  502    0  0.00000000000E+00  0.00000000000E+00  0.60313211183E+03  0.60313211183E+03  0.00000000000E+00 0.  1.
          1   -1    0    0  501    0 -0.00000000000E+00 -0.00000000000E+00 -0.95601783365E+01  0.95601783365E+01  0.00000000000E+00 0. -1.
          2    1    1    2  501    0 -0.75663480142E+01 -0.25260022417E+02  0.58406804521E+03  0.58466297966E+03  0.00000000000E+00 0.  1.
          1    1    1    2  502    0  0.75663480142E+01  0.25260022417E+02  0.95038882855E+01  0.28029310504E+02  0.00000000000E+00 0. -1.
</event>
<event>
 4    1  0.3664744E+003  0.2769668E+02  0.7546771E-02  0.1440733E+00
          2   -1    0    0  502    0  0.00000000000E+00  0.00000000000E+00  0.72397357177E+03  0.72397357177E+03  0.00000000000E+00 0. -1.
          1   -1    0    0  501    0 -0.00000000000E+00 -0.00000000000E+00 -0.59991018478E+01  0.59991018478E+01  0.00000000000E+00 0.  1.
          2    1    1    2  501    0 -0.27488732237E+02 -0.33875786582E+01  0.69017635087E+03  0.69073185925E+03  0.00000000000E+00 0. -1.
          1    1    1    2  502    0  0.27488732237E+02  0.33875786582E+01  0.27798119056E+02  0.39240814367E+02  0.00000000000E+00 0.  1.
</event>
<event>
 4    1  0.3664744E+003  0.3177416E+02  0.7546771E-02  0.1404781E+00
          2   -1    0    0  502    0  0.00000000000E+00  0.00000000000E+00  0.38923308893E+03  0.38923308893E+03  0.00000000000E+00 0. -1.
          1   -1    0    0  501    0 -0.00000000000E+00 -0.00000000000E+00 -0.16675342514E+03  0.16675342514E+03  0.00000000000E+00 0. -1.
          2    1    1    2  501    0 -0.16383566418E+02  0.27224547073E+02  0.38706255456E+03  0.38836454312E+03  0.00000000000E+00 0. -1.
          1    1    1    2  502    0  0.16383566418E+02 -0.27224547073E+02 -0.16458289076E+03  0.16762197095E+03  0.00000000000E+00 0. -1.
</event>
<event>
 4    1  0.3664744E+003  0.2856637E+02  0.7546771E-02  0.1432478E+00
          2   -1    0    0  502    0  0.00000000000E+00  0.00000000000E+00  0.29397289788E+01  0.29397289788E+01  0.00000000000E+00 0.  1.
          1   -1    0    0  501    0 -0.00000000000E+00 -0.00000000000E+00 -0.11387414618E+04  0.11387414618E+04  0.00000000000E+00 0. -1.
          2    1    1    2  501    0  0.27408752450E+02 -0.80496929356E+01 -0.71488907631E+02  0.76985071160E+02  0.00000000000E+00 0.  1.
          1    1    1    2  502    0 -0.27408752450E+02  0.80496929356E+01 -0.10643128252E+04  0.10646961196E+04  0.00000000000E+00 0. -1.
</event>
<event>
 4    1  0.3664744E+003  0.2298057E+02  0.7546771E-02  0.1492742E+00
          2   -1    0    0  502    0  0.00000000000E+00  0.00000000000E+00  0.11887509310E+04  0.11887509310E+04  0.00000000000E+00 0. -1.
          1   -1    0    0  501    0 -0.00000000000E+00 -0.00000000000E+00 -0.11798276214E+02  0.11798276214E+02  0.00000000000E+00 0. -1.
          2    1    1    2  501    0 -0.17210571569E+01 -0.22916029720E+02  0.11773410997E+04  0.11775653576E+04  0.00000000000E+00 0. -1.
          1    1    1    2  502    0  0.17210571569E+01  0.22916029720E+02 -0.38844483388E+00  0.22983849661E+02  0.00000000000E+00 0. -1.
</event>
<event>
 4    1  0.3664744E+003  0.2092490E+02  0.7546771E-02  0.1520340E+00
          2   -1    0    0  502    0  0.00000000000E+00  0.00000000000E+00  0.27133703669E+02  0.27133703669E+02  0.00000000000E+00 0.  1.
          1   -1    0    0  501    0 -0.00000000000E+00 -0.00000000000E+00 -0.57785486722E+03  0.57785486722E+03  0.00000000000E+00 0.  1.
          2    1    1    2  501    0  0.16360384114E+02 -0.13045662692E+02  0.22880165225E+02  0.31005700188E+02  0.00000000000E+00 0.  1.
          1    1    1    2  502    0 -0.16360384114E+02  0.13045662692E+02 -0.57360132877E+03  0.57398287070E+03  0.00000000000E+00 0.  1.
</event>
<event>
 4    1  0.3664744E+003  0.2208279E+02  0.7546771E-02  0.1504348E+00
          2   -1    0    0  502    0  0.00000000000E+00  0.00000000000E+00  0.22425238413E+03  0.22425238413E+03  0.00000000000E+00 0.  1.
          1   -1    0    0  501    0 -0.00000000000E+00 -0.00000000000E+00 -0.23743615346E+02  0.23743615346E+02  0.00000000000E+00 0.  1.
          2    1    1    2  501    0 -0.11637186699E+02 -0.18767668363E+02  0.21843788581E+03  0.21955126838E+03  0.00000000000E+00 0.  1.
          1    1    1    2  502    0  0.11637186699E+02  0.18767668363E+02 -0.17929117023E+02  0.28444731098E+02  0.00000000000E+00 0.  1.
</event>
<event>
 4    1  0.3664744E+003  0.2944344E+02  0.7546771E-02  0.1424495E+00
          2   -1    0    0  502    0  0.00000000000E+00  0.00000000000E+00  0.54526594365E+03  0.54526594365E+03  0.00000000000E+00 0. -1.
          1   -1    0    0  501    0 -0.00000000000E+00 -0.00000000000E+00 -0.48002018891E+01  0.48002018891E+01  0.00000000000E+00 0.  1.
          2    1    1    2  501    0 -0.23110630842E+02 -0.18243220643E+02  0.49515301354E+03  0.49602764356E+03  0.00000000000E+00 0. -1.
          1    1    1    2  502    0  0.23110630842E+02  0.18243220643E+02  0.45312728217E+02  0.54038501976E+02  0.00000000000E+00 0.  1.
</event>
<event>
 4    1  0.3664744E+003  0.2059353E+02  0.7546771E-02  0.1525148E+00
          2   -1    0    0  502    0  0.00000000000E+00  0.00000000000E+00  0.36513611824E+01  0.36513611824E+01  0.00000000000E+00 0. -1.
          1   -1    0    0  501    0 -0.00000000000E+00 -0.00000000000E+00 -0.72151625223E+03  0.72151625223E+03  0.00000000000E+00 0. -1.
          2    1    1    2  501    0  0.17601963449E+02 -0.10689442272E+02 -0.26811965071E+02  0.33807909790E+02  0.00000000000E+00 0. -1.
          1    1    1    2  502    0 -0.17601963449E+02  0.10689442272E+02 -0.69105292598E+03  0.69135970362E+03  0.00000000000E+00 0. -1.
</event>
<event>
 4    1  0.3664744E+003  0.3382447E+02  0.7546771E-02  0.1389021E+00
          2   -1    0    0  502    0  0.00000000000E+00  0.00000000000E+00  0.27631177591E+03  0.27631177591E+03  0.00000000000E+00 0. -1.
          1   -1    0    0  501    0 -0.00000000000E+00 -0.00000000000E+00 -0.51826111234E+01  0.51826111234E+01  0.00000000000E+00 0. -1.
          2    1    1    2  501    0 -0.39352835587E+01 -0.33594750669E+02  0.72453776013E+02  0.79960261304E+02  0.00000000000E+00 0. -1.
          1    1    1    2  502    0  0.39352835587E+01  0.33594750669E+02  0.19867538877E+03  0.20153412573E+03  0.00000000000E+00 0. -1.
</event>
<event>
 4    1  0.3664744E+003  0.2136842E+02  0.7546771E-02  0.1514069E+00
          2   -1    0    0  502    0  0.00000000000E+00  0.00000000000E+00  0.21736710426E+01  0.21736710426E+01  0.00000000000E+00 0.  1.
          1   -1    0    0  501    0 -0.00000000000E+00 -0.00000000000E+00 -0.83644464090E+03  0.83644464090E+03  0.00000000000E+00 0.  1.
          2    1    1    2  501    0 -0.16208313278E+02  0.13924791834E+02 -0.54278879706E+02  0.58333575487E+02  0.00000000000E+00 0.  1.
          1    1    1    2  502    0  0.16208313278E+02 -0.13924791834E+02 -0.77999209015E+03  0.78028473646E+03  0.00000000000E+00 0.  1.
</event>
<event>
 4    1  0.3664744E+003  0.3279027E+02  0.7546771E-02  0.1396801E+00
          2   -1    0    0  502    0  0.00000000000E+00  0.00000000000E+00  0.49083991694E+02  0.49083991694E+02  0.00000000000E+00 0. -1.
          1   -1    0    0  501    0 -0.00000000000E+00 -0.00000000000E+00 -0.59125772552E+02  0.59125772552E+02  0.00000000000E+00 0. -1.
          2    1    1    2  501    0  0.31816223380E+02 -0.79328275377E+01  0.37906917655E+02  0.50121215358E+02  0.00000000000E+00 0. -1.
          1    1    1    2  502    0 -0.31816223380E+02  0.79328275377E+01 -0.47948698513E+02  0.58088548889E+02  0.00000000000E+00 0. -1.
</event>
<event>
 4    1  0.3664744E+003  0.2041991E+02  0.7546771E-02  0.1527710E+00
          2   -1    0    0  502    0  0.00000000000E+00  0.00000000000E+00  0.15885691106E+03  0.15885691106E+03  0.00000000000E+00 0.  1.
          1   -1    0    0  501    0 -0.00000000000E+00 -0.00000000000E+00 -0.29214989804E+01  0.29214989804E+01  0.00000000000E+00 0.  1.
          2    1    1    2  501    0  0.14442890540E+02  0.14435219847E+02  0.10374412060E+03  0.10573464531E+03  0.00000000000E+00 0.  1.
          1    1    1    2  502    0 -0.14442890540E+02 -0.14435219847E+02  0.52191291479E+02  0.56043764733E+02  0.00000000000E+00 0.  1.
</event>
<event>
 4    1  0.3664744E+003  0.2124176E+02  0.7546771E-02  0.1515841E+00
          2   -1    0    0  502    0  0.00000000000E+00  0.00000000000E+00  0.28491140338E+01  0.28491140338E+01  0.00000000000E+00 0. -1.
          1   -1    0    0  501    0 -0.00000000000E+00 -0.00000000000E+00 -0.42115842022E+03  0.42115842022E+03  0.00000000000E+00 0.  1.
          2    1    1    2  501    0  0.10841138102E+02 -0.18266966998E+02 -0.41689489858E+02  0.46789164593E+02  0.00000000000E+00 0. -1.
          1    1    1    2  502    0 -0.10841138102E+02  0.18266966998E+02 -0.37661981633E+03  0.37721836966E+03  0.00000000000E+00 0.  1.
</event>
<event>
 4    1  0.3664744E+003  0.2230953E+02  0.7546771E-02  0.1501355E+00
          2   -1    0    0  502    0  0.00000000000E+00  0.00000000000E+00  0.66210619872E+00  0.66210619872E+00  0.00000000000E+00 0.  1.
          1   -1    0    0  501    0 -0.00000000000E+00 -0.00000000000E+00 -0.14957517296E+04  0.14957517296E+04  0.00000000000E+00 0.  1.
          2    1    1    2  501    0 -0.21246559529E+02  0.68043406057E+01 -0.21984241095E+03  0.22097149362E+03  0.00000000000E+00 0.  1.
          1    1    1    2  502    0  0.21246559529E+02 -0.68043406057E+01 -0.12752472125E+04  0.12754423422E+04  0.00000000000E+00 0.  1.
</event>
<event>
 4    1  0.3664744E+003  0.3999902E+02  0.7546771E-02  0.1348492E+00
          2   -1    0    0  502    0  0.00000000000E+00  0.00000000000E+00  0.63681999760E+03  0.63681999760E+03  0.00000000000E+00 0. -1.
          1   -1    0    0  501    0 -0.00000000000E+00 -0.00000000000E+00 -0.31017368424E+01  0.31017368424E+01  0.00000000000E+00 0. -1.
          2    1    1    2  501    0 -0.38853735185E+02  0.95030798447E+01  0.45633234906E+03  0.45808201675E+03  0.00000000000E+00 0. -1.
          1    1    1    2  502    0  0.38853735185E+02 -0.95030798447E+01  0.17738591170E+03  0.18183971770E+03  0.00000000000E+00 0. -1.
</event>
<event>
 4    1  0.3664744E+003  0.3688103E+02  0.7546771E-02  0.1367800E+00
          2   -1    0    0  502    0  0.00000000000E+00  0.00000000000E+00  0.18040098359E+04  0.18040098359E+04  0.00000000000E+00 0. -1.
          1   -1    0    0  501    0 -0.00000000000E+00 -0.00000000000E+00 -0.12100817912E+02  0.12100817912E+02  0.00000000000E+00 0. -1.
          2    1    1    2  501    0  0.33039963099E+02 -0.16388151595E+02  0.17752647383E+04  0.17756477977E+04  0.00000000000E+00 0. -1.
          1    1    1    2  502    0 -0.33039963099E+02  0.16388151595E+02  0.16644279721E+02  0.40462856074E+02  0.00000000000E+00 0. -1.
</event>
<event>
 4    1  0.3664744E+003  0.2047394E+02  0.7546771E-02  0.1526910E+00
          2   -1    0    0  502    0  0.00000000000E+00  0.00000000000E+00  0.84192970334E+01  0.84192970334E+01  0.00000000000E+00 0.  1.
          1   -1    0    0  501    0 -0.00000000000E+00 -0.00000000000E+00 -0.62841264020E+03  0.62841264020E+03  0.00000000000E+00 0.  1.
          2    1    1    2  501    0 -0.20438856734E+02 -0.11980508387E+01 -0.44547919413E+01  0.20952979779E+02  0.00000000000E+00 0.  1.
          1    1    1    2  502    0  0.20438856734E+02  0.11980508387E+01 -0.61553855123E+03  0.61587895746E+03  0.00000000000E+00 0.  1.
</event>
<event>
 4    1  0.3664744E+003  0.3843860E+02  0.7546771E-02  0.1357887E+00
          2   -1    0    0  502    0  0.00000000000E+00  0.00000000000E+00  0.57607423931E+03  0.57607423931E+03  0.00000000000E+00 0. -1.
          1   -1    0    0  501    0 -0.00000000000E+00 -0.00000000000E+00 -0.27335265218E+03  0.27335265218E+03  0.00000000000E+00 0. -1.
          2    1    1    2  501    0  0.14444509684E+02  0.35621367790E+02  0.57407703893E+03  0.57536247038E+03  0.00000000000E+00 0. -1.
          1    1    1    2  502    0 -0.14444509684E+02 -0.35621367790E+02 -0.27135545179E+03  0.27406442111E+03  0.00000000000E+00 0. -1.
</event>
<event>
 4    1  0.3664744E+003  0.4469850E+02  0.7546771E-02  0.1322954E+00
          2   -1    0    0  502    0  0.00000000000E+00  0.00000000000E+00  0.30137230072E+04  0.30137230072E+04  0.00000000000E+00 0.  1.
          1   -1    0    0  501    0 -0.00000000000E+00 -0.00000000000E+00 -0.17612673029E+01  0.17612673029E+01  0.00000000000E+00 0. -1.
          2    1    1    2  501    0 -0.34169972614E+02  0.28816123033E+02  0.26966135638E+04  0.26969839949E+04  0.00000000000E+00 0.  1.
          1    1    1    2  502    0  0.34169972614E+02 -0.28816123033E+02  0.31534817611E+03  0.31850027968E+03  0.00000000000E+00 0. -1.
</event>
<event>
 4    1  0.3664744E+003  0.4047321E+02  0.7546771E-02  0.1345735E+00
          2   -1    0    0  502    0  0.00000000000E+00  0.00000000000E+00  0.33814492250E+03  0.33814492250E+03  0.00000000000E+00 0. -1.
          1   -1    0    0  501    0 -0.00000000000E+00 -0.00000000000E+00 -0.38644967868E+02  0.38644967868E+02  0.00000000000E+00 0.  1.
          2    1    1    2  501    0 -0.33622464738E+02 -0.22530215931E+02  0.32594162242E+03  0.32844485380E+03  0.00000000000E+00 0. -1.
          1    1    1    2  502    0  0.33622464738E+02  0.22530215931E+02 -0.26441667787E+02  0.48345036564E+02  0.00000000000E+00 0.  1.
</event>
<event>
 4    1  0.3664744E+003  0.2381713E+02  0.7546771E-02  0.1482485E+00
          2   -1    0    0  502    0  0.00000000000E+00  0.00000000000E+00  0.65630229101E+03  0.65630229101E+03  0.00000000000E+00 0.  1.
          1   -1    0    0  501    0 -0.00000000000E+00 -0.00000000000E+00 -0.14081825049E+02  0.14081825049E+02  0.00000000000E+00 0. -1.
          2    1    1    2  501    0 -0.16481369283E+02 -0.17193612369E+02  0.64585261666E+03  0.64629162016E+03  0.00000000000E+00 0.  1.
          1    1    1    2  502    0  0.16481369283E+02  0.17193612369E+02 -0.36321507046E+01  0.24092495896E+02  0.00000000000E+00 0. -1.
</event>
<event>
 4    1  0.3664744E+003  0.2176028E+02  0.7546771E-02  0.1508681E+00
          2   -1    0    0  502    0  0.00000000000E+00  0.00000000000E+00  0.27503081661E+03  0.27503081661E+03  0.00000000000E+00 0. -1.
          1   -1    0    0  501    0 -0.00000000000E+00 -0.00000000000E+00 -0.77710446066E+01  0.77710446066E+01  0.00000000000E+00 0. -1.
          2    1    1    2  501    0 -0.25085115676E+01 -0.21615205439E+02  0.25838781064E+03  0.25930246899E+03  0.00000000000E+00 0. -1.
          1    1    1    2  502    0  0.25085115676E+01  0.21615205439E+02  0.88719613574E+01  0.23499392222E+02  0.00000000000E+00 0. -1.
</event>
<event>
 4    1  0.3664744E+003  0.2064951E+02  0.7546771E-02  0.1524328E+00
          2   -1    0    0  502    0  0.00000000000E+00  0.00000000000E+00  0.10058648733E+04  0.10058648733E+04  0.00000000000E+00 0.  1.
          1   -1    0    0  501    0 -0.00000000000E+00 -0.00000000000E+00 -0.38455690400E+01  0.38455690400E+01  0.00000000000E+00 0.  1.
          2    1    1    2  501    0  0.91844740439E+01 -0.18494531234E+02  0.97722625017E+03  0.97744439549E+03  0.00000000000E+00 0.  1.
          1    1    1    2  502    0 -0.91844740439E+01  0.18494531234E+02  0.24793054136E+02  0.32266046898E+02  0.00000000000E+00 0.  1.
</event>
<event>
 4    1  0.3664744E+003  0.2932469E+02  0.7546771E-02  0.1425557E+00
          2   -1    0    0  502    0  0.00000000000E+00  0.00000000000E+00  0.82738991810E+01  0.82738991810E+01  0.00000000000E+00 0.  1.
          1   -1    0    0  501    0 -0.00000000000E+00 -0.00000000000E+00 -0.10399013051E+03  0.10399013051E+03  0.00000000000E+00 0.  1.
          2    1    1    2  501    0  0.13748333950E+02  0.25902125999E+02 -0.49165898319E+02  0.57247029401E+02  0.00000000000E+00 0.  1.
          1    1    1    2  502    0 -0.13748333950E+02 -0.25902125999E+02 -0.46550333012E+02  0.55017000292E+02  0.00000000000E+00 0.  1.
</event>
<event>
 4    1  0.3664744E+003  0.2537789E+02  0.7546771E-02  0.1464620E+00
          2   -1    0    0  502    0  0.00000000000E+00  0.00000000000E+00  0.99534605119E+03  0.99534605119E+03  0.00000000000E+00 0. -1.
          1   -1    0    0  501    0 -0.00000000000E+00 -0.00000000000E+00 -0.74696697967E+00  0.74696697967E+00  0.00000000000E+00 0. -1.
          2    1    1    2  501    0  0.22769522646E+02 -0.11206520258E+02  0.67945488488E+03  0.67992865644E+03  0.00000000000E+00 0. -1.
          1    1    1    2  502    0 -0.22769522646E+02  0.11206520258E+02  0.31514419933E+03  0.31616436173E+03  0.00000000000E+00 0. -1.
</event>
<event>
 4    1  0.3664744E+003  0.2047645E+02  0.7546771E-02  0.1526873E+00
          2   -1    0    0  502    0  0.00000000000E+00  0.00000000000E+00  0.89124916084E+03  0.89124916084E+03  0.00000000000E+00 0. -1.
          1   -1    0    0  501    0 -0.00000000000E+00 -0.00000000000E+00 -0.51661349765E+00  0.51661349765E+00  0.00000000000E+00 0. -1.
          2    1    1    2  501    0  0.10215724115E+00 -0.20476197392E+02  0.57865809314E+03  0.57902027068E+03  0.00000000000E+00 0. -1.
          1    1    1    2  502    0 -0.10215724115E+00  0.20476197392E+02  0.31207445420E+03  0.31274550366E+03  0.00000000000E+00 0. -1.
</event>
<event>
 4    1  0.3664744E+003  0.2655766E+02  0.7546771E-02  0.1452103E+00
          2   -1    0    0  502    0  0.00000000000E+00  0.00000000000E+00  0.12050855723E+04  0.12050855723E+04  0.00000000000E+00 0.  1.
          1   -1    0    0  501    0 -0.00000000000E+00 -0.00000000000E+00 -0.28368064912E+02  0.28368064912E+02  0.00000000000E+00 0. -1.
          2    1    1    2  501    0  0.41332879323E+01 -0.26234050603E+02  0.11986903958E+04  0.11989845597E+04  0.00000000000E+00 0.  1.
          1    1    1    2  502    0 -0.41332879323E+01  0.26234050603E+02 -0.21972888389E+02  0.34469077509E+02  0.00000000000E+00 0. -1.
</event>
<event>
 4    1  0.3664744E+003  0.2228249E+02  0.7546771E-02  0.1501710E+00
          2   -1    0    0  502    0  0.00000000000E+00  0.00000000000E+00  0.16636396558E+02  0.16636396558E+02  0.00000000000E+00 0. -1.
          1   -1    0    0  501    0 -0.00000000000E+00 -0.00000000000E+00 -0.14836105626E+04  0.14836105626E+04  0.00000000000E+00 0. -1.
          2    1    1    2  501    0 -0.22113496515E+02 -0.27391192549E+01  0.90532070145E+01  0.24051404526E+02  0.00000000000E+00 0. -1.
          1    1    1    2  502    0  0.22113496515E+02  0.27391192549E+01 -0.14760273731E+04  0.14761955546E+04  0.00000000000E+00 0. -1.
</event>
<event>
 4    1  0.3664744E+003  0.2078771E+02  0.7546771E-02  0.1522318E+00
          2   -1    0    0  502    0  0.00000000000E+00  0.00000000000E+00  0.12228903676E+04  0.12228903676E+04  0.00000000000E+00 0.  1.
          1   -1    0    0  501    0 -0.00000000000E+00 -0.00000000000E+00 -0.68946618790E+01  0.68946618790E+01  0.00000000000E+00 0. -1.
          2    1    1    2  501    0 -0.20223393004E+02 -0.48107405640E+01  0.12069258163E+04  0.12071048235E+04  0.00000000000E+00 0.  1.
          1    1    1    2  502    0  0.20223393004E+02  0.48107405640E+01  0.90698894187E+01  0.22680205983E+02  0.00000000000E+00 0. -1.
</event>
<event>
 4    1  0.3664744E+003  0.2221105E+02  0.7546771E-02  0.1502650E+00
          2   -1    0    0  502    0  0.00000000000E+00  0.00000000000E+00  0.22961749965E+03  0.22961749965E+03  0.00000000000E+00 0. -1.
          1   -1    0    0  501    0 -0.00000000000E+00 -0.00000000000E+00 -0.97395956529E+01  0.97395956529E+01  0.00000000000E+00 0. -1.
          2    1    1    2  501    0 -0.12043850563E+02  0.18662161594E+02  0.21559598253E+03  0.21673707180E+03  0.00000000000E+00 0. -1.
          1    1    1    2  502    0  0.12043850563E+02 -0.18662161594E+02  0.42819214714E+01  0.22620023502E+02  0.00000000000E+00 0. -1.
</event>
<event>
 4    1  0.3664744E+003  0.3043809E+02  0.7546771E-02  0.1415827E+00
          2   -1    0    0  502    0  0.00000000000E+00  0.00000000000E+00  0.48667349457E+02  0.48667349457E+02  0.00000000000E+00 0.  1.
          1   -1    0    0  501    0 -0.00000000000E+00 -0.00000000000E+00 -0.21841193244E+03  0.21841193244E+03  0.00000000000E+00 0. -1.
          2    1    1    2  501    0  0.13918410924E+02 -0.27069452896E+02  0.42714984355E+02  0.52450427369E+02  0.00000000000E+00 0.  1.
          1    1    1    2  502    0 -0.13918410924E+02  0.27069452896E+02 -0.21245956734E+03  0.21462885453E+03  0.00000000000E+00 0. -1.
</event>
<event>
 4    1  0.3664744E+003  0.2504631E+02  0.7546771E-02  0.1468286E+00
          2   -1    0    0  502    0  0.00000000000E+00  0.00000000000E+00  0.65979402953E+03  0.65979402953E+03  0.00000000000E+00 0.  1.
          1   -1    0    0  501    0 -0.00000000000E+00 -0.00000000000E+00 -0.26388308556E+01  0.26388308556E+01  0.00000000000E+00 0.  1.
          2    1    1    2  501    0  0.21141484982E+02  0.13429649446E+02  0.59348803823E+03  0.59401630398E+03  0.00000000000E+00 0.  1.
          1    1    1    2  502    0 -0.21141484982E+02 -0.13429649446E+02  0.63667160450E+02  0.68416556412E+02  0.00000000000E+00 0.  1.
</event>
<event>
 4    1  0.3664744E+003  0.9218068E+02  0.7546771E-02  0.1178094E+00
          2   -1    0    0  502    0  0.00000000000E+00  0.00000000000E+00  0.15466541022E+04  0.15466541022E+04  0.00000000000E+00 0. -1.
          1   -1    0    0  501    0 -0.00000000000E+00 -0.00000000000E+00 -0.34281608400E+03  0.34281608400E+03  0.00000000000E+00 0.  1.
          2    1    1    2  501    0 -0.33473702223E+02  0.85888231845E+02  0.15390533600E+04  0.15418114418E+04  0.00000000000E+00 0. -1.
          1    1    1    2  502    0  0.33473702223E+02 -0.85888231845E+02 -0.33521534185E+03  0.34765874435E+03  0.00000000000E+00 0.  1.
</event>
<event>
 4    1  0.3664744E+003  0.2115466E+02  0.7546771E-02  0.1517068E+00
          2   -1    0    0  502    0  0.00000000000E+00  0.00000000000E+00  0.47412508221E+02  0.47412508221E+02  0.00000000000E+00 0.  1.
          1   -1    0    0  501    0 -0.00000000000E+00 -0.00000000000E+00 -0.21414923920E+02  0.21414923920E+02  0.00000000000E+00 0.  1.
          2    1    1    2  501    0  0.18306936563E+01 -0.21075298147E+02  0.38734167539E+02  0.44134514455E+02  0.00000000000E+00 0.  1.
          1    1    1    2  502    0 -0.18306936563E+01  0.21075298147E+02 -0.12736583239E+02  0.24692917686E+02  0.00000000000E+00 0.  1.
</event>
<event>
 4    1  0.3664744E+003  0.2785768E+02  0.7546771E-02  0.1439178E+00
          2   -1    0    0  502    0  0.00000000000E+00  0.00000000000E+00  0.49846372366E+03  0.49846372366E+03  0.00000000000E+00 0. -1.
          1   -1    0    0  501    0 -0.00000000000E+00 -0.00000000000E+00 -0.14718743414E+02  0.14718743414E+02  0.00000000000E+00 0.  1.
          2    1    1    2  501    0  0.21919622831E+02  0.17192452615E+02  0.48451398224E+03  0.48531417585E+03  0.00000000000E+00 0. -1.
          1    1    1    2  502    0 -0.21919622831E+02 -0.17192452615E+02 -0.76900199253E+00  0.27868291229E+02  0.00000000000E+00 0.  1.
</event>
<event>
 4    1  0.3664744E+003  0.4680765E+02  0.7546771E-02  0.1312640E+00
          2   -1    0    0  502    0  0.00000000000E+00  0.00000000000E+00  0.10559200568E+04  0.10559200568E+04  0.00000000000E+00 0.  1.
          1   -1    0    0  501    0 -0.00000000000E+00 -0.00000000000E+00 -0.48107305456E+02  0.48107305456E+02  0.00000000000E+00 0.  1.
          2    1    1    2  501    0 -0.29243697232E+02 -0.36548079810E+02  0.10438843405E+04  0.10449332382E+04  0.00000000000E+00 0.  1.
          1    1    1    2  502    0  0.29243697232E+02  0.36548079810E+02 -0.36071589090E+02  0.59094124116E+02  0.00000000000E+00 0.  1.
</event>
<event>
 4    1  0.3664744E+003  0.2196701E+02  0.7546771E-02  0.1505893E+00
          2   -1    0    0  502    0  0.00000000000E+00  0.00000000000E+00  0.37160535320E+02  0.37160535320E+02  0.00000000000E+00 0. -1.
          1   -1    0    0  501    0 -0.00000000000E+00 -0.00000000000E+00 -0.40845017262E+02  0.40845017262E+02  0.00000000000E+00 0.  1.
          2    1    1    2  501    0 -0.20867479509E+02 -0.68627794198E+01  0.30369373943E+02  0.37481306222E+02  0.00000000000E+00 0. -1.
          1    1    1    2  502    0  0.20867479509E+02  0.68627794198E+01 -0.34053855885E+02  0.40524246360E+02  0.00000000000E+00 0.  1.
</event>
<event>
 4    1  0.3664744E+003  0.2722737E+02  0.7546771E-02  0.1445337E+00
          2   -1    0    0  502    0  0.00000000000E+00  0.00000000000E+00  0.85962512844E+02  0.85962512844E+02  0.00000000000E+00 0. -1.
          1   -1    0    0  501    0 -0.00000000000E+00 -0.00000000000E+00 -0.10860708259E+03  0.10860708259E+03  0.00000000000E+00 0. -1.
          2    1    1    2  501    0 -0.84248167023E+00 -0.27214329651E+02  0.82020219845E+02  0.86421328254E+02  0.00000000000E+00 0. -1.
          1    1    1    2  502    0  0.84248167023E+00  0.27214329651E+02 -0.10466478959E+03  0.10814826717E+03  0.00000000000E+00 0. -1.
</event>
<event>
 4    1  0.3664744E+003  0.2161512E+02  0.7546771E-02  0.1510661E+00
          2   -1    0    0  502    0  0.00000000000E+00  0.00000000000E+00  0.19876803714E+01  0.19876803714E+01  0.00000000000E+00 0. -1.
          1   -1    0    0  501    0 -0.00000000000E+00 -0.00000000000E+00 -0.25522962435E+03  0.25522962435E+03  0.00000000000E+00 0. -1.
          2    1    1    2  501    0 -0.93193608800E+01 -0.19502879975E+02 -0.16277984867E+03  0.16420868414E+03  0.00000000000E+00 0. -1.
          1    1    1    2  502    0  0.93193608800E+01  0.19502879975E+02 -0.90462095312E+02  0.93008620583E+02  0.00000000000E+00 0. -1.
</event>
<event>
 4    1  0.3664744E+003  0.2195319E+02  0.7546771E-02  0.1506079E+00
          2   -1    0    0  502    0  0.00000000000E+00  0.00000000000E+00  0.43031066113E+03  0.43031066113E+03  0.00000000000E+00 0.  1.
          1   -1    0    0  501    0 -0.00000000000E+00 -0.00000000000E+00 -0.35207908515E+01  0.35207908515E+01  0.00000000000E+00 0. -1.
          2    1    1    2  501    0  0.15823947024E+02  0.15216610749E+02  0.39251705634E+03  0.39313048986E+03  0.00000000000E+00 0.  1.
          1    1    1    2  502    0 -0.15823947024E+02 -0.15216610749E+02  0.34272813939E+02  0.40700962119E+02  0.00000000000E+00 0. -1.
</event>
<event>
 4    1  0.3664744E+003  0.2003018E+02  0.7546771E-02  0.1533575E+00
          2   -1    0    0  502    0  0.00000000000E+00  0.00000000000E+00  0.16123254712E+03  0.16123254712E+03  0.00000000000E+00 0.  1.
          1   -1    0    0  501    0 -0.00000000000E+00 -0.00000000000E+00 -0.11654642060E+02  0.11654642060E+02  0.00000000000E+00 0.  1.
          2    1    1    2  501    0 -0.19244205267E+02 -0.55559443445E+01  0.15145083276E+03  0.15276963932E+03  0.00000000000E+00 0.  1.
          1    1    1    2  502    0  0.19244205267E+02  0.55559443445E+01 -0.18729277076E+01  0.20117549853E+02  0.00000000000E+00 0.  1.
</event>
<event>
 4    1  0.3664744E+003  0.2816122E+02  0.7546771E-02  0.1436280E+00
          2   -1    0    0  502    0  0.00000000000E+00  0.00000000000E+00  0.16363285446E+04  0.16363285446E+04  0.00000000000E+00 0.  1.
          1   -1    0    0  501    0 -0.00000000000E+00 -0.00000000000E+00 -0.60801287252E+00  0.60801287252E+00  0.00000000000E+00 0. -1.
          2    1    1    2  501    0  0.22282389829E+02  0.17220602058E+02  0.11865234235E+04  0.11868575688E+04  0.00000000000E+00 0.  1.
          1    1    1    2  502    0 -0.22282389829E+02 -0.17220602058E+02  0.44919710818E+03  0.45007898865E+03  0.00000000000E+00 0. -1.
</event>
<event>
 4    1  0.3664744E+003  0.2553027E+02  0.7546771E-02  0.1462958E+00
          2   -1    0    0  502    0  0.00000000000E+00  0.00000000000E+00  0.26101360787E+03  0.26101360787E+03  0.00000000000E+00 0. -1.
          1   -1    0    0  501    0 -0.00000000000E+00 -0.00000000000E+00 -0.35690667386E+03  0.35690667386E+03  0.00000000000E+00 0. -1.
          2    1    1    2  501    0  0.25483462711E+02  0.15451854859E+01  0.25993086092E+03  0.26118163589E+03  0.00000000000E+00 0. -1.
          1    1    1    2  502    0 -0.25483462711E+02 -0.15451854859E+01 -0.35582392691E+03  0.35673864583E+03  0.00000000000E+00 0. -1.
</event>
<event>
 4    1  0.3664744E+003  0.2089433E+02  0.7546771E-02  0.1520779E+00
          2   -1    0    0  502    0  0.00000000000E+00  0.00000000000E+00  0.71087343429E+02  0.71087343429E+02  0.00000000000E+00 0. -1.
          1   -1    0    0  501    0 -0.00000000000E+00 -0.00000000000E+00 -0.82915051972E+01  0.82915051972E+01  0.00000000000E+00 0. -1.
          2    1    1    2  501    0  0.20176512272E+02  0.54296866271E+01  0.51609103023E+02  0.55678296123E+02  0.00000000000E+00 0. -1.
          1    1    1    2  502    0 -0.20176512272E+02 -0.54296866271E+01  0.11186735208E+02  0.23700552503E+02  0.00000000000E+00 0. -1.
</event>
<event>
 4    1  0.3664744E+003  0.3414177E+02  0.7546771E-02  0.1386699E+00
          2   -1    0    0  502    0  0.00000000000E+00  0.00000000000E+00  0.32326854483E+03  0.32326854483E+03  0.00000000000E+00 0. -1.
          1   -1    0    0  501    0 -0.00000000000E+00 -0.00000000000E+00 -0.38347353643E+01  0.38347353643E+01  0.00000000000E+00 0. -1.
          2    1    1    2  501    0 -0.28924127617E+02  0.18139881098E+02  0.19967352039E+03  0.20257140763E+03  0.00000000000E+00 0. -1.
          1    1    1    2  502    0  0.28924127617E+02 -0.18139881098E+02  0.11976028907E+03  0.12453187256E+03  0.00000000000E+00 0. -1.
</event>
<event>
 4    1  0.3664744E+003  0.3584490E+02  0.7546771E-02  0.1374719E+00
          2   -1    0    0  502    0  0.00000000000E+00  0.00000000000E+00  0.17927040069E+04  0.17927040069E+04  0.00000000000E+00 0.  1.
          1   -1    0    0  501    0 -0.00000000000E+00 -0.00000000000E+00 -0.25376927943E+01  0.25376927943E+01  0.00000000000E+00 0. -1.
          2    1    1    2  501    0 -0.31630754706E+02 -0.16862747934E+02  0.16554545969E+04  0.16558426191E+04  0.00000000000E+00 0.  1.
          1    1    1    2  502    0  0.31630754706E+02  0.16862747934E+02  0.13471171720E+03  0.13939908056E+03  0.00000000000E+00 0. -1.
</event>
<event>
 4    1  0.3664744E+003  0.2023318E+02  0.7546771E-02  0.1530501E+00
          2   -1    0    0  502    0  0.00000000000E+00  0.00000000000E+00  0.21918096879E+01  0.21918096879E+01  0.00000000000E+00 0.  1.
          1   -1    0    0  501    0 -0.00000000000E+00 -0.00000000000E+00 -0.28506490600E+03  0.28506490600E+03  0.00000000000E+00 0. -1.
          2    1    1    2  501    0  0.17723039880E+02 -0.97609143143E+01 -0.57099889540E+02  0.60578700682E+02  0.00000000000E+00 0.  1.
          1    1    1    2  502    0 -0.17723039880E+02  0.97609143143E+01 -0.22577320677E+03  0.22667801500E+03  0.00000000000E+00 0. -1.
</event>
<event>
 4    1  0.5132008E+003  0.2888809E+02  0.7546771E-02  0.1429511E+00
          2   -1    0    0  502    0  0.00000000000E+00  0.00000000000E+00  0.12931603498E+04  0.12931603498E+04  0.00000000000E+00 0.  1.
          1   -1    0    0  501    0 -0.00000000000E+00 -0.00000000000E+00 -0.56781775098E+03  0.56781775098E+03  0.00000000000E+00 0.  1.
          2    1    1    2  501    0  0.21760553549E+02  0.19000003245E+02  0.12926314407E+04  0.12929542000E+04  0.00000000000E+00 0.  1.
          1    1    1    2  502    0 -0.21760553549E+02 -0.19000003245E+02 -0.56728884185E+03  0.56802390082E+03  0.00000000000E+00 0.  1.
</event>
<event>
 4    1  0.3664744E+003  0.2855815E+02  0.7546771E-02  0.1432554E+00
          2   -1    0    0  502    0  0.00000000000E+00  0.00000000000E+00  0.25005035857E+01  0.25005035857E+01  0.00000000000E+00 0.  1.
          1   -1    0    0  501    0 -0.00000000000E+00 -0.00000000000E+00 -0.95111165481E+03  0.95111165481E+03  0.00000000000E+00 0. -1.
          2    1    1    2  501    0 -0.23716632254E+02  0.15908772161E+02 -0.87806226309E+02  0.92333639892E+02  0.00000000000E+00 0.  1.
          1    1    1    2  502    0  0.23716632254E+02 -0.15908772161E+02 -0.86080492492E+03  0.86127851851E+03  0.00000000000E+00 0. -1.
</event>
<event>
 4    1  0.3664744E+003  0.3247540E+02  0.7546771E-02  0.1399237E+00
          2   -1    0    0  502    0  0.00000000000E+00  0.00000000000E+00  0.94500009407E+03  0.94500009407E+03  0.00000000000E+00 0.  1.
          1   -1    0    0  501    0 -0.00000000000E+00 -0.00000000000E+00 -0.68123091120E+01  0.68123091120E+01  0.00000000000E+00 0.  1.
          2    1    1    2  501    0  0.28802802568E+02 -0.15001667118E+02  0.90427466702E+03  0.90485762685E+03  0.00000000000E+00 0.  1.
          1    1    1    2  502    0 -0.28802802568E+02  0.15001667118E+02  0.33913117933E+02  0.46954776328E+02  0.00000000000E+00 0.  1.
</event>
<event>
 4    1  0.3664744E+003  0.2017080E+02  0.7546771E-02  0.1531441E+00
          2   -1    0    0  502    0  0.00000000000E+00  0.00000000000E+00  0.12201641092E+01  0.12201641092E+01  0.00000000000E+00 0. -1.
          1   -1    0    0  501    0 -0.00000000000E+00 -0.00000000000E+00 -0.52428112836E+03  0.52428112836E+03  0.00000000000E+00 0. -1.
          2    1    1    2  501    0  0.40015544585E+01  0.19769892408E+02 -0.10300877170E+03  0.10496508054E+03  0.00000000000E+00 0. -1.
          1    1    1    2  502    0 -0.40015544585E+01 -0.19769892408E+02 -0.42005219255E+03  0.42053621194E+03  0.00000000000E+00 0. -1.
</event>
<event>
 4    1  0.3664744E+003  0.2851511E+02  0.7546771E-02  0.1432955E+00
          2   -1    0    0  502    0  0.00000000000E+00  0.00000000000E+00  0.11669964110E+03  0.11669964110E+03  0.00000000000E+00 0.  1.
          1   -1    0    0  501    0 -0.00000000000E+00 -0.00000000000E+00 -0.72526059092E+01  0.72526059092E+01  0.00000000000E+00 0. -1.
          2    1    1    2  501    0  0.14202084292E+02  0.24726755288E+02  0.67010227298E+02  0.72825010730E+02  0.00000000000E+00 0.  1.
          1    1    1    2  502    0 -0.14202084292E+02 -0.24726755288E+02  0.42436807890E+02  0.51127236276E+02  0.00000000000E+00 0. -1.
</event>
<event>
 4    1  0.3664744E+003  0.3413611E+02  0.7546771E-02  0.1386740E+00
          2   -1    0    0  502    0  0.00000000000E+00  0.00000000000E+00  0.14840988431E+03  0.14840988431E+03  0.00000000000E+00 0.  1.
          1   -1    0    0  501    0 -0.00000000000E+00 -0.00000000000E+00 -0.20895840285E+02  0.20895840285E+02  0.00000000000E+00 0. -1.
          2    1    1    2  501    0  0.26312806465E+01  0.34034550358E+02  0.13064051832E+03  0.13502673544E+03  0.00000000000E+00 0.  1.
          1    1    1    2  502    0 -0.26312806465E+01 -0.34034550358E+02 -0.31264742985E+01  0.34278989155E+02  0.00000000000E+00 0. -1.
</event>
<event>
 4    1  0.3664744E+003  0.2009242E+02  0.7546771E-02  0.1532628E+00
          2   -1    0    0  502    0  0.00000000000E+00  0.00000000000E+00  0.14569258572E+04  0.14569258572E+04  0.00000000000E+00 0.  1.
          1   -1    0    0  501    0 -0.00000000000E+00 -0.00000000000E+00 -0.52067548579E+02  0.52067548579E+02  0.00000000000E+00 0.  1.
          2    1    1    2  501    0 -0.15464765408E+02  0.12827560093E+02  0.14549155328E+04  0.14550542645E+04  0.00000000000E+00 0.  1.
          1    1    1    2  502    0  0.15464765408E+02 -0.12827560093E+02 -0.50057224153E+02  0.53939141233E+02  0.00000000000E+00 0.  1.
</event>
<event>
 4    1  0.3664744E+003  0.3320943E+02  0.7546771E-02  0.1393608E+00
          2   -1    0    0  502    0  0.00000000000E+00  0.00000000000E+00  0.11113860611E+04  0.11113860611E+04  0.00000000000E+00 0.  1.
          1   -1    0    0  501    0 -0.00000000000E+00 -0.00000000000E+00 -0.20748384144E+01  0.20748384144E+01  0.00000000000E+00 0.  1.
          2    1    1    2  501    0 -0.32504490125E+02  0.68061942257E+01  0.95678672480E+03  0.95736288987E+03  0.00000000000E+00 0.  1.
          1    1    1    2  502    0  0.32504490125E+02 -0.68061942257E+01  0.15252449792E+03  0.15609800968E+03  0.00000000000E+00 0.  1.
</event>
<event>
 4    1  0.3664744E+003  0.2399431E+02  0.7546771E-02  0.1480376E+00
          2   -1    0    0  502    0  0.00000000000E+00  0.00000000000E+00  0.14523293293E+04  0.14523293293E+04  0.00000000000E+00 0. -1.
          1   -1    0    0  501    0 -0.00000000000E+00 -0.00000000000E+00 -0.19450472775E+02  0.19450472775E+02  0.00000000000E+00 0.  1.
          2    1    1    2  501    0  0.12815052350E+00  0.23993972146E+02  0.14447917102E+04  0.14449909387E+04  0.00000000000E+00 0. -1.
          1    1    1    2  502    0 -0.12815052350E+00 -0.23993972146E+02 -0.11912853614E+02  0.26788863416E+02  0.00000000000E+00 0.  1.
</event>
<event>
 4    1  0.3664744E+003  0.2214464E+02  0.7546771E-02  0.1503528E+00
          2   -1    0    0  502    0  0.00000000000E+00  0.00000000000E+00  0.16606799539E+02  0.16606799539E+02  0.00000000000E+00 0.  1.
          1   -1    0    0  501    0 -0.00000000000E+00 -0.00000000000E+00 -0.37226814665E+02  0.37226814665E+02  0.00000000000E+00 0.  1.
          2    1    1    2  501    0 -0.64158516151E+01 -0.21194851454E+02  0.19298044723E+01  0.22228563278E+02  0.00000000000E+00 0.  1.
          1    1    1    2  502    0  0.64158516151E+01  0.21194851454E+02 -0.22549819599E+02  0.31605050926E+02  0.00000000000E+00 0.  1.
</event>
<event>
 4    1  0.3664744E+003  0.2188848E+02  0.7546771E-02  0.1506948E+00
          2   -1    0    0  502    0  0.00000000000E+00  0.00000000000E+00  0.90674913419E+00  0.90674913419E+00  0.00000000000E+00 0. -1.
          1   -1    0    0  501    0 -0.00000000000E+00 -0.00000000000E+00 -0.53091150545E+03  0.53091150545E+03  0.00000000000E+00 0. -1.
          2    1    1    2  501    0 -0.11792125647E+01  0.21856695634E+02 -0.24663105082E+03  0.24760044611E+03  0.00000000000E+00 0. -1.
          1    1    1    2  502    0  0.11792125647E+01 -0.21856695634E+02 -0.28337370549E+03  0.28421780847E+03  0.00000000000E+00 0. -1.
</event>
<event>
 4    1  0.3664744E+003  0.2191174E+02  0.7546771E-02  0.1506635E+00
          2   -1    0    0  502    0  0.00000000000E+00  0.00000000000E+00  0.31955653991E+02  0.31955653991E+02  0.00000000000E+00 0.  1.
          1   -1    0    0  501    0 -0.00000000000E+00 -0.00000000000E+00 -0.21486329893E+03  0.21486329893E+03  0.00000000000E+00 0. -1.
          2    1    1    2  501    0 -0.28198888863E+01  0.21729529275E+02  0.27562650215E+02  0.35211133221E+02  0.00000000000E+00 0.  1.
          1    1    1    2  502    0  0.28198888863E+01 -0.21729529275E+02 -0.21047029516E+03  0.21160781970E+03  0.00000000000E+00 0. -1.
</event>
<event>
 4    1  0.3664744E+003  0.2808463E+02  0.7546771E-02  0.1437007E+00
          2   -1    0    0  502    0  0.00000000000E+00  0.00000000000E+00  0.47280371742E+02  0.47280371742E+02  0.00000000000E+00 0.  1.
          1   -1    0    0  501    0 -0.00000000000E+00 -0.00000000000E+00 -0.21615757897E+03  0.21615757897E+03  0.00000000000E+00 0.  1.
          2    1    1    2  501    0  0.17825684107E+02  0.21702332667E+02  0.42095510685E+02  0.50604133002E+02  0.00000000000E+00 0.  1.
          1    1    1    2  502    0 -0.17825684107E+02 -0.21702332667E+02 -0.21097271791E+03  0.21283381771E+03  0.00000000000E+00 0.  1.
</event>
<event>
 4    1  0.3664744E+003  0.4330308E+02  0.7546771E-02  0.1330146E+00
          2   -1    0    0  502    0  0.00000000000E+00  0.00000000000E+00  0.47383428177E+03  0.47383428177E+03  0.00000000000E+00 0. -1.
          1   -1    0    0  501    0 -0.00000000000E+00 -0.00000000000E+00 -0.11947318289E+03  0.11947318289E+03  0.00000000000E+00 0.  1.
          2    1    1    2  501    0  0.41306599474E+02 -0.12996980066E+02  0.46887975305E+03  0.47087512088E+03  0.00000000000E+00 0. -1.
          1    1    1    2  502    0 -0.41306599474E+02  0.12996980066E+02 -0.11451865416E+03  0.12243234377E+03  0.00000000000E+00 0.  1.
</event>
<event>
 4    1  0.3664744E+003  0.2100894E+02  0.7546771E-02  0.1519137E+00
          2   -1    0    0  502    0  0.00000000000E+00  0.00000000000E+00  0.62133433404E+02  0.62133433404E+02  0.00000000000E+00 0.  1.
          1   -1    0    0  501    0 -0.00000000000E+00 -0.00000000000E+00 -0.71792078145E+01  0.71792078145E+01  0.00000000000E+00 0.  1.
          2    1    1    2  501    0 -0.62385992380E+01 -0.20061292244E+02  0.31031944071E+02  0.37474753098E+02  0.00000000000E+00 0.  1.
          1    1    1    2  502    0  0.62385992380E+01  0.20061292244E+02  0.23922281519E+02  0.31837888121E+02  0.00000000000E+00 0.  1.
</event>
<event>
 4    1  0.3664744E+003  0.3527524E+02  0.7546771E-02  0.1378638E+00
          2   -1    0    0  502    0  0.00000000000E+00  0.00000000000E+00  0.38291189315E+02  0.38291189315E+02  0.00000000000E+00 0.  1.
          1   -1    0    0  501    0 -0.00000000000E+00 -0.00000000000E+00 -0.18217950135E+03  0.18217950135E+03  0.00000000000E+00 0.  1.
          2    1    1    2  501    0  0.21070661527E+02 -0.28290807201E+02  0.27976865318E+02  0.45022744721E+02  0.00000000000E+00 0.  1.
          1    1    1    2  502    0 -0.21070661527E+02  0.28290807201E+02 -0.17186517735E+03  0.17544794594E+03  0.00000000000E+00 0.  1.
</event>
<event>
 4    1  0.3664744E+003  0.2032192E+02  0.7546771E-02  0.1529170E+00
          2   -1    0    0  502    0  0.00000000000E+00  0.00000000000E+00  0.38637481961E+03  0.38637481961E+03  0.00000000000E+00 0.  1.
          1   -1    0    0  501    0 -0.00000000000E+00 -0.00000000000E+00 -0.16662834978E+01  0.16662834978E+01  0.00000000000E+00 0.  1.
          2    1    1    2  501    0  0.52203089151E+01 -0.19639978375E+02  0.30852979195E+03  0.30919833909E+03  0.00000000000E+00 0.  1.
          1    1    1    2  502    0 -0.52203089151E+01  0.19639978375E+02  0.76178744160E+02  0.78842764015E+02  0.00000000000E+00 0.  1.
</event>
<event>
 4    1  0.3664744E+003  0.2830498E+02  0.7546771E-02  0.1434922E+00
          2   -1    0    0  502    0  0.00000000000E+00  0.00000000000E+00  0.12272405366E+04  0.12272405366E+04  0.00000000000E+00 0. -1.
          1   -1    0    0  501    0 -0.00000000000E+00 -0.00000000000E+00 -0.18069739747E+03  0.18069739747E+03  0.00000000000E+00 0.  1.
          2    1    1    2  501    0 -0.24968472093E+02  0.13332188263E+02  0.12259677359E+04  0.12262944432E+04  0.00000000000E+00 0. -1.
          1    1    1    2  502    0  0.24968472093E+02 -0.13332188263E+02 -0.17942459680E+03  0.18164349088E+03  0.00000000000E+00 0.  1.
</event>
<event>
 4    1  0.3664744E+003  0.2146368E+02  0.7546771E-02  0.1512747E+00
          2   -1    0    0  502    0  0.00000000000E+00  0.00000000000E+00  0.64205930340E+02  0.64205930340E+02  0.00000000000E+00 0. -1.
          1   -1    0    0  501    0 -0.00000000000E+00 -0.00000000000E+00 -0.83058659629E+02  0.83058659629E+02  0.00000000000E+00 0. -1.
          2    1    1    2  501    0 -0.71768683685E+01 -0.20228252305E+02  0.60953669459E+02  0.64622282933E+02  0.00000000000E+00 0. -1.
          1    1    1    2  502    0  0.71768683685E+01  0.20228252305E+02 -0.79806398749E+02  0.82642307036E+02  0.00000000000E+00 0. -1.
</event>
<event>
 4    1  0.3664744E+003  0.2077574E+02  0.7546771E-02  0.1522491E+00
          2   -1    0    0  502    0  0.00000000000E+00  0.00000000000E+00  0.89073893892E+01  0.89073893892E+01  0.00000000000E+00 0.  1.
          1   -1    0    0  501    0 -0.00000000000E+00 -0.00000000000E+00 -0.58503598417E+03  0.58503598417E+03  0.00000000000E+00 0. -1.
          2    1    1    2  501    0 -0.57411110502E+01 -0.19966746415E+02 -0.36572752041E+01  0.21095188560E+02  0.00000000000E+00 0.  1.
          1    1    1    2  502    0  0.57411110502E+01  0.19966746415E+02 -0.57247131958E+03  0.57284818500E+03  0.00000000000E+00 0. -1.
</event>
<event>
 4    1  0.3664744E+003  0.2261908E+02  0.7546771E-02  0.1497338E+00
          2   -1    0    0  502    0  0.00000000000E+00  0.00000000000E+00  0.66301615956E+03  0.66301615956E+03  0.00000000000E+00 0. -1.
          1   -1    0    0  501    0 -0.00000000000E+00 -0.00000000000E+00 -0.24389032898E+01  0.24389032898E+01  0.00000000000E+00 0. -1.
          2    1    1    2  501    0 -0.35233829213E+01  0.22342970845E+02  0.60538890711E+03  0.60581131668E+03  0.00000000000E+00 0. -1.
          1    1    1    2  502    0  0.35233829213E+01 -0.22342970845E+02  0.55188349161E+02  0.59643746164E+02  0.00000000000E+00 0. -1.
</event>
<event>
 4    1  0.3664744E+003  0.2731497E+02  0.7546771E-02  0.1444470E+00
          2   -1    0    0  502    0  0.00000000000E+00  0.00000000000E+00  0.34046183060E+03  0.34046183060E+03  0.00000000000E+00 0.  1.
          1   -1    0    0  501    0 -0.00000000000E+00 -0.00000000000E+00 -0.28865515050E+01  0.28865515050E+01  0.00000000000E+00 0.  1.
          2    1    1    2  501    0  0.27123292684E+02  0.32302663590E+01  0.25303128088E+03  0.25450134917E+03  0.00000000000E+00 0.  1.
          1    1    1    2  502    0 -0.27123292684E+02 -0.32302663590E+01  0.84543998215E+02  0.88847032933E+02  0.00000000000E+00 0.  1.
</event>
<event>
 4    1  0.3664744E+003  0.2746279E+02  0.7546771E-02  0.1443014E+00
          2   -1    0    0  502    0  0.00000000000E+00  0.00000000000E+00  0.74191401896E+02  0.74191401896E+02  0.00000000000E+00 0. -1.
          1   -1    0    0  501    0 -0.00000000000E+00 -0.00000000000E+00 -0.10522494299E+02  0.10522494299E+02  0.00000000000E+00 0. -1.
          2    1    1    2  501    0 -0.20051421314E+02  0.18765538628E+02  0.39634471196E+02  0.48219251795E+02  0.00000000000E+00 0. -1.
          1    1    1    2  502    0  0.20051421314E+02 -0.18765538628E+02  0.24034436402E+02  0.36494644399E+02  0.00000000000E+00 0. -1.
</event>
<event>
 4    1  0.3664744E+003  0.2280558E+02  0.7546771E-02  0.1494954E+00
          2   -1    0    0  502    0  0.00000000000E+00  0.00000000000E+00  0.50943292502E+02  0.50943292502E+02  0.00000000000E+00 0.  1.
          1   -1    0    0  501    0 -0.00000000000E+00 -0.00000000000E+00 -0.44641111318E+02  0.44641111318E+02  0.00000000000E+00 0.  1.
          2    1    1    2  501    0 -0.22010876885E+01  0.22699110232E+02  0.45124050401E+02  0.50559611518E+02  0.00000000000E+00 0.  1.
          1    1    1    2  502    0  0.22010876885E+01 -0.22699110232E+02 -0.38821869217E+02  0.45024792302E+02  0.00000000000E+00 0.  1.
</event>
<event>
 4    1  0.3664744E+003  0.2064190E+02  0.7546771E-02  0.1524439E+00
          2   -1    0    0  502    0  0.00000000000E+00  0.00000000000E+00  0.14392253894E+01  0.14392253894E+01  0.00000000000E+00 0.  1.
          1   -1    0    0  501    0 -0.00000000000E+00 -0.00000000000E+00 -0.71975965235E+03  0.71975965235E+03  0.00000000000E+00 0. -1.
          2    1    1    2  501    0  0.15406689519E+02  0.13737614981E+02 -0.82489284420E+02  0.85032759519E+02  0.00000000000E+00 0.  1.
          1    1    1    2  502    0 -0.15406689519E+02 -0.13737614981E+02 -0.63583114254E+03  0.63616611822E+03  0.00000000000E+00 0. -1.
</event>
<event>
 4    1  0.3664744E+003  0.2729445E+02  0.7546771E-02  0.1444672E+00
          2   -1    0    0  502    0  0.00000000000E+00  0.00000000000E+00  0.13132676452E+04  0.13132676452E+04  0.00000000000E+00 0. -1.
          1   -1    0    0  501    0 -0.00000000000E+00 -0.00000000000E+00 -0.11879429455E+02  0.11879429455E+02  0.00000000000E+00 0.  1.
          2    1    1    2  501    0  0.22477054350E+02  0.15484483254E+02  0.12972542225E+04  0.12975413308E+04  0.00000000000E+00 0. -1.
          1    1    1    2  502    0 -0.22477054350E+02 -0.15484483254E+02  0.41339931838E+01  0.27605743851E+02  0.00000000000E+00 0.  1.
</event>
<event>
 4    1  0.3664744E+003  0.2575669E+02  0.7546771E-02  0.1460514E+00
          2   -1    0    0  502    0  0.00000000000E+00  0.00000000000E+00  0.51707839044E+03  0.51707839044E+03  0.00000000000E+00 0.  1.
          1   -1    0    0  501    0 -0.00000000000E+00 -0.00000000000E+00 -0.78576474273E+01  0.78576474273E+01  0.00000000000E+00 0.  1.
          2    1    1    2  501    0  0.25755102899E+02  0.28634929483E+00  0.49469625764E+03  0.49536632369E+03  0.00000000000E+00 0.  1.
          1    1    1    2  502    0 -0.25755102899E+02 -0.28634929483E+00  0.14524485372E+02  0.29569714178E+02  0.00000000000E+00 0.  1.
</event>
<event>
 4    1  0.3664744E+003  0.2032268E+02  0.7546771E-02  0.1529159E+00
          2   -1    0    0  502    0  0.00000000000E+00  0.00000000000E+00  0.14968053885E+02  0.14968053885E+02  0.00000000000E+00 0. -1.
          1   -1    0    0  501    0 -0.00000000000E+00 -0.00000000000E+00 -0.47003373239E+03  0.47003373239E+03  0.00000000000E+00 0.  1.
          2    1    1    2  501    0  0.80585877354E+01  0.18656647848E+02  0.77425233706E+01  0.21747597876E+02  0.00000000000E+00 0. -1.
          1    1    1    2  502    0 -0.80585877354E+01 -0.18656647848E+02 -0.46280820188E+03  0.46325418840E+03  0.00000000000E+00 0.  1.
</event>
<event>
 4    1  0.3664744E+003  0.2397953E+02  0.7546771E-02  0.1480551E+00
          2   -1    0    0  502    0  0.00000000000E+00  0.00000000000E+00  0.15612070242E+04  0.15612070242E+04  0.00000000000E+00 0.  1.
          1   -1    0    0  501    0 -0.00000000000E+00 -0.00000000000E+00 -0.12539471237E+03  0.12539471237E+03  0.00000000000E+00 0. -1.
          2    1    1    2  501    0  0.36903640818E+01  0.23693865377E+02  0.15599676183E+04  0.15601519119E+04  0.00000000000E+00 0.  1.
          1    1    1    2  502    0 -0.36903640818E+01 -0.23693865377E+02 -0.12415530645E+03  0.12644982469E+03  0.00000000000E+00 0. -1.
</event>
<event>
 4    1  0.3664744E+003  0.2958818E+02  0.7546771E-02  0.1423209E+00
          2   -1    0    0  502    0  0.00000000000E+00  0.00000000000E+00  0.77349114107E+00  0.77349114107E+00  0.00000000000E+00 0.  1.
          1   -1    0    0  501    0 -0.00000000000E+00 -0.00000000000E+00 -0.11690436080E+04  0.11690436080E+04  0.00000000000E+00 0.  1.
          2    1    1    2  501    0 -0.10333997018E+02  0.27724873528E+02 -0.47977692397E+03  0.48068841975E+03  0.00000000000E+00 0.  1.
          1    1    1    2  502    0  0.10333997018E+02 -0.27724873528E+02 -0.68849319288E+03  0.68912867939E+03  0.00000000000E+00 0.  1.
</event>
<event>
 4    1  0.3664744E+003  0.5664434E+02  0.7546771E-02  0.1271681E+00
          2   -1    0    0  502    0  0.00000000000E+00  0.00000000000E+00  0.14145665830E+04  0.14145665830E+04  0.00000000000E+00 0.  1.
          1   -1    0    0  501    0 -0.00000000000E+00 -0.00000000000E+00 -0.11046672024E+03  0.11046672024E+03  0.00000000000E+00 0. -1.
          2    1    1    2  501    0  0.38154048887E+02 -0.41867054420E+02  0.14066974965E+04  0.14078375007E+04  0.00000000000E+00 0.  1.
          1    1    1    2  502    0 -0.38154048887E+02  0.41867054420E+02 -0.10259763373E+03  0.11719580256E+03  0.00000000000E+00 0. -1.
</event>
<event>
 4    1  0.3664744E+003  0.3368204E+02  0.7546771E-02  0.1390073E+00
          2   -1    0    0  502    0  0.00000000000E+00  0.00000000000E+00  0.14892999914E+02  0.14892999914E+02  0.00000000000E+00 0.  1.
          1   -1    0    0  501    0 -0.00000000000E+00 -0.00000000000E+00 -0.20464282441E+04  0.20464282441E+04  0.00000000000E+00 0. -1.
          2    1    1    2  501    0 -0.22540010536E+02  0.25028543574E+02 -0.44713516837E+01  0.33977537496E+02  0.00000000000E+00 0.  1.
          1    1    1    2  502    0  0.22540010536E+02 -0.25028543574E+02 -0.20270638925E+04  0.20273437065E+04  0.00000000000E+00 0. -1.
</event>
<event>
 4    1  0.3664744E+003  0.2363963E+02  0.7546771E-02  0.1484619E+00
          2   -1    0    0  502    0  0.00000000000E+00  0.00000000000E+00  0.36262924580E+03  0.36262924580E+03  0.00000000000E+00 0.  1.
          1   -1    0    0  501    0 -0.00000000000E+00 -0.00000000000E+00 -0.42019557829E+01  0.42019557829E+01  0.00000000000E+00 0. -1.
          2    1    1    2  501    0 -0.35796474981E+01  0.23367031090E+02  0.32517059619E+03  0.32602875432E+03  0.00000000000E+00 0.  1.
          1    1    1    2  502    0  0.35796474981E+01 -0.23367031090E+02  0.33256693826E+02  0.40802447260E+02  0.00000000000E+00 0. -1.
</event>
<event>
 4    1  0.3664744E+003  0.2158890E+02  0.7546771E-02  0.1511021E+00
          2   -1    0    0  502    0  0.00000000000E+00  0.00000000000E+00  0.15620396511E+02  0.15620396511E+02  0.00000000000E+00 0. -1.
          1   -1    0    0  501    0 -0.00000000000E+00 -0.00000000000E+00 -0.31297756279E+02  0.31297756279E+02  0.00000000000E+00 0. -1.
          2    1    1    2  501    0  0.66707751181E+01 -0.20532442649E+02 -0.27722326557E+01  0.21766159875E+02  0.00000000000E+00 0. -1.
          1    1    1    2  502    0 -0.66707751181E+01  0.20532442649E+02 -0.12905127113E+02  0.25151992915E+02  0.00000000000E+00 0. -1.
</event>
<event>
 4    1  0.3664744E+003  0.2874072E+02  0.7546771E-02  0.1430864E+00
          2   -1    0    0  502    0  0.00000000000E+00  0.00000000000E+00  0.37637867044E+01  0.37637867044E+01  0.00000000000E+00 0. -1.
          1   -1    0    0  501    0 -0.00000000000E+00 -0.00000000000E+00 -0.53266142091E+03  0.53266142091E+03  0.00000000000E+00 0. -1.
          2    1    1    2  501    0 -0.18709439679E+02  0.21817104351E+02 -0.58783923978E+02  0.65433774869E+02  0.00000000000E+00 0. -1.
          1    1    1    2  502    0  0.18709439679E+02 -0.21817104351E+02 -0.47011371022E+03  0.47099143274E+03  0.00000000000E+00 0. -1.
</event>
<event>
 4    1  0.3664744E+003  0.2231311E+02  0.7546771E-02  0.1501308E+00
          2   -1    0    0  502    0  0.00000000000E+00  0.00000000000E+00  0.10325248777E+04  0.10325248777E+04  0.00000000000E+00 0. -1.
          1   -1    0    0  501    0 -0.00000000000E+00 -0.00000000000E+00 -0.20475644761E+01  0.20475644761E+01  0.00000000000E+00 0. -1.
          2    1    1    2  501    0  0.71097134437E+01 -0.21150103209E+02  0.96753284782E+03  0.96779010457E+03  0.00000000000E+00 0. -1.
          1    1    1    2  502    0 -0.71097134437E+01  0.21150103209E+02  0.62944465369E+02  0.66782337572E+02  0.00000000000E+00 0. -1.
</event>
<event>
 4    1  0.3664744E+003  0.2436089E+02  0.7546771E-02  0.1476082E+00
          2   -1    0    0  502    0  0.00000000000E+00  0.00000000000E+00  0.13555946210E+04  0.13555946210E+04  0.00000000000E+00 0. -1.
          1   -1    0    0  501    0 -0.00000000000E+00 -0.00000000000E+00 -0.92876774507E+01  0.92876774507E+01  0.00000000000E+00 0. -1.
          2    1    1    2  501    0 -0.14283317083E+02 -0.19734228375E+02  0.13393168435E+04  0.13395383758E+04  0.00000000000E+00 0. -1.
          1    1    1    2  502    0  0.14283317083E+02  0.19734228375E+02  0.69901000234E+01  0.25343922640E+02  0.00000000000E+00 0. -1.
</event>
<event>
 4    1  0.3664744E+003  0.2235766E+02  0.7546771E-02  0.1500726E+00
          2   -1    0    0  502    0  0.00000000000E+00  0.00000000000E+00  0.12672306339E+02  0.12672306339E+02  0.00000000000E+00 0.  1.
          1   -1    0    0  501    0 -0.00000000000E+00 -0.00000000000E+00 -0.40676311802E+03  0.40676311802E+03  0.00000000000E+00 0.  1.
          2    1    1    2  501    0  0.52819143653E+01  0.21724783318E+02  0.22444699699E+01  0.22470035047E+02  0.00000000000E+00 0.  1.
          1    1    1    2  502    0 -0.52819143653E+01 -0.21724783318E+02 -0.39633528165E+03  0.39696538931E+03  0.00000000000E+00 0.  1.
</event>
<event>
 4    1  0.3664744E+003  0.2648055E+02  0.7546771E-02  0.1452897E+00
          2   -1    0    0  502    0  0.00000000000E+00  0.00000000000E+00  0.99596923190E+03  0.99596923190E+03  0.00000000000E+00 0.  1.
          1   -1    0    0  501    0 -0.00000000000E+00 -0.00000000000E+00 -0.90215699650E+00  0.90215699650E+00  0.00000000000E+00 0.  1.
          2    1    1    2  501    0 -0.16285860372E+02  0.20880384413E+02  0.73109955604E+03  0.73157896399E+03  0.00000000000E+00 0.  1.
          1    1    1    2  502    0  0.16285860372E+02 -0.20880384413E+02  0.26396751886E+03  0.26529242491E+03  0.00000000000E+00 0.  1.
</event>
<event>
 4    1  0.3664744E+003  0.2003605E+02  0.7546771E-02  0.1533485E+00
          2   -1    0    0  502    0  0.00000000000E+00  0.00000000000E+00  0.31593953421E+03  0.31593953421E+03  0.00000000000E+00 0. -1.
          1   -1    0    0  501    0 -0.00000000000E+00 -0.00000000000E+00 -0.59489812601E+02  0.59489812601E+02  0.00000000000E+00 0.  1.
          2    1    1    2  501    0  0.10541451906E+02 -0.17038806618E+02  0.31392403100E+03  0.31456277653E+03  0.00000000000E+00 0. -1.
          1    1    1    2  502    0 -0.10541451906E+02  0.17038806618E+02 -0.57474309385E+02  0.60866570287E+02  0.00000000000E+00 0.  1.
</event>
<event>
 4    1  0.3664744E+003  0.2139254E+02  0.7546771E-02  0.1513734E+00
          2   -1    0    0  502    0  0.00000000000E+00  0.00000000000E+00  0.19855876576E+03  0.19855876576E+03  0.00000000000E+00 0.  1.
          1   -1    0    0  501    0 -0.00000000000E+00 -0.00000000000E+00 -0.41005414333E+01  0.41005414333E+01  0.00000000000E+00 0.  1.
          2    1    1    2  501    0  0.48003780310E+01  0.20846997413E+02  0.16428489252E+03  0.16567186496E+03  0.00000000000E+00 0.  1.
          1    1    1    2  502    0 -0.48003780310E+01 -0.20846997413E+02  0.30173331808E+02  0.36987442231E+02  0.00000000000E+00 0.  1.
</event>
<event>
 4    1  0.3664744E+003  0.4517140E+02  0.7546771E-02  0.1320585E+00
          2   -1    0    0  502    0  0.00000000000E+00  0.00000000000E+00  0.25699299999E+01  0.25699299999E+01  0.00000000000E+00 0.  1.
          1   -1    0    0  501    0 -0.00000000000E+00 -0.00000000000E+00 -0.10357407594E+04  0.10357407594E+04  0.00000000000E+00 0.  1.
          2    1    1    2  501    0  0.40340746839E+02 -0.20324363846E+02 -0.26576043685E+03  0.26957200414E+03  0.00000000000E+00 0.  1.
          1    1    1    2  502    0 -0.40340746839E+02  0.20324363846E+02 -0.76741039251E+03  0.76873868522E+03  0.00000000000E+00 0.  1.
</event>
<event>
 4    1  0.3664744E+003  0.3655190E+02  0.7546771E-02  0.1369969E+00
          2   -1    0    0  502    0  0.00000000000E+00  0.00000000000E+00  0.54941592348E+03  0.54941592348E+03  0.00000000000E+00 0.  1.
          1   -1    0    0  501    0 -0.00000000000E+00 -0.00000000000E+00 -0.51523584943E+01  0.51523584943E+01  0.00000000000E+00 0.  1.
          2    1    1    2  501    0 -0.20241257145E+02 -0.30435719087E+02  0.47362253509E+03  0.47503089082E+03  0.00000000000E+00 0.  1.
          1    1    1    2  502    0  0.20241257145E+02  0.30435719087E+02  0.70641029901E+02  0.79537391161E+02  0.00000000000E+00 0.  1.
</event>
<event>
 4    1  0.3664744E+003  0.2114224E+02  0.7546771E-02  0.1517244E+00
          2   -1    0    0  502    0  0.00000000000E+00  0.00000000000E+00  0.34596839412E+01  0.34596839412E+01  0.00000000000E+00 0.  1.
          1   -1    0    0  501    0 -0.00000000000E+00 -0.00000000000E+00 -0.74794315306E+03  0.74794315306E+03  0.00000000000E+00 0. -1.
          2    1    1    2  501    0 -0.48914703022E+01 -0.20568615921E+02 -0.30527232733E+02  0.37133628707E+02  0.00000000000E+00 0.  1.
          1    1    1    2  502    0  0.48914703022E+01  0.20568615921E+02 -0.71395623639E+03  0.71426920830E+03  0.00000000000E+00 0. -1.
</event>
<event>
 4    1  0.3664744E+003  0.2636746E+02  0.7546771E-02  0.1454068E+00
          2   -1    0    0  502    0  0.00000000000E+00  0.00000000000E+00  0.11308795010E+01  0.11308795010E+01  0.00000000000E+00 0. -1.
          1   -1    0    0  501    0 -0.00000000000E+00 -0.00000000000E+00 -0.92898098575E+03  0.92898098575E+03  0.00000000000E+00 0. -1.
          2    1    1    2  501    0  0.12937069292E+02 -0.22975537387E+02 -0.19346386666E+03  0.19525242837E+03  0.00000000000E+00 0. -1.
          1    1    1    2  502    0 -0.12937069292E+02  0.22975537387E+02 -0.73438623959E+03  0.73485943689E+03  0.00000000000E+00 0. -1.
</event>
<event>
 4    1  0.3664744E+003  0.2297094E+02  0.7546771E-02  0.1492863E+00
          2   -1    0    0  502    0  0.00000000000E+00  0.00000000000E+00  0.10845228264E+03  0.10845228264E+03  0.00000000000E+00 0.  1.
          1   -1    0    0  501    0 -0.00000000000E+00 -0.00000000000E+00 -0.24456796847E+03  0.24456796847E+03  0.00000000000E+00 0.  1.
          2    1    1    2  501    0 -0.22579666566E+01  0.22859698518E+02  0.10668772742E+03  0.10913265053E+03  0.00000000000E+00 0.  1.
          1    1    1    2  502    0  0.22579666566E+01 -0.22859698518E+02 -0.24280341325E+03  0.24388760058E+03  0.00000000000E+00 0.  1.
</event>
<event>
 4    1  0.3664744E+003  0.2015496E+02  0.7546771E-02  0.1531680E+00
          2   -1    0    0  502    0  0.00000000000E+00  0.00000000000E+00  0.24020286819E+03  0.24020286819E+03  0.00000000000E+00 0.  1.
          1   -1    0    0  501    0 -0.00000000000E+00 -0.00000000000E+00 -0.21721818043E+01  0.21721818043E+01  0.00000000000E+00 0. -1.
          2    1    1    2  501    0  0.12840155304E+02  0.15535529981E+02  0.17604368094E+03  0.17719367901E+03  0.00000000000E+00 0.  1.
          1    1    1    2  502    0 -0.12840155304E+02 -0.15535529981E+02  0.61987005438E+02  0.65181370983E+02  0.00000000000E+00 0. -1.
</event>
<event>
 4    1  0.3664744E+003  0.3150581E+02  0.7546771E-02  0.1406947E+00
          2   -1    0    0  502    0  0.00000000000E+00  0.00000000000E+00  0.55121660523E+03  0.55121660523E+03  0.00000000000E+00 0. -1.
          1   -1    0    0  501    0 -0.00000000000E+00 -0.00000000000E+00 -0.18847956787E+01  0.18847956787E+01  0.00000000000E+00 0. -1.
          2    1    1    2  501    0  0.31420610753E+02  0.23152088428E+01  0.21627494547E+03  0.21855769721E+03  0.00000000000E+00 0. -1.
          1    1    1    2  502    0 -0.31420610753E+02 -0.23152088428E+01  0.33305686407E+03  0.33454370369E+03  0.00000000000E+00 0. -1.
</event>
<event>
 4    1  0.3664744E+003  0.5088869E+02  0.7546771E-02  0.1294365E+00
          2   -1    0    0  502    0  0.00000000000E+00  0.00000000000E+00  0.13021881403E+04  0.13021881403E+04  0.00000000000E+00 0. -1.
          1   -1    0    0  501    0 -0.00000000000E+00 -0.00000000000E+00 -0.30828434943E+02  0.30828434943E+02  0.00000000000E+00 0.  1.
          2    1    1    2  501    0  0.45236981480E+02 -0.23308245341E+02  0.12803320442E+04  0.12813429682E+04  0.00000000000E+00 0. -1.
          1    1    1    2  502    0 -0.45236981480E+02  0.23308245341E+02 -0.89723388804E+01  0.51673606989E+02  0.00000000000E+00 0.  1.
</event>
<event>
 4    1  0.3664744E+003  0.2092137E+02  0.7546771E-02  0.1520390E+00
          2   -1    0    0  502    0  0.00000000000E+00  0.00000000000E+00  0.11941016267E+02  0.11941016267E+02  0.00000000000E+00 0. -1.
          1   -1    0    0  501    0 -0.00000000000E+00 -0.00000000000E+00 -0.28593277925E+03  0.28593277925E+03  0.00000000000E+00 0.  1.
          2    1    1    2  501    0 -0.12293855384E+02  0.16928228761E+02  0.20671482130E+01  0.21023246917E+02  0.00000000000E+00 0. -1.
          1    1    1    2  502    0  0.12293855384E+02 -0.16928228761E+02 -0.27605891120E+03  0.27685054860E+03  0.00000000000E+00 0.  1.
</event>
<event>
 4    1  0.3664744E+003  0.2511402E+02  0.7546771E-02  0.1467532E+00
          2   -1    0    0  502    0  0.00000000000E+00  0.00000000000E+00  0.13902072286E+04  0.13902072286E+04  0.00000000000E+00 0.  1.
          1   -1    0    0  501    0 -0.00000000000E+00 -0.00000000000E+00 -0.28047740624E+01  0.28047740624E+01  0.00000000000E+00 0.  1.
          2    1    1    2  501    0  0.14190838826E+01 -0.25073894118E+02  0.13313926981E+04  0.13316295395E+04  0.00000000000E+00 0.  1.
          1    1    1    2  502    0 -0.14190838826E+01  0.25073894118E+02  0.56009756431E+02  0.61382463137E+02  0.00000000000E+00 0.  1.
</event>
<event>
 4    1  0.3664744E+003  0.2804086E+02  0.7546771E-02  0.1437424E+00
          2   -1    0    0  502    0  0.00000000000E+00  0.00000000000E+00  0.47848495529E+02  0.47848495529E+02  0.00000000000E+00 0. -1.
          1   -1    0    0  501    0 -0.00000000000E+00 -0.00000000000E+00 -0.13888660959E+03  0.13888660959E+03  0.00000000000E+00 0. -1.
          2    1    1    2  501    0  0.23985059811E+02 -0.14526070501E+02  0.42151092939E+02  0.50626124227E+02  0.00000000000E+00 0. -1.
          1    1    1    2  502    0 -0.23985059811E+02  0.14526070501E+02 -0.13318920700E+03  0.13610898089E+03  0.00000000000E+00 0. -1.
</event>
<event>
 4    1  0.3664744E+003  0.2175517E+02  0.7546771E-02  0.1508750E+00
          2   -1    0    0  502    0  0.00000000000E+00  0.00000000000E+00  0.36742599734E+01  0.36742599734E+01  0.00000000000E+00 0. -1.
          1   -1    0    0  501    0 -0.00000000000E+00 -0.00000000000E+00 -0.44773788263E+03  0.44773788263E+03  0.00000000000E+00 0. -1.
          2    1    1    2  501    0  0.46781277805E+01  0.21246239858E+02 -0.31539950593E+02  0.38315219836E+02  0.00000000000E+00 0. -1.
          1    1    1    2  502    0 -0.46781277805E+01 -0.21246239858E+02 -0.41252367207E+03  0.41309692277E+03  0.00000000000E+00 0. -1.
</event>
<event>
 4    1  0.3664744E+003  0.2726642E+02  0.7546771E-02  0.1444950E+00
          2   -1    0    0  502    0  0.00000000000E+00  0.00000000000E+00  0.30532225254E+03  0.30532225254E+03  0.00000000000E+00 0. -1.
          1   -1    0    0  501    0 -0.00000000000E+00 -0.00000000000E+00 -0.26950338177E+01  0.26950338177E+01  0.00000000000E+00 0. -1.
          2    1    1    2  501    0  0.46915284240E+01 -0.26859770132E+02  0.19915274851E+03  0.20101063388E+03  0.00000000000E+00 0. -1.
          1    1    1    2  502    0 -0.46915284240E+01  0.26859770132E+02  0.10347447021E+03  0.10700665248E+03  0.00000000000E+00 0. -1.
</event>
<event>
 4    1  0.3664744E+003  0.4802896E+02  0.7546771E-02  0.1306952E+00
          2   -1    0    0  502    0  0.00000000000E+00  0.00000000000E+00  0.25562754595E+04  0.25562754595E+04  0.00000000000E+00 0.  1.
          1   -1    0    0  501    0 -0.00000000000E+00 -0.00000000000E+00 -0.63079525273E+02  0.63079525273E+02  0.00000000000E+00 0.  1.
          2    1    1    2  501    0  0.41834362656E+02 -0.23593789729E+02  0.25468737624E+04  0.25473265873E+04  0.00000000000E+00 0.  1.
          1    1    1    2  502    0 -0.41834362656E+02  0.23593789729E+02 -0.53677828138E+02  0.72028397499E+02  0.00000000000E+00 0.  1.
</event>
<event>
 4    1  0.3664744E+003  0.2023361E+02  0.7546771E-02  0.1530494E+00
          2   -1    0    0  502    0  0.00000000000E+00  0.00000000000E+00  0.78023021503E+01  0.78023021503E+01  0.00000000000E+00 0.  1.
          1   -1    0    0  501    0 -0.00000000000E+00 -0.00000000000E+00 -0.28791980327E+03  0.28791980327E+03  0.00000000000E+00 0. -1.
          2    1    1    2  501    0  0.53291681609E+01 -0.19519197991E+02 -0.63481824781E+01  0.21206096865E+02  0.00000000000E+00 0.  1.
          1    1    1    2  502    0 -0.53291681609E+01  0.19519197991E+02 -0.27376931865E+03  0.27451600856E+03  0.00000000000E+00 0. -1.
</event>
<event>
 4    1  0.3664744E+003  0.2104315E+02  0.7546771E-02  0.1518650E+00
          2   -1    0    0  502    0  0.00000000000E+00  0.00000000000E+00  0.25814009194E+02  0.25814009194E+02  0.00000000000E+00 0.  1.
          1   -1    0    0  501    0 -0.00000000000E+00 -0.00000000000E+00 -0.68133167257E+02  0.68133167257E+02  0.00000000000E+00 0. -1.
          2    1    1    2  501    0  0.14845711248E+02 -0.14913724359E+02  0.19472653323E+02  0.28670516984E+02  0.00000000000E+00 0.  1.
          1    1    1    2  502    0 -0.14845711248E+02  0.14913724359E+02 -0.61791811387E+02  0.65276659467E+02  0.00000000000E+00 0. -1.
</event>
<event>
 4    1  0.3664744E+003  0.2230308E+02  0.7546771E-02  0.1501440E+00
          2   -1    0    0  502    0  0.00000000000E+00  0.00000000000E+00  0.20286180522E+03  0.20286180522E+03  0.00000000000E+00 0. -1.
          1   -1    0    0  501    0 -0.00000000000E+00 -0.00000000000E+00 -0.30316652025E+01  0.30316652025E+01  0.00000000000E+00 0. -1.
          2    1    1    2  501    0  0.22133719256E+02 -0.27433255835E+01  0.14492845845E+03  0.14663453015E+03  0.00000000000E+00 0. -1.
          1    1    1    2  502    0 -0.22133719256E+02  0.27433255835E+01  0.54901681565E+02  0.59258940271E+02  0.00000000000E+00 0. -1.
</event>
<event>
 4    1  0.3664744E+003  0.2022041E+02  0.7546771E-02  0.1530693E+00
          2   -1    0    0  502    0  0.00000000000E+00  0.00000000000E+00  0.47006480924E+02  0.47006480924E+02  0.00000000000E+00 0.  1.
          1   -1    0    0  501    0 -0.00000000000E+00 -0.00000000000E+00 -0.15064299208E+02  0.15064299208E+02  0.00000000000E+00 0.  1.
          2    1    1    2  501    0 -0.22057779150E+01 -0.20099738211E+02  0.36146595488E+02  0.41417886205E+02  0.00000000000E+00 0.  1.
          1    1    1    2  502    0  0.22057779150E+01  0.20099738211E+02 -0.42044137719E+01  0.20652893926E+02  0.00000000000E+00 0.  1.
</event>
<event>
 4    1  0.3664744E+003  0.2770030E+02  0.7546771E-02  0.1440697E+00
          2   -1    0    0  502    0  0.00000000000E+00  0.00000000000E+00  0.11720043339E+03  0.11720043339E+03  0.00000000000E+00 0. -1.
          1   -1    0    0  501    0 -0.00000000000E+00 -0.00000000000E+00 -0.64493205994E+03  0.64493205994E+03  0.00000000000E+00 0. -1.
          2    1    1    2  501    0  0.11096855568E+02  0.25380437155E+02  0.11526132208E+03  0.11854315316E+03  0.00000000000E+00 0. -1.
          1    1    1    2  502    0 -0.11096855568E+02 -0.25380437155E+02 -0.64299294863E+03  0.64358934017E+03  0.00000000000E+00 0. -1.
</event>
<event>
 4    1  0.3664744E+003  0.5012635E+02  0.7546771E-02  0.1297626E+00
          2   -1    0    0  502    0  0.00000000000E+00  0.00000000000E+00  0.20441367140E+02  0.20441367140E+02  0.00000000000E+00 0. -1.
          1   -1    0    0  501    0 -0.00000000000E+00 -0.00000000000E+00 -0.12334309420E+03  0.12334309420E+03  0.00000000000E+00 0. -1.
          2    1    1    2  501    0 -0.49388886894E+02  0.85665625711E+01 -0.55662600072E+02  0.74906429562E+02  0.00000000000E+00 0. -1.
          1    1    1    2  502    0  0.49388886894E+02 -0.85665625711E+01 -0.47239126988E+02  0.68878031777E+02  0.00000000000E+00 0. -1.
</event>
<event>
 4    1  0.3664744E+003  0.2337555E+02  0.7546771E-02  0.1487835E+00
          2   -1    0    0  502    0  0.00000000000E+00  0.00000000000E+00  0.14898588818E+04  0.14898588818E+04  0.00000000000E+00 0. -1.
          1   -1    0    0  501    0 -0.00000000000E+00 -0.00000000000E+00 -0.38103418589E+02  0.38103418589E+02  0.00000000000E+00 0.  1.
          2    1    1    2  501    0 -0.14386752697E+02 -0.18423831753E+02  0.14861732156E+04  0.14863570375E+04  0.00000000000E+00 0. -1.
          1    1    1    2  502    0  0.14386752697E+02  0.18423831753E+02 -0.34417752317E+02  0.41605262938E+02  0.00000000000E+00 0.  1.
</event>
<event>
 4    1  0.3664744E+003  0.7626386E+02  0.7546771E-02  0.1212797E+00
          2   -1    0    0  502    0  0.00000000000E+00  0.00000000000E+00  0.21425213206E+03  0.21425213206E+03  0.00000000000E+00 0.  1.
          1   -1    0    0  501    0 -0.00000000000E+00 -0.00000000000E+00 -0.43881422627E+02  0.43881422627E+02  0.00000000000E+00 0.  1.
          2    1    1    2  501    0  0.64919733966E+02  0.40020052099E+02  0.16489064109E+03  0.18167305785E+03  0.00000000000E+00 0.  1.
          1    1    1    2  502    0 -0.64919733966E+02 -0.40020052099E+02  0.54800683441E+01  0.76460496842E+02  0.00000000000E+00 0.  1.
</event>
<event>
 4    1  0.3664744E+003  0.2597509E+02  0.7546771E-02  0.1458184E+00
          2   -1    0    0  502    0  0.00000000000E+00  0.00000000000E+00  0.41459551056E+03  0.41459551056E+03  0.00000000000E+00 0.  1.
          1   -1    0    0  501    0 -0.00000000000E+00 -0.00000000000E+00 -0.18697334195E+01  0.18697334195E+01  0.00000000000E+00 0.  1.
          2    1    1    2  501    0  0.52056546459E+01 -0.25448114294E+02  0.28133185289E+03  0.28252843541E+03  0.00000000000E+00 0.  1.
          1    1    1    2  502    0 -0.52056546459E+01  0.25448114294E+02  0.13139392425E+03  0.13393680858E+03  0.00000000000E+00 0.  1.
</event>
<event>
 4    1  0.3664744E+003  0.2052962E+02  0.7546771E-02  0.1526088E+00
          2   -1    0    0  502    0  0.00000000000E+00  0.00000000000E+00  0.51483432839E+01  0.51483432839E+01  0.00000000000E+00 0.  1.
          1   -1    0    0  501    0 -0.00000000000E+00 -0.00000000000E+00 -0.92194962738E+02  0.92194962738E+02  0.00000000000E+00 0. -1.
          2    1    1    2  501    0 -0.20423308156E+02  0.20865950546E+01 -0.27230833415E+02  0.34102546582E+02  0.00000000000E+00 0.  1.
          1    1    1    2  502    0  0.20423308156E+02 -0.20865950546E+01 -0.59815786040E+02  0.63240759440E+02  0.00000000000E+00 0. -1.
</event>
<event>
 4    1  0.3664744E+003  0.2135695E+02  0.7546771E-02  0.1514229E+00
          2   -1    0    0  502    0  0.00000000000E+00  0.00000000000E+00  0.14126314277E+03  0.14126314277E+03  0.00000000000E+00 0.  1.
          1   -1    0    0  501    0 -0.00000000000E+00 -0.00000000000E+00 -0.11731186324E+02  0.11731186324E+02  0.00000000000E+00 0.  1.
          2    1    1    2  501    0 -0.21262370143E+02  0.20077547490E+01  0.12989029145E+03  0.13163436966E+03  0.00000000000E+00 0.  1.
          1    1    1    2  502    0  0.21262370143E+02 -0.20077547490E+01 -0.35833499850E+00  0.21359959438E+02  0.00000000000E+00 0.  1.
</event>
<event>
 4    1  0.3664744E+003  0.2497665E+02  0.7546771E-02  0.1469065E+00
          2   -1    0    0  502    0  0.00000000000E+00  0.00000000000E+00  0.33189350289E+02  0.33189350289E+02  0.00000000000E+00 0.  1.
          1   -1    0    0  501    0 -0.00000000000E+00 -0.00000000000E+00 -0.63171552986E+02  0.63171552986E+02  0.00000000000E+00 0.  1.
          2    1    1    2  501    0 -0.13373348611E+02 -0.21094700716E+02  0.25390275290E+02  0.35615992625E+02  0.00000000000E+00 0.  1.
          1    1    1    2  502    0  0.13373348611E+02  0.21094700716E+02 -0.55372477988E+02  0.60744910650E+02  0.00000000000E+00 0.  1.
</event>
<event>
 4    1  0.3664744E+003  0.3179396E+02  0.7546771E-02  0.1404622E+00
          2   -1    0    0  502    0  0.00000000000E+00  0.00000000000E+00  0.38893309413E+02  0.38893309413E+02  0.00000000000E+00 0.  1.
          1   -1    0    0  501    0 -0.00000000000E+00 -0.00000000000E+00 -0.14136431406E+04  0.14136431406E+04  0.00000000000E+00 0. -1.
          2    1    1    2  501    0 -0.20681302913E+02 -0.24148284145E+02  0.32185948152E+02  0.45241476277E+02  0.00000000000E+00 0.  1.
          1    1    1    2  502    0  0.20681302913E+02  0.24148284145E+02 -0.14069357794E+04  0.14072949738E+04  0.00000000000E+00 0. -1.
</event>
<event>
 4    1  0.3664744E+003  0.2693383E+02  0.7546771E-02  0.1448274E+00
          2   -1    0    0  502    0  0.00000000000E+00  0.00000000000E+00  0.23564209004E+01  0.23564209004E+01  0.00000000000E+00 0.  1.
          1   -1    0    0  501    0 -0.00000000000E+00 -0.00000000000E+00 -0.20201961931E+04  0.20201961931E+04  0.00000000000E+00 0. -1.
          2    1    1    2  501    0 -0.26918658096E+02 -0.90386701077E+00 -0.77879606730E+02  0.82405486915E+02  0.00000000000E+00 0.  1.
          1    1    1    2  502    0  0.26918658096E+02  0.90386701077E+00 -0.19399601655E+04  0.19401471271E+04  0.00000000000E+00 0. -1.
</event>
<event>
 4    1  0.3664744E+003  0.3981803E+02  0.7546771E-02  0.1349555E+00
          2   -1    0    0  502    0  0.00000000000E+00  0.00000000000E+00  0.81875738627E+03  0.81875738627E+03  0.00000000000E+00 0.  1.
          1   -1    0    0  501    0 -0.00000000000E+00 -0.00000000000E+00 -0.71220934126E+01  0.71220934126E+01  0.00000000000E+00 0. -1.
          2    1    1    2  501    0  0.31478231368E+02 -0.24384355494E+02  0.75817596150E+03  0.75922082719E+03  0.00000000000E+00 0.  1.
          1    1    1    2  502    0 -0.31478231368E+02  0.24384355494E+02  0.53459331358E+02  0.66658652493E+02  0.00000000000E+00 0. -1.
</event>
<event>
 4    1  0.3664744E+003  0.2184380E+02  0.7546771E-02  0.1507550E+00
          2   -1    0    0  502    0  0.00000000000E+00  0.00000000000E+00  0.11053170273E+04  0.11053170273E+04  0.00000000000E+00 0.  1.
          1   -1    0    0  501    0 -0.00000000000E+00 -0.00000000000E+00 -0.21807408606E+01  0.21807408606E+01  0.00000000000E+00 0. -1.
          2    1    1    2  501    0 -0.14552401453E+01 -0.21795273326E+02  0.10474889727E+04  0.10477167077E+04  0.00000000000E+00 0.  1.
          1    1    1    2  502    0  0.14552401453E+01  0.21795273326E+02  0.55647313706E+02  0.59781060428E+02  0.00000000000E+00 0. -1.
</event>
<event>
 4    1  0.3664744E+003  0.2507051E+02  0.7546771E-02  0.1468016E+00
          2   -1    0    0  502    0  0.00000000000E+00  0.00000000000E+00  0.26742830817E+03  0.26742830817E+03  0.00000000000E+00 0.  1.
          1   -1    0    0  501    0 -0.00000000000E+00 -0.00000000000E+00 -0.50185491069E+01  0.50185491069E+01  0.00000000000E+00 0.  1.
          2    1    1    2  501    0 -0.21466417047E+02  0.12950799469E+02  0.23053429454E+03  0.23189349112E+03  0.00000000000E+00 0.  1.
          1    1    1    2  502    0  0.21466417047E+02 -0.12950799469E+02  0.31875464530E+02  0.40553366158E+02  0.00000000000E+00 0.  1.
</event>
<event>
 4    1  0.3664744E+003  0.3307249E+02  0.7546771E-02  0.1394645E+00
          2   -1    0    0  502    0  0.00000000000E+00  0.00000000000E+00  0.20508970838E+03  0.20508970838E+03  0.00000000000E+00 0. -1.
          1   -1    0    0  501    0 -0.00000000000E+00 -0.00000000000E+00 -0.92991646796E+02  0.92991646796E+02  0.00000000000E+00 0.  1.
          2    1    1    2  501    0 -0.32749789963E+02 -0.46088034083E+01  0.20075274134E+03  0.20345872546E+03  0.00000000000E+00 0. -1.
          1    1    1    2  502    0  0.32749789963E+02  0.46088034083E+01 -0.88654679755E+02  0.94622629714E+02  0.00000000000E+00 0.  1.
</event>
<event>
 4    1  0.3664744E+003  0.2660886E+02  0.7546771E-02  0.1451577E+00
          2   -1    0    0  502    0  0.00000000000E+00  0.00000000000E+00  0.38198497427E+00  0.38198497427E+00  0.00000000000E+00 0. -1.
          1   -1    0    0  501    0 -0.00000000000E+00 -0.00000000000E+00 -0.18974357719E+04  0.18974357719E+04  0.00000000000E+00 0. -1.
          2    1    1    2  501    0 -0.13385458527E+02  0.22996961931E+02 -0.10928282244E+04  0.10931521207E+04  0.00000000000E+00 0. -1.
          1    1    1    2  502    0  0.13385458527E+02 -0.22996961931E+02 -0.80422556250E+03  0.80466563623E+03  0.00000000000E+00 0. -1.
</event>
<event>
 4    1  0.3664744E+003  0.2208895E+02  0.7546771E-02  0.1504266E+00
          2   -1    0    0  502    0  0.00000000000E+00  0.00000000000E+00  0.19242244047E+03  0.19242244047E+03  0.00000000000E+00 0.  1.
          1   -1    0    0  501    0 -0.00000000000E+00 -0.00000000000E+00 -0.57540174492E+01  0.57540174492E+01  0.00000000000E+00 0. -1.
          2    1    1    2  501    0  0.21358061606E+02 -0.56351673318E+01  0.16744001284E+03  0.16889073333E+03  0.00000000000E+00 0.  1.
          1    1    1    2  502    0 -0.21358061606E+02  0.56351673318E+01  0.19228410183E+02  0.29285724587E+02  0.00000000000E+00 0. -1.
</event>
<event>
 4    1  0.3664744E+003  0.2380598E+02  0.7546771E-02  0.1482618E+00
          2   -1    0    0  502    0  0.00000000000E+00  0.00000000000E+00  0.15466423609E+04  0.15466423609E+04  0.00000000000E+00 0.  1.
          1   -1    0    0  501    0 -0.00000000000E+00 -0.00000000000E+00 -0.15399827991E+02  0.15399827991E+02  0.00000000000E+00 0.  1.
          2    1    1    2  501    0  0.16435687770E+02  0.17221871948E+02  0.15372946365E+04  0.15374789508E+04  0.00000000000E+00 0.  1.
          1    1    1    2  502    0 -0.16435687770E+02 -0.17221871948E+02 -0.60521036291E+01  0.24563238065E+02  0.00000000000E+00 0.  1.
</event>
<event>
 4    1  0.3664744E+003  0.2424449E+02  0.7546771E-02  0.1477436E+00
          2   -1    0    0  502    0  0.00000000000E+00  0.00000000000E+00  0.11127319146E+04  0.11127319146E+04  0.00000000000E+00 0.  1.
          1   -1    0    0  501    0 -0.00000000000E+00 -0.00000000000E+00 -0.27086425185E+02  0.27086425185E+02  0.00000000000E+00 0. -1.
          2    1    1    2  501    0  0.15271513886E+02 -0.18830190683E+02  0.11071473085E+04  0.11074127316E+04  0.00000000000E+00 0.  1.
          1    1    1    2  502    0 -0.15271513886E+02  0.18830190683E+02 -0.21501819135E+02  0.32405608213E+02  0.00000000000E+00 0. -1.
</event>
<event>
 4    1  0.3664744E+003  0.2014113E+02  0.7546771E-02  0.1531889E+00
          2   -1    0    0  502    0  0.00000000000E+00  0.00000000000E+00  0.59703337396E+03  0.59703337396E+03  0.00000000000E+00 0. -1.
          1   -1    0    0  501    0 -0.00000000000E+00 -0.00000000000E+00 -0.96365989033E+00  0.96365989033E+00  0.00000000000E+00 0. -1.
          2    1    1    2  501    0 -0.16812451020E+02  0.11090828667E+02  0.46040758564E+03  0.46084792492E+03  0.00000000000E+00 0. -1.
          1    1    1    2  502    0  0.16812451020E+02 -0.11090828667E+02  0.13566212842E+03  0.13714910892E+03  0.00000000000E+00 0. -1.
</event>
<event>
 4    1  0.3664744E+003  0.2121914E+02  0.7546771E-02  0.1516159E+00
          2   -1    0    0  502    0  0.00000000000E+00  0.00000000000E+00  0.19615442790E+03  0.19615442790E+03  0.00000000000E+00 0.  1.
          1   -1    0    0  501    0 -0.00000000000E+00 -0.00000000000E+00 -0.82003138867E+03  0.82003138867E+03  0.00000000000E+00 0.  1.
          2    1    1    2  501    0 -0.14883041013E+02  0.15124377790E+02  0.19544281444E+03  0.19659131575E+03  0.00000000000E+00 0.  1.
          1    1    1    2  502    0  0.14883041013E+02 -0.15124377790E+02 -0.81931977521E+03  0.81959450081E+03  0.00000000000E+00 0.  1.
</event>
<event>
 4    1  0.3664744E+003  0.2201531E+02  0.7546771E-02  0.1505247E+00
          2   -1    0    0  502    0  0.00000000000E+00  0.00000000000E+00  0.47073203559E+03  0.47073203559E+03  0.00000000000E+00 0.  1.
          1   -1    0    0  501    0 -0.00000000000E+00 -0.00000000000E+00 -0.36198348746E+03  0.36198348746E+03  0.00000000000E+00 0. -1.
          2    1    1    2  501    0 -0.92419165249E+01 -0.19981512413E+02  0.47013947481E+03  0.47065465007E+03  0.00000000000E+00 0.  1.
          1    1    1    2  502    0  0.92419165249E+01  0.19981512413E+02 -0.36139092668E+03  0.36206087298E+03  0.00000000000E+00 0. -1.
</event>
<event>
 4    1  0.3664744E+003  0.3648460E+02  0.7546771E-02  0.1370416E+00
          2   -1    0    0  502    0  0.00000000000E+00  0.00000000000E+00  0.22624573572E+03  0.22624573572E+03  0.00000000000E+00 0. -1.
          1   -1    0    0  501    0 -0.00000000000E+00 -0.00000000000E+00 -0.18192910112E+02  0.18192910112E+02  0.00000000000E+00 0. -1.
          2    1    1    2  501    0 -0.32852171350E+02 -0.15870114523E+02  0.20455896601E+03  0.20778714174E+03  0.00000000000E+00 0. -1.
          1    1    1    2  502    0  0.32852171350E+02  0.15870114523E+02  0.34938595991E+01  0.36651504093E+02  0.00000000000E+00 0. -1.
</event>
<event>
 4    1  0.3664744E+003  0.2156469E+02  0.7546771E-02  0.1511353E+00
          2   -1    0    0  502    0  0.00000000000E+00  0.00000000000E+00  0.10684677915E+02  0.10684677915E+02  0.00000000000E+00 0.  1.
          1   -1    0    0  501    0 -0.00000000000E+00 -0.00000000000E+00 -0.10098390320E+03  0.10098390320E+03  0.00000000000E+00 0.  1.
          2    1    1    2  501    0  0.91703898093E+01 -0.19517681097E+02 -0.30324811652E+01  0.21776865400E+02  0.00000000000E+00 0.  1.
          1    1    1    2  502    0 -0.91703898093E+01  0.19517681097E+02 -0.87266744120E+02  0.89891715713E+02  0.00000000000E+00 0.  1.
</event>
<event>
 4    1  0.3664744E+003  0.2206546E+02  0.7546771E-02  0.1504579E+00
          2   -1    0    0  502    0  0.00000000000E+00  0.00000000000E+00  0.26882925150E+03  0.26882925150E+03  0.00000000000E+00 0. -1.
          1   -1    0    0  501    0 -0.00000000000E+00 -0.00000000000E+00 -0.27536761217E+03  0.27536761217E+03  0.00000000000E+00 0.  1.
          2    1    1    2  501    0  0.40210160034E+01  0.21695990318E+02  0.26793296153E+03  0.26884002016E+03  0.00000000000E+00 0. -1.
          1    1    1    2  502    0 -0.40210160034E+01 -0.21695990318E+02 -0.27447132219E+03  0.27535684352E+03  0.00000000000E+00 0.  1.
</event>
<event>
 4    1  0.4343407E+003  0.2624808E+02  0.7546771E-02  0.1455311E+00
          2   -1    0    0  502    0  0.00000000000E+00  0.00000000000E+00  0.50749961013E+03  0.50749961013E+03  0.00000000000E+00 0. -1.
          1   -1    0    0  501    0 -0.00000000000E+00 -0.00000000000E+00 -0.10432594815E+04  0.10432594815E+04  0.00000000000E+00 0.  1.
          2    1    1    2  501    0  0.22930622486E+02 -0.12772944814E+02  0.50699495739E+03  0.50767395874E+03  0.00000000000E+00 0. -1.
          1    1    1    2  502    0 -0.22930622486E+02  0.12772944814E+02 -0.10427548288E+04  0.10430851329E+04  0.00000000000E+00 0.  1.
</event>
<event>
 4    1  0.3664744E+003  0.2065089E+02  0.7546771E-02  0.1524308E+00
          2   -1    0    0  502    0  0.00000000000E+00  0.00000000000E+00  0.83491533352E+01  0.83491533352E+01  0.00000000000E+00 0. -1.
          1   -1    0    0  501    0 -0.00000000000E+00 -0.00000000000E+00 -0.11132641752E+03  0.11132641752E+03  0.00000000000E+00 0.  1.
          2    1    1    2  501    0 -0.71952028757E+01  0.19356871149E+02 -0.74687744092E+01  0.21960009022E+02  0.00000000000E+00 0. -1.
          1    1    1    2  502    0  0.71952028757E+01 -0.19356871149E+02 -0.95508489771E+02  0.97715561828E+02  0.00000000000E+00 0.  1.
</event>
<event>
 4    1  0.3664744E+003  0.2451278E+02  0.7546771E-02  0.1474328E+00
          2   -1    0    0  502    0  0.00000000000E+00  0.00000000000E+00  0.33553812554E+01  0.33553812554E+01  0.00000000000E+00 0. -1.
          1   -1    0    0  501    0 -0.00000000000E+00 -0.00000000000E+00 -0.19219902420E+03  0.19219902420E+03  0.00000000000E+00 0.  1.
          2    1    1    2  501    0 -0.34203064371E+01 -0.24272985719E+02 -0.68874866466E+02  0.73106932383E+02  0.00000000000E+00 0. -1.
          1    1    1    2  502    0  0.34203064371E+01  0.24272985719E+02 -0.11996877648E+03  0.12244747307E+03  0.00000000000E+00 0.  1.
</event>
<event>
 4    1  0.3664744E+003  0.2242398E+02  0.7546771E-02  0.1499861E+00
          2   -1    0    0  502    0  0.00000000000E+00  0.00000000000E+00  0.12913028228E+03  0.12913028228E+03  0.00000000000E+00 0.  1.
          1   -1    0    0  501    0 -0.00000000000E+00 -0.00000000000E+00 -0.16223820372E+02  0.16223820372E+02  0.00000000000E+00 0.  1.
          2    1    1    2  501    0  0.22274494038E+02 -0.25849307409E+01  0.11981085554E+03  0.12189124684E+03  0.00000000000E+00 0.  1.
          1    1    1    2  502    0 -0.22274494038E+02  0.25849307409E+01 -0.69043936277E+01  0.23462855814E+02  0.00000000000E+00 0.  1.
</event>
<event>
 4    1  0.3664744E+003  0.2852867E+02  0.7546771E-02  0.1432828E+00
          2   -1    0    0  502    0  0.00000000000E+00  0.00000000000E+00  0.23150042588E+01  0.23150042588E+01  0.00000000000E+00 0. -1.
          1   -1    0    0  501    0 -0.00000000000E+00 -0.00000000000E+00 -0.73419641399E+03  0.73419641399E+03  0.00000000000E+00 0.  1.
          2    1    1    2  501    0  0.11064589590E+02 -0.26295625754E+02 -0.10009412911E+03  0.10408035241E+03  0.00000000000E+00 0. -1.
          1    1    1    2  502    0 -0.11064589590E+02  0.26295625754E+02 -0.63178728063E+03  0.63243106584E+03  0.00000000000E+00 0.  1.
</event>
<event>
 4    1  0.3664744E+003  0.3224219E+02  0.7546771E-02  0.1401062E+00
          2   -1    0    0  502    0  0.00000000000E+00  0.00000000000E+00  0.39870411179E+03  0.39870411179E+03  0.00000000000E+00 0.  1.
          1   -1    0    0  501    0 -0.00000000000E+00 -0.00000000000E+00 -0.17958028063E+02  0.17958028063E+02  0.00000000000E+00 0.  1.
          2    1    1    2  501    0 -0.32161025948E+02 -0.22863688189E+01  0.38298736436E+03  0.38434213968E+03  0.00000000000E+00 0.  1.
          1    1    1    2  502    0  0.32161025948E+02  0.22863688189E+01 -0.22412806335E+01  0.32320000174E+02  0.00000000000E+00 0.  1.
</event>
<event>
 4    1  0.3664744E+003  0.2213799E+02  0.7546771E-02  0.1503616E+00
          2   -1    0    0  502    0  0.00000000000E+00  0.00000000000E+00  0.23653952245E+03  0.23653952245E+03  0.00000000000E+00 0. -1.
          1   -1    0    0  501    0 -0.00000000000E+00 -0.00000000000E+00 -0.42682048207E+02  0.42682048207E+02  0.00000000000E+00 0. -1.
          2    1    1    2  501    0  0.62342233234E+00 -0.22129213680E+02  0.23310879963E+03  0.23415764608E+03  0.00000000000E+00 0. -1.
          1    1    1    2  502    0 -0.62342233234E+00  0.22129213680E+02 -0.39251325387E+02  0.45063924575E+02  0.00000000000E+00 0. -1.
</event>
<event>
 4    1  0.3664744E+003  0.2805812E+02  0.7546771E-02  0.1437259E+00
          2   -1    0    0  502    0  0.00000000000E+00  0.00000000000E+00  0.28895175285E+03  0.28895175285E+03  0.00000000000E+00 0.  1.
          1   -1    0    0  501    0 -0.00000000000E+00 -0.00000000000E+00 -0.13103564954E+02  0.13103564954E+02  0.00000000000E+00 0. -1.
          2    1    1    2  501    0 -0.11833112318E+02 -0.25440824394E+02  0.27233676692E+03  0.27377832769E+03  0.00000000000E+00 0.  1.
          1    1    1    2  502    0  0.11833112318E+02  0.25440824394E+02  0.35114209765E+01  0.28276990120E+02  0.00000000000E+00 0. -1.
</event>
<event>
 4    1  0.3664744E+003  0.2061765E+02  0.7546771E-02  0.1524794E+00
          2   -1    0    0  502    0  0.00000000000E+00  0.00000000000E+00  0.11082489065E+01  0.11082489065E+01  0.00000000000E+00 0.  1.
          1   -1    0    0  501    0 -0.00000000000E+00 -0.00000000000E+00 -0.16009427445E+04  0.16009427445E+04  0.00000000000E+00 0.  1.
          2    1    1    2  501    0  0.90354797366E+01  0.18532338972E+02 -0.10141019025E+03  0.10348484995E+03  0.00000000000E+00 0.  1.
          1    1    1    2  502    0 -0.90354797366E+01 -0.18532338972E+02 -0.14984243054E+04  0.14985661435E+04  0.00000000000E+00 0.  1.
</event>
<event>
 4    1  0.3664744E+003  0.6256337E+02  0.7546771E-02  0.1251363E+00
          2   -1    0    0  502    0  0.00000000000E+00  0.00000000000E+00  0.11477586840E+04  0.11477586840E+04  0.00000000000E+00 0.  1.
          1   -1    0    0  501    0 -0.00000000000E+00 -0.00000000000E+00 -0.11818687994E+02  0.11818687994E+02  0.00000000000E+00 0.  1.
          2    1    1    2  501    0 -0.43573205736E+02 -0.44894888891E+02  0.10570073848E+04  0.10588573024E+04  0.00000000000E+00 0.  1.
          1    1    1    2  502    0  0.43573205736E+02  0.44894888891E+02  0.78932611155E+02  0.10072006955E+03  0.00000000000E+00 0.  1.
</event>
<event>
 4    1  0.3664744E+003  0.4451154E+02  0.7546771E-02  0.1323900E+00
          2   -1    0    0  502    0  0.00000000000E+00  0.00000000000E+00  0.58153380440E+03  0.58153380440E+03  0.00000000000E+00 0. -1.
          1   -1    0    0  501    0 -0.00000000000E+00 -0.00000000000E+00 -0.27999295981E+02  0.27999295981E+02  0.00000000000E+00 0. -1.
          2    1    1    2  501    0 -0.28693748911E+02 -0.34028600789E+02  0.56239041120E+03  0.56414913942E+03  0.00000000000E+00 0. -1.
          1    1    1    2  502    0  0.28693748911E+02  0.34028600789E+02 -0.88559027841E+01  0.45383960959E+02  0.00000000000E+00 0. -1.
</event>
<event>
 4    1  0.3664744E+003  0.3285509E+02  0.7546771E-02  0.1396304E+00
          2   -1    0    0  502    0  0.00000000000E+00  0.00000000000E+00  0.85634674356E+01  0.85634674356E+01  0.00000000000E+00 0. -1.
          1   -1    0    0  501    0 -0.00000000000E+00 -0.00000000000E+00 -0.49141172461E+03  0.49141172461E+03  0.00000000000E+00 0.  1.
          2    1    1    2  501    0  0.29385288924E+02 -0.14695640115E+02 -0.25870663634E+02  0.41818037740E+02  0.00000000000E+00 0. -1.
          1    1    1    2  502    0 -0.29385288924E+02  0.14695640115E+02 -0.45697759354E+03  0.45815715431E+03  0.00000000000E+00 0.  1.
</event>
<event>
 4    1  0.5698717E+003  0.2411437E+02  0.7546771E-02  0.1478960E+00
          2   -1    0    0  502    0  0.00000000000E+00  0.00000000000E+00  0.15570112933E+04  0.15570112933E+04  0.00000000000E+00 0. -1.
          1   -1    0    0  501    0 -0.00000000000E+00 -0.00000000000E+00 -0.14182174167E+04  0.14182174167E+04  0.00000000000E+00 0.  1.
          2    1    1    2  501    0 -0.22032872498E+02  0.98007838597E+01  0.15568154060E+04  0.15570021552E+04  0.00000000000E+00 0. -1.
          1    1    1    2  502    0  0.22032872498E+02 -0.98007838597E+01 -0.14180215294E+04  0.14182265548E+04  0.00000000000E+00 0.  1.
</event>
<event>
 4    1  0.3664744E+003  0.2331253E+02  0.7546771E-02  0.1488611E+00
          2   -1    0    0  502    0  0.00000000000E+00  0.00000000000E+00  0.12395283432E+04  0.12395283432E+04  0.00000000000E+00 0.  1.
          1   -1    0    0  501    0 -0.00000000000E+00 -0.00000000000E+00 -0.44945350824E+01  0.44945350824E+01  0.00000000000E+00 0.  1.
          2    1    1    2  501    0  0.21451376963E+02  0.91275743592E+01  0.12084106367E+04  0.12086354872E+04  0.00000000000E+00 0.  1.
          1    1    1    2  502    0 -0.21451376963E+02 -0.91275743592E+01  0.26623171452E+02  0.35387391052E+02  0.00000000000E+00 0.  1.
</event>
<event>
 4    1  0.3664744E+003  0.2462008E+02  0.7546771E-02  0.1473099E+00
          2   -1    0    0  502    0  0.00000000000E+00  0.00000000000E+00  0.42634411967E+02  0.42634411967E+02  0.00000000000E+00 0. -1.
          1   -1    0    0  501    0 -0.00000000000E+00 -0.00000000000E+00 -0.50352396750E+02  0.50352396750E+02  0.00000000000E+00 0. -1.
          2    1    1    2  501    0 -0.88532395319E+01  0.22973208021E+02  0.35527346657E+02  0.43224304476E+02  0.00000000000E+00 0. -1.
          1    1    1    2  502    0  0.88532395319E+01 -0.22973208021E+02 -0.43245331440E+02  0.49762504241E+02  0.00000000000E+00 0. -1.
</event>
<event>
 4    1  0.3664744E+003  0.3628950E+02  0.7546771E-02  0.1371717E+00
          2   -1    0    0  502    0  0.00000000000E+00  0.00000000000E+00  0.81803949680E+03  0.81803949680E+03  0.00000000000E+00 0. -1.
          1   -1    0    0  501    0 -0.00000000000E+00 -0.00000000000E+00 -0.11978805702E+03  0.11978805702E+03  0.00000000000E+00 0.  1.
          2    1    1    2  501    0  0.11842403993E+02  0.34302846170E+02  0.81487792012E+03  0.81568557208E+03  0.00000000000E+00 0. -1.
          1    1    1    2  502    0 -0.11842403993E+02 -0.34302846170E+02 -0.11662648035E+03  0.12214198175E+03  0.00000000000E+00 0.  1.
</event>
<event>
 4    1  0.3664744E+003  0.4324364E+02  0.7546771E-02  0.1330459E+00
          2   -1    0    0  502    0  0.00000000000E+00  0.00000000000E+00  0.31496332904E+02  0.31496332904E+02  0.00000000000E+00 0. -1.
          1   -1    0    0  501    0 -0.00000000000E+00 -0.00000000000E+00 -0.74025971450E+02  0.74025971450E+02  0.00000000000E+00 0. -1.
          2    1    1    2  501    0  0.31881901421E+02  0.29215689394E+02  0.22095698935E+01  0.43300050162E+02  0.00000000000E+00 0. -1.
          1    1    1    2  502    0 -0.31881901421E+02 -0.29215689394E+02 -0.44739208439E+02  0.62222254192E+02  0.00000000000E+00 0. -1.
</event>
<event>
 4    1  0.3664744E+003  0.2203167E+02  0.7546771E-02  0.1505029E+00
          2   -1    0    0  502    0  0.00000000000E+00  0.00000000000E+00  0.81077513774E+03  0.81077513774E+03  0.00000000000E+00 0. -1.
          1   -1    0    0  501    0 -0.00000000000E+00 -0.00000000000E+00 -0.20988803779E+02  0.20988803779E+02  0.00000000000E+00 0.  1.
          2    1    1    2  501    0  0.21032028411E+02 -0.65611308296E+01  0.80480096785E+03  0.80510247330E+03  0.00000000000E+00 0. -1.
          1    1    1    2  502    0 -0.21032028411E+02  0.65611308296E+01 -0.15014633889E+02  0.26661468221E+02  0.00000000000E+00 0.  1.
</event>
<event>
 4    1  0.3664744E+003  0.2192637E+02  0.7546771E-02  0.1506438E+00
          2   -1    0    0  502    0  0.00000000000E+00  0.00000000000E+00  0.87779227088E+03  0.87779227088E+03  0.00000000000E+00 0.  1.
          1   -1    0    0  501    0 -0.00000000000E+00 -0.00000000000E+00 -0.89281881717E+00  0.89281881717E+00  0.00000000000E+00 0. -1.
          2    1    1    2  501    0  0.14805638131E+02 -0.16172776363E+02  0.71160323351E+03  0.71194095791E+03  0.00000000000E+00 0.  1.
          1    1    1    2  502    0 -0.14805638131E+02  0.16172776363E+02  0.16529621855E+03  0.16674413178E+03  0.00000000000E+00 0. -1.
</event>
<event>
 4    1  0.3664744E+003  0.4057051E+02  0.7546771E-02  0.1345175E+00
          2   -1    0    0  502    0  0.00000000000E+00  0.00000000000E+00  0.20774386490E+04  0.20774386490E+04  0.00000000000E+00 0. -1.
          1   -1    0    0  501    0 -0.00000000000E+00 -0.00000000000E+00 -0.17593871138E+01  0.17593871138E+01  0.00000000000E+00 0.  1.
          2    1    1    2  501    0  0.33473260642E+02  0.22923948236E+02  0.18085951888E+04  0.18090501716E+04  0.00000000000E+00 0. -1.
          1    1    1    2  502    0 -0.33473260642E+02 -0.22923948236E+02  0.26708407315E+03  0.27014786453E+03  0.00000000000E+00 0.  1.
</event>
<event>
 4    1  0.3664744E+003  0.2477807E+02  0.7546771E-02  0.1471301E+00
          2   -1    0    0  502    0  0.00000000000E+00  0.00000000000E+00  0.44294238483E+03  0.44294238483E+03  0.00000000000E+00 0.  1.
          1   -1    0    0  501    0 -0.00000000000E+00 -0.00000000000E+00 -0.78136731048E+03  0.78136731048E+03  0.00000000000E+00 0. -1.
          2    1    1    2  501    0 -0.81792843902E+00  0.24764569684E+02  0.44239918877E+03  0.44309253564E+03  0.00000000000E+00 0.  1.
          1    1    1    2  502    0  0.81792843902E+00 -0.24764569684E+02 -0.78082411442E+03  0.78121715968E+03  0.00000000000E+00 0. -1.
</event>
<event>
 4    1  0.3664744E+003  0.2541937E+02  0.7546771E-02  0.1464166E+00
          2   -1    0    0  502    0  0.00000000000E+00  0.00000000000E+00  0.10178229813E+04  0.10178229813E+04  0.00000000000E+00 0.  1.
          1   -1    0    0  501    0 -0.00000000000E+00 -0.00000000000E+00 -0.26958805270E+03  0.26958805270E+03  0.00000000000E+00 0.  1.
          2    1    1    2  501    0 -0.25181666850E+02  0.34681542373E+01  0.10170646310E+04  0.10173822330E+04  0.00000000000E+00 0.  1.
          1    1    1    2  502    0  0.25181666850E+02 -0.34681542373E+01 -0.26882970243E+03  0.27002880096E+03  0.00000000000E+00 0.  1.
</event>
<event>
 4    1  0.3664744E+003  0.4587860E+02  0.7546771E-02  0.1317104E+00
          2   -1    0    0  502    0  0.00000000000E+00  0.00000000000E+00  0.51284793080E+02  0.51284793080E+02  0.00000000000E+00 0.  1.
          1   -1    0    0  501    0 -0.00000000000E+00 -0.00000000000E+00 -0.56726249788E+02  0.56726249788E+02  0.00000000000E+00 0.  1.
          2    1    1    2  501    0 -0.20392669099E+02  0.41097263990E+02  0.25676358872E+02  0.52574912890E+02  0.00000000000E+00 0.  1.
          1    1    1    2  502    0  0.20392669099E+02 -0.41097263990E+02 -0.31117815580E+02  0.55436129978E+02  0.00000000000E+00 0.  1.
</event>
<event>
 4    1  0.3664744E+003  0.2314640E+02  0.7546771E-02  0.1490668E+00
          2   -1    0    0  502    0  0.00000000000E+00  0.00000000000E+00  0.63568451759E+02  0.63568451759E+02  0.00000000000E+00 0. -1.
          1   -1    0    0  501    0 -0.00000000000E+00 -0.00000000000E+00 -0.85408056938E+01  0.85408056938E+01  0.00000000000E+00 0. -1.
          2    1    1    2  501    0 -0.16741042092E+02  0.15984153228E+02  0.31657204413E+02  0.39216504637E+02  0.00000000000E+00 0. -1.
          1    1    1    2  502    0  0.16741042092E+02 -0.15984153228E+02  0.23370441653E+02  0.32892752816E+02  0.00000000000E+00 0. -1.
</event>
<event>
 4    1  0.3664744E+003  0.2771811E+02  0.7546771E-02  0.1440525E+00
          2   -1    0    0  502    0  0.00000000000E+00  0.00000000000E+00  0.21129165654E+02  0.21129165654E+02  0.00000000000E+00 0. -1.
          1   -1    0    0  501    0 -0.00000000000E+00 -0.00000000000E+00 -0.82324633639E+03  0.82324633639E+03  0.00000000000E+00 0.  1.
          2    1    1    2  501    0 -0.16641752552E+02  0.22166323120E+02  0.11700118416E+02  0.30086318811E+02  0.00000000000E+00 0. -1.
          1    1    1    2  502    0  0.16641752552E+02 -0.22166323120E+02 -0.81381728915E+03  0.81428918323E+03  0.00000000000E+00 0.  1.
</event>
<event>
 4    1  0.3664744E+003  0.2053419E+02  0.7546771E-02  0.1526021E+00
          2   -1    0    0  502    0  0.00000000000E+00  0.00000000000E+00  0.50786722860E+01  0.50786722860E+01  0.00000000000E+00 0. -1.
          1   -1    0    0  501    0 -0.00000000000E+00 -0.00000000000E+00 -0.10670470105E+04  0.10670470105E+04  0.00000000000E+00 0.  1.
          2    1    1    2  501    0 -0.20177141852E+02 -0.38125750391E+01 -0.16198430567E+02  0.26154195354E+02  0.00000000000E+00 0. -1.
          1    1    1    2  502    0  0.20177141852E+02  0.38125750391E+01 -0.10457699076E+04  0.10459714874E+04  0.00000000000E+00 0.  1.
</event>
<event>
 4    1  0.3664744E+003  0.2972530E+02  0.7546771E-02  0.1421999E+00
          2   -1    0    0  502    0  0.00000000000E+00  0.00000000000E+00  0.68686103907E+02  0.68686103907E+02  0.00000000000E+00 0. -1.
          1   -1    0    0  501    0 -0.00000000000E+00 -0.00000000000E+00 -0.17260087750E+02  0.17260087750E+02  0.00000000000E+00 0. -1.
          2    1    1    2  501    0  0.21355411153E+02 -0.20677041590E+02  0.47399889459E+02  0.55949469659E+02  0.00000000000E+00 0. -1.
          1    1    1    2  502    0 -0.21355411153E+02  0.20677041590E+02  0.40261266984E+01  0.29996721997E+02  0.00000000000E+00 0. -1.
</event>
<event>
 4    1  0.3664744E+003  0.2837049E+02  0.7546771E-02  0.1434307E+00
          2   -1    0    0  502    0  0.00000000000E+00  0.00000000000E+00  0.23147345893E+03  0.23147345893E+03  0.00000000000E+00 0. -1.
          1   -1    0    0  501    0 -0.00000000000E+00 -0.00000000000E+00 -0.37016611205E+03  0.37016611205E+03  0.00000000000E+00 0.  1.
          2    1    1    2  501    0  0.19044256893E+02  0.21028572923E+02  0.23005722278E+03  0.23179993605E+03  0.00000000000E+00 0. -1.
          1    1    1    2  502    0 -0.19044256893E+02 -0.21028572923E+02 -0.36874987589E+03  0.36983963493E+03  0.00000000000E+00 0.  1.
</event>
<event>
 4    1  0.3664744E+003  0.2561382E+02  0.7546771E-02  0.1462052E+00
          2   -1    0    0  502    0  0.00000000000E+00  0.00000000000E+00  0.66313990934E+03  0.66313990934E+03  0.00000000000E+00 0.  1.
          1   -1    0    0  501    0 -0.00000000000E+00 -0.00000000000E+00 -0.23398947476E+01  0.23398947476E+01  0.00000000000E+00 0.  1.
          2    1    1    2  501    0 -0.20883460057E+02  0.14830681675E+02  0.58319211017E+03  0.58375431937E+03  0.00000000000E+00 0.  1.
          1    1    1    2  502    0  0.20883460057E+02 -0.14830681675E+02  0.77607904425E+02  0.81725484716E+02  0.00000000000E+00 0.  1.
</event>
<event>
 4    1  0.3664744E+003  0.2001456E+02  0.7546771E-02  0.1533813E+00
          2   -1    0    0  502    0  0.00000000000E+00  0.00000000000E+00  0.10670333250E+02  0.10670333250E+02  0.00000000000E+00 0.  1.
          1   -1    0    0  501    0 -0.00000000000E+00 -0.00000000000E+00 -0.24862187504E+03  0.24862187504E+03  0.00000000000E+00 0.  1.
          2    1    1    2  501    0  0.19364854353E+02  0.50581597930E+01  0.48175446314E+00  0.20020355940E+02  0.00000000000E+00 0.  1.
          1    1    1    2  502    0 -0.19364854353E+02 -0.50581597930E+01 -0.23843329625E+03  0.23927185235E+03  0.00000000000E+00 0.  1.
</event>
<event>
 4    1  0.3664744E+003  0.2252514E+02  0.7546771E-02  0.1498549E+00
          2   -1    0    0  502    0  0.00000000000E+00  0.00000000000E+00  0.56208653631E+03  0.56208653631E+03  0.00000000000E+00 0.  1.
          1   -1    0    0  501    0 -0.00000000000E+00 -0.00000000000E+00 -0.66557031118E+02  0.66557031118E+02  0.00000000000E+00 0.  1.
          2    1    1    2  501    0 -0.15110837597E+02  0.16704629047E+02  0.55994777399E+03  0.56040065278E+03  0.00000000000E+00 0.  1.
          1    1    1    2  502    0  0.15110837597E+02 -0.16704629047E+02 -0.64418268797E+02  0.68242914645E+02  0.00000000000E+00 0.  1.
</event>
<event>
 4    1  0.3664744E+003  0.4593620E+02  0.7546771E-02  0.1316823E+00
          2   -1    0    0  502    0  0.00000000000E+00  0.00000000000E+00  0.91624112825E+03  0.91624112825E+03  0.00000000000E+00 0.  1.
          1   -1    0    0  501    0 -0.00000000000E+00 -0.00000000000E+00 -0.30591089963E+02  0.30591089963E+02  0.00000000000E+00 0. -1.
          2    1    1    2  501    0  0.42269291377E+02 -0.17984484827E+02  0.89807203280E+03  0.89924607910E+03  0.00000000000E+00 0.  1.
          1    1    1    2  502    0 -0.42269291377E+02  0.17984484827E+02 -0.12421994509E+02  0.47586139112E+02  0.00000000000E+00 0. -1.
</event>
<event>
 4    1  0.3664744E+003  0.2523952E+02  0.7546771E-02  0.1466142E+00
          2   -1    0    0  502    0  0.00000000000E+00  0.00000000000E+00  0.10553071481E+02  0.10553071481E+02  0.00000000000E+00 0. -1.
          1   -1    0    0  501    0 -0.00000000000E+00 -0.00000000000E+00 -0.94532269086E+02  0.94532269086E+02  0.00000000000E+00 0. -1.
          2    1    1    2  501    0  0.70119100111E+01 -0.24245956958E+02 -0.10401102780E+02  0.27298649231E+02  0.00000000000E+00 0. -1.
          1    1    1    2  502    0 -0.70119100111E+01  0.24245956958E+02 -0.73578094825E+02  0.77786691336E+02  0.00000000000E+00 0. -1.
</event>
<event>
 4    1  0.3664744E+003  0.2834598E+02  0.7546771E-02  0.1434537E+00
          2   -1    0    0  502    0  0.00000000000E+00  0.00000000000E+00  0.18828274714E+02  0.18828274714E+02  0.00000000000E+00 0. -1.
          1   -1    0    0  501    0 -0.00000000000E+00 -0.00000000000E+00 -0.15012156276E+03  0.15012156276E+03  0.00000000000E+00 0.  1.
          2    1    1    2  501    0  0.23796224052E+01 -0.28245920741E+02  0.58198900397E+01  0.28937272874E+02  0.00000000000E+00 0. -1.
          1    1    1    2  502    0 -0.23796224052E+01  0.28245920741E+02 -0.13711317809E+03  0.14001256460E+03  0.00000000000E+00 0.  1.
</event>
<event>
 4    1  0.3664744E+003  0.2359903E+02  0.7546771E-02  0.1485110E+00
          2   -1    0    0  502    0  0.00000000000E+00  0.00000000000E+00  0.71702614788E+03  0.71702614788E+03  0.00000000000E+00 0. -1.
          1   -1    0    0  501    0 -0.00000000000E+00 -0.00000000000E+00 -0.48676003047E+01  0.48676003047E+01  0.00000000000E+00 0.  1.
          2    1    1    2  501    0 -0.18605041115E+02  0.14517801769E+02  0.68697814413E+03  0.68738336075E+03  0.00000000000E+00 0. -1.
          1    1    1    2  502    0  0.18605041115E+02 -0.14517801769E+02  0.25180403438E+02  0.34510387427E+02  0.00000000000E+00 0.  1.
</event>
<event>
 4    1  0.3664744E+003  0.2374007E+02  0.7546771E-02  0.1483408E+00
          2   -1    0    0  502    0  0.00000000000E+00  0.00000000000E+00  0.11464937961E+03  0.11464937961E+03  0.00000000000E+00 0. -1.
          1   -1    0    0  501    0 -0.00000000000E+00 -0.00000000000E+00 -0.61608445390E+01  0.61608445390E+01  0.00000000000E+00 0.  1.
          2    1    1    2  501    0  0.16701565824E+02 -0.16871527009E+02  0.81399286726E+02  0.84790533693E+02  0.00000000000E+00 0. -1.
          1    1    1    2  502    0 -0.16701565824E+02  0.16871527009E+02  0.27089248344E+02  0.36019690455E+02  0.00000000000E+00 0.  1.
</event>
<event>
 4    1  0.3664744E+003  0.2309451E+02  0.7546771E-02  0.1491315E+00
          2   -1    0    0  502    0  0.00000000000E+00  0.00000000000E+00  0.37486373861E+03  0.37486373861E+03  0.00000000000E+00 0. -1.
          1   -1    0    0  501    0 -0.00000000000E+00 -0.00000000000E+00 -0.18237458700E+01  0.18237458700E+01  0.00000000000E+00 0.  1.
          2    1    1    2  501    0 -0.17780991279E+02 -0.14737466162E+02  0.27483028047E+03  0.27579891157E+03  0.00000000000E+00 0. -1.
          1    1    1    2  502    0  0.17780991279E+02  0.14737466162E+02  0.98209712272E+02  0.10088857291E+03  0.00000000000E+00 0.  1.
</event>
<event>
 4    1  0.3664744E+003  0.3087618E+02  0.7546771E-02  0.1412132E+00
          2   -1    0    0  502    0  0.00000000000E+00  0.00000000000E+00  0.32280285635E+03  0.32280285635E+03  0.00000000000E+00 0. -1.
          1   -1    0    0  501    0 -0.00000000000E+00 -0.00000000000E+00 -0.96249008894E+01  0.96249008894E+01  0.00000000000E+00 0. -1.
          2    1    1    2  501    0 -0.27250400464E+02  0.14517374511E+02  0.29497228144E+03  0.29658385881E+03  0.00000000000E+00 0. -1.
          1    1    1    2  502    0  0.27250400464E+02 -0.14517374511E+02  0.18205674021E+02  0.35843898430E+02  0.00000000000E+00 0. -1.
</event>
<event>
 4    1  0.3664744E+003  0.2124086E+02  0.7546771E-02  0.1515854E+00
          2   -1    0    0  502    0  0.00000000000E+00  0.00000000000E+00  0.44162397878E+03  0.44162397878E+03  0.00000000000E+00 0. -1.
          1   -1    0    0  501    0 -0.00000000000E+00 -0.00000000000E+00 -0.15896053991E+01  0.15896053991E+01  0.00000000000E+00 0.  1.
          2    1    1    2  501    0  0.18547001275E+02  0.10352923231E+02  0.35248333918E+03  0.35312275298E+03  0.00000000000E+00 0. -1.
          1    1    1    2  502    0 -0.18547001275E+02 -0.10352923231E+02  0.87551034201E+02  0.90090831195E+02  0.00000000000E+00 0.  1.
</event>
<event>
 4    1  0.3664744E+003  0.2333010E+02  0.7546771E-02  0.1488394E+00
          2   -1    0    0  502    0  0.00000000000E+00  0.00000000000E+00  0.10691453938E+01  0.10691453938E+01  0.00000000000E+00 0.  1.
          1   -1    0    0  501    0 -0.00000000000E+00 -0.00000000000E+00 -0.74803998355E+03  0.74803998355E+03  0.00000000000E+00 0.  1.
          2    1    1    2  501    0  0.15611008300E+02  0.17337536503E+02 -0.16179361438E+03  0.16346702238E+03  0.00000000000E+00 0.  1.
          1    1    1    2  502    0 -0.15611008300E+02 -0.17337536503E+02 -0.58517722378E+03  0.58564210657E+03  0.00000000000E+00 0.  1.
</event>
<event>
 4    1  0.3664744E+003  0.2717280E+02  0.7546771E-02  0.1445880E+00
          2   -1    0    0  502    0  0.00000000000E+00  0.00000000000E+00  0.60374861089E+03  0.60374861089E+03  0.00000000000E+00 0.  1.
          1   -1    0    0  501    0 -0.00000000000E+00 -0.00000000000E+00 -0.46566934057E+03  0.46566934057E+03  0.00000000000E+00 0.  1.
          2    1    1    2  501    0  0.36128443959E+01  0.26931553155E+02  0.60304601116E+03  0.60365789383E+03  0.00000000000E+00 0.  1.
          1    1    1    2  502    0 -0.36128443959E+01 -0.26931553155E+02 -0.46496674084E+03  0.46576005764E+03  0.00000000000E+00 0.  1.
</event>
<event>
 4    1  0.3664744E+003  0.2574220E+02  0.7546771E-02  0.1460669E+00
          2   -1    0    0  502    0  0.00000000000E+00  0.00000000000E+00  0.18204128265E+04  0.18204128265E+04  0.00000000000E+00 0.  1.
          1   -1    0    0  501    0 -0.00000000000E+00 -0.00000000000E+00 -0.28941641995E+03  0.28941641995E+03  0.00000000000E+00 0. -1.
          2    1    1    2  501    0 -0.25338645051E+02 -0.45402623809E+01  0.18197492023E+04  0.18199312679E+04  0.00000000000E+00 0.  1.
          1    1    1    2  502    0  0.25338645051E+02  0.45402623809E+01 -0.28875279571E+03  0.28989797851E+03  0.00000000000E+00 0. -1.
</event>
<event>
 4    1  0.3664744E+003  0.2254968E+02  0.7546771E-02  0.1498232E+00
          2   -1    0    0  502    0  0.00000000000E+00  0.00000000000E+00  0.38846596723E+03  0.38846596723E+03  0.00000000000E+00 0.  1.
          1   -1    0    0  501    0 -0.00000000000E+00 -0.00000000000E+00 -0.20390073580E+01  0.20390073580E+01  0.00000000000E+00 0.  1.
          2    1    1    2  501    0 -0.14202593003E+02 -0.17514981128E+02  0.31004534710E+03  0.31086428786E+03  0.00000000000E+00 0.  1.
          1    1    1    2  502    0  0.14202593003E+02  0.17514981128E+02  0.76381612771E+02  0.79640686721E+02  0.00000000000E+00 0.  1.
</event>
<event>
 4    1  0.3664744E+003  0.3545159E+02  0.7546771E-02  0.1377416E+00
          2   -1    0    0  502    0  0.00000000000E+00  0.00000000000E+00  0.14664596160E+03  0.14664596160E+03  0.00000000000E+00 0.  1.
          1   -1    0    0  501    0 -0.00000000000E+00 -0.00000000000E+00 -0.38590263291E+03  0.38590263291E+03  0.00000000000E+00 0. -1.
          2    1    1    2  501    0 -0.35448082557E+02  0.49883072187E+00  0.14367255359E+03  0.14798181660E+03  0.00000000000E+00 0.  1.
          1    1    1    2  502    0  0.35448082557E+02 -0.49883072187E+00 -0.38292922490E+03  0.38456677791E+03  0.00000000000E+00 0. -1.
</event>
<event>
 4    1  0.3664744E+003  0.2609663E+02  0.7546771E-02  0.1456900E+00
          2   -1    0    0  502    0  0.00000000000E+00  0.00000000000E+00  0.35881847274E+01  0.35881847274E+01  0.00000000000E+00 0. -1.
          1   -1    0    0  501    0 -0.00000000000E+00 -0.00000000000E+00 -0.16763412506E+04  0.16763412506E+04  0.00000000000E+00 0.  1.
          2    1    1    2  501    0  0.13002157314E+01 -0.26064219004E+02 -0.45391167197E+02  0.52358305289E+02  0.00000000000E+00 0. -1.
          1    1    1    2  502    0 -0.13002157314E+01  0.26064219004E+02 -0.16273618987E+04  0.16275711301E+04  0.00000000000E+00 0.  1.
</event>
<event>
 4    1  0.3664744E+003  0.3072279E+02  0.7546771E-02  0.1413417E+00
          2   -1    0    0  502    0  0.00000000000E+00  0.00000000000E+00  0.29605604006E+02  0.29605604006E+02  0.00000000000E+00 0.  1.
          1   -1    0    0  501    0 -0.00000000000E+00 -0.00000000000E+00 -0.35437567717E+03  0.35437567717E+03  0.00000000000E+00 0.  1.
          2    1    1    2  501    0  0.15883858404E+02  0.26298150546E+02  0.20765679077E+02  0.37082382711E+02  0.00000000000E+00 0.  1.
          1    1    1    2  502    0 -0.15883858404E+02 -0.26298150546E+02 -0.34553575224E+03  0.34689889846E+03  0.00000000000E+00 0.  1.
</event>
<event>
 4    1  0.3664744E+003  0.2000327E+02  0.7546771E-02  0.1533986E+00
          2   -1    0    0  502    0  0.00000000000E+00  0.00000000000E+00  0.27632646885E+01  0.27632646885E+01  0.00000000000E+00 0.  1.
          1   -1    0    0  501    0 -0.00000000000E+00 -0.00000000000E+00 -0.34069776312E+03  0.34069776312E+03  0.00000000000E+00 0.  1.
          2    1    1    2  501    0 -0.19659718614E+02  0.36913955074E+01 -0.38748514471E+02  0.43607090141E+02  0.00000000000E+00 0.  1.
          1    1    1    2  502    0  0.19659718614E+02 -0.36913955074E+01 -0.29918598396E+03  0.29985393767E+03  0.00000000000E+00 0.  1.
</event>
<event>
 4    1  0.3664744E+003  0.2628764E+02  0.7546771E-02  0.1454898E+00
          2   -1    0    0  502    0  0.00000000000E+00  0.00000000000E+00  0.82809371895E+03  0.82809371895E+03  0.00000000000E+00 0.  1.
          1   -1    0    0  501    0 -0.00000000000E+00 -0.00000000000E+00 -0.10271956668E+02  0.10271956668E+02  0.00000000000E+00 0.  1.
          2    1    1    2  501    0 -0.25569904030E+02  0.61008047933E+01  0.81070586594E+03  0.81113195035E+03  0.00000000000E+00 0.  1.
          1    1    1    2  502    0  0.25569904030E+02 -0.61008047933E+01  0.71158963456E+01  0.27233725270E+02  0.00000000000E+00 0.  1.
</event>
<event>
 4    1  0.3664744E+003  0.2030333E+02  0.7546771E-02  0.1529448E+00
          2   -1    0    0  502    0  0.00000000000E+00  0.00000000000E+00  0.13468823721E+03  0.13468823721E+03  0.00000000000E+00 0. -1.
          1   -1    0    0  501    0 -0.00000000000E+00 -0.00000000000E+00 -0.63171999163E+01  0.63171999163E+01  0.00000000000E+00 0. -1.
          2    1    1    2  501    0  0.20303271236E+02 -0.47614947992E-01  0.11480603987E+03  0.11658752883E+03  0.00000000000E+00 0. -1.
          1    1    1    2  502    0 -0.20303271236E+02  0.47614947992E-01  0.13564997426E+02  0.24417908290E+02  0.00000000000E+00 0. -1.
</event>
<event>
 4    1  0.3664744E+003  0.2501386E+02  0.7546771E-02  0.1468648E+00
          2   -1    0    0  502    0  0.00000000000E+00  0.00000000000E+00  0.20302024056E+02  0.20302024056E+02  0.00000000000E+00 0. -1.
          1   -1    0    0  501    0 -0.00000000000E+00 -0.00000000000E+00 -0.29487733073E+03  0.29487733073E+03  0.00000000000E+00 0.  1.
          2    1    1    2  501    0 -0.70543701176E+01  0.23998517944E+02  0.11839528431E+02  0.27674310014E+02  0.00000000000E+00 0. -1.
          1    1    1    2  502    0  0.70543701176E+01 -0.23998517944E+02 -0.28641483510E+03  0.28750504477E+03  0.00000000000E+00 0.  1.
</event>
<event>
 4    1  0.3664744E+003  0.4940287E+02  0.7546771E-02  0.1300782E+00
          2   -1    0    0  502    0  0.00000000000E+00  0.00000000000E+00  0.11827864340E+02  0.11827864340E+02  0.00000000000E+00 0.  1.
          1   -1    0    0  501    0 -0.00000000000E+00 -0.00000000000E+00 -0.28613182409E+04  0.28613182409E+04  0.00000000000E+00 0. -1.
          2    1    1    2  501    0  0.39066130033E+02  0.30240385625E+02 -0.40941287328E+02  0.64162547071E+02  0.00000000000E+00 0.  1.
          1    1    1    2  502    0 -0.39066130033E+02 -0.30240385625E+02 -0.28085490892E+04  0.28089835581E+04  0.00000000000E+00 0. -1.
</event>
<event>
 4    1  0.3664744E+003  0.2350887E+02  0.7546771E-02  0.1486205E+00
          2   -1    0    0  502    0  0.00000000000E+00  0.00000000000E+00  0.94343999150E+03  0.94343999150E+03  0.00000000000E+00 0.  1.
          1   -1    0    0  501    0 -0.00000000000E+00 -0.00000000000E+00 -0.49048919012E+01  0.49048919012E+01  0.00000000000E+00 0. -1.
          2    1    1    2  501    0 -0.23380695893E+02 -0.24515364073E+01  0.91422432233E+03  0.91452653243E+03  0.00000000000E+00 0.  1.
          1    1    1    2  502    0  0.23380695893E+02  0.24515364073E+01  0.24310777266E+02  0.33818350972E+02  0.00000000000E+00 0. -1.
</event>
<event>
 4    1  0.3664744E+003  0.2778876E+02  0.7546771E-02  0.1439842E+00
          2   -1    0    0  502    0  0.00000000000E+00  0.00000000000E+00  0.19714701112E+04  0.19714701112E+04  0.00000000000E+00 0. -1.
          1   -1    0    0  501    0 -0.00000000000E+00 -0.00000000000E+00 -0.20316157177E+01  0.20316157177E+01  0.00000000000E+00 0. -1.
          2    1    1    2  501    0 -0.27721080963E+02  0.19382091060E+01  0.18712588884E+04  0.18714652127E+04  0.00000000000E+00 0. -1.
          1    1    1    2  502    0  0.27721080963E+02 -0.19382091060E+01  0.98179607130E+02  0.10203651425E+03  0.00000000000E+00 0. -1.
</event>
<event>
 4    1  0.3664744E+003  0.2066416E+02  0.7546771E-02  0.1524114E+00
          2   -1    0    0  502    0  0.00000000000E+00  0.00000000000E+00  0.12945952225E+04  0.12945952225E+04  0.00000000000E+00 0. -1.
          1   -1    0    0  501    0 -0.00000000000E+00 -0.00000000000E+00 -0.30807047334E+01  0.30807047334E+01  0.00000000000E+00 0. -1.
          2    1    1    2  501    0 -0.14422032335E+02 -0.14799065169E+02  0.12588779193E+04  0.12590475062E+04  0.00000000000E+00 0. -1.
          1    1    1    2  502    0  0.14422032335E+02  0.14799065169E+02  0.32636598466E+02  0.38628420962E+02  0.00000000000E+00 0. -1.
</event>
<event>
 4    1  0.3664744E+003  0.2514597E+02  0.7546771E-02  0.1467177E+00
          2   -1    0    0  502    0  0.00000000000E+00  0.00000000000E+00  0.16840543563E+03  0.16840543563E+03  0.00000000000E+00 0. -1.
          1   -1    0    0  501    0 -0.00000000000E+00 -0.00000000000E+00 -0.10435024321E+04  0.10435024321E+04  0.00000000000E+00 0.  1.
          2    1    1    2  501    0 -0.22481459133E+02 -0.11265165090E+02  0.16731427642E+03  0.16919334219E+03  0.00000000000E+00 0. -1.
          1    1    1    2  502    0  0.22481459133E+02  0.11265165090E+02 -0.10424112728E+04  0.10427145255E+04  0.00000000000E+00 0.  1.
</event>
<event>
 4    1  0.3664744E+003  0.2400743E+02  0.7546771E-02  0.1480221E+00
          2   -1    0    0  502    0  0.00000000000E+00  0.00000000000E+00  0.36417739744E+03  0.36417739744E+03  0.00000000000E+00 0.  1.
          1   -1    0    0  501    0 -0.00000000000E+00 -0.00000000000E+00 -0.31908985091E+03  0.31908985091E+03  0.00000000000E+00 0. -1.
          2    1    1    2  501    0 -0.21280614703E+02  0.11112710372E+02  0.36332912446E+03  0.36412142147E+03  0.00000000000E+00 0.  1.
          1    1    1    2  502    0  0.21280614703E+02 -0.11112710372E+02 -0.31824157793E+03  0.31914582688E+03  0.00000000000E+00 0. -1.
</event>
<event>
 4    1  0.3664744E+003  0.2875278E+02  0.7546771E-02  0.1430753E+00
          2   -1    0    0  502    0  0.00000000000E+00  0.00000000000E+00  0.49035617993E+01  0.49035617993E+01  0.00000000000E+00 0.  1.
          1   -1    0    0  501    0 -0.00000000000E+00 -0.00000000000E+00 -0.16868417303E+03  0.16868417303E+03  0.00000000000E+00 0.  1.
          2    1    1    2  501    0 -0.11328260786E+01  0.28730455515E+02 -0.79909311055E+02  0.84924792389E+02  0.00000000000E+00 0.  1.
          1    1    1    2  502    0  0.11328260786E+01 -0.28730455515E+02 -0.83871300178E+02  0.88662942442E+02  0.00000000000E+00 0.  1.
</event>
<event>
 4    1  0.3664744E+003  0.2209888E+02  0.7546771E-02  0.1504134E+00
          2   -1    0    0  502    0  0.00000000000E+00  0.00000000000E+00  0.14216712655E+03  0.14216712655E+03  0.00000000000E+00 0.  1.
          1   -1    0    0  501    0 -0.00000000000E+00 -0.00000000000E+00 -0.45412745102E+01  0.45412745102E+01  0.00000000000E+00 0. -1.
          2    1    1    2  501    0 -0.39100191576E+01  0.21750223987E+02  0.10501595439E+03  0.10731594090E+03  0.00000000000E+00 0.  1.
          1    1    1    2  502    0  0.39100191576E+01 -0.21750223987E+02  0.32609897647E+02  0.39392460165E+02  0.00000000000E+00 0. -1.
</event>
<event>
 4    1  0.3664744E+003  0.2700013E+02  0.7546771E-02  0.1447607E+00
          2   -1    0    0  502    0  0.00000000000E+00  0.00000000000E+00  0.44414997821E+03  0.44414997821E+03  0.00000000000E+00 0. -1.
          1   -1    0    0  501    0 -0.00000000000E+00 -0.00000000000E+00 -0.52950622481E+01  0.52950622481E+01  0.00000000000E+00 0. -1.
          2    1    1    2  501    0  0.26099284258E+02 -0.69162534363E+01  0.40609895645E+03  0.40699554006E+03  0.00000000000E+00 0. -1.
          1    1    1    2  502    0 -0.26099284258E+02  0.69162534363E+01  0.32755959513E+02  0.42449500397E+02  0.00000000000E+00 0. -1.
</event>
<event>
 4    1  0.3664744E+003  0.2342700E+02  0.7546771E-02  0.1487205E+00
          2   -1    0    0  502    0  0.00000000000E+00  0.00000000000E+00  0.10323241392E+02  0.10323241392E+02  0.00000000000E+00 0. -1.
          1   -1    0    0  501    0 -0.00000000000E+00 -0.00000000000E+00 -0.43171391819E+03  0.43171391819E+03  0.00000000000E+00 0. -1.
          2    1    1    2  501    0  0.16415438816E+02 -0.16713998266E+02 -0.37325050355E+01  0.23722478020E+02  0.00000000000E+00 0. -1.
          1    1    1    2  502    0 -0.16415438816E+02  0.16713998266E+02 -0.41765817177E+03  0.41831468156E+03  0.00000000000E+00 0. -1.
</event>
<event>
 4    1  0.3664744E+003  0.2846308E+02  0.7546771E-02  0.1433440E+00
          2   -1    0    0  502    0  0.00000000000E+00  0.00000000000E+00  0.98399494551E+03  0.98399494551E+03  0.00000000000E+00 0.  1.
          1   -1    0    0  501    0 -0.00000000000E+00 -0.00000000000E+00 -0.28776561077E+01  0.28776561077E+01  0.00000000000E+00 0. -1.
          2    1    1    2  501    0 -0.17965270599E+02 -0.22077046725E+02  0.90747309321E+03  0.90791935867E+03  0.00000000000E+00 0.  1.
          1    1    1    2  502    0  0.17965270599E+02  0.22077046725E+02  0.73644196190E+02  0.78953242950E+02  0.00000000000E+00 0. -1.
</event>
<event>
 4    1  0.3664744E+003  0.2881426E+02  0.7546771E-02  0.1430188E+00
          2   -1    0    0  502    0  0.00000000000E+00  0.00000000000E+00  0.42757766923E+03  0.42757766923E+03  0.00000000000E+00 0.  1.
          1   -1    0    0  501    0 -0.00000000000E+00 -0.00000000000E+00 -0.53501645289E+02  0.53501645289E+02  0.00000000000E+00 0. -1.
          2    1    1    2  501    0 -0.53210909947E+01  0.28318683771E+02  0.42317227357E+03  0.42415213659E+03  0.00000000000E+00 0.  1.
          1    1    1    2  502    0  0.53210909947E+01 -0.28318683771E+02 -0.49096249624E+02  0.56927177929E+02  0.00000000000E+00 0. -1.
</event>
<event>
 4    1  0.3664744E+003  0.2367305E+02  0.7546771E-02  0.1484215E+00
          2   -1    0    0  502    0  0.00000000000E+00  0.00000000000E+00  0.44912154293E+01  0.44912154293E+01  0.00000000000E+00 0.  1.
          1   -1    0    0  501    0 -0.00000000000E+00 -0.00000000000E+00 -0.17606375111E+03  0.17606375111E+03  0.00000000000E+00 0. -1.
          2    1    1    2  501    0  0.12363214577E+02  0.20188218130E+02 -0.37063162607E+02  0.43978304292E+02  0.00000000000E+00 0.  1.
          1    1    1    2  502    0 -0.12363214577E+02 -0.20188218130E+02 -0.13450937307E+03  0.13657666224E+03  0.00000000000E+00 0. -1.
</event>
<event>
 4    1  0.3664744E+003  0.4395404E+02  0.7546771E-02  0.1326753E+00
          2   -1    0    0  502    0  0.00000000000E+00  0.00000000000E+00  0.56629774355E+03  0.56629774355E+03  0.00000000000E+00 0. -1.
          1   -1    0    0  501    0 -0.00000000000E+00 -0.00000000000E+00 -0.85298701441E+02  0.85298701441E+02  0.00000000000E+00 0. -1.
          2    1    1    2  501    0 -0.96150871635E+01  0.42889482933E+02  0.55971604284E+03  0.56143922757E+03  0.00000000000E+00 0. -1.
          1    1    1    2  502    0  0.96150871635E+01 -0.42889482933E+02 -0.78717000733E+02  0.90157217414E+02  0.00000000000E+00 0. -1.
</event>
<event>
 4    1  0.3664744E+003  0.2336806E+02  0.7546771E-02  0.1487927E+00
          2   -1    0    0  502    0  0.00000000000E+00  0.00000000000E+00  0.16006258310E+03  0.16006258310E+03  0.00000000000E+00 0.  1.
          1   -1    0    0  501    0 -0.00000000000E+00 -0.00000000000E+00 -0.44409218803E+02  0.44409218803E+02  0.00000000000E+00 0. -1.
          2    1    1    2  501    0 -0.21971035818E+02  0.79586311481E+01  0.15605716683E+03  0.15779703908E+03  0.00000000000E+00 0.  1.
          1    1    1    2  502    0  0.21971035818E+02 -0.79586311481E+01 -0.40403802536E+02  0.46674762817E+02  0.00000000000E+00 0. -1.
</event>
<event>
 4    1  0.3664744E+003  0.2249386E+02  0.7546771E-02  0.1498953E+00
          2   -1    0    0  502    0  0.00000000000E+00  0.00000000000E+00  0.60226123199E+03  0.60226123199E+03  0.00000000000E+00 0.  1.
          1   -1    0    0  501    0 -0.00000000000E+00 -0.00000000000E+00 -0.94727339310E+00  0.94727339310E+00  0.00000000000E+00 0.  1.
          2    1    1    2  501    0  0.19076681741E+02  0.11918646574E+02  0.40209372276E+03  0.40272240539E+03  0.00000000000E+00 0.  1.
          1    1    1    2  502    0 -0.19076681741E+02 -0.11918646574E+02  0.19922023584E+03  0.20048609999E+03  0.00000000000E+00 0.  1.
</event>
<event>
 4    1  0.3664744E+003  0.2630155E+02  0.7546771E-02  0.1454753E+00
          2   -1    0    0  502    0  0.00000000000E+00  0.00000000000E+00  0.28425307250E+03  0.28425307250E+03  0.00000000000E+00 0. -1.
          1   -1    0    0  501    0 -0.00000000000E+00 -0.00000000000E+00 -0.12676997336E+02  0.12676997336E+02  0.00000000000E+00 0. -1.
          2    1    1    2  501    0  0.24592387123E+02 -0.93266191921E+01  0.26924370493E+03  0.27052531116E+03  0.00000000000E+00 0. -1.
          1    1    1    2  502    0 -0.24592387123E+02  0.93266191921E+01  0.23323702304E+01  0.26404758679E+02  0.00000000000E+00 0. -1.
</event>
<event>
 4    1  0.3664744E+003  0.5879300E+02  0.7546771E-02  0.1263990E+00
          2   -1    0    0  502    0  0.00000000000E+00  0.00000000000E+00  0.15519161194E+04  0.15519161194E+04  0.00000000000E+00 0.  1.
          1   -1    0    0  501    0 -0.00000000000E+00 -0.00000000000E+00 -0.13571970710E+02  0.13571970710E+02  0.00000000000E+00 0.  1.
          2    1    1    2  501    0 -0.26182798150E+02  0.52641027402E+02  0.14848108178E+04  0.14859743542E+04  0.00000000000E+00 0.  1.
          1    1    1    2  502    0  0.26182798150E+02 -0.52641027402E+02  0.53533330942E+02  0.79513735963E+02  0.00000000000E+00 0.  1.
</event>
<event>
 4    1  0.3664744E+003  0.2162554E+02  0.7546771E-02  0.1510518E+00
          2   -1    0    0  502    0  0.00000000000E+00  0.00000000000E+00  0.19573679449E+03  0.19573679449E+03  0.00000000000E+00 0. -1.
          1   -1    0    0  501    0 -0.00000000000E+00 -0.00000000000E+00 -0.92244084301E+03  0.92244084301E+03  0.00000000000E+00 0. -1.
          2    1    1    2  501    0  0.20690840864E+02  0.62891235893E+01  0.19501226641E+03  0.19620766555E+03  0.00000000000E+00 0. -1.
          1    1    1    2  502    0 -0.20690840864E+02 -0.62891235893E+01 -0.92171631492E+03  0.92196997195E+03  0.00000000000E+00 0. -1.
</event>
<event>
 4    1  0.3664744E+003  0.3542181E+02  0.7546771E-02  0.1377622E+00
          2   -1    0    0  502    0  0.00000000000E+00  0.00000000000E+00  0.14883366243E+02  0.14883366243E+02  0.00000000000E+00 0.  1.
          1   -1    0    0  501    0 -0.00000000000E+00 -0.00000000000E+00 -0.85046294533E+02  0.85046294533E+02  0.00000000000E+00 0. -1.
          2    1    1    2  501    0  0.21176607076E+02 -0.28394650796E+02 -0.30408793140E+02  0.46684039899E+02  0.00000000000E+00 0.  1.
          1    1    1    2  502    0 -0.21176607076E+02  0.28394650796E+02 -0.39754135150E+02  0.53245620878E+02  0.00000000000E+00 0. -1.
</event>
<event>
 4    1  0.3664744E+003  0.5622344E+02  0.7546771E-02  0.1273234E+00
          2   -1    0    0  502    0  0.00000000000E+00  0.00000000000E+00  0.27802863609E+03  0.27802863609E+03  0.00000000000E+00 0. -1.
          1   -1    0    0  501    0 -0.00000000000E+00 -0.00000000000E+00 -0.26798995883E+03  0.26798995883E+03  0.00000000000E+00 0. -1.
          2    1    1    2  501    0  0.56050086836E+02  0.44116722676E+01  0.27217459790E+03  0.27792100825E+03  0.00000000000E+00 0. -1.
          1    1    1    2  502    0 -0.56050086836E+02 -0.44116722676E+01 -0.26213592064E+03  0.26809758667E+03  0.00000000000E+00 0. -1.
</event>
<event>
 4    1  0.5211548E+003  0.2663078E+02  0.7546771E-02  0.1451353E+00
          2   -1    0    0  502    0  0.00000000000E+00  0.00000000000E+00  0.14126857241E+04  0.14126857241E+04  0.00000000000E+00 0. -1.
          1   -1    0    0  501    0 -0.00000000000E+00 -0.00000000000E+00 -0.17895098034E+04  0.17895098034E+04  0.00000000000E+00 0. -1.
          2    1    1    2  501    0  0.22501021294E+02 -0.14244385921E+02  0.14124611258E+04  0.14127121541E+04  0.00000000000E+00 0. -1.
          1    1    1    2  502    0 -0.22501021294E+02  0.14244385921E+02 -0.17892852051E+04  0.17894833734E+04  0.00000000000E+00 0. -1.
</event>
<event>
 4    1  0.3664744E+003  0.4783106E+02  0.7546771E-02  0.1307860E+00
          2   -1    0    0  502    0  0.00000000000E+00  0.00000000000E+00  0.12874227100E+04  0.12874227100E+04  0.00000000000E+00 0.  1.
          1   -1    0    0  501    0 -0.00000000000E+00 -0.00000000000E+00 -0.28884877294E+04  0.28884877294E+04  0.00000000000E+00 0.  1.
          2    1    1    2  501    0 -0.10605286942E+02  0.46640522663E+02  0.12867803384E+04  0.12876689985E+04  0.00000000000E+00 0.  1.
          1    1    1    2  502    0  0.10605286942E+02 -0.46640522663E+02 -0.28878453578E+04  0.28882414409E+04  0.00000000000E+00 0.  1.
</event>
<event>
 4    1  0.3664744E+003  0.2131522E+02  0.7546771E-02  0.1514812E+00
          2   -1    0    0  502    0  0.00000000000E+00  0.00000000000E+00  0.16521118313E+02  0.16521118313E+02  0.00000000000E+00 0.  1.
          1   -1    0    0  501    0 -0.00000000000E+00 -0.00000000000E+00 -0.92234271834E+02  0.92234271834E+02  0.00000000000E+00 0.  1.
          2    1    1    2  501    0  0.20947320395E+02 -0.39431235481E+01  0.76988587863E+01  0.22662984835E+02  0.00000000000E+00 0.  1.
          1    1    1    2  502    0 -0.20947320395E+02  0.39431235481E+01 -0.83412012307E+02  0.86092405311E+02  0.00000000000E+00 0.  1.
</event>
<event>
 4    1  0.3664744E+003  0.2248460E+02  0.7546771E-02  0.1499073E+00
          2   -1    0    0  502    0  0.00000000000E+00  0.00000000000E+00  0.24876999787E+03  0.24876999787E+03  0.00000000000E+00 0. -1.
          1   -1    0    0  501    0 -0.00000000000E+00 -0.00000000000E+00 -0.69527736414E+01  0.69527736414E+01  0.00000000000E+00 0.  1.
          2    1    1    2  501    0  0.17711929226E+02  0.13850806167E+02  0.22847262831E+03  0.22957634712E+03  0.00000000000E+00 0. -1.
          1    1    1    2  502    0 -0.17711929226E+02 -0.13850806167E+02  0.13344595916E+02  0.26146424393E+02  0.00000000000E+00 0.  1.
</event>
<event>
 4    1  0.3664744E+003  0.2958972E+02  0.7546771E-02  0.1423196E+00
          2   -1    0    0  502    0  0.00000000000E+00  0.00000000000E+00  0.24534632765E+04  0.24534632765E+04  0.00000000000E+00 0.  1.
          1   -1    0    0  501    0 -0.00000000000E+00 -0.00000000000E+00 -0.38373607875E+00  0.38373607875E+00  0.00000000000E+00 0.  1.
          2    1    1    2  501    0 -0.66143876734E+01 -0.28840968370E+02  0.15512197796E+04  0.15515019679E+04  0.00000000000E+00 0.  1.
          1    1    1    2  502    0  0.66143876734E+01  0.28840968370E+02  0.90185976083E+03  0.90234504475E+03  0.00000000000E+00 0.  1.
</event>
<event>
 4    1  0.3664744E+003  0.2300212E+02  0.7546771E-02  0.1492472E+00
          2   -1    0    0  502    0  0.00000000000E+00  0.00000000000E+00  0.12050972819E+04  0.12050972819E+04  0.00000000000E+00 0.  1.
          1   -1    0    0  501    0 -0.00000000000E+00 -0.00000000000E+00 -0.84726707701E+01  0.84726707701E+01  0.00000000000E+00 0.  1.
          2    1    1    2  501    0 -0.79373568558E+01  0.21589254452E+02  0.11891665052E+04  0.11893889501E+04  0.00000000000E+00 0.  1.
          1    1    1    2  502    0  0.79373568558E+01 -0.21589254452E+02  0.74581059495E+01  0.24181002585E+02  0.00000000000E+00 0.  1.
</event>
<event>
 4    1  0.3664744E+003  0.2617936E+02  0.7546771E-02  0.1456030E+00
          2   -1    0    0  502    0  0.00000000000E+00  0.00000000000E+00  0.13151513750E+04  0.13151513750E+04  0.00000000000E+00 0. -1.
          1   -1    0    0  501    0 -0.00000000000E+00 -0.00000000000E+00 -0.69526837859E+00  0.69526837859E+00  0.00000000000E+00 0. -1.
          2    1    1    2  501    0 -0.28815540912E+00 -0.26177772626E+02  0.98649793018E+03  0.98684523866E+03  0.00000000000E+00 0. -1.
          1    1    1    2  502    0  0.28815540912E+00  0.26177772626E+02  0.32795817647E+03  0.32900140475E+03  0.00000000000E+00 0. -1.
</event>
<event>
 4    1  0.3664744E+003  0.4339859E+02  0.7546771E-02  0.1329644E+00
          2   -1    0    0  502    0  0.00000000000E+00  0.00000000000E+00  0.48806625306E+02  0.48806625306E+02  0.00000000000E+00 0.  1.
          1   -1    0    0  501    0 -0.00000000000E+00 -0.00000000000E+00 -0.39064232933E+02  0.39064232933E+02  0.00000000000E+00 0.  1.
          2    1    1    2  501    0  0.37827146665E+02 -0.21273089326E+02  0.97131187566E+01  0.44472261358E+02  0.00000000000E+00 0.  1.
          1    1    1    2  502    0 -0.37827146665E+02  0.21273089326E+02  0.29273616514E-01  0.43398596881E+02  0.00000000000E+00 0.  1.
</event>
<event>
 4    1  0.3664744E+003  0.4544633E+02  0.7546771E-02  0.1319223E+00
          2   -1    0    0  502    0  0.00000000000E+00  0.00000000000E+00  0.56222188000E+01  0.56222188000E+01  0.00000000000E+00 0.  1.
          1   -1    0    0  501    0 -0.00000000000E+00 -0.00000000000E+00 -0.45298899265E+03  0.45298899265E+03  0.00000000000E+00 0.  1.
          2    1    1    2  501    0 -0.58024266744E+01  0.45074394549E+02 -0.12398563422E+03  0.13205228772E+03  0.00000000000E+00 0.  1.
          1    1    1    2  502    0  0.58024266744E+01 -0.45074394549E+02 -0.32338113963E+03  0.32655892373E+03  0.00000000000E+00 0.  1.
</event>
<event>
 4    1  0.3664744E+003  0.2265056E+02  0.7546771E-02  0.1496933E+00
          2   -1    0    0  502    0  0.00000000000E+00  0.00000000000E+00  0.42999310316E+02  0.42999310316E+02  0.00000000000E+00 0.  1.
          1   -1    0    0  501    0 -0.00000000000E+00 -0.00000000000E+00 -0.18871003573E+02  0.18871003573E+02  0.00000000000E+00 0. -1.
          2    1    1    2  501    0 -0.10419712491E+02  0.20111622076E+02  0.30823510450E+02  0.38250967928E+02  0.00000000000E+00 0.  1.
          1    1    1    2  502    0  0.10419712491E+02 -0.20111622076E+02 -0.66952037084E+01  0.23619345961E+02  0.00000000000E+00 0. -1.
</event>
<event>
 4    1  0.3664744E+003  0.2330931E+02  0.7546771E-02  0.1488650E+00
          2   -1    0    0  502    0  0.00000000000E+00  0.00000000000E+00  0.25655040584E+03  0.25655040584E+03  0.00000000000E+00 0.  1.
          1   -1    0    0  501    0 -0.00000000000E+00 -0.00000000000E+00 -0.14436481222E+02  0.14436481222E+02  0.00000000000E+00 0. -1.
          2    1    1    2  501    0  0.19612525509E+01 -0.23226653951E+02  0.24621813095E+03  0.24731900852E+03  0.00000000000E+00 0.  1.
          1    1    1    2  502    0 -0.19612525509E+01  0.23226653951E+02 -0.41042063295E+01  0.23667878547E+02  0.00000000000E+00 0. -1.
</event>
<event>
 4    1  0.3664744E+003  0.3246004E+02  0.7546771E-02  0.1399357E+00
          2   -1    0    0  502    0  0.00000000000E+00  0.00000000000E+00  0.11588772955E+04  0.11588772955E+04  0.00000000000E+00 0.  1.
          1   -1    0    0  501    0 -0.00000000000E+00 -0.00000000000E+00 -0.10452808813E+01  0.10452808813E+01  0.00000000000E+00 0. -1.
          2    1    1    2  501    0  0.23831181918E+02  0.22039259417E+02  0.78817156270E+03  0.78883969629E+03  0.00000000000E+00 0.  1.
          1    1    1    2  502    0 -0.23831181918E+02 -0.22039259417E+02  0.36966045192E+03  0.37108288010E+03  0.00000000000E+00 0. -1.
</event>
<event>
 4    1  0.3664744E+003  0.2317163E+02  0.7546771E-02  0.1490354E+00
          2   -1    0    0  502    0  0.00000000000E+00  0.00000000000E+00  0.14062941623E+04  0.14062941623E+04  0.00000000000E+00 0. -1.
          1   -1    0    0  501    0 -0.00000000000E+00 -0.00000000000E+00 -0.35249353367E+01  0.35249353367E+01  0.00000000000E+00 0.  1.
          2    1    1    2  501    0  0.44154737678E+00  0.23167425306E+02  0.13670244203E+04  0.13672207906E+04  0.00000000000E+00 0. -1.
          1    1    1    2  502    0 -0.44154737678E+00 -0.23167425306E+02  0.35744806707E+02  0.42598307078E+02  0.00000000000E+00 0.  1.
</event>
<event>
 4    1  0.3664744E+003  0.6594353E+02  0.7546771E-02  0.1240874E+00
          2   -1    0    0  502    0  0.00000000000E+00  0.00000000000E+00  0.21382819510E+03  0.21382819510E+03  0.00000000000E+00 0.  1.
          1   -1    0    0  501    0 -0.00000000000E+00 -0.00000000000E+00 -0.24034900681E+02  0.24034900681E+02  0.00000000000E+00 0.  1.
          2    1    1    2  501    0 -0.65043052512E+02 -0.10860289156E+02  0.48244102009E+02  0.81707025030E+02  0.00000000000E+00 0.  1.
          1    1    1    2  502    0  0.65043052512E+02  0.10860289156E+02  0.14154919241E+03  0.15615607075E+03  0.00000000000E+00 0.  1.
</event>
<event>
 4    1  0.3664744E+003  0.2922483E+02  0.7546771E-02  0.1426454E+00
          2   -1    0    0  502    0  0.00000000000E+00  0.00000000000E+00  0.19412175892E+04  0.19412175892E+04  0.00000000000E+00 0. -1.
          1   -1    0    0  501    0 -0.00000000000E+00 -0.00000000000E+00 -0.14073004799E+01  0.14073004799E+01  0.00000000000E+00 0. -1.
          2    1    1    2  501    0 -0.18454547980E+02  0.22660992033E+02  0.17751935050E+04  0.17754340515E+04  0.00000000000E+00 0. -1.
          1    1    1    2  502    0  0.18454547980E+02 -0.22660992033E+02  0.16461678368E+03  0.16719083818E+03  0.00000000000E+00 0. -1.
</event>
<event>
 4    1  0.3664744E+003  0.3595365E+02  0.7546771E-02  0.1373980E+00
          2   -1    0    0  502    0  0.00000000000E+00  0.00000000000E+00  0.45367249643E+03  0.45367249643E+03  0.00000000000E+00 0.  1.
          1   -1    0    0  501    0 -0.00000000000E+00 -0.00000000000E+00 -0.32735270162E+03  0.32735270162E+03  0.00000000000E+00 0.  1.
          2    1    1    2  501    0 -0.32309499283E+02 -0.15772168108E+02  0.45196923694E+03  0.45339701827E+03  0.00000000000E+00 0.  1.
          1    1    1    2  502    0  0.32309499283E+02  0.15772168108E+02 -0.32564944213E+03  0.32762817978E+03  0.00000000000E+00 0.  1.
</event>
<event>
 4    1  0.3664744E+003  0.2833548E+02  0.7546771E-02  0.1434635E+00
          2   -1    0    0  502    0  0.00000000000E+00  0.00000000000E+00  0.33434577673E+02  0.33434577673E+02  0.00000000000E+00 0. -1.
          1   -1    0    0  501    0 -0.00000000000E+00 -0.00000000000E+00 -0.10230431177E+03  0.10230431177E+03  0.00000000000E+00 0. -1.
          2    1    1    2  501    0  0.28233138478E+02 -0.24061474202E+01  0.24937067051E+02  0.37745952986E+02  0.00000000000E+00 0. -1.
          1    1    1    2  502    0 -0.28233138478E+02  0.24061474202E+01 -0.93806801147E+02  0.97992936455E+02  0.00000000000E+00 0. -1.
</event>
<event>
 4    1  0.3664744E+003  0.3475705E+02  0.7546771E-02  0.1382279E+00
          2   -1    0    0  502    0  0.00000000000E+00  0.00000000000E+00  0.34619886720E+02  0.34619886720E+02  0.00000000000E+00 0.  1.
          1   -1    0    0  501    0 -0.00000000000E+00 -0.00000000000E+00 -0.51113053254E+03  0.51113053254E+03  0.00000000000E+00 0.  1.
          2    1    1    2  501    0 -0.34241671086E+02 -0.59632602507E+01  0.25140679296E+02  0.42896459843E+02  0.00000000000E+00 0.  1.
          1    1    1    2  502    0  0.34241671086E+02  0.59632602507E+01 -0.50165132512E+03  0.50285395942E+03  0.00000000000E+00 0.  1.
</event>
<event>
 4    1  0.3664744E+003  0.2136469E+02  0.7546771E-02  0.1514121E+00
          2   -1    0    0  502    0  0.00000000000E+00  0.00000000000E+00  0.65094124076E+03  0.65094124076E+03  0.00000000000E+00 0.  1.
          1   -1    0    0  501    0 -0.00000000000E+00 -0.00000000000E+00 -0.49078863988E+03  0.49078863988E+03  0.00000000000E+00 0.  1.
          2    1    1    2  501    0 -0.23126898215E+01 -0.21239146154E+02  0.65053328283E+03  0.65088401573E+03  0.00000000000E+00 0.  1.
          1    1    1    2  502    0  0.23126898215E+01  0.21239146154E+02 -0.49038068196E+03  0.49084586491E+03  0.00000000000E+00 0.  1.
</event>
<event>
 4    1  0.3664744E+003  0.3280859E+02  0.7546771E-02  0.1396661E+00
          2   -1    0    0  502    0  0.00000000000E+00  0.00000000000E+00  0.65371007849E+03  0.65371007849E+03  0.00000000000E+00 0.  1.
          1   -1    0    0  501    0 -0.00000000000E+00 -0.00000000000E+00 -0.33315759524E+01  0.33315759524E+01  0.00000000000E+00 0. -1.
          2    1    1    2  501    0 -0.26929116223E+02  0.18741038132E+02  0.55882212802E+03  0.55978440008E+03  0.00000000000E+00 0.  1.
          1    1    1    2  502    0  0.26929116223E+02 -0.18741038132E+02  0.91556374516E+02  0.97257254358E+02  0.00000000000E+00 0. -1.
</event>
<event>
 4    1  0.3664744E+003  0.2183942E+02  0.7546771E-02  0.1507609E+00
          2   -1    0    0  502    0  0.00000000000E+00  0.00000000000E+00  0.26916829476E+03  0.26916829476E+03  0.00000000000E+00 0.  1.
          1   -1    0    0  501    0 -0.00000000000E+00 -0.00000000000E+00 -0.80709781947E+02  0.80709781947E+02  0.00000000000E+00 0. -1.
          2    1    1    2  501    0 -0.20982000216E+02 -0.60593819830E+01  0.26723724875E+03  0.26812815511E+03  0.00000000000E+00 0.  1.
          1    1    1    2  502    0  0.20982000216E+02  0.60593819830E+01 -0.78778735944E+02  0.81749921590E+02  0.00000000000E+00 0. -1.
</event>
<event>
 4    1  0.3664744E+003  0.2215560E+02  0.7546771E-02  0.1503382E+00
          2   -1    0    0  502    0  0.00000000000E+00  0.00000000000E+00  0.25457445725E+02  0.25457445725E+02  0.00000000000E+00 0. -1.
          1   -1    0    0  501    0 -0.00000000000E+00 -0.00000000000E+00 -0.30060610125E+02  0.30060610125E+02  0.00000000000E+00 0.  1.
          2    1    1    2  501    0 -0.14706317050E+02  0.16570909488E+02  0.14320540186E+02  0.26380839139E+02  0.00000000000E+00 0. -1.
          1    1    1    2  502    0  0.14706317050E+02 -0.16570909488E+02 -0.18923704586E+02  0.29137216712E+02  0.00000000000E+00 0.  1.
</event>
<event>
 4    1  0.3664744E+003  0.2321106E+02  0.7546771E-02  0.1489865E+00
          2   -1    0    0  502    0  0.00000000000E+00  0.00000000000E+00  0.11752586974E+01  0.11752586974E+01  0.00000000000E+00 0. -1.
          1   -1    0    0  501    0 -0.00000000000E+00 -0.00000000000E+00 -0.85451433527E+03  0.85451433527E+03  0.00000000000E+00 0. -1.
          2    1    1    2  501    0 -0.23129732196E+02  0.19413222925E+01 -0.13537655618E+03  0.13735197562E+03  0.00000000000E+00 0. -1.
          1    1    1    2  502    0  0.23129732196E+02 -0.19413222925E+01 -0.71796252040E+03  0.71833761835E+03  0.00000000000E+00 0. -1.
</event>
<event>
 4    1  0.3664744E+003  0.2640224E+02  0.7546771E-02  0.1453707E+00
          2   -1    0    0  502    0  0.00000000000E+00  0.00000000000E+00  0.15756880290E+02  0.15756880290E+02  0.00000000000E+00 0.  1.
          1   -1    0    0  501    0 -0.00000000000E+00 -0.00000000000E+00 -0.30559692499E+03  0.30559692499E+03  0.00000000000E+00 0. -1.
          2    1    1    2  501    0  0.92803014226E+01 -0.24717494515E+02  0.36722676855E+01  0.26656407852E+02  0.00000000000E+00 0.  1.
          1    1    1    2  502    0 -0.92803014226E+01  0.24717494515E+02 -0.29351231238E+03  0.29469739742E+03  0.00000000000E+00 0. -1.
</event>
<event>
 4    1  0.3664744E+003  0.2779749E+02  0.7546771E-02  0.1439758E+00
          2   -1    0    0  502    0  0.00000000000E+00  0.00000000000E+00  0.40479973959E+01  0.40479973959E+01  0.00000000000E+00 0.  1.
          1   -1    0    0  501    0 -0.00000000000E+00 -0.00000000000E+00 -0.84949936536E+03  0.84949936536E+03  0.00000000000E+00 0.  1.
          2    1    1    2  501    0 -0.19724494257E+02 -0.19586845243E+02 -0.46947255246E+02  0.54559554208E+02  0.00000000000E+00 0.  1.
          1    1    1    2  502    0  0.19724494257E+02  0.19586845243E+02 -0.79850411272E+03  0.79898780855E+03  0.00000000000E+00 0.  1.
</event>
<event>
 4    1  0.3664744E+003  0.2108519E+02  0.7546771E-02  0.1518052E+00
          2   -1    0    0  502    0  0.00000000000E+00  0.00000000000E+00  0.27191003846E+03  0.27191003846E+03  0.00000000000E+00 0. -1.
          1   -1    0    0  501    0 -0.00000000000E+00 -0.00000000000E+00 -0.10956537508E+03  0.10956537508E+03  0.00000000000E+00 0.  1.
          2    1    1    2  501    0  0.20382788934E+02 -0.53969758012E+01  0.27048149779E+03  0.27130209376E+03  0.00000000000E+00 0. -1.
          1    1    1    2  502    0 -0.20382788934E+02  0.53969758012E+01 -0.10813683441E+03  0.11017331977E+03  0.00000000000E+00 0.  1.
</event>
<event>
 4    1  0.3664744E+003  0.3087677E+02  0.7546771E-02  0.1412127E+00
          2   -1    0    0  502    0  0.00000000000E+00  0.00000000000E+00  0.77682281246E+03  0.77682281246E+03  0.00000000000E+00 0.  1.
          1   -1    0    0  501    0 -0.00000000000E+00 -0.00000000000E+00 -0.13202149965E+01  0.13202149965E+01  0.00000000000E+00 0.  1.
          2    1    1    2  501    0  0.98766645704E+01  0.29254497144E+02  0.28451990970E+03  0.28619041409E+03  0.00000000000E+00 0.  1.
          1    1    1    2  502    0 -0.98766645704E+01 -0.29254497144E+02  0.49098268777E+03  0.49195261336E+03  0.00000000000E+00 0.  1.
</event>
<event>
 4    1  0.3664744E+003  0.3949304E+02  0.7546771E-02  0.1351482E+00
          2   -1    0    0  502    0  0.00000000000E+00  0.00000000000E+00  0.33892368197E+03  0.33892368197E+03  0.00000000000E+00 0. -1.
          1   -1    0    0  501    0 -0.00000000000E+00 -0.00000000000E+00 -0.72416137896E+03  0.72416137896E+03  0.00000000000E+00 0. -1.
          2    1    1    2  501    0  0.37106112142E+02  0.13521724573E+02  0.33723205889E+03  0.33953668746E+03  0.00000000000E+00 0. -1.
          1    1    1    2  502    0 -0.37106112142E+02 -0.13521724573E+02 -0.72246975587E+03  0.72354837346E+03  0.00000000000E+00 0. -1.
</event>
<event>
 4    1  0.3664744E+003  0.2412266E+02  0.7546771E-02  0.1478862E+00
          2   -1    0    0  502    0  0.00000000000E+00  0.00000000000E+00  0.10439195355E+04  0.10439195355E+04  0.00000000000E+00 0.  1.
          1   -1    0    0  501    0 -0.00000000000E+00 -0.00000000000E+00 -0.14829808910E+01  0.14829808910E+01  0.00000000000E+00 0. -1.
          2    1    1    2  501    0  0.19094606332E+02 -0.14741053643E+02  0.93415930587E+03  0.93447071190E+03  0.00000000000E+00 0.  1.
          1    1    1    2  502    0 -0.19094606332E+02  0.14741053643E+02  0.10827724875E+03  0.11093180451E+03  0.00000000000E+00 0. -1.
</event>
<event>
 4    1  0.3664744E+003  0.2964371E+02  0.7546771E-02  0.1422718E+00
          2   -1    0    0  502    0  0.00000000000E+00  0.00000000000E+00  0.25248529308E+03  0.25248529308E+03  0.00000000000E+00 0. -1.
          1   -1    0    0  501    0 -0.00000000000E+00 -0.00000000000E+00 -0.84522813469E+01  0.84522813469E+01  0.00000000000E+00 0. -1.
          2    1    1    2  501    0  0.25976051586E+02 -0.14282662670E+02  0.22208101034E+03  0.22405071940E+03  0.00000000000E+00 0. -1.
          1    1    1    2  502    0 -0.25976051586E+02  0.14282662670E+02  0.21952001399E+02  0.36886855035E+02  0.00000000000E+00 0. -1.
</event>
<event>
 4    1  0.3664744E+003  0.2109227E+02  0.7546771E-02  0.1517951E+00
          2   -1    0    0  502    0  0.00000000000E+00  0.00000000000E+00  0.11196591202E+02  0.11196591202E+02  0.00000000000E+00 0. -1.
          1   -1    0    0  501    0 -0.00000000000E+00 -0.00000000000E+00 -0.41942683057E+02  0.41942683057E+02  0.00000000000E+00 0.  1.
          2    1    1    2  501    0 -0.17747680705E+02  0.11397531467E+02 -0.92757531973E+01  0.23041777087E+02  0.00000000000E+00 0. -1.
          1    1    1    2  502    0  0.17747680705E+02 -0.11397531467E+02 -0.21470338658E+02  0.30097497172E+02  0.00000000000E+00 0.  1.
</event>
<event>
 4    1  0.3664744E+003  0.2843730E+02  0.7546771E-02  0.1433681E+00
          2   -1    0    0  502    0  0.00000000000E+00  0.00000000000E+00  0.11665667056E+02  0.11665667056E+02  0.00000000000E+00 0.  1.
          1   -1    0    0  501    0 -0.00000000000E+00 -0.00000000000E+00 -0.16566324316E+04  0.16566324316E+04  0.00000000000E+00 0. -1.
          2    1    1    2  501    0  0.21392719011E+02 -0.18735838799E+02 -0.59732088802E+01  0.29057861355E+02  0.00000000000E+00 0.  1.
          1    1    1    2  502    0 -0.21392719011E+02  0.18735838799E+02 -0.16389935557E+04  0.16392402373E+04  0.00000000000E+00 0. -1.
</event>
<event>
 4    1  0.3664744E+003  0.2290282E+02  0.7546771E-02  0.1493722E+00
          2   -1    0    0  502    0  0.00000000000E+00  0.00000000000E+00  0.96994746344E+03  0.96994746344E+03  0.00000000000E+00 0.  1.
          1   -1    0    0  501    0 -0.00000000000E+00 -0.00000000000E+00 -0.72902598465E+00  0.72902598465E+00  0.00000000000E+00 0.  1.
          2    1    1    2  501    0  0.16640805010E+02  0.15736027799E+02  0.73122624652E+03  0.73158482937E+03  0.00000000000E+00 0.  1.
          1    1    1    2  502    0 -0.16640805010E+02 -0.15736027799E+02  0.23799219094E+03  0.23909166006E+03  0.00000000000E+00 0.  1.
</event>
<event>
 4    1  0.3664744E+003  0.2767610E+02  0.7546771E-02  0.1440932E+00
          2   -1    0    0  502    0  0.00000000000E+00  0.00000000000E+00  0.14448925568E+01  0.14448925568E+01  0.00000000000E+00 0. -1.
          1   -1    0    0  501    0 -0.00000000000E+00 -0.00000000000E+00 -0.91334501443E+03  0.91334501443E+03  0.00000000000E+00 0.  1.
          2    1    1    2  501    0  0.27536422666E+02 -0.27770220493E+01 -0.15967106179E+03  0.16205188798E+03  0.00000000000E+00 0. -1.
          1    1    1    2  502    0 -0.27536422666E+02  0.27770220493E+01 -0.75222906008E+03  0.75273801900E+03  0.00000000000E+00 0.  1.
</event>
<event>
 4    1  0.3664744E+003  0.2282009E+02  0.7546771E-02  0.1494770E+00
          2   -1    0    0  502    0  0.00000000000E+00  0.00000000000E+00  0.48062196638E+02  0.48062196638E+02  0.00000000000E+00 0. -1.
          1   -1    0    0  501    0 -0.00000000000E+00 -0.00000000000E+00 -0.49387970528E+02  0.49387970528E+02  0.00000000000E+00 0. -1.
          2    1    1    2  501    0 -0.22488601217E+02  0.38754996098E+01  0.42386859694E+02  0.48139407522E+02  0.00000000000E+00 0. -1.
          1    1    1    2  502    0  0.22488601217E+02 -0.38754996098E+01 -0.43712633583E+02  0.49310759644E+02  0.00000000000E+00 0. -1.
</event>
<event>
 4    1  0.3664744E+003  0.2415886E+02  0.7546771E-02  0.1478437E+00
          2   -1    0    0  502    0  0.00000000000E+00  0.00000000000E+00  0.20204630693E+02  0.20204630693E+02  0.00000000000E+00 0.  1.
          1   -1    0    0  501    0 -0.00000000000E+00 -0.00000000000E+00 -0.10293735998E+04  0.10293735998E+04  0.00000000000E+00 0. -1.
          2    1    1    2  501    0 -0.19382514827E+01  0.24080980643E+02  0.12788743048E+02  0.27335003133E+02  0.00000000000E+00 0.  1.
          1    1    1    2  502    0  0.19382514827E+01 -0.24080980643E+02 -0.10219577122E+04  0.10222432274E+04  0.00000000000E+00 0. -1.
</event>
<event>
 4    1  0.3664744E+003  0.7391338E+02  0.7546771E-02  0.1218730E+00
          2   -1    0    0  502    0  0.00000000000E+00  0.00000000000E+00  0.13343849847E+04  0.13343849847E+04  0.00000000000E+00 0.  1.
          1   -1    0    0  501    0 -0.00000000000E+00 -0.00000000000E+00 -0.69155715600E+01  0.69155715600E+01  0.00000000000E+00 0.  1.
          2    1    1    2  501    0 -0.12936968200E+02 -0.72772403671E+02  0.10921008713E+04  0.10945992422E+04  0.00000000000E+00 0.  1.
          1    1    1    2  502    0  0.12936968200E+02  0.72772403671E+02  0.23536854185E+03  0.24670131410E+03  0.00000000000E+00 0.  1.
</event>
<event>
 4    1  0.3664744E+003  0.2327290E+02  0.7546771E-02  0.1489099E+00
          2   -1    0    0  502    0  0.00000000000E+00  0.00000000000E+00  0.77928365796E+03  0.77928365796E+03  0.00000000000E+00 0. -1.
          1   -1    0    0  501    0 -0.00000000000E+00 -0.00000000000E+00 -0.48977020521E+01  0.48977020521E+01  0.00000000000E+00 0.  1.
          2    1    1    2  501    0  0.41818580646E+00 -0.23269139968E+02  0.75039891696E+03  0.75075972343E+03  0.00000000000E+00 0. -1.
          1    1    1    2  502    0 -0.41818580646E+00  0.23269139968E+02  0.23987038952E+02  0.33421636583E+02  0.00000000000E+00 0.  1.
</event>
<event>
 4    1  0.3664744E+003  0.2650541E+02  0.7546771E-02  0.1452641E+00
          2   -1    0    0  502    0  0.00000000000E+00  0.00000000000E+00  0.15885059246E+04  0.15885059246E+04  0.00000000000E+00 0.  1.
          1   -1    0    0  501    0 -0.00000000000E+00 -0.00000000000E+00 -0.14144381817E+01  0.14144381817E+01  0.00000000000E+00 0.  1.
          2    1    1    2  501    0 -0.90159025933E+01  0.24924897592E+02  0.14526068876E+04  0.14528486868E+04  0.00000000000E+00 0.  1.
          1    1    1    2  502    0  0.90159025933E+01 -0.24924897592E+02  0.13448459881E+03  0.13707167591E+03  0.00000000000E+00 0.  1.
</event>
<event>
 4    1  0.3664744E+003  0.2404753E+02  0.7546771E-02  0.1479747E+00
          2   -1    0    0  502    0  0.00000000000E+00  0.00000000000E+00  0.22819848256E+02  0.22819848256E+02  0.00000000000E+00 0.  1.
          1   -1    0    0  501    0 -0.00000000000E+00 -0.00000000000E+00 -0.38447763988E+02  0.38447763988E+02  0.00000000000E+00 0.  1.
          2    1    1    2  501    0  0.13286603228E+02  0.20043702971E+02  0.10071857425E+02  0.26071558567E+02  0.00000000000E+00 0.  1.
          1    1    1    2  502    0 -0.13286603228E+02 -0.20043702971E+02 -0.25699773157E+02  0.35196053677E+02  0.00000000000E+00 0.  1.
</event>
<event>
 4    1  0.3664744E+003  0.2499896E+02  0.7546771E-02  0.1468815E+00
          2   -1    0    0  502    0  0.00000000000E+00  0.00000000000E+00  0.14921105115E+03  0.14921105115E+03  0.00000000000E+00 0.  1.
          1   -1    0    0  501    0 -0.00000000000E+00 -0.00000000000E+00 -0.63957642534E+02  0.63957642534E+02  0.00000000000E+00 0. -1.
          2    1    1    2  501    0 -0.45443006845E+01 -0.24582461751E+02  0.14566205708E+03  0.14779168775E+03  0.00000000000E+00 0.  1.
          1    1    1    2  502    0  0.45443006845E+01  0.24582461751E+02 -0.60408648470E+02  0.65377005931E+02  0.00000000000E+00 0. -1.
</event>
<event>
 4    1  0.3664744E+003  0.2391656E+02  0.7546771E-02  0.1481299E+00
          2   -1    0    0  502    0  0.00000000000E+00  0.00000000000E+00  0.10584244961E+04  0.10584244961E+04  0.00000000000E+00 0.  1.
          1   -1    0    0  501    0 -0.00000000000E+00 -0.00000000000E+00 -0.17188269461E+02  0.17188269461E+02  0.00000000000E+00 0.  1.
          2    1    1    2  501    0  0.22084579700E+02 -0.91800499823E+01  0.10499022091E+04  0.10501745811E+04  0.00000000000E+00 0.  1.
          1    1    1    2  502    0 -0.22084579700E+02  0.91800499823E+01 -0.86659824872E+01  0.25438184501E+02  0.00000000000E+00 0.  1.
</event>
<event>
 4    1  0.3664744E+003  0.2587132E+02  0.7546771E-02  0.1459288E+00
          2   -1    0    0  502    0  0.00000000000E+00  0.00000000000E+00  0.43533719395E+03  0.43533719395E+03  0.00000000000E+00 0.  1.
          1   -1    0    0  501    0 -0.00000000000E+00 -0.00000000000E+00 -0.67499805776E+03  0.67499805776E+03  0.00000000000E+00 0. -1.
          2    1    1    2  501    0  0.34996858484E-01  0.25871297658E+02  0.43470456279E+03  0.43547374454E+03  0.00000000000E+00 0.  1.
          1    1    1    2  502    0 -0.34996858484E-01 -0.25871297658E+02 -0.67436542660E+03  0.67486150717E+03  0.00000000000E+00 0. -1.
</event>
<event>
 4    1  0.3664744E+003  0.2890436E+02  0.7546771E-02  0.1429362E+00
          2   -1    0    0  502    0  0.00000000000E+00  0.00000000000E+00  0.67588381659E+00  0.67588381659E+00  0.00000000000E+00 0. -1.
          1   -1    0    0  501    0 -0.00000000000E+00 -0.00000000000E+00 -0.12750399920E+04  0.12750399920E+04  0.00000000000E+00 0. -1.
          2    1    1    2  501    0 -0.12477314807E+02  0.26072560723E+02 -0.52571540162E+03  0.52650939717E+03  0.00000000000E+00 0. -1.
          1    1    1    2  502    0  0.12477314807E+02 -0.26072560723E+02 -0.74864870655E+03  0.74920647863E+03  0.00000000000E+00 0. -1.
</event>
<event>
 4    1  0.3664744E+003  0.4035680E+02  0.7546771E-02  0.1346408E+00
          2   -1    0    0  502    0  0.00000000000E+00  0.00000000000E+00  0.98976948383E+03  0.98976948383E+03  0.00000000000E+00 0.  1.
          1   -1    0    0  501    0 -0.00000000000E+00 -0.00000000000E+00 -0.22617615365E+01  0.22617615365E+01  0.00000000000E+00 0.  1.
          2    1    1    2  501    0 -0.35030102855E+02 -0.20039042390E+02  0.75266603524E+03  0.75374719364E+03  0.00000000000E+00 0.  1.
          1    1    1    2  502    0  0.35030102855E+02  0.20039042390E+02  0.23484168706E+03  0.23828405172E+03  0.00000000000E+00 0.  1.
</event>
<event>
 4    1  0.3664744E+003  0.3205341E+02  0.7546771E-02  0.1402553E+00
          2   -1    0    0  502    0  0.00000000000E+00  0.00000000000E+00  0.13967171139E+03  0.13967171139E+03  0.00000000000E+00 0. -1.
          1   -1    0    0  501    0 -0.00000000000E+00 -0.00000000000E+00 -0.71259945924E+03  0.71259945924E+03  0.00000000000E+00 0.  1.
          2    1    1    2  501    0  0.31411669004E+02 -0.63818785274E+01  0.13746656422E+03  0.14115409169E+03  0.00000000000E+00 0. -1.
          1    1    1    2  502    0 -0.31411669004E+02  0.63818785274E+01 -0.71039431207E+03  0.71111707893E+03  0.00000000000E+00 0.  1.
</event>
<event>
 4    1  0.3664744E+003  0.2190011E+02  0.7546771E-02  0.1506791E+00
          2   -1    0    0  502    0  0.00000000000E+00  0.00000000000E+00  0.67657469818E+03  0.67657469818E+03  0.00000000000E+00 0. -1.
          1   -1    0    0  501    0 -0.00000000000E+00 -0.00000000000E+00 -0.48276106930E+01  0.48276106930E+01  0.00000000000E+00 0.  1.
          2    1    1    2  501    0  0.83832458659E+01  0.20232051549E+02  0.65056781443E+03  0.65093632246E+03  0.00000000000E+00 0. -1.
          1    1    1    2  502    0 -0.83832458659E+01 -0.20232051549E+02  0.21179273060E+02  0.30465986419E+02  0.00000000000E+00 0.  1.
</event>
<event>
 4    1  0.3664744E+003  0.2304168E+02  0.7546771E-02  0.1491975E+00
          2   -1    0    0  502    0  0.00000000000E+00  0.00000000000E+00  0.39250252241E+01  0.39250252241E+01  0.00000000000E+00 0. -1.
          1   -1    0    0  501    0 -0.00000000000E+00 -0.00000000000E+00 -0.10060150789E+04  0.10060150789E+04  0.00000000000E+00 0. -1.
          2    1    1    2  501    0 -0.12013795549E+02 -0.19661831729E+02 -0.31248161344E+02  0.38824818066E+02  0.00000000000E+00 0. -1.
          1    1    1    2  502    0  0.12013795549E+02  0.19661831729E+02 -0.97084189234E+03  0.97111528607E+03  0.00000000000E+00 0. -1.
</event>
<event>
 4    1  0.3664744E+003  0.2209579E+02  0.7546771E-02  0.1504176E+00
          2   -1    0    0  502    0  0.00000000000E+00  0.00000000000E+00  0.15217882112E+04  0.15217882112E+04  0.00000000000E+00 0. -1.
          1   -1    0    0  501    0 -0.00000000000E+00 -0.00000000000E+00 -0.21455769891E+01  0.21455769891E+01  0.00000000000E+00 0.  1.
          2    1    1    2  501    0 -0.22086403396E+02 -0.64390542477E+00  0.14625153683E+04  0.14626822711E+04  0.00000000000E+00 0. -1.
          1    1    1    2  502    0  0.22086403396E+02  0.64390542477E+00  0.57127265947E+02  0.61251517073E+02  0.00000000000E+00 0.  1.
</event>
<event>
 4    1  0.3664744E+003  0.2063876E+02  0.7546771E-02  0.1524485E+00
          2   -1    0    0  502    0  0.00000000000E+00  0.00000000000E+00  0.12041541083E+04  0.12041541083E+04  0.00000000000E+00 0. -1.
          1   -1    0    0  501    0 -0.00000000000E+00 -0.00000000000E+00 -0.16067722657E+01  0.16067722657E+01  0.00000000000E+00 0. -1.
          2    1    1    2  501    0  0.17944818394E+02  0.10195181869E+02  0.11336699911E+04  0.11338578425E+04  0.00000000000E+00 0. -1.
          1    1    1    2  502    0 -0.17944818394E+02 -0.10195181869E+02  0.68877344981E+02  0.71903038129E+02  0.00000000000E+00 0. -1.
</event>
<event>
 4    1  0.3664744E+003  0.4010882E+02  0.7546771E-02  0.1347849E+00
          2   -1    0    0  502    0  0.00000000000E+00  0.00000000000E+00  0.20885038677E+04  0.20885038677E+04  0.00000000000E+00 0.  1.
          1   -1    0    0  501    0 -0.00000000000E+00 -0.00000000000E+00 -0.77386433101E+00  0.77386433101E+00  0.00000000000E+00 0.  1.
          2    1    1    2  501    0  0.15233313794E+02 -0.37103399821E+02  0.97269127079E+03  0.97351786033E+03  0.00000000000E+00 0.  1.
          1    1    1    2  502    0 -0.15233313794E+02  0.37103399821E+02  0.11150387326E+04  0.11157598717E+04  0.00000000000E+00 0.  1.
</event>
<event>
 4    1  0.3664744E+003  0.2122883E+02  0.7546771E-02  0.1516023E+00
          2   -1    0    0  502    0  0.00000000000E+00  0.00000000000E+00  0.81047444524E+03  0.81047444524E+03  0.00000000000E+00 0.  1.
          1   -1    0    0  501    0 -0.00000000000E+00 -0.00000000000E+00 -0.46448599104E+01  0.46448599104E+01  0.00000000000E+00 0. -1.
          2    1    1    2  501    0 -0.18921302109E+02 -0.96253530016E+01  0.78530205192E+03  0.78558893567E+03  0.00000000000E+00 0.  1.
          1    1    1    2  502    0  0.18921302109E+02  0.96253530016E+01  0.20527533409E+02  0.29530369482E+02  0.00000000000E+00 0. -1.
</event>
<event>
 4    1  0.3664744E+003  0.2955233E+02  0.7546771E-02  0.1423527E+00
          2   -1    0    0  502    0  0.00000000000E+00  0.00000000000E+00  0.34279835686E+03  0.34279835686E+03  0.00000000000E+00 0. -1.
          1   -1    0    0  501    0 -0.00000000000E+00 -0.00000000000E+00 -0.84936891833E+01  0.84936891833E+01  0.00000000000E+00 0.  1.
          2    1    1    2  501    0 -0.12618063502E+02 -0.26723106378E+02  0.31411363484E+03  0.31550073777E+03  0.00000000000E+00 0. -1.
          1    1    1    2  502    0  0.12618063502E+02  0.26723106378E+02  0.20191032842E+02  0.35791308278E+02  0.00000000000E+00 0.  1.
</event>
<event>
 4    1  0.3664744E+003  0.2292002E+02  0.7546771E-02  0.1493505E+00
          2   -1    0    0  502    0  0.00000000000E+00  0.00000000000E+00  0.26193305411E+03  0.26193305411E+03  0.00000000000E+00 0. -1.
          1   -1    0    0  501    0 -0.00000000000E+00 -0.00000000000E+00 -0.22557275005E+03  0.22557275005E+03  0.00000000000E+00 0. -1.
          2    1    1    2  501    0 -0.22536916772E+02  0.41730698045E+01  0.26084702553E+03  0.26185205338E+03  0.00000000000E+00 0. -1.
          1    1    1    2  502    0  0.22536916772E+02 -0.41730698045E+01 -0.22448672147E+03  0.22565375079E+03  0.00000000000E+00 0. -1.
</event>
<event>
 4    1  0.3664744E+003  0.2364456E+02  0.7546771E-02  0.1484559E+00
          2   -1    0    0  502    0  0.00000000000E+00  0.00000000000E+00  0.11843377605E+02  0.11843377605E+02  0.00000000000E+00 0. -1.
          1   -1    0    0  501    0 -0.00000000000E+00 -0.00000000000E+00 -0.42455395464E+03  0.42455395464E+03  0.00000000000E+00 0.  1.
          2    1    1    2  501    0  0.22840510968E+02 -0.61135954648E+01 -0.64438968689E+00  0.23653334413E+02  0.00000000000E+00 0. -1.
          1    1    1    2  502    0 -0.22840510968E+02  0.61135954648E+01 -0.41206618735E+03  0.41274399783E+03  0.00000000000E+00 0.  1.
</event>
<event>
 4    1  0.3664744E+003  0.2154238E+02  0.7546771E-02  0.1511660E+00
          2   -1    0    0  502    0  0.00000000000E+00  0.00000000000E+00  0.14291653306E+04  0.14291653306E+04  0.00000000000E+00 0. -1.
          1   -1    0    0  501    0 -0.00000000000E+00 -0.00000000000E+00 -0.41053673417E+00  0.41053673417E+00  0.00000000000E+00 0. -1.
          2    1    1    2  501    0  0.46810763500E+01  0.21027642971E+02  0.10411870257E+04  0.10414098601E+04  0.00000000000E+00 0. -1.
          1    1    1    2  502    0 -0.46810763500E+01 -0.21027642971E+02  0.38756776823E+03  0.38816600729E+03  0.00000000000E+00 0. -1.
</event>
<event>
 4    1  0.3664744E+003  0.2957333E+02  0.7546771E-02  0.1423341E+00
          2   -1    0    0  502    0  0.00000000000E+00  0.00000000000E+00  0.42427954108E+03  0.42427954108E+03  0.00000000000E+00 0.  1.
          1   -1    0    0  501    0 -0.00000000000E+00 -0.00000000000E+00 -0.17237020635E+02  0.17237020635E+02  0.00000000000E+00 0. -1.
          2    1    1    2  501    0  0.27576684342E+02  0.10682153721E+02  0.41065940150E+03  0.41172287520E+03  0.00000000000E+00 0.  1.
          1    1    1    2  502    0 -0.27576684342E+02 -0.10682153721E+02 -0.36168810527E+01  0.29793686512E+02  0.00000000000E+00 0. -1.
</event>
<event>
 4    1  0.3664744E+003  0.2004208E+02  0.7546771E-02  0.1533393E+00
          2   -1    0    0  502    0  0.00000000000E+00  0.00000000000E+00  0.12341752181E+01  0.12341752181E+01  0.00000000000E+00 0. -1.
          1   -1    0    0  501    0 -0.00000000000E+00 -0.00000000000E+00 -0.81909748941E+03  0.81909748941E+03  0.00000000000E+00 0. -1.
          2    1    1    2  501    0 -0.19953059209E+02 -0.18868773055E+01 -0.90517689483E+02  0.92709961639E+02  0.00000000000E+00 0. -1.
          1    1    1    2  502    0  0.19953059209E+02  0.18868773055E+01 -0.72734562471E+03  0.72762170299E+03  0.00000000000E+00 0. -1.
</event>
<event>
 4    1  0.3664744E+003  0.2721526E+02  0.7546771E-02  0.1445458E+00
          2   -1    0    0  502    0  0.00000000000E+00  0.00000000000E+00  0.15486503761E+04  0.15486503761E+04  0.00000000000E+00 0. -1.
          1   -1    0    0  501    0 -0.00000000000E+00 -0.00000000000E+00 -0.61140491394E+02  0.61140491394E+02  0.00000000000E+00 0. -1.
          2    1    1    2  501    0 -0.27189529511E+02  0.11831775492E+01  0.15454960689E+04  0.15457356726E+04  0.00000000000E+00 0. -1.
          1    1    1    2  502    0  0.27189529511E+02 -0.11831775492E+01 -0.57986184264E+02  0.64055194869E+02  0.00000000000E+00 0. -1.
</event>
<event>
 4    1  0.3664744E+003  0.3872425E+02  0.7546771E-02  0.1356128E+00
          2   -1    0    0  502    0  0.00000000000E+00  0.00000000000E+00  0.40424947668E+03  0.40424947668E+03  0.00000000000E+00 0. -1.
          1   -1    0    0  501    0 -0.00000000000E+00 -0.00000000000E+00 -0.10390047852E+03  0.10390047852E+03  0.00000000000E+00 0. -1.
          2    1    1    2  501    0  0.29653636370E+02  0.24904404134E+02  0.39967269486E+03  0.40154430704E+03  0.00000000000E+00 0. -1.
          1    1    1    2  502    0 -0.29653636370E+02 -0.24904404134E+02 -0.99323696702E+02  0.10660564817E+03  0.00000000000E+00 0. -1.
</event>
<event>
 4    1  0.3664744E+003  0.2109099E+02  0.7546771E-02  0.1517970E+00
          2   -1    0    0  502    0  0.00000000000E+00  0.00000000000E+00  0.63137599854E+03  0.63137599854E+03  0.00000000000E+00 0. -1.
          1   -1    0    0  501    0 -0.00000000000E+00 -0.00000000000E+00 -0.90381850052E+01  0.90381850052E+01  0.00000000000E+00 0. -1.
          2    1    1    2  501    0  0.16888700513E+02 -0.12633348591E+02  0.61864250397E+03  0.61900192037E+03  0.00000000000E+00 0. -1.
          1    1    1    2  502    0 -0.16888700513E+02  0.12633348591E+02  0.36953095666E+01  0.21412263179E+02  0.00000000000E+00 0. -1.
</event>
<event>
 4    1  0.3664744E+003  0.2421060E+02  0.7546771E-02  0.1477831E+00
          2   -1    0    0  502    0  0.00000000000E+00  0.00000000000E+00  0.17658977936E+04  0.17658977936E+04  0.00000000000E+00 0.  1.
          1   -1    0    0  501    0 -0.00000000000E+00 -0.00000000000E+00 -0.21431167029E+01  0.21431167029E+01  0.00000000000E+00 0. -1.
          2    1    1    2  501    0 -0.12911882046E+02 -0.20480146358E+02  0.16945602103E+04  0.16947331528E+04  0.00000000000E+00 0.  1.
          1    1    1    2  502    0  0.12911882046E+02  0.20480146358E+02  0.69194466611E+02  0.73307757450E+02  0.00000000000E+00 0. -1.
</event>
<event>
 4    1  0.3664744E+003  0.2452071E+02  0.7546771E-02  0.1474237E+00
          2   -1    0    0  502    0  0.00000000000E+00  0.00000000000E+00  0.32973029920E+03  0.32973029920E+03  0.00000000000E+00 0. -1.
          1   -1    0    0  501    0 -0.00000000000E+00 -0.00000000000E+00 -0.15625933318E+02  0.15625933318E+02  0.00000000000E+00 0. -1.
          2    1    1    2  501    0 -0.15526696538E+02  0.18978595117E+02  0.31934228893E+03  0.32028231746E+03  0.00000000000E+00 0. -1.
          1    1    1    2  502    0  0.15526696538E+02 -0.18978595117E+02 -0.52379230557E+01  0.25073915050E+02  0.00000000000E+00 0. -1.
</event>
<event>
 4    1  0.3664744E+003  0.2125818E+02  0.7546771E-02  0.1515611E+00
          2   -1    0    0  502    0  0.00000000000E+00  0.00000000000E+00  0.16105274735E+03  0.16105274735E+03  0.00000000000E+00 0. -1.
          1   -1    0    0  501    0 -0.00000000000E+00 -0.00000000000E+00 -0.28377882125E+01  0.28377882125E+01  0.00000000000E+00 0. -1.
          2    1    1    2  501    0 -0.19599373895E+02  0.82325068222E+01  0.70430815448E+02  0.73569079037E+02  0.00000000000E+00 0. -1.
          1    1    1    2  502    0  0.19599373895E+02 -0.82325068222E+01  0.87784143692E+02  0.90321456529E+02  0.00000000000E+00 0. -1.
</event>
<event>
 4    1  0.3664744E+003  0.2062995E+02  0.7546771E-02  0.1524614E+00
          2   -1    0    0  502    0  0.00000000000E+00  0.00000000000E+00  0.11523491894E+02  0.11523491894E+02  0.00000000000E+00 0. -1.
          1   -1    0    0  501    0 -0.00000000000E+00 -0.00000000000E+00 -0.82519841433E+02  0.82519841433E+02  0.00000000000E+00 0. -1.
          2    1    1    2  501    0 -0.87184374327E+01  0.18697160322E+02 -0.54879487121E+00  0.20637251057E+02  0.00000000000E+00 0. -1.
          1    1    1    2  502    0  0.87184374327E+01 -0.18697160322E+02 -0.70447554668E+02  0.73406082269E+02  0.00000000000E+00 0. -1.
</event>
<event>
 4    1  0.3664744E+003  0.2260283E+02  0.7546771E-02  0.1497547E+00
          2   -1    0    0  502    0  0.00000000000E+00  0.00000000000E+00  0.21104139393E+02  0.21104139393E+02  0.00000000000E+00 0.  1.
          1   -1    0    0  501    0 -0.00000000000E+00 -0.00000000000E+00 -0.24814513978E+02  0.24814513978E+02  0.00000000000E+00 0.  1.
          2    1    1    2  501    0 -0.10138682127E+02 -0.20201364637E+02  0.17343923829E+01  0.22669277126E+02  0.00000000000E+00 0.  1.
          1    1    1    2  502    0  0.10138682127E+02  0.20201364637E+02 -0.54447669676E+01  0.23249376245E+02  0.00000000000E+00 0.  1.
</event>
<event>
 4    1  0.3664744E+003  0.2619419E+02  0.7546771E-02  0.1455875E+00
          2   -1    0    0  502    0  0.00000000000E+00  0.00000000000E+00  0.21307938745E+01  0.21307938745E+01  0.00000000000E+00 0. -1.
          1   -1    0    0  501    0 -0.00000000000E+00 -0.00000000000E+00 -0.45322639348E+03  0.45322639348E+03  0.00000000000E+00 0. -1.
          2    1    1    2  501    0 -0.17765650687E+01 -0.26133873328E+02 -0.10304112480E+03  0.10631843170E+03  0.00000000000E+00 0. -1.
          1    1    1    2  502    0  0.17765650687E+01  0.26133873328E+02 -0.34805447480E+03  0.34903875565E+03  0.00000000000E+00 0. -1.
</event>
<event>
 4    1  0.3664744E+003  0.2193171E+02  0.7546771E-02  0.1506367E+00
          2   -1    0    0  502    0  0.00000000000E+00  0.00000000000E+00  0.44755115551E+01  0.44755115551E+01  0.00000000000E+00 0. -1.
          1   -1    0    0  501    0 -0.00000000000E+00 -0.00000000000E+00 -0.13518137540E+03  0.13518137540E+03  0.00000000000E+00 0.  1.
          2    1    1    2  501    0  0.21665432638E+02  0.34071829823E+01 -0.33739340604E+02  0.40241060767E+02  0.00000000000E+00 0. -1.
          1    1    1    2  502    0 -0.21665432638E+02 -0.34071829823E+01 -0.96966523246E+02  0.99415826193E+02  0.00000000000E+00 0.  1.
</event>
<event>
 4    1  0.3664744E+003  0.2784020E+02  0.7546771E-02  0.1439346E+00
          2   -1    0    0  502    0  0.00000000000E+00  0.00000000000E+00  0.13095860097E+03  0.13095860097E+03  0.00000000000E+00 0.  1.
          1   -1    0    0  501    0 -0.00000000000E+00 -0.00000000000E+00 -0.20891857988E+02  0.20891857988E+02  0.00000000000E+00 0.  1.
          2    1    1    2  501    0 -0.16168381173E+01  0.27793206958E+02  0.11931063836E+03  0.12251573346E+03  0.00000000000E+00 0.  1.
          1    1    1    2  502    0  0.16168381173E+01 -0.27793206958E+02 -0.92438953773E+01  0.29334725502E+02  0.00000000000E+00 0.  1.
</event>
<event>
 4    1  0.3664744E+003  0.2140811E+02  0.7546771E-02  0.1513517E+00
          2   -1    0    0  502    0  0.00000000000E+00  0.00000000000E+00  0.11406819849E+03  0.11406819849E+03  0.00000000000E+00 0. -1.
          1   -1    0    0  501    0 -0.00000000000E+00 -0.00000000000E+00 -0.67227709658E+01  0.67227709658E+01  0.00000000000E+00 0. -1.
          2    1    1    2  501    0  0.16615070507E+02 -0.13499873372E+02  0.91982421930E+02  0.94440844411E+02  0.00000000000E+00 0. -1.
          1    1    1    2  502    0 -0.16615070507E+02  0.13499873372E+02  0.15363005595E+02  0.26350125046E+02  0.00000000000E+00 0. -1.
</event>
<event>
 4    1  0.3664744E+003  0.2622100E+02  0.7546771E-02  0.1455594E+00
          2   -1    0    0  502    0  0.00000000000E+00  0.00000000000E+00  0.15225481449E+04  0.15225481449E+04  0.00000000000E+00 0.  1.
          1   -1    0    0  501    0 -0.00000000000E+00 -0.00000000000E+00 -0.10516729698E+02  0.10516729698E+02  0.00000000000E+00 0. -1.
          2    1    1    2  501    0 -0.11660025120E+02  0.23485834135E+02  0.15059107228E+04  0.15061389862E+04  0.00000000000E+00 0.  1.
          1    1    1    2  502    0  0.11660025120E+02 -0.23485834135E+02  0.61206923580E+01  0.26925888393E+02  0.00000000000E+00 0. -1.
</event>
<event>
 4    1  0.3664744E+003  0.2821710E+02  0.7546771E-02  0.1435751E+00
          2   -1    0    0  502    0  0.00000000000E+00  0.00000000000E+00  0.23208220645E+03  0.23208220645E+03  0.00000000000E+00 0.  1.
          1   -1    0    0  501    0 -0.00000000000E+00 -0.00000000000E+00 -0.40957969054E+01  0.40957969054E+01  0.00000000000E+00 0.  1.
          2    1    1    2  501    0 -0.19922694079E+02  0.19982273670E+02  0.16157950052E+03  0.16402481517E+03  0.00000000000E+00 0.  1.
          1    1    1    2  502    0  0.19922694079E+02 -0.19982273670E+02  0.66406909021E+02  0.72153188191E+02  0.00000000000E+00 0.  1.
</event>
<event>
 4    1  0.3664744E+003  0.3035260E+02  0.7546771E-02  0.1416557E+00
          2   -1    0    0  502    0  0.00000000000E+00  0.00000000000E+00  0.10546596491E+04  0.10546596491E+04  0.00000000000E+00 0.  1.
          1   -1    0    0  501    0 -0.00000000000E+00 -0.00000000000E+00 -0.45019878081E+02  0.45019878081E+02  0.00000000000E+00 0. -1.
          2    1    1    2  501    0  0.30194327432E+02  0.30956576442E+01  0.10492991705E+04  0.10497380767E+04  0.00000000000E+00 0.  1.
          1    1    1    2  502    0 -0.30194327432E+02 -0.30956576442E+01 -0.39659399489E+02  0.49941450452E+02  0.00000000000E+00 0. -1.
</event>
<event>
 4    1  0.3664744E+003  0.2316663E+02  0.7546771E-02  0.1490416E+00
          2   -1    0    0  502    0  0.00000000000E+00  0.00000000000E+00  0.26678066068E+02  0.26678066068E+02  0.00000000000E+00 0. -1.
          1   -1    0    0  501    0 -0.00000000000E+00 -0.00000000000E+00 -0.27915061477E+02  0.27915061477E+02  0.00000000000E+00 0. -1.
          2    1    1    2  501    0  0.21487309179E+02 -0.86595883724E+01  0.13808344806E+02  0.26969673947E+02  0.00000000000E+00 0. -1.
          1    1    1    2  502    0 -0.21487309179E+02  0.86595883724E+01 -0.15045340215E+02  0.27623453598E+02  0.00000000000E+00 0. -1.
</event>
<event>
 4    1  0.3664744E+003  0.2491559E+02  0.7546771E-02  0.1469750E+00
          2   -1    0    0  502    0  0.00000000000E+00  0.00000000000E+00  0.50813217441E+03  0.50813217441E+03  0.00000000000E+00 0. -1.
          1   -1    0    0  501    0 -0.00000000000E+00 -0.00000000000E+00 -0.18144219628E+02  0.18144219628E+02  0.00000000000E+00 0.  1.
          2    1    1    2  501    0 -0.22644340913E+02 -0.10393292905E+02  0.49911887666E+03  0.49974037234E+03  0.00000000000E+00 0. -1.
          1    1    1    2  502    0  0.22644340913E+02  0.10393292905E+02 -0.91309218810E+01  0.26536021691E+02  0.00000000000E+00 0.  1.
</event>
<event>
 4    1  0.3664744E+003  0.2849625E+02  0.7546771E-02  0.1433130E+00
          2   -1    0    0  502    0  0.00000000000E+00  0.00000000000E+00  0.69537940000E+03  0.69537940000E+03  0.00000000000E+00 0.  1.
          1   -1    0    0  501    0 -0.00000000000E+00 -0.00000000000E+00 -0.19304631042E+01  0.19304631042E+01  0.00000000000E+00 0. -1.
          2    1    1    2  501    0 -0.23473884119E+02 -0.16155899756E+02  0.56587512801E+03  0.56659217858E+03  0.00000000000E+00 0.  1.
          1    1    1    2  502    0  0.23473884119E+02  0.16155899756E+02  0.12757380889E+03  0.13071768452E+03  0.00000000000E+00 0. -1.
</event>
<event>
 4    1  0.3664744E+003  0.2125405E+02  0.7546771E-02  0.1515668E+00
          2   -1    0    0  502    0  0.00000000000E+00  0.00000000000E+00  0.83296063393E+02  0.83296063393E+02  0.00000000000E+00 0. -1.
          1   -1    0    0  501    0 -0.00000000000E+00 -0.00000000000E+00 -0.56866051235E+03  0.56866051235E+03  0.00000000000E+00 0.  1.
          2    1    1    2  501    0 -0.20139455931E+02  0.67924291663E+01  0.81737932876E+02  0.84456050405E+02  0.00000000000E+00 0. -1.
          1    1    1    2  502    0  0.20139455931E+02 -0.67924291663E+01 -0.56710238183E+03  0.56750052533E+03  0.00000000000E+00 0.  1.
</event>
<event>
 4    1  0.3664744E+003  0.2347542E+02  0.7546771E-02  0.1486613E+00
          2   -1    0    0  502    0  0.00000000000E+00  0.00000000000E+00  0.33966546074E+03  0.33966546074E+03  0.00000000000E+00 0. -1.
          1   -1    0    0  501    0 -0.00000000000E+00 -0.00000000000E+00 -0.47431305607E+01  0.47431305607E+01  0.00000000000E+00 0.  1.
          2    1    1    2  501    0 -0.15455633829E+02  0.17669707905E+02  0.30714144004E+03  0.30803726947E+03  0.00000000000E+00 0. -1.
          1    1    1    2  502    0  0.15455633829E+02 -0.17669707905E+02  0.27780890136E+02  0.36371321825E+02  0.00000000000E+00 0.  1.
</event>
<event>
 4    1  0.3664744E+003  0.4408062E+02  0.7546771E-02  0.1326101E+00
          2   -1    0    0  502    0  0.00000000000E+00  0.00000000000E+00  0.24292336378E+03  0.24292336378E+03  0.00000000000E+00 0. -1.
          1   -1    0    0  501    0 -0.00000000000E+00 -0.00000000000E+00 -0.38737148315E+02  0.38737148315E+02  0.00000000000E+00 0.  1.
          2    1    1    2  501    0 -0.11363855932E+02  0.42590656268E+02  0.22754356255E+03  0.23177397196E+03  0.00000000000E+00 0. -1.
          1    1    1    2  502    0  0.11363855932E+02 -0.42590656268E+02 -0.23357347086E+02  0.49886540127E+02  0.00000000000E+00 0.  1.
</event>
<event>
 4    1  0.3664744E+003  0.2646849E+02  0.7546771E-02  0.1453021E+00
          2   -1    0    0  502    0  0.00000000000E+00  0.00000000000E+00  0.69305200710E+03  0.69305200710E+03  0.00000000000E+00 0.  1.
          1   -1    0    0  501    0 -0.00000000000E+00 -0.00000000000E+00 -0.11005675326E+02  0.11005675326E+02  0.00000000000E+00 0. -1.
          2    1    1    2  501    0  0.12698146203E+01  0.26438014990E+02  0.67649588279E+03  0.67701348620E+03  0.00000000000E+00 0.  1.
          1    1    1    2  502    0 -0.12698146203E+01 -0.26438014990E+02  0.55504489895E+01  0.27044196231E+02  0.00000000000E+00 0. -1.
</event>
<event>
 4    1  0.3664744E+003  0.2051853E+02  0.7546771E-02  0.1526251E+00
          2   -1    0    0  502    0  0.00000000000E+00  0.00000000000E+00  0.78887093174E+01  0.78887093174E+01  0.00000000000E+00 0.  1.
          1   -1    0    0  501    0 -0.00000000000E+00 -0.00000000000E+00 -0.46367065684E+03  0.46367065684E+03  0.00000000000E+00 0.  1.
          2    1    1    2  501    0  0.12023070153E+02  0.16626962220E+02 -0.60951460248E+01  0.21404693262E+02  0.00000000000E+00 0.  1.
          1    1    1    2  502    0 -0.12023070153E+02 -0.16626962220E+02 -0.44968680150E+03  0.45015467290E+03  0.00000000000E+00 0.  1.
</event>
<event>
 4    1  0.3664744E+003  0.2987577E+02  0.7546771E-02  0.1420679E+00
          2   -1    0    0  502    0  0.00000000000E+00  0.00000000000E+00  0.86968419402E+01  0.86968419402E+01  0.00000000000E+00 0. -1.
          1   -1    0    0  501    0 -0.00000000000E+00 -0.00000000000E+00 -0.11606225886E+03  0.11606225886E+03  0.00000000000E+00 0. -1.
          2    1    1    2  501    0  0.29672410450E+02  0.34797567157E+01 -0.74903631338E+02  0.80641891325E+02  0.00000000000E+00 0. -1.
          1    1    1    2  502    0 -0.29672410450E+02 -0.34797567157E+01 -0.32461785578E+02  0.44117209472E+02  0.00000000000E+00 0. -1.
</event>
<event>
 4    1  0.3664744E+003  0.2442513E+02  0.7546771E-02  0.1475338E+00
          2   -1    0    0  502    0  0.00000000000E+00  0.00000000000E+00  0.93617057023E+02  0.93617057023E+02  0.00000000000E+00 0. -1.
          1   -1    0    0  501    0 -0.00000000000E+00 -0.00000000000E+00 -0.22544034213E+03  0.22544034213E+03  0.00000000000E+00 0. -1.
          2    1    1    2  501    0 -0.21810649084E+02  0.10994657872E+02  0.91346156603E+02  0.94555313131E+02  0.00000000000E+00 0. -1.
          1    1    1    2  502    0  0.21810649084E+02 -0.10994657872E+02 -0.22316944171E+03  0.22450208602E+03  0.00000000000E+00 0. -1.
</event>
<event>
 4    1  0.3664744E+003  0.2993299E+02  0.7546771E-02  0.1420180E+00
          2   -1    0    0  502    0  0.00000000000E+00  0.00000000000E+00  0.44585685926E+03  0.44585685926E+03  0.00000000000E+00 0. -1.
          1   -1    0    0  501    0 -0.00000000000E+00 -0.00000000000E+00 -0.32631025033E+03  0.32631025033E+03  0.00000000000E+00 0.  1.
          2    1    1    2  501    0  0.16527184473E+02 -0.24956688562E+02  0.44466617763E+03  0.44567251840E+03  0.00000000000E+00 0. -1.
          1    1    1    2  502    0 -0.16527184473E+02  0.24956688562E+02 -0.32511956869E+03  0.32649459119E+03  0.00000000000E+00 0.  1.
</event>
<event>
 4    1  0.3664744E+003  0.2055917E+02  0.7546771E-02  0.1525653E+00
          2   -1    0    0  502    0  0.00000000000E+00  0.00000000000E+00  0.25657320643E+02  0.25657320643E+02  0.00000000000E+00 0. -1.
          1   -1    0    0  501    0 -0.00000000000E+00 -0.00000000000E+00 -0.55826789402E+02  0.55826789402E+02  0.00000000000E+00 0. -1.
          2    1    1    2  501    0 -0.19235387186E+02  0.72580412336E+01  0.19121812933E+02  0.28077090529E+02  0.00000000000E+00 0. -1.
          1    1    1    2  502    0  0.19235387186E+02 -0.72580412336E+01 -0.49291281692E+02  0.53407019516E+02  0.00000000000E+00 0. -1.
</event>
<event>
 4    1  0.3664744E+003  0.3138274E+02  0.7546771E-02  0.1407949E+00
          2   -1    0    0  502    0  0.00000000000E+00  0.00000000000E+00  0.15055607245E+03  0.15055607245E+03  0.00000000000E+00 0.  1.
          1   -1    0    0  501    0 -0.00000000000E+00 -0.00000000000E+00 -0.84086823310E+01  0.84086823310E+01  0.00000000000E+00 0. -1.
          2    1    1    2  501    0 -0.34132806686E+01  0.31196569734E+02  0.10852694449E+03  0.11297333371E+03  0.00000000000E+00 0.  1.
          1    1    1    2  502    0  0.34132806686E+01 -0.31196569734E+02  0.33620445620E+02  0.45991421068E+02  0.00000000000E+00 0. -1.
</event>
<event>
 4    1  0.3664744E+003  0.3443128E+02  0.7546771E-02  0.1384606E+00
          2   -1    0    0  502    0  0.00000000000E+00  0.00000000000E+00  0.20402322293E+04  0.20402322293E+04  0.00000000000E+00 0. -1.
          1   -1    0    0  501    0 -0.00000000000E+00 -0.00000000000E+00 -0.26712647161E+02  0.26712647161E+02  0.00000000000E+00 0. -1.
          2    1    1    2  501    0  0.27624867427E+02 -0.20551880564E+02  0.20289301076E+04  0.20292222388E+04  0.00000000000E+00 0. -1.
          1    1    1    2  502    0 -0.27624867427E+02  0.20551880564E+02 -0.15410525448E+02  0.37722637628E+02  0.00000000000E+00 0. -1.
</event>
<event>
 4    1  0.3664744E+003  0.4665151E+02  0.7546771E-02  0.1313382E+00
          2   -1    0    0  502    0  0.00000000000E+00  0.00000000000E+00  0.13265911917E+04  0.13265911917E+04  0.00000000000E+00 0.  1.
          1   -1    0    0  501    0 -0.00000000000E+00 -0.00000000000E+00 -0.18004952435E+02  0.18004952435E+02  0.00000000000E+00 0. -1.
          2    1    1    2  501    0  0.37843656295E+02 -0.27280414621E+02  0.12952306616E+04  0.12960705344E+04  0.00000000000E+00 0.  1.
          1    1    1    2  502    0 -0.37843656295E+02  0.27280414621E+02  0.13355577615E+02  0.48525609703E+02  0.00000000000E+00 0. -1.
</event>
<event>
 4    1  0.3664744E+003  0.3039537E+02  0.7546771E-02  0.1416191E+00
          2   -1    0    0  502    0  0.00000000000E+00  0.00000000000E+00  0.91509992685E+02  0.91509992685E+02  0.00000000000E+00 0. -1.
          1   -1    0    0  501    0 -0.00000000000E+00 -0.00000000000E+00 -0.10414017102E+02  0.10414017102E+02  0.00000000000E+00 0.  1.
          2    1    1    2  501    0 -0.27076341896E+02 -0.13811241784E+02  0.49454523787E+02  0.58048502247E+02  0.00000000000E+00 0. -1.
          1    1    1    2  502    0  0.27076341896E+02  0.13811241784E+02  0.31641451796E+02  0.43875507539E+02  0.00000000000E+00 0.  1.
</event>
<event>
 4    1  0.3664744E+003  0.2548875E+02  0.7546771E-02  0.1463409E+00
          2   -1    0    0  502    0  0.00000000000E+00  0.00000000000E+00  0.17136654165E+04  0.17136654165E+04  0.00000000000E+00 0.  1.
          1   -1    0    0  501    0 -0.00000000000E+00 -0.00000000000E+00 -0.51185137844E+00  0.51185137844E+00  0.00000000000E+00 0.  1.
          2    1    1    2  501    0 -0.24592204845E+02 -0.67007359441E+01  0.12930410038E+04  0.12932921998E+04  0.00000000000E+00 0.  1.
          1    1    1    2  502    0  0.24592204845E+02  0.67007359441E+01  0.42011256131E+03  0.42088506812E+03  0.00000000000E+00 0.  1.
</event>
<event>
 4    1  0.3664744E+003  0.4370437E+02  0.7546771E-02  0.1328046E+00
          2   -1    0    0  502    0  0.00000000000E+00  0.00000000000E+00  0.18331570730E+04  0.18331570730E+04  0.00000000000E+00 0.  1.
          1   -1    0    0  501    0 -0.00000000000E+00 -0.00000000000E+00 -0.16104051047E+01  0.16104051047E+01  0.00000000000E+00 0.  1.
          2    1    1    2  501    0 -0.43628963311E+02 -0.25662467431E+01  0.14608136481E+04  0.14614672718E+04  0.00000000000E+00 0.  1.
          1    1    1    2  502    0  0.43628963311E+02  0.25662467431E+01  0.37073301977E+03  0.37330020629E+03  0.00000000000E+00 0.  1.
</event>
<event>
 4    1  0.3664744E+003  0.2343437E+02  0.7546771E-02  0.1487115E+00
          2   -1    0    0  502    0  0.00000000000E+00  0.00000000000E+00  0.35415456161E+03  0.35415456161E+03  0.00000000000E+00 0.  1.
          1   -1    0    0  501    0 -0.00000000000E+00 -0.00000000000E+00 -0.51261343537E+02  0.51261343537E+02  0.00000000000E+00 0.  1.
          2    1    1    2  501    0 -0.23341075404E+02  0.20889925114E+01  0.35106507184E+03  0.35184635050E+03  0.00000000000E+00 0.  1.
          1    1    1    2  502    0  0.23341075404E+02 -0.20889925114E+01 -0.48171853764E+02  0.53569554654E+02  0.00000000000E+00 0.  1.
</event>
<event>
 4    1  0.3664744E+003  0.2474119E+02  0.7546771E-02  0.1471720E+00
          2   -1    0    0  502    0  0.00000000000E+00  0.00000000000E+00  0.16012287577E+01  0.16012287577E+01  0.00000000000E+00 0. -1.
          1   -1    0    0  501    0 -0.00000000000E+00 -0.00000000000E+00 -0.11005287204E+04  0.11005287204E+04  0.00000000000E+00 0. -1.
          2    1    1    2  501    0  0.21685993545E+02  0.11909830641E+02 -0.10428141931E+03  0.10717621375E+03  0.00000000000E+00 0. -1.
          1    1    1    2  502    0 -0.21685993545E+02 -0.11909830641E+02 -0.99464607229E+03  0.99495373536E+03  0.00000000000E+00 0. -1.
</event>
<event>
 4    1  0.3664744E+003  0.3075123E+02  0.7546771E-02  0.1413178E+00
          2   -1    0    0  502    0  0.00000000000E+00  0.00000000000E+00  0.11489176341E+02  0.11489176341E+02  0.00000000000E+00 0.  1.
          1   -1    0    0  501    0 -0.00000000000E+00 -0.00000000000E+00 -0.10419208432E+04  0.10419208432E+04  0.00000000000E+00 0.  1.
          2    1    1    2  501    0  0.36133742320E+01  0.30538204998E+02 -0.97423685400E+01  0.32257591085E+02  0.00000000000E+00 0.  1.
          1    1    1    2  502    0 -0.36133742320E+01 -0.30538204998E+02 -0.10206892983E+04  0.10211524285E+04  0.00000000000E+00 0.  1.
</event>
<event>
 4    1  0.3664744E+003  0.2527287E+02  0.7546771E-02  0.1465774E+00
          2   -1    0    0  502    0  0.00000000000E+00  0.00000000000E+00  0.20800611008E+02  0.20800611008E+02  0.00000000000E+00 0. -1.
          1   -1    0    0  501    0 -0.00000000000E+00 -0.00000000000E+00 -0.16599226754E+03  0.16599226754E+03  0.00000000000E+00 0. -1.
          2    1    1    2  501    0  0.23898090336E+02  0.82218900443E+01  0.11720583953E+02  0.27858397043E+02  0.00000000000E+00 0. -1.
          1    1    1    2  502    0 -0.23898090336E+02 -0.82218900443E+01 -0.15691224048E+03  0.15893448150E+03  0.00000000000E+00 0. -1.
</event>
<event>
 4    1  0.3664744E+003  0.2796459E+02  0.7546771E-02  0.1438152E+00
          2   -1    0    0  502    0  0.00000000000E+00  0.00000000000E+00  0.18704654918E+03  0.18704654918E+03  0.00000000000E+00 0. -1.
          1   -1    0    0  501    0 -0.00000000000E+00 -0.00000000000E+00 -0.70779684605E+01  0.70779684605E+01  0.00000000000E+00 0.  1.
          2    1    1    2  501    0 -0.20466454590E+02 -0.19056305636E+02  0.15208223309E+03  0.15463189894E+03  0.00000000000E+00 0. -1.
          1    1    1    2  502    0  0.20466454590E+02  0.19056305636E+02  0.27886347638E+02  0.39492618710E+02  0.00000000000E+00 0.  1.
</event>
<event>
 4    1  0.3664744E+003  0.2789177E+02  0.7546771E-02  0.1438850E+00
          2   -1    0    0  502    0  0.00000000000E+00  0.00000000000E+00  0.48462418128E+03  0.48462418128E+03  0.00000000000E+00 0. -1.
          1   -1    0    0  501    0 -0.00000000000E+00 -0.00000000000E+00 -0.34883316392E+02  0.34883316392E+02  0.00000000000E+00 0.  1.
          2    1    1    2  501    0 -0.51462573509E+01  0.27412892009E+02  0.47857709925E+03  0.47938918484E+03  0.00000000000E+00 0. -1.
          1    1    1    2  502    0  0.51462573509E+01 -0.27412892009E+02 -0.28836234358E+02  0.40118312838E+02  0.00000000000E+00 0.  1.
</event>
<event>
 4    1  0.3664744E+003  0.2730097E+02  0.7546771E-02  0.1444608E+00
          2   -1    0    0  502    0  0.00000000000E+00  0.00000000000E+00  0.13326890951E+04  0.13326890951E+04  0.00000000000E+00 0.  1.
          1   -1    0    0  501    0 -0.00000000000E+00 -0.00000000000E+00 -0.20557635276E+02  0.20557635276E+02  0.00000000000E+00 0. -1.
          2    1    1    2  501    0 -0.27239812823E+02  0.18263285256E+01  0.13234217469E+04  0.13237033138E+04  0.00000000000E+00 0.  1.
          1    1    1    2  502    0  0.27239812823E+02 -0.18263285256E+01 -0.11290287081E+02  0.29543416540E+02  0.00000000000E+00 0. -1.
</event>
<event>
 4    1  0.3664744E+003  0.2281181E+02  0.7546771E-02  0.1494875E+00
          2   -1    0    0  502    0  0.00000000000E+00  0.00000000000E+00  0.88079939123E+02  0.88079939123E+02  0.00000000000E+00 0. -1.
          1   -1    0    0  501    0 -0.00000000000E+00 -0.00000000000E+00 -0.27853540429E+02  0.27853540429E+02  0.00000000000E+00 0. -1.
          2    1    1    2  501    0  0.20889078621E+02  0.91665243616E+01  0.81566297736E+02  0.84696161075E+02  0.00000000000E+00 0. -1.
          1    1    1    2  502    0 -0.20889078621E+02 -0.91665243616E+01 -0.21339899042E+02  0.31237318477E+02  0.00000000000E+00 0. -1.
</event>
<event>
 4    1  0.3664744E+003  0.2227335E+02  0.7546771E-02  0.1501830E+00
          2   -1    0    0  502    0  0.00000000000E+00  0.00000000000E+00  0.19554540206E+01  0.19554540206E+01  0.00000000000E+00 0.  1.
          1   -1    0    0  501    0 -0.00000000000E+00 -0.00000000000E+00 -0.88916113834E+03  0.88916113834E+03  0.00000000000E+00 0.  1.
          2    1    1    2  501    0 -0.10665499457E+02 -0.19553748564E+02 -0.66935278000E+02  0.70543840288E+02  0.00000000000E+00 0.  1.
          1    1    1    2  502    0  0.10665499457E+02  0.19553748564E+02 -0.82027040632E+03  0.82057275207E+03  0.00000000000E+00 0.  1.
</event>
<event>
 4    1  0.3664744E+003  0.2699651E+02  0.7546771E-02  0.1447643E+00
          2   -1    0    0  502    0  0.00000000000E+00  0.00000000000E+00  0.75530339255E+03  0.75530339255E+03  0.00000000000E+00 0.  1.
          1   -1    0    0  501    0 -0.00000000000E+00 -0.00000000000E+00 -0.19476213646E+03  0.19476213646E+03  0.00000000000E+00 0.  1.
          2    1    1    2  501    0  0.26931489857E+02  0.18724773548E+01  0.75412518547E+03  0.75460824716E+03  0.00000000000E+00 0.  1.
          1    1    1    2  502    0 -0.26931489857E+02 -0.18724773548E+01 -0.19358392938E+03  0.19545728186E+03  0.00000000000E+00 0.  1.
</event>
<event>
 4    1  0.3664744E+003  0.2127847E+02  0.7546771E-02  0.1515326E+00
          2   -1    0    0  502    0  0.00000000000E+00  0.00000000000E+00  0.62202125604E+03  0.62202125604E+03  0.00000000000E+00 0. -1.
          1   -1    0    0  501    0 -0.00000000000E+00 -0.00000000000E+00 -0.14696693329E+03  0.14696693329E+03  0.00000000000E+00 0. -1.
          2    1    1    2  501    0  0.77825456458E+00 -0.21264229347E+02  0.62106790199E+03  0.62143230686E+03  0.00000000000E+00 0. -1.
          1    1    1    2  502    0 -0.77825456458E+00  0.21264229347E+02 -0.14601357924E+03  0.14755588247E+03  0.00000000000E+00 0. -1.
</event>
<event>
 4    1  0.3664744E+003  0.2405556E+02  0.7546771E-02  0.1479652E+00
          2   -1    0    0  502    0  0.00000000000E+00  0.00000000000E+00  0.31295237735E+02  0.31295237735E+02  0.00000000000E+00 0.  1.
          1   -1    0    0  501    0 -0.00000000000E+00 -0.00000000000E+00 -0.18088769021E+03  0.18088769021E+03  0.00000000000E+00 0.  1.
          2    1    1    2  501    0  0.75345550746E+01 -0.22845140906E+02  0.25726662592E+02  0.35221174758E+02  0.00000000000E+00 0.  1.
          1    1    1    2  502    0 -0.75345550746E+01  0.22845140906E+02 -0.17531911507E+03  0.17696175319E+03  0.00000000000E+00 0.  1.
</event>
<event>
 4    1  0.3664744E+003  0.2139516E+02  0.7546771E-02  0.1513697E+00
          2   -1    0    0  502    0  0.00000000000E+00  0.00000000000E+00  0.96273209235E+03  0.96273209235E+03  0.00000000000E+00 0. -1.
          1   -1    0    0  501    0 -0.00000000000E+00 -0.00000000000E+00 -0.20927509357E+01  0.20927509357E+01  0.00000000000E+00 0. -1.
          2    1    1    2  501    0  0.90443126873E-02  0.21395162447E+02  0.90440382782E+03  0.90465686138E+03  0.00000000000E+00 0. -1.
          1    1    1    2  502    0 -0.90443126873E-02 -0.21395162447E+02  0.56235513594E+02  0.60167981910E+02  0.00000000000E+00 0. -1.
</event>
<event>
 4    1  0.3664744E+003  0.2685748E+02  0.7546771E-02  0.1449045E+00
          2   -1    0    0  502    0  0.00000000000E+00  0.00000000000E+00  0.76746074149E+03  0.76746074149E+03  0.00000000000E+00 0. -1.
          1   -1    0    0  501    0 -0.00000000000E+00 -0.00000000000E+00 -0.20269634913E+01  0.20269634913E+01  0.00000000000E+00 0. -1.
          2    1    1    2  501    0  0.12778327820E+02 -0.23622837222E+02  0.66447690926E+03  0.66501946366E+03  0.00000000000E+00 0. -1.
          1    1    1    2  502    0 -0.12778327820E+02  0.23622837222E+02  0.10095686874E+03  0.10446824132E+03  0.00000000000E+00 0. -1.
</event>
<event>
 4    1  0.3664744E+003  0.2057951E+02  0.7546771E-02  0.1525354E+00
          2   -1    0    0  502    0  0.00000000000E+00  0.00000000000E+00  0.32327689309E+03  0.32327689309E+03  0.00000000000E+00 0.  1.
          1   -1    0    0  501    0 -0.00000000000E+00 -0.00000000000E+00 -0.26405751636E+03  0.26405751636E+03  0.00000000000E+00 0. -1.
          2    1    1    2  501    0  0.19078590165E+02  0.77151528648E+01  0.32254749950E+03  0.32320335026E+03  0.00000000000E+00 0.  1.
          1    1    1    2  502    0 -0.19078590165E+02 -0.77151528648E+01 -0.26332812277E+03  0.26413105919E+03  0.00000000000E+00 0. -1.
</event>
<event>
 4    1  0.3664744E+003  0.3882236E+02  0.7546771E-02  0.1355528E+00
          2   -1    0    0  502    0  0.00000000000E+00  0.00000000000E+00  0.10261484521E+04  0.10261484521E+04  0.00000000000E+00 0.  1.
          1   -1    0    0  501    0 -0.00000000000E+00 -0.00000000000E+00 -0.17106454638E+01  0.17106454638E+01  0.00000000000E+00 0. -1.
          2    1    1    2  501    0 -0.38613202836E+02  0.40244158480E+01  0.70546917297E+03  0.70653657327E+03  0.00000000000E+00 0.  1.
          1    1    1    2  502    0  0.38613202836E+02 -0.40244158480E+01  0.31896863366E+03  0.32132252429E+03  0.00000000000E+00 0. -1.
</event>
<event>
 4    1  0.3664744E+003  0.3293961E+02  0.7546771E-02  0.1395657E+00
          2   -1    0    0  502    0  0.00000000000E+00  0.00000000000E+00  0.62253302091E+03  0.62253302091E+03  0.00000000000E+00 0.  1.
          1   -1    0    0  501    0 -0.00000000000E+00 -0.00000000000E+00 -0.35483712618E+01  0.35483712618E+01  0.00000000000E+00 0.  1.
          2    1    1    2  501    0  0.14058805981E+02  0.29788717378E+02  0.53278815651E+03  0.53380543030E+03  0.00000000000E+00 0.  1.
          1    1    1    2  502    0 -0.14058805981E+02 -0.29788717378E+02  0.86196493139E+02  0.92275961865E+02  0.00000000000E+00 0.  1.
</event>
<event>
 4    1  0.3664744E+003  0.2035202E+02  0.7546771E-02  0.1528721E+00
          2   -1    0    0  502    0  0.00000000000E+00  0.00000000000E+00  0.77623166444E+03  0.77623166444E+03  0.00000000000E+00 0. -1.
          1   -1    0    0  501    0 -0.00000000000E+00 -0.00000000000E+00 -0.76314188250E+00  0.76314188250E+00  0.00000000000E+00 0. -1.
          2    1    1    2  501    0 -0.12380854965E+02  0.16152989790E+02  0.60079694189E+03  0.60114155574E+03  0.00000000000E+00 0. -1.
          1    1    1    2  502    0  0.12380854965E+02 -0.16152989790E+02  0.17467158067E+03  0.17585325059E+03  0.00000000000E+00 0. -1.
</event>
<event>
 4    1  0.3664744E+003  0.5477137E+02  0.7546771E-02  0.1278713E+00
          2   -1    0    0  502    0  0.00000000000E+00  0.00000000000E+00  0.22713375647E+02  0.22713375647E+02  0.00000000000E+00 0. -1.
          1   -1    0    0  501    0 -0.00000000000E+00 -0.00000000000E+00 -0.18328296937E+03  0.18328296937E+03  0.00000000000E+00 0. -1.
          2    1    1    2  501    0 -0.37794394917E+02  0.39641979583E+02 -0.25843189348E+02  0.60562143853E+02  0.00000000000E+00 0. -1.
          1    1    1    2  502    0  0.37794394917E+02 -0.39641979583E+02 -0.13472640438E+03  0.14543420117E+03  0.00000000000E+00 0. -1.
</event>
<event>
 4    1  0.3664744E+003  0.2978482E+02  0.7546771E-02  0.1421476E+00
          2   -1    0    0  502    0  0.00000000000E+00  0.00000000000E+00  0.19693631011E+04  0.19693631011E+04  0.00000000000E+00 0.  1.
          1   -1    0    0  501    0 -0.00000000000E+00 -0.00000000000E+00 -0.80915286765E+00  0.80915286765E+00  0.00000000000E+00 0. -1.
          2    1    1    2  501    0  0.28730146645E+02 -0.78558496399E+01  0.16401431649E+04  0.16404135872E+04  0.00000000000E+00 0.  1.
          1    1    1    2  502    0 -0.28730146645E+02  0.78558496399E+01  0.32841078331E+03  0.32975866675E+03  0.00000000000E+00 0. -1.
</event>
<event>
 4    1  0.3664744E+003  0.2219273E+02  0.7546771E-02  0.1502892E+00
          2   -1    0    0  502    0  0.00000000000E+00  0.00000000000E+00  0.31887323871E+02  0.31887323871E+02  0.00000000000E+00 0. -1.
          1   -1    0    0  501    0 -0.00000000000E+00 -0.00000000000E+00 -0.46805487689E+02  0.46805487689E+02  0.00000000000E+00 0.  1.
          2    1    1    2  501    0  0.22111727916E+02 -0.18944160883E+01  0.24747472140E+02  0.33240858910E+02  0.00000000000E+00 0. -1.
          1    1    1    2  502    0 -0.22111727916E+02  0.18944160883E+01 -0.39665635958E+02  0.45451952650E+02  0.00000000000E+00 0.  1.
</event>
<event>
 4    1  0.3664744E+003  0.4064524E+02  0.7546771E-02  0.1344746E+00
          2   -1    0    0  502    0  0.00000000000E+00  0.00000000000E+00  0.10426087458E+04  0.10426087458E+04  0.00000000000E+00 0. -1.
          1   -1    0    0  501    0 -0.00000000000E+00 -0.00000000000E+00 -0.62375632345E+01  0.62375632345E+01  0.00000000000E+00 0.  1.
          2    1    1    2  501    0  0.26748609559E+01 -0.40557130450E+02  0.97112787297E+03  0.97197807659E+03  0.00000000000E+00 0. -1.
          1    1    1    2  502    0 -0.26748609559E+01  0.40557130450E+02  0.65243309563E+02  0.76868232413E+02  0.00000000000E+00 0.  1.
</event>
<event>
 4    1  0.3664744E+003  0.2511944E+02  0.7546771E-02  0.1467472E+00
          2   -1    0    0  502    0  0.00000000000E+00  0.00000000000E+00  0.17530321030E+03  0.17530321030E+03  0.00000000000E+00 0. -1.
          1   -1    0    0  501    0 -0.00000000000E+00 -0.00000000000E+00 -0.47195500565E+02  0.47195500565E+02  0.00000000000E+00 0. -1.
          2    1    1    2  501    0 -0.22857170725E+01 -0.25015228968E+02  0.17097682973E+03  0.17281221741E+03  0.00000000000E+00 0. -1.
          1    1    1    2  502    0  0.22857170725E+01  0.25015228968E+02 -0.42869119992E+02  0.49686493454E+02  0.00000000000E+00 0. -1.
</event>
<event>
 4    1  0.3664744E+003  0.3225408E+02  0.7546771E-02  0.1400969E+00
          2   -1    0    0  502    0  0.00000000000E+00  0.00000000000E+00  0.27645707242E+01  0.27645707242E+01  0.00000000000E+00 0. -1.
          1   -1    0    0  501    0 -0.00000000000E+00 -0.00000000000E+00 -0.74542176414E+03  0.74542176414E+03  0.00000000000E+00 0.  1.
          2    1    1    2  501    0  0.32153179284E+02  0.25492922028E+01 -0.10808381765E+03  0.11279378293E+03  0.00000000000E+00 0. -1.
          1    1    1    2  502    0 -0.32153179284E+02 -0.25492922028E+01 -0.63457337576E+03  0.63539255193E+03  0.00000000000E+00 0.  1.
</event>
<event>
 4    1  0.3664744E+003  0.2108060E+02  0.7546771E-02  0.1518117E+00
          2   -1    0    0  502    0  0.00000000000E+00  0.00000000000E+00  0.22956945512E+03  0.22956945512E+03  0.00000000000E+00 0.  1.
          1   -1    0    0  501    0 -0.00000000000E+00 -0.00000000000E+00 -0.48487913973E+02  0.48487913973E+02  0.00000000000E+00 0. -1.
          2    1    1    2  501    0 -0.20548093457E+02  0.47082318221E+01  0.22676600036E+03  0.22774373869E+03  0.00000000000E+00 0.  1.
          1    1    1    2  502    0  0.20548093457E+02 -0.47082318221E+01 -0.45684459210E+02  0.50313630409E+02  0.00000000000E+00 0. -1.
</event>
<event>
 4    1  0.3664744E+003  0.6952113E+02  0.7546771E-02  0.1230517E+00
          2   -1    0    0  502    0  0.00000000000E+00  0.00000000000E+00  0.20052872909E+04  0.20052872909E+04  0.00000000000E+00 0. -1.
          1   -1    0    0  501    0 -0.00000000000E+00 -0.00000000000E+00 -0.68932550584E+01  0.68932550584E+01  0.00000000000E+00 0.  1.
          2    1    1    2  501    0  0.10800020384E+02 -0.68677120565E+02  0.18105517100E+04  0.18118859461E+04  0.00000000000E+00 0. -1.
          1    1    1    2  502    0 -0.10800020384E+02  0.68677120565E+02  0.18784232588E+03  0.20029459983E+03  0.00000000000E+00 0.  1.
</event>
<event>
 4    1  0.3664744E+003  0.2761028E+02  0.7546771E-02  0.1441572E+00
          2   -1    0    0  502    0  0.00000000000E+00  0.00000000000E+00  0.25696080990E+02  0.25696080990E+02  0.00000000000E+00 0.  1.
          1   -1    0    0  501    0 -0.00000000000E+00 -0.00000000000E+00 -0.36270604613E+03  0.36270604613E+03  0.00000000000E+00 0. -1.
          2    1    1    2  501    0  0.13026291976E+02 -0.24344262082E+02  0.17584461824E+02  0.32734395926E+02  0.00000000000E+00 0.  1.
          1    1    1    2  502    0 -0.13026291976E+02  0.24344262082E+02 -0.35459442696E+03  0.35566773119E+03  0.00000000000E+00 0. -1.
</event>
<event>
 4    1  0.3664744E+003  0.2486454E+02  0.7546771E-02  0.1470325E+00
          2   -1    0    0  502    0  0.00000000000E+00  0.00000000000E+00  0.14217302420E+02  0.14217302420E+02  0.00000000000E+00 0. -1.
          1   -1    0    0  501    0 -0.00000000000E+00 -0.00000000000E+00 -0.75283489415E+02  0.75283489415E+02  0.00000000000E+00 0.  1.
          2    1    1    2  501    0  0.24861441088E+02 -0.39245354810E+00 -0.14495423493E+01  0.24906755023E+02  0.00000000000E+00 0. -1.
          1    1    1    2  502    0 -0.24861441088E+02  0.39245354810E+00 -0.59616644646E+02  0.64594036811E+02  0.00000000000E+00 0.  1.
</event>
<event>
 4    1  0.3664744E+003  0.3505511E+02  0.7546771E-02  0.1380176E+00
          2   -1    0    0  502    0  0.00000000000E+00  0.00000000000E+00  0.49225787923E+03  0.49225787923E+03  0.00000000000E+00 0.  1.
          1   -1    0    0  501    0 -0.00000000000E+00 -0.00000000000E+00 -0.85951706257E+02  0.85951706257E+02  0.00000000000E+00 0. -1.
          2    1    1    2  501    0 -0.30199759411E+02  0.17799863263E+02  0.48802857377E+03  0.48928595874E+03  0.00000000000E+00 0.  1.
          1    1    1    2  502    0  0.30199759411E+02 -0.17799863263E+02 -0.81722400802E+02  0.88923626745E+02  0.00000000000E+00 0. -1.
</event>
<event>
 4    1  0.3664744E+003  0.6332510E+02  0.7546771E-02  0.1248935E+00
          2   -1    0    0  502    0  0.00000000000E+00  0.00000000000E+00  0.48348195963E+03  0.48348195963E+03  0.00000000000E+00 0. -1.
          1   -1    0    0  501    0 -0.00000000000E+00 -0.00000000000E+00 -0.25696544012E+02  0.25696544012E+02  0.00000000000E+00 0.  1.
          2    1    1    2  501    0 -0.30043505236E+02 -0.55744566259E+02  0.43840392620E+03  0.44295380276E+03  0.00000000000E+00 0. -1.
          1    1    1    2  502    0  0.30043505236E+02  0.55744566259E+02  0.19381489417E+02  0.66224700877E+02  0.00000000000E+00 0.  1.
</event>
<event>
 4    1  0.3664744E+003  0.3348683E+02  0.7546771E-02  0.1391525E+00
          2   -1    0    0  502    0  0.00000000000E+00  0.00000000000E+00  0.15415453940E+03  0.15415453940E+03  0.00000000000E+00 0. -1.
          1   -1    0    0  501    0 -0.00000000000E+00 -0.00000000000E+00 -0.12381154774E+03  0.12381154774E+03  0.00000000000E+00 0.  1.
          2    1    1    2  501    0 -0.56024028789E+00  0.33482142259E+02  0.15000989998E+03  0.15370210738E+03  0.00000000000E+00 0. -1.
          1    1    1    2  502    0  0.56024028789E+00 -0.33482142259E+02 -0.11966690832E+03  0.12426397977E+03  0.00000000000E+00 0.  1.
</event>
<event>
 4    1  0.3664744E+003  0.2619452E+02  0.7546771E-02  0.1455871E+00
          2   -1    0    0  502    0  0.00000000000E+00  0.00000000000E+00  0.10080343635E+04  0.10080343635E+04  0.00000000000E+00 0. -1.
          1   -1    0    0  501    0 -0.00000000000E+00 -0.00000000000E+00 -0.13042974962E+01  0.13042974962E+01  0.00000000000E+00 0.  1.
          2    1    1    2  501    0  0.23953939366E+02  0.10600086155E+02  0.85232553652E+03  0.85272795969E+03  0.00000000000E+00 0. -1.
          1    1    1    2  502    0 -0.23953939366E+02 -0.10600086155E+02  0.15440452948E+03  0.15661070130E+03  0.00000000000E+00 0.  1.
</event>
<event>
 4    1  0.3664744E+003  0.2816182E+02  0.7546771E-02  0.1436274E+00
          2   -1    0    0  502    0  0.00000000000E+00  0.00000000000E+00  0.24950495282E+02  0.24950495282E+02  0.00000000000E+00 0.  1.
          1   -1    0    0  501    0 -0.00000000000E+00 -0.00000000000E+00 -0.43422927008E+02  0.43422927008E+02  0.00000000000E+00 0. -1.
          2    1    1    2  501    0  0.30733359573E+01  0.27993614395E+02  0.84611408968E+01  0.29405420352E+02  0.00000000000E+00 0.  1.
          1    1    1    2  502    0 -0.30733359573E+01 -0.27993614395E+02 -0.26933572622E+02  0.38968001938E+02  0.00000000000E+00 0. -1.
</event>
<event>
 4    1  0.3664744E+003  0.2188403E+02  0.7546771E-02  0.1507008E+00
          2   -1    0    0  502    0  0.00000000000E+00  0.00000000000E+00  0.77546929708E+03  0.77546929708E+03  0.00000000000E+00 0. -1.
          1   -1    0    0  501    0 -0.00000000000E+00 -0.00000000000E+00 -0.53488468222E+03  0.53488468222E+03  0.00000000000E+00 0.  1.
          2    1    1    2  501    0  0.37396792309E+01  0.21562135467E+02  0.77509095557E+03  0.77539983253E+03  0.00000000000E+00 0. -1.
          1    1    1    2  502    0 -0.37396792309E+01 -0.21562135467E+02 -0.53450634071E+03  0.53495414677E+03  0.00000000000E+00 0.  1.
</event>
<event>
 4    1  0.3664744E+003  0.2131104E+02  0.7546771E-02  0.1514870E+00
          2   -1    0    0  502    0  0.00000000000E+00  0.00000000000E+00  0.73635606878E+02  0.73635606878E+02  0.00000000000E+00 0.  1.
          1   -1    0    0  501    0 -0.00000000000E+00 -0.00000000000E+00 -0.78945228127E+01  0.78945228127E+01  0.00000000000E+00 0.  1.
          2    1    1    2  501    0 -0.85223177206E+01 -0.19532798416E+02  0.13804836812E+02  0.25391605556E+02  0.00000000000E+00 0.  1.
          1    1    1    2  502    0  0.85223177206E+01  0.19532798416E+02  0.51936247253E+02  0.56138524134E+02  0.00000000000E+00 0.  1.
</event>
<event>
 4    1  0.3664744E+003  0.2573627E+02  0.7546771E-02  0.1460733E+00
          2   -1    0    0  502    0  0.00000000000E+00  0.00000000000E+00  0.72119311686E+02  0.72119311686E+02  0.00000000000E+00 0. -1.
          1   -1    0    0  501    0 -0.00000000000E+00 -0.00000000000E+00 -0.15268238956E+02  0.15268238956E+02  0.00000000000E+00 0. -1.
          2    1    1    2  501    0 -0.59117500398E+01  0.25048087258E+02  0.56007325599E+02  0.61637456020E+02  0.00000000000E+00 0. -1.
          1    1    1    2  502    0  0.59117500398E+01 -0.25048087258E+02  0.84374713111E+00  0.25750094622E+02  0.00000000000E+00 0. -1.
</event>
<event>
 4    1  0.3664744E+003  0.2605903E+02  0.7546771E-02  0.1457296E+00
          2   -1    0    0  502    0  0.00000000000E+00  0.00000000000E+00  0.85636374273E+03  0.85636374273E+03  0.00000000000E+00 0.  1.
          1   -1    0    0  501    0 -0.00000000000E+00 -0.00000000000E+00 -0.34204660130E+01  0.34204660130E+01  0.00000000000E+00 0.  1.
          2    1    1    2  501    0 -0.10406533936E+02 -0.23890936519E+02  0.80325148500E+03  0.80367407632E+03  0.00000000000E+00 0.  1.
          1    1    1    2  502    0  0.10406533936E+02  0.23890936519E+02  0.49691791718E+02  0.56110132423E+02  0.00000000000E+00 0.  1.
</event>
<event>
 4    1  0.3664744E+003  0.4990396E+02  0.7546771E-02  0.1298589E+00
          2   -1    0    0  502    0  0.00000000000E+00  0.00000000000E+00  0.80261244095E+01  0.80261244095E+01  0.00000000000E+00 0.  1.
          1   -1    0    0  501    0 -0.00000000000E+00 -0.00000000000E+00 -0.78961289726E+03  0.78961289726E+03  0.00000000000E+00 0.  1.
          2    1    1    2  501    0 -0.12989302924E+02 -0.48183843923E+02 -0.80062394038E+02  0.94341887541E+02  0.00000000000E+00 0.  1.
          1    1    1    2  502    0  0.12989302924E+02  0.48183843923E+02 -0.70152437881E+03  0.70329713413E+03  0.00000000000E+00 0.  1.
</event>
<event>
 4    1  0.3664744E+003  0.3228368E+02  0.7546771E-02  0.1400736E+00
          2   -1    0    0  502    0  0.00000000000E+00  0.00000000000E+00  0.22068643804E+04  0.22068643804E+04  0.00000000000E+00 0. -1.
          1   -1    0    0  501    0 -0.00000000000E+00 -0.00000000000E+00 -0.89350371810E+01  0.89350371810E+01  0.00000000000E+00 0.  1.
          2    1    1    2  501    0  0.30232626119E+02  0.11323620471E+02  0.21771873451E+04  0.21774266857E+04  0.00000000000E+00 0. -1.
          1    1    1    2  502    0 -0.30232626119E+02 -0.11323620471E+02  0.20741998086E+02  0.38372731819E+02  0.00000000000E+00 0.  1.
</event>
<event>
 4    1  0.3664744E+003  0.2880571E+02  0.7546771E-02  0.1430267E+00
          2   -1    0    0  502    0  0.00000000000E+00  0.00000000000E+00  0.55142196426E+00  0.55142196426E+00  0.00000000000E+00 0. -1.
          1   -1    0    0  501    0 -0.00000000000E+00 -0.00000000000E+00 -0.15313448752E+04  0.15313448752E+04  0.00000000000E+00 0. -1.
          2    1    1    2  501    0 -0.69021544750E+00 -0.28797435569E+02 -0.66451383844E+03  0.66513788809E+03  0.00000000000E+00 0. -1.
          1    1    1    2  502    0  0.69021544750E+00  0.28797435569E+02 -0.86627961480E+03  0.86675840908E+03  0.00000000000E+00 0. -1.
</event>
<event>
 4    1  0.3664744E+003  0.3506842E+02  0.7546771E-02  0.1380083E+00
          2   -1    0    0  502    0  0.00000000000E+00  0.00000000000E+00  0.34107646469E+03  0.34107646469E+03  0.00000000000E+00 0. -1.
          1   -1    0    0  501    0 -0.00000000000E+00 -0.00000000000E+00 -0.41236277057E+01  0.41236277057E+01  0.00000000000E+00 0. -1.
          2    1    1    2  501    0  0.31140676067E+02  0.16126145434E+02  0.22965038641E+03  0.23231249267E+03  0.00000000000E+00 0. -1.
          1    1    1    2  502    0 -0.31140676067E+02 -0.16126145434E+02  0.10730245057E+03  0.11288759972E+03  0.00000000000E+00 0. -1.
</event>
<event>
 4    1  0.3664744E+003  0.2518504E+02  0.7546771E-02  0.1466744E+00
          2   -1    0    0  502    0  0.00000000000E+00  0.00000000000E+00  0.17336841163E+04  0.17336841163E+04  0.00000000000E+00 0. -1.
          1   -1    0    0  501    0 -0.00000000000E+00 -0.00000000000E+00 -0.27206613936E+01  0.27206613936E+01  0.00000000000E+00 0.  1.
          2    1    1    2  501    0  0.70106658121E+01  0.24189601278E+02  0.16732017357E+04  0.16733912676E+04  0.00000000000E+00 0. -1.
          1    1    1    2  502    0 -0.70106658121E+01 -0.24189601278E+02  0.57761719284E+02  0.63013510137E+02  0.00000000000E+00 0.  1.
</event>
<event>
 4    1  0.3664744E+003  0.2297613E+02  0.7546771E-02  0.1492798E+00
          2   -1    0    0  502    0  0.00000000000E+00  0.00000000000E+00  0.23917830013E+03  0.23917830013E+03  0.00000000000E+00 0.  1.
          1   -1    0    0  501    0 -0.00000000000E+00 -0.00000000000E+00 -0.31560007198E+01  0.31560007198E+01  0.00000000000E+00 0.  1.
          2    1    1    2  501    0 -0.22714548877E+02  0.34571490311E+01  0.18444892448E+03  0.18587444244E+03  0.00000000000E+00 0.  1.
          1    1    1    2  502    0  0.22714548877E+02 -0.34571490311E+01  0.51573374929E+02  0.56459858410E+02  0.00000000000E+00 0.  1.
</event>
<event>
 4    1  0.3664744E+003  0.2857631E+02  0.7546771E-02  0.1432386E+00
          2   -1    0    0  502    0  0.00000000000E+00  0.00000000000E+00  0.95624214934E+03  0.95624214934E+03  0.00000000000E+00 0.  1.
          1   -1    0    0  501    0 -0.00000000000E+00 -0.00000000000E+00 -0.22155014986E+01  0.22155014986E+01  0.00000000000E+00 0.  1.
          2    1    1    2  501    0  0.13130579214E+02 -0.25380962086E+02  0.85269517499E+03  0.85317387841E+03  0.00000000000E+00 0.  1.
          1    1    1    2  502    0 -0.13130579214E+02  0.25380962086E+02  0.10133147285E+03  0.10528377243E+03  0.00000000000E+00 0.  1.
</event>
<event>
 4    1  0.3664744E+003  0.8143697E+02  0.7546771E-02  0.1200550E+00
          2   -1    0    0  502    0  0.00000000000E+00  0.00000000000E+00  0.58491422198E+01  0.58491422198E+01  0.00000000000E+00 0.  1.
          1   -1    0    0  501    0 -0.00000000000E+00 -0.00000000000E+00 -0.12593646550E+04  0.12593646550E+04  0.00000000000E+00 0. -1.
          2    1    1    2  501    0  0.65289572429E+02 -0.48674966050E+02 -0.42703576227E+03  0.43473155263E+03  0.00000000000E+00 0.  1.
          1    1    1    2  502    0 -0.65289572429E+02  0.48674966050E+02 -0.82647975047E+03  0.83048224455E+03  0.00000000000E+00 0. -1.
</event>
<event>
 4    1  0.3664744E+003  0.4139642E+02  0.7546771E-02  0.1340492E+00
          2   -1    0    0  502    0  0.00000000000E+00  0.00000000000E+00  0.15742054015E+02  0.15742054015E+02  0.00000000000E+00 0.  1.
          1   -1    0    0  501    0 -0.00000000000E+00 -0.00000000000E+00 -0.14862822652E+04  0.14862822652E+04  0.00000000000E+00 0. -1.
          2    1    1    2  501    0 -0.16092849405E+02 -0.38140313277E+02 -0.12283856069E+02  0.43180509710E+02  0.00000000000E+00 0.  1.
          1    1    1    2  502    0  0.16092849405E+02  0.38140313277E+02 -0.14582563551E+04  0.14588438095E+04  0.00000000000E+00 0. -1.
</event>
<event>
 4    1  0.3664744E+003  0.4555502E+02  0.7546771E-02  0.1318687E+00
          2   -1    0    0  502    0  0.00000000000E+00  0.00000000000E+00  0.19573328215E+03  0.19573328215E+03  0.00000000000E+00 0. -1.
          1   -1    0    0  501    0 -0.00000000000E+00 -0.00000000000E+00 -0.14727192866E+02  0.14727192866E+02  0.00000000000E+00 0. -1.
          2    1    1    2  501    0  0.45476740669E+02  0.26693986675E+01  0.14619302206E+03  0.15312628556E+03  0.00000000000E+00 0. -1.
          1    1    1    2  502    0 -0.45476740669E+02 -0.26693986675E+01  0.34813067234E+02  0.57334189462E+02  0.00000000000E+00 0. -1.
</event>
<event>
 4    1  0.3664744E+003  0.2788446E+02  0.7546771E-02  0.1438920E+00
          2   -1    0    0  502    0  0.00000000000E+00  0.00000000000E+00  0.89756258717E+03  0.89756258717E+03  0.00000000000E+00 0. -1.
          1   -1    0    0  501    0 -0.00000000000E+00 -0.00000000000E+00 -0.98225478163E+00  0.98225478163E+00  0.00000000000E+00 0. -1.
          2    1    1    2  501    0 -0.21389056316E+02  0.17889978534E+02  0.60266416666E+03  0.60330890996E+03  0.00000000000E+00 0. -1.
          1    1    1    2  502    0  0.21389056316E+02 -0.17889978534E+02  0.29391616573E+03  0.29523593199E+03  0.00000000000E+00 0. -1.
</event>
<event>
 4    1  0.3664744E+003  0.3361369E+02  0.7546771E-02  0.1390580E+00
          2   -1    0    0  502    0  0.00000000000E+00  0.00000000000E+00  0.17207736580E+03  0.17207736580E+03  0.00000000000E+00 0.  1.
          1   -1    0    0  501    0 -0.00000000000E+00 -0.00000000000E+00 -0.79029018914E+02  0.79029018914E+02  0.00000000000E+00 0. -1.
          2    1    1    2  501    0  0.33168463338E+02  0.54528369281E+01  0.16674849107E+03  0.17010273268E+03  0.00000000000E+00 0.  1.
          1    1    1    2  502    0 -0.33168463338E+02 -0.54528369281E+01 -0.73700144183E+02  0.81003652037E+02  0.00000000000E+00 0. -1.
</event>
<event>
 4    1  0.3664744E+003  0.2493334E+02  0.7546771E-02  0.1469551E+00
          2   -1    0    0  502    0  0.00000000000E+00  0.00000000000E+00  0.61081485341E+01  0.61081485341E+01  0.00000000000E+00 0. -1.
          1   -1    0    0  501    0 -0.00000000000E+00 -0.00000000000E+00 -0.33001678439E+03  0.33001678439E+03  0.00000000000E+00 0. -1.
          2    1    1    2  501    0 -0.14875906209E+02  0.20009470025E+02 -0.22189451937E+02  0.33377286490E+02  0.00000000000E+00 0. -1.
          1    1    1    2  502    0  0.14875906209E+02 -0.20009470025E+02 -0.30171918392E+03  0.30274764644E+03  0.00000000000E+00 0. -1.
</event>
<event>
 4    1  0.3664744E+003  0.2673299E+02  0.7546771E-02  0.1450309E+00
          2   -1    0    0  502    0  0.00000000000E+00  0.00000000000E+00  0.11216347356E+04  0.11216347356E+04  0.00000000000E+00 0.  1.
          1   -1    0    0  501    0 -0.00000000000E+00 -0.00000000000E+00 -0.47349944776E+01  0.47349944776E+01  0.00000000000E+00 0.  1.
          2    1    1    2  501    0  0.26544401795E+02 -0.31697717651E+01  0.10823745109E+04  0.10827045924E+04  0.00000000000E+00 0.  1.
          1    1    1    2  502    0 -0.26544401795E+02  0.31697717651E+01  0.34525230208E+02  0.43665137589E+02  0.00000000000E+00 0.  1.
</event>
<event>
 4    1  0.3664744E+003  0.2212262E+02  0.7546771E-02  0.1503819E+00
          2   -1    0    0  502    0  0.00000000000E+00  0.00000000000E+00  0.20900018435E+02  0.20900018435E+02  0.00000000000E+00 0.  1.
          1   -1    0    0  501    0 -0.00000000000E+00 -0.00000000000E+00 -0.64247490020E+02  0.64247490020E+02  0.00000000000E+00 0. -1.
          2    1    1    2  501    0  0.10728076892E+02  0.19347313050E+02  0.12265931506E+02  0.25295518017E+02  0.00000000000E+00 0.  1.
          1    1    1    2  502    0 -0.10728076892E+02 -0.19347313050E+02 -0.55613403091E+02  0.59851990438E+02  0.00000000000E+00 0. -1.
</event>
<event>
 4    1  0.3664744E+003  0.2088207E+02  0.7546771E-02  0.1520955E+00
          2   -1    0    0  502    0  0.00000000000E+00  0.00000000000E+00  0.97396479150E+03  0.97396479150E+03  0.00000000000E+00 0.  1.
          1   -1    0    0  501    0 -0.00000000000E+00 -0.00000000000E+00 -0.18760590456E+01  0.18760590456E+01  0.00000000000E+00 0.  1.
          2    1    1    2  501    0  0.16075313353E+02  0.13328359259E+02  0.91178177869E+03  0.91202087302E+03  0.00000000000E+00 0.  1.
          1    1    1    2  502    0 -0.16075313353E+02 -0.13328359259E+02  0.60306953759E+02  0.63819977527E+02  0.00000000000E+00 0.  1.
</event>
<event>
 4    1  0.3664744E+003  0.2023837E+02  0.7546771E-02  0.1530422E+00
          2   -1    0    0  502    0  0.00000000000E+00  0.00000000000E+00  0.71354179281E+01  0.71354179281E+01  0.00000000000E+00 0. -1.
          1   -1    0    0  501    0 -0.00000000000E+00 -0.00000000000E+00 -0.92159725922E+03  0.92159725922E+03  0.00000000000E+00 0. -1.
          2    1    1    2  501    0  0.18890796034E+02  0.72615092838E+01 -0.75588366012E+01  0.21603881657E+02  0.00000000000E+00 0. -1.
          1    1    1    2  502    0 -0.18890796034E+02 -0.72615092838E+01 -0.90690300469E+03  0.90712879549E+03  0.00000000000E+00 0. -1.
</event>
<event>
 4    1  0.3664744E+003  0.3148698E+02  0.7546771E-02  0.1407100E+00
          2   -1    0    0  502    0  0.00000000000E+00  0.00000000000E+00  0.13038380511E+04  0.13038380511E+04  0.00000000000E+00 0.  1.
          1   -1    0    0  501    0 -0.00000000000E+00 -0.00000000000E+00 -0.14963179099E+02  0.14963179099E+02  0.00000000000E+00 0.  1.
          2    1    1    2  501    0  0.28728864688E+02  0.12887281589E+02  0.12868650196E+04  0.12872501732E+04  0.00000000000E+00 0.  1.
          1    1    1    2  502    0 -0.28728864688E+02 -0.12887281589E+02  0.20098524162E+01  0.31551057030E+02  0.00000000000E+00 0.  1.
</event>
<event>
 4    1  0.3664744E+003  0.2478384E+02  0.7546771E-02  0.1471236E+00
          2   -1    0    0  502    0  0.00000000000E+00  0.00000000000E+00  0.55351759776E+03  0.55351759776E+03  0.00000000000E+00 0.  1.
          1   -1    0    0  501    0 -0.00000000000E+00 -0.00000000000E+00 -0.19833371146E+03  0.19833371146E+03  0.00000000000E+00 0. -1.
          2    1    1    2  501    0 -0.14233546142E+02  0.20289037663E+02  0.55246444816E+03  0.55302007682E+03  0.00000000000E+00 0.  1.
          1    1    1    2  502    0  0.14233546142E+02 -0.20289037663E+02 -0.19728056187E+03  0.19883123240E+03  0.00000000000E+00 0. -1.
</event>
<event>
 4    1  0.3664744E+003  0.2013887E+02  0.7546771E-02  0.1531923E+00
          2   -1    0    0  502    0  0.00000000000E+00  0.00000000000E+00  0.20132066369E+03  0.20132066369E+03  0.00000000000E+00 0.  1.
          1   -1    0    0  501    0 -0.00000000000E+00 -0.00000000000E+00 -0.18803581086E+02  0.18803581086E+02  0.00000000000E+00 0.  1.
          2    1    1    2  501    0  0.19855153304E+02 -0.33685565657E+01  0.19525778375E+03  0.19629359745E+03  0.00000000000E+00 0.  1.
          1    1    1    2  502    0 -0.19855153304E+02  0.33685565657E+01 -0.12740701148E+02  0.23830647322E+02  0.00000000000E+00 0.  1.
</event>
<event>
 4    1  0.3664744E+003  0.2393077E+02  0.7546771E-02  0.1481130E+00
          2   -1    0    0  502    0  0.00000000000E+00  0.00000000000E+00  0.37256441785E+03  0.37256441785E+03  0.00000000000E+00 0.  1.
          1   -1    0    0  501    0 -0.00000000000E+00 -0.00000000000E+00 -0.90785484875E+02  0.90785484875E+02  0.00000000000E+00 0. -1.
          2    1    1    2  501    0  0.23262758891E+02 -0.56147977720E+01  0.37059474159E+03  0.37136659031E+03  0.00000000000E+00 0.  1.
          1    1    1    2  502    0 -0.23262758891E+02  0.56147977720E+01 -0.88815808607E+02  0.91983312420E+02  0.00000000000E+00 0. -1.
</event>
<event>
 4    1  0.3664744E+003  0.4509319E+02  0.7546771E-02  0.1320974E+00
          2   -1    0    0  502    0  0.00000000000E+00  0.00000000000E+00  0.92225221833E+03  0.92225221833E+03  0.00000000000E+00 0.  1.
          1   -1    0    0  501    0 -0.00000000000E+00 -0.00000000000E+00 -0.11154737064E+03  0.11154737064E+03  0.00000000000E+00 0. -1.
          2    1    1    2  501    0 -0.44144124283E+02 -0.92028408667E+01  0.91711827109E+03  0.91822618083E+03  0.00000000000E+00 0.  1.
          1    1    1    2  502    0  0.44144124283E+02  0.92028408667E+01 -0.10641342340E+03  0.11557340814E+03  0.00000000000E+00 0. -1.
</event>
<event>
 4    1  0.3664744E+003  0.3615127E+02  0.7546771E-02  0.1372645E+00
          2   -1    0    0  502    0  0.00000000000E+00  0.00000000000E+00  0.70142457974E+03  0.70142457974E+03  0.00000000000E+00 0.  1.
          1   -1    0    0  501    0 -0.00000000000E+00 -0.00000000000E+00 -0.48926507283E+01  0.48926507283E+01  0.00000000000E+00 0. -1.
          2    1    1    2  501    0 -0.48469506467E+01  0.35824868603E+02  0.62615896954E+03  0.62720169744E+03  0.00000000000E+00 0.  1.
          1    1    1    2  502    0  0.48469506467E+01 -0.35824868603E+02  0.70372959473E+02  0.79115533025E+02  0.00000000000E+00 0. -1.
</event>
<event>
 4    1  0.3664744E+003  0.3276093E+02  0.7546771E-02  0.1397027E+00
          2   -1    0    0  502    0  0.00000000000E+00  0.00000000000E+00  0.16145078490E+04  0.16145078490E+04  0.00000000000E+00 0.  1.
          1   -1    0    0  501    0 -0.00000000000E+00 -0.00000000000E+00 -0.14365748635E+02  0.14365748635E+02  0.00000000000E+00 0. -1.
          2    1    1    2  501    0  0.84939317663E+01 -0.31640668605E+02  0.15954407233E+04  0.15957770460E+04  0.00000000000E+00 0.  1.
          1    1    1    2  502    0 -0.84939317663E+01  0.31640668605E+02  0.47013770451E+01  0.33096551675E+02  0.00000000000E+00 0. -1.
</event>
<event>
 4    1  0.3664744E+003  0.2459857E+02  0.7546771E-02  0.1473345E+00
          2   -1    0    0  502    0  0.00000000000E+00  0.00000000000E+00  0.27952512387E+02  0.27952512387E+02  0.00000000000E+00 0.  1.
          1   -1    0    0  501    0 -0.00000000000E+00 -0.00000000000E+00 -0.41237262745E+02  0.41237262745E+02  0.00000000000E+00 0.  1.
          2    1    1    2  501    0  0.24173851272E+02 -0.45513376152E+01  0.17202027933E+02  0.30016654118E+02  0.00000000000E+00 0.  1.
          1    1    1    2  502    0 -0.24173851272E+02  0.45513376152E+01 -0.30486778291E+02  0.39173121014E+02  0.00000000000E+00 0.  1.
</event>
<event>
 4    1  0.3664744E+003  0.2015637E+02  0.7546771E-02  0.1531659E+00
          2   -1    0    0  502    0  0.00000000000E+00  0.00000000000E+00  0.38931234095E+00  0.38931234095E+00  0.00000000000E+00 0.  1.
          1   -1    0    0  501    0 -0.00000000000E+00 -0.00000000000E+00 -0.12758299280E+04  0.12758299280E+04  0.00000000000E+00 0.  1.
          2    1    1    2  501    0 -0.11659278922E+02  0.16442034990E+02 -0.36546588241E+03  0.36602129788E+03  0.00000000000E+00 0.  1.
          1    1    1    2  502    0  0.11659278922E+02 -0.16442034990E+02 -0.90997473325E+03  0.91019794246E+03  0.00000000000E+00 0.  1.
</event>
<event>
 4    1  0.3664744E+003  0.4203936E+02  0.7546771E-02  0.1336933E+00
          2   -1    0    0  502    0  0.00000000000E+00  0.00000000000E+00  0.32480387687E+03  0.32480387687E+03  0.00000000000E+00 0.  1.
          1   -1    0    0  501    0 -0.00000000000E+00 -0.00000000000E+00 -0.42076850236E+03  0.42076850236E+03  0.00000000000E+00 0.  1.
          2    1    1    2  501    0  0.28820575938E+02  0.30605258307E+02  0.32238569829E+03  0.32511512714E+03  0.00000000000E+00 0.  1.
          1    1    1    2  502    0 -0.28820575938E+02 -0.30605258307E+02 -0.41835032378E+03  0.42045725209E+03  0.00000000000E+00 0.  1.
</event>
<event>
 4    1  0.3664744E+003  0.2033535E+02  0.7546771E-02  0.1528970E+00
          2   -1    0    0  502    0  0.00000000000E+00  0.00000000000E+00  0.69586193462E+01  0.69586193462E+01  0.00000000000E+00 0.  1.
          1   -1    0    0  501    0 -0.00000000000E+00 -0.00000000000E+00 -0.31599879084E+03  0.31599879084E+03  0.00000000000E+00 0. -1.
          2    1    1    2  501    0  0.72642171141E+01 -0.18993618773E+02 -0.90152516107E+01  0.22244126550E+02  0.00000000000E+00 0.  1.
          1    1    1    2  502    0 -0.72642171141E+01  0.18993618773E+02 -0.30002491988E+03  0.30071328364E+03  0.00000000000E+00 0. -1.
</event>
<event>
 4    1  0.3664744E+003  0.2064524E+02  0.7546771E-02  0.1524391E+00
          2   -1    0    0  502    0  0.00000000000E+00  0.00000000000E+00  0.11517445169E+04  0.11517445169E+04  0.00000000000E+00 0.  1.
          1   -1    0    0  501    0 -0.00000000000E+00 -0.00000000000E+00 -0.44489419441E+00  0.44489419441E+00  0.00000000000E+00 0.  1.
          2    1    1    2  501    0 -0.18315668041E+02  0.95269275500E+01  0.81190788742E+03  0.81217032924E+03  0.00000000000E+00 0.  1.
          1    1    1    2  502    0  0.18315668041E+02 -0.95269275500E+01  0.33939173523E+03  0.34001908180E+03  0.00000000000E+00 0.  1.
</event>
<event>
 4    1  0.3664744E+003  0.2447728E+02  0.7546771E-02  0.1474737E+00
          2   -1    0    0  502    0  0.00000000000E+00  0.00000000000E+00  0.14745136060E+02  0.14745136060E+02  0.00000000000E+00 0. -1.
          1   -1    0    0  501    0 -0.00000000000E+00 -0.00000000000E+00 -0.22725679306E+03  0.22725679306E+03  0.00000000000E+00 0. -1.
          2    1    1    2  501    0 -0.62464302195E+01 -0.23666840334E+02  0.33955385989E+01  0.24711675465E+02  0.00000000000E+00 0. -1.
          1    1    1    2  502    0  0.62464302195E+01  0.23666840334E+02 -0.21590719560E+03  0.21729025366E+03  0.00000000000E+00 0. -1.
</event>
<event>
 4    1  0.3664744E+003  0.2790189E+02  0.7546771E-02  0.1438753E+00
          2   -1    0    0  502    0  0.00000000000E+00  0.00000000000E+00  0.10725515329E+03  0.10725515329E+03  0.00000000000E+00 0.  1.
          1   -1    0    0  501    0 -0.00000000000E+00 -0.00000000000E+00 -0.27478409040E+03  0.27478409040E+03  0.00000000000E+00 0. -1.
          2    1    1    2  501    0 -0.56368532917E+01  0.27326564750E+02  0.10471533754E+03  0.10836889393E+03  0.00000000000E+00 0.  1.
          1    1    1    2  502    0  0.56368532917E+01 -0.27326564750E+02 -0.27224427465E+03  0.27367034976E+03  0.00000000000E+00 0. -1.
</event>
<event>
 4    1  0.3664744E+003  0.2215597E+02  0.7546771E-02  0.1503378E+00
          2   -1    0    0  502    0  0.00000000000E+00  0.00000000000E+00  0.13346811410E+04  0.13346811410E+04  0.00000000000E+00 0. -1.
          1   -1    0    0  501    0 -0.00000000000E+00 -0.00000000000E+00 -0.85931336435E+01  0.85931336435E+01  0.00000000000E+00 0.  1.
          2    1    1    2  501    0 -0.21747901697E+02 -0.42326875250E+01  0.13201506434E+04  0.13203365511E+04  0.00000000000E+00 0. -1.
          1    1    1    2  502    0  0.21747901697E+02  0.42326875250E+01  0.59373639799E+01  0.22937723578E+02  0.00000000000E+00 0.  1.
</event>
<event>
 4    1  0.3664744E+003  0.2438129E+02  0.7546771E-02  0.1475845E+00
          2   -1    0    0  502    0  0.00000000000E+00  0.00000000000E+00  0.16968170649E+03  0.16968170649E+03  0.00000000000E+00 0.  1.
          1   -1    0    0  501    0 -0.00000000000E+00 -0.00000000000E+00 -0.27921261463E+02  0.27921261463E+02  0.00000000000E+00 0.  1.
          2    1    1    2  501    0  0.31988316099E+00 -0.24379190581E+02  0.16327567184E+03  0.16508601478E+03  0.00000000000E+00 0.  1.
          1    1    1    2  502    0 -0.31988316099E+00  0.24379190581E+02 -0.21515226820E+02  0.32516953174E+02  0.00000000000E+00 0.  1.
</event>
<event>
 4    1  0.3664744E+003  0.2139840E+02  0.7546771E-02  0.1513652E+00
          2   -1    0    0  502    0  0.00000000000E+00  0.00000000000E+00  0.62291444272E+02  0.62291444272E+02  0.00000000000E+00 0. -1.
          1   -1    0    0  501    0 -0.00000000000E+00 -0.00000000000E+00 -0.85961071784E+01  0.85961071784E+01  0.00000000000E+00 0. -1.
          2    1    1    2  501    0  0.48912093688E+01  0.20831886288E+02  0.40338192183E+02  0.45662469973E+02  0.00000000000E+00 0. -1.
          1    1    1    2  502    0 -0.48912093688E+01 -0.20831886288E+02  0.13357144910E+02  0.25225081477E+02  0.00000000000E+00 0. -1.
</event>
<event>
 4    1  0.3664744E+003  0.2960882E+02  0.7546771E-02  0.1423027E+00
          2   -1    0    0  502    0  0.00000000000E+00  0.00000000000E+00  0.21151649532E+04  0.21151649532E+04  0.00000000000E+00 0.  1.
          1   -1    0    0  501    0 -0.00000000000E+00 -0.00000000000E+00 -0.69643099199E+01  0.69643099199E+01  0.00000000000E+00 0. -1.
          2    1    1    2  501    0 -0.26748982892E+02 -0.12695431667E+02  0.20831065071E+04  0.20833169230E+04  0.00000000000E+00 0.  1.
          1    1    1    2  502    0  0.26748982892E+02  0.12695431667E+02  0.25094136262E+02  0.38812340122E+02  0.00000000000E+00 0. -1.
</event>
<event>
 4    1  0.3664744E+003  0.2088433E+02  0.7546771E-02  0.1520923E+00
          2   -1    0    0  502    0  0.00000000000E+00  0.00000000000E+00  0.66894070946E+03  0.66894070946E+03  0.00000000000E+00 0. -1.
          1   -1    0    0  501    0 -0.00000000000E+00 -0.00000000000E+00 -0.24120644224E+01  0.24120644224E+01  0.00000000000E+00 0. -1.
          2    1    1    2  501    0  0.13486893112E+01 -0.20840734051E+02  0.62000516043E+03  0.62035679582E+03  0.00000000000E+00 0. -1.
          1    1    1    2  502    0 -0.13486893112E+01  0.20840734051E+02  0.46523484608E+02  0.50995978064E+02  0.00000000000E+00 0. -1.
</event>
<event>
 4    1  0.3664744E+003  0.2084910E+02  0.7546771E-02  0.1521430E+00
          2   -1    0    0  502    0  0.00000000000E+00  0.00000000000E+00  0.13884750547E+03  0.13884750547E+03  0.00000000000E+00 0. -1.
          1   -1    0    0  501    0 -0.00000000000E+00 -0.00000000000E+00 -0.44034562194E+02  0.44034562194E+02  0.00000000000E+00 0. -1.
          2    1    1    2  501    0 -0.10683395392E+02  0.17903906430E+02  0.13553705377E+03  0.13713124278E+03  0.00000000000E+00 0. -1.
          1    1    1    2  502    0  0.10683395392E+02 -0.17903906430E+02 -0.40724110489E+02  0.45750824885E+02  0.00000000000E+00 0. -1.
</event>
<event>
 4    1  0.3664744E+003  0.2612547E+02  0.7546771E-02  0.1456596E+00
          2   -1    0    0  502    0  0.00000000000E+00  0.00000000000E+00  0.11179659965E+04  0.11179659965E+04  0.00000000000E+00 0.  1.
          1   -1    0    0  501    0 -0.00000000000E+00 -0.00000000000E+00 -0.19523876224E+01  0.19523876224E+01  0.00000000000E+00 0.  1.
          2    1    1    2  501    0 -0.12351165088E+02  0.23021485314E+02  0.10222315318E+04  0.10225653254E+04  0.00000000000E+00 0.  1.
          1    1    1    2  502    0  0.12351165088E+02 -0.23021485314E+02  0.93782077045E+02  0.97353058709E+02  0.00000000000E+00 0.  1.
</event>
<event>
 4    1  0.3664744E+003  0.2455380E+02  0.7546771E-02  0.1473857E+00
          2   -1    0    0  502    0  0.00000000000E+00  0.00000000000E+00  0.16118639382E+04  0.16118639382E+04  0.00000000000E+00 0.  1.
          1   -1    0    0  501    0 -0.00000000000E+00 -0.00000000000E+00 -0.13299489011E+02  0.13299489011E+02  0.00000000000E+00 0.  1.
          2    1    1    2  501    0 -0.58063586254E+01  0.23857390815E+02  0.16003560079E+04  0.16005443577E+04  0.00000000000E+00 0.  1.
          1    1    1    2  502    0  0.58063586254E+01 -0.23857390815E+02 -0.17915587991E+01  0.24619069437E+02  0.00000000000E+00 0.  1.
</event>
<event>
 4    1  0.3664744E+003  0.2040966E+02  0.7546771E-02  0.1527863E+00
          2   -1    0    0  502    0  0.00000000000E+00  0.00000000000E+00  0.42219035198E+01  0.42219035198E+01  0.00000000000E+00 0.  1.
          1   -1    0    0  501    0 -0.00000000000E+00 -0.00000000000E+00 -0.18206038576E+03  0.18206038576E+03  0.00000000000E+00 0.  1.
          2    1    1    2  501    0  0.95902358521E+01 -0.18016143059E+02 -0.25880882063E+02  0.32960189483E+02  0.00000000000E+00 0.  1.
          1    1    1    2  502    0 -0.95902358521E+01  0.18016143059E+02 -0.15195760018E+03  0.15332209980E+03  0.00000000000E+00 0.  1.
</event>
<event>
 4    1  0.3664744E+003  0.3461869E+02  0.7546771E-02  0.1383264E+00
          2   -1    0    0  502    0  0.00000000000E+00  0.00000000000E+00  0.81599429689E+01  0.81599429689E+01  0.00000000000E+00 0. -1.
          1   -1    0    0  501    0 -0.00000000000E+00 -0.00000000000E+00 -0.20161018303E+03  0.20161018303E+03  0.00000000000E+00 0.  1.
          2    1    1    2  501    0 -0.15321061845E+02  0.31043818538E+02 -0.42072727139E+02  0.54484566388E+02  0.00000000000E+00 0. -1.
          1    1    1    2  502    0  0.15321061845E+02 -0.31043818538E+02 -0.15137751292E+03  0.15528555961E+03  0.00000000000E+00 0.  1.
</event>
<event>
 4    1  0.3664744E+003  0.2964796E+02  0.7546771E-02  0.1422681E+00
          2   -1    0    0  502    0  0.00000000000E+00  0.00000000000E+00  0.34032725552E+03  0.34032725552E+03  0.00000000000E+00 0. -1.
          1   -1    0    0  501    0 -0.00000000000E+00 -0.00000000000E+00 -0.73380494895E+03  0.73380494895E+03  0.00000000000E+00 0. -1.
          2    1    1    2  501    0 -0.29520560834E+02 -0.27455919335E+01  0.33938125191E+03  0.34067379696E+03  0.00000000000E+00 0. -1.
          1    1    1    2  502    0  0.29520560834E+02  0.27455919335E+01 -0.73285894534E+03  0.73345840751E+03  0.00000000000E+00 0. -1.
</event>
<event>
 4    1  0.3664744E+003  0.2040104E+02  0.7546771E-02  0.1527991E+00
          2   -1    0    0  502    0  0.00000000000E+00  0.00000000000E+00  0.21992234028E+01  0.21992234028E+01  0.00000000000E+00 0. -1.
          1   -1    0    0  501    0 -0.00000000000E+00 -0.00000000000E+00 -0.25336810154E+03  0.25336810154E+03  0.00000000000E+00 0.  1.
          2    1    1    2  501    0 -0.21657302535E+01 -0.20285758710E+02 -0.61302248470E+02  0.64607801862E+02  0.00000000000E+00 0. -1.
          1    1    1    2  502    0  0.21657302535E+01  0.20285758710E+02 -0.18986662967E+03  0.19095952308E+03  0.00000000000E+00 0.  1.
</event>
<event>
 4    1  0.3664744E+003  0.6656250E+02  0.7546771E-02  0.1239030E+00
          2   -1    0    0  502    0  0.00000000000E+00  0.00000000000E+00  0.19863216157E+04  0.19863216157E+04  0.00000000000E+00 0.  1.
          1   -1    0    0  501    0 -0.00000000000E+00 -0.00000000000E+00 -0.29753376656E+01  0.29753376656E+01  0.00000000000E+00 0.  1.
          2    1    1    2  501    0  0.26434291729E+02  0.61088415812E+02  0.14893198723E+04  0.14908065765E+04  0.00000000000E+00 0.  1.
          1    1    1    2  502    0 -0.26434291729E+02 -0.61088415812E+02  0.49402640570E+03  0.49849037690E+03  0.00000000000E+00 0.  1.
</event>
<event>
 4    1  0.3664744E+003  0.2460911E+02  0.7546771E-02  0.1473224E+00
          2   -1    0    0  502    0  0.00000000000E+00  0.00000000000E+00  0.42239422646E+01  0.42239422646E+01  0.00000000000E+00 0.  1.
          1   -1    0    0  501    0 -0.00000000000E+00 -0.00000000000E+00 -0.16293981273E+03  0.16293981273E+03  0.00000000000E+00 0.  1.
          2    1    1    2  501    0 -0.23638774778E+02 -0.68422728684E+01 -0.50395527792E+02  0.56083131087E+02  0.00000000000E+00 0.  1.
          1    1    1    2  502    0  0.23638774778E+02  0.68422728684E+01 -0.10832034267E+03  0.11108062391E+03  0.00000000000E+00 0.  1.
</event>
<event>
 4    1  0.3664744E+003  0.2847085E+02  0.7546771E-02  0.1433367E+00
          2   -1    0    0  502    0  0.00000000000E+00  0.00000000000E+00  0.54128709479E+00  0.54128709479E+00  0.00000000000E+00 0. -1.
          1   -1    0    0  501    0 -0.00000000000E+00 -0.00000000000E+00 -0.20884886969E+04  0.20884886969E+04  0.00000000000E+00 0. -1.
          2    1    1    2  501    0 -0.27658036606E+02  0.67544174694E+01 -0.48835066662E+03  0.48917988791E+03  0.00000000000E+00 0. -1.
          1    1    1    2  502    0  0.27658036606E+02 -0.67544174694E+01 -0.15995967432E+04  0.15998500961E+04  0.00000000000E+00 0. -1.
</event>
<event>
 4    1  0.3664744E+003  0.2023683E+02  0.7546771E-02  0.1530446E+00
          2   -1    0    0  502    0  0.00000000000E+00  0.00000000000E+00  0.10134556408E+04  0.10134556408E+04  0.00000000000E+00 0.  1.
          1   -1    0    0  501    0 -0.00000000000E+00 -0.00000000000E+00 -0.53805504506E+00  0.53805504506E+00  0.00000000000E+00 0.  1.
          2    1    1    2  501    0  0.13558189886E+02  0.15023475772E+02  0.75943773837E+03  0.75970731720E+03  0.00000000000E+00 0.  1.
          1    1    1    2  502    0 -0.13558189886E+02 -0.15023475772E+02  0.25347984737E+03  0.25428637863E+03  0.00000000000E+00 0.  1.
</event>
<event>
 4    1  0.3664744E+003  0.4034533E+02  0.7546771E-02  0.1346474E+00
          2   -1    0    0  502    0  0.00000000000E+00  0.00000000000E+00  0.35249549779E+01  0.35249549779E+01  0.00000000000E+00 0.  1.
          1   -1    0    0  501    0 -0.00000000000E+00 -0.00000000000E+00 -0.55681670650E+03  0.55681670650E+03  0.00000000000E+00 0.  1.
          2    1    1    2  501    0  0.39921860059E+02 -0.58301657272E+01 -0.16089677068E+03  0.16587801711E+03  0.00000000000E+00 0.  1.
          1    1    1    2  502    0 -0.39921860059E+02  0.58301657272E+01 -0.39239498084E+03  0.39446364437E+03  0.00000000000E+00 0.  1.
</event>
<event>
 4    1  0.3664744E+003  0.2442257E+02  0.7546771E-02  0.1475368E+00
          2   -1    0    0  502    0  0.00000000000E+00  0.00000000000E+00  0.69427287929E+02  0.69427287929E+02  0.00000000000E+00 0. -1.
          1   -1    0    0  501    0 -0.00000000000E+00 -0.00000000000E+00 -0.30208630585E+02  0.30208630585E+02  0.00000000000E+00 0.  1.
          2    1    1    2  501    0  0.11019820980E+02  0.21795077729E+02  0.61752063740E+02  0.66406168718E+02  0.00000000000E+00 0. -1.
          1    1    1    2  502    0 -0.11019820980E+02 -0.21795077729E+02 -0.22533406397E+02  0.33229749796E+02  0.00000000000E+00 0.  1.
</event>
<event>
 4    1  0.3664744E+003  0.2265696E+02  0.7546771E-02  0.1496851E+00
          2   -1    0    0  502    0  0.00000000000E+00  0.00000000000E+00  0.63802418335E+02  0.63802418335E+02  0.00000000000E+00 0.  1.
          1   -1    0    0  501    0 -0.00000000000E+00 -0.00000000000E+00 -0.94853238856E+01  0.94853238856E+01  0.00000000000E+00 0.  1.
          2    1    1    2  501    0 -0.16104783464E+02 -0.15936541648E+02  0.12882947391E+02  0.26063532830E+02  0.00000000000E+00 0.  1.
          1    1    1    2  502    0  0.16104783464E+02  0.15936541648E+02  0.41434147058E+02  0.47224209390E+02  0.00000000000E+00 0.  1.
</event>
<event>
 4    1  0.3664744E+003  0.3866477E+02  0.7546771E-02  0.1356493E+00
          2   -1    0    0  502    0  0.00000000000E+00  0.00000000000E+00  0.16731878697E+03  0.16731878697E+03  0.00000000000E+00 0.  1.
          1   -1    0    0  501    0 -0.00000000000E+00 -0.00000000000E+00 -0.12032915158E+04  0.12032915158E+04  0.00000000000E+00 0. -1.
          2    1    1    2  501    0  0.31296416528E+02  0.22704601754E+02  0.16476974020E+03  0.16924547827E+03  0.00000000000E+00 0.  1.
          1    1    1    2  502    0 -0.31296416528E+02 -0.22704601754E+02 -0.12007424691E+04  0.12013648245E+04  0.00000000000E+00 0. -1.
</event>
<event>
 4    1  0.3664744E+003  0.2211953E+02  0.7546771E-02  0.1503860E+00
          2   -1    0    0  502    0  0.00000000000E+00  0.00000000000E+00  0.44263428912E+00  0.44263428912E+00  0.00000000000E+00 0.  1.
          1   -1    0    0  501    0 -0.00000000000E+00 -0.00000000000E+00 -0.12132683231E+04  0.12132683231E+04  0.00000000000E+00 0.  1.
          2    1    1    2  501    0  0.13580122837E+02  0.17460067055E+02 -0.42543780507E+03  0.42601244073E+03  0.00000000000E+00 0.  1.
          1    1    1    2  502    0 -0.13580122837E+02 -0.17460067055E+02 -0.78738788377E+03  0.78769851669E+03  0.00000000000E+00 0.  1.
</event>
<event>
 4    1  0.3664744E+003  0.4002912E+02  0.7546771E-02  0.1348315E+00
          2   -1    0    0  502    0  0.00000000000E+00  0.00000000000E+00  0.24823045886E+03  0.24823045886E+03  0.00000000000E+00 0.  1.
          1   -1    0    0  501    0 -0.00000000000E+00 -0.00000000000E+00 -0.70025378864E+01  0.70025378864E+01  0.00000000000E+00 0.  1.
          2    1    1    2  501    0  0.58808774191E+01  0.39594770793E+02  0.15629860829E+03  0.16134306786E+03  0.00000000000E+00 0.  1.
          1    1    1    2  502    0 -0.58808774191E+01 -0.39594770793E+02  0.84929312689E+02  0.93889928891E+02  0.00000000000E+00 0.  1.
</event>
<event>
 4    1  0.3664744E+003  0.2587426E+02  0.7546771E-02  0.1459256E+00
          2   -1    0    0  502    0  0.00000000000E+00  0.00000000000E+00  0.54179981206E+03  0.54179981206E+03  0.00000000000E+00 0. -1.
          1   -1    0    0  501    0 -0.00000000000E+00 -0.00000000000E+00 -0.18519272098E+01  0.18519272098E+01  0.00000000000E+00 0. -1.
          2    1    1    2  501    0  0.18276020203E+02  0.18315682603E+02  0.42678094349E+03  0.42756455754E+03  0.00000000000E+00 0. -1.
          1    1    1    2  502    0 -0.18276020203E+02 -0.18315682603E+02  0.11316694136E+03  0.11608718172E+03  0.00000000000E+00 0. -1.
</event>
<event>
 4    1  0.3664744E+003  0.2579508E+02  0.7546771E-02  0.1460102E+00
          2   -1    0    0  502    0  0.00000000000E+00  0.00000000000E+00  0.16239113420E+04  0.16239113420E+04  0.00000000000E+00 0. -1.
          1   -1    0    0  501    0 -0.00000000000E+00 -0.00000000000E+00 -0.40817810857E+01  0.40817810857E+01  0.00000000000E+00 0. -1.
          2    1    1    2  501    0 -0.70318664457E+00  0.25785498198E+02  0.15819752229E+04  0.15821855113E+04  0.00000000000E+00 0. -1.
          1    1    1    2  502    0  0.70318664457E+00 -0.25785498198E+02  0.37854338038E+02  0.45807611781E+02  0.00000000000E+00 0. -1.
</event>
<event>
 4    1  0.3664744E+003  0.2196631E+02  0.7546771E-02  0.1505903E+00
          2   -1    0    0  502    0  0.00000000000E+00  0.00000000000E+00  0.10354731914E+01  0.10354731914E+01  0.00000000000E+00 0. -1.
          1   -1    0    0  501    0 -0.00000000000E+00 -0.00000000000E+00 -0.48524309308E+03  0.48524309308E+03  0.00000000000E+00 0. -1.
          2    1    1    2  501    0  0.16797563343E+02 -0.14154876375E+02 -0.19367074337E+03  0.19491248164E+03  0.00000000000E+00 0. -1.
          1    1    1    2  502    0 -0.16797563343E+02  0.14154876375E+02 -0.29053687652E+03  0.29136608464E+03  0.00000000000E+00 0. -1.
</event>
<event>
 4    1  0.3664744E+003  0.2647883E+02  0.7546771E-02  0.1452915E+00
          2   -1    0    0  502    0  0.00000000000E+00  0.00000000000E+00  0.42575454656E+02  0.42575454656E+02  0.00000000000E+00 0. -1.
          1   -1    0    0  501    0 -0.00000000000E+00 -0.00000000000E+00 -0.54875626230E+02  0.54875626230E+02  0.00000000000E+00 0. -1.
          2    1    1    2  501    0  0.61887971803E+01 -0.25745435332E+02  0.34613856321E+02  0.43580359113E+02  0.00000000000E+00 0. -1.
          1    1    1    2  502    0 -0.61887971803E+01  0.25745435332E+02 -0.46914027895E+02  0.53870721773E+02  0.00000000000E+00 0. -1.
</event>
<event>
 4    1  0.3664744E+003  0.3923125E+02  0.7546771E-02  0.1353050E+00
          2   -1    0    0  502    0  0.00000000000E+00  0.00000000000E+00  0.17104199240E+03  0.17104199240E+03  0.00000000000E+00 0.  1.
          1   -1    0    0  501    0 -0.00000000000E+00 -0.00000000000E+00 -0.28288070633E+02  0.28288070633E+02  0.00000000000E+00 0. -1.
          2    1    1    2  501    0 -0.75471773664E+00  0.39223989407E+02  0.15367783112E+03  0.15860632623E+03  0.00000000000E+00 0.  1.
          1    1    1    2  502    0  0.75471773664E+00 -0.39223989407E+02 -0.10923909347E+02  0.40723736804E+02  0.00000000000E+00 0. -1.
</event>
<event>
 4    1  0.3664744E+003  0.3280983E+02  0.7546771E-02  0.1396651E+00
          2   -1    0    0  502    0  0.00000000000E+00  0.00000000000E+00  0.29980822761E+03  0.29980822761E+03  0.00000000000E+00 0. -1.
          1   -1    0    0  501    0 -0.00000000000E+00 -0.00000000000E+00 -0.57989729301E+01  0.57989729301E+01  0.00000000000E+00 0. -1.
          2    1    1    2  501    0 -0.18584208307E+02 -0.27039085589E+02  0.24130130184E+03  0.24352166889E+03  0.00000000000E+00 0. -1.
          1    1    1    2  502    0  0.18584208307E+02  0.27039085589E+02  0.52707952831E+02  0.62085531644E+02  0.00000000000E+00 0. -1.
</event>
<event>
 4    1  0.3664744E+003  0.2834570E+02  0.7546771E-02  0.1434539E+00
          2   -1    0    0  502    0  0.00000000000E+00  0.00000000000E+00  0.60905497097E+02  0.60905497097E+02  0.00000000000E+00 0. -1.
          1   -1    0    0  501    0 -0.00000000000E+00 -0.00000000000E+00 -0.22388949526E+02  0.22388949526E+02  0.00000000000E+00 0. -1.
          2    1    1    2  501    0  0.20727251998E+02 -0.19335449202E+02  0.45950571277E+02  0.53990124763E+02  0.00000000000E+00 0. -1.
          1    1    1    2  502    0 -0.20727251998E+02  0.19335449202E+02 -0.74340237058E+01  0.29304321861E+02  0.00000000000E+00 0. -1.
</event>
<event>
 4    1  0.3664744E+003  0.2092356E+02  0.7546771E-02  0.1520359E+00
          2   -1    0    0  502    0  0.00000000000E+00  0.00000000000E+00  0.83820921231E+01  0.83820921231E+01  0.00000000000E+00 0.  1.
          1   -1    0    0  501    0 -0.00000000000E+00 -0.00000000000E+00 -0.54680745151E+02  0.54680745151E+02  0.00000000000E+00 0.  1.
          2    1    1    2  501    0 -0.97278149693E+01  0.18524695347E+02 -0.29825013802E+02  0.36432487838E+02  0.00000000000E+00 0.  1.
          1    1    1    2  502    0  0.97278149693E+01 -0.18524695347E+02 -0.16473639226E+02  0.26630349436E+02  0.00000000000E+00 0.  1.
</event>
<event>
 4    1  0.3664744E+003  0.2246948E+02  0.7546771E-02  0.1499270E+00
          2   -1    0    0  502    0  0.00000000000E+00  0.00000000000E+00  0.28080308211E+03  0.28080308211E+03  0.00000000000E+00 0. -1.
          1   -1    0    0  501    0 -0.00000000000E+00 -0.00000000000E+00 -0.30003810049E+01  0.30003810049E+01  0.00000000000E+00 0.  1.
          2    1    1    2  501    0  0.22367333280E+02  0.21400381578E+01  0.22873204906E+03  0.22983304294E+03  0.00000000000E+00 0. -1.
          1    1    1    2  502    0 -0.22367333280E+02 -0.21400381578E+01  0.49070652044E+02  0.53970420171E+02  0.00000000000E+00 0.  1.
</event>
<event>
 4    1  0.3664744E+003  0.2058008E+02  0.7546771E-02  0.1525345E+00
          2   -1    0    0  502    0  0.00000000000E+00  0.00000000000E+00  0.81524471231E+02  0.81524471231E+02  0.00000000000E+00 0.  1.
          1   -1    0    0  501    0 -0.00000000000E+00 -0.00000000000E+00 -0.18789638342E+02  0.18789638342E+02  0.00000000000E+00 0. -1.
          2    1    1    2  501    0  0.16421369413E+02 -0.12404773115E+02  0.74030544955E+02  0.76837890105E+02  0.00000000000E+00 0.  1.
          1    1    1    2  502    0 -0.16421369413E+02  0.12404773115E+02 -0.11295712066E+02  0.23476219468E+02  0.00000000000E+00 0. -1.
</event>
<event>
 4    1  0.3664744E+003  0.2286272E+02  0.7546771E-02  0.1494229E+00
          2   -1    0    0  502    0  0.00000000000E+00  0.00000000000E+00  0.25700205079E+02  0.25700205079E+02  0.00000000000E+00 0. -1.
          1   -1    0    0  501    0 -0.00000000000E+00 -0.00000000000E+00 -0.20697408467E+02  0.20697408467E+02  0.00000000000E+00 0. -1.
          2    1    1    2  501    0  0.82499961636E+01  0.21322313319E+02 -0.55354240996E+00  0.22869409507E+02  0.00000000000E+00 0. -1.
          1    1    1    2  502    0 -0.82499961636E+01 -0.21322313319E+02  0.55563390228E+01  0.23528204039E+02  0.00000000000E+00 0. -1.
</event>
<event>
 4    1  0.3664744E+003  0.2475191E+02  0.7546771E-02  0.1471598E+00
          2   -1    0    0  502    0  0.00000000000E+00  0.00000000000E+00  0.72704166710E+03  0.72704166710E+03  0.00000000000E+00 0.  1.
          1   -1    0    0  501    0 -0.00000000000E+00 -0.00000000000E+00 -0.59510015349E+03  0.59510015349E+03  0.00000000000E+00 0. -1.
          2    1    1    2  501    0 -0.10908896026E+02  0.22218299403E+02  0.72657345806E+03  0.72699494276E+03  0.00000000000E+00 0.  1.
          1    1    1    2  502    0  0.10908896026E+02 -0.22218299403E+02 -0.59463194444E+03  0.59514687783E+03  0.00000000000E+00 0. -1.
</event>
<event>
 4    1  0.3664744E+003  0.3109862E+02  0.7546771E-02  0.1410284E+00
          2   -1    0    0  502    0  0.00000000000E+00  0.00000000000E+00  0.47491962744E+03  0.47491962744E+03  0.00000000000E+00 0. -1.
          1   -1    0    0  501    0 -0.00000000000E+00 -0.00000000000E+00 -0.13451412441E+02  0.13451412441E+02  0.00000000000E+00 0.  1.
          2    1    1    2  501    0  0.29851616214E+02  0.87181046386E+01  0.45567801590E+03  0.45673797578E+03  0.00000000000E+00 0. -1.
          1    1    1    2  502    0 -0.29851616214E+02 -0.87181046386E+01  0.57901990953E+01  0.31633064105E+02  0.00000000000E+00 0.  1.
</event>
<event>
 4    1  0.3664744E+003  0.2133693E+02  0.7546771E-02  0.1514508E+00
          2   -1    0    0  502    0  0.00000000000E+00  0.00000000000E+00  0.42706016145E+01  0.42706016145E+01  0.00000000000E+00 0. -1.
          1   -1    0    0  501    0 -0.00000000000E+00 -0.00000000000E+00 -0.18085553893E+03  0.18085553893E+03  0.00000000000E+00 0. -1.
          2    1    1    2  501    0 -0.80263960071E+01 -0.19769716629E+02 -0.28983067729E+02  0.35990039503E+02  0.00000000000E+00 0. -1.
          1    1    1    2  502    0  0.80263960071E+01  0.19769716629E+02 -0.14760186959E+03  0.14913610104E+03  0.00000000000E+00 0. -1.
</event>
<event>
 4    1  0.3664744E+003  0.4728946E+02  0.7546771E-02  0.1310372E+00
          2   -1    0    0  502    0  0.00000000000E+00  0.00000000000E+00  0.18247734145E+02  0.18247734145E+02  0.00000000000E+00 0.  1.
          1   -1    0    0  501    0 -0.00000000000E+00 -0.00000000000E+00 -0.12472281615E+03  0.12472281615E+03  0.00000000000E+00 0.  1.
          2    1    1    2  501    0  0.29665744675E+01  0.47196317689E+02 -0.43806198640E+02  0.64461430381E+02  0.00000000000E+00 0.  1.
          1    1    1    2  502    0 -0.29665744675E+01 -0.47196317689E+02 -0.62668883369E+02  0.78509119917E+02  0.00000000000E+00 0.  1.
</event>
<event>
 4    1  0.3664744E+003  0.2266482E+02  0.7546771E-02  0.1496751E+00
          2   -1    0    0  502    0  0.00000000000E+00  0.00000000000E+00  0.43520520149E+01  0.43520520149E+01  0.00000000000E+00 0. -1.
          1   -1    0    0  501    0 -0.00000000000E+00 -0.00000000000E+00 -0.10305419154E+04  0.10305419154E+04  0.00000000000E+00 0.  1.
          2    1    1    2  501    0  0.18905562331E+02 -0.12500943259E+02 -0.26182185028E+02  0.34629477072E+02  0.00000000000E+00 0. -1.
          1    1    1    2  502    0 -0.18905562331E+02  0.12500943259E+02 -0.10000076784E+04  0.10002644903E+04  0.00000000000E+00 0.  1.
</event>
<event>
 4    1  0.3664744E+003  0.2021183E+02  0.7546771E-02  0.1530822E+00
          2   -1    0    0  502    0  0.00000000000E+00  0.00000000000E+00  0.37955779231E+00  0.37955779231E+00  0.00000000000E+00 0.  1.
          1   -1    0    0  501    0 -0.00000000000E+00 -0.00000000000E+00 -0.14687631777E+04  0.14687631777E+04  0.00000000000E+00 0. -1.
          2    1    1    2  501    0 -0.20035754454E+02 -0.26620838898E+01 -0.35447709522E+03  0.35505285407E+03  0.00000000000E+00 0.  1.
          1    1    1    2  502    0  0.20035754454E+02  0.26620838898E+01 -0.11139065247E+04  0.11140898815E+04  0.00000000000E+00 0. -1.
</event>
<event>
 4    1  0.3664744E+003  0.2377825E+02  0.7546771E-02  0.1482950E+00
          2   -1    0    0  502    0  0.00000000000E+00  0.00000000000E+00  0.45116819084E+02  0.45116819084E+02  0.00000000000E+00 0. -1.
          1   -1    0    0  501    0 -0.00000000000E+00 -0.00000000000E+00 -0.91953977478E+02  0.91953977478E+02  0.00000000000E+00 0. -1.
          2    1    1    2  501    0 -0.23755482565E+02  0.10402089220E+01  0.40275632659E+02  0.46771054859E+02  0.00000000000E+00 0. -1.
          1    1    1    2  502    0  0.23755482565E+02 -0.10402089220E+01 -0.87112791053E+02  0.90299741703E+02  0.00000000000E+00 0. -1.
</event>
<event>
 4    1  0.3664744E+003  0.4180104E+02  0.7546771E-02  0.1338243E+00
          2   -1    0    0  502    0  0.00000000000E+00  0.00000000000E+00  0.44063646615E+03  0.44063646615E+03  0.00000000000E+00 0.  1.
          1   -1    0    0  501    0 -0.00000000000E+00 -0.00000000000E+00 -0.57179941233E+01  0.57179941233E+01  0.00000000000E+00 0.  1.
          2    1    1    2  501    0  0.21934950034E+02  0.35583497333E+02  0.34101442276E+03  0.34356682588E+03  0.00000000000E+00 0.  1.
          1    1    1    2  502    0 -0.21934950034E+02 -0.35583497333E+02  0.93904049276E+02  0.10278763440E+03  0.00000000000E+00 0.  1.
</event>
<event>
 4    1  0.3664744E+003  0.2026620E+02  0.7546771E-02  0.1530005E+00
          2   -1    0    0  502    0  0.00000000000E+00  0.00000000000E+00  0.93484477591E+00  0.93484477591E+00  0.00000000000E+00 0.  1.
          1   -1    0    0  501    0 -0.00000000000E+00 -0.00000000000E+00 -0.67971151133E+03  0.67971151133E+03  0.00000000000E+00 0.  1.
          2    1    1    2  501    0  0.52169162019E+01 -0.19583209909E+02 -0.54176815705E+03  0.54214707812E+03  0.00000000000E+00 0.  1.
          1    1    1    2  502    0 -0.52169162019E+01  0.19583209909E+02 -0.13700850950E+03  0.13849927798E+03  0.00000000000E+00 0.  1.
</event>
<event>
 4    1  0.3664744E+003  0.2375849E+02  0.7546771E-02  0.1483187E+00
          2   -1    0    0  502    0  0.00000000000E+00  0.00000000000E+00  0.14834048444E+03  0.14834048444E+03  0.00000000000E+00 0.  1.
          1   -1    0    0  501    0 -0.00000000000E+00 -0.00000000000E+00 -0.12339279343E+02  0.12339279343E+02  0.00000000000E+00 0.  1.
          2    1    1    2  501    0 -0.23092026564E+02 -0.55878788729E+01  0.13481414210E+03  0.13689163229E+03  0.00000000000E+00 0.  1.
          1    1    1    2  502    0  0.23092026564E+02  0.55878788729E+01  0.11870629934E+01  0.23788131488E+02  0.00000000000E+00 0.  1.
</event>
<event>
 4    1  0.3664744E+003  0.2100358E+02  0.7546771E-02  0.1519214E+00
          2   -1    0    0  502    0  0.00000000000E+00  0.00000000000E+00  0.47988138907E+03  0.47988138907E+03  0.00000000000E+00 0.  1.
          1   -1    0    0  501    0 -0.00000000000E+00 -0.00000000000E+00 -0.56855026830E+03  0.56855026830E+03  0.00000000000E+00 0.  1.
          2    1    1    2  501    0  0.16217019131E+02  0.13347614774E+02  0.47945741449E+03  0.47991724582E+03  0.00000000000E+00 0.  1.
          1    1    1    2  502    0 -0.16217019131E+02 -0.13347614774E+02 -0.56812629372E+03  0.56851441156E+03  0.00000000000E+00 0.  1.
</event>
<event>
 4    1  0.3664744E+003  0.2316601E+02  0.7546771E-02  0.1490424E+00
          2   -1    0    0  502    0  0.00000000000E+00  0.00000000000E+00  0.83945365665E+02  0.83945365665E+02  0.00000000000E+00 0.  1.
          1   -1    0    0  501    0 -0.00000000000E+00 -0.00000000000E+00 -0.12658981037E+03  0.12658981037E+03  0.00000000000E+00 0. -1.
          2    1    1    2  501    0 -0.15241268517E+02 -0.17446136551E+02  0.81252828906E+02  0.84490745953E+02  0.00000000000E+00 0.  1.
          1    1    1    2  502    0  0.15241268517E+02  0.17446136551E+02 -0.12389727361E+03  0.12604443008E+03  0.00000000000E+00 0. -1.
</event>
<event>
 4    1  0.3664744E+003  0.5272280E+02  0.7546771E-02  0.1286780E+00
          2   -1    0    0  502    0  0.00000000000E+00  0.00000000000E+00  0.11505125247E+03  0.11505125247E+03  0.00000000000E+00 0.  1.
          1   -1    0    0  501    0 -0.00000000000E+00 -0.00000000000E+00 -0.35641750009E+02  0.35641750009E+02  0.00000000000E+00 0. -1.
          2    1    1    2  501    0  0.49643646648E+02  0.17753930028E+02  0.82468770145E+02  0.97881518855E+02  0.00000000000E+00 0.  1.
          1    1    1    2  502    0 -0.49643646648E+02 -0.17753930028E+02 -0.30592676836E+01  0.52811483626E+02  0.00000000000E+00 0. -1.
</event>
<event>
 4    1  0.3664744E+003  0.2037161E+02  0.7546771E-02  0.1528429E+00
          2   -1    0    0  502    0  0.00000000000E+00  0.00000000000E+00  0.51403144090E+00  0.51403144090E+00  0.00000000000E+00 0.  1.
          1   -1    0    0  501    0 -0.00000000000E+00 -0.00000000000E+00 -0.89321113920E+03  0.89321113920E+03  0.00000000000E+00 0.  1.
          2    1    1    2  501    0 -0.12483515222E+02 -0.16098577556E+02 -0.30780068880E+03  0.30847409352E+03  0.00000000000E+00 0.  1.
          1    1    1    2  502    0  0.12483515222E+02  0.16098577556E+02 -0.58489641896E+03  0.58525107712E+03  0.00000000000E+00 0.  1.
</event>
<event>
 4    1  0.3664744E+003  0.2136561E+02  0.7546771E-02  0.1514108E+00
          2   -1    0    0  502    0  0.00000000000E+00  0.00000000000E+00  0.72409687842E+03  0.72409687842E+03  0.00000000000E+00 0. -1.
          1   -1    0    0  501    0 -0.00000000000E+00 -0.00000000000E+00 -0.37576736297E+01  0.37576736297E+01  0.00000000000E+00 0.  1.
          2    1    1    2  501    0  0.65099431978E+01  0.20349689364E+02  0.69216819390E+03  0.69249786849E+03  0.00000000000E+00 0. -1.
          1    1    1    2  502    0 -0.65099431978E+01 -0.20349689364E+02  0.28171010887E+02  0.35356683556E+02  0.00000000000E+00 0.  1.
</event>
<event>
 4    1  0.3664744E+003  0.2229753E+02  0.7546771E-02  0.1501513E+00
          2   -1    0    0  502    0  0.00000000000E+00  0.00000000000E+00  0.29068509045E+02  0.29068509045E+02  0.00000000000E+00 0.  1.
          1   -1    0    0  501    0 -0.00000000000E+00 -0.00000000000E+00 -0.71339461491E+02  0.71339461491E+02  0.00000000000E+00 0. -1.
          2    1    1    2  501    0 -0.85236623029E+01 -0.20604055412E+02  0.22638503530E+02  0.31775489934E+02  0.00000000000E+00 0.  1.
          1    1    1    2  502    0  0.85236623029E+01  0.20604055412E+02 -0.64909455976E+02  0.68632480602E+02  0.00000000000E+00 0. -1.
</event>
<event>
 4    1  0.3664744E+003  0.2262658E+02  0.7546771E-02  0.1497241E+00
          2   -1    0    0  502    0  0.00000000000E+00  0.00000000000E+00  0.98091651126E+03  0.98091651126E+03  0.00000000000E+00 0.  1.
          1   -1    0    0  501    0 -0.00000000000E+00 -0.00000000000E+00 -0.53378530441E+00  0.53378530441E+00  0.00000000000E+00 0.  1.
          2    1    1    2  501    0 -0.22586829938E+02 -0.13406267219E+01  0.56334787779E+03  0.56380208724E+03  0.00000000000E+00 0.  1.
          1    1    1    2  502    0  0.22586829938E+02  0.13406267219E+01  0.41703484816E+03  0.41764820932E+03  0.00000000000E+00 0.  1.
</event>
<event>
 4    1  0.3664744E+003  0.3271660E+02  0.7546771E-02  0.1397368E+00
          2   -1    0    0  502    0  0.00000000000E+00  0.00000000000E+00  0.55330367515E+03  0.55330367515E+03  0.00000000000E+00 0.  1.
          1   -1    0    0  501    0 -0.00000000000E+00 -0.00000000000E+00 -0.32982933588E+02  0.32982933588E+02  0.00000000000E+00 0.  1.
          2    1    1    2  501    0  0.32637913086E+02 -0.22677678238E+01  0.54457704743E+03  0.54555892141E+03  0.00000000000E+00 0.  1.
          1    1    1    2  502    0 -0.32637913086E+02  0.22677678238E+01 -0.24256305862E+02  0.40727687335E+02  0.00000000000E+00 0.  1.
</event>
<event>
 4    1  0.3664744E+003  0.2040072E+02  0.7546771E-02  0.1527996E+00
          2   -1    0    0  502    0  0.00000000000E+00  0.00000000000E+00  0.38810661527E+03  0.38810661527E+03  0.00000000000E+00 0. -1.
          1   -1    0    0  501    0 -0.00000000000E+00 -0.00000000000E+00 -0.10729716304E+01  0.10729716304E+01  0.00000000000E+00 0. -1.
          2    1    1    2  501    0  0.18927513881E+02 -0.76117301875E+01  0.19817047006E+03  0.19921778139E+03  0.00000000000E+00 0. -1.
          1    1    1    2  502    0 -0.18927513881E+02  0.76117301875E+01  0.18886317358E+03  0.18996180551E+03  0.00000000000E+00 0. -1.
</event>
<event>
 4    1  0.3664744E+003  0.2342442E+02  0.7546771E-02  0.1487236E+00
          2   -1    0    0  502    0  0.00000000000E+00  0.00000000000E+00  0.96962035484E+01  0.96962035484E+01  0.00000000000E+00 0. -1.
          1   -1    0    0  501    0 -0.00000000000E+00 -0.00000000000E+00 -0.80387540836E+03  0.80387540836E+03  0.00000000000E+00 0.  1.
          2    1    1    2  501    0 -0.81774156347E+01  0.21950698240E+02 -0.48830758370E+01  0.23927969185E+02  0.00000000000E+00 0. -1.
          1    1    1    2  502    0  0.81774156347E+01 -0.21950698240E+02 -0.78929612898E+03  0.78964364273E+03  0.00000000000E+00 0.  1.
</event>
<event>
 4    1  0.3664744E+003  0.2267476E+02  0.7546771E-02  0.1496623E+00
          2   -1    0    0  502    0  0.00000000000E+00  0.00000000000E+00  0.45011924349E+01  0.45011924349E+01  0.00000000000E+00 0. -1.
          1   -1    0    0  501    0 -0.00000000000E+00 -0.00000000000E+00 -0.59590135175E+03  0.59590135175E+03  0.00000000000E+00 0.  1.
          2    1    1    2  501    0 -0.22601249406E+02 -0.18243042982E+01 -0.25799746595E+02  0.34347801753E+02  0.00000000000E+00 0. -1.
          1    1    1    2  502    0  0.22601249406E+02  0.18243042982E+01 -0.56560041272E+03  0.56605474243E+03  0.00000000000E+00 0.  1.
</event>
<event>
 4    1  0.3664744E+003  0.4295751E+02  0.7546771E-02  0.1331975E+00
          2   -1    0    0  502    0  0.00000000000E+00  0.00000000000E+00  0.27304706371E+03  0.27304706371E+03  0.00000000000E+00 0.  1.
          1   -1    0    0  501    0 -0.00000000000E+00 -0.00000000000E+00 -0.83202621397E+03  0.83202621397E+03  0.00000000000E+00 0.  1.
          2    1    1    2  501    0  0.35533260138E+02 -0.24139906061E+02  0.27079842659E+03  0.27418449169E+03  0.00000000000E+00 0.  1.
          1    1    1    2  502    0 -0.35533260138E+02  0.24139906061E+02 -0.82977757685E+03  0.83088878599E+03  0.00000000000E+00 0.  1.
</event>
<event>
 4    1  0.3664744E+003  0.6523637E+02  0.7546771E-02  0.1243009E+00
          2   -1    0    0  502    0  0.00000000000E+00  0.00000000000E+00  0.74148406515E+01  0.74148406515E+01  0.00000000000E+00 0. -1.
          1   -1    0    0  501    0 -0.00000000000E+00 -0.00000000000E+00 -0.11671132971E+04  0.11671132971E+04  0.00000000000E+00 0. -1.
          2    1    1    2  501    0 -0.61364879778E+02  0.22138999489E+02 -0.16118844622E+03  0.17388932964E+03  0.00000000000E+00 0. -1.
          1    1    1    2  502    0  0.61364879778E+02 -0.22138999489E+02 -0.99851001021E+03  0.10006388081E+04  0.00000000000E+00 0. -1.
</event>
<event>
 4    1  0.3664744E+003  0.2378720E+02  0.7546771E-02  0.1482843E+00
          2   -1    0    0  502    0  0.00000000000E+00  0.00000000000E+00  0.18619266911E+02  0.18619266911E+02  0.00000000000E+00 0.  1.
          1   -1    0    0  501    0 -0.00000000000E+00 -0.00000000000E+00 -0.26130152432E+03  0.26130152432E+03  0.00000000000E+00 0.  1.
          2    1    1    2  501    0  0.96578249669E+01 -0.21738379827E+02  0.10229041763E+02  0.25893320296E+02  0.00000000000E+00 0.  1.
          1    1    1    2  502    0 -0.96578249669E+01  0.21738379827E+02 -0.25291129917E+03  0.25402747094E+03  0.00000000000E+00 0.  1.
</event>
<event>
 4    1  0.3664744E+003  0.2552596E+02  0.7546771E-02  0.1463005E+00
          2   -1    0    0  502    0  0.00000000000E+00  0.00000000000E+00  0.77573435333E+03  0.77573435333E+03  0.00000000000E+00 0. -1.
          1   -1    0    0  501    0 -0.00000000000E+00 -0.00000000000E+00 -0.13782490751E+02  0.13782490751E+02  0.00000000000E+00 0.  1.
          2    1    1    2  501    0 -0.70419608035E+01 -0.24535392294E+02  0.76351640662E+03  0.76394298077E+03  0.00000000000E+00 0. -1.
          1    1    1    2  502    0  0.70419608035E+01  0.24535392294E+02 -0.15645440352E+01  0.25573863318E+02  0.00000000000E+00 0.  1.
</event>
<event>
 4    1  0.3664744E+003  0.2541534E+02  0.7546771E-02  0.1464210E+00
          2   -1    0    0  502    0  0.00000000000E+00  0.00000000000E+00  0.79368145569E+03  0.79368145569E+03  0.00000000000E+00 0. -1.
          1   -1    0    0  501    0 -0.00000000000E+00 -0.00000000000E+00 -0.24882617898E+03  0.24882617898E+03  0.00000000000E+00 0. -1.
          2    1    1    2  501    0  0.12602578527E+02  0.22070670194E+02  0.79282830779E+03  0.79323556722E+03  0.00000000000E+00 0. -1.
          1    1    1    2  502    0 -0.12602578527E+02 -0.22070670194E+02 -0.24797303108E+03  0.24927206745E+03  0.00000000000E+00 0. -1.
</event>
<event>
 4    1  0.3664744E+003  0.1084820E+03  0.7546771E-02  0.1149869E+00
          2   -1    0    0  502    0  0.00000000000E+00  0.00000000000E+00  0.17829623932E+04  0.17829623932E+04  0.00000000000E+00 0. -1.
          1   -1    0    0  501    0 -0.00000000000E+00 -0.00000000000E+00 -0.23489792720E+03  0.23489792720E+03  0.00000000000E+00 0.  1.
          2    1    1    2  501    0 -0.25262314261E+02  0.10549961445E+03  0.17686863147E+04  0.17720100544E+04  0.00000000000E+00 0. -1.
          1    1    1    2  502    0  0.25262314261E+02 -0.10549961445E+03 -0.22062184869E+03  0.24585026599E+03  0.00000000000E+00 0.  1.
</event>
<event>
 4    1  0.3664744E+003  0.2400959E+02  0.7546771E-02  0.1480195E+00
          2   -1    0    0  502    0  0.00000000000E+00  0.00000000000E+00  0.29446465640E+03  0.29446465640E+03  0.00000000000E+00 0.  1.
          1   -1    0    0  501    0 -0.00000000000E+00 -0.00000000000E+00 -0.16318910955E+03  0.16318910955E+03  0.00000000000E+00 0. -1.
          2    1    1    2  501    0 -0.73468291682E+01 -0.22857917016E+02  0.29308798448E+03  0.29406976539E+03  0.00000000000E+00 0.  1.
          1    1    1    2  502    0  0.73468291682E+01  0.22857917016E+02 -0.16181243762E+03  0.16358400056E+03  0.00000000000E+00 0. -1.
</event>
<event>
 4    1  0.3664744E+003  0.2120351E+02  0.7546771E-02  0.1516379E+00
          2   -1    0    0  502    0  0.00000000000E+00  0.00000000000E+00  0.65809918265E+01  0.65809918265E+01  0.00000000000E+00 0.  1.
          1   -1    0    0  501    0 -0.00000000000E+00 -0.00000000000E+00 -0.31834023946E+03  0.31834023946E+03  0.00000000000E+00 0. -1.
          2    1    1    2  501    0  0.98236476713E+01  0.18790548113E+02 -0.11902611727E+02  0.24315857334E+02  0.00000000000E+00 0.  1.
          1    1    1    2  502    0 -0.98236476713E+01 -0.18790548113E+02 -0.29985663590E+03  0.30060537395E+03  0.00000000000E+00 0. -1.
</event>
<event>
 4    1  0.3664744E+003  0.2091608E+02  0.7546771E-02  0.1520466E+00
          2   -1    0    0  502    0  0.00000000000E+00  0.00000000000E+00  0.11530809407E+04  0.11530809407E+04  0.00000000000E+00 0.  1.
          1   -1    0    0  501    0 -0.00000000000E+00 -0.00000000000E+00 -0.91721120115E+01  0.91721120115E+01  0.00000000000E+00 0.  1.
          2    1    1    2  501    0  0.63407330468E+01 -0.19931817714E+02  0.11409349081E+04  0.11411266129E+04  0.00000000000E+00 0.  1.
          1    1    1    2  502    0 -0.63407330468E+01  0.19931817714E+02  0.29739205741E+01  0.21126439751E+02  0.00000000000E+00 0.  1.
</event>
<event>
 4    1  0.3664744E+003  0.2088429E+02  0.7546771E-02  0.1520923E+00
          2   -1    0    0  502    0  0.00000000000E+00  0.00000000000E+00  0.14759132997E+04  0.14759132997E+04  0.00000000000E+00 0.  1.
          1   -1    0    0  501    0 -0.00000000000E+00 -0.00000000000E+00 -0.45258965928E+01  0.45258965928E+01  0.00000000000E+00 0.  1.
          2    1    1    2  501    0  0.19159855203E+02  0.83098517406E+01  0.14513394024E+04  0.14514896536E+04  0.00000000000E+00 0.  1.
          1    1    1    2  502    0 -0.19159855203E+02 -0.83098517406E+01  0.20048000728E+02  0.28949542665E+02  0.00000000000E+00 0.  1.
</event>
<event>
 4    1  0.3664744E+003  0.3006875E+02  0.7546771E-02  0.1419000E+00
          2   -1    0    0  502    0  0.00000000000E+00  0.00000000000E+00  0.18310086655E+03  0.18310086655E+03  0.00000000000E+00 0. -1.
          1   -1    0    0  501    0 -0.00000000000E+00 -0.00000000000E+00 -0.59568024195E+01  0.59568024195E+01  0.00000000000E+00 0.  1.
          2    1    1    2  501    0 -0.85512041110E+00  0.30056585283E+02  0.12766772483E+03  0.13116088409E+03  0.00000000000E+00 0. -1.
          1    1    1    2  502    0  0.85512041110E+00 -0.30056585283E+02  0.49476339298E+02  0.57896784886E+02  0.00000000000E+00 0.  1.
</event>
<event>
 4    1  0.3664744E+003  0.2725761E+02  0.7546771E-02  0.1445037E+00
          2   -1    0    0  502    0  0.00000000000E+00  0.00000000000E+00  0.16923246653E+03  0.16923246653E+03  0.00000000000E+00 0.  1.
          1   -1    0    0  501    0 -0.00000000000E+00 -0.00000000000E+00 -0.10950847371E+02  0.10950847371E+02  0.00000000000E+00 0. -1.
          2    1    1    2  501    0  0.41357937300E+01  0.26942017492E+02  0.14887272120E+03  0.15134749491E+03  0.00000000000E+00 0.  1.
          1    1    1    2  502    0 -0.41357937300E+01 -0.26942017492E+02  0.94088979563E+01  0.28835818994E+02  0.00000000000E+00 0. -1.
</event>
<event>
 4    1  0.3664744E+003  0.2424298E+02  0.7546771E-02  0.1477453E+00
          2   -1    0    0  502    0  0.00000000000E+00  0.00000000000E+00  0.45597687918E+03  0.45597687918E+03  0.00000000000E+00 0. -1.
          1   -1    0    0  501    0 -0.00000000000E+00 -0.00000000000E+00 -0.78911022583E+03  0.78911022583E+03  0.00000000000E+00 0.  1.
          2    1    1    2  501    0  0.22213530126E+02  0.97098436586E+01  0.45546824137E+03  0.45611296943E+03  0.00000000000E+00 0. -1.
          1    1    1    2  502    0 -0.22213530126E+02 -0.97098436586E+01 -0.78860158803E+03  0.78897413558E+03  0.00000000000E+00 0.  1.
</event>
<event>
 4    1  0.3664744E+003  0.3178919E+02  0.7546771E-02  0.1404660E+00
          2   -1    0    0  502    0  0.00000000000E+00  0.00000000000E+00  0.21528095257E+01  0.21528095257E+01  0.00000000000E+00 0. -1.
          1   -1    0    0  501    0 -0.00000000000E+00 -0.00000000000E+00 -0.85177258922E+03  0.85177258922E+03  0.00000000000E+00 0. -1.
          2    1    1    2  501    0  0.13492539496E+02  0.28783745681E+02 -0.13874458306E+03  0.14233977647E+03  0.00000000000E+00 0. -1.
          1    1    1    2  502    0 -0.13492539496E+02 -0.28783745681E+02 -0.71087519664E+03  0.71158562228E+03  0.00000000000E+00 0. -1.
</event>
<event>
 4    1  0.3664744E+003  0.3111661E+02  0.7546771E-02  0.1410135E+00
          2   -1    0    0  502    0  0.00000000000E+00  0.00000000000E+00  0.37084770178E+01  0.37084770178E+01  0.00000000000E+00 0. -1.
          1   -1    0    0  501    0 -0.00000000000E+00 -0.00000000000E+00 -0.64852637285E+03  0.64852637285E+03  0.00000000000E+00 0. -1.
          2    1    1    2  501    0 -0.31072814962E+02  0.16504035734E+01 -0.70344977935E+02  0.76919825677E+02  0.00000000000E+00 0. -1.
          1    1    1    2  502    0  0.31072814962E+02 -0.16504035734E+01 -0.57447291789E+03  0.57531502419E+03  0.00000000000E+00 0. -1.
</event>
<event>
 4    1  0.3664744E+003  0.3302071E+02  0.7546771E-02  0.1395039E+00
          2   -1    0    0  502    0  0.00000000000E+00  0.00000000000E+00  0.67034253847E+03  0.67034253847E+03  0.00000000000E+00 0. -1.
          1   -1    0    0  501    0 -0.00000000000E+00 -0.00000000000E+00 -0.27691550965E+01  0.27691550965E+01  0.00000000000E+00 0. -1.
          2    1    1    2  501    0  0.28311084773E+02 -0.16995588711E+02  0.54997159792E+03  0.55096200057E+03  0.00000000000E+00 0. -1.
          1    1    1    2  502    0 -0.28311084773E+02  0.16995588711E+02  0.11760178546E+03  0.12214969300E+03  0.00000000000E+00 0. -1.
</event>
<event>
 4    1  0.3664744E+003  0.1041634E+03  0.7546771E-02  0.1156783E+00
          2   -1    0    0  502    0  0.00000000000E+00  0.00000000000E+00  0.20804301877E+04  0.20804301877E+04  0.00000000000E+00 0.  1.
          1   -1    0    0  501    0 -0.00000000000E+00 -0.00000000000E+00 -0.62106428727E+01  0.62106428727E+01  0.00000000000E+00 0. -1.
          2    1    1    2  501    0 -0.60020443308E+01 -0.10399030276E+03  0.14547882233E+04  0.14585125239E+04  0.00000000000E+00 0.  1.
          1    1    1    2  502    0  0.60020443308E+01  0.10399030276E+03  0.61943132149E+03  0.62812830668E+03  0.00000000000E+00 0. -1.
</event>
<event>
 4    1  0.3664744E+003  0.3105305E+02  0.7546771E-02  0.1410661E+00
          2   -1    0    0  502    0  0.00000000000E+00  0.00000000000E+00  0.18130690611E+03  0.18130690611E+03  0.00000000000E+00 0. -1.
          1   -1    0    0  501    0 -0.00000000000E+00 -0.00000000000E+00 -0.15664515849E+02  0.15664515849E+02  0.00000000000E+00 0. -1.
          2    1    1    2  501    0  0.12475384887E+02  0.28436893331E+02  0.16285988883E+03  0.16579395502E+03  0.00000000000E+00 0. -1.
          1    1    1    2  502    0 -0.12475384887E+02 -0.28436893331E+02  0.27825014247E+01  0.31177466936E+02  0.00000000000E+00 0. -1.
</event>
<event>
 4    1  0.3664744E+003  0.2150665E+02  0.7546771E-02  0.1512153E+00
          2   -1    0    0  502    0  0.00000000000E+00  0.00000000000E+00  0.29752303594E+02  0.29752303594E+02  0.00000000000E+00 0. -1.
          1   -1    0    0  501    0 -0.00000000000E+00 -0.00000000000E+00 -0.15866576170E+02  0.15866576170E+02  0.00000000000E+00 0. -1.
          2    1    1    2  501    0  0.17429276842E+02  0.12599859369E+02  0.10183892925E+02  0.23795962314E+02  0.00000000000E+00 0. -1.
          1    1    1    2  502    0 -0.17429276842E+02 -0.12599859369E+02  0.37018344989E+01  0.21822917449E+02  0.00000000000E+00 0. -1.
</event>
<event>
 4    1  0.3664744E+003  0.3509224E+02  0.7546771E-02  0.1379916E+00
          2   -1    0    0  502    0  0.00000000000E+00  0.00000000000E+00  0.76972275229E+01  0.76972275229E+01  0.00000000000E+00 0. -1.
          1   -1    0    0  501    0 -0.00000000000E+00 -0.00000000000E+00 -0.26104179974E+03  0.26104179974E+03  0.00000000000E+00 0. -1.
          2    1    1    2  501    0 -0.19080379631E+02 -0.29451728967E+02 -0.43069315389E+02  0.55555658165E+02  0.00000000000E+00 0. -1.
          1    1    1    2  502    0  0.19080379631E+02  0.29451728967E+02 -0.21027525683E+03  0.21318336910E+03  0.00000000000E+00 0. -1.
</event>
<event>
 4    1  0.3664744E+003  0.3288365E+02  0.7546771E-02  0.1396085E+00
          2   -1    0    0  502    0  0.00000000000E+00  0.00000000000E+00  0.44710503235E+03  0.44710503235E+03  0.00000000000E+00 0.  1.
          1   -1    0    0  501    0 -0.00000000000E+00 -0.00000000000E+00 -0.35933124457E+02  0.35933124457E+02  0.00000000000E+00 0.  1.
          2    1    1    2  501    0  0.32535202603E+02 -0.47743839441E+01  0.43883559101E+03  0.44006591561E+03  0.00000000000E+00 0.  1.
          1    1    1    2  502    0 -0.32535202603E+02  0.47743839441E+01 -0.27663683109E+02  0.42972241198E+02  0.00000000000E+00 0.  1.
</event>
<event>
 4    1  0.3664744E+003  0.2031366E+02  0.7546771E-02  0.1529294E+00
          2   -1    0    0  502    0  0.00000000000E+00  0.00000000000E+00  0.68757309009E+01  0.68757309009E+01  0.00000000000E+00 0. -1.
          1   -1    0    0  501    0 -0.00000000000E+00 -0.00000000000E+00 -0.99260020003E+02  0.99260020003E+02  0.00000000000E+00 0. -1.
          2    1    1    2  501    0  0.10725668744E+02 -0.17251230615E+02 -0.12823508207E+02  0.24022641205E+02  0.00000000000E+00 0. -1.
          1    1    1    2  502    0 -0.10725668744E+02  0.17251230615E+02 -0.79560780896E+02  0.82113109699E+02  0.00000000000E+00 0. -1.
</event>
<event>
 4    1  0.3664744E+003  0.2951952E+02  0.7546771E-02  0.1423818E+00
          2   -1    0    0  502    0  0.00000000000E+00  0.00000000000E+00  0.54599063033E+03  0.54599063033E+03  0.00000000000E+00 0.  1.
          1   -1    0    0  501    0 -0.00000000000E+00 -0.00000000000E+00 -0.51834553638E+03  0.51834553638E+03  0.00000000000E+00 0.  1.
          2    1    1    2  501    0 -0.17384184280E+02 -0.23857745350E+02  0.54517071793E+03  0.54596933391E+03  0.00000000000E+00 0.  1.
          1    1    1    2  502    0  0.17384184280E+02  0.23857745350E+02 -0.51752562398E+03  0.51836683281E+03  0.00000000000E+00 0.  1.
</event>
<event>
 4    1  0.3664744E+003  0.5195742E+02  0.7546771E-02  0.1289902E+00
          2   -1    0    0  502    0  0.00000000000E+00  0.00000000000E+00  0.85406848757E+01  0.85406848757E+01  0.00000000000E+00 0.  1.
          1   -1    0    0  501    0 -0.00000000000E+00 -0.00000000000E+00 -0.62575941770E+03  0.62575941770E+03  0.00000000000E+00 0.  1.
          2    1    1    2  501    0  0.15161661665E+02 -0.49696051573E+02 -0.85501706873E+02  0.10005056424E+03  0.00000000000E+00 0.  1.
          1    1    1    2  502    0 -0.15161661665E+02  0.49696051573E+02 -0.53171702595E+03  0.53424953834E+03  0.00000000000E+00 0.  1.
</event>
<event>
 4    1  0.3664744E+003  0.2932525E+02  0.7546771E-02  0.1425552E+00
          2   -1    0    0  502    0  0.00000000000E+00  0.00000000000E+00  0.17335898497E+02  0.17335898497E+02  0.00000000000E+00 0.  1.
          1   -1    0    0  501    0 -0.00000000000E+00 -0.00000000000E+00 -0.87657774818E+02  0.87657774818E+02  0.00000000000E+00 0. -1.
          2    1    1    2  501    0 -0.25537861693E+02  0.14414859043E+02 -0.57310060413E+00  0.29330853813E+02  0.00000000000E+00 0.  1.
          1    1    1    2  502    0  0.25537861693E+02 -0.14414859043E+02 -0.69748775717E+02  0.75662819502E+02  0.00000000000E+00 0. -1.
</event>
<event>
 4    1  0.3664744E+003  0.3827083E+02  0.7546771E-02  0.1358928E+00
          2   -1    0    0  502    0  0.00000000000E+00  0.00000000000E+00  0.12372704623E+03  0.12372704623E+03  0.00000000000E+00 0. -1.
          1   -1    0    0  501    0 -0.00000000000E+00 -0.00000000000E+00 -0.20635037209E+02  0.20635037209E+02  0.00000000000E+00 0. -1.
          2    1    1    2  501    0  0.22465666121E+02 -0.30983060893E+02  0.98675591177E+02  0.10583727373E+03  0.00000000000E+00 0. -1.
          1    1    1    2  502    0 -0.22465666121E+02  0.30983060893E+02  0.44164178456E+01  0.38524809710E+02  0.00000000000E+00 0. -1.
</event>
<event>
 4    1  0.3664744E+003  0.2434056E+02  0.7546771E-02  0.1476317E+00
          2   -1    0    0  502    0  0.00000000000E+00  0.00000000000E+00  0.30675589042E+02  0.30675589042E+02  0.00000000000E+00 0. -1.
          1   -1    0    0  501    0 -0.00000000000E+00 -0.00000000000E+00 -0.33131053900E+03  0.33131053900E+03  0.00000000000E+00 0.  1.
          2    1    1    2  501    0 -0.25946455918E+01 -0.24201872889E+02  0.25320863261E+02  0.35122769728E+02  0.00000000000E+00 0. -1.
          1    1    1    2  502    0  0.25946455918E+01  0.24201872889E+02 -0.32595581322E+03  0.32686335832E+03  0.00000000000E+00 0.  1.
</event>
<event>
 4    1  0.3664744E+003  0.2307345E+02  0.7546771E-02  0.1491578E+00
          2   -1    0    0  502    0  0.00000000000E+00  0.00000000000E+00  0.26702598619E+03  0.26702598619E+03  0.00000000000E+00 0.  1.
          1   -1    0    0  501    0 -0.00000000000E+00 -0.00000000000E+00 -0.98698816629E+01  0.98698816629E+01  0.00000000000E+00 0. -1.
          2    1    1    2  501    0  0.21470943461E+02 -0.84488181487E+01  0.25225447044E+03  0.25330752417E+03  0.00000000000E+00 0.  1.
          1    1    1    2  502    0 -0.21470943461E+02  0.84488181487E+01  0.49016340856E+01  0.23588343687E+02  0.00000000000E+00 0. -1.
</event>
<event>
 4    1  0.3664744E+003  0.3542499E+02  0.7546771E-02  0.1377600E+00
          2   -1    0    0  502    0  0.00000000000E+00  0.00000000000E+00  0.69890092851E+03  0.69890092851E+03  0.00000000000E+00 0. -1.
          1   -1    0    0  501    0 -0.00000000000E+00 -0.00000000000E+00 -0.33761091668E+02  0.33761091668E+02  0.00000000000E+00 0. -1.
          2    1    1    2  501    0  0.33997093694E+02 -0.99562890729E+01  0.68902622023E+03  0.68993627404E+03  0.00000000000E+00 0. -1.
          1    1    1    2  502    0 -0.33997093694E+02  0.99562890729E+01 -0.23886383387E+02  0.42725746138E+02  0.00000000000E+00 0. -1.
</event>
<event>
 4    1  0.3664744E+003  0.2745527E+02  0.7546771E-02  0.1443088E+00
          2   -1    0    0  502    0  0.00000000000E+00  0.00000000000E+00  0.84583898503E+02  0.84583898503E+02  0.00000000000E+00 0. -1.
          1   -1    0    0  501    0 -0.00000000000E+00 -0.00000000000E+00 -0.17476102226E+02  0.17476102226E+02  0.00000000000E+00 0. -1.
          2    1    1    2  501    0 -0.26984484766E+02 -0.50625266419E+01  0.69277088067E+02  0.74519168843E+02  0.00000000000E+00 0. -1.
          1    1    1    2  502    0  0.26984484766E+02  0.50625266419E+01 -0.21692917898E+01  0.27540831885E+02  0.00000000000E+00 0. -1.
</event>
<event>
 4    1  0.3664744E+003  0.3288190E+02  0.7546771E-02  0.1396099E+00
          2   -1    0    0  502    0  0.00000000000E+00  0.00000000000E+00  0.59362076454E+03  0.59362076454E+03  0.00000000000E+00 0.  1.
          1   -1    0    0  501    0 -0.00000000000E+00 -0.00000000000E+00 -0.15613671940E+03  0.15613671940E+03  0.00000000000E+00 0.  1.
          2    1    1    2  501    0 -0.17308232880E+02  0.27957899613E+02  0.59142779543E+03  0.59234116545E+03  0.00000000000E+00 0.  1.
          1    1    1    2  502    0  0.17308232880E+02 -0.27957899613E+02 -0.15394375029E+03  0.15741631850E+03  0.00000000000E+00 0.  1.
</event>
<event>
 4    1  0.3664744E+003  0.3015006E+02  0.7546771E-02  0.1418297E+00
          2   -1    0    0  502    0  0.00000000000E+00  0.00000000000E+00  0.88695018918E+03  0.88695018918E+03  0.00000000000E+00 0.  1.
          1   -1    0    0  501    0 -0.00000000000E+00 -0.00000000000E+00 -0.64615708395E+01  0.64615708395E+01  0.00000000000E+00 0. -1.
          2    1    1    2  501    0 -0.62788298394E+01 -0.29489026712E+02  0.84999484717E+03  0.85052940373E+03  0.00000000000E+00 0.  1.
          1    1    1    2  502    0  0.62788298394E+01  0.29489026712E+02  0.30493771178E+02  0.42882356293E+02  0.00000000000E+00 0. -1.
</event>
<event>
 4    1  0.3664744E+003  0.2142767E+02  0.7546771E-02  0.1513246E+00
          2   -1    0    0  502    0  0.00000000000E+00  0.00000000000E+00  0.11479624467E+04  0.11479624467E+04  0.00000000000E+00 0.  1.
          1   -1    0    0  501    0 -0.00000000000E+00 -0.00000000000E+00 -0.12339243612E+03  0.12339243612E+03  0.00000000000E+00 0. -1.
          2    1    1    2  501    0 -0.13769989128E+01 -0.21383384199E+02  0.11469313651E+04  0.11471315102E+04  0.00000000000E+00 0.  1.
          1    1    1    2  502    0  0.13769989128E+01  0.21383384199E+02 -0.12236135452E+03  0.12422337270E+03  0.00000000000E+00 0. -1.
</event>
<event>
 4    1  0.3664744E+003  0.3387188E+02  0.7546771E-02  0.1388672E+00
          2   -1    0    0  502    0  0.00000000000E+00  0.00000000000E+00  0.57944172831E+02  0.57944172831E+02  0.00000000000E+00 0. -1.
          1   -1    0    0  501    0 -0.00000000000E+00 -0.00000000000E+00 -0.12034102844E+04  0.12034102844E+04  0.00000000000E+00 0. -1.
          2    1    1    2  501    0 -0.18254976548E+02 -0.28531734289E+02  0.52734268908E+02  0.62675411028E+02  0.00000000000E+00 0. -1.
          1    1    1    2  502    0  0.18254976548E+02  0.28531734289E+02 -0.11982003805E+04  0.11986790462E+04  0.00000000000E+00 0. -1.
</event>
<event>
 4    1  0.3664744E+003  0.1284494E+03  0.7546771E-02  0.1122009E+00
          2   -1    0    0  502    0  0.00000000000E+00  0.00000000000E+00  0.14522686827E+04  0.14522686827E+04  0.00000000000E+00 0.  1.
          1   -1    0    0  501    0 -0.00000000000E+00 -0.00000000000E+00 -0.84111375723E+03  0.84111375723E+03  0.00000000000E+00 0.  1.
          2    1    1    2  501    0  0.22346937334E+02  0.12649052609E+03  0.14444981161E+04  0.14501979334E+04  0.00000000000E+00 0.  1.
          1    1    1    2  502    0 -0.22346937334E+02 -0.12649052609E+03 -0.83334319056E+03  0.84318450653E+03  0.00000000000E+00 0.  1.
</event>
<event>
 4    1  0.3664744E+003  0.2569155E+02  0.7546771E-02  0.1461214E+00
          2   -1    0    0  502    0  0.00000000000E+00  0.00000000000E+00  0.20290080234E+02  0.20290080234E+02  0.00000000000E+00 0. -1.
          1   -1    0    0  501    0 -0.00000000000E+00 -0.00000000000E+00 -0.40591475245E+03  0.40591475245E+03  0.00000000000E+00 0.  1.
          2    1    1    2  501    0 -0.47333994138E+01  0.25251750762E+02  0.11572505118E+02  0.28177630512E+02  0.00000000000E+00 0. -1.
          1    1    1    2  502    0  0.47333994138E+01 -0.25251750762E+02 -0.39719717733E+03  0.39802720217E+03  0.00000000000E+00 0.  1.
</event>
<event>
 4    1  0.3664744E+003  0.2221776E+02  0.7546771E-02  0.1502561E+00
          2   -1    0    0  502    0  0.00000000000E+00  0.00000000000E+00  0.11893949536E+02  0.11893949536E+02  0.00000000000E+00 0.  1.
          1   -1    0    0  501    0 -0.00000000000E+00 -0.00000000000E+00 -0.91192094672E+02  0.91192094672E+02  0.00000000000E+00 0.  1.
          2    1    1    2  501    0 -0.30004232492E+00  0.22215733330E+02 -0.16017640961E+01  0.22275423251E+02  0.00000000000E+00 0.  1.
          1    1    1    2  502    0  0.30004232492E+00 -0.22215733330E+02 -0.77696381039E+02  0.80810620957E+02  0.00000000000E+00 0.  1.
</event>
<event>
 4    1  0.3664744E+003  0.2625662E+02  0.7546771E-02  0.1455222E+00
          2   -1    0    0  502    0  0.00000000000E+00  0.00000000000E+00  0.29910329957E+03  0.29910329957E+03  0.00000000000E+00 0. -1.
          1   -1    0    0  501    0 -0.00000000000E+00 -0.00000000000E+00 -0.42373751182E+01  0.42373751182E+01  0.00000000000E+00 0. -1.
          2    1    1    2  501    0  0.14748347477E+01  0.26215150270E+02  0.45007748063E+02  0.52106685050E+02  0.00000000000E+00 0. -1.
          1    1    1    2  502    0 -0.14748347477E+01 -0.26215150270E+02  0.24985817639E+03  0.25123398964E+03  0.00000000000E+00 0. -1.
</event>
<event>
 4    1  0.3664744E+003  0.6705119E+02  0.7546771E-02  0.1237590E+00
          2   -1    0    0  502    0  0.00000000000E+00  0.00000000000E+00  0.13604555924E+02  0.13604555924E+02  0.00000000000E+00 0. -1.
          1   -1    0    0  501    0 -0.00000000000E+00 -0.00000000000E+00 -0.18021331038E+04  0.18021331038E+04  0.00000000000E+00 0.  1.
          2    1    1    2  501    0 -0.45731040302E+01  0.66895054418E+02 -0.73848003203E+02  0.99746624821E+02  0.00000000000E+00 0. -1.
          1    1    1    2  502    0  0.45731040302E+01 -0.66895054418E+02 -0.17146805447E+04  0.17159910349E+04  0.00000000000E+00 0.  1.
</event>
<event>
 4    1  0.3664744E+003  0.3245280E+02  0.7546771E-02  0.1399413E+00
          2   -1    0    0  502    0  0.00000000000E+00  0.00000000000E+00  0.14888985624E+03  0.14888985624E+03  0.00000000000E+00 0. -1.
          1   -1    0    0  501    0 -0.00000000000E+00 -0.00000000000E+00 -0.18886111108E+02  0.18886111108E+02  0.00000000000E+00 0. -1.
          2    1    1    2  501    0  0.60525412014E+01  0.31883401025E+02  0.13134561141E+03  0.13529543286E+03  0.00000000000E+00 0. -1.
          1    1    1    2  502    0 -0.60525412014E+01 -0.31883401025E+02 -0.13418662726E+01  0.32480534494E+02  0.00000000000E+00 0. -1.
</event>
<event>
 4    1  0.3664744E+003  0.2038117E+02  0.7546771E-02  0.1528286E+00
          2   -1    0    0  502    0  0.00000000000E+00  0.00000000000E+00  0.12384512971E+04  0.12384512971E+04  0.00000000000E+00 0. -1.
          1   -1    0    0  501    0 -0.00000000000E+00 -0.00000000000E+00 -0.44743529373E+00  0.44743529373E+00  0.00000000000E+00 0. -1.
          2    1    1    2  501    0  0.74574019633E+01 -0.18967843736E+02  0.92895365666E+03  0.92917721032E+03  0.00000000000E+00 0. -1.
          1    1    1    2  502    0 -0.74574019633E+01  0.18967843736E+02  0.30905020512E+03  0.30972152206E+03  0.00000000000E+00 0. -1.
</event>
<event>
 4    1  0.3664744E+003  0.3386062E+02  0.7546771E-02  0.1388755E+00
          2   -1    0    0  502    0  0.00000000000E+00  0.00000000000E+00  0.17152070739E+04  0.17152070739E+04  0.00000000000E+00 0. -1.
          1   -1    0    0  501    0 -0.00000000000E+00 -0.00000000000E+00 -0.96577561222E+00  0.96577561222E+00  0.00000000000E+00 0. -1.
          2    1    1    2  501    0 -0.29038988035E+02 -0.17414898914E+02  0.13332272877E+04  0.13336572057E+04  0.00000000000E+00 0. -1.
          1    1    1    2  502    0  0.29038988035E+02  0.17414898914E+02  0.38101401050E+03  0.38251564377E+03  0.00000000000E+00 0. -1.
</event>
<event>
 4    1  0.3664744E+003  0.3641061E+02  0.7546771E-02  0.1370908E+00
          2   -1    0    0  502    0  0.00000000000E+00  0.00000000000E+00  0.25516910394E+02  0.25516910394E+02  0.00000000000E+00 0.  1.
          1   -1    0    0  501    0 -0.00000000000E+00 -0.00000000000E+00 -0.63344480703E+02  0.63344480703E+02  0.00000000000E+00 0.  1.
          2    1    1    2  501    0 -0.20226551165E+02 -0.30275721488E+02 -0.73846473680E-01  0.36410687125E+02  0.00000000000E+00 0.  1.
          1    1    1    2  502    0  0.20226551165E+02  0.30275721488E+02 -0.37753723836E+02  0.52450703972E+02  0.00000000000E+00 0.  1.
</event>
<event>
 4    1  0.3664744E+003  0.3897403E+02  0.7546771E-02  0.1354605E+00
          2   -1    0    0  502    0  0.00000000000E+00  0.00000000000E+00  0.75451895718E+03  0.75451895718E+03  0.00000000000E+00 0.  1.
          1   -1    0    0  501    0 -0.00000000000E+00 -0.00000000000E+00 -0.28891125541E+03  0.28891125541E+03  0.00000000000E+00 0.  1.
          2    1    1    2  501    0  0.28030062862E+02 -0.27079339997E+02  0.75269809118E+03  0.75370643592E+03  0.00000000000E+00 0.  1.
          1    1    1    2  502    0 -0.28030062862E+02  0.27079339997E+02 -0.28709038941E+03  0.28972377667E+03  0.00000000000E+00 0.  1.
</event>
<event>
 4    1  0.3664744E+003  0.2723090E+02  0.7546771E-02  0.1445302E+00
          2   -1    0    0  502    0  0.00000000000E+00  0.00000000000E+00  0.30301607306E+03  0.30301607306E+03  0.00000000000E+00 0. -1.
          1   -1    0    0  501    0 -0.00000000000E+00 -0.00000000000E+00 -0.26058423680E+02  0.26058423680E+02  0.00000000000E+00 0.  1.
          2    1    1    2  501    0 -0.14473258931E+02  0.23066142399E+02  0.29509981928E+03  0.29635354813E+03  0.00000000000E+00 0. -1.
          1    1    1    2  502    0  0.14473258931E+02 -0.23066142399E+02 -0.18142169901E+02  0.32720948610E+02  0.00000000000E+00 0.  1.
</event>
<event>
 4    1  0.3664744E+003  0.2252645E+02  0.7546771E-02  0.1498532E+00
          2   -1    0    0  502    0  0.00000000000E+00  0.00000000000E+00  0.99736673623E+03  0.99736673623E+03  0.00000000000E+00 0.  1.
          1   -1    0    0  501    0 -0.00000000000E+00 -0.00000000000E+00 -0.47582734428E+01  0.47582734428E+01  0.00000000000E+00 0. -1.
          2    1    1    2  501    0  0.11667546083E+02  0.19269385066E+02  0.96982143144E+03  0.97008301177E+03  0.00000000000E+00 0.  1.
          1    1    1    2  502    0 -0.11667546083E+02 -0.19269385066E+02  0.22787031350E+02  0.32041997911E+02  0.00000000000E+00 0. -1.
</event>
<event>
 4    1  0.3664744E+003  0.2220379E+02  0.7546771E-02  0.1502746E+00
          2   -1    0    0  502    0  0.00000000000E+00  0.00000000000E+00  0.10204309329E+01  0.10204309329E+01  0.00000000000E+00 0.  1.
          1   -1    0    0  501    0 -0.00000000000E+00 -0.00000000000E+00 -0.68137947765E+03  0.68137947765E+03  0.00000000000E+00 0.  1.
          2    1    1    2  501    0  0.17087300681E+02  0.14178583287E+02 -0.15613933890E+03  0.15771018110E+03  0.00000000000E+00 0.  1.
          1    1    1    2  502    0 -0.17087300681E+02 -0.14178583287E+02 -0.52421970782E+03  0.52468972749E+03  0.00000000000E+00 0.  1.
</event>
<event>
 4    1  0.3664744E+003  0.2064289E+02  0.7546771E-02  0.1524425E+00
          2   -1    0    0  502    0  0.00000000000E+00  0.00000000000E+00  0.27037687799E+02  0.27037687799E+02  0.00000000000E+00 0.  1.
          1   -1    0    0  501    0 -0.00000000000E+00 -0.00000000000E+00 -0.95953745292E+02  0.95953745292E+02  0.00000000000E+00 0.  1.
          2    1    1    2  501    0  0.20027979435E+02 -0.50008998663E+01  0.21760910503E+02  0.29994435911E+02  0.00000000000E+00 0.  1.
          1    1    1    2  502    0 -0.20027979435E+02  0.50008998663E+01 -0.90676967995E+02  0.92996997180E+02  0.00000000000E+00 0.  1.
</event>
<event>
 4    1  0.3664744E+003  0.2611335E+02  0.7546771E-02  0.1456724E+00
          2   -1    0    0  502    0  0.00000000000E+00  0.00000000000E+00  0.29778178981E+02  0.29778178981E+02  0.00000000000E+00 0. -1.
          1   -1    0    0  501    0 -0.00000000000E+00 -0.00000000000E+00 -0.94966483086E+03  0.94966483086E+03  0.00000000000E+00 0. -1.
          2    1    1    2  501    0  0.24639557942E+02  0.86486615921E+01  0.23837747289E+02  0.35357394683E+02  0.00000000000E+00 0. -1.
          1    1    1    2  502    0 -0.24639557942E+02 -0.86486615921E+01 -0.94372439917E+03  0.94408561516E+03  0.00000000000E+00 0. -1.
</event>
<event>
 4    1  0.3664744E+003  0.3005685E+02  0.7546771E-02  0.1419103E+00
          2   -1    0    0  502    0  0.00000000000E+00  0.00000000000E+00  0.40439207781E+03  0.40439207781E+03  0.00000000000E+00 0.  1.
          1   -1    0    0  501    0 -0.00000000000E+00 -0.00000000000E+00 -0.22765521733E+01  0.22765521733E+01  0.00000000000E+00 0.  1.
          2    1    1    2  501    0  0.10574603928E+02 -0.28135226470E+02  0.17325959628E+03  0.17584737962E+03  0.00000000000E+00 0.  1.
          1    1    1    2  502    0 -0.10574603928E+02  0.28135226470E+02  0.22885592936E+03  0.23082125036E+03  0.00000000000E+00 0.  1.
</event>
<event>
 4    1  0.3664744E+003  0.6988774E+02  0.7546771E-02  0.1229495E+00
          2   -1    0    0  502    0  0.00000000000E+00  0.00000000000E+00  0.94445410806E+01  0.94445410806E+01  0.00000000000E+00 0.  1.
          1   -1    0    0  501    0 -0.00000000000E+00 -0.00000000000E+00 -0.55703805894E+03  0.55703805894E+03  0.00000000000E+00 0.  1.
          2    1    1    2  501    0  0.63911684176E+02 -0.28276978129E+02 -0.34958622060E+03  0.35650359956E+03  0.00000000000E+00 0.  1.
          1    1    1    2  502    0 -0.63911684176E+02  0.28276978129E+02 -0.19800729726E+03  0.20997900046E+03  0.00000000000E+00 0.  1.
</event>
<event>
 4    1  0.3664744E+003  0.2352473E+02  0.7546771E-02  0.1486012E+00
          2   -1    0    0  502    0  0.00000000000E+00  0.00000000000E+00  0.28207316561E+03  0.28207316561E+03  0.00000000000E+00 0. -1.
          1   -1    0    0  501    0 -0.00000000000E+00 -0.00000000000E+00 -0.56992613042E+03  0.56992613042E+03  0.00000000000E+00 0.  1.
          2    1    1    2  501    0  0.13619042802E+02  0.19181615763E+02  0.28133929030E+03  0.28232110969E+03  0.00000000000E+00 0. -1.
          1    1    1    2  502    0 -0.13619042802E+02 -0.19181615763E+02 -0.56919225511E+03  0.56967818634E+03  0.00000000000E+00 0.  1.
</event>
<event>
 4    1  0.3664744E+003  0.2824325E+02  0.7546771E-02  0.1435504E+00
          2   -1    0    0  502    0  0.00000000000E+00  0.00000000000E+00  0.93100428159E+03  0.93100428159E+03  0.00000000000E+00 0. -1.
          1   -1    0    0  501    0 -0.00000000000E+00 -0.00000000000E+00 -0.11602290214E+01  0.11602290214E+01  0.00000000000E+00 0. -1.
          2    1    1    2  501    0  0.26770505645E+02 -0.90011797516E+01  0.70327565602E+03  0.70384254600E+03  0.00000000000E+00 0. -1.
          1    1    1    2  502    0 -0.26770505645E+02  0.90011797516E+01  0.22656839654E+03  0.22832196460E+03  0.00000000000E+00 0. -1.
</event>
<event>
 4    1  0.3664744E+003  0.2512950E+02  0.7546771E-02  0.1467360E+00
          2   -1    0    0  502    0  0.00000000000E+00  0.00000000000E+00  0.31932848402E+02  0.31932848402E+02  0.00000000000E+00 0.  1.
          1   -1    0    0  501    0 -0.00000000000E+00 -0.00000000000E+00 -0.36162519821E+02  0.36162519821E+02  0.00000000000E+00 0.  1.
          2    1    1    2  501    0  0.17299606276E+02 -0.18226773540E+02  0.20804748102E+02  0.32624058524E+02  0.00000000000E+00 0.  1.
          1    1    1    2  502    0 -0.17299606276E+02  0.18226773540E+02 -0.25034419522E+02  0.35471309699E+02  0.00000000000E+00 0.  1.
</event>
<event>
 4    1  0.3664744E+003  0.2402427E+02  0.7546771E-02  0.1480022E+00
          2   -1    0    0  502    0  0.00000000000E+00  0.00000000000E+00  0.29039227161E+02  0.29039227161E+02  0.00000000000E+00 0. -1.
          1   -1    0    0  501    0 -0.00000000000E+00 -0.00000000000E+00 -0.76017333326E+03  0.76017333326E+03  0.00000000000E+00 0. -1.
          2    1    1    2  501    0 -0.23478549944E+02  0.50914879041E+01  0.23846401860E+02  0.33849910461E+02  0.00000000000E+00 0. -1.
          1    1    1    2  502    0  0.23478549944E+02 -0.50914879041E+01 -0.75498050795E+03  0.75536264996E+03  0.00000000000E+00 0. -1.
</event>
<event>
 4    1  0.3664744E+003  0.2204004E+02  0.7546771E-02  0.1504917E+00
          2   -1    0    0  502    0  0.00000000000E+00  0.00000000000E+00  0.70825360779E+03  0.70825360779E+03  0.00000000000E+00 0.  1.
          1   -1    0    0  501    0 -0.00000000000E+00 -0.00000000000E+00 -0.15813149702E+01  0.15813149702E+01  0.00000000000E+00 0. -1.
          2    1    1    2  501    0  0.12535544633E+02 -0.18127975212E+02  0.62041522195E+03  0.62080658098E+03  0.00000000000E+00 0.  1.
          1    1    1    2  502    0 -0.12535544633E+02  0.18127975212E+02  0.86257070865E+02  0.89028341772E+02  0.00000000000E+00 0. -1.
</event>
<event>
 4    1  0.3664744E+003  0.2096646E+02  0.7546771E-02  0.1519744E+00
          2   -1    0    0  502    0  0.00000000000E+00  0.00000000000E+00  0.65028963336E+02  0.65028963336E+02  0.00000000000E+00 0.  1.
          1   -1    0    0  501    0 -0.00000000000E+00 -0.00000000000E+00 -0.71910579787E+02  0.71910579787E+02  0.00000000000E+00 0. -1.
          2    1    1    2  501    0  0.18770305943E+02 -0.93417457394E+01  0.61731302981E+02  0.65194680507E+02  0.00000000000E+00 0.  1.
          1    1    1    2  502    0 -0.18770305943E+02  0.93417457394E+01 -0.68612919432E+02  0.71744862615E+02  0.00000000000E+00 0. -1.
</event>
<event>
 4    1  0.3664744E+003  0.2642371E+02  0.7546771E-02  0.1453485E+00
          2   -1    0    0  502    0  0.00000000000E+00  0.00000000000E+00  0.33690517520E+02  0.33690517520E+02  0.00000000000E+00 0.  1.
          1   -1    0    0  501    0 -0.00000000000E+00 -0.00000000000E+00 -0.22913563584E+02  0.22913563584E+02  0.00000000000E+00 0.  1.
          2    1    1    2  501    0 -0.24553543453E+02 -0.97639713100E+01 -0.33598034493E+01  0.26636439535E+02  0.00000000000E+00 0.  1.
          1    1    1    2  502    0  0.24553543453E+02  0.97639713100E+01  0.14136757385E+02  0.29967641569E+02  0.00000000000E+00 0.  1.
</event>
<event>
 4    1  0.3664744E+003  0.2916680E+02  0.7546771E-02  0.1426978E+00
          2   -1    0    0  502    0  0.00000000000E+00  0.00000000000E+00  0.20007763605E+03  0.20007763605E+03  0.00000000000E+00 0. -1.
          1   -1    0    0  501    0 -0.00000000000E+00 -0.00000000000E+00 -0.74907256186E+02  0.74907256186E+02  0.00000000000E+00 0. -1.
          2    1    1    2  501    0 -0.19964184972E+02 -0.21263429133E+02  0.19611848377E+03  0.19827546943E+03  0.00000000000E+00 0. -1.
          1    1    1    2  502    0  0.19964184972E+02  0.21263429133E+02 -0.70948103906E+02  0.76709422811E+02  0.00000000000E+00 0. -1.
</event>
<event>
 4    1  0.3664744E+003  0.2206850E+02  0.7546771E-02  0.1504538E+00
          2   -1    0    0  502    0  0.00000000000E+00  0.00000000000E+00  0.85634950539E+01  0.85634950539E+01  0.00000000000E+00 0. -1.
          1   -1    0    0  501    0 -0.00000000000E+00 -0.00000000000E+00 -0.31300341182E+03  0.31300341182E+03  0.00000000000E+00 0. -1.
          2    1    1    2  501    0  0.18808116638E+02 -0.11544416031E+02 -0.67750025934E+01  0.23085048259E+02  0.00000000000E+00 0. -1.
          1    1    1    2  502    0 -0.18808116638E+02  0.11544416031E+02 -0.29766491417E+03  0.29848185861E+03  0.00000000000E+00 0. -1.
</event>
<event>
 4    1  0.3664744E+003  0.2211085E+02  0.7546771E-02  0.1503976E+00
          2   -1    0    0  502    0  0.00000000000E+00  0.00000000000E+00  0.43024713231E+03  0.43024713231E+03  0.00000000000E+00 0.  1.
          1   -1    0    0  501    0 -0.00000000000E+00 -0.00000000000E+00 -0.11826507277E+01  0.11826507277E+01  0.00000000000E+00 0.  1.
          2    1    1    2  501    0 -0.21700660862E+02 -0.42392451710E+01  0.25723731152E+03  0.25818583292E+03  0.00000000000E+00 0.  1.
          1    1    1    2  502    0  0.21700660862E+02  0.42392451710E+01  0.17182717006E+03  0.17324395012E+03  0.00000000000E+00 0.  1.
</event>
<event>
 4    1  0.3664744E+003  0.4888795E+02  0.7546771E-02  0.1303067E+00
          2   -1    0    0  502    0  0.00000000000E+00  0.00000000000E+00  0.39749448058E+03  0.39749448058E+03  0.00000000000E+00 0.  1.
          1   -1    0    0  501    0 -0.00000000000E+00 -0.00000000000E+00 -0.16559354178E+03  0.16559354178E+03  0.00000000000E+00 0. -1.
          2    1    1    2  501    0 -0.38328842315E+02 -0.30346855708E+02  0.39233575288E+03  0.39536992146E+03  0.00000000000E+00 0.  1.
          1    1    1    2  502    0  0.38328842315E+02  0.30346855708E+02 -0.16043481407E+03  0.16771810091E+03  0.00000000000E+00 0. -1.
</event>
<event>
 4    1  0.3664744E+003  0.2089433E+02  0.7546771E-02  0.1520779E+00
          2   -1    0    0  502    0  0.00000000000E+00  0.00000000000E+00  0.13000774628E+02  0.13000774628E+02  0.00000000000E+00 0.  1.
          1   -1    0    0  501    0 -0.00000000000E+00 -0.00000000000E+00 -0.34578305064E+03  0.34578305064E+03  0.00000000000E+00 0.  1.
          2    1    1    2  501    0  0.20676737592E+02  0.30075749997E+01  0.40675759873E+01  0.21286572276E+02  0.00000000000E+00 0.  1.
          1    1    1    2  502    0 -0.20676737592E+02 -0.30075749997E+01 -0.33684985200E+03  0.33749725300E+03  0.00000000000E+00 0.  1.
</event>
<event>
 4    1  0.3664744E+003  0.2998543E+02  0.7546771E-02  0.1419723E+00
          2   -1    0    0  502    0  0.00000000000E+00  0.00000000000E+00  0.13704763332E+04  0.13704763332E+04  0.00000000000E+00 0.  1.
          1   -1    0    0  501    0 -0.00000000000E+00 -0.00000000000E+00 -0.18799550237E+01  0.18799550237E+01  0.00000000000E+00 0. -1.
          2    1    1    2  501    0 -0.29535927083E+02  0.51725264023E+01  0.12379462344E+04  0.12383093334E+04  0.00000000000E+00 0.  1.
          1    1    1    2  502    0  0.29535927083E+02 -0.51725264023E+01  0.13065014375E+03  0.13404695476E+03  0.00000000000E+00 0. -1.
</event>
<event>
 4    1  0.3664744E+003  0.2157418E+02  0.7546771E-02  0.1511223E+00
          2   -1    0    0  502    0  0.00000000000E+00  0.00000000000E+00  0.65284963021E+01  0.65284963021E+01  0.00000000000E+00 0. -1.
          1   -1    0    0  501    0 -0.00000000000E+00 -0.00000000000E+00 -0.38306469640E+03  0.38306469640E+03  0.00000000000E+00 0.  1.
          2    1    1    2  501    0 -0.18125894669E+01 -0.21497903852E+02 -0.12531324126E+02  0.24949537770E+02  0.00000000000E+00 0. -1.
          1    1    1    2  502    0  0.18125894669E+01  0.21497903852E+02 -0.36400487597E+03  0.36464365493E+03  0.00000000000E+00 0.  1.
</event>
<event>
 4    1  0.3664744E+003  0.3749846E+02  0.7546771E-02  0.1363803E+00
          2   -1    0    0  502    0  0.00000000000E+00  0.00000000000E+00  0.89568193450E+03  0.89568193450E+03  0.00000000000E+00 0. -1.
          1   -1    0    0  501    0 -0.00000000000E+00 -0.00000000000E+00 -0.17919159513E+03  0.17919159513E+03  0.00000000000E+00 0.  1.
          2    1    1    2  501    0  0.30413297326E+02  0.21935486883E+02  0.89332250466E+03  0.89410918325E+03  0.00000000000E+00 0. -1.
          1    1    1    2  502    0 -0.30413297326E+02 -0.21935486883E+02 -0.17683216529E+03  0.18076434637E+03  0.00000000000E+00 0.  1.
</event>
<event>
 4    1  0.3664744E+003  0.2227829E+02  0.7546771E-02  0.1501765E+00
          2   -1    0    0  502    0  0.00000000000E+00  0.00000000000E+00  0.46661135112E+02  0.46661135112E+02  0.00000000000E+00 0.  1.
          1   -1    0    0  501    0 -0.00000000000E+00 -0.00000000000E+00 -0.28066269868E+03  0.28066269868E+03  0.00000000000E+00 0. -1.
          2    1    1    2  501    0  0.13252790935E+01 -0.22238831738E+02  0.43529899822E+02  0.48899633744E+02  0.00000000000E+00 0.  1.
          1    1    1    2  502    0 -0.13252790935E+01  0.22238831738E+02 -0.27753146339E+03  0.27842420005E+03  0.00000000000E+00 0. -1.
</event>
<event>
 4    1  0.3664744E+003  0.1431252E+03  0.7546771E-02  0.1104879E+00
          2   -1    0    0  502    0  0.00000000000E+00  0.00000000000E+00  0.76295397522E+02  0.76295397522E+02  0.00000000000E+00 0. -1.
          1   -1    0    0  501    0 -0.00000000000E+00 -0.00000000000E+00 -0.13300257944E+04  0.13300257944E+04  0.00000000000E+00 0. -1.
          2    1    1    2  501    0  0.65087561272E+02  0.12746937682E+03  0.13248623757E+01  0.14313136595E+03  0.00000000000E+00 0. -1.
          1    1    1    2  502    0 -0.65087561272E+02 -0.12746937682E+03 -0.12550552593E+04  0.12631898260E+04  0.00000000000E+00 0. -1.
</event>
<event>
 4    1  0.3664744E+003  0.3069491E+02  0.7546771E-02  0.1413652E+00
          2   -1    0    0  502    0  0.00000000000E+00  0.00000000000E+00  0.65237708292E+03  0.65237708292E+03  0.00000000000E+00 0.  1.
          1   -1    0    0  501    0 -0.00000000000E+00 -0.00000000000E+00 -0.26747143936E+01  0.26747143936E+01  0.00000000000E+00 0.  1.
          2    1    1    2  501    0 -0.16927313828E+02  0.25605535148E+02  0.54700122295E+03  0.54786176659E+03  0.00000000000E+00 0.  1.
          1    1    1    2  502    0  0.16927313828E+02 -0.25605535148E+02  0.10270114558E+03  0.10719003073E+03  0.00000000000E+00 0.  1.
</event>
<event>
 4    1  0.3664744E+003  0.2202886E+02  0.7546771E-02  0.1505067E+00
          2   -1    0    0  502    0  0.00000000000E+00  0.00000000000E+00  0.95890292769E+03  0.95890292769E+03  0.00000000000E+00 0. -1.
          1   -1    0    0  501    0 -0.00000000000E+00 -0.00000000000E+00 -0.74179103241E+01  0.74179103241E+01  0.00000000000E+00 0. -1.
          2    1    1    2  501    0  0.15040266663E+02 -0.16095378513E+02  0.94213059346E+03  0.94238809732E+03  0.00000000000E+00 0. -1.
          1    1    1    2  502    0 -0.15040266663E+02  0.16095378513E+02  0.93544239091E+01  0.23932740701E+02  0.00000000000E+00 0. -1.
</event>
<event>
 4    1  0.3664744E+003  0.2661330E+02  0.7546771E-02  0.1451532E+00
          2   -1    0    0  502    0  0.00000000000E+00  0.00000000000E+00  0.21689794293E+01  0.21689794293E+01  0.00000000000E+00 0.  1.
          1   -1    0    0  501    0 -0.00000000000E+00 -0.00000000000E+00 -0.43063217509E+03  0.43063217509E+03  0.00000000000E+00 0.  1.
          2    1    1    2  501    0 -0.19849520812E+02  0.17727493045E+02 -0.10784041991E+03  0.11107575636E+03  0.00000000000E+00 0.  1.
          1    1    1    2  502    0  0.19849520812E+02 -0.17727493045E+02 -0.32062277576E+03  0.32172539816E+03  0.00000000000E+00 0.  1.
</event>
<event>
 4    1  0.3664744E+003  0.2791768E+02  0.7546771E-02  0.1438601E+00
          2   -1    0    0  502    0  0.00000000000E+00  0.00000000000E+00  0.27522372638E+02  0.27522372638E+02  0.00000000000E+00 0. -1.
          1   -1    0    0  501    0 -0.00000000000E+00 -0.00000000000E+00 -0.33892038469E+02  0.33892038469E+02  0.00000000000E+00 0. -1.
          2    1    1    2  501    0 -0.26387875303E+02  0.91146440709E+01  0.92675004224E+01  0.29415697571E+02  0.00000000000E+00 0. -1.
          1    1    1    2  502    0  0.26387875303E+02 -0.91146440709E+01 -0.15637166253E+02  0.31998713536E+02  0.00000000000E+00 0. -1.
</event>
<event>
 4    1  0.3664744E+003  0.2627578E+02  0.7546771E-02  0.1455022E+00
          2   -1    0    0  502    0  0.00000000000E+00  0.00000000000E+00  0.87888518769E+02  0.87888518769E+02  0.00000000000E+00 0.  1.
          1   -1    0    0  501    0 -0.00000000000E+00 -0.00000000000E+00 -0.46559620933E+02  0.46559620933E+02  0.00000000000E+00 0. -1.
          2    1    1    2  501    0 -0.81956929383E+01  0.24964915763E+02  0.81955655093E+02  0.86064776787E+02  0.00000000000E+00 0.  1.
          1    1    1    2  502    0  0.81956929383E+01 -0.24964915763E+02 -0.40626757256E+02  0.48383362915E+02  0.00000000000E+00 0. -1.
</event>
<event>
 4    1  0.3664744E+003  0.2043068E+02  0.7546771E-02  0.1527551E+00
          2   -1    0    0  502    0  0.00000000000E+00  0.00000000000E+00  0.17081171091E+02  0.17081171091E+02  0.00000000000E+00 0. -1.
          1   -1    0    0  501    0 -0.00000000000E+00 -0.00000000000E+00 -0.12483080778E+03  0.12483080778E+03  0.00000000000E+00 0.  1.
          2    1    1    2  501    0  0.63847126122E+01 -0.19407428015E+02  0.97580650685E+01  0.22641392431E+02  0.00000000000E+00 0. -1.
          1    1    1    2  502    0 -0.63847126122E+01  0.19407428015E+02 -0.11750770175E+03  0.11927058644E+03  0.00000000000E+00 0.  1.
</event>
<event>
 4    1  0.3664744E+003  0.2108714E+02  0.7546771E-02  0.1518024E+00
          2   -1    0    0  502    0  0.00000000000E+00  0.00000000000E+00  0.13670141587E+04  0.13670141587E+04  0.00000000000E+00 0. -1.
          1   -1    0    0  501    0 -0.00000000000E+00 -0.00000000000E+00 -0.16669087876E+01  0.16669087876E+01  0.00000000000E+00 0. -1.
          2    1    1    2  501    0  0.59790609714E+01 -0.20221731011E+02  0.12966220838E+04  0.12967935440E+04  0.00000000000E+00 0. -1.
          1    1    1    2  502    0 -0.59790609714E+01  0.20221731011E+02  0.68725166095E+02  0.71887523465E+02  0.00000000000E+00 0. -1.
</event>
<event>
 4    1  0.3664744E+003  0.2891580E+02  0.7546771E-02  0.1429258E+00
          2   -1    0    0  502    0  0.00000000000E+00  0.00000000000E+00  0.38905138517E+03  0.38905138517E+03  0.00000000000E+00 0.  1.
          1   -1    0    0  501    0 -0.00000000000E+00 -0.00000000000E+00 -0.11948294810E+02  0.11948294810E+02  0.00000000000E+00 0. -1.
          2    1    1    2  501    0  0.66367599620E+01  0.28143859220E+02  0.37012632126E+03  0.37125411389E+03  0.00000000000E+00 0.  1.
          1    1    1    2  502    0 -0.66367599620E+01 -0.28143859220E+02  0.69767690981E+01  0.29745566083E+02  0.00000000000E+00 0. -1.
</event>
<event>
 4    1  0.3664744E+003  0.2412108E+02  0.7546771E-02  0.1478881E+00
          2   -1    0    0  502    0  0.00000000000E+00  0.00000000000E+00  0.71216360300E+03  0.71216360300E+03  0.00000000000E+00 0. -1.
          1   -1    0    0  501    0 -0.00000000000E+00 -0.00000000000E+00 -0.31128127305E+03  0.31128127305E+03  0.00000000000E+00 0. -1.
          2    1    1    2  501    0 -0.23849969520E+02 -0.36063406454E+01  0.71149163187E+03  0.71190039258E+03  0.00000000000E+00 0. -1.
          1    1    1    2  502    0  0.23849969520E+02  0.36063406454E+01 -0.31060930192E+03  0.31154448346E+03  0.00000000000E+00 0. -1.
</event>
<event>
 4    1  0.3664744E+003  0.2523697E+02  0.7546771E-02  0.1466170E+00
          2   -1    0    0  502    0  0.00000000000E+00  0.00000000000E+00  0.61423497921E+03  0.61423497921E+03  0.00000000000E+00 0.  1.
          1   -1    0    0  501    0 -0.00000000000E+00 -0.00000000000E+00 -0.55098672615E+01  0.55098672615E+01  0.00000000000E+00 0. -1.
          2    1    1    2  501    0  0.10532367913E+02  0.22934116464E+02  0.58355900236E+03  0.58410445445E+03  0.00000000000E+00 0.  1.
          1    1    1    2  502    0 -0.10532367913E+02 -0.22934116464E+02  0.25166109596E+02  0.35640392030E+02  0.00000000000E+00 0. -1.
</event>
<event>
 4    1  0.3664744E+003  0.2446861E+02  0.7546771E-02  0.1474837E+00
          2   -1    0    0  502    0  0.00000000000E+00  0.00000000000E+00  0.35164948175E+02  0.35164948175E+02  0.00000000000E+00 0.  1.
          1   -1    0    0  501    0 -0.00000000000E+00 -0.00000000000E+00 -0.14818438352E+03  0.14818438352E+03  0.00000000000E+00 0.  1.
          2    1    1    2  501    0  0.66282434640E+01  0.23553755481E+02  0.29737759171E+02  0.38510353533E+02  0.00000000000E+00 0.  1.
          1    1    1    2  502    0 -0.66282434640E+01 -0.23553755481E+02 -0.14275719451E+03  0.14483897816E+03  0.00000000000E+00 0.  1.
</event>
<event>
 4    1  0.3664744E+003  0.2238836E+02  0.7546771E-02  0.1500325E+00
          2   -1    0    0  502    0  0.00000000000E+00  0.00000000000E+00  0.98671992032E+02  0.98671992032E+02  0.00000000000E+00 0.  1.
          1   -1    0    0  501    0 -0.00000000000E+00 -0.00000000000E+00 -0.88235103023E+03  0.88235103023E+03  0.00000000000E+00 0.  1.
          2    1    1    2  501    0  0.27189857465E+00  0.22386707230E+02  0.97257974335E+02  0.99801563922E+02  0.00000000000E+00 0.  1.
          1    1    1    2  502    0 -0.27189857465E+00 -0.22386707230E+02 -0.88093701254E+03  0.88122145834E+03  0.00000000000E+00 0.  1.
</event>
<event>
 4    1  0.3664744E+003  0.2678018E+02  0.7546771E-02  0.1449829E+00
          2   -1    0    0  502    0  0.00000000000E+00  0.00000000000E+00  0.24514837523E+01  0.24514837523E+01  0.00000000000E+00 0. -1.
          1   -1    0    0  501    0 -0.00000000000E+00 -0.00000000000E+00 -0.58890250664E+03  0.58890250664E+03  0.00000000000E+00 0. -1.
          2    1    1    2  501    0 -0.25920812486E+02  0.67297490117E+01 -0.83475886844E+02  0.87666423026E+02  0.00000000000E+00 0. -1.
          1    1    1    2  502    0  0.25920812486E+02 -0.67297490117E+01 -0.50297513604E+03  0.50368756736E+03  0.00000000000E+00 0. -1.
</event>
<event>
 4    1  0.3664744E+003  0.2397068E+02  0.7546771E-02  0.1480656E+00
          2   -1    0    0  502    0  0.00000000000E+00  0.00000000000E+00  0.17043825610E+04  0.17043825610E+04  0.00000000000E+00 0. -1.
          1   -1    0    0  501    0 -0.00000000000E+00 -0.00000000000E+00 -0.36889650729E+02  0.36889650729E+02  0.00000000000E+00 0. -1.
          2    1    1    2  501    0 -0.11728113115E+02 -0.20905618669E+02  0.17003951461E+04  0.17005640965E+04  0.00000000000E+00 0. -1.
          1    1    1    2  502    0  0.11728113115E+02  0.20905618669E+02 -0.32902235770E+02  0.40708115257E+02  0.00000000000E+00 0. -1.
</event>
<event>
 4    1  0.3664744E+003  0.2361119E+02  0.7546771E-02  0.1484963E+00
          2   -1    0    0  502    0  0.00000000000E+00  0.00000000000E+00  0.94649814823E+00  0.94649814823E+00  0.00000000000E+00 0. -1.
          1   -1    0    0  501    0 -0.00000000000E+00 -0.00000000000E+00 -0.88101595113E+03  0.88101595113E+03  0.00000000000E+00 0. -1.
          2    1    1    2  501    0  0.22663073409E+02  0.66237174022E+01 -0.18615348019E+03  0.18764489525E+03  0.00000000000E+00 0. -1.
          1    1    1    2  502    0 -0.22663073409E+02 -0.66237174022E+01 -0.69391597279E+03  0.69431755402E+03  0.00000000000E+00 0. -1.
</event>
<event>
 4    1  0.3664744E+003  0.2525967E+02  0.7546771E-02  0.1465919E+00
          2   -1    0    0  502    0  0.00000000000E+00  0.00000000000E+00  0.13535200139E+04  0.13535200139E+04  0.00000000000E+00 0. -1.
          1   -1    0    0  501    0 -0.00000000000E+00 -0.00000000000E+00 -0.41217061297E+02  0.41217061297E+02  0.00000000000E+00 0.  1.
          2    1    1    2  501    0  0.21528951549E+02 -0.13211940424E+02  0.13495206286E+04  0.13497570070E+04  0.00000000000E+00 0. -1.
          1    1    1    2  502    0 -0.21528951549E+02  0.13211940424E+02 -0.37217675981E+02  0.44980068141E+02  0.00000000000E+00 0.  1.
</event>
<event>
 4    1  0.3664744E+003  0.2643582E+02  0.7546771E-02  0.1453359E+00
          2   -1    0    0  502    0  0.00000000000E+00  0.00000000000E+00  0.21344870196E+02  0.21344870196E+02  0.00000000000E+00 0.  1.
          1   -1    0    0  501    0 -0.00000000000E+00 -0.00000000000E+00 -0.86448910836E+02  0.86448910836E+02  0.00000000000E+00 0.  1.
          2    1    1    2  501    0 -0.25709199382E+02 -0.61554631366E+01  0.99297910921E+01  0.28239217595E+02  0.00000000000E+00 0.  1.
          1    1    1    2  502    0  0.25709199382E+02  0.61554631366E+01 -0.75033831732E+02  0.79554563437E+02  0.00000000000E+00 0.  1.
</event>
<event>
 4    1  0.3664744E+003  0.2580692E+02  0.7546771E-02  0.1459975E+00
          2   -1    0    0  502    0  0.00000000000E+00  0.00000000000E+00  0.78557484847E+03  0.78557484847E+03  0.00000000000E+00 0. -1.
          1   -1    0    0  501    0 -0.00000000000E+00 -0.00000000000E+00 -0.10700958597E+01  0.10700958597E+01  0.00000000000E+00 0. -1.
          2    1    1    2  501    0 -0.25225339506E+02  0.54478656452E+01  0.57152737230E+03  0.57210972224E+03  0.00000000000E+00 0. -1.
          1    1    1    2  502    0  0.25225339506E+02 -0.54478656452E+01  0.21297738031E+03  0.21453522209E+03  0.00000000000E+00 0. -1.
</event>
<event>
 4    1  0.3664744E+003  0.4269608E+02  0.7546771E-02  0.1333372E+00
          2   -1    0    0  502    0  0.00000000000E+00  0.00000000000E+00  0.16947079438E+02  0.16947079438E+02  0.00000000000E+00 0. -1.
          1   -1    0    0  501    0 -0.00000000000E+00 -0.00000000000E+00 -0.56217616992E+03  0.56217616992E+03  0.00000000000E+00 0. -1.
          2    1    1    2  501    0 -0.23513501582E+02 -0.35638045350E+02 -0.12224939714E+02  0.44411757272E+02  0.00000000000E+00 0. -1.
          1    1    1    2  502    0  0.23513501582E+02  0.35638045350E+02 -0.53300415077E+03  0.53471149209E+03  0.00000000000E+00 0. -1.
</event>
<event>
 4    1  0.3664744E+003  0.2061482E+02  0.7546771E-02  0.1524836E+00
          2   -1    0    0  502    0  0.00000000000E+00  0.00000000000E+00  0.16708944424E+03  0.16708944424E+03  0.00000000000E+00 0. -1.
          1   -1    0    0  501    0 -0.00000000000E+00 -0.00000000000E+00 -0.36555699365E+02  0.36555699365E+02  0.00000000000E+00 0.  1.
          2    1    1    2  501    0  0.38349819189E+01 -0.20254967694E+02  0.16348342397E+03  0.16477803469E+03  0.00000000000E+00 0. -1.
          1    1    1    2  502    0 -0.38349819189E+01  0.20254967694E+02 -0.32949679099E+02  0.38867108914E+02  0.00000000000E+00 0.  1.
</event>
<event>
 4    1  0.3664744E+003  0.3895704E+02  0.7546771E-02  0.1354708E+00
          2   -1    0    0  502    0  0.00000000000E+00  0.00000000000E+00  0.29003218471E+03  0.29003218471E+03  0.00000000000E+00 0. -1.
          1   -1    0    0  501    0 -0.00000000000E+00 -0.00000000000E+00 -0.55400384727E+01  0.55400384727E+01  0.00000000000E+00 0. -1.
          2    1    1    2  501    0 -0.14694490703E+02 -0.36079396091E+02  0.17705470840E+03  0.18128988015E+03  0.00000000000E+00 0. -1.
          1    1    1    2  502    0  0.14694490703E+02  0.36079396091E+02  0.10743743783E+03  0.11428234303E+03  0.00000000000E+00 0. -1.
</event>
<event>
 4    1  0.3664744E+003  0.2181950E+02  0.7546771E-02  0.1507879E+00
          2   -1    0    0  502    0  0.00000000000E+00  0.00000000000E+00  0.20956322691E+01  0.20956322691E+01  0.00000000000E+00 0. -1.
          1   -1    0    0  501    0 -0.00000000000E+00 -0.00000000000E+00 -0.36337555554E+03  0.36337555554E+03  0.00000000000E+00 0. -1.
          2    1    1    2  501    0 -0.17900160479E+02  0.12476976735E+02 -0.68767551925E+02  0.72146149525E+02  0.00000000000E+00 0. -1.
          1    1    1    2  502    0  0.17900160479E+02 -0.12476976735E+02 -0.29251237134E+03  0.29332503828E+03  0.00000000000E+00 0. -1.
</event>
<event>
 4    1  0.3664744E+003  0.2877895E+02  0.7546771E-02  0.1430513E+00
          2   -1    0    0  502    0  0.00000000000E+00  0.00000000000E+00  0.15202982529E+02  0.15202982529E+02  0.00000000000E+00 0. -1.
          1   -1    0    0  501    0 -0.00000000000E+00 -0.00000000000E+00 -0.18589614125E+03  0.18589614125E+03  0.00000000000E+00 0.  1.
          2    1    1    2  501    0  0.12946281517E+02  0.25702561389E+02 -0.80454801139E+00  0.28790192159E+02  0.00000000000E+00 0. -1.
          1    1    1    2  502    0 -0.12946281517E+02 -0.25702561389E+02 -0.16988861071E+03  0.17230893162E+03  0.00000000000E+00 0.  1.
</event>
<event>
 4    1  0.3664744E+003  0.2001230E+02  0.7546771E-02  0.1533848E+00
          2   -1    0    0  502    0  0.00000000000E+00  0.00000000000E+00  0.73075614837E+03  0.73075614837E+03  0.00000000000E+00 0. -1.
          1   -1    0    0  501    0 -0.00000000000E+00 -0.00000000000E+00 -0.11950289729E+01  0.11950289729E+01  0.00000000000E+00 0.  1.
          2    1    1    2  501    0 -0.15854877675E+02  0.12211269760E+02  0.63406258472E+03  0.63437832056E+03  0.00000000000E+00 0. -1.
          1    1    1    2  502    0  0.15854877675E+02 -0.12211269760E+02  0.95498534680E+02  0.97572856785E+02  0.00000000000E+00 0.  1.
</event>
<event>
 4    1  0.3664744E+003  0.3040686E+02  0.7546771E-02  0.1416093E+00
          2   -1    0    0  502    0  0.00000000000E+00  0.00000000000E+00  0.21151864220E+04  0.21151864220E+04  0.00000000000E+00 0. -1.
          1   -1    0    0  501    0 -0.00000000000E+00 -0.00000000000E+00 -0.44520818867E+00  0.44520818867E+00  0.00000000000E+00 0. -1.
          2    1    1    2  501    0  0.25292648608E+02  0.16877736017E+02  0.91473274628E+03  0.91523798717E+03  0.00000000000E+00 0. -1.
          1    1    1    2  502    0 -0.25292648608E+02 -0.16877736017E+02  0.12000084675E+04  0.12003936430E+04  0.00000000000E+00 0. -1.
</event>
<event>
 4    1  0.3664744E+003  0.2371468E+02  0.7546771E-02  0.1483714E+00
          2   -1    0    0  502    0  0.00000000000E+00  0.00000000000E+00  0.45021250918E+02  0.45021250918E+02  0.00000000000E+00 0.  1.
          1   -1    0    0  501    0 -0.00000000000E+00 -0.00000000000E+00 -0.14802293912E+03  0.14802293912E+03  0.00000000000E+00 0. -1.
          2    1    1    2  501    0  0.12597389523E+02  0.20092085673E+02  0.40858776469E+02  0.47242202997E+02  0.00000000000E+00 0.  1.
          1    1    1    2  502    0 -0.12597389523E+02 -0.20092085673E+02 -0.14386046467E+03  0.14580198704E+03  0.00000000000E+00 0. -1.
</event>
<event>
 4    1  0.3664744E+003  0.3117553E+02  0.7546771E-02  0.1409649E+00
          2   -1    0    0  502    0  0.00000000000E+00  0.00000000000E+00  0.13507411414E+04  0.13507411414E+04  0.00000000000E+00 0. -1.
          1   -1    0    0  501    0 -0.00000000000E+00 -0.00000000000E+00 -0.78667710069E+00  0.78667710069E+00  0.00000000000E+00 0. -1.
          2    1    1    2  501    0 -0.30957379122E+02 -0.36814587482E+01  0.47756339044E+03  0.47857988293E+03  0.00000000000E+00 0. -1.
          1    1    1    2  502    0  0.30957379122E+02  0.36814587482E+01  0.87239107386E+03  0.87294793557E+03  0.00000000000E+00 0. -1.
</event>
<event>
 4    1  0.3664744E+003  0.2004894E+02  0.7546771E-02  0.1533289E+00
          2   -1    0    0  502    0  0.00000000000E+00  0.00000000000E+00  0.45661189362E+03  0.45661189362E+03  0.00000000000E+00 0. -1.
          1   -1    0    0  501    0 -0.00000000000E+00 -0.00000000000E+00 -0.35248369801E+02  0.35248369801E+02  0.00000000000E+00 0.  1.
          2    1    1    2  501    0  0.15126197062E+02 -0.13158953380E+02  0.45352148765E+03  0.45396442554E+03  0.00000000000E+00 0. -1.
          1    1    1    2  502    0 -0.15126197062E+02  0.13158953380E+02 -0.32157963828E+02  0.37895837887E+02  0.00000000000E+00 0.  1.
</event>
<event>
 4    1  0.3664744E+003  0.2203811E+02  0.7546771E-02  0.1504943E+00
          2   -1    0    0  502    0  0.00000000000E+00  0.00000000000E+00  0.12433358160E+02  0.12433358160E+02  0.00000000000E+00 0.  1.
          1   -1    0    0  501    0 -0.00000000000E+00 -0.00000000000E+00 -0.10953908061E+04  0.10953908061E+04  0.00000000000E+00 0.  1.
          2    1    1    2  501    0  0.21493443370E+02  0.48693072402E+01  0.24672264658E+01  0.22175785608E+02  0.00000000000E+00 0.  1.
          1    1    1    2  502    0 -0.21493443370E+02 -0.48693072402E+01 -0.10854246744E+04  0.10856483786E+04  0.00000000000E+00 0.  1.
</event>
<event>
 4    1  0.3664744E+003  0.2053323E+02  0.7546771E-02  0.1526035E+00
          2   -1    0    0  502    0  0.00000000000E+00  0.00000000000E+00  0.84137943596E+03  0.84137943596E+03  0.00000000000E+00 0. -1.
          1   -1    0    0  501    0 -0.00000000000E+00 -0.00000000000E+00 -0.90497009424E+02  0.90497009424E+02  0.00000000000E+00 0. -1.
          2    1    1    2  501    0 -0.13910925290E+02  0.15102974550E+02  0.84008765356E+03  0.84033855043E+03  0.00000000000E+00 0. -1.
          1    1    1    2  502    0  0.13910925290E+02 -0.15102974550E+02 -0.89205227026E+02  0.91537894948E+02  0.00000000000E+00 0. -1.
</event>
<event>
 4    1  0.3664744E+003  0.2352910E+02  0.7546771E-02  0.1485959E+00
          2   -1    0    0  502    0  0.00000000000E+00  0.00000000000E+00  0.14389244378E+04  0.14389244378E+04  0.00000000000E+00 0. -1.
          1   -1    0    0  501    0 -0.00000000000E+00 -0.00000000000E+00 -0.80346349222E+01  0.80346349222E+01  0.00000000000E+00 0. -1.
          2    1    1    2  501    0  0.22961982456E+02  0.51347775434E+01  0.14213897582E+04  0.14215844904E+04  0.00000000000E+00 0. -1.
          1    1    1    2  502    0 -0.22961982456E+02 -0.51347775434E+01  0.95000446352E+01  0.25374582298E+02  0.00000000000E+00 0. -1.
</event>
<event>
 4    1  0.3664744E+003  0.2147101E+02  0.7546771E-02  0.1512645E+00
          2   -1    0    0  502    0  0.00000000000E+00  0.00000000000E+00  0.11307537283E+03  0.11307537283E+03  0.00000000000E+00 0. -1.
          1   -1    0    0  501    0 -0.00000000000E+00 -0.00000000000E+00 -0.99857191548E+02  0.99857191548E+02  0.00000000000E+00 0.  1.
          2    1    1    2  501    0  0.83931891494E+00 -0.21454602166E+02  0.11087932352E+03  0.11293904902E+03  0.00000000000E+00 0. -1.
          1    1    1    2  502    0 -0.83931891494E+00  0.21454602166E+02 -0.97661142236E+02  0.99993515356E+02  0.00000000000E+00 0.  1.
</event>
<event>
 4    1  0.3664744E+003  0.3494344E+02  0.7546771E-02  0.1380961E+00
          2   -1    0    0  502    0  0.00000000000E+00  0.00000000000E+00  0.19670204341E+03  0.19670204341E+03  0.00000000000E+00 0. -1.
          1   -1    0    0  501    0 -0.00000000000E+00 -0.00000000000E+00 -0.18943757499E+02  0.18943757499E+02  0.00000000000E+00 0. -1.
          2    1    1    2  501    0 -0.19051691370E+02 -0.29292955696E+02  0.17728834144E+03  0.18069919814E+03  0.00000000000E+00 0. -1.
          1    1    1    2  502    0  0.19051691370E+02  0.29292955696E+02  0.46994447287E+00  0.34946602772E+02  0.00000000000E+00 0. -1.
</event>
<event>
 4    1  0.3664744E+003  0.3111664E+02  0.7546771E-02  0.1410135E+00
          2   -1    0    0  502    0  0.00000000000E+00  0.00000000000E+00  0.72167172202E+02  0.72167172202E+02  0.00000000000E+00 0.  1.
          1   -1    0    0  501    0 -0.00000000000E+00 -0.00000000000E+00 -0.35118615197E+02  0.35118615197E+02  0.00000000000E+00 0. -1.
          2    1    1    2  501    0  0.87111469597E+00 -0.31104443805E+02  0.60693204672E+02  0.68204914475E+02  0.00000000000E+00 0.  1.
          1    1    1    2  502    0 -0.87111469597E+00  0.31104443805E+02 -0.23644647666E+02  0.39080872924E+02  0.00000000000E+00 0. -1.
</event>
<event>
 4    1  0.3664744E+003  0.2639354E+02  0.7546771E-02  0.1453797E+00
          2   -1    0    0  502    0  0.00000000000E+00  0.00000000000E+00  0.36954595739E+01  0.36954595739E+01  0.00000000000E+00 0. -1.
          1   -1    0    0  501    0 -0.00000000000E+00 -0.00000000000E+00 -0.16376517123E+04  0.16376517123E+04  0.00000000000E+00 0. -1.
          2    1    1    2  501    0 -0.18941682487E+02 -0.18380202498E+02 -0.44981157501E+02  0.52152887834E+02  0.00000000000E+00 0. -1.
          1    1    1    2  502    0  0.18941682487E+02  0.18380202498E+02 -0.15889750952E+04  0.15891942841E+04  0.00000000000E+00 0. -1.
</event>
<event>
 4    1  0.3664744E+003  0.2319904E+02  0.7546771E-02  0.1490014E+00
          2   -1    0    0  502    0  0.00000000000E+00  0.00000000000E+00  0.48627207882E+03  0.48627207882E+03  0.00000000000E+00 0. -1.
          1   -1    0    0  501    0 -0.00000000000E+00 -0.00000000000E+00 -0.44289936781E+02  0.44289936781E+02  0.00000000000E+00 0.  1.
          2    1    1    2  501    0 -0.68791244744E+01 -0.22155653782E+02  0.48293650404E+03  0.48349339425E+03  0.00000000000E+00 0. -1.
          1    1    1    2  502    0  0.68791244744E+01  0.22155653782E+02 -0.40954362007E+02  0.47068621346E+02  0.00000000000E+00 0.  1.
</event>
<event>
 4    1  0.3664744E+003  0.2926490E+02  0.7546771E-02  0.1426094E+00
          2   -1    0    0  502    0  0.00000000000E+00  0.00000000000E+00  0.22547047488E+03  0.22547047488E+03  0.00000000000E+00 0.  1.
          1   -1    0    0  501    0 -0.00000000000E+00 -0.00000000000E+00 -0.15384353860E+03  0.15384353860E+03  0.00000000000E+00 0.  1.
          2    1    1    2  501    0  0.17637401303E+02  0.23352870226E+02  0.22311450371E+03  0.22502559019E+03  0.00000000000E+00 0.  1.
          1    1    1    2  502    0 -0.17637401303E+02 -0.23352870226E+02 -0.15148756743E+03  0.15428842328E+03  0.00000000000E+00 0.  1.
</event>
<event>
 4    1  0.3664744E+003  0.2789431E+02  0.7546771E-02  0.1438826E+00
          2   -1    0    0  502    0  0.00000000000E+00  0.00000000000E+00  0.11158010307E+04  0.11158010307E+04  0.00000000000E+00 0.  1.
          1   -1    0    0  501    0 -0.00000000000E+00 -0.00000000000E+00 -0.89136940767E+00  0.89136940767E+00  0.00000000000E+00 0. -1.
          2    1    1    2  501    0 -0.17213553285E+02 -0.21949627137E+02  0.81795536855E+03  0.81843086298E+03  0.00000000000E+00 0.  1.
          1    1    1    2  502    0  0.17213553285E+02  0.21949627137E+02  0.29695429276E+03  0.29826153714E+03  0.00000000000E+00 0. -1.
</event>
<event>
 4    1  0.3664744E+003  0.2240854E+02  0.7546771E-02  0.1500062E+00
          2   -1    0    0  502    0  0.00000000000E+00  0.00000000000E+00  0.10118766838E+04  0.10118766838E+04  0.00000000000E+00 0.  1.
          1   -1    0    0  501    0 -0.00000000000E+00 -0.00000000000E+00 -0.69079249175E+02  0.69079249175E+02  0.00000000000E+00 0. -1.
          2    1    1    2  501    0  0.17085908841E+02 -0.14498770129E+02  0.10099318524E+04  0.10101804240E+04  0.00000000000E+00 0.  1.
          1    1    1    2  502    0 -0.17085908841E+02  0.14498770129E+02 -0.67134417772E+02  0.70775508940E+02  0.00000000000E+00 0. -1.
</event>
<event>
 4    1  0.3664744E+003  0.2124016E+02  0.7546771E-02  0.1515864E+00
          2   -1    0    0  502    0  0.00000000000E+00  0.00000000000E+00  0.33482360345E+02  0.33482360345E+02  0.00000000000E+00 0.  1.
          1   -1    0    0  501    0 -0.00000000000E+00 -0.00000000000E+00 -0.14046911447E+02  0.14046911447E+02  0.00000000000E+00 0.  1.
          2    1    1    2  501    0  0.88021484815E+01 -0.19330451881E+02  0.14516738960E+02  0.25727026603E+02  0.00000000000E+00 0.  1.
          1    1    1    2  502    0 -0.88021484815E+01  0.19330451881E+02  0.49187099377E+01  0.21802245189E+02  0.00000000000E+00 0.  1.
</event>
<event>
 4    1  0.3664744E+003  0.2436736E+02  0.7546771E-02  0.1476007E+00
          2   -1    0    0  502    0  0.00000000000E+00  0.00000000000E+00  0.12175701281E+04  0.12175701281E+04  0.00000000000E+00 0. -1.
          1   -1    0    0  501    0 -0.00000000000E+00 -0.00000000000E+00 -0.10217958972E+02  0.10217958972E+02  0.00000000000E+00 0.  1.
          2    1    1    2  501    0 -0.32706354247E+00  0.24365162644E+02  0.12027415581E+04  0.12029883722E+04  0.00000000000E+00 0. -1.
          1    1    1    2  502    0  0.32706354247E+00 -0.24365162644E+02  0.46106109935E+01  0.24799714816E+02  0.00000000000E+00 0.  1.
</event>
<event>
 4    1  0.3664744E+003  0.3762125E+02  0.7546771E-02  0.1363019E+00
          2   -1    0    0  502    0  0.00000000000E+00  0.00000000000E+00  0.93352861312E+02  0.93352861312E+02  0.00000000000E+00 0. -1.
          1   -1    0    0  501    0 -0.00000000000E+00 -0.00000000000E+00 -0.24547485552E+02  0.24547485552E+02  0.00000000000E+00 0. -1.
          2    1    1    2  501    0 -0.23316837674E+02  0.29524285818E+02  0.70854930811E+02  0.80223310779E+02  0.00000000000E+00 0. -1.
          1    1    1    2  502    0  0.23316837674E+02 -0.29524285818E+02 -0.20495550508E+01  0.37677036084E+02  0.00000000000E+00 0. -1.
</event>
<event>
 4    1  0.3664744E+003  0.5345483E+02  0.7546771E-02  0.1283850E+00
          2   -1    0    0  502    0  0.00000000000E+00  0.00000000000E+00  0.42368489226E+03  0.42368489226E+03  0.00000000000E+00 0. -1.
          1   -1    0    0  501    0 -0.00000000000E+00 -0.00000000000E+00 -0.71733097101E+01  0.71733097101E+01  0.00000000000E+00 0. -1.
          2    1    1    2  501    0  0.37989639794E+01 -0.53319640241E+02  0.15556579873E+03  0.16449356795E+03  0.00000000000E+00 0. -1.
          1    1    1    2  502    0 -0.37989639794E+01  0.53319640241E+02  0.26094578382E+03  0.26636463401E+03  0.00000000000E+00 0. -1.
</event>
<event>
 4    1  0.3664744E+003  0.3499931E+02  0.7546771E-02  0.1380568E+00
          2   -1    0    0  502    0  0.00000000000E+00  0.00000000000E+00  0.50559740059E+02  0.50559740059E+02  0.00000000000E+00 0.  1.
          1   -1    0    0  501    0 -0.00000000000E+00 -0.00000000000E+00 -0.79683545599E+02  0.79683545599E+02  0.00000000000E+00 0.  1.
          2    1    1    2  501    0 -0.21603756528E+02  0.27535971953E+02  0.39764911293E+02  0.52973580375E+02  0.00000000000E+00 0.  1.
          1    1    1    2  502    0  0.21603756528E+02 -0.27535971953E+02 -0.68888716833E+02  0.77269705283E+02  0.00000000000E+00 0.  1.
</event>
<event>
 4    1  0.3664744E+003  0.2068990E+02  0.7546771E-02  0.1523739E+00
          2   -1    0    0  502    0  0.00000000000E+00  0.00000000000E+00  0.11781296076E+04  0.11781296076E+04  0.00000000000E+00 0.  1.
          1   -1    0    0  501    0 -0.00000000000E+00 -0.00000000000E+00 -0.18044414005E+01  0.18044414005E+01  0.00000000000E+00 0. -1.
          2    1    1    2  501    0  0.16381276000E+02 -0.12638272563E+02  0.11153952009E+04  0.11155870769E+04  0.00000000000E+00 0.  1.
          1    1    1    2  502    0 -0.16381276000E+02  0.12638272563E+02  0.60929965312E+02  0.64346972032E+02  0.00000000000E+00 0. -1.
</event>
<event>
 4    1  0.3664744E+003  0.2266429E+02  0.7546771E-02  0.1496757E+00
          2   -1    0    0  502    0  0.00000000000E+00  0.00000000000E+00  0.60809450801E+01  0.60809450801E+01  0.00000000000E+00 0.  1.
          1   -1    0    0  501    0 -0.00000000000E+00 -0.00000000000E+00 -0.19431454368E+03  0.19431454368E+03  0.00000000000E+00 0. -1.
          2    1    1    2  501    0  0.75833975619E+01  0.21357947589E+02 -0.18782890740E+02  0.29435808607E+02  0.00000000000E+00 0.  1.
          1    1    1    2  502    0 -0.75833975619E+01 -0.21357947589E+02 -0.16945070786E+03  0.17095968016E+03  0.00000000000E+00 0. -1.
</event>
<event>
 4    1  0.3664744E+003  0.5212662E+02  0.7546771E-02  0.1289206E+00
          2   -1    0    0  502    0  0.00000000000E+00  0.00000000000E+00  0.27743008035E+03  0.27743008035E+03  0.00000000000E+00 0. -1.
          1   -1    0    0  501    0 -0.00000000000E+00 -0.00000000000E+00 -0.12854545484E+02  0.12854545484E+02  0.00000000000E+00 0. -1.
          2    1    1    2  501    0 -0.45832308342E+02  0.24831101899E+02  0.20310784947E+03  0.20969020631E+03  0.00000000000E+00 0. -1.
          1    1    1    2  502    0  0.45832308342E+02 -0.24831101899E+02  0.61467685405E+02  0.80594419525E+02  0.00000000000E+00 0. -1.
</event>
<event>
 4    1  0.3664744E+003  0.2072943E+02  0.7546771E-02  0.1523163E+00
          2   -1    0    0  502    0  0.00000000000E+00  0.00000000000E+00  0.75179616758E+03  0.75179616758E+03  0.00000000000E+00 0.  1.
          1   -1    0    0  501    0 -0.00000000000E+00 -0.00000000000E+00 -0.20695820958E+03  0.20695820958E+03  0.00000000000E+00 0. -1.
          2    1    1    2  501    0  0.16768237170E+02  0.12187515706E+02  0.75113373827E+03  0.75141972431E+03  0.00000000000E+00 0.  1.
          1    1    1    2  502    0 -0.16768237170E+02 -0.12187515706E+02 -0.20629578027E+03  0.20733465286E+03  0.00000000000E+00 0. -1.
</event>
<event>
 4    1  0.3664744E+003  0.2260883E+02  0.7546771E-02  0.1497469E+00
          2   -1    0    0  502    0  0.00000000000E+00  0.00000000000E+00  0.11751559534E+04  0.11751559534E+04  0.00000000000E+00 0. -1.
          1   -1    0    0  501    0 -0.00000000000E+00 -0.00000000000E+00 -0.34944809825E+03  0.34944809825E+03  0.00000000000E+00 0. -1.
          2    1    1    2  501    0  0.22598851595E+02 -0.67175132546E+00  0.11746813724E+04  0.11748989258E+04  0.00000000000E+00 0. -1.
          1    1    1    2  502    0 -0.22598851595E+02  0.67175132546E+00 -0.34897351719E+03  0.34970512584E+03  0.00000000000E+00 0. -1.
</event>
<event>
 4    1  0.3739090E+003  0.2250519E+02  0.7546771E-02  0.1498807E+00
          2   -1    0    0  502    0  0.00000000000E+00  0.00000000000E+00  0.14958241779E+04  0.14958241779E+04  0.00000000000E+00 0. -1.
          1   -1    0    0  501    0 -0.00000000000E+00 -0.00000000000E+00 -0.50268259392E+03  0.50268259392E+03  0.00000000000E+00 0.  1.
          2    1    1    2  501    0  0.22467151915E+02  0.13078624603E+01  0.14954875814E+04  0.14956569090E+04  0.00000000000E+00 0. -1.
          1    1    1    2  502    0 -0.22467151915E+02 -0.13078624603E+01 -0.50234599740E+03  0.50284986280E+03  0.00000000000E+00 0.  1.
</event>
<event>
 4    1  0.5036410E+003  0.3162904E+02  0.7546771E-02  0.1405949E+00
          2   -1    0    0  502    0  0.00000000000E+00  0.00000000000E+00  0.15698599162E+04  0.15698599162E+04  0.00000000000E+00 0.  1.
          1   -1    0    0  501    0 -0.00000000000E+00 -0.00000000000E+00 -0.69131093010E+03  0.69131093010E+03  0.00000000000E+00 0. -1.
          2    1    1    2  501    0 -0.13726113783E+02  0.28495439538E+02  0.15693387080E+04  0.15696574075E+04  0.00000000000E+00 0.  1.
          1    1    1    2  502    0  0.13726113783E+02 -0.28495439538E+02 -0.69078972189E+03  0.69151343887E+03  0.00000000000E+00 0. -1.
</event>
<event>
 4    1  0.3664744E+003  0.3220759E+02  0.7546771E-02  0.1401335E+00
          2   -1    0    0  502    0  0.00000000000E+00  0.00000000000E+00  0.19043324625E+03  0.19043324625E+03  0.00000000000E+00 0.  1.
          1   -1    0    0  501    0 -0.00000000000E+00 -0.00000000000E+00 -0.34796928463E+02  0.34796928463E+02  0.00000000000E+00 0. -1.
          2    1    1    2  501    0  0.11455853113E+02  0.30101370635E+02  0.18124377668E+03  0.18408323028E+03  0.00000000000E+00 0.  1.
          1    1    1    2  502    0 -0.11455853113E+02 -0.30101370635E+02 -0.25607458899E+02  0.41146944429E+02  0.00000000000E+00 0. -1.
</event>
<event>
 4    1  0.3664744E+003  0.2018363E+02  0.7546771E-02  0.1531247E+00
          2   -1    0    0  502    0  0.00000000000E+00  0.00000000000E+00  0.11001708401E+02  0.11001708401E+02  0.00000000000E+00 0. -1.
          1   -1    0    0  501    0 -0.00000000000E+00 -0.00000000000E+00 -0.25662424988E+03  0.25662424988E+03  0.00000000000E+00 0.  1.
          2    1    1    2  501    0 -0.13509345097E+02 -0.14995889322E+02  0.97177028028E+00  0.20207014598E+02  0.00000000000E+00 0. -1.
          1    1    1    2  502    0  0.13509345097E+02  0.14995889322E+02 -0.24659431176E+03  0.24741894368E+03  0.00000000000E+00 0.  1.
</event>
<event>
 4    1  0.3664744E+003  0.6357293E+02  0.7546771E-02  0.1248153E+00
          2   -1    0    0  502    0  0.00000000000E+00  0.00000000000E+00  0.36422223874E+03  0.36422223874E+03  0.00000000000E+00 0.  1.
          1   -1    0    0  501    0 -0.00000000000E+00 -0.00000000000E+00 -0.17492583209E+03  0.17492583209E+03  0.00000000000E+00 0.  1.
          2    1    1    2  501    0  0.30849390829E+01  0.63498032822E+02  0.35553204983E+03  0.36117108893E+03  0.00000000000E+00 0.  1.
          1    1    1    2  502    0 -0.30849390829E+01 -0.63498032822E+02 -0.16623564319E+03  0.17797698190E+03  0.00000000000E+00 0.  1.
</event>
<event>
 4    1  0.3664744E+003  0.2031705E+02  0.7546771E-02  0.1529243E+00
          2   -1    0    0  502    0  0.00000000000E+00  0.00000000000E+00  0.73974397073E+03  0.73974397073E+03  0.00000000000E+00 0. -1.
          1   -1    0    0  501    0 -0.00000000000E+00 -0.00000000000E+00 -0.16445493939E+02  0.16445493939E+02  0.00000000000E+00 0.  1.
          2    1    1    2  501    0  0.63072204923E+01 -0.19313246946E+02  0.73327410376E+03  0.73355551514E+03  0.00000000000E+00 0. -1.
          1    1    1    2  502    0 -0.63072204923E+01  0.19313246946E+02 -0.99756269725E+01  0.22633949532E+02  0.00000000000E+00 0.  1.
</event>
<event>
 4    1  0.3664744E+003  0.2362736E+02  0.7546771E-02  0.1484767E+00
          2   -1    0    0  502    0  0.00000000000E+00  0.00000000000E+00  0.71273984211E+00  0.71273984211E+00  0.00000000000E+00 0.  1.
          1   -1    0    0  501    0 -0.00000000000E+00 -0.00000000000E+00 -0.12063034664E+04  0.12063034664E+04  0.00000000000E+00 0. -1.
          2    1    1    2  501    0  0.57253560116E+01  0.22923180884E+02 -0.24539616933E+03  0.24653099571E+03  0.00000000000E+00 0.  1.
          1    1    1    2  502    0 -0.57253560116E+01 -0.22923180884E+02 -0.96019455723E+03  0.96048521053E+03  0.00000000000E+00 0. -1.
</event>
<event>
 4    1  0.3664744E+003  0.2229032E+02  0.7546771E-02  0.1501607E+00
          2   -1    0    0  502    0  0.00000000000E+00  0.00000000000E+00  0.30312319723E+02  0.30312319723E+02  0.00000000000E+00 0. -1.
          1   -1    0    0  501    0 -0.00000000000E+00 -0.00000000000E+00 -0.73644859667E+02  0.73644859667E+02  0.00000000000E+00 0.  1.
          2    1    1    2  501    0 -0.23112748063E+01 -0.22170168080E+02  0.24164221759E+02  0.32875035469E+02  0.00000000000E+00 0. -1.
          1    1    1    2  502    0  0.23112748063E+01  0.22170168080E+02 -0.67496761702E+02  0.71082143920E+02  0.00000000000E+00 0.  1.
</event>
<event>
 4    1  0.3664744E+003  0.2243778E+02  0.7546771E-02  0.1499681E+00
          2   -1    0    0  502    0  0.00000000000E+00  0.00000000000E+00  0.28937751541E+02  0.28937751541E+02  0.00000000000E+00 0. -1.
          1   -1    0    0  501    0 -0.00000000000E+00 -0.00000000000E+00 -0.86746312249E+03  0.86746312249E+03  0.00000000000E+00 0.  1.
          2    1    1    2  501    0 -0.68138912982E+01 -0.21378142896E+02  0.24420435476E+02  0.33163410216E+02  0.00000000000E+00 0. -1.
          1    1    1    2  502    0  0.68138912982E+01  0.21378142896E+02 -0.86294580642E+03  0.86323746381E+03  0.00000000000E+00 0.  1.
</event>
<event>
 4    1  0.3664744E+003  0.2260891E+02  0.7546771E-02  0.1497468E+00
          2   -1    0    0  502    0  0.00000000000E+00  0.00000000000E+00  0.61201496418E+03  0.61201496418E+03  0.00000000000E+00 0.  1.
          1   -1    0    0  501    0 -0.00000000000E+00 -0.00000000000E+00 -0.86305759540E+00  0.86305759540E+00  0.00000000000E+00 0.  1.
          2    1    1    2  501    0  0.15169332710E+02  0.16764669440E+02  0.36061809918E+03  0.36132613558E+03  0.00000000000E+00 0.  1.
          1    1    1    2  502    0 -0.15169332710E+02 -0.16764669440E+02  0.25053380741E+03  0.25155188620E+03  0.00000000000E+00 0.  1.
</event>
<event>
 4    1  0.3664744E+003  0.3904577E+02  0.7546771E-02  0.1354170E+00
          2   -1    0    0  502    0  0.00000000000E+00  0.00000000000E+00  0.20872053164E+04  0.20872053164E+04  0.00000000000E+00 0. -1.
          1   -1    0    0  501    0 -0.00000000000E+00 -0.00000000000E+00 -0.26424261931E+02  0.26424261931E+02  0.00000000000E+00 0. -1.
          2    1    1    2  501    0 -0.15093979816E+02 -0.36010331249E+02  0.20724963654E+04  0.20728641433E+04  0.00000000000E+00 0. -1.
          1    1    1    2  502    0  0.15093979816E+02  0.36010331249E+02 -0.11715310891E+02  0.40765435023E+02  0.00000000000E+00 0. -1.
</event>
<event>
 4    1  0.3664744E+003  0.5718666E+02  0.7546771E-02  0.1269703E+00
          2   -1    0    0  502    0  0.00000000000E+00  0.00000000000E+00  0.57692972578E+03  0.57692972578E+03  0.00000000000E+00 0. -1.
          1   -1    0    0  501    0 -0.00000000000E+00 -0.00000000000E+00 -0.18044807766E+03  0.18044807766E+03  0.00000000000E+00 0. -1.
          2    1    1    2  501    0  0.31470342185E+02 -0.47748631960E+02  0.57093432178E+03  0.57379117637E+03  0.00000000000E+00 0. -1.
          1    1    1    2  502    0 -0.31470342185E+02  0.47748631960E+02 -0.17445267366E+03  0.18358662707E+03  0.00000000000E+00 0. -1.
</event>
<event>
 4    1  0.3664744E+003  0.2294861E+02  0.7546771E-02  0.1493144E+00
          2   -1    0    0  502    0  0.00000000000E+00  0.00000000000E+00  0.10521338377E+04  0.10521338377E+04  0.00000000000E+00 0. -1.
          1   -1    0    0  501    0 -0.00000000000E+00 -0.00000000000E+00 -0.88197063801E+00  0.88197063801E+00  0.00000000000E+00 0. -1.
          2    1    1    2  501    0  0.51349814787E+01  0.22366733383E+02  0.87187100719E+03  0.87217297136E+03  0.00000000000E+00 0. -1.
          1    1    1    2  502    0 -0.51349814787E+01 -0.22366733383E+02  0.17938085992E+03  0.18084283702E+03  0.00000000000E+00 0. -1.
</event>
<event>
 4    1  0.3664744E+003  0.3565863E+02  0.7546771E-02  0.1375991E+00
          2   -1    0    0  502    0  0.00000000000E+00  0.00000000000E+00  0.29794653263E+03  0.29794653263E+03  0.00000000000E+00 0.  1.
          1   -1    0    0  501    0 -0.00000000000E+00 -0.00000000000E+00 -0.21083895368E+03  0.21083895368E+03  0.00000000000E+00 0. -1.
          2    1    1    2  501    0  0.35598356914E+02  0.20724757107E+01  0.29535873990E+03  0.29750348469E+03  0.00000000000E+00 0.  1.
          1    1    1    2  502    0 -0.35598356914E+02 -0.20724757107E+01 -0.20825116095E+03  0.21128200162E+03  0.00000000000E+00 0. -1.
</event>
<event>
 4    1  0.3664744E+003  0.5128668E+02  0.7546771E-02  0.1292688E+00
          2   -1    0    0  502    0  0.00000000000E+00  0.00000000000E+00  0.26364146051E+03  0.26364146051E+03  0.00000000000E+00 0. -1.
          1   -1    0    0  501    0 -0.00000000000E+00 -0.00000000000E+00 -0.24785152930E+03  0.24785152930E+03  0.00000000000E+00 0. -1.
          2    1    1    2  501    0  0.20031356012E+02  0.47213008433E+02  0.25844124326E+03  0.26348092836E+03  0.00000000000E+00 0. -1.
          1    1    1    2  502    0 -0.20031356012E+02 -0.47213008433E+02 -0.24265131204E+03  0.24801206145E+03  0.00000000000E+00 0. -1.
</event>
<event>
 4    1  0.3664744E+003  0.2637391E+02  0.7546771E-02  0.1454001E+00
          2   -1    0    0  502    0  0.00000000000E+00  0.00000000000E+00  0.13778502065E+03  0.13778502065E+03  0.00000000000E+00 0. -1.
          1   -1    0    0  501    0 -0.00000000000E+00 -0.00000000000E+00 -0.51621221040E+02  0.51621221040E+02  0.00000000000E+00 0. -1.
          2    1    1    2  501    0 -0.34916174190E+01  0.26141760407E+02  0.13303513651E+03  0.13562422562E+03  0.00000000000E+00 0. -1.
          1    1    1    2  502    0  0.34916174190E+01 -0.26141760407E+02 -0.46871336901E+02  0.53782016067E+02  0.00000000000E+00 0. -1.
</event>
<event>
 4    1  0.3664744E+003  0.3066196E+02  0.7546771E-02  0.1413930E+00
          2   -1    0    0  502    0  0.00000000000E+00  0.00000000000E+00  0.99068798813E+01  0.99068798813E+01  0.00000000000E+00 0. -1.
          1   -1    0    0  501    0 -0.00000000000E+00 -0.00000000000E+00 -0.99575647225E+03  0.99575647225E+03  0.00000000000E+00 0.  1.
          2    1    1    2  501    0 -0.85382875673E+01  0.29449171735E+02 -0.14653819310E+02  0.33983679772E+02  0.00000000000E+00 0. -1.
          1    1    1    2  502    0  0.85382875673E+01 -0.29449171735E+02 -0.97119577306E+03  0.97167967236E+03  0.00000000000E+00 0.  1.
</event>
<event>
 4    1  0.3664744E+003  0.2937883E+02  0.7546771E-02  0.1425072E+00
          2   -1    0    0  502    0  0.00000000000E+00  0.00000000000E+00  0.14568092259E+03  0.14568092259E+03  0.00000000000E+00 0. -1.
          1   -1    0    0  501    0 -0.00000000000E+00 -0.00000000000E+00 -0.10969061310E+03  0.10969061310E+03  0.00000000000E+00 0.  1.
          2    1    1    2  501    0  0.29240998462E+02  0.28424614391E+01  0.14218472355E+03  0.14518819232E+03  0.00000000000E+00 0. -1.
          1    1    1    2  502    0 -0.29240998462E+02 -0.28424614391E+01 -0.10619441406E+03  0.11018334337E+03  0.00000000000E+00 0.  1.
</event>
<event>
 4    1  0.3664744E+003  0.2009138E+02  0.7546771E-02  0.1532643E+00
          2   -1    0    0  502    0  0.00000000000E+00  0.00000000000E+00  0.16645000564E+01  0.16645000564E+01  0.00000000000E+00 0. -1.
          1   -1    0    0  501    0 -0.00000000000E+00 -0.00000000000E+00 -0.69462030553E+03  0.69462030553E+03  0.00000000000E+00 0. -1.
          2    1    1    2  501    0  0.93821825473E+01  0.17766209761E+02 -0.65608935071E+02  0.68616294857E+02  0.00000000000E+00 0. -1.
          1    1    1    2  502    0 -0.93821825473E+01 -0.17766209761E+02 -0.62734687040E+03  0.62766851073E+03  0.00000000000E+00 0. -1.
</event>
<event>
 4    1  0.3664744E+003  0.2595806E+02  0.7546771E-02  0.1458365E+00
          2   -1    0    0  502    0  0.00000000000E+00  0.00000000000E+00  0.83840775139E+02  0.83840775139E+02  0.00000000000E+00 0.  1.
          1   -1    0    0  501    0 -0.00000000000E+00 -0.00000000000E+00 -0.27790678278E+02  0.27790678278E+02  0.00000000000E+00 0.  1.
          2    1    1    2  501    0 -0.12656431753E+02 -0.22663529827E+02  0.75082887112E+02  0.79443443946E+02  0.00000000000E+00 0.  1.
          1    1    1    2  502    0  0.12656431753E+02  0.22663529827E+02 -0.19032790251E+02  0.32188009471E+02  0.00000000000E+00 0.  1.
</event>
<event>
 4    1  0.3664744E+003  0.2633236E+02  0.7546771E-02  0.1454432E+00
          2   -1    0    0  502    0  0.00000000000E+00  0.00000000000E+00  0.63710998714E+03  0.63710998714E+03  0.00000000000E+00 0. -1.
          1   -1    0    0  501    0 -0.00000000000E+00 -0.00000000000E+00 -0.13737726614E+01  0.13737726614E+01  0.00000000000E+00 0.  1.
          2    1    1    2  501    0 -0.14659502462E+02  0.21874459317E+02  0.46338500351E+03  0.46413258285E+03  0.00000000000E+00 0. -1.
          1    1    1    2  502    0  0.14659502462E+02 -0.21874459317E+02  0.17235121097E+03  0.17435117695E+03  0.00000000000E+00 0.  1.
</event>
<event>
 4    1  0.3664744E+003  0.2931345E+02  0.7546771E-02  0.1425658E+00
          2   -1    0    0  502    0  0.00000000000E+00  0.00000000000E+00  0.69147577065E+01  0.69147577065E+01  0.00000000000E+00 0. -1.
          1   -1    0    0  501    0 -0.00000000000E+00 -0.00000000000E+00 -0.17991433575E+03  0.17991433575E+03  0.00000000000E+00 0.  1.
          2    1    1    2  501    0  0.22105431957E+02  0.19251704402E+02 -0.34547742752E+02  0.45308109359E+02  0.00000000000E+00 0. -1.
          1    1    1    2  502    0 -0.22105431957E+02 -0.19251704402E+02 -0.13845183529E+03  0.14152098410E+03  0.00000000000E+00 0.  1.
</event>
<event>
 4    1  0.3664744E+003  0.2511997E+02  0.7546771E-02  0.1467466E+00
          2   -1    0    0  502    0  0.00000000000E+00  0.00000000000E+00  0.12396108458E+04  0.12396108458E+04  0.00000000000E+00 0. -1.
          1   -1    0    0  501    0 -0.00000000000E+00 -0.00000000000E+00 -0.14293253507E+01  0.14293253507E+01  0.00000000000E+00 0.  1.
          2    1    1    2  501    0  0.12536845477E+02  0.21767878071E+02  0.11170012356E+04  0.11172836584E+04  0.00000000000E+00 0. -1.
          1    1    1    2  502    0 -0.12536845477E+02 -0.21767878071E+02  0.12118028480E+03  0.12375651270E+03  0.00000000000E+00 0.  1.
</event>
<event>
 4    1  0.3664744E+003  0.2064149E+02  0.7546771E-02  0.1524446E+00
          2   -1    0    0  502    0  0.00000000000E+00  0.00000000000E+00  0.12638723571E+04  0.12638723571E+04  0.00000000000E+00 0. -1.
          1   -1    0    0  501    0 -0.00000000000E+00 -0.00000000000E+00 -0.22545761313E+02  0.22545761313E+02  0.00000000000E+00 0. -1.
          2    1    1    2  501    0  0.34184947678E+01  0.20356443959E+02  0.12590454543E+04  0.12592146468E+04  0.00000000000E+00 0. -1.
          1    1    1    2  502    0 -0.34184947678E+01 -0.20356443959E+02 -0.17718858506E+02  0.27203471541E+02  0.00000000000E+00 0. -1.
</event>
<event>
 4    1  0.3664744E+003  0.2192877E+02  0.7546771E-02  0.1506406E+00
          2   -1    0    0  502    0  0.00000000000E+00  0.00000000000E+00  0.99462851643E+00  0.99462851643E+00  0.00000000000E+00 0. -1.
          1   -1    0    0  501    0 -0.00000000000E+00 -0.00000000000E+00 -0.59467045683E+03  0.59467045683E+03  0.00000000000E+00 0.  1.
          2    1    1    2  501    0  0.19890685519E+02  0.92320895207E+01 -0.16804511701E+03  0.16946985631E+03  0.00000000000E+00 0. -1.
          1    1    1    2  502    0 -0.19890685519E+02 -0.92320895207E+01 -0.42563071130E+03  0.42619522903E+03  0.00000000000E+00 0.  1.
</event>
<event>
 4    1  0.3664744E+003  0.2173716E+02  0.7546771E-02  0.1508995E+00
          2   -1    0    0  502    0  0.00000000000E+00  0.00000000000E+00  0.52948090486E+01  0.52948090486E+01  0.00000000000E+00 0.  1.
          1   -1    0    0  501    0 -0.00000000000E+00 -0.00000000000E+00 -0.49546294678E+03  0.49546294678E+03  0.00000000000E+00 0. -1.
          2    1    1    2  501    0 -0.21659838571E+02 -0.18317819007E+01 -0.18371915727E+02  0.28461049161E+02  0.00000000000E+00 0.  1.
          1    1    1    2  502    0  0.21659838571E+02  0.18317819007E+01 -0.47179622200E+03  0.47229670667E+03  0.00000000000E+00 0. -1.
</event>
<event>
 4    1  0.3664744E+003  0.2734417E+02  0.7546771E-02  0.1444181E+00
          2   -1    0    0  502    0  0.00000000000E+00  0.00000000000E+00  0.86042400801E+03  0.86042400801E+03  0.00000000000E+00 0. -1.
          1   -1    0    0  501    0 -0.00000000000E+00 -0.00000000000E+00 -0.99679612400E+00  0.99679612400E+00  0.00000000000E+00 0.  1.
          2    1    1    2  501    0  0.17225938579E+02  0.21236074951E+02  0.58393696640E+03  0.58457684232E+03  0.00000000000E+00 0. -1.
          1    1    1    2  502    0 -0.17225938579E+02 -0.21236074951E+02  0.27549024548E+03  0.27684396181E+03  0.00000000000E+00 0.  1.
</event>
<event>
 4    1  0.3664744E+003  0.3950685E+02  0.7546771E-02  0.1351400E+00
          2   -1    0    0  502    0  0.00000000000E+00  0.00000000000E+00  0.11844229892E+03  0.11844229892E+03  0.00000000000E+00 0.  1.
          1   -1    0    0  501    0 -0.00000000000E+00 -0.00000000000E+00 -0.38861801902E+02  0.38861801902E+02  0.00000000000E+00 0.  1.
          2    1    1    2  501    0  0.27764534645E+02  0.28105549695E+02  0.10373150798E+03  0.11100007683E+03  0.00000000000E+00 0.  1.
          1    1    1    2  502    0 -0.27764534645E+02 -0.28105549695E+02 -0.24151010961E+02  0.46304023995E+02  0.00000000000E+00 0.  1.
</event>
<event>
 4    1  0.3664744E+003  0.4436664E+02  0.7546771E-02  0.1324637E+00
          2   -1    0    0  502    0  0.00000000000E+00  0.00000000000E+00  0.27751926330E+03  0.27751926330E+03  0.00000000000E+00 0.  1.
          1   -1    0    0  501    0 -0.00000000000E+00 -0.00000000000E+00 -0.16941466635E+02  0.16941466635E+02  0.00000000000E+00 0.  1.
          2    1    1    2  501    0  0.41905943276E+01  0.44168270169E+02  0.18032804388E+02  0.47891327029E+02  0.00000000000E+00 0.  1.
          1    1    1    2  502    0 -0.41905943276E+01 -0.44168270169E+02  0.24254499228E+03  0.24656940291E+03  0.00000000000E+00 0.  1.
</event>
<event>
 4    1  0.3664744E+003  0.2511770E+02  0.7546771E-02  0.1467491E+00
          2   -1    0    0  502    0  0.00000000000E+00  0.00000000000E+00  0.30494020325E+02  0.30494020325E+02  0.00000000000E+00 0.  1.
          1   -1    0    0  501    0 -0.00000000000E+00 -0.00000000000E+00 -0.23676636489E+03  0.23676636489E+03  0.00000000000E+00 0. -1.
          2    1    1    2  501    0 -0.19343413989E+02 -0.16022838833E+02  0.24522098401E+02  0.35103167079E+02  0.00000000000E+00 0.  1.
          1    1    1    2  502    0  0.19343413989E+02  0.16022838833E+02 -0.23079444297E+03  0.23215721814E+03  0.00000000000E+00 0. -1.
</event>
<event>
 4    1  0.3664744E+003  0.2340765E+02  0.7546771E-02  0.1487442E+00
          2   -1    0    0  502    0  0.00000000000E+00  0.00000000000E+00  0.30104001706E+03  0.30104001706E+03  0.00000000000E+00 0.  1.
          1   -1    0    0  501    0 -0.00000000000E+00 -0.00000000000E+00 -0.52917560997E+01  0.52917560997E+01  0.00000000000E+00 0. -1.
          2    1    1    2  501    0 -0.15518299313E+02 -0.17524279445E+02  0.27193405631E+03  0.27293964345E+03  0.00000000000E+00 0.  1.
          1    1    1    2  502    0  0.15518299313E+02  0.17524279445E+02  0.23814204650E+02  0.33392129713E+02  0.00000000000E+00 0. -1.
</event>
<event>
 4    1  0.3664744E+003  0.2048193E+02  0.7546771E-02  0.1526792E+00
          2   -1    0    0  502    0  0.00000000000E+00  0.00000000000E+00  0.54874458876E+03  0.54874458876E+03  0.00000000000E+00 0. -1.
          1   -1    0    0  501    0 -0.00000000000E+00 -0.00000000000E+00 -0.12905387640E+02  0.12905387640E+02  0.00000000000E+00 0. -1.
          2    1    1    2  501    0 -0.78368691200E+01 -0.18923344296E+02  0.54029986051E+03  0.54068794026E+03  0.00000000000E+00 0. -1.
          1    1    1    2  502    0  0.78368691200E+01  0.18923344296E+02 -0.44606593893E+01  0.20962036140E+02  0.00000000000E+00 0. -1.
</event>
<event>
 4    1  0.3664744E+003  0.2452782E+02  0.7546771E-02  0.1474155E+00
          2   -1    0    0  502    0  0.00000000000E+00  0.00000000000E+00  0.92206218672E+03  0.92206218672E+03  0.00000000000E+00 0.  1.
          1   -1    0    0  501    0 -0.00000000000E+00 -0.00000000000E+00 -0.28927934124E+03  0.28927934124E+03  0.00000000000E+00 0.  1.
          2    1    1    2  501    0  0.67850442607E+01  0.23570682638E+02  0.92137876001E+03  0.92170517700E+03  0.00000000000E+00 0.  1.
          1    1    1    2  502    0 -0.67850442607E+01 -0.23570682638E+02 -0.28859591454E+03  0.28963635096E+03  0.00000000000E+00 0.  1.
</event>
<event>
 4    1  0.3664744E+003  0.2955199E+02  0.7546771E-02  0.1423530E+00
          2   -1    0    0  502    0  0.00000000000E+00  0.00000000000E+00  0.10109669495E+03  0.10109669495E+03  0.00000000000E+00 0.  1.
          1   -1    0    0  501    0 -0.00000000000E+00 -0.00000000000E+00 -0.13536954206E+03  0.13536954206E+03  0.00000000000E+00 0.  1.
          2    1    1    2  501    0 -0.80810453659E+01 -0.28425635070E+02  0.97262050559E+02  0.10165247908E+03  0.00000000000E+00 0.  1.
          1    1    1    2  502    0  0.80810453659E+01  0.28425635070E+02 -0.13153489767E+03  0.13481375794E+03  0.00000000000E+00 0.  1.
</event>
<event>
 4    1  0.3664744E+003  0.2345179E+02  0.7546771E-02  0.1486902E+00
          2   -1    0    0  502    0  0.00000000000E+00  0.00000000000E+00  0.17195227851E+04  0.17195227851E+04  0.00000000000E+00 0.  1.
          1   -1    0    0  501    0 -0.00000000000E+00 -0.00000000000E+00 -0.58378730734E+00  0.58378730734E+00  0.00000000000E+00 0.  1.
          2    1    1    2  501    0  0.20705551116E+02 -0.11012122307E+02  0.14377648588E+04  0.14379561106E+04  0.00000000000E+00 0.  1.
          1    1    1    2  502    0 -0.20705551116E+02  0.11012122307E+02  0.28117413897E+03  0.28215046183E+03  0.00000000000E+00 0.  1.
</event>
<event>
 4    1  0.3664744E+003  0.6574132E+02  0.7546771E-02  0.1241481E+00
          2   -1    0    0  502    0  0.00000000000E+00  0.00000000000E+00  0.12088780626E+04  0.12088780626E+04  0.00000000000E+00 0.  1.
          1   -1    0    0  501    0 -0.00000000000E+00 -0.00000000000E+00 -0.48824397492E+03  0.48824397492E+03  0.00000000000E+00 0.  1.
          2    1    1    2  501    0 -0.64941857750E+02 -0.10221384047E+02  0.12057655738E+04  0.12075564337E+04  0.00000000000E+00 0.  1.
          1    1    1    2  502    0  0.64941857750E+02  0.10221384047E+02 -0.48513148614E+03  0.48956560380E+03  0.00000000000E+00 0.  1.
</event>
<event>
 4    1  0.3664744E+003  0.2059551E+02  0.7546771E-02  0.1525119E+00
          2   -1    0    0  502    0  0.00000000000E+00  0.00000000000E+00  0.18334769964E+04  0.18334769964E+04  0.00000000000E+00 0.  1.
          1   -1    0    0  501    0 -0.00000000000E+00 -0.00000000000E+00 -0.26078763815E+00  0.26078763815E+00  0.00000000000E+00 0.  1.
          2    1    1    2  501    0 -0.18359988552E+02  0.93319802466E+01  0.12246534764E+04  0.12248266458E+04  0.00000000000E+00 0.  1.
          1    1    1    2  502    0  0.18359988552E+02 -0.93319802466E+01  0.60856273241E+03  0.60891113827E+03  0.00000000000E+00 0.  1.
</event>
<event>
 4    1  0.3664744E+003  0.2298591E+02  0.7546771E-02  0.1492675E+00
          2   -1    0    0  502    0  0.00000000000E+00  0.00000000000E+00  0.14633184905E+04  0.14633184905E+04  0.00000000000E+00 0.  1.
          1   -1    0    0  501    0 -0.00000000000E+00 -0.00000000000E+00 -0.12679699581E+01  0.12679699581E+01  0.00000000000E+00 0.  1.
          2    1    1    2  501    0 -0.19386806507E+01 -0.22904004152E+02  0.13503402933E+04  0.13505359157E+04  0.00000000000E+00 0.  1.
          1    1    1    2  502    0  0.19386806507E+01  0.22904004152E+02  0.11171022723E+03  0.11405054474E+03  0.00000000000E+00 0.  1.
</event>
<event>
 4    1  0.3664744E+003  0.2163888E+02  0.7546771E-02  0.1510335E+00
          2   -1    0    0  502    0  0.00000000000E+00  0.00000000000E+00  0.21684707306E+03  0.21684707306E+03  0.00000000000E+00 0.  1.
          1   -1    0    0  501    0 -0.00000000000E+00 -0.00000000000E+00 -0.81927199733E+02  0.81927199733E+02  0.00000000000E+00 0.  1.
          2    1    1    2  501    0 -0.17970781392E+00  0.21638138314E+02  0.21486526496E+03  0.21595213222E+03  0.00000000000E+00 0.  1.
          1    1    1    2  502    0  0.17970781392E+00 -0.21638138314E+02 -0.79945391636E+02  0.82822140569E+02  0.00000000000E+00 0.  1.
</event>
<event>
 4    1  0.3664744E+003  0.2509066E+02  0.7546771E-02  0.1467792E+00
          2   -1    0    0  502    0  0.00000000000E+00  0.00000000000E+00  0.61469919574E+03  0.61469919574E+03  0.00000000000E+00 0.  1.
          1   -1    0    0  501    0 -0.00000000000E+00 -0.00000000000E+00 -0.47748349277E+01  0.47748349277E+01  0.00000000000E+00 0. -1.
          2    1    1    2  501    0  0.22733589519E+02  0.10617216042E+02  0.57947933239E+03  0.58002227374E+03  0.00000000000E+00 0.  1.
          1    1    1    2  502    0 -0.22733589519E+02 -0.10617216042E+02  0.30445028422E+02  0.39451756925E+02  0.00000000000E+00 0. -1.
</event>
<event>
 4    1  0.3664744E+003  0.2043762E+02  0.7546771E-02  0.1527448E+00
          2   -1    0    0  502    0  0.00000000000E+00  0.00000000000E+00  0.13353450169E+04  0.13353450169E+04  0.00000000000E+00 0. -1.
          1   -1    0    0  501    0 -0.00000000000E+00 -0.00000000000E+00 -0.28169821914E+02  0.28169821914E+02  0.00000000000E+00 0.  1.
          2    1    1    2  501    0  0.82610171753E+00  0.20420913151E+02  0.13315493035E+04  0.13317061402E+04  0.00000000000E+00 0. -1.
          1    1    1    2  502    0 -0.82610171753E+00 -0.20420913151E+02 -0.24374108558E+02  0.31808698590E+02  0.00000000000E+00 0.  1.
</event>
<event>
 4    1  0.3664744E+003  0.2238920E+02  0.7546771E-02  0.1500314E+00
          2   -1    0    0  502    0  0.00000000000E+00  0.00000000000E+00  0.22711294451E+03  0.22711294451E+03  0.00000000000E+00 0.  1.
          1   -1    0    0  501    0 -0.00000000000E+00 -0.00000000000E+00 -0.75208181136E+01  0.75208181136E+01  0.00000000000E+00 0. -1.
          2    1    1    2  501    0 -0.21629002242E+02 -0.57847000398E+01  0.20840685164E+03  0.20960604072E+03  0.00000000000E+00 0.  1.
          1    1    1    2  502    0  0.21629002242E+02  0.57847000398E+01  0.11185274751E+02  0.25027721906E+02  0.00000000000E+00 0. -1.
</event>
<event>
 4    1  0.3664744E+003  0.3116496E+02  0.7546771E-02  0.1409736E+00
          2   -1    0    0  502    0  0.00000000000E+00  0.00000000000E+00  0.12530731385E+02  0.12530731385E+02  0.00000000000E+00 0.  1.
          1   -1    0    0  501    0 -0.00000000000E+00 -0.00000000000E+00 -0.22184093243E+04  0.22184093243E+04  0.00000000000E+00 0.  1.
          2    1    1    2  501    0  0.10713714010E+01  0.31146540391E+02 -0.71294344656E+01  0.31970043021E+02  0.00000000000E+00 0.  1.
          1    1    1    2  502    0 -0.10713714010E+01 -0.31146540391E+02 -0.21987491585E+04  0.21989700127E+04  0.00000000000E+00 0.  1.
</event>
<event>
 4    1  0.3664744E+003  0.3665276E+02  0.7546771E-02  0.1369302E+00
          2   -1    0    0  502    0  0.00000000000E+00  0.00000000000E+00  0.11874191637E+04  0.11874191637E+04  0.00000000000E+00 0.  1.
          1   -1    0    0  501    0 -0.00000000000E+00 -0.00000000000E+00 -0.26778588686E+02  0.26778588686E+02  0.00000000000E+00 0.  1.
          2    1    1    2  501    0  0.36564134807E+02 -0.25473574748E+01  0.11744559485E+04  0.11750277444E+04  0.00000000000E+00 0.  1.
          1    1    1    2  502    0 -0.36564134807E+02  0.25473574748E+01 -0.13815373506E+02  0.39170008034E+02  0.00000000000E+00 0.  1.
</event>
<event>
 4    1  0.3664744E+003  0.2712426E+02  0.7546771E-02  0.1446364E+00
          2   -1    0    0  502    0  0.00000000000E+00  0.00000000000E+00  0.10241933032E+03  0.10241933032E+03  0.00000000000E+00 0.  1.
          1   -1    0    0  501    0 -0.00000000000E+00 -0.00000000000E+00 -0.53914794680E+02  0.53914794680E+02  0.00000000000E+00 0. -1.
          2    1    1    2  501    0  0.61298033335E+01 -0.26422549626E+02  0.97025872217E+02  0.10074594531E+03  0.00000000000E+00 0.  1.
          1    1    1    2  502    0 -0.61298033335E+01  0.26422549626E+02 -0.48521336577E+02  0.55588179686E+02  0.00000000000E+00 0. -1.
</event>
<event>
 4    1  0.3664744E+003  0.2102987E+02  0.7546771E-02  0.1518839E+00
          2   -1    0    0  502    0  0.00000000000E+00  0.00000000000E+00  0.11342707420E+04  0.11342707420E+04  0.00000000000E+00 0.  1.
          1   -1    0    0  501    0 -0.00000000000E+00 -0.00000000000E+00 -0.10944743587E+01  0.10944743587E+01  0.00000000000E+00 0.  1.
          2    1    1    2  501    0 -0.21028479766E+02 -0.24203430514E+00  0.10220639180E+04  0.10222802493E+04  0.00000000000E+00 0.  1.
          1    1    1    2  502    0  0.21028479766E+02  0.24203430514E+00  0.11111234967E+03  0.11308496713E+03  0.00000000000E+00 0.  1.
</event>
<event>
 4    1  0.3664744E+003  0.5651688E+02  0.7546771E-02  0.1272149E+00
          2   -1    0    0  502    0  0.00000000000E+00  0.00000000000E+00  0.11351210353E+02  0.11351210353E+02  0.00000000000E+00 0. -1.
          1   -1    0    0  501    0 -0.00000000000E+00 -0.00000000000E+00 -0.89652970308E+03  0.89652970308E+03  0.00000000000E+00 0. -1.
          2    1    1    2  501    0  0.14990496814E+02  0.54492594537E+02 -0.66576852381E+02  0.87330608192E+02  0.00000000000E+00 0. -1.
          1    1    1    2  502    0 -0.14990496814E+02 -0.54492594537E+02 -0.81860164034E+03  0.82055030524E+03  0.00000000000E+00 0. -1.
</event>
<event>
 4    1  0.3664744E+003  0.2792447E+02  0.7546771E-02  0.1438536E+00
          2   -1    0    0  502    0  0.00000000000E+00  0.00000000000E+00  0.34687153490E+03  0.34687153490E+03  0.00000000000E+00 0.  1.
          1   -1    0    0  501    0 -0.00000000000E+00 -0.00000000000E+00 -0.67972972243E+01  0.67972972243E+01  0.00000000000E+00 0. -1.
          2    1    1    2  501    0  0.13923012662E+02 -0.24205902713E+02  0.31470416290E+03  0.31594063707E+03  0.00000000000E+00 0.  1.
          1    1    1    2  502    0 -0.13923012662E+02  0.24205902713E+02  0.25370074779E+02  0.37728195054E+02  0.00000000000E+00 0. -1.
</event>
<event>
 4    1  0.3664744E+003  0.7339549E+02  0.7546771E-02  0.1220070E+00
          2   -1    0    0  502    0  0.00000000000E+00  0.00000000000E+00  0.19434049283E+04  0.19434049283E+04  0.00000000000E+00 0.  1.
          1   -1    0    0  501    0 -0.00000000000E+00 -0.00000000000E+00 -0.70176618547E+01  0.70176618547E+01  0.00000000000E+00 0. -1.
          2    1    1    2  501    0  0.35203036688E+02  0.64402201151E+02  0.17267380653E+04  0.17282972093E+04  0.00000000000E+00 0.  1.
          1    1    1    2  502    0 -0.35203036688E+02 -0.64402201151E+02  0.20964920110E+03  0.22212538087E+03  0.00000000000E+00 0. -1.
</event>
<event>
 4    1  0.3664744E+003  0.2710467E+02  0.7546771E-02  0.1446559E+00
          2   -1    0    0  502    0  0.00000000000E+00  0.00000000000E+00  0.63914720153E+02  0.63914720153E+02  0.00000000000E+00 0. -1.
          1   -1    0    0  501    0 -0.00000000000E+00 -0.00000000000E+00 -0.11676469099E+02  0.11676469099E+02  0.00000000000E+00 0. -1.
          2    1    1    2  501    0 -0.21569078819E+02  0.16414550841E+02  0.21399803312E+02  0.34534247092E+02  0.00000000000E+00 0. -1.
          1    1    1    2  502    0  0.21569078819E+02 -0.16414550841E+02  0.30838447742E+02  0.41056942160E+02  0.00000000000E+00 0. -1.
</event>
<event>
 4    1  0.3664744E+003  0.3593675E+02  0.7546771E-02  0.1374095E+00
          2   -1    0    0  502    0  0.00000000000E+00  0.00000000000E+00  0.24698050722E+03  0.24698050722E+03  0.00000000000E+00 0.  1.
          1   -1    0    0  501    0 -0.00000000000E+00 -0.00000000000E+00 -0.54823192128E+02  0.54823192128E+02  0.00000000000E+00 0.  1.
          2    1    1    2  501    0 -0.28772402206E+02  0.21531348978E+02  0.23960380704E+03  0.24228378911E+03  0.00000000000E+00 0.  1.
          1    1    1    2  502    0  0.28772402206E+02 -0.21531348978E+02 -0.47446491944E+02  0.59519910242E+02  0.00000000000E+00 0.  1.
</event>
<event>
 4    1  0.3664744E+003  0.6250375E+02  0.7546771E-02  0.1251555E+00
          2   -1    0    0  502    0  0.00000000000E+00  0.00000000000E+00  0.87332764585E+03  0.87332764585E+03  0.00000000000E+00 0.  1.
          1   -1    0    0  501    0 -0.00000000000E+00 -0.00000000000E+00 -0.52513894945E+01  0.52513894945E+01  0.00000000000E+00 0.  1.
          2    1    1    2  501    0  0.62502590183E+02  0.38098163654E+00  0.60312448601E+03  0.60635456999E+03  0.00000000000E+00 0.  1.
          1    1    1    2  502    0 -0.62502590183E+02 -0.38098163654E+00  0.26495177034E+03  0.27222446535E+03  0.00000000000E+00 0.  1.
</event>
<event>
 4    1  0.3664744E+003  0.2189041E+02  0.7546771E-02  0.1506922E+00
          2   -1    0    0  502    0  0.00000000000E+00  0.00000000000E+00  0.22534303573E+03  0.22534303573E+03  0.00000000000E+00 0. -1.
          1   -1    0    0  501    0 -0.00000000000E+00 -0.00000000000E+00 -0.79012507289E+02  0.79012507289E+02  0.00000000000E+00 0. -1.
          2    1    1    2  501    0 -0.21830312783E+01  0.21781290975E+02  0.22328126084E+03  0.22435175887E+03  0.00000000000E+00 0. -1.
          1    1    1    2  502    0  0.21830312783E+01 -0.21781290975E+02 -0.76950732401E+02  0.80003784155E+02  0.00000000000E+00 0. -1.
</event>
<event>
 4    1  0.3664744E+003  0.2826553E+02  0.7546771E-02  0.1435294E+00
          2   -1    0    0  502    0  0.00000000000E+00  0.00000000000E+00  0.53908437858E+01  0.53908437858E+01  0.00000000000E+00 0.  1.
          1   -1    0    0  501    0 -0.00000000000E+00 -0.00000000000E+00 -0.34751870593E+03  0.34751870593E+03  0.00000000000E+00 0. -1.
          2    1    1    2  501    0  0.18143884979E+02 -0.21673481243E+02 -0.37430581469E+02  0.46904037997E+02  0.00000000000E+00 0.  1.
          1    1    1    2  502    0 -0.18143884979E+02  0.21673481243E+02 -0.30469728067E+03  0.30600551172E+03  0.00000000000E+00 0. -1.
</event>
<event>
 4    1  0.3664744E+003  0.2249271E+02  0.7546771E-02  0.1498968E+00
          2   -1    0    0  502    0  0.00000000000E+00  0.00000000000E+00  0.74786229223E+02  0.74786229223E+02  0.00000000000E+00 0.  1.
          1   -1    0    0  501    0 -0.00000000000E+00 -0.00000000000E+00 -0.23316159172E+02  0.23316159172E+02  0.00000000000E+00 0. -1.
          2    1    1    2  501    0 -0.21904463995E+02 -0.51104191375E+01  0.67062284322E+02  0.70733810198E+02  0.00000000000E+00 0.  1.
          1    1    1    2  502    0  0.21904463995E+02  0.51104191375E+01 -0.15592214270E+02  0.27368578197E+02  0.00000000000E+00 0. -1.
</event>
<event>
 4    1  0.3664744E+003  0.2133915E+02  0.7546771E-02  0.1514477E+00
          2   -1    0    0  502    0  0.00000000000E+00  0.00000000000E+00  0.97903818100E+02  0.97903818100E+02  0.00000000000E+00 0. -1.
          1   -1    0    0  501    0 -0.00000000000E+00 -0.00000000000E+00 -0.18292628137E+02  0.18292628137E+02  0.00000000000E+00 0.  1.
          2    1    1    2  501    0 -0.21135358143E+02 -0.29421193919E+01  0.89977024363E+02  0.92472830300E+02  0.00000000000E+00 0. -1.
          1    1    1    2  502    0  0.21135358143E+02  0.29421193919E+01 -0.10365834400E+02  0.23723615938E+02  0.00000000000E+00 0.  1.
</event>
<event>
 4    1  0.3664744E+003  0.4017436E+02  0.7546771E-02  0.1347467E+00
          2   -1    0    0  502    0  0.00000000000E+00  0.00000000000E+00  0.38366171558E+03  0.38366171558E+03  0.00000000000E+00 0. -1.
          1   -1    0    0  501    0 -0.00000000000E+00 -0.00000000000E+00 -0.13763363368E+03  0.13763363368E+03  0.00000000000E+00 0.  1.
          2    1    1    2  501    0  0.28358754715E+02 -0.28456284856E+02  0.37964745110E+03  0.38176716234E+03  0.00000000000E+00 0. -1.
          1    1    1    2  502    0 -0.28358754715E+02  0.28456284856E+02 -0.13361936921E+03  0.13952818692E+03  0.00000000000E+00 0.  1.
</event>
<event>
 4    1  0.3664744E+003  0.3360718E+02  0.7546771E-02  0.1390629E+00
          2   -1    0    0  502    0  0.00000000000E+00  0.00000000000E+00  0.21651437284E+03  0.21651437284E+03  0.00000000000E+00 0.  1.
          1   -1    0    0  501    0 -0.00000000000E+00 -0.00000000000E+00 -0.87891304565E+02  0.87891304565E+02  0.00000000000E+00 0.  1.
          2    1    1    2  501    0 -0.39517702383E+01 -0.33374037684E+02  0.21192855566E+03  0.21457668928E+03  0.00000000000E+00 0.  1.
          1    1    1    2  502    0  0.39517702383E+01  0.33374037684E+02 -0.83305487383E+02  0.89828988125E+02  0.00000000000E+00 0.  1.
</event>
<event>
 4    1  0.3664744E+003  0.2245284E+02  0.7546771E-02  0.1499486E+00
          2   -1    0    0  502    0  0.00000000000E+00  0.00000000000E+00  0.38096554357E+02  0.38096554357E+02  0.00000000000E+00 0.  1.
          1   -1    0    0  501    0 -0.00000000000E+00 -0.00000000000E+00 -0.50592807131E+03  0.50592807131E+03  0.00000000000E+00 0. -1.
          2    1    1    2  501    0 -0.18474880399E+02 -0.12759661714E+02  0.34515632190E+02  0.41175952184E+02  0.00000000000E+00 0.  1.
          1    1    1    2  502    0  0.18474880399E+02  0.12759661714E+02 -0.50234714914E+03  0.50284867349E+03  0.00000000000E+00 0. -1.
</event>
<event>
 4    1  0.3664744E+003  0.2348007E+02  0.7546771E-02  0.1486556E+00
          2   -1    0    0  502    0  0.00000000000E+00  0.00000000000E+00  0.17851736482E+03  0.17851736482E+03  0.00000000000E+00 0.  1.
          1   -1    0    0  501    0 -0.00000000000E+00 -0.00000000000E+00 -0.50591302739E+01  0.50591302739E+01  0.00000000000E+00 0. -1.
          2    1    1    2  501    0  0.76923030939E+00  0.23467470767E+02  0.14401855347E+03  0.14592003853E+03  0.00000000000E+00 0.  1.
          1    1    1    2  502    0 -0.76923030939E+00 -0.23467470767E+02  0.29439681073E+02  0.37656456566E+02  0.00000000000E+00 0. -1.
</event>
<event>
 4    1  0.3664744E+003  0.2026985E+02  0.7546771E-02  0.1529950E+00
          2   -1    0    0  502    0  0.00000000000E+00  0.00000000000E+00  0.12925289727E+03  0.12925289727E+03  0.00000000000E+00 0. -1.
          1   -1    0    0  501    0 -0.00000000000E+00 -0.00000000000E+00 -0.31232973933E+02  0.31232973933E+02  0.00000000000E+00 0.  1.
          2    1    1    2  501    0 -0.13193156906E+02  0.15388555008E+02  0.12505992469E+03  0.12669195625E+03  0.00000000000E+00 0. -1.
          1    1    1    2  502    0  0.13193156906E+02 -0.15388555008E+02 -0.27040001357E+02  0.33793914951E+02  0.00000000000E+00 0.  1.
</event>
<event>
 4    1  0.3664744E+003  0.2224771E+02  0.7546771E-02  0.1502167E+00
          2   -1    0    0  502    0  0.00000000000E+00  0.00000000000E+00  0.57501894839E+03  0.57501894839E+03  0.00000000000E+00 0. -1.
          1   -1    0    0  501    0 -0.00000000000E+00 -0.00000000000E+00 -0.18136441967E+01  0.18136441967E+01  0.00000000000E+00 0.  1.
          2    1    1    2  501    0 -0.17888598904E+02 -0.13227188349E+02  0.49565784988E+03  0.49615689517E+03  0.00000000000E+00 0. -1.
          1    1    1    2  502    0  0.17888598904E+02  0.13227188349E+02  0.77547454313E+02  0.80675697411E+02  0.00000000000E+00 0.  1.
</event>
<event>
 4    1  0.3664744E+003  0.2398802E+02  0.7546771E-02  0.1480451E+00
          2   -1    0    0  502    0  0.00000000000E+00  0.00000000000E+00  0.10756347314E+03  0.10756347314E+03  0.00000000000E+00 0. -1.
          1   -1    0    0  501    0 -0.00000000000E+00 -0.00000000000E+00 -0.14669224456E+04  0.14669224456E+04  0.00000000000E+00 0. -1.
          2    1    1    2  501    0 -0.23454155055E+02  0.50326865489E+01  0.10612668649E+03  0.10880394712E+03  0.00000000000E+00 0. -1.
          1    1    1    2  502    0  0.23454155055E+02 -0.50326865489E+01 -0.14654856589E+04  0.14656819716E+04  0.00000000000E+00 0. -1.
</event>
<event>
 4    1  0.3664744E+003  0.2367622E+02  0.7546771E-02  0.1484177E+00
          2   -1    0    0  502    0  0.00000000000E+00  0.00000000000E+00  0.55440401215E+01  0.55440401215E+01  0.00000000000E+00 0.  1.
          1   -1    0    0  501    0 -0.00000000000E+00 -0.00000000000E+00 -0.67871926364E+03  0.67871926364E+03  0.00000000000E+00 0. -1.
          2    1    1    2  501    0 -0.19357219317E+02 -0.13633103283E+02 -0.20967357689E+02  0.31625836484E+02  0.00000000000E+00 0.  1.
          1    1    1    2  502    0  0.19357219317E+02  0.13633103283E+02 -0.65220786583E+03  0.65263746728E+03  0.00000000000E+00 0. -1.
</event>
<event>
 4    1  0.3664744E+003  0.2133185E+02  0.7546771E-02  0.1514579E+00
          2   -1    0    0  502    0  0.00000000000E+00  0.00000000000E+00  0.36560917376E+02  0.36560917376E+02  0.00000000000E+00 0. -1.
          1   -1    0    0  501    0 -0.00000000000E+00 -0.00000000000E+00 -0.18616740347E+02  0.18616740347E+02  0.00000000000E+00 0. -1.
          2    1    1    2  501    0  0.20800912386E+02 -0.47296579475E+01  0.24855362566E+02  0.32754185514E+02  0.00000000000E+00 0. -1.
          1    1    1    2  502    0 -0.20800912386E+02  0.47296579475E+01 -0.69111855373E+01  0.22423472210E+02  0.00000000000E+00 0. -1.
</event>
<event>
 4    1  0.3664744E+003  0.2183362E+02  0.7546771E-02  0.1507688E+00
          2   -1    0    0  502    0  0.00000000000E+00  0.00000000000E+00  0.34256811126E+03  0.34256811126E+03  0.00000000000E+00 0. -1.
          1   -1    0    0  501    0 -0.00000000000E+00 -0.00000000000E+00 -0.68249705772E+01  0.68249705772E+01  0.00000000000E+00 0.  1.
          2    1    1    2  501    0 -0.94908167210E+01  0.19662942742E+02  0.32374419377E+03  0.32447959861E+03  0.00000000000E+00 0. -1.
          1    1    1    2  502    0  0.94908167210E+01 -0.19662942742E+02  0.11998946921E+02  0.24913483228E+02  0.00000000000E+00 0.  1.
</event>
<event>
 4    1  0.3664744E+003  0.2447868E+02  0.7546771E-02  0.1474721E+00
          2   -1    0    0  502    0  0.00000000000E+00  0.00000000000E+00  0.15892155845E+04  0.15892155845E+04  0.00000000000E+00 0.  1.
          1   -1    0    0  501    0 -0.00000000000E+00 -0.00000000000E+00 -0.53197674362E+01  0.53197674362E+01  0.00000000000E+00 0.  1.
          2    1    1    2  501    0 -0.62749373011E+01  0.23660748060E+02  0.15604427267E+04  0.15606347135E+04  0.00000000000E+00 0.  1.
          1    1    1    2  502    0  0.62749373011E+01 -0.23660748060E+02  0.23453090447E+02  0.33900638466E+02  0.00000000000E+00 0.  1.
</event>
<event>
 4    1  0.3664744E+003  0.2795290E+02  0.7546771E-02  0.1438264E+00
          2   -1    0    0  502    0  0.00000000000E+00  0.00000000000E+00  0.68011281429E+03  0.68011281429E+03  0.00000000000E+00 0. -1.
          1   -1    0    0  501    0 -0.00000000000E+00 -0.00000000000E+00 -0.42996551550E+02  0.42996551550E+02  0.00000000000E+00 0. -1.
          2    1    1    2  501    0 -0.18784244529E+02  0.20700652807E+02  0.67524970636E+03  0.67582803346E+03  0.00000000000E+00 0. -1.
          1    1    1    2  502    0  0.18784244529E+02 -0.20700652807E+02 -0.38133443622E+02  0.47281332380E+02  0.00000000000E+00 0. -1.
</event>
<event>
 4    1  0.3664744E+003  0.2240168E+02  0.7546771E-02  0.1500151E+00
          2   -1    0    0  502    0  0.00000000000E+00  0.00000000000E+00  0.78331006799E+03  0.78331006799E+03  0.00000000000E+00 0. -1.
          1   -1    0    0  501    0 -0.00000000000E+00 -0.00000000000E+00 -0.16762337897E+01  0.16762337897E+01  0.00000000000E+00 0. -1.
          2    1    1    2  501    0 -0.18657919064E+02 -0.12398280108E+02  0.69931704480E+03  0.69967575665E+03  0.00000000000E+00 0. -1.
          1    1    1    2  502    0  0.18657919064E+02  0.12398280108E+02  0.82316789399E+02  0.85310545130E+02  0.00000000000E+00 0. -1.
</event>
<event>
 4    1  0.3664744E+003  0.9178149E+02  0.7546771E-02  0.1178865E+00
          2   -1    0    0  502    0  0.00000000000E+00  0.00000000000E+00  0.49583700585E+03  0.49583700585E+03  0.00000000000E+00 0. -1.
          1   -1    0    0  501    0 -0.00000000000E+00 -0.00000000000E+00 -0.68604239821E+02  0.68604239821E+02  0.00000000000E+00 0.  1.
          2    1    1    2  501    0 -0.51535783224E+02  0.75946721876E+02  0.45841089503E+03  0.46750870601E+03  0.00000000000E+00 0. -1.
          1    1    1    2  502    0  0.51535783224E+02 -0.75946721876E+02 -0.31178129001E+02  0.96932539657E+02  0.00000000000E+00 0.  1.
</event>
<event>
 4    1  0.3664744E+003  0.3951732E+02  0.7546771E-02  0.1351338E+00
          2   -1    0    0  502    0  0.00000000000E+00  0.00000000000E+00  0.25715264951E+01  0.25715264951E+01  0.00000000000E+00 0.  1.
          1   -1    0    0  501    0 -0.00000000000E+00 -0.00000000000E+00 -0.61870776366E+03  0.61870776366E+03  0.00000000000E+00 0.  1.
          2    1    1    2  501    0  0.30073345812E+02 -0.25636152167E+02 -0.26583734410E+03  0.26875846395E+03  0.00000000000E+00 0.  1.
          1    1    1    2  502    0 -0.30073345812E+02  0.25636152167E+02 -0.35029889306E+03  0.35252082620E+03  0.00000000000E+00 0.  1.
</event>
<event>
 4    1  0.4091763E+003  0.2511787E+02  0.7546771E-02  0.1467489E+00
          2   -1    0    0  502    0  0.00000000000E+00  0.00000000000E+00  0.75162314525E+03  0.75162314525E+03  0.00000000000E+00 0.  1.
          1   -1    0    0  501    0 -0.00000000000E+00 -0.00000000000E+00 -0.13501232520E+04  0.13501232520E+04  0.00000000000E+00 0. -1.
          2    1    1    2  501    0 -0.25110590061E+02  0.60460312621E+00  0.75129642217E+03  0.75171618397E+03  0.00000000000E+00 0.  1.
          1    1    1    2  502    0  0.25110590061E+02 -0.60460312621E+00 -0.13497965289E+04  0.13500302132E+04  0.00000000000E+00 0. -1.
</event>
<event>
 4    1  0.3664744E+003  0.2254615E+02  0.7546771E-02  0.1498277E+00
          2   -1    0    0  502    0  0.00000000000E+00  0.00000000000E+00  0.12906082372E+03  0.12906082372E+03  0.00000000000E+00 0. -1.
          1   -1    0    0  501    0 -0.00000000000E+00 -0.00000000000E+00 -0.39432791791E+03  0.39432791791E+03  0.00000000000E+00 0.  1.
          2    1    1    2  501    0 -0.89649284292E+01  0.20687171535E+02  0.12775059874E+03  0.12972487998E+03  0.00000000000E+00 0. -1.
          1    1    1    2  502    0  0.89649284292E+01 -0.20687171535E+02 -0.39301769293E+03  0.39366386165E+03  0.00000000000E+00 0.  1.
</event>
<event>
 4    1  0.3664744E+003  0.2097722E+02  0.7546771E-02  0.1519590E+00
          2   -1    0    0  502    0  0.00000000000E+00  0.00000000000E+00  0.14491632834E+03  0.14491632834E+03  0.00000000000E+00 0. -1.
          1   -1    0    0  501    0 -0.00000000000E+00 -0.00000000000E+00 -0.54868990190E+02  0.54868990190E+02  0.00000000000E+00 0. -1.
          2    1    1    2  501    0  0.24770592149E+01  0.20830460409E+02  0.14211287964E+03  0.14365275655E+03  0.00000000000E+00 0. -1.
          1    1    1    2  502    0 -0.24770592149E+01 -0.20830460409E+02 -0.52065541496E+02  0.56132561980E+02  0.00000000000E+00 0. -1.
</event>
<event>
 4    1  0.3664744E+003  0.3231892E+02  0.7546771E-02  0.1400460E+00
          2   -1    0    0  502    0  0.00000000000E+00  0.00000000000E+00  0.91488936269E+02  0.91488936269E+02  0.00000000000E+00 0.  1.
          1   -1    0    0  501    0 -0.00000000000E+00 -0.00000000000E+00 -0.39366891849E+02  0.39366891849E+02  0.00000000000E+00 0.  1.
          2    1    1    2  501    0 -0.32171695437E+02 -0.30813765834E+01  0.81191145339E+02  0.87387155523E+02  0.00000000000E+00 0.  1.
          1    1    1    2  502    0  0.32171695437E+02  0.30813765834E+01 -0.29069100919E+02  0.43468672595E+02  0.00000000000E+00 0.  1.
</event>
<event>
 4    1  0.3664744E+003  0.2507045E+02  0.7546771E-02  0.1468017E+00
          2   -1    0    0  502    0  0.00000000000E+00  0.00000000000E+00  0.33739437853E+03  0.33739437853E+03  0.00000000000E+00 0.  1.
          1   -1    0    0  501    0 -0.00000000000E+00 -0.00000000000E+00 -0.16060484445E+02  0.16060484445E+02  0.00000000000E+00 0. -1.
          2    1    1    2  501    0 -0.62473068570E+01 -0.24279589954E+02  0.32682909068E+03  0.32778923388E+03  0.00000000000E+00 0.  1.
          1    1    1    2  502    0  0.62473068570E+01  0.24279589954E+02 -0.54951965958E+01  0.25665629097E+02  0.00000000000E+00 0. -1.
</event>
<event>
 4    1  0.3664744E+003  0.2080240E+02  0.7546771E-02  0.1522105E+00
          2   -1    0    0  502    0  0.00000000000E+00  0.00000000000E+00  0.91880093573E+03  0.91880093573E+03  0.00000000000E+00 0. -1.
          1   -1    0    0  501    0 -0.00000000000E+00 -0.00000000000E+00 -0.14432104895E+01  0.14432104895E+01  0.00000000000E+00 0. -1.
          2    1    1    2  501    0 -0.60889699309E+01  0.19891315584E+02  0.83633112257E+03  0.83658979588E+03  0.00000000000E+00 0. -1.
          1    1    1    2  502    0  0.60889699309E+01 -0.19891315584E+02  0.81026602669E+02  0.83654350339E+02  0.00000000000E+00 0. -1.
</event>
<event>
 4    1  0.3664744E+003  0.4303209E+02  0.7546771E-02  0.1331579E+00
          2   -1    0    0  502    0  0.00000000000E+00  0.00000000000E+00  0.37514116992E+02  0.37514116992E+02  0.00000000000E+00 0. -1.
          1   -1    0    0  501    0 -0.00000000000E+00 -0.00000000000E+00 -0.77825922909E+02  0.77825922909E+02  0.00000000000E+00 0.  1.
          2    1    1    2  501    0  0.39568119753E+02  0.16915222353E+02  0.14720972863E+02  0.45480412158E+02  0.00000000000E+00 0. -1.
          1    1    1    2  502    0 -0.39568119753E+02 -0.16915222353E+02 -0.55032778780E+02  0.69859627742E+02  0.00000000000E+00 0.  1.
</event>
<event>
 4    1  0.3664744E+003  0.2568004E+02  0.7546771E-02  0.1461338E+00
          2   -1    0    0  502    0  0.00000000000E+00  0.00000000000E+00  0.16204184293E+03  0.16204184293E+03  0.00000000000E+00 0.  1.
          1   -1    0    0  501    0 -0.00000000000E+00 -0.00000000000E+00 -0.63592365010E+01  0.63592365010E+01  0.00000000000E+00 0.  1.
          2    1    1    2  501    0 -0.25334177226E+02  0.42004677370E+01  0.12836377005E+03  0.13090730280E+03  0.00000000000E+00 0.  1.
          1    1    1    2  502    0  0.25334177226E+02 -0.42004677370E+01  0.27318836378E+02  0.37493776630E+02  0.00000000000E+00 0.  1.
</event>
<event>
 4    1  0.3664744E+003  0.3053514E+02  0.7546771E-02  0.1415002E+00
          2   -1    0    0  502    0  0.00000000000E+00  0.00000000000E+00  0.14531372824E+04  0.14531372824E+04  0.00000000000E+00 0. -1.
          1   -1    0    0  501    0 -0.00000000000E+00 -0.00000000000E+00 -0.36584479466E+01  0.36584479466E+01  0.00000000000E+00 0. -1.
          2    1    1    2  501    0  0.91395373100E+01 -0.29135268719E+02  0.13861845983E+04  0.13865208746E+04  0.00000000000E+00 0. -1.
          1    1    1    2  502    0 -0.91395373100E+01  0.29135268719E+02  0.63294236149E+02  0.70274855783E+02  0.00000000000E+00 0. -1.
</event>
<event>
 4    1  0.3664744E+003  0.4901091E+02  0.7546771E-02  0.1302519E+00
          2   -1    0    0  502    0  0.00000000000E+00  0.00000000000E+00  0.91487778088E+01  0.91487778088E+01  0.00000000000E+00 0.  1.
          1   -1    0    0  501    0 -0.00000000000E+00 -0.00000000000E+00 -0.29087951518E+03  0.29087951518E+03  0.00000000000E+00 0.  1.
          2    1    1    2  501    0  0.38342082710E+02 -0.30527889279E+02 -0.18767643478E+03  0.19397038821E+03  0.00000000000E+00 0.  1.
          1    1    1    2  502    0 -0.38342082710E+02  0.30527889279E+02 -0.94054302596E+02  0.10605790478E+03  0.00000000000E+00 0.  1.
</event>
<event>
 4    1  0.3664744E+003  0.2892317E+02  0.7546771E-02  0.1429191E+00
          2   -1    0    0  502    0  0.00000000000E+00  0.00000000000E+00  0.83235160590E+03  0.83235160590E+03  0.00000000000E+00 0. -1.
          1   -1    0    0  501    0 -0.00000000000E+00 -0.00000000000E+00 -0.11227287952E+02  0.11227287952E+02  0.00000000000E+00 0. -1.
          2    1    1    2  501    0  0.16800482881E+02 -0.23543436619E+02  0.81303020804E+03  0.81354450942E+03  0.00000000000E+00 0. -1.
          1    1    1    2  502    0 -0.16800482881E+02  0.23543436619E+02  0.80941099143E+01  0.30034384432E+02  0.00000000000E+00 0. -1.
</event>
<event>
 4    1  0.3664744E+003  0.2036731E+02  0.7546771E-02  0.1528493E+00
          2   -1    0    0  502    0  0.00000000000E+00  0.00000000000E+00  0.36499521283E+02  0.36499521283E+02  0.00000000000E+00 0. -1.
          1   -1    0    0  501    0 -0.00000000000E+00 -0.00000000000E+00 -0.72347831870E+03  0.72347831870E+03  0.00000000000E+00 0.  1.
          2    1    1    2  501    0 -0.31449302745E+01  0.20123035295E+02  0.33503042899E+02  0.39208175415E+02  0.00000000000E+00 0. -1.
          1    1    1    2  502    0  0.31449302745E+01 -0.20123035295E+02 -0.72048184031E+03  0.72076966456E+03  0.00000000000E+00 0.  1.
</event>
<event>
 4    1  0.3664744E+003  0.2290551E+02  0.7546771E-02  0.1493688E+00
          2   -1    0    0  502    0  0.00000000000E+00  0.00000000000E+00  0.80795372450E+03  0.80795372450E+03  0.00000000000E+00 0.  1.
          1   -1    0    0  501    0 -0.00000000000E+00 -0.00000000000E+00 -0.35767243277E+02  0.35767243277E+02  0.00000000000E+00 0.  1.
          2    1    1    2  501    0  0.21773702656E+02  0.71111253240E+01  0.80410664235E+03  0.80443281540E+03  0.00000000000E+00 0.  1.
          1    1    1    2  502    0 -0.21773702656E+02 -0.71111253240E+01 -0.31920161125E+02  0.39288152374E+02  0.00000000000E+00 0.  1.
</event>
<event>
 4    1  0.3664744E+003  0.3740566E+02  0.7546771E-02  0.1364398E+00
          2   -1    0    0  502    0  0.00000000000E+00  0.00000000000E+00  0.16452398957E+04  0.16452398957E+04  0.00000000000E+00 0. -1.
          1   -1    0    0  501    0 -0.00000000000E+00 -0.00000000000E+00 -0.85883352542E+00  0.85883352542E+00  0.00000000000E+00 0. -1.
          2    1    1    2  501    0 -0.11770940020E+02 -0.35505329607E+02  0.90354002388E+03  0.90431397104E+03  0.00000000000E+00 0. -1.
          1    1    1    2  502    0  0.11770940020E+02  0.35505329607E+02  0.74084103833E+03  0.74178475822E+03  0.00000000000E+00 0. -1.
</event>
<event>
 4    1  0.3664744E+003  0.2085513E+02  0.7546771E-02  0.1521343E+00
          2   -1    0    0  502    0  0.00000000000E+00  0.00000000000E+00  0.32854872748E+02  0.32854872748E+02  0.00000000000E+00 0. -1.
          1   -1    0    0  501    0 -0.00000000000E+00 -0.00000000000E+00 -0.60344069101E+02  0.60344069101E+02  0.00000000000E+00 0. -1.
          2    1    1    2  501    0 -0.19812991996E+02  0.65101349313E+01  0.27427367561E+02  0.34455725213E+02  0.00000000000E+00 0. -1.
          1    1    1    2  502    0  0.19812991996E+02 -0.65101349313E+01 -0.54916563914E+02  0.58743216636E+02  0.00000000000E+00 0. -1.
</event>
<event>
 4    1  0.3664744E+003  0.2444629E+02  0.7546771E-02  0.1475094E+00
          2   -1    0    0  502    0  0.00000000000E+00  0.00000000000E+00  0.79712088558E+03  0.79712088558E+03  0.00000000000E+00 0.  1.
          1   -1    0    0  501    0 -0.00000000000E+00 -0.00000000000E+00 -0.29714521625E+03  0.29714521625E+03  0.00000000000E+00 0.  1.
          2    1    1    2  501    0 -0.13065424111E+02  0.20661935191E+02  0.79643021655E+03  0.79680531544E+03  0.00000000000E+00 0.  1.
          1    1    1    2  502    0  0.13065424111E+02 -0.20661935191E+02 -0.29645454722E+03  0.29746078639E+03  0.00000000000E+00 0.  1.
</event>
<event>
 4    1  0.3664744E+003  0.2214606E+02  0.7546771E-02  0.1503509E+00
          2   -1    0    0  502    0  0.00000000000E+00  0.00000000000E+00  0.68107072974E+03  0.68107072974E+03  0.00000000000E+00 0. -1.
          1   -1    0    0  501    0 -0.00000000000E+00 -0.00000000000E+00 -0.28144371312E+01  0.28144371312E+01  0.00000000000E+00 0.  1.
          2    1    1    2  501    0  0.78873718326E+01  0.20693897243E+02  0.63409916024E+03  0.63448577055E+03  0.00000000000E+00 0. -1.
          1    1    1    2  502    0 -0.78873718326E+01 -0.20693897243E+02  0.44157132367E+02  0.49399396316E+02  0.00000000000E+00 0.  1.
</event>
<event>
 4    1  0.3664744E+003  0.4072863E+02  0.7546771E-02  0.1344268E+00
          2   -1    0    0  502    0  0.00000000000E+00  0.00000000000E+00  0.73395628259E+03  0.73395628259E+03  0.00000000000E+00 0. -1.
          1   -1    0    0  501    0 -0.00000000000E+00 -0.00000000000E+00 -0.46736573054E+02  0.46736573054E+02  0.00000000000E+00 0. -1.
          2    1    1    2  501    0  0.35481555242E+02 -0.19997014565E+02  0.72440105393E+03  0.72554511113E+03  0.00000000000E+00 0. -1.
          1    1    1    2  502    0 -0.35481555242E+02  0.19997014565E+02 -0.37181344393E+02  0.55147744512E+02  0.00000000000E+00 0. -1.
</event>
<event>
 4    1  0.3664744E+003  0.2328453E+02  0.7546771E-02  0.1488956E+00
          2   -1    0    0  502    0  0.00000000000E+00  0.00000000000E+00  0.93549000500E+03  0.93549000500E+03  0.00000000000E+00 0. -1.
          1   -1    0    0  501    0 -0.00000000000E+00 -0.00000000000E+00 -0.38695924388E+01  0.38695924388E+01  0.00000000000E+00 0. -1.
          2    1    1    2  501    0  0.17446173708E+01  0.23219077140E+02  0.89889166910E+03  0.89919319504E+03  0.00000000000E+00 0. -1.
          1    1    1    2  502    0 -0.17446173708E+01 -0.23219077140E+02  0.32728743467E+02  0.40166402402E+02  0.00000000000E+00 0. -1.
</event>
<event>
 4    1  0.3664744E+003  0.2139314E+02  0.7546771E-02  0.1513725E+00
          2   -1    0    0  502    0  0.00000000000E+00  0.00000000000E+00  0.24013791501E+01  0.24013791501E+01  0.00000000000E+00 0. -1.
          1   -1    0    0  501    0 -0.00000000000E+00 -0.00000000000E+00 -0.28570923468E+03  0.28570923468E+03  0.00000000000E+00 0.  1.
          2    1    1    2  501    0  0.48820453100E+01 -0.20828633237E+02 -0.58532460298E+02  0.62319461146E+02  0.00000000000E+00 0. -1.
          1    1    1    2  502    0 -0.48820453100E+01  0.20828633237E+02 -0.22477539523E+03  0.22579115268E+03  0.00000000000E+00 0.  1.
</event>
<event>
 4    1  0.3664744E+003  0.2304395E+02  0.7546771E-02  0.1491947E+00
          2   -1    0    0  502    0  0.00000000000E+00  0.00000000000E+00  0.16916023889E+04  0.16916023889E+04  0.00000000000E+00 0. -1.
          1   -1    0    0  501    0 -0.00000000000E+00 -0.00000000000E+00 -0.18907026884E+01  0.18907026884E+01  0.00000000000E+00 0. -1.
          2    1    1    2  501    0  0.21853580078E+02  0.73105991879E+01  0.16181203208E+04  0.16182843991E+04  0.00000000000E+00 0. -1.
          1    1    1    2  502    0 -0.21853580078E+02 -0.73105991879E+01  0.71591365436E+02  0.75208692501E+02  0.00000000000E+00 0. -1.
</event>
<event>
 4    1  0.3664744E+003  0.3329535E+02  0.7546771E-02  0.1392960E+00
          2   -1    0    0  502    0  0.00000000000E+00  0.00000000000E+00  0.92388537200E+03  0.92388537200E+03  0.00000000000E+00 0. -1.
          1   -1    0    0  501    0 -0.00000000000E+00 -0.00000000000E+00 -0.34142043696E+01  0.34142043696E+01  0.00000000000E+00 0. -1.
          2    1    1    2  501    0  0.31127162280E+02 -0.11818636316E+02  0.83362574488E+03  0.83429039484E+03  0.00000000000E+00 0. -1.
          1    1    1    2  502    0 -0.31127162280E+02  0.11818636316E+02  0.86845422743E+02  0.93009181522E+02  0.00000000000E+00 0. -1.
</event>
<event>
 4    1  0.3664744E+003  0.4124054E+02  0.7546771E-02  0.1341366E+00
          2   -1    0    0  502    0  0.00000000000E+00  0.00000000000E+00  0.39036036921E+03  0.39036036921E+03  0.00000000000E+00 0. -1.
          1   -1    0    0  501    0 -0.00000000000E+00 -0.00000000000E+00 -0.54180845886E+01  0.54180845886E+01  0.00000000000E+00 0.  1.
          2    1    1    2  501    0  0.40070929841E+02 -0.97520413681E+01  0.28004690140E+03  0.28306721590E+03  0.00000000000E+00 0. -1.
          1    1    1    2  502    0 -0.40070929841E+02  0.97520413681E+01  0.10489538321E+03  0.11271123790E+03  0.00000000000E+00 0.  1.
</event>
<event>
 4    1  0.3664744E+003  0.2084926E+02  0.7546771E-02  0.1521428E+00
          2   -1    0    0  502    0  0.00000000000E+00  0.00000000000E+00  0.42424753944E+02  0.42424753944E+02  0.00000000000E+00 0. -1.
          1   -1    0    0  501    0 -0.00000000000E+00 -0.00000000000E+00 -0.12029810472E+02  0.12029810472E+02  0.00000000000E+00 0. -1.
          2    1    1    2  501    0  0.20553693081E+02  0.34981472583E+01  0.47134407908E+01  0.21375403098E+02  0.00000000000E+00 0. -1.
          1    1    1    2  502    0 -0.20553693081E+02 -0.34981472583E+01  0.25681502681E+02  0.33079161318E+02  0.00000000000E+00 0. -1.
</event>
<event>
 4    1  0.3664744E+003  0.2087107E+02  0.7546771E-02  0.1521114E+00
          2   -1    0    0  502    0  0.00000000000E+00  0.00000000000E+00  0.78864037144E+03  0.78864037144E+03  0.00000000000E+00 0. -1.
          1   -1    0    0  501    0 -0.00000000000E+00 -0.00000000000E+00 -0.19826578274E+01  0.19826578274E+01  0.00000000000E+00 0. -1.
          2    1    1    2  501    0  0.15574506946E+02 -0.13893746105E+02  0.72909052950E+03  0.72938919765E+03  0.00000000000E+00 0. -1.
          1    1    1    2  502    0 -0.15574506946E+02  0.13893746105E+02  0.57567184114E+02  0.61233831615E+02  0.00000000000E+00 0. -1.
</event>
<event>
 4    1  0.3664744E+003  0.2066458E+02  0.7546771E-02  0.1524108E+00
          2   -1    0    0  502    0  0.00000000000E+00  0.00000000000E+00  0.74316535019E+02  0.74316535019E+02  0.00000000000E+00 0. -1.
          1   -1    0    0  501    0 -0.00000000000E+00 -0.00000000000E+00 -0.18181866508E+03  0.18181866508E+03  0.00000000000E+00 0.  1.
          2    1    1    2  501    0  0.21366435254E+01  0.20553827175E+02  0.72276623304E+02  0.75172703379E+02  0.00000000000E+00 0. -1.
          1    1    1    2  502    0 -0.21366435254E+01 -0.20553827175E+02 -0.17977875336E+03  0.18096249672E+03  0.00000000000E+00 0.  1.
</event>
<event>
 4    1  0.3664744E+003  0.2288940E+02  0.7546771E-02  0.1493892E+00
          2   -1    0    0  502    0  0.00000000000E+00  0.00000000000E+00  0.75612483988E+03  0.75612483988E+03  0.00000000000E+00 0. -1.
          1   -1    0    0  501    0 -0.00000000000E+00 -0.00000000000E+00 -0.92870831983E+00  0.92870831983E+00  0.00000000000E+00 0. -1.
          2    1    1    2  501    0 -0.11079040600E+01 -0.22862568600E+02  0.56833275497E+03  0.56879349932E+03  0.00000000000E+00 0. -1.
          1    1    1    2  502    0  0.11079040600E+01  0.22862568600E+02  0.18686337659E+03  0.18826004888E+03  0.00000000000E+00 0. -1.
</event>
<event>
 4    1  0.3664744E+003  0.3157279E+02  0.7546771E-02  0.1406404E+00
          2   -1    0    0  502    0  0.00000000000E+00  0.00000000000E+00  0.28652071197E+03  0.28652071197E+03  0.00000000000E+00 0.  1.
          1   -1    0    0  501    0 -0.00000000000E+00 -0.00000000000E+00 -0.80193148988E+03  0.80193148988E+03  0.00000000000E+00 0. -1.
          2    1    1    2  501    0 -0.12815561781E+01 -0.31546765712E+02  0.28533888554E+03  0.28708033791E+03  0.00000000000E+00 0.  1.
          1    1    1    2  502    0  0.12815561781E+01  0.31546765712E+02 -0.80074966344E+03  0.80137186394E+03  0.00000000000E+00 0. -1.
</event>
<event>
 4    1  0.3664744E+003  0.2535283E+02  0.7546771E-02  0.1464895E+00
          2   -1    0    0  502    0  0.00000000000E+00  0.00000000000E+00  0.13125929186E+04  0.13125929186E+04  0.00000000000E+00 0. -1.
          1   -1    0    0  501    0 -0.00000000000E+00 -0.00000000000E+00 -0.50113551621E+01  0.50113551621E+01  0.00000000000E+00 0. -1.
          2    1    1    2  501    0  0.24680685459E+02  0.57991340297E+01  0.12795777477E+04  0.12798288865E+04  0.00000000000E+00 0. -1.
          1    1    1    2  502    0 -0.24680685459E+02 -0.57991340297E+01  0.28003815724E+02  0.37775387295E+02  0.00000000000E+00 0. -1.
</event>
<event>
 4    1  0.3664744E+003  0.3584815E+02  0.7546771E-02  0.1374697E+00
          2   -1    0    0  502    0  0.00000000000E+00  0.00000000000E+00  0.13307256957E+04  0.13307256957E+04  0.00000000000E+00 0.  1.
          1   -1    0    0  501    0 -0.00000000000E+00 -0.00000000000E+00 -0.13053132199E+01  0.13053132199E+01  0.00000000000E+00 0. -1.
          2    1    1    2  501    0 -0.26732082880E+02  0.23884835668E+02  0.10044258024E+04  0.10050653124E+04  0.00000000000E+00 0.  1.
          1    1    1    2  502    0  0.26732082880E+02 -0.23884835668E+02  0.32499458009E+03  0.32696569655E+03  0.00000000000E+00 0. -1.
</event>
<event>
 4    1  0.3664744E+003  0.2854079E+02  0.7546771E-02  0.1432716E+00
          2   -1    0    0  502    0  0.00000000000E+00  0.00000000000E+00  0.57189858377E+01  0.57189858377E+01  0.00000000000E+00 0.  1.
          1   -1    0    0  501    0 -0.00000000000E+00 -0.00000000000E+00 -0.20391509807E+03  0.20391509807E+03  0.00000000000E+00 0. -1.
          2    1    1    2  501    0 -0.18349449348E+02  0.21860336791E+02 -0.41543608734E+02  0.50402857485E+02  0.00000000000E+00 0.  1.
          1    1    1    2  502    0  0.18349449348E+02 -0.21860336791E+02 -0.15665250349E+03  0.15923122642E+03  0.00000000000E+00 0. -1.
</event>
<event>
 4    1  0.3664744E+003  0.2255555E+02  0.7546771E-02  0.1498156E+00
          2   -1    0    0  502    0  0.00000000000E+00  0.00000000000E+00  0.57659796049E+03  0.57659796049E+03  0.00000000000E+00 0. -1.
          1   -1    0    0  501    0 -0.00000000000E+00 -0.00000000000E+00 -0.33190034033E+03  0.33190034033E+03  0.00000000000E+00 0.  1.
          2    1    1    2  501    0  0.20869395770E+02 -0.85569233770E+01  0.57599376301E+03  0.57643522415E+03  0.00000000000E+00 0. -1.
          1    1    1    2  502    0 -0.20869395770E+02  0.85569233770E+01 -0.33129614285E+03  0.33206307667E+03  0.00000000000E+00 0.  1.
</event>
<event>
 4    1  0.3664744E+003  0.2010035E+02  0.7546771E-02  0.1532507E+00
          2   -1    0    0  502    0  0.00000000000E+00  0.00000000000E+00  0.41468021946E+03  0.41468021946E+03  0.00000000000E+00 0. -1.
          1   -1    0    0  501    0 -0.00000000000E+00 -0.00000000000E+00 -0.19886536457E+01  0.19886536457E+01  0.00000000000E+00 0.  1.
          2    1    1    2  501    0 -0.17680114166E+02  0.95623015564E+01  0.35513642269E+03  0.35570479722E+03  0.00000000000E+00 0. -1.
          1    1    1    2  502    0  0.17680114166E+02 -0.95623015564E+01  0.57555143132E+02  0.60964075888E+02  0.00000000000E+00 0.  1.
</event>
<event>
 4    1  0.3664744E+003  0.4290931E+02  0.7546771E-02  0.1332232E+00
          2   -1    0    0  502    0  0.00000000000E+00  0.00000000000E+00  0.34280102065E+01  0.34280102065E+01  0.00000000000E+00 0. -1.
          1   -1    0    0  501    0 -0.00000000000E+00 -0.00000000000E+00 -0.79661485852E+03  0.79661485852E+03  0.00000000000E+00 0. -1.
          2    1    1    2  501    0  0.22598326966E+02 -0.36476353910E+02 -0.16827855466E+03  0.17366312428E+03  0.00000000000E+00 0. -1.
          1    1    1    2  502    0 -0.22598326966E+02  0.36476353910E+02 -0.62490829365E+03  0.62637974445E+03  0.00000000000E+00 0. -1.
</event>
<event>
 4    1  0.3664744E+003  0.2376017E+02  0.7546771E-02  0.1483167E+00
          2   -1    0    0  502    0  0.00000000000E+00  0.00000000000E+00  0.35755021688E+02  0.35755021688E+02  0.00000000000E+00 0. -1.
          1   -1    0    0  501    0 -0.00000000000E+00 -0.00000000000E+00 -0.26682563700E+02  0.26682563700E+02  0.00000000000E+00 0. -1.
          2    1    1    2  501    0  0.23532489603E+02  0.32813734295E+01  0.24483434020E+02  0.34117210025E+02  0.00000000000E+00 0. -1.
          1    1    1    2  502    0 -0.23532489603E+02 -0.32813734295E+01 -0.15410976031E+02  0.28320375363E+02  0.00000000000E+00 0. -1.
</event>
<event>
 4    1  0.3664744E+003  0.2129593E+02  0.7546771E-02  0.1515081E+00
          2   -1    0    0  502    0  0.00000000000E+00  0.00000000000E+00  0.31505368523E+03  0.31505368523E+03  0.00000000000E+00 0. -1.
          1   -1    0    0  501    0 -0.00000000000E+00 -0.00000000000E+00 -0.93897782957E+02  0.93897782957E+02  0.00000000000E+00 0. -1.
          2    1    1    2  501    0  0.12246221331E+02  0.17422595421E+02  0.31348028447E+03  0.31420280954E+03  0.00000000000E+00 0. -1.
          1    1    1    2  502    0 -0.12246221331E+02 -0.17422595421E+02 -0.92324382198E+02  0.94748658652E+02  0.00000000000E+00 0. -1.
</event>
<event>
 4    1  0.3664744E+003  0.2984427E+02  0.7546771E-02  0.1420955E+00
          2   -1    0    0  502    0  0.00000000000E+00  0.00000000000E+00  0.98350577079E+03  0.98350577079E+03  0.00000000000E+00 0.  1.
          1   -1    0    0  501    0 -0.00000000000E+00 -0.00000000000E+00 -0.14809310013E+03  0.14809310013E+03  0.00000000000E+00 0.  1.
          2    1    1    2  501    0  0.12622853705E+02  0.27043367678E+02  0.98177313198E+03  0.98222663518E+03  0.00000000000E+00 0.  1.
          1    1    1    2  502    0 -0.12622853705E+02 -0.27043367678E+02 -0.14636046133E+03  0.14937223574E+03  0.00000000000E+00 0.  1.
</event>
<event>
 4    1  0.3664744E+003  0.3141009E+02  0.7546771E-02  0.1407726E+00
          2   -1    0    0  502    0  0.00000000000E+00  0.00000000000E+00  0.24046173643E+02  0.24046173643E+02  0.00000000000E+00 0.  1.
          1   -1    0    0  501    0 -0.00000000000E+00 -0.00000000000E+00 -0.48081928552E+02  0.48081928552E+02  0.00000000000E+00 0.  1.
          2    1    1    2  501    0  0.28991217812E+02 -0.12087308432E+02  0.17943625668E+01  0.31461301187E+02  0.00000000000E+00 0.  1.
          1    1    1    2  502    0 -0.28991217812E+02  0.12087308432E+02 -0.25830117476E+02  0.40666801007E+02  0.00000000000E+00 0.  1.
</event>
<event>
 4    1  0.3664744E+003  0.2111798E+02  0.7546771E-02  0.1517587E+00
          2   -1    0    0  502    0  0.00000000000E+00  0.00000000000E+00  0.66813571046E+03  0.66813571046E+03  0.00000000000E+00 0. -1.
          1   -1    0    0  501    0 -0.00000000000E+00 -0.00000000000E+00 -0.43902341997E+03  0.43902341997E+03  0.00000000000E+00 0. -1.
          2    1    1    2  501    0 -0.92990492603E+01  0.18960399519E+02  0.66771472453E+03  0.66804859286E+03  0.00000000000E+00 0. -1.
          1    1    1    2  502    0  0.92990492603E+01 -0.18960399519E+02 -0.43860243404E+03  0.43911053758E+03  0.00000000000E+00 0. -1.
</event>
<event>
 4    1  0.3664744E+003  0.2587886E+02  0.7546771E-02  0.1459207E+00
          2   -1    0    0  502    0  0.00000000000E+00  0.00000000000E+00  0.15449364253E+01  0.15449364253E+01  0.00000000000E+00 0. -1.
          1   -1    0    0  501    0 -0.00000000000E+00 -0.00000000000E+00 -0.14858971852E+04  0.14858971852E+04  0.00000000000E+00 0. -1.
          2    1    1    2  501    0  0.22224123309E+02 -0.13259097516E+02 -0.11627246438E+03  0.11911759441E+03  0.00000000000E+00 0. -1.
          1    1    1    2  502    0 -0.22224123309E+02  0.13259097516E+02 -0.13680797844E+04  0.13683245272E+04  0.00000000000E+00 0. -1.
</event>
<event>
 4    1  0.3664744E+003  0.2237641E+02  0.7546771E-02  0.1500481E+00
          2   -1    0    0  502    0  0.00000000000E+00  0.00000000000E+00  0.30788705751E+03  0.30788705751E+03  0.00000000000E+00 0.  1.
          1   -1    0    0  501    0 -0.00000000000E+00 -0.00000000000E+00 -0.88253870297E+01  0.88253870297E+01  0.00000000000E+00 0.  1.
          2    1    1    2  501    0 -0.13261556435E+02  0.18023176613E+02  0.29255460901E+03  0.29340910523E+03  0.00000000000E+00 0.  1.
          1    1    1    2  502    0  0.13261556435E+02 -0.18023176613E+02  0.65070614681E+01  0.23303339315E+02  0.00000000000E+00 0.  1.
</event>
<event>
 4    1  0.3664744E+003  0.2198391E+02  0.7546771E-02  0.1505667E+00
          2   -1    0    0  502    0  0.00000000000E+00  0.00000000000E+00  0.13614192489E+03  0.13614192489E+03  0.00000000000E+00 0.  1.
          1   -1    0    0  501    0 -0.00000000000E+00 -0.00000000000E+00 -0.39145996630E+01  0.39145996630E+01  0.00000000000E+00 0.  1.
          2    1    1    2  501    0  0.19466196187E+02  0.10215656408E+02  0.87487755137E+02  0.90207536984E+02  0.00000000000E+00 0.  1.
          1    1    1    2  502    0 -0.19466196187E+02 -0.10215656408E+02  0.44739570094E+02  0.49848987573E+02  0.00000000000E+00 0.  1.
</event>
<event>
 4    1  0.3664744E+003  0.2277359E+02  0.7546771E-02  0.1495361E+00
          2   -1    0    0  502    0  0.00000000000E+00  0.00000000000E+00  0.19868193122E+03  0.19868193122E+03  0.00000000000E+00 0. -1.
          1   -1    0    0  501    0 -0.00000000000E+00 -0.00000000000E+00 -0.31022924988E+01  0.31022924988E+01  0.00000000000E+00 0.  1.
          2    1    1    2  501    0 -0.22757018324E+02  0.86860579556E+00  0.13796496919E+03  0.13983193156E+03  0.00000000000E+00 0. -1.
          1    1    1    2  502    0  0.22757018324E+02 -0.86860579556E+00  0.57614669525E+02  0.61952292157E+02  0.00000000000E+00 0.  1.
</event>
<event>
 4    1  0.3664744E+003  0.3568337E+02  0.7546771E-02  0.1375822E+00
          2   -1    0    0  502    0  0.00000000000E+00  0.00000000000E+00  0.64140604266E+01  0.64140604266E+01  0.00000000000E+00 0. -1.
          1   -1    0    0  501    0 -0.00000000000E+00 -0.00000000000E+00 -0.12764486566E+04  0.12764486566E+04  0.00000000000E+00 0.  1.
          2    1    1    2  501    0 -0.33116605730E+02 -0.13288846195E+02 -0.45571287722E+02  0.57879575611E+02  0.00000000000E+00 0. -1.
          1    1    1    2  502    0  0.33116605730E+02  0.13288846195E+02 -0.12244633085E+04  0.12249831415E+04  0.00000000000E+00 0.  1.
</event>
<event>
 4    1  0.3664744E+003  0.2182364E+02  0.7546771E-02  0.1507823E+00
          2   -1    0    0  502    0  0.00000000000E+00  0.00000000000E+00  0.18957724705E+03  0.18957724705E+03  0.00000000000E+00 0.  1.
          1   -1    0    0  501    0 -0.00000000000E+00 -0.00000000000E+00 -0.54443250654E+02  0.54443250654E+02  0.00000000000E+00 0. -1.
          2    1    1    2  501    0  0.18247872494E+02 -0.11970225703E+02  0.18672892267E+03  0.18799989818E+03  0.00000000000E+00 0.  1.
          1    1    1    2  502    0 -0.18247872494E+02  0.11970225703E+02 -0.51594926274E+02  0.56020599525E+02  0.00000000000E+00 0. -1.
</event>
<event>
 4    1  0.3664744E+003  0.2327487E+02  0.7546771E-02  0.1489075E+00
          2   -1    0    0  502    0  0.00000000000E+00  0.00000000000E+00  0.95843317368E+03  0.95843317368E+03  0.00000000000E+00 0.  1.
          1   -1    0    0  501    0 -0.00000000000E+00 -0.00000000000E+00 -0.75183426616E+00  0.75183426616E+00  0.00000000000E+00 0. -1.
          2    1    1    2  501    0 -0.21910127633E+02  0.78527732539E+01  0.71778177099E+03  0.71815902870E+03  0.00000000000E+00 0.  1.
          1    1    1    2  502    0  0.21910127633E+02 -0.78527732539E+01  0.23989956843E+03  0.24102597925E+03  0.00000000000E+00 0. -1.
</event>
<event>
 4    1  0.3664744E+003  0.2070948E+02  0.7546771E-02  0.1523453E+00
          2   -1    0    0  502    0  0.00000000000E+00  0.00000000000E+00  0.62199687255E+03  0.62199687255E+03  0.00000000000E+00 0. -1.
          1   -1    0    0  501    0 -0.00000000000E+00 -0.00000000000E+00 -0.38986841181E+01  0.38986841181E+01  0.00000000000E+00 0. -1.
          2    1    1    2  501    0  0.12579528161E+02 -0.16451079170E+02  0.59297724800E+03  0.59333877269E+03  0.00000000000E+00 0. -1.
          1    1    1    2  502    0 -0.12579528161E+02  0.16451079170E+02  0.25120940430E+02  0.32556783974E+02  0.00000000000E+00 0. -1.
</event>
<event>
 4    1  0.3664744E+003  0.3686406E+02  0.7546771E-02  0.1367912E+00
          2   -1    0    0  502    0  0.00000000000E+00  0.00000000000E+00  0.41068537134E+03  0.41068537134E+03  0.00000000000E+00 0. -1.
          1   -1    0    0  501    0 -0.00000000000E+00 -0.00000000000E+00 -0.76486391955E+03  0.76486391955E+03  0.00000000000E+00 0. -1.
          2    1    1    2  501    0 -0.20188418101E+02  0.30844557030E+02  0.40941255936E+03  0.41106885395E+03  0.00000000000E+00 0. -1.
          1    1    1    2  502    0  0.20188418101E+02 -0.30844557030E+02 -0.76359110756E+03  0.76448043695E+03  0.00000000000E+00 0. -1.
</event>
<event>
 4    1  0.3664744E+003  0.2741650E+02  0.7546771E-02  0.1443469E+00
          2   -1    0    0  502    0  0.00000000000E+00  0.00000000000E+00  0.10026048671E+04  0.10026048671E+04  0.00000000000E+00 0.  1.
          1   -1    0    0  501    0 -0.00000000000E+00 -0.00000000000E+00 -0.15116888477E+03  0.15116888477E+03  0.00000000000E+00 0.  1.
          2    1    1    2  501    0 -0.23944496861E+02  0.13353866682E+02  0.10011725734E+04  0.10015478953E+04  0.00000000000E+00 0.  1.
          1    1    1    2  502    0  0.23944496861E+02 -0.13353866682E+02 -0.14973659114E+03  0.15222585658E+03  0.00000000000E+00 0.  1.
</event>
<event>
 4    1  0.3664744E+003  0.2152856E+02  0.7546771E-02  0.1511850E+00
          2   -1    0    0  502    0  0.00000000000E+00  0.00000000000E+00  0.34505860172E+02  0.34505860172E+02  0.00000000000E+00 0.  1.
          1   -1    0    0  501    0 -0.00000000000E+00 -0.00000000000E+00 -0.21568863928E+03  0.21568863928E+03  0.00000000000E+00 0.  1.
          2    1    1    2  501    0 -0.21516065753E+02 -0.73341802016E+00  0.30548071110E+02  0.37371963235E+02  0.00000000000E+00 0.  1.
          1    1    1    2  502    0  0.21516065753E+02  0.73341802016E+00 -0.21173085022E+03  0.21282253622E+03  0.00000000000E+00 0.  1.
</event>
<event>
 4    1  0.3664744E+003  0.2648905E+02  0.7546771E-02  0.1452809E+00
          2   -1    0    0  502    0  0.00000000000E+00  0.00000000000E+00  0.25954680279E+03  0.25954680279E+03  0.00000000000E+00 0. -1.
          1   -1    0    0  501    0 -0.00000000000E+00 -0.00000000000E+00 -0.13844733767E+02  0.13844733767E+02  0.00000000000E+00 0.  1.
          2    1    1    2  501    0 -0.65513272822E+01  0.25666126806E+02  0.24547645868E+03  0.24690152232E+03  0.00000000000E+00 0. -1.
          1    1    1    2  502    0  0.65513272822E+01 -0.25666126806E+02  0.22561033840E+00  0.26490014240E+02  0.00000000000E+00 0.  1.
</event>
<event>
 4    1  0.3664744E+003  0.5683007E+02  0.7546771E-02  0.1271001E+00
          2   -1    0    0  502    0  0.00000000000E+00  0.00000000000E+00  0.12128729037E+03  0.12128729037E+03  0.00000000000E+00 0.  1.
          1   -1    0    0  501    0 -0.00000000000E+00 -0.00000000000E+00 -0.19185800955E+04  0.19185800955E+04  0.00000000000E+00 0.  1.
          2    1    1    2  501    0  0.52509603051E+02 -0.21734738004E+02  0.11418468055E+03  0.12754528028E+03  0.00000000000E+00 0.  1.
          1    1    1    2  502    0 -0.52509603051E+02  0.21734738004E+02 -0.19114774857E+04  0.19123221056E+04  0.00000000000E+00 0.  1.
</event>
<event>
 4    1  0.3664744E+003  0.2514480E+02  0.7546771E-02  0.1467190E+00
          2   -1    0    0  502    0  0.00000000000E+00  0.00000000000E+00  0.12886344001E+04  0.12886344001E+04  0.00000000000E+00 0.  1.
          1   -1    0    0  501    0 -0.00000000000E+00 -0.00000000000E+00 -0.11232652350E+03  0.11232652350E+03  0.00000000000E+00 0. -1.
          2    1    1    2  501    0  0.56950738515E+01  0.24491368816E+02  0.12871028703E+04  0.12873484609E+04  0.00000000000E+00 0.  1.
          1    1    1    2  502    0 -0.56950738515E+01 -0.24491368816E+02 -0.11079499380E+03  0.11361246262E+03  0.00000000000E+00 0. -1.
</event>
<event>
 4    1  0.3664744E+003  0.4914309E+02  0.7546771E-02  0.1301931E+00
          2   -1    0    0  502    0  0.00000000000E+00  0.00000000000E+00  0.12412098090E+02  0.12412098090E+02  0.00000000000E+00 0. -1.
          1   -1    0    0  501    0 -0.00000000000E+00 -0.00000000000E+00 -0.99249502114E+03  0.99249502114E+03  0.00000000000E+00 0. -1.
          2    1    1    2  501    0 -0.36726170259E+02 -0.32653205756E+02 -0.39523272839E+02  0.63064510812E+02  0.00000000000E+00 0. -1.
          1    1    1    2  502    0  0.36726170259E+02  0.32653205756E+02 -0.94055965021E+03  0.94184260841E+03  0.00000000000E+00 0. -1.
</event>
<event>
 4    1  0.3664744E+003  0.2292735E+02  0.7546771E-02  0.1493412E+00
          2   -1    0    0  502    0  0.00000000000E+00  0.00000000000E+00  0.28523444865E+01  0.28523444865E+01  0.00000000000E+00 0.  1.
          1   -1    0    0  501    0 -0.00000000000E+00 -0.00000000000E+00 -0.44759300560E+03  0.44759300560E+03  0.00000000000E+00 0.  1.
          2    1    1    2  501    0  0.13560490086E+02 -0.18487201940E+02 -0.49628729505E+02  0.54668769139E+02  0.00000000000E+00 0.  1.
          1    1    1    2  502    0 -0.13560490086E+02  0.18487201940E+02 -0.39511193161E+03  0.39577658095E+03  0.00000000000E+00 0.  1.
</event>
<event>
 4    1  0.3664744E+003  0.4606145E+02  0.7546771E-02  0.1316215E+00
          2   -1    0    0  502    0  0.00000000000E+00  0.00000000000E+00  0.10257989477E+03  0.10257989477E+03  0.00000000000E+00 0. -1.
          1   -1    0    0  501    0 -0.00000000000E+00 -0.00000000000E+00 -0.29890273814E+02  0.29890273814E+02  0.00000000000E+00 0. -1.
          2    1    1    2  501    0 -0.44619368555E+02  0.11435442885E+02  0.73105975330E+02  0.86406834412E+02  0.00000000000E+00 0. -1.
          1    1    1    2  502    0  0.44619368555E+02 -0.11435442885E+02 -0.41635437106E+00  0.46063334174E+02  0.00000000000E+00 0. -1.
</event>
<event>
 4    1  0.3664744E+003  0.3024945E+02  0.7546771E-02  0.1417441E+00
          2   -1    0    0  502    0  0.00000000000E+00  0.00000000000E+00  0.30918070707E+00  0.30918070707E+00  0.00000000000E+00 0. -1.
          1   -1    0    0  501    0 -0.00000000000E+00 -0.00000000000E+00 -0.30755045235E+04  0.30755045235E+04  0.00000000000E+00 0. -1.
          2    1    1    2  501    0 -0.28643190141E+02  0.97260813041E+01 -0.12389517062E+04  0.12393209267E+04  0.00000000000E+00 0. -1.
          1    1    1    2  502    0  0.28643190141E+02 -0.97260813041E+01 -0.18362436366E+04  0.18364927775E+04  0.00000000000E+00 0. -1.
</event>
<event>
 4    1  0.3664744E+003  0.2240507E+02  0.7546771E-02  0.1500107E+00
          2   -1    0    0  502    0  0.00000000000E+00  0.00000000000E+00  0.13361258627E+01  0.13361258627E+01  0.00000000000E+00 0. -1.
          1   -1    0    0  501    0 -0.00000000000E+00 -0.00000000000E+00 -0.11916039228E+04  0.11916039228E+04  0.00000000000E+00 0.  1.
          2    1    1    2  501    0  0.12620665638E+02  0.18512324527E+02 -0.10157248345E+03  0.10401421420E+03  0.00000000000E+00 0. -1.
          1    1    1    2  502    0 -0.12620665638E+02 -0.18512324527E+02 -0.10886953135E+04  0.10889258344E+04  0.00000000000E+00 0.  1.
</event>
<event>
 4    1  0.3664744E+003  0.2180700E+02  0.7546771E-02  0.1508048E+00
          2   -1    0    0  502    0  0.00000000000E+00  0.00000000000E+00  0.72811125297E+01  0.72811125297E+01  0.00000000000E+00 0.  1.
          1   -1    0    0  501    0 -0.00000000000E+00 -0.00000000000E+00 -0.23272237140E+03  0.23272237140E+03  0.00000000000E+00 0. -1.
          2    1    1    2  501    0 -0.18497824816E+02  0.11548846851E+02 -0.10941338644E+02  0.24397915441E+02  0.00000000000E+00 0.  1.
          1    1    1    2  502    0  0.18497824816E+02 -0.11548846851E+02 -0.21449992022E+03  0.21560556849E+03  0.00000000000E+00 0. -1.
</event>
<event>
 4    1  0.3664744E+003  0.2510913E+02  0.7546771E-02  0.1467586E+00
          2   -1    0    0  502    0  0.00000000000E+00  0.00000000000E+00  0.39017509311E+02  0.39017509311E+02  0.00000000000E+00 0.  1.
          1   -1    0    0  501    0 -0.00000000000E+00 -0.00000000000E+00 -0.58178653448E+02  0.58178653448E+02  0.00000000000E+00 0.  1.
          2    1    1    2  501    0  0.11919574643E+02 -0.22099591569E+02  0.31720907249E+02  0.40455953380E+02  0.00000000000E+00 0.  1.
          1    1    1    2  502    0 -0.11919574643E+02  0.22099591569E+02 -0.50882051386E+02  0.56740209380E+02  0.00000000000E+00 0.  1.
</event>
<event>
 4    1  0.3664744E+003  0.3146612E+02  0.7546771E-02  0.1407270E+00
          2   -1    0    0  502    0  0.00000000000E+00  0.00000000000E+00  0.12035613070E+04  0.12035613070E+04  0.00000000000E+00 0. -1.
          1   -1    0    0  501    0 -0.00000000000E+00 -0.00000000000E+00 -0.10134247322E+02  0.10134247322E+02  0.00000000000E+00 0.  1.
          2    1    1    2  501    0 -0.72139056573E+01  0.30628034573E+02  0.11784093851E+04  0.11788294177E+04  0.00000000000E+00 0. -1.
          1    1    1    2  502    0  0.72139056573E+01 -0.30628034573E+02  0.15017674510E+02  0.34866136641E+02  0.00000000000E+00 0.  1.
</event>
<event>
 4    1  0.3664744E+003  0.2154985E+02  0.7546771E-02  0.1511557E+00
          2   -1    0    0  502    0  0.00000000000E+00  0.00000000000E+00  0.15123971272E+03  0.15123971272E+03  0.00000000000E+00 0.  1.
          1   -1    0    0  501    0 -0.00000000000E+00 -0.00000000000E+00 -0.51748423453E+03  0.51748423453E+03  0.00000000000E+00 0. -1.
          2    1    1    2  501    0  0.18746436251E+02  0.10628603966E+02  0.15024623494E+03  0.15178381735E+03  0.00000000000E+00 0.  1.
          1    1    1    2  502    0 -0.18746436251E+02 -0.10628603966E+02 -0.51649075675E+03  0.51694012991E+03  0.00000000000E+00 0. -1.
</event>
<event>
 4    1  0.3664744E+003  0.3899522E+02  0.7546771E-02  0.1354477E+00
          2   -1    0    0  502    0  0.00000000000E+00  0.00000000000E+00  0.95627891060E+03  0.95627891060E+03  0.00000000000E+00 0. -1.
          1   -1    0    0  501    0 -0.00000000000E+00 -0.00000000000E+00 -0.10071012656E+03  0.10071012656E+03  0.00000000000E+00 0.  1.
          2    1    1    2  501    0  0.30285546276E+02  0.24564456152E+02  0.95209001084E+03  0.95288824925E+03  0.00000000000E+00 0. -1.
          1    1    1    2  502    0 -0.30285546276E+02 -0.24564456152E+02 -0.96521226805E+02  0.10410078791E+03  0.00000000000E+00 0.  1.
</event>
<event>
 4    1  0.3664744E+003  0.8147830E+02  0.7546771E-02  0.1200457E+00
          2   -1    0    0  502    0  0.00000000000E+00  0.00000000000E+00  0.38612362833E+03  0.38612362833E+03  0.00000000000E+00 0. -1.
          1   -1    0    0  501    0 -0.00000000000E+00 -0.00000000000E+00 -0.45528632506E+02  0.45528632506E+02  0.00000000000E+00 0. -1.
          2    1    1    2  501    0 -0.51130478301E+02  0.63438062969E+02  0.34056289228E+03  0.35017395283E+03  0.00000000000E+00 0. -1.
          1    1    1    2  502    0  0.51130478301E+02 -0.63438062969E+02  0.32103544698E-01  0.81478308004E+02  0.00000000000E+00 0. -1.
</event>
<event>
 4    1  0.3664744E+003  0.3351232E+02  0.7546771E-02  0.1391335E+00
          2   -1    0    0  502    0  0.00000000000E+00  0.00000000000E+00  0.34230398254E+03  0.34230398254E+03  0.00000000000E+00 0. -1.
          1   -1    0    0  501    0 -0.00000000000E+00 -0.00000000000E+00 -0.53909264162E+03  0.53909264162E+03  0.00000000000E+00 0.  1.
          2    1    1    2  501    0 -0.12701706213E+02  0.31011969441E+02  0.34096088573E+03  0.34260385460E+03  0.00000000000E+00 0. -1.
          1    1    1    2  502    0  0.12701706213E+02 -0.31011969441E+02 -0.53774954481E+03  0.53879276956E+03  0.00000000000E+00 0.  1.
</event>
<event>
 4    1  0.3664744E+003  0.2976472E+02  0.7546771E-02  0.1421652E+00
          2   -1    0    0  502    0  0.00000000000E+00  0.00000000000E+00  0.13584821533E+04  0.13584821533E+04  0.00000000000E+00 0. -1.
          1   -1    0    0  501    0 -0.00000000000E+00 -0.00000000000E+00 -0.71441988492E+00  0.71441988492E+00  0.00000000000E+00 0. -1.
          2    1    1    2  501    0 -0.19015294262E+02  0.22898823355E+02  0.47824926414E+03  0.47917459884E+03  0.00000000000E+00 0. -1.
          1    1    1    2  502    0  0.19015294262E+02 -0.22898823355E+02  0.87951846929E+03  0.88002197435E+03  0.00000000000E+00 0. -1.
</event>
<event>
 4    1  0.3664744E+003  0.2245023E+02  0.7546771E-02  0.1499519E+00
          2   -1    0    0  502    0  0.00000000000E+00  0.00000000000E+00  0.61327564814E+02  0.61327564814E+02  0.00000000000E+00 0. -1.
          1   -1    0    0  501    0 -0.00000000000E+00 -0.00000000000E+00 -0.10303541567E+02  0.10303541567E+02  0.00000000000E+00 0.  1.
          2    1    1    2  501    0 -0.66137871646E+01 -0.21453916787E+02  0.41623999064E+02  0.47292388650E+02  0.00000000000E+00 0. -1.
          1    1    1    2  502    0  0.66137871646E+01  0.21453916787E+02  0.94000241828E+01  0.24338717731E+02  0.00000000000E+00 0.  1.
</event>
<event>
 4    1  0.3664744E+003  0.3189547E+02  0.7546771E-02  0.1403810E+00
          2   -1    0    0  502    0  0.00000000000E+00  0.00000000000E+00  0.40562481355E+02  0.40562481355E+02  0.00000000000E+00 0.  1.
          1   -1    0    0  501    0 -0.00000000000E+00 -0.00000000000E+00 -0.37845127129E+03  0.37845127129E+03  0.00000000000E+00 0. -1.
          2    1    1    2  501    0 -0.46684700543E+01 -0.31551958447E+02  0.33501376495E+02  0.46256490588E+02  0.00000000000E+00 0.  1.
          1    1    1    2  502    0  0.46684700543E+01  0.31551958447E+02 -0.37139016643E+03  0.37275726205E+03  0.00000000000E+00 0. -1.
</event>
<event>
 4    1  0.3664744E+003  0.2064919E+02  0.7546771E-02  0.1524333E+00
          2   -1    0    0  502    0  0.00000000000E+00  0.00000000000E+00  0.51576163104E+03  0.51576163104E+03  0.00000000000E+00 0.  1.
          1   -1    0    0  501    0 -0.00000000000E+00 -0.00000000000E+00 -0.13099558598E+01  0.13099558598E+01  0.00000000000E+00 0. -1.
          2    1    1    2  501    0 -0.93157595068E+01 -0.18428390777E+02  0.41425243720E+03  0.41476676661E+03  0.00000000000E+00 0.  1.
          1    1    1    2  502    0  0.93157595068E+01  0.18428390777E+02  0.10019923799E+03  0.10230482029E+03  0.00000000000E+00 0. -1.
</event>
<event>
 4    1  0.3664744E+003  0.2086090E+02  0.7546771E-02  0.1521260E+00
          2   -1    0    0  502    0  0.00000000000E+00  0.00000000000E+00  0.26048035184E+02  0.26048035184E+02  0.00000000000E+00 0. -1.
          1   -1    0    0  501    0 -0.00000000000E+00 -0.00000000000E+00 -0.39402961252E+02  0.39402961252E+02  0.00000000000E+00 0. -1.
          2    1    1    2  501    0  0.20717147231E+02 -0.24447884501E+01  0.18159519067E+02  0.27657644743E+02  0.00000000000E+00 0. -1.
          1    1    1    2  502    0 -0.20717147231E+02  0.24447884501E+01 -0.31514445136E+02  0.37793351693E+02  0.00000000000E+00 0. -1.
</event>
<event>
 4    1  0.3664744E+003  0.2178036E+02  0.7546771E-02  0.1508409E+00
          2   -1    0    0  502    0  0.00000000000E+00  0.00000000000E+00  0.16526651957E+04  0.16526651957E+04  0.00000000000E+00 0.  1.
          1   -1    0    0  501    0 -0.00000000000E+00 -0.00000000000E+00 -0.33859162495E+00  0.33859162495E+00  0.00000000000E+00 0.  1.
          2    1    1    2  501    0  0.93750225630E+01 -0.19659430505E+02  0.11486551000E+04  0.11488615769E+04  0.00000000000E+00 0.  1.
          1    1    1    2  502    0 -0.93750225630E+01  0.19659430505E+02  0.50367150409E+03  0.50414221038E+03  0.00000000000E+00 0.  1.
</event>
<event>
 4    1  0.3664744E+003  0.4286524E+02  0.7546771E-02  0.1332467E+00
          2   -1    0    0  502    0  0.00000000000E+00  0.00000000000E+00  0.11571831873E+04  0.11571831873E+04  0.00000000000E+00 0.  1.
          1   -1    0    0  501    0 -0.00000000000E+00 -0.00000000000E+00 -0.76506339444E+02  0.76506339444E+02  0.00000000000E+00 0.  1.
          2    1    1    2  501    0  0.21376487797E+02  0.37154737853E+02  0.11507484919E+04  0.11515465776E+04  0.00000000000E+00 0.  1.
          1    1    1    2  502    0 -0.21376487797E+02 -0.37154737853E+02 -0.70071644107E+02  0.82142949079E+02  0.00000000000E+00 0.  1.
</event>
<event>
 4    1  0.3664744E+003  0.2787469E+02  0.7546771E-02  0.1439014E+00
          2   -1    0    0  502    0  0.00000000000E+00  0.00000000000E+00  0.18018316530E+04  0.18018316530E+04  0.00000000000E+00 0. -1.
          1   -1    0    0  501    0 -0.00000000000E+00 -0.00000000000E+00 -0.43378339704E+01  0.43378339704E+01  0.00000000000E+00 0. -1.
          2    1    1    2  501    0  0.88899837199E+01 -0.26419059044E+02  0.17557687743E+04  0.17559900306E+04  0.00000000000E+00 0. -1.
          1    1    1    2  502    0 -0.88899837199E+01  0.26419059044E+02  0.41725044711E+02  0.50179456428E+02  0.00000000000E+00 0. -1.
</event>
<event>
 4    1  0.3664744E+003  0.2928371E+02  0.7546771E-02  0.1425925E+00
          2   -1    0    0  502    0  0.00000000000E+00  0.00000000000E+00  0.14609778476E+02  0.14609778476E+02  0.00000000000E+00 0.  1.
          1   -1    0    0  501    0 -0.00000000000E+00 -0.00000000000E+00 -0.47302919622E+03  0.47302919622E+03  0.00000000000E+00 0. -1.
          2    1    1    2  501    0 -0.28611572092E+02 -0.62380610673E+01 -0.10182900030E+01  0.29301405734E+02  0.00000000000E+00 0.  1.
          1    1    1    2  502    0  0.28611572092E+02  0.62380610673E+01 -0.45740112774E+03  0.45833756896E+03  0.00000000000E+00 0. -1.
</event>
<event>
 4    1  0.3664744E+003  0.2633035E+02  0.7546771E-02  0.1454453E+00
          2   -1    0    0  502    0  0.00000000000E+00  0.00000000000E+00  0.12337354034E+04  0.12337354034E+04  0.00000000000E+00 0. -1.
          1   -1    0    0  501    0 -0.00000000000E+00 -0.00000000000E+00 -0.11611471622E+02  0.11611471622E+02  0.00000000000E+00 0.  1.
          2    1    1    2  501    0  0.11076494987E+02  0.23887206509E+02  0.12184812955E+04  0.12187657506E+04  0.00000000000E+00 0. -1.
          1    1    1    2  502    0 -0.11076494987E+02 -0.23887206509E+02  0.36426362775E+01  0.26581124413E+02  0.00000000000E+00 0.  1.
</event>
<event>
 4    1  0.3664744E+003  0.3599230E+02  0.7546771E-02  0.1373718E+00
          2   -1    0    0  502    0  0.00000000000E+00  0.00000000000E+00  0.32335476916E+03  0.32335476916E+03  0.00000000000E+00 0. -1.
          1   -1    0    0  501    0 -0.00000000000E+00 -0.00000000000E+00 -0.16403261555E+03  0.16403261555E+03  0.00000000000E+00 0.  1.
          2    1    1    2  501    0  0.30203426655E+02  0.19575463221E+02  0.32036043392E+03  0.32237595035E+03  0.00000000000E+00 0. -1.
          1    1    1    2  502    0 -0.30203426655E+02 -0.19575463221E+02 -0.16103828031E+03  0.16501143436E+03  0.00000000000E+00 0.  1.
</event>
<event>
 4    1  0.3664744E+003  0.2092574E+02  0.7546771E-02  0.1520328E+00
          2   -1    0    0  502    0  0.00000000000E+00  0.00000000000E+00  0.33175855249E+01  0.33175855249E+01  0.00000000000E+00 0. -1.
          1   -1    0    0  501    0 -0.00000000000E+00 -0.00000000000E+00 -0.17135099247E+03  0.17135099247E+03  0.00000000000E+00 0.  1.
          2    1    1    2  501    0  0.75869204869E+01 -0.19501933732E+02 -0.42158873313E+02  0.47066520806E+02  0.00000000000E+00 0. -1.
          1    1    1    2  502    0 -0.75869204869E+01  0.19501933732E+02 -0.12587453363E+03  0.12760205718E+03  0.00000000000E+00 0.  1.
</event>
<event>
 4    1  0.3664744E+003  0.2168399E+02  0.7546771E-02  0.1509719E+00
          2   -1    0    0  502    0  0.00000000000E+00  0.00000000000E+00  0.48980988816E+03  0.48980988816E+03  0.00000000000E+00 0. -1.
          1   -1    0    0  501    0 -0.00000000000E+00 -0.00000000000E+00 -0.23337018980E+01  0.23337018980E+01  0.00000000000E+00 0. -1.
          2    1    1    2  501    0 -0.12516941966E+02 -0.17706535834E+02  0.43253400056E+03  0.43307719507E+03  0.00000000000E+00 0. -1.
          1    1    1    2  502    0  0.12516941966E+02  0.17706535834E+02  0.54942185702E+02  0.59066394990E+02  0.00000000000E+00 0. -1.
</event>
<event>
 4    1  0.3664744E+003  0.2162847E+02  0.7546771E-02  0.1510478E+00
          2   -1    0    0  502    0  0.00000000000E+00  0.00000000000E+00  0.10259219545E+03  0.10259219545E+03  0.00000000000E+00 0.  1.
          1   -1    0    0  501    0 -0.00000000000E+00 -0.00000000000E+00 -0.97537464807E+01  0.97537464807E+01  0.00000000000E+00 0.  1.
          2    1    1    2  501    0 -0.10293007518E+02  0.19022215403E+02  0.87410756595E+02  0.90046826991E+02  0.00000000000E+00 0.  1.
          1    1    1    2  502    0  0.10293007518E+02 -0.19022215403E+02  0.54276923746E+01  0.22299114940E+02  0.00000000000E+00 0.  1.
</event>
<event>
 4    1  0.3664744E+003  0.3080447E+02  0.7546771E-02  0.1412732E+00
          2   -1    0    0  502    0  0.00000000000E+00  0.00000000000E+00  0.16842010576E+04  0.16842010576E+04  0.00000000000E+00 0.  1.
          1   -1    0    0  501    0 -0.00000000000E+00 -0.00000000000E+00 -0.14865128922E+01  0.14865128922E+01  0.00000000000E+00 0.  1.
          2    1    1    2  501    0  0.93597338323E+01  0.29348094059E+02  0.15055361770E+04  0.15058512860E+04  0.00000000000E+00 0.  1.
          1    1    1    2  502    0 -0.93597338323E+01 -0.29348094059E+02  0.17717836770E+03  0.17983628450E+03  0.00000000000E+00 0.  1.
</event>
<event>
 4    1  0.3664744E+003  0.2211887E+02  0.7546771E-02  0.1503869E+00
          2   -1    0    0  502    0  0.00000000000E+00  0.00000000000E+00  0.20600909223E+02  0.20600909223E+02  0.00000000000E+00 0.  1.
          1   -1    0    0  501    0 -0.00000000000E+00 -0.00000000000E+00 -0.12844683392E+04  0.12844683392E+04  0.00000000000E+00 0. -1.
          2    1    1    2  501    0  0.19890876443E+02 -0.96745802182E+01  0.14540371066E+02  0.26470112558E+02  0.00000000000E+00 0.  1.
          1    1    1    2  502    0 -0.19890876443E+02  0.96745802182E+01 -0.12784078010E+04  0.12785991359E+04  0.00000000000E+00 0. -1.
</event>
<event>
 4    1  0.3664744E+003  0.2303367E+02  0.7546771E-02  0.1492076E+00
          2   -1    0    0  502    0  0.00000000000E+00  0.00000000000E+00  0.14329715699E+04  0.14329715699E+04  0.00000000000E+00 0.  1.
          1   -1    0    0  501    0 -0.00000000000E+00 -0.00000000000E+00 -0.43497532117E+00  0.43497532117E+00  0.00000000000E+00 0.  1.
          2    1    1    2  501    0 -0.12756520365E+02  0.19178663539E+02  0.99274745152E+03  0.99301462852E+03  0.00000000000E+00 0.  1.
          1    1    1    2  502    0  0.12756520365E+02 -0.19178663539E+02  0.43978914306E+03  0.44039191670E+03  0.00000000000E+00 0.  1.
</event>
<event>
 4    1  0.3664744E+003  0.3487105E+02  0.7546771E-02  0.1381472E+00
          2   -1    0    0  502    0  0.00000000000E+00  0.00000000000E+00  0.88896352635E+02  0.88896352635E+02  0.00000000000E+00 0. -1.
          1   -1    0    0  501    0 -0.00000000000E+00 -0.00000000000E+00 -0.28206602174E+02  0.28206602174E+02  0.00000000000E+00 0.  1.
          2    1    1    2  501    0 -0.34676740244E+02 -0.36760767840E+01  0.72365583393E+02  0.80329119965E+02  0.00000000000E+00 0. -1.
          1    1    1    2  502    0  0.34676740244E+02  0.36760767840E+01 -0.11675832933E+02  0.36773834845E+02  0.00000000000E+00 0.  1.
</event>
<event>
 4    1  0.3664744E+003  0.3762297E+02  0.7546771E-02  0.1363008E+00
          2   -1    0    0  502    0  0.00000000000E+00  0.00000000000E+00  0.26035914180E+02  0.26035914180E+02  0.00000000000E+00 0. -1.
          1   -1    0    0  501    0 -0.00000000000E+00 -0.00000000000E+00 -0.73010667105E+02  0.73010667105E+02  0.00000000000E+00 0. -1.
          2    1    1    2  501    0  0.11866035842E+02  0.35702727243E+02  0.15382605153E+01  0.37654399273E+02  0.00000000000E+00 0. -1.
          1    1    1    2  502    0 -0.11866035842E+02 -0.35702727243E+02 -0.48513013440E+02  0.61392182012E+02  0.00000000000E+00 0. -1.
</event>
<event>
 4    1  0.3664744E+003  0.2771987E+02  0.7546771E-02  0.1440508E+00
          2   -1    0    0  502    0  0.00000000000E+00  0.00000000000E+00  0.13803305932E+03  0.13803305932E+03  0.00000000000E+00 0.  1.
          1   -1    0    0  501    0 -0.00000000000E+00 -0.00000000000E+00 -0.56230612116E+01  0.56230612116E+01  0.00000000000E+00 0.  1.
          2    1    1    2  501    0  0.17414596308E+02  0.21566715874E+02  0.73394862660E+02  0.78455065247E+02  0.00000000000E+00 0.  1.
          1    1    1    2  502    0 -0.17414596308E+02 -0.21566715874E+02  0.59015135448E+02  0.65201055284E+02  0.00000000000E+00 0.  1.
</event>
<event>
 4    1  0.3664744E+003  0.2353368E+02  0.7546771E-02  0.1485903E+00
          2   -1    0    0  502    0  0.00000000000E+00  0.00000000000E+00  0.90328123706E+02  0.90328123706E+02  0.00000000000E+00 0. -1.
          1   -1    0    0  501    0 -0.00000000000E+00 -0.00000000000E+00 -0.80229109783E+03  0.80229109783E+03  0.00000000000E+00 0.  1.
          2    1    1    2  501    0  0.23517747772E+02  0.86571167641E+00  0.88619434915E+02  0.91690992805E+02  0.00000000000E+00 0. -1.
          1    1    1    2  502    0 -0.23517747772E+02 -0.86571167641E+00 -0.80058240904E+03  0.80092822873E+03  0.00000000000E+00 0.  1.
</event>
<event>
 4    1  0.3664744E+003  0.2165789E+02  0.7546771E-02  0.1510076E+00
          2   -1    0    0  502    0  0.00000000000E+00  0.00000000000E+00  0.12553776144E+04  0.12553776144E+04  0.00000000000E+00 0. -1.
          1   -1    0    0  501    0 -0.00000000000E+00 -0.00000000000E+00 -0.38086893650E+00  0.38086893650E+00  0.00000000000E+00 0. -1.
          2    1    1    2  501    0  0.41649206821E+01  0.21253646641E+02  0.71397752729E+03  0.71430593834E+03  0.00000000000E+00 0. -1.
          1    1    1    2  502    0 -0.41649206821E+01 -0.21253646641E+02  0.54101921813E+03  0.54145254496E+03  0.00000000000E+00 0. -1.
</event>
<event>
 4    1  0.3664744E+003  0.3005551E+02  0.7546771E-02  0.1419115E+00
          2   -1    0    0  502    0  0.00000000000E+00  0.00000000000E+00  0.23987865056E+02  0.23987865056E+02  0.00000000000E+00 0. -1.
          1   -1    0    0  501    0 -0.00000000000E+00 -0.00000000000E+00 -0.20143197431E+03  0.20143197431E+03  0.00000000000E+00 0.  1.
          2    1    1    2  501    0 -0.45008659823E+01 -0.29716596321E+02  0.12907598242E+02  0.32709937082E+02  0.00000000000E+00 0. -1.
          1    1    1    2  502    0  0.45008659823E+01  0.29716596321E+02 -0.19035170750E+03  0.19270990228E+03  0.00000000000E+00 0.  1.
</event>
<event>
 4    1  0.3664744E+003  0.2307095E+02  0.7546771E-02  0.1491609E+00
          2   -1    0    0  502    0  0.00000000000E+00  0.00000000000E+00  0.13717684698E+04  0.13717684698E+04  0.00000000000E+00 0. -1.
          1   -1    0    0  501    0 -0.00000000000E+00 -0.00000000000E+00 -0.48930899227E+02  0.48930899227E+02  0.00000000000E+00 0. -1.
          2    1    1    2  501    0 -0.21965293933E+01  0.22966151735E+02  0.13689463672E+04  0.13691407616E+04  0.00000000000E+00 0. -1.
          1    1    1    2  502    0  0.21965293933E+01 -0.22966151735E+02 -0.46108796648E+02  0.51558607382E+02  0.00000000000E+00 0. -1.
</event>
<event>
 4    1  0.3664744E+003  0.5575439E+02  0.7546771E-02  0.1274982E+00
          2   -1    0    0  502    0  0.00000000000E+00  0.00000000000E+00  0.14409545698E+03  0.14409545698E+03  0.00000000000E+00 0.  1.
          1   -1    0    0  501    0 -0.00000000000E+00 -0.00000000000E+00 -0.21604891525E+02  0.21604891525E+02  0.00000000000E+00 0.  1.
          2    1    1    2  501    0  0.54088547654E+02  0.13527066675E+02  0.64434912681E+02  0.85208042416E+02  0.00000000000E+00 0.  1.
          1    1    1    2  502    0 -0.54088547654E+02 -0.13527066675E+02  0.58055652770E+02  0.80492306084E+02  0.00000000000E+00 0.  1.
</event>
<event>
 4    1  0.3664744E+003  0.2146684E+02  0.7546771E-02  0.1512703E+00
          2   -1    0    0  502    0  0.00000000000E+00  0.00000000000E+00  0.13720218102E+02  0.13720218102E+02  0.00000000000E+00 0.  1.
          1   -1    0    0  501    0 -0.00000000000E+00 -0.00000000000E+00 -0.10611391735E+03  0.10611391735E+03  0.00000000000E+00 0. -1.
          2    1    1    2  501    0  0.21414380159E+02 -0.14998658628E+01  0.33382506561E+01  0.21724851959E+02  0.00000000000E+00 0.  1.
          1    1    1    2  502    0 -0.21414380159E+02  0.14998658628E+01 -0.95731949900E+02  0.98109283490E+02  0.00000000000E+00 0. -1.
</event>
<event>
 4    1  0.3664744E+003  0.2980706E+02  0.7546771E-02  0.1421281E+00
          2   -1    0    0  502    0  0.00000000000E+00  0.00000000000E+00  0.22202922665E+02  0.22202922665E+02  0.00000000000E+00 0. -1.
          1   -1    0    0  501    0 -0.00000000000E+00 -0.00000000000E+00 -0.41674789282E+02  0.41674789282E+02  0.00000000000E+00 0. -1.
          2    1    1    2  501    0 -0.25365022682E+02  0.15654926672E+02 -0.33629410369E+01  0.29996174376E+02  0.00000000000E+00 0. -1.
          1    1    1    2  502    0  0.25365022682E+02 -0.15654926672E+02 -0.16108925581E+02  0.33881537571E+02  0.00000000000E+00 0. -1.
</event>
<event>
 4    1  0.3664744E+003  0.2064207E+02  0.7546771E-02  0.1524437E+00
          2   -1    0    0  502    0  0.00000000000E+00  0.00000000000E+00  0.17994706837E+03  0.17994706837E+03  0.00000000000E+00 0.  1.
          1   -1    0    0  501    0 -0.00000000000E+00 -0.00000000000E+00 -0.11010506033E+02  0.11010506033E+02  0.00000000000E+00 0. -1.
          2    1    1    2  501    0 -0.12291909556E+02  0.16583242436E+02  0.16905961031E+03  0.17031513969E+03  0.00000000000E+00 0.  1.
          1    1    1    2  502    0  0.12291909556E+02 -0.16583242436E+02 -0.12304796682E+00  0.20642434716E+02  0.00000000000E+00 0. -1.
</event>
<event>
 4    1  0.3664744E+003  0.2883137E+02  0.7546771E-02  0.1430031E+00
          2   -1    0    0  502    0  0.00000000000E+00  0.00000000000E+00  0.43745747213E+03  0.43745747213E+03  0.00000000000E+00 0. -1.
          1   -1    0    0  501    0 -0.00000000000E+00 -0.00000000000E+00 -0.15461322939E+02  0.15461322939E+02  0.00000000000E+00 0.  1.
          2    1    1    2  501    0 -0.76230465254E+01  0.27805340842E+02  0.42308562360E+03  0.42406684934E+03  0.00000000000E+00 0. -1.
          1    1    1    2  502    0  0.76230465254E+01 -0.27805340842E+02 -0.10894744061E+01  0.28851945726E+02  0.00000000000E+00 0.  1.
</event>
<event>
 4    1  0.3664744E+003  0.2588950E+02  0.7546771E-02  0.1459094E+00
          2   -1    0    0  502    0  0.00000000000E+00  0.00000000000E+00  0.26282254041E+03  0.26282254041E+03  0.00000000000E+00 0. -1.
          1   -1    0    0  501    0 -0.00000000000E+00 -0.00000000000E+00 -0.51988518030E+02  0.51988518030E+02  0.00000000000E+00 0.  1.
          2    1    1    2  501    0  0.24387080641E+02  0.86911842288E+01  0.25891328432E+03  0.26020444881E+03  0.00000000000E+00 0. -1.
          1    1    1    2  502    0 -0.24387080641E+02 -0.86911842288E+01 -0.48079261943E+02  0.54606609623E+02  0.00000000000E+00 0.  1.
</event>
<event>
 4    1  0.3664744E+003  0.2015535E+02  0.7546771E-02  0.1531674E+00
          2   -1    0    0  502    0  0.00000000000E+00  0.00000000000E+00  0.13425586353E+03  0.13425586353E+03  0.00000000000E+00 0. -1.
          1   -1    0    0  501    0 -0.00000000000E+00 -0.00000000000E+00 -0.57805914953E+01  0.57805914953E+01  0.00000000000E+00 0. -1.
          2    1    1    2  501    0  0.19481687146E+02  0.51673920356E+01  0.11257304703E+03  0.11436314525E+03  0.00000000000E+00 0. -1.
          1    1    1    2  502    0 -0.19481687146E+02 -0.51673920356E+01  0.15902225001E+02  0.25673309769E+02  0.00000000000E+00 0. -1.
</event>
<event>
 4    1  0.3664744E+003  0.4871197E+02  0.7546771E-02  0.1303856E+00
          2   -1    0    0  502    0  0.00000000000E+00  0.00000000000E+00  0.48505943087E+01  0.48505943087E+01  0.00000000000E+00 0. -1.
          1   -1    0    0  501    0 -0.00000000000E+00 -0.00000000000E+00 -0.65175977039E+03  0.65175977039E+03  0.00000000000E+00 0. -1.
          2    1    1    2  501    0 -0.39308958083E+02  0.28769111506E+02 -0.15948791486E+03  0.16676105945E+03  0.00000000000E+00 0. -1.
          1    1    1    2  502    0  0.39308958083E+02 -0.28769111506E+02 -0.48742126122E+03  0.48984930525E+03  0.00000000000E+00 0. -1.
</event>
<event>
 4    1  0.3664744E+003  0.2722514E+02  0.7546771E-02  0.1445360E+00
          2   -1    0    0  502    0  0.00000000000E+00  0.00000000000E+00  0.15903637029E+04  0.15903637029E+04  0.00000000000E+00 0.  1.
          1   -1    0    0  501    0 -0.00000000000E+00 -0.00000000000E+00 -0.10372017130E+01  0.10372017130E+01  0.00000000000E+00 0. -1.
          2    1    1    2  501    0 -0.14471757419E+02  0.23060274127E+02  0.13851214957E+04  0.13853890305E+04  0.00000000000E+00 0.  1.
          1    1    1    2  502    0  0.14471757419E+02 -0.23060274127E+02  0.20420500546E+03  0.20601187407E+03  0.00000000000E+00 0. -1.
</event>
<event>
 4    1  0.4048963E+003  0.3597025E+02  0.7546771E-02  0.1373867E+00
          2   -1    0    0  502    0  0.00000000000E+00  0.00000000000E+00  0.88776098117E+03  0.88776098117E+03  0.00000000000E+00 0.  1.
          1   -1    0    0  501    0 -0.00000000000E+00 -0.00000000000E+00 -0.10773238953E+04  0.10773238953E+04  0.00000000000E+00 0. -1.
          2    1    1    2  501    0  0.35573968475E+02  0.53246376527E+01  0.88709614769E+03  0.88782511467E+03  0.00000000000E+00 0.  1.
          1    1    1    2  502    0 -0.35573968475E+02 -0.53246376527E+01 -0.10766590618E+04  0.10772597618E+04  0.00000000000E+00 0. -1.
</event>
<event>
 4    1  0.3664744E+003  0.2137920E+02  0.7546771E-02  0.1513919E+00
          2   -1    0    0  502    0  0.00000000000E+00  0.00000000000E+00  0.17833803968E+03  0.17833803968E+03  0.00000000000E+00 0.  1.
          1   -1    0    0  501    0 -0.00000000000E+00 -0.00000000000E+00 -0.49717121788E+01  0.49717121788E+01  0.00000000000E+00 0.  1.
          2    1    1    2  501    0  0.16776898088E+02 -0.13251632767E+02  0.15048016320E+03  0.15199128132E+03  0.00000000000E+00 0.  1.
          1    1    1    2  502    0 -0.16776898088E+02  0.13251632767E+02  0.22886164297E+02  0.31318470536E+02  0.00000000000E+00 0.  1.
</event>
<event>
 4    1  0.3664744E+003  0.2078599E+02  0.7546771E-02  0.1522342E+00
          2   -1    0    0  502    0  0.00000000000E+00  0.00000000000E+00  0.11895655286E+03  0.11895655286E+03  0.00000000000E+00 0.  1.
          1   -1    0    0  501    0 -0.00000000000E+00 -0.00000000000E+00 -0.31647363196E+03  0.31647363196E+03  0.00000000000E+00 0.  1.
          2    1    1    2  501    0 -0.86885357120E+00  0.20767827108E+02  0.11770362607E+03  0.11952489757E+03  0.00000000000E+00 0.  1.
          1    1    1    2  502    0  0.86885357120E+00 -0.20767827108E+02 -0.31522070517E+03  0.31590528725E+03  0.00000000000E+00 0.  1.
</event>
<event>
 4    1  0.3664744E+003  0.2011720E+02  0.7546771E-02  0.1532252E+00
          2   -1    0    0  502    0  0.00000000000E+00  0.00000000000E+00  0.25613586301E+03  0.25613586301E+03  0.00000000000E+00 0. -1.
          1   -1    0    0  501    0 -0.00000000000E+00 -0.00000000000E+00 -0.68597278564E+01  0.68597278564E+01  0.00000000000E+00 0. -1.
          2    1    1    2  501    0  0.18267897303E+02 -0.84253067927E+01  0.24000189091E+03  0.24084353740E+03  0.00000000000E+00 0. -1.
          1    1    1    2  502    0 -0.18267897303E+02  0.84253067927E+01  0.92742442395E+01  0.22152053463E+02  0.00000000000E+00 0. -1.
</event>
<event>
 4    1  0.3664744E+003  0.2106071E+02  0.7546771E-02  0.1518400E+00
          2   -1    0    0  502    0  0.00000000000E+00  0.00000000000E+00  0.20739194982E+03  0.20739194982E+03  0.00000000000E+00 0. -1.
          1   -1    0    0  501    0 -0.00000000000E+00 -0.00000000000E+00 -0.87073451758E+03  0.87073451758E+03  0.00000000000E+00 0.  1.
          2    1    1    2  501    0 -0.78088117836E+01  0.19559544675E+02  0.20672951244E+03  0.20779952994E+03  0.00000000000E+00 0. -1.
          1    1    1    2  502    0  0.78088117836E+01 -0.19559544675E+02 -0.87007208020E+03  0.87032693746E+03  0.00000000000E+00 0.  1.
</event>
<event>
 4    1  0.3664744E+003  0.2213757E+02  0.7546771E-02  0.1503621E+00
          2   -1    0    0  502    0  0.00000000000E+00  0.00000000000E+00  0.17231463671E+03  0.17231463671E+03  0.00000000000E+00 0.  1.
          1   -1    0    0  501    0 -0.00000000000E+00 -0.00000000000E+00 -0.37071364433E+03  0.37071364433E+03  0.00000000000E+00 0.  1.
          2    1    1    2  501    0 -0.16481544970E+02  0.14779406492E+02  0.17127112547E+03  0.17269589051E+03  0.00000000000E+00 0.  1.
          1    1    1    2  502    0  0.16481544970E+02 -0.14779406492E+02 -0.36967013308E+03  0.37033239053E+03  0.00000000000E+00 0.  1.
</event>
<event>
 4    1  0.3664744E+003  0.2889398E+02  0.7546771E-02  0.1429457E+00
          2   -1    0    0  502    0  0.00000000000E+00  0.00000000000E+00  0.11543706723E+02  0.11543706723E+02  0.00000000000E+00 0. -1.
          1   -1    0    0  501    0 -0.00000000000E+00 -0.00000000000E+00 -0.77463550371E+02  0.77463550371E+02  0.00000000000E+00 0.  1.
          2    1    1    2  501    0 -0.19754400038E+02 -0.21086156106E+02 -0.21494241357E+02  0.36012007882E+02  0.00000000000E+00 0. -1.
          1    1    1    2  502    0  0.19754400038E+02  0.21086156106E+02 -0.44425602291E+02  0.52995249212E+02  0.00000000000E+00 0.  1.
</event>
<event>
 4    1  0.3664744E+003  0.2804004E+02  0.7546771E-02  0.1437431E+00
          2   -1    0    0  502    0  0.00000000000E+00  0.00000000000E+00  0.14679961122E+01  0.14679961122E+01  0.00000000000E+00 0. -1.
          1   -1    0    0  501    0 -0.00000000000E+00 -0.00000000000E+00 -0.85122704058E+03  0.85122704058E+03  0.00000000000E+00 0.  1.
          2    1    1    2  501    0 -0.27386893652E+02 -0.60167913783E+01 -0.16526130523E+03  0.16762321655E+03  0.00000000000E+00 0. -1.
          1    1    1    2  502    0  0.27386893652E+02  0.60167913783E+01 -0.68449773924E+03  0.68507182014E+03  0.00000000000E+00 0.  1.
</event>
<event>
 4    1  0.3664744E+003  0.3129004E+02  0.7546771E-02  0.1408708E+00
          2   -1    0    0  502    0  0.00000000000E+00  0.00000000000E+00  0.36112746732E+03  0.36112746732E+03  0.00000000000E+00 0. -1.
          1   -1    0    0  501    0 -0.00000000000E+00 -0.00000000000E+00 -0.65808550645E+01  0.65808550645E+01  0.00000000000E+00 0.  1.
          2    1    1    2  501    0 -0.89636961531E+01  0.29978634450E+02  0.31825798234E+03  0.31979244784E+03  0.00000000000E+00 0. -1.
          1    1    1    2  502    0  0.89636961531E+01 -0.29978634450E+02  0.36288629914E+02  0.47915874544E+02  0.00000000000E+00 0.  1.
</event>
<event>
 4    1  0.3664744E+003  0.2334463E+02  0.7546771E-02  0.1488215E+00
          2   -1    0    0  502    0  0.00000000000E+00  0.00000000000E+00  0.78999472371E+02  0.78999472371E+02  0.00000000000E+00 0. -1.
          1   -1    0    0  501    0 -0.00000000000E+00 -0.00000000000E+00 -0.15591954869E+02  0.15591954869E+02  0.00000000000E+00 0. -1.
          2    1    1    2  501    0 -0.23189390489E+02  0.26877557854E+01  0.67019603298E+02  0.70969000899E+02  0.00000000000E+00 0. -1.
          1    1    1    2  502    0  0.23189390489E+02 -0.26877557854E+01 -0.36120857950E+01  0.23622426341E+02  0.00000000000E+00 0. -1.
</event>
<event>
 4    1  0.3664744E+003  0.2048949E+02  0.7546771E-02  0.1526680E+00
          2   -1    0    0  502    0  0.00000000000E+00  0.00000000000E+00  0.72351640372E+03  0.72351640372E+03  0.00000000000E+00 0. -1.
          1   -1    0    0  501    0 -0.00000000000E+00 -0.00000000000E+00 -0.60410394554E+00  0.60410394554E+00  0.00000000000E+00 0.  1.
          2    1    1    2  501    0 -0.20174083702E+02 -0.35812717788E+01  0.43340446596E+03  0.43388852287E+03  0.00000000000E+00 0. -1.
          1    1    1    2  502    0  0.20174083702E+02  0.35812717788E+01  0.28950783381E+03  0.29023198480E+03  0.00000000000E+00 0.  1.
</event>
<event>
 4    1  0.3664744E+003  0.2067871E+02  0.7546771E-02  0.1523902E+00
          2   -1    0    0  502    0  0.00000000000E+00  0.00000000000E+00  0.13348553124E+04  0.13348553124E+04  0.00000000000E+00 0.  1.
          1   -1    0    0  501    0 -0.00000000000E+00 -0.00000000000E+00 -0.53782826944E+00  0.53782826944E+00  0.00000000000E+00 0.  1.
          2    1    1    2  501    0  0.11613234820E+02 -0.17109698795E+02  0.10917530379E+04  0.10919488563E+04  0.00000000000E+00 0.  1.
          1    1    1    2  502    0 -0.11613234820E+02  0.17109698795E+02  0.24256444618E+03  0.24344428432E+03  0.00000000000E+00 0.  1.
</event>
<event>
 4    1  0.3664744E+003  0.2759940E+02  0.7546771E-02  0.1441678E+00
          2   -1    0    0  502    0  0.00000000000E+00  0.00000000000E+00  0.97083827766E+02  0.97083827766E+02  0.00000000000E+00 0.  1.
          1   -1    0    0  501    0 -0.00000000000E+00 -0.00000000000E+00 -0.15027150196E+02  0.15027150196E+02  0.00000000000E+00 0.  1.
          2    1    1    2  501    0  0.25598882319E+02 -0.10316211037E+02  0.79778594375E+02  0.84417717966E+02  0.00000000000E+00 0.  1.
          1    1    1    2  502    0 -0.25598882319E+02  0.10316211037E+02  0.22780831951E+01  0.27693259996E+02  0.00000000000E+00 0.  1.
</event>
<event>
 4    1  0.3664744E+003  0.2045661E+02  0.7546771E-02  0.1527166E+00
          2   -1    0    0  502    0  0.00000000000E+00  0.00000000000E+00  0.77728371696E+02  0.77728371696E+02  0.00000000000E+00 0.  1.
          1   -1    0    0  501    0 -0.00000000000E+00 -0.00000000000E+00 -0.43992191376E+03  0.43992191376E+03  0.00000000000E+00 0.  1.
          2    1    1    2  501    0  0.18303389799E+01  0.20374559579E+02  0.76139739266E+02  0.78839918280E+02  0.00000000000E+00 0.  1.
          1    1    1    2  502    0 -0.18303389799E+01 -0.20374559579E+02 -0.43833328133E+03  0.43881036718E+03  0.00000000000E+00 0.  1.
</event>
<event>
 4    1  0.3664744E+003  0.2824134E+02  0.7546771E-02  0.1435522E+00
          2   -1    0    0  502    0  0.00000000000E+00  0.00000000000E+00  0.32976961144E+01  0.32976961144E+01  0.00000000000E+00 0.  1.
          1   -1    0    0  501    0 -0.00000000000E+00 -0.00000000000E+00 -0.41023685712E+03  0.41023685712E+03  0.00000000000E+00 0.  1.
          2    1    1    2  501    0  0.26687003761E+02 -0.92399817119E+01 -0.71002323521E+02  0.76412717378E+02  0.00000000000E+00 0.  1.
          1    1    1    2  502    0 -0.26687003761E+02  0.92399817119E+01 -0.33593683748E+03  0.33712183585E+03  0.00000000000E+00 0.  1.
</event>
<event>
 4    1  0.3664744E+003  0.3146782E+02  0.7546771E-02  0.1407256E+00
          2   -1    0    0  502    0  0.00000000000E+00  0.00000000000E+00  0.18339362165E+04  0.18339362165E+04  0.00000000000E+00 0. -1.
          1   -1    0    0  501    0 -0.00000000000E+00 -0.00000000000E+00 -0.20860731059E+01  0.20860731059E+01  0.00000000000E+00 0.  1.
          2    1    1    2  501    0  0.31059016520E+02  0.50557926809E+01  0.17062506115E+04  0.17065407621E+04  0.00000000000E+00 0. -1.
          1    1    1    2  502    0 -0.31059016520E+02 -0.50557926809E+01  0.12559953187E+03  0.12948152746E+03  0.00000000000E+00 0.  1.
</event>
<event>
 4    1  0.3664744E+003  0.2305740E+02  0.7546771E-02  0.1491779E+00
          2   -1    0    0  502    0  0.00000000000E+00  0.00000000000E+00  0.45271616346E+03  0.45271616346E+03  0.00000000000E+00 0.  1.
          1   -1    0    0  501    0 -0.00000000000E+00 -0.00000000000E+00 -0.16190043058E+02  0.16190043058E+02  0.00000000000E+00 0.  1.
          2    1    1    2  501    0 -0.16655334794E+02 -0.15945020572E+02  0.44405310112E+03  0.44465132460E+03  0.00000000000E+00 0.  1.
          1    1    1    2  502    0  0.16655334794E+02  0.15945020572E+02 -0.75269807145E+01  0.24254881917E+02  0.00000000000E+00 0.  1.
</event>
<event>
 4    1  0.3664744E+003  0.2978912E+02  0.7546771E-02  0.1421438E+00
          2   -1    0    0  502    0  0.00000000000E+00  0.00000000000E+00  0.51181981229E+01  0.51181981229E+01  0.00000000000E+00 0.  1.
          1   -1    0    0  501    0 -0.00000000000E+00 -0.00000000000E+00 -0.21105238918E+03  0.21105238918E+03  0.00000000000E+00 0.  1.
          2    1    1    2  501    0  0.26597581939E+02  0.13414933729E+02 -0.57301975348E+02  0.64582568784E+02  0.00000000000E+00 0.  1.
          1    1    1    2  502    0 -0.26597581939E+02 -0.13414933729E+02 -0.14863221571E+03  0.15158801852E+03  0.00000000000E+00 0.  1.
</event>
<event>
 4    1  0.3664744E+003  0.3148776E+02  0.7546771E-02  0.1407094E+00
          2   -1    0    0  502    0  0.00000000000E+00  0.00000000000E+00  0.34827950540E+03  0.34827950540E+03  0.00000000000E+00 0.  1.
          1   -1    0    0  501    0 -0.00000000000E+00 -0.00000000000E+00 -0.47674459254E+03  0.47674459254E+03  0.00000000000E+00 0. -1.
          2    1    1    2  501    0 -0.29189938191E+02  0.11807902552E+02  0.34704604198E+03  0.34847156887E+03  0.00000000000E+00 0.  1.
          1    1    1    2  502    0  0.29189938191E+02 -0.11807902552E+02 -0.47551112912E+03  0.47655252908E+03  0.00000000000E+00 0. -1.
</event>
<event>
 4    1  0.3664744E+003  0.2648948E+02  0.7546771E-02  0.1452805E+00
          2   -1    0    0  502    0  0.00000000000E+00  0.00000000000E+00  0.28313402699E+03  0.28313402699E+03  0.00000000000E+00 0. -1.
          1   -1    0    0  501    0 -0.00000000000E+00 -0.00000000000E+00 -0.96180893894E+02  0.96180893894E+02  0.00000000000E+00 0. -1.
          2    1    1    2  501    0 -0.25390057419E+02  0.75523162550E+01  0.28067461691E+03  0.28192185632E+03  0.00000000000E+00 0. -1.
          1    1    1    2  502    0  0.25390057419E+02 -0.75523162550E+01 -0.93721483812E+02  0.97393064560E+02  0.00000000000E+00 0. -1.
</event>
<event>
 4    1  0.3664744E+003  0.4102025E+02  0.7546771E-02  0.1342609E+00
          2   -1    0    0  502    0  0.00000000000E+00  0.00000000000E+00  0.16716984480E+04  0.16716984480E+04  0.00000000000E+00 0.  1.
          1   -1    0    0  501    0 -0.00000000000E+00 -0.00000000000E+00 -0.22756825186E+01  0.22756825186E+01  0.00000000000E+00 0. -1.
          2    1    1    2  501    0  0.19519931122E+02  0.36078156667E+02  0.14597618189E+04  0.14603380530E+04  0.00000000000E+00 0.  1.
          1    1    1    2  502    0 -0.19519931122E+02 -0.36078156667E+02  0.20966094660E+03  0.21363607754E+03  0.00000000000E+00 0. -1.
</event>
<event>
 4    1  0.3664744E+003  0.3314653E+02  0.7546771E-02  0.1394084E+00
          2   -1    0    0  502    0  0.00000000000E+00  0.00000000000E+00  0.26129088800E+04  0.26129088800E+04  0.00000000000E+00 0. -1.
          1   -1    0    0  501    0 -0.00000000000E+00 -0.00000000000E+00 -0.17463579516E+01  0.17463579516E+01  0.00000000000E+00 0. -1.
          2    1    1    2  501    0  0.33137386159E+02 -0.77869843708E+00  0.24446987619E+04  0.24449234608E+04  0.00000000000E+00 0. -1.
          1    1    1    2  502    0 -0.33137386159E+02  0.77869843708E+00  0.16646376018E+03  0.16973177719E+03  0.00000000000E+00 0. -1.
</event>
<event>
 4    1  0.3664744E+003  0.2719533E+02  0.7546771E-02  0.1445656E+00
          2   -1    0    0  502    0  0.00000000000E+00  0.00000000000E+00  0.15081637432E+04  0.15081637432E+04  0.00000000000E+00 0.  1.
          1   -1    0    0  501    0 -0.00000000000E+00 -0.00000000000E+00 -0.24694751319E+01  0.24694751319E+01  0.00000000000E+00 0. -1.
          2    1    1    2  501    0  0.27194041760E+02 -0.26443868729E+00  0.14290221691E+04  0.14292809191E+04  0.00000000000E+00 0.  1.
          1    1    1    2  502    0 -0.27194041760E+02  0.26443868729E+00  0.76672098950E+02  0.81352299245E+02  0.00000000000E+00 0. -1.
</event>
<event>
 4    1  0.3664744E+003  0.2906097E+02  0.7546771E-02  0.1427936E+00
          2   -1    0    0  502    0  0.00000000000E+00  0.00000000000E+00  0.69350969299E+03  0.69350969299E+03  0.00000000000E+00 0.  1.
          1   -1    0    0  501    0 -0.00000000000E+00 -0.00000000000E+00 -0.26523799321E+01  0.26523799321E+01  0.00000000000E+00 0. -1.
          2    1    1    2  501    0  0.15512571922E+02  0.24574376772E+02  0.60142184709E+03  0.60212355712E+03  0.00000000000E+00 0.  1.
          1    1    1    2  502    0 -0.15512571922E+02 -0.24574376772E+02  0.89435465966E+02  0.94038515800E+02  0.00000000000E+00 0. -1.
</event>
<event>
 4    1  0.3664744E+003  0.2182495E+02  0.7546771E-02  0.1507805E+00
          2   -1    0    0  502    0  0.00000000000E+00  0.00000000000E+00  0.34087299703E+02  0.34087299703E+02  0.00000000000E+00 0.  1.
          1   -1    0    0  501    0 -0.00000000000E+00 -0.00000000000E+00 -0.27693701653E+02  0.27693701653E+02  0.00000000000E+00 0. -1.
          2    1    1    2  501    0 -0.93310473789E+01 -0.19729669254E+02  0.24939341151E+02  0.33140594912E+02  0.00000000000E+00 0.  1.
          1    1    1    2  502    0  0.93310473789E+01  0.19729669254E+02 -0.18545743102E+02  0.28640406444E+02  0.00000000000E+00 0. -1.
</event>
<event>
 4    1  0.3664744E+003  0.2042373E+02  0.7546771E-02  0.1527654E+00
          2   -1    0    0  502    0  0.00000000000E+00  0.00000000000E+00  0.21808853457E+03  0.21808853457E+03  0.00000000000E+00 0. -1.
          1   -1    0    0  501    0 -0.00000000000E+00 -0.00000000000E+00 -0.19273012351E+01  0.19273012351E+01  0.00000000000E+00 0. -1.
          2    1    1    2  501    0 -0.26511289214E+00  0.20422013109E+02  0.11766930573E+03  0.11942861640E+03  0.00000000000E+00 0. -1.
          1    1    1    2  502    0  0.26511289214E+00 -0.20422013109E+02  0.98491927613E+02  0.10058721941E+03  0.00000000000E+00 0. -1.
</event>
<event>
 4    1  0.3664744E+003  0.2044493E+02  0.7546771E-02  0.1527339E+00
          2   -1    0    0  502    0  0.00000000000E+00  0.00000000000E+00  0.31095128633E+03  0.31095128633E+03  0.00000000000E+00 0.  1.
          1   -1    0    0  501    0 -0.00000000000E+00 -0.00000000000E+00 -0.23819539817E+01  0.23819539817E+01  0.00000000000E+00 0.  1.
          2    1    1    2  501    0  0.19486439773E+02 -0.61865704694E+01  0.25769105981E+03  0.25850082649E+03  0.00000000000E+00 0.  1.
          1    1    1    2  502    0 -0.19486439773E+02  0.61865704694E+01  0.50878272541E+02  0.54832413826E+02  0.00000000000E+00 0.  1.
</event>
<event>
 4    1  0.3664744E+003  0.3303543E+02  0.7546771E-02  0.1394927E+00
          2   -1    0    0  502    0  0.00000000000E+00  0.00000000000E+00  0.31188183017E+03  0.31188183017E+03  0.00000000000E+00 0. -1.
          1   -1    0    0  501    0 -0.00000000000E+00 -0.00000000000E+00 -0.79512085300E+02  0.79512085300E+02  0.00000000000E+00 0. -1.
          2    1    1    2  501    0  0.26756564943E+02 -0.19375912602E+02  0.30752721439E+03  0.30929650393E+03  0.00000000000E+00 0. -1.
          1    1    1    2  502    0 -0.26756564943E+02  0.19375912602E+02 -0.75157469518E+02  0.82097411537E+02  0.00000000000E+00 0. -1.
</event>
<event>
 4    1  0.3664744E+003  0.2728467E+02  0.7546771E-02  0.1444769E+00
          2   -1    0    0  502    0  0.00000000000E+00  0.00000000000E+00  0.12191737605E+04  0.12191737605E+04  0.00000000000E+00 0. -1.
          1   -1    0    0  501    0 -0.00000000000E+00 -0.00000000000E+00 -0.55069966266E+01  0.55069966266E+01  0.00000000000E+00 0.  1.
          2    1    1    2  501    0 -0.26889183898E+02 -0.46286941460E+01  0.11842281706E+04  0.11845424488E+04  0.00000000000E+00 0. -1.
          1    1    1    2  502    0  0.26889183898E+02  0.46286941460E+01  0.29438593303E+02  0.40138308334E+02  0.00000000000E+00 0.  1.
</event>
<event>
 4    1  0.3664744E+003  0.2162933E+02  0.7546771E-02  0.1510466E+00
          2   -1    0    0  502    0  0.00000000000E+00  0.00000000000E+00  0.37690004364E+03  0.37690004364E+03  0.00000000000E+00 0. -1.
          1   -1    0    0  501    0 -0.00000000000E+00 -0.00000000000E+00 -0.12537542786E+01  0.12537542786E+01  0.00000000000E+00 0. -1.
          2    1    1    2  501    0 -0.21492962520E+02 -0.24248930937E+01  0.16894128578E+03  0.17032024421E+03  0.00000000000E+00 0. -1.
          1    1    1    2  502    0  0.21492962520E+02  0.24248930937E+01  0.20670500358E+03  0.20783355372E+03  0.00000000000E+00 0. -1.
</event>
<event>
 4    1  0.3664744E+003  0.2688651E+02  0.7546771E-02  0.1448751E+00
          2   -1    0    0  502    0  0.00000000000E+00  0.00000000000E+00  0.12067357868E+04  0.12067357868E+04  0.00000000000E+00 0.  1.
          1   -1    0    0  501    0 -0.00000000000E+00 -0.00000000000E+00 -0.10321076184E+02  0.10321076184E+02  0.00000000000E+00 0.  1.
          2    1    1    2  501    0 -0.48376085758E+01 -0.26447723440E+02  0.11888121529E+04  0.11891161505E+04  0.00000000000E+00 0.  1.
          1    1    1    2  502    0  0.48376085758E+01  0.26447723440E+02  0.76025577767E+01  0.27940712529E+02  0.00000000000E+00 0.  1.
</event>
<event>
 4    1  0.3664744E+003  0.2494292E+02  0.7546771E-02  0.1469443E+00
          2   -1    0    0  502    0  0.00000000000E+00  0.00000000000E+00  0.80739135397E+02  0.80739135397E+02  0.00000000000E+00 0. -1.
          1   -1    0    0  501    0 -0.00000000000E+00 -0.00000000000E+00 -0.33922547206E+02  0.33922547206E+02  0.00000000000E+00 0.  1.
          2    1    1    2  501    0  0.12223492612E+02  0.21742478478E+02  0.73808761754E+02  0.77909450349E+02  0.00000000000E+00 0. -1.
          1    1    1    2  502    0 -0.12223492612E+02 -0.21742478478E+02 -0.26992173563E+02  0.36752232254E+02  0.00000000000E+00 0.  1.
</event>
<event>
 4    1  0.3664744E+003  0.4305878E+02  0.7546771E-02  0.1331437E+00
          2   -1    0    0  502    0  0.00000000000E+00  0.00000000000E+00  0.17252641484E+04  0.17252641484E+04  0.00000000000E+00 0. -1.
          1   -1    0    0  501    0 -0.00000000000E+00 -0.00000000000E+00 -0.18914404349E+01  0.18914404349E+01  0.00000000000E+00 0. -1.
          2    1    1    2  501    0  0.51505590596E+01 -0.42749625484E+02  0.14291785528E+04  0.14298270505E+04  0.00000000000E+00 0. -1.
          1    1    1    2  502    0 -0.51505590596E+01  0.42749625484E+02  0.29419415515E+03  0.29732853826E+03  0.00000000000E+00 0. -1.
</event>
<event>
 4    1  0.3664744E+003  0.2996177E+02  0.7546771E-02  0.1419929E+00
          2   -1    0    0  502    0  0.00000000000E+00  0.00000000000E+00  0.16422375201E+04  0.16422375201E+04  0.00000000000E+00 0. -1.
          1   -1    0    0  501    0 -0.00000000000E+00 -0.00000000000E+00 -0.17700050920E+03  0.17700050920E+03  0.00000000000E+00 0. -1.
          2    1    1    2  501    0  0.29024083436E+02 -0.74370742737E+01  0.16408318299E+04  0.16411053597E+04  0.00000000000E+00 0. -1.
          1    1    1    2  502    0 -0.29024083436E+02  0.74370742737E+01 -0.17559481906E+03  0.17813266958E+03  0.00000000000E+00 0. -1.
</event>
<event>
 4    1  0.3664744E+003  0.5318957E+02  0.7546771E-02  0.1284906E+00
          2   -1    0    0  502    0  0.00000000000E+00  0.00000000000E+00  0.53118633276E+02  0.53118633276E+02  0.00000000000E+00 0.  1.
          1   -1    0    0  501    0 -0.00000000000E+00 -0.00000000000E+00 -0.18529104073E+04  0.18529104073E+04  0.00000000000E+00 0. -1.
          2    1    1    2  501    0  0.51910592552E+02  0.11593989485E+02  0.39321902008E+02  0.66146369430E+02  0.00000000000E+00 0.  1.
          1    1    1    2  502    0 -0.51910592552E+02 -0.11593989485E+02 -0.18391136760E+04  0.18398826712E+04  0.00000000000E+00 0. -1.
</event>
<event>
 4    1  0.3664744E+003  0.2492174E+02  0.7546771E-02  0.1469681E+00
          2   -1    0    0  502    0  0.00000000000E+00  0.00000000000E+00  0.10981138524E+01  0.10981138524E+01  0.00000000000E+00 0. -1.
          1   -1    0    0  501    0 -0.00000000000E+00 -0.00000000000E+00 -0.59418601696E+03  0.59418601696E+03  0.00000000000E+00 0. -1.
          2    1    1    2  501    0 -0.54513120902E+01  0.24318227966E+02 -0.23125928884E+03  0.23259826244E+03  0.00000000000E+00 0. -1.
          1    1    1    2  502    0  0.54513120902E+01 -0.24318227966E+02 -0.36182861427E+03  0.36268586837E+03  0.00000000000E+00 0. -1.
</event>
<event>
 4    1  0.3664744E+003  0.2016802E+02  0.7546771E-02  0.1531483E+00
          2   -1    0    0  502    0  0.00000000000E+00  0.00000000000E+00  0.20043256714E+01  0.20043256714E+01  0.00000000000E+00 0.  1.
          1   -1    0    0  501    0 -0.00000000000E+00 -0.00000000000E+00 -0.24344256504E+03  0.24344256504E+03  0.00000000000E+00 0.  1.
          2    1    1    2  501    0  0.14279663311E+02 -0.14242202764E+02 -0.70658768684E+02  0.73480682603E+02  0.00000000000E+00 0.  1.
          1    1    1    2  502    0 -0.14279663311E+02  0.14242202764E+02 -0.17077947068E+03  0.17196620811E+03  0.00000000000E+00 0.  1.
</event>
<event>
 4    1  0.3664744E+003  0.3527067E+02  0.7546771E-02  0.1378670E+00
          2   -1    0    0  502    0  0.00000000000E+00  0.00000000000E+00  0.19688857565E+03  0.19688857565E+03  0.00000000000E+00 0.  1.
          1   -1    0    0  501    0 -0.00000000000E+00 -0.00000000000E+00 -0.10119708123E+03  0.10119708123E+03  0.00000000000E+00 0. -1.
          2    1    1    2  501    0  0.35260924456E+02 -0.82908960486E+00  0.19216072841E+03  0.19537084154E+03  0.00000000000E+00 0.  1.
          1    1    1    2  502    0 -0.35260924456E+02  0.82908960486E+00 -0.96469233986E+02  0.10271481533E+03  0.00000000000E+00 0. -1.
</event>
<event>
 4    1  0.3664744E+003  0.2128617E+02  0.7546771E-02  0.1515218E+00
          2   -1    0    0  502    0  0.00000000000E+00  0.00000000000E+00  0.39987081791E+02  0.39987081791E+02  0.00000000000E+00 0. -1.
          1   -1    0    0  501    0 -0.00000000000E+00 -0.00000000000E+00 -0.93592231177E+02  0.93592231177E+02  0.00000000000E+00 0. -1.
          2    1    1    2  501    0  0.93749145733E+01 -0.19110515361E+02  0.35813586227E+02  0.41661898409E+02  0.00000000000E+00 0. -1.
          1    1    1    2  502    0 -0.93749145733E+01  0.19110515361E+02 -0.89418735613E+02  0.91917414559E+02  0.00000000000E+00 0. -1.
</event>
<event>
 4    1  0.3664744E+003  0.2685112E+02  0.7546771E-02  0.1449109E+00
          2   -1    0    0  502    0  0.00000000000E+00  0.00000000000E+00  0.12518614551E+02  0.12518614551E+02  0.00000000000E+00 0.  1.
          1   -1    0    0  501    0 -0.00000000000E+00 -0.00000000000E+00 -0.11295441740E+03  0.11295441740E+03  0.00000000000E+00 0.  1.
          2    1    1    2  501    0 -0.19137949914E+00 -0.26850434203E+02 -0.62968171483E+01  0.27579563977E+02  0.00000000000E+00 0.  1.
          1    1    1    2  502    0  0.19137949914E+00  0.26850434203E+02 -0.94138985702E+02  0.97893467974E+02  0.00000000000E+00 0.  1.
</event>
<event>
 4    1  0.3664744E+003  0.4215642E+02  0.7546771E-02  0.1336292E+00
          2   -1    0    0  502    0  0.00000000000E+00  0.00000000000E+00  0.98913587149E+03  0.98913587149E+03  0.00000000000E+00 0. -1.
          1   -1    0    0  501    0 -0.00000000000E+00 -0.00000000000E+00 -0.51304782046E+01  0.51304782046E+01  0.00000000000E+00 0.  1.
          2    1    1    2  501    0  0.37584196266E+02  0.19094294782E+02  0.89274322026E+03  0.89373800480E+03  0.00000000000E+00 0. -1.
          1    1    1    2  502    0 -0.37584196266E+02 -0.19094294782E+02  0.91262173027E+02  0.10052834490E+03  0.00000000000E+00 0.  1.
</event>
<event>
 4    1  0.3664744E+003  0.3610713E+02  0.7546771E-02  0.1372942E+00
          2   -1    0    0  502    0  0.00000000000E+00  0.00000000000E+00  0.94364444889E+03  0.94364444889E+03  0.00000000000E+00 0.  1.
          1   -1    0    0  501    0 -0.00000000000E+00 -0.00000000000E+00 -0.23967040352E+01  0.23967040352E+01  0.00000000000E+00 0. -1.
          2    1    1    2  501    0 -0.27575014555E+02  0.23309732542E+02  0.77846830631E+03  0.77930522197E+03  0.00000000000E+00 0.  1.
          1    1    1    2  502    0  0.27575014555E+02 -0.23309732542E+02  0.16277943855E+03  0.16673593096E+03  0.00000000000E+00 0. -1.
</event>
<event>
 4    1  0.3664744E+003  0.2030169E+02  0.7546771E-02  0.1529473E+00
          2   -1    0    0  502    0  0.00000000000E+00  0.00000000000E+00  0.73259079819E+03  0.73259079819E+03  0.00000000000E+00 0. -1.
          1   -1    0    0  501    0 -0.00000000000E+00 -0.00000000000E+00 -0.42471395988E+01  0.42471395988E+01  0.00000000000E+00 0.  1.
          2    1    1    2  501    0 -0.15641178217E+02  0.12942648418E+02  0.70732268475E+03  0.70761397595E+03  0.00000000000E+00 0. -1.
          1    1    1    2  502    0  0.15641178217E+02 -0.12942648418E+02  0.21020973842E+02  0.29223961835E+02  0.00000000000E+00 0.  1.
</event>
<event>
 4    1  0.3664744E+003  0.2020282E+02  0.7546771E-02  0.1530958E+00
          2   -1    0    0  502    0  0.00000000000E+00  0.00000000000E+00  0.60770952958E+03  0.60770952958E+03  0.00000000000E+00 0.  1.
          1   -1    0    0  501    0 -0.00000000000E+00 -0.00000000000E+00 -0.72732915008E+02  0.72732915008E+02  0.00000000000E+00 0. -1.
          2    1    1    2  501    0  0.17553943553E+02 -0.10000643632E+02  0.60613505994E+03  0.60647165202E+03  0.00000000000E+00 0.  1.
          1    1    1    2  502    0 -0.17553943553E+02  0.10000643632E+02 -0.71158445366E+02  0.73970792576E+02  0.00000000000E+00 0. -1.
</event>
<event>
 4    1  0.3664744E+003  0.2027033E+02  0.7546771E-02  0.1529943E+00
          2   -1    0    0  502    0  0.00000000000E+00  0.00000000000E+00  0.15819875473E+02  0.15819875473E+02  0.00000000000E+00 0.  1.
          1   -1    0    0  501    0 -0.00000000000E+00 -0.00000000000E+00 -0.46127545073E+03  0.46127545073E+03  0.00000000000E+00 0.  1.
          2    1    1    2  501    0 -0.11749953529E+02 -0.16517406210E+02  0.90066947988E+01  0.22181223299E+02  0.00000000000E+00 0.  1.
          1    1    1    2  502    0  0.11749953529E+02  0.16517406210E+02 -0.45446227006E+03  0.45491410291E+03  0.00000000000E+00 0.  1.
</event>
<event>
 4    1  0.3664744E+003  0.3066428E+02  0.7546771E-02  0.1413910E+00
          2   -1    0    0  502    0  0.00000000000E+00  0.00000000000E+00  0.21203801527E+02  0.21203801527E+02  0.00000000000E+00 0.  1.
          1   -1    0    0  501    0 -0.00000000000E+00 -0.00000000000E+00 -0.10321328681E+03  0.10321328681E+03  0.00000000000E+00 0. -1.
          2    1    1    2  501    0 -0.27780713126E+02  0.12981919489E+02  0.59760354374E+01  0.31241178834E+02  0.00000000000E+00 0.  1.
          1    1    1    2  502    0  0.27780713126E+02 -0.12981919489E+02 -0.87985520719E+02  0.93175909502E+02  0.00000000000E+00 0. -1.
</event>
<event>
 4    1  0.3664744E+003  0.2274628E+02  0.7546771E-02  0.1495709E+00
          2   -1    0    0  502    0  0.00000000000E+00  0.00000000000E+00  0.30564007060E+03  0.30564007060E+03  0.00000000000E+00 0.  1.
          1   -1    0    0  501    0 -0.00000000000E+00 -0.00000000000E+00 -0.29594365558E+03  0.29594365558E+03  0.00000000000E+00 0.  1.
          2    1    1    2  501    0 -0.22449135636E+02  0.36646592086E+01  0.30477856114E+03  0.30562618466E+03  0.00000000000E+00 0.  1.
          1    1    1    2  502    0  0.22449135636E+02 -0.36646592086E+01 -0.29508214612E+03  0.29595754151E+03  0.00000000000E+00 0.  1.
</event>
<event>
 4    1  0.3664744E+003  0.4278309E+02  0.7546771E-02  0.1332906E+00
          2   -1    0    0  502    0  0.00000000000E+00  0.00000000000E+00  0.56802251020E+01  0.56802251020E+01  0.00000000000E+00 0. -1.
          1   -1    0    0  501    0 -0.00000000000E+00 -0.00000000000E+00 -0.69895631099E+03  0.69895631099E+03  0.00000000000E+00 0. -1.
          2    1    1    2  501    0  0.38370084251E+02  0.18924307832E+02 -0.87984960618E+02  0.97835300824E+02  0.00000000000E+00 0. -1.
          1    1    1    2  502    0 -0.38370084251E+02 -0.18924307832E+02 -0.60529112527E+03  0.60680123527E+03  0.00000000000E+00 0. -1.
</event>
<event>
 4    1  0.3664744E+003  0.2617571E+02  0.7546771E-02  0.1456069E+00
          2   -1    0    0  502    0  0.00000000000E+00  0.00000000000E+00  0.25346216743E+03  0.25346216743E+03  0.00000000000E+00 0. -1.
          1   -1    0    0  501    0 -0.00000000000E+00 -0.00000000000E+00 -0.35656807963E+01  0.35656807963E+01  0.00000000000E+00 0.  1.
          2    1    1    2  501    0 -0.23134965780E+02 -0.12245053948E+02  0.18815225929E+03  0.18996431419E+03  0.00000000000E+00 0. -1.
          1    1    1    2  502    0  0.23134965780E+02  0.12245053948E+02  0.61744227344E+02  0.67063534042E+02  0.00000000000E+00 0.  1.
</event>
<event>
 4    1  0.3664744E+003  0.2055589E+02  0.7546771E-02  0.1525701E+00
          2   -1    0    0  502    0  0.00000000000E+00  0.00000000000E+00  0.79690238057E+03  0.79690238057E+03  0.00000000000E+00 0. -1.
          1   -1    0    0  501    0 -0.00000000000E+00 -0.00000000000E+00 -0.21988591686E+03  0.21988591686E+03  0.00000000000E+00 0.  1.
          2    1    1    2  501    0  0.26561816457E+01 -0.20383558547E+02  0.79628903846E+03  0.79655431550E+03  0.00000000000E+00 0. -1.
          1    1    1    2  502    0 -0.26561816457E+01  0.20383558547E+02 -0.21927257475E+03  0.22023398194E+03  0.00000000000E+00 0.  1.
</event>
<event>
 4    1  0.3664744E+003  0.2756854E+02  0.7546771E-02  0.1441979E+00
          2   -1    0    0  502    0  0.00000000000E+00  0.00000000000E+00  0.10700982287E+02  0.10700982287E+02  0.00000000000E+00 0. -1.
          1   -1    0    0  501    0 -0.00000000000E+00 -0.00000000000E+00 -0.11339256442E+04  0.11339256442E+04  0.00000000000E+00 0.  1.
          2    1    1    2  501    0  0.14454425341E+02 -0.23475392877E+02 -0.75123448398E+01  0.28573760824E+02  0.00000000000E+00 0. -1.
          1    1    1    2  502    0 -0.14454425341E+02  0.23475392877E+02 -0.11157123171E+04  0.11160528656E+04  0.00000000000E+00 0.  1.
</event>
<event>
 4    1  0.3664744E+003  0.2082497E+02  0.7546771E-02  0.1521779E+00
          2   -1    0    0  502    0  0.00000000000E+00  0.00000000000E+00  0.12942795391E+03  0.12942795391E+03  0.00000000000E+00 0. -1.
          1   -1    0    0  501    0 -0.00000000000E+00 -0.00000000000E+00 -0.17617134266E+02  0.17617134266E+02  0.00000000000E+00 0.  1.
          2    1    1    2  501    0  0.20360746031E+02  0.43725544261E+01  0.12206762390E+03  0.12383127236E+03  0.00000000000E+00 0. -1.
          1    1    1    2  502    0 -0.20360746031E+02 -0.43725544261E+01 -0.10256804252E+02  0.23213815814E+02  0.00000000000E+00 0.  1.
</event>
<event>
 4    1  0.3664744E+003  0.5462177E+02  0.7546771E-02  0.1279288E+00
          2   -1    0    0  502    0  0.00000000000E+00  0.00000000000E+00  0.18642493053E+04  0.18642493053E+04  0.00000000000E+00 0. -1.
          1   -1    0    0  501    0 -0.00000000000E+00 -0.00000000000E+00 -0.12645469959E+03  0.12645469959E+03  0.00000000000E+00 0.  1.
          2    1    1    2  501    0  0.46450271762E+02 -0.28738651168E+02  0.18579307186E+04  0.18587334648E+04  0.00000000000E+00 0. -1.
          1    1    1    2  502    0 -0.46450271762E+02  0.28738651168E+02 -0.12013611295E+03  0.13197054009E+03  0.00000000000E+00 0.  1.
</event>
<event>
 4    1  0.3664744E+003  0.2353488E+02  0.7546771E-02  0.1485889E+00
          2   -1    0    0  502    0  0.00000000000E+00  0.00000000000E+00  0.11192756308E+04  0.11192756308E+04  0.00000000000E+00 0.  1.
          1   -1    0    0  501    0 -0.00000000000E+00 -0.00000000000E+00 -0.18390560647E+01  0.18390560647E+01  0.00000000000E+00 0. -1.
          2    1    1    2  501    0  0.12021250617E+02 -0.20233138810E+02  0.10379582861E+04  0.10382250691E+04  0.00000000000E+00 0.  1.
          1    1    1    2  502    0 -0.12021250617E+02  0.20233138810E+02  0.79478288576E+02  0.82889617730E+02  0.00000000000E+00 0. -1.
</event>
<event>
 4    1  0.3664744E+003  0.2465274E+02  0.7546771E-02  0.1472726E+00
          2   -1    0    0  502    0  0.00000000000E+00  0.00000000000E+00  0.83014065038E+03  0.83014065038E+03  0.00000000000E+00 0. -1.
          1   -1    0    0  501    0 -0.00000000000E+00 -0.00000000000E+00 -0.56555023788E+01  0.56555023788E+01  0.00000000000E+00 0. -1.
          2    1    1    2  501    0  0.24605635719E+02 -0.15232538484E+01  0.80215477431E+03  0.80253351305E+03  0.00000000000E+00 0. -1.
          1    1    1    2  502    0 -0.24605635719E+02  0.15232538484E+01  0.22330373685E+02  0.33262639708E+02  0.00000000000E+00 0. -1.
</event>
<event>
 4    1  0.3664744E+003  0.2363551E+02  0.7546771E-02  0.1484669E+00
          2   -1    0    0  502    0  0.00000000000E+00  0.00000000000E+00  0.22706878194E+03  0.22706878194E+03  0.00000000000E+00 0. -1.
          1   -1    0    0  501    0 -0.00000000000E+00 -0.00000000000E+00 -0.14092988282E+04  0.14092988282E+04  0.00000000000E+00 0. -1.
          2    1    1    2  501    0  0.16956696745E+02 -0.16465343619E+02  0.22635431885E+03  0.22758496164E+03  0.00000000000E+00 0. -1.
          1    1    1    2  502    0 -0.16956696745E+02  0.16465343619E+02 -0.14085843651E+04  0.14087826485E+04  0.00000000000E+00 0. -1.
</event>
<event>
 4    1  0.3664744E+003  0.2455854E+02  0.7546771E-02  0.1473803E+00
          2   -1    0    0  502    0  0.00000000000E+00  0.00000000000E+00  0.13101847802E+04  0.13101847802E+04  0.00000000000E+00 0. -1.
          1   -1    0    0  501    0 -0.00000000000E+00 -0.00000000000E+00 -0.75347744915E+00  0.75347744915E+00  0.00000000000E+00 0.  1.
          2    1    1    2  501    0  0.24461261402E+02 -0.21837045439E+01  0.10635596430E+04  0.10638431445E+04  0.00000000000E+00 0. -1.
          1    1    1    2  502    0 -0.24461261402E+02  0.21837045439E+01  0.24587165969E+03  0.24709511309E+03  0.00000000000E+00 0.  1.
</event>
<event>
 4    1  0.3664744E+003  0.4076137E+02  0.7546771E-02  0.1344081E+00
          2   -1    0    0  502    0  0.00000000000E+00  0.00000000000E+00  0.16336267932E+02  0.16336267932E+02  0.00000000000E+00 0. -1.
          1   -1    0    0  501    0 -0.00000000000E+00 -0.00000000000E+00 -0.13096308889E+04  0.13096308889E+04  0.00000000000E+00 0.  1.
          2    1    1    2  501    0  0.38962288967E+02  0.11976182669E+02 -0.99274968709E+01  0.41952879603E+02  0.00000000000E+00 0. -1.
          1    1    1    2  502    0 -0.38962288967E+02 -0.11976182669E+02 -0.12833671241E+04  0.12840142772E+04  0.00000000000E+00 0.  1.
</event>
<event>
 4    1  0.3664744E+003  0.2333941E+02  0.7546771E-02  0.1488280E+00
          2   -1    0    0  502    0  0.00000000000E+00  0.00000000000E+00  0.96436057873E+02  0.96436057873E+02  0.00000000000E+00 0.  1.
          1   -1    0    0  501    0 -0.00000000000E+00 -0.00000000000E+00 -0.10672713697E+02  0.10672713697E+02  0.00000000000E+00 0.  1.
          2    1    1    2  501    0  0.36704598962E+00 -0.23336526291E+02  0.79625769361E+02  0.82975847862E+02  0.00000000000E+00 0.  1.
          1    1    1    2  502    0 -0.36704598962E+00  0.23336526291E+02  0.61375748152E+01  0.24132923708E+02  0.00000000000E+00 0.  1.
</event>
<event>
 4    1  0.3664744E+003  0.2055027E+02  0.7546771E-02  0.1525784E+00
          2   -1    0    0  502    0  0.00000000000E+00  0.00000000000E+00  0.67580342952E+01  0.67580342952E+01  0.00000000000E+00 0. -1.
          1   -1    0    0  501    0 -0.00000000000E+00 -0.00000000000E+00 -0.12191041604E+03  0.12191041604E+03  0.00000000000E+00 0. -1.
          2    1    1    2  501    0  0.19504711090E+02  0.64714539576E+01 -0.12661605078E+02  0.24137723882E+02  0.00000000000E+00 0. -1.
          1    1    1    2  502    0 -0.19504711090E+02 -0.64714539576E+01 -0.10249077667E+03  0.10453072645E+03  0.00000000000E+00 0. -1.
</event>
<event>
 4    1  0.3664744E+003  0.3234840E+02  0.7546771E-02  0.1400229E+00
          2   -1    0    0  502    0  0.00000000000E+00  0.00000000000E+00  0.17560696017E+03  0.17560696017E+03  0.00000000000E+00 0.  1.
          1   -1    0    0  501    0 -0.00000000000E+00 -0.00000000000E+00 -0.69836572509E+01  0.69836572509E+01  0.00000000000E+00 0.  1.
          2    1    1    2  501    0  0.14363477582E+01 -0.32316497146E+02  0.11928392099E+03  0.12359236582E+03  0.00000000000E+00 0.  1.
          1    1    1    2  502    0 -0.14363477582E+01  0.32316497146E+02  0.49339381931E+02  0.58998251601E+02  0.00000000000E+00 0.  1.
</event>
<event>
 4    1  0.3664744E+003  0.2257782E+02  0.7546771E-02  0.1497869E+00
          2   -1    0    0  502    0  0.00000000000E+00  0.00000000000E+00  0.68805781003E+01  0.68805781003E+01  0.00000000000E+00 0. -1.
          1   -1    0    0  501    0 -0.00000000000E+00 -0.00000000000E+00 -0.11936164068E+03  0.11936164068E+03  0.00000000000E+00 0. -1.
          2    1    1    2  501    0  0.21784515003E+02 -0.59323511124E+01 -0.17365371830E+02  0.28483574608E+02  0.00000000000E+00 0. -1.
          1    1    1    2  502    0 -0.21784515003E+02  0.59323511124E+01 -0.95115690747E+02  0.97758644169E+02  0.00000000000E+00 0. -1.
</event>
<event>
 4    1  0.3664744E+003  0.2342648E+02  0.7546771E-02  0.1487211E+00
          2   -1    0    0  502    0  0.00000000000E+00  0.00000000000E+00  0.34151728816E+03  0.34151728816E+03  0.00000000000E+00 0.  1.
          1   -1    0    0  501    0 -0.00000000000E+00 -0.00000000000E+00 -0.29916780626E+01  0.29916780626E+01  0.00000000000E+00 0. -1.
          2    1    1    2  501    0 -0.16924890833E+02 -0.16197163544E+02  0.28645424463E+03  0.28741056749E+03  0.00000000000E+00 0.  1.
          1    1    1    2  502    0  0.16924890833E+02  0.16197163544E+02  0.52071365472E+02  0.57098398740E+02  0.00000000000E+00 0. -1.
</event>
<event>
 4    1  0.3664744E+003  0.2569946E+02  0.7546771E-02  0.1461129E+00
          2   -1    0    0  502    0  0.00000000000E+00  0.00000000000E+00  0.71457931523E+02  0.71457931523E+02  0.00000000000E+00 0. -1.
          1   -1    0    0  501    0 -0.00000000000E+00 -0.00000000000E+00 -0.98699523907E+03  0.98699523907E+03  0.00000000000E+00 0. -1.
          2    1    1    2  501    0 -0.14947857713E+02  0.20905114972E+02  0.68974143656E+02  0.73606350102E+02  0.00000000000E+00 0. -1.
          1    1    1    2  502    0  0.14947857713E+02 -0.20905114972E+02 -0.98451145120E+03  0.98484682049E+03  0.00000000000E+00 0. -1.
</event>
<event>
 4    1  0.3664744E+003  0.2020659E+02  0.7546771E-02  0.1530901E+00
          2   -1    0    0  502    0  0.00000000000E+00  0.00000000000E+00  0.13822023379E+02  0.13822023379E+02  0.00000000000E+00 0. -1.
          1   -1    0    0  501    0 -0.00000000000E+00 -0.00000000000E+00 -0.30521437258E+03  0.30521437258E+03  0.00000000000E+00 0.  1.
          2    1    1    2  501    0  0.19285031146E+02  0.60327198907E+01  0.59061074761E+01  0.21052036507E+02  0.00000000000E+00 0. -1.
          1    1    1    2  502    0 -0.19285031146E+02 -0.60327198907E+01 -0.29729845668E+03  0.29798435945E+03  0.00000000000E+00 0.  1.
</event>
<event>
 4    1  0.3664744E+003  0.2106099E+02  0.7546771E-02  0.1518396E+00
          2   -1    0    0  502    0  0.00000000000E+00  0.00000000000E+00  0.74831677245E+00  0.74831677245E+00  0.00000000000E+00 0. -1.
          1   -1    0    0  501    0 -0.00000000000E+00 -0.00000000000E+00 -0.67585464311E+03  0.67585464311E+03  0.00000000000E+00 0.  1.
          2    1    1    2  501    0 -0.10695053344E+02  0.18143347832E+02 -0.21892487841E+03  0.21993559881E+03  0.00000000000E+00 0. -1.
          1    1    1    2  502    0  0.10695053344E+02 -0.18143347832E+02 -0.45618144792E+03  0.45666736107E+03  0.00000000000E+00 0.  1.
</event>
<event>
 4    1  0.3664744E+003  0.9868110E+02  0.7546771E-02  0.1166113E+00
          2   -1    0    0  502    0  0.00000000000E+00  0.00000000000E+00  0.16558091357E+04  0.16558091357E+04  0.00000000000E+00 0.  1.
          1   -1    0    0  501    0 -0.00000000000E+00 -0.00000000000E+00 -0.61658686530E+01  0.61658686530E+01  0.00000000000E+00 0.  1.
          2    1    1    2  501    0 -0.34864874964E+02  0.92316843769E+02  0.10034097838E+04  0.10082505410E+04  0.00000000000E+00 0.  1.
          1    1    1    2  502    0  0.34864874964E+02 -0.92316843769E+02  0.64623348322E+03  0.65372446335E+03  0.00000000000E+00 0.  1.
</event>
<event>
 4    1  0.3664744E+003  0.2715622E+02  0.7546771E-02  0.1446045E+00
          2   -1    0    0  502    0  0.00000000000E+00  0.00000000000E+00  0.33469031281E+01  0.33469031281E+01  0.00000000000E+00 0.  1.
          1   -1    0    0  501    0 -0.00000000000E+00 -0.00000000000E+00 -0.22154141784E+03  0.22154141784E+03  0.00000000000E+00 0.  1.
          2    1    1    2  501    0 -0.10396900152E+02 -0.25087138989E+02 -0.10082030187E+03  0.10441356877E+03  0.00000000000E+00 0.  1.
          1    1    1    2  502    0  0.10396900152E+02  0.25087138989E+02 -0.11737421284E+03  0.12047475219E+03  0.00000000000E+00 0.  1.
</event>
<event>
 4    1  0.3664744E+003  0.2035059E+02  0.7546771E-02  0.1528742E+00
          2   -1    0    0  502    0  0.00000000000E+00  0.00000000000E+00  0.11630526057E+04  0.11630526057E+04  0.00000000000E+00 0. -1.
          1   -1    0    0  501    0 -0.00000000000E+00 -0.00000000000E+00 -0.42712116875E+00  0.42712116875E+00  0.00000000000E+00 0. -1.
          2    1    1    2  501    0 -0.92325939721E+01  0.18135763698E+02  0.81855392124E+03  0.81880685677E+03  0.00000000000E+00 0. -1.
          1    1    1    2  502    0  0.92325939721E+01 -0.18135763698E+02  0.34407156329E+03  0.34467287010E+03  0.00000000000E+00 0. -1.
</event>
<event>
 4    1  0.3664744E+003  0.2139769E+02  0.7546771E-02  0.1513662E+00
          2   -1    0    0  502    0  0.00000000000E+00  0.00000000000E+00  0.64304688872E+02  0.64304688872E+02  0.00000000000E+00 0. -1.
          1   -1    0    0  501    0 -0.00000000000E+00 -0.00000000000E+00 -0.23051859357E+03  0.23051859357E+03  0.00000000000E+00 0. -1.
          2    1    1    2  501    0  0.10686362739E+02 -0.18538146204E+02  0.62010230676E+02  0.65598246331E+02  0.00000000000E+00 0. -1.
          1    1    1    2  502    0 -0.10686362739E+02  0.18538146204E+02 -0.22822413538E+03  0.22922503611E+03  0.00000000000E+00 0. -1.
</event>
<event>
 4    1  0.3664744E+003  0.2153733E+02  0.7546771E-02  0.1511730E+00
          2   -1    0    0  502    0  0.00000000000E+00  0.00000000000E+00  0.20004307467E+01  0.20004307467E+01  0.00000000000E+00 0.  1.
          1   -1    0    0  501    0 -0.00000000000E+00 -0.00000000000E+00 -0.13434651187E+04  0.13434651187E+04  0.00000000000E+00 0. -1.
          2    1    1    2  501    0  0.21464384549E+02 -0.17711130423E+01 -0.58803299408E+02  0.62623355601E+02  0.00000000000E+00 0.  1.
          1    1    1    2  502    0 -0.21464384549E+02  0.17711130423E+01 -0.12826613885E+04  0.12828421938E+04  0.00000000000E+00 0. -1.
</event>
<event>
 4    1  0.3664744E+003  0.2652435E+02  0.7546771E-02  0.1452445E+00
          2   -1    0    0  502    0  0.00000000000E+00  0.00000000000E+00  0.20641947308E+02  0.20641947308E+02  0.00000000000E+00 0.  1.
          1   -1    0    0  501    0 -0.00000000000E+00 -0.00000000000E+00 -0.12236873470E+03  0.12236873470E+03  0.00000000000E+00 0. -1.
          2    1    1    2  501    0 -0.11117985925E+02 -0.24081767554E+02  0.98729044908E+01  0.28302215154E+02  0.00000000000E+00 0.  1.
          1    1    1    2  502    0  0.11117985925E+02  0.24081767554E+02 -0.11159969189E+03  0.11470846686E+03  0.00000000000E+00 0. -1.
</event>
<event>
 4    1  0.3664744E+003  0.2574684E+02  0.7546771E-02  0.1460619E+00
          2   -1    0    0  502    0  0.00000000000E+00  0.00000000000E+00  0.55123065573E+01  0.55123065573E+01  0.00000000000E+00 0. -1.
          1   -1    0    0  501    0 -0.00000000000E+00 -0.00000000000E+00 -0.18559724524E+03  0.18559724524E+03  0.00000000000E+00 0. -1.
          2    1    1    2  501    0 -0.23471959308E+02  0.10581439532E+02 -0.33346364187E+02  0.42129321628E+02  0.00000000000E+00 0. -1.
          1    1    1    2  502    0  0.23471959308E+02 -0.10581439532E+02 -0.14673857449E+03  0.14898023017E+03  0.00000000000E+00 0. -1.
</event>
<event>
 4    1  0.3664744E+003  0.3199083E+02  0.7546771E-02  0.1403050E+00
          2   -1    0    0  502    0  0.00000000000E+00  0.00000000000E+00  0.25894290585E+03  0.25894290585E+03  0.00000000000E+00 0. -1.
          1   -1    0    0  501    0 -0.00000000000E+00 -0.00000000000E+00 -0.77163955336E+01  0.77163955336E+01  0.00000000000E+00 0. -1.
          2    1    1    2  501    0  0.24329211799E+02  0.20772637392E+02  0.21873506050E+03  0.22106207206E+03  0.00000000000E+00 0. -1.
          1    1    1    2  502    0 -0.24329211799E+02 -0.20772637392E+02  0.32491449818E+02  0.45597229327E+02  0.00000000000E+00 0. -1.
</event>
<event>
 4    1  0.3664744E+003  0.2023843E+02  0.7546771E-02  0.1530422E+00
          2   -1    0    0  502    0  0.00000000000E+00  0.00000000000E+00  0.10428632402E+04  0.10428632402E+04  0.00000000000E+00 0.  1.
          1   -1    0    0  501    0 -0.00000000000E+00 -0.00000000000E+00 -0.59946484124E+00  0.59946484124E+00  0.00000000000E+00 0. -1.
          2    1    1    2  501    0  0.13921407599E+02 -0.14689743445E+02  0.82749834993E+03  0.82774580234E+03  0.00000000000E+00 0.  1.
          1    1    1    2  502    0 -0.13921407599E+02  0.14689743445E+02  0.21476542538E+03  0.21571690266E+03  0.00000000000E+00 0. -1.
</event>
<event>
 4    1  0.3664744E+003  0.2749913E+02  0.7546771E-02  0.1442658E+00
          2   -1    0    0  502    0  0.00000000000E+00  0.00000000000E+00  0.44426558633E+03  0.44426558633E+03  0.00000000000E+00 0.  1.
          1   -1    0    0  501    0 -0.00000000000E+00 -0.00000000000E+00 -0.20024842871E+02  0.20024842871E+02  0.00000000000E+00 0. -1.
          2    1    1    2  501    0 -0.35754262688E+01 -0.27265698829E+02  0.43418017589E+03  0.43505014325E+03  0.00000000000E+00 0.  1.
          1    1    1    2  502    0  0.35754262688E+01  0.27265698829E+02 -0.99394324287E+01  0.29240285954E+02  0.00000000000E+00 0. -1.
</event>
<event>
 4    1  0.3664744E+003  0.2185087E+02  0.7546771E-02  0.1507455E+00
          2   -1    0    0  502    0  0.00000000000E+00  0.00000000000E+00  0.29593384342E+03  0.29593384342E+03  0.00000000000E+00 0.  1.
          1   -1    0    0  501    0 -0.00000000000E+00 -0.00000000000E+00 -0.15782702083E+03  0.15782702083E+03  0.00000000000E+00 0.  1.
          2    1    1    2  501    0  0.67847152389E+00  0.21840333988E+02  0.29477121028E+03  0.29557998397E+03  0.00000000000E+00 0.  1.
          1    1    1    2  502    0 -0.67847152389E+00 -0.21840333988E+02 -0.15666438770E+03  0.15818088028E+03  0.00000000000E+00 0.  1.
</event>
<event>
 4    1  0.3664744E+003  0.3111460E+02  0.7546771E-02  0.1410152E+00
          2   -1    0    0  502    0  0.00000000000E+00  0.00000000000E+00  0.15217836717E+04  0.15217836717E+04  0.00000000000E+00 0.  1.
          1   -1    0    0  501    0 -0.00000000000E+00 -0.00000000000E+00 -0.28742522616E+02  0.28742522616E+02  0.00000000000E+00 0.  1.
          2    1    1    2  501    0  0.30953600453E+02  0.31611591372E+01  0.15131560110E+04  0.15134758775E+04  0.00000000000E+00 0.  1.
          1    1    1    2  502    0 -0.30953600453E+02 -0.31611591372E+01 -0.20114861866E+02  0.37050316814E+02  0.00000000000E+00 0.  1.
</event>
<event>
 4    1  0.3664744E+003  0.2003555E+02  0.7546771E-02  0.1533493E+00
          2   -1    0    0  502    0  0.00000000000E+00  0.00000000000E+00  0.59495573498E+02  0.59495573498E+02  0.00000000000E+00 0.  1.
          1   -1    0    0  501    0 -0.00000000000E+00 -0.00000000000E+00 -0.70635459030E+01  0.70635459030E+01  0.00000000000E+00 0. -1.
          2    1    1    2  501    0  0.12632075730E+02 -0.15551656448E+02  0.33259813944E+02  0.38828321868E+02  0.00000000000E+00 0.  1.
          1    1    1    2  502    0 -0.12632075730E+02  0.15551656448E+02  0.19172213651E+02  0.27730797533E+02  0.00000000000E+00 0. -1.
</event>
<event>
 4    1  0.3664744E+003  0.2589505E+02  0.7546771E-02  0.1459035E+00
          2   -1    0    0  502    0  0.00000000000E+00  0.00000000000E+00  0.12379849968E+03  0.12379849968E+03  0.00000000000E+00 0.  1.
          1   -1    0    0  501    0 -0.00000000000E+00 -0.00000000000E+00 -0.77991722574E+01  0.77991722574E+01  0.00000000000E+00 0. -1.
          2    1    1    2  501    0  0.25809938822E+02  0.20977178949E+01  0.94368298612E+02  0.97856676549E+02  0.00000000000E+00 0.  1.
          1    1    1    2  502    0 -0.25809938822E+02 -0.20977178949E+01  0.21631028809E+02  0.33740995386E+02  0.00000000000E+00 0. -1.
</event>
<event>
 4    1  0.3664744E+003  0.2209562E+02  0.7546771E-02  0.1504178E+00
          2   -1    0    0  502    0  0.00000000000E+00  0.00000000000E+00  0.57777920807E+02  0.57777920807E+02  0.00000000000E+00 0.  1.
          1   -1    0    0  501    0 -0.00000000000E+00 -0.00000000000E+00 -0.35809551591E+03  0.35809551591E+03  0.00000000000E+00 0.  1.
          2    1    1    2  501    0  0.32256306788E+01  0.21858904965E+02  0.55309962989E+02  0.59560124457E+02  0.00000000000E+00 0.  1.
          1    1    1    2  502    0 -0.32256306788E+01 -0.21858904965E+02 -0.35562755809E+03  0.35631331226E+03  0.00000000000E+00 0.  1.
</event>
<event>
 4    1  0.3664744E+003  0.3268841E+02  0.7546771E-02  0.1397586E+00
          2   -1    0    0  502    0  0.00000000000E+00  0.00000000000E+00  0.54631871678E+03  0.54631871678E+03  0.00000000000E+00 0.  1.
          1   -1    0    0  501    0 -0.00000000000E+00 -0.00000000000E+00 -0.42258264054E+01  0.42258264054E+01  0.00000000000E+00 0. -1.
          2    1    1    2  501    0 -0.16215648236E+02  0.28382826592E+02  0.47279700578E+03  0.47392567009E+03  0.00000000000E+00 0.  1.
          1    1    1    2  502    0  0.16215648236E+02 -0.28382826592E+02  0.69295884591E+02  0.76618873095E+02  0.00000000000E+00 0. -1.
</event>
<event>
 4    1  0.3664744E+003  0.5224940E+02  0.7546771E-02  0.1288704E+00
          2   -1    0    0  502    0  0.00000000000E+00  0.00000000000E+00  0.19635942049E+04  0.19635942049E+04  0.00000000000E+00 0.  1.
          1   -1    0    0  501    0 -0.00000000000E+00 -0.00000000000E+00 -0.78647417873E+01  0.78647417873E+01  0.00000000000E+00 0. -1.
          2    1    1    2  501    0 -0.52238974835E+02  0.10434808484E+01  0.18722330950E+04  0.18729620288E+04  0.00000000000E+00 0.  1.
          1    1    1    2  502    0  0.52238974835E+02 -0.10434808484E+01  0.83496368127E+02  0.98496917893E+02  0.00000000000E+00 0. -1.
</event>
<event>
 4    1  0.3664744E+003  0.2055460E+02  0.7546771E-02  0.1525720E+00
          2   -1    0    0  502    0  0.00000000000E+00  0.00000000000E+00  0.14133965520E+03  0.14133965520E+03  0.00000000000E+00 0. -1.
          1   -1    0    0  501    0 -0.00000000000E+00 -0.00000000000E+00 -0.23185654057E+03  0.23185654057E+03  0.00000000000E+00 0. -1.
          2    1    1    2  501    0  0.14309636142E+01  0.20504729024E+02  0.14013290195E+03  0.14163234721E+03  0.00000000000E+00 0. -1.
          1    1    1    2  502    0 -0.14309636142E+01 -0.20504729024E+02 -0.23064978732E+03  0.23156384856E+03  0.00000000000E+00 0. -1.
</event>
<event>
 4    1  0.3664744E+003  0.2331281E+02  0.7546771E-02  0.1488607E+00
          2   -1    0    0  502    0  0.00000000000E+00  0.00000000000E+00  0.14915612258E+03  0.14915612258E+03  0.00000000000E+00 0.  1.
          1   -1    0    0  501    0 -0.00000000000E+00 -0.00000000000E+00 -0.79446593275E+01  0.79446593275E+01  0.00000000000E+00 0. -1.
          2    1    1    2  501    0 -0.19956522394E+02 -0.12050897694E+02  0.12840084124E+03  0.13050004963E+03  0.00000000000E+00 0.  1.
          1    1    1    2  502    0  0.19956522394E+02  0.12050897694E+02  0.12810622004E+02  0.26600732273E+02  0.00000000000E+00 0. -1.
</event>
<event>
 4    1  0.3664744E+003  0.2669352E+02  0.7546771E-02  0.1450711E+00
          2   -1    0    0  502    0  0.00000000000E+00  0.00000000000E+00  0.73365679180E+02  0.73365679180E+02  0.00000000000E+00 0. -1.
          1   -1    0    0  501    0 -0.00000000000E+00 -0.00000000000E+00 -0.11039885981E+03  0.11039885981E+03  0.00000000000E+00 0. -1.
          2    1    1    2  501    0  0.24043259406E+02 -0.11595937864E+02  0.69231026351E+02  0.74198915810E+02  0.00000000000E+00 0. -1.
          1    1    1    2  502    0 -0.24043259406E+02  0.11595937864E+02 -0.10626420698E+03  0.10956562318E+03  0.00000000000E+00 0. -1.
</event>
<event>
 4    1  0.3664744E+003  0.2383526E+02  0.7546771E-02  0.1482268E+00
          2   -1    0    0  502    0  0.00000000000E+00  0.00000000000E+00  0.12009573934E+04  0.12009573934E+04  0.00000000000E+00 0. -1.
          1   -1    0    0  501    0 -0.00000000000E+00 -0.00000000000E+00 -0.17885289255E+01  0.17885289255E+01  0.00000000000E+00 0.  1.
          2    1    1    2  501    0 -0.23470725517E+02 -0.41526485451E+01  0.11153317291E+04  0.11155863863E+04  0.00000000000E+00 0. -1.
          1    1    1    2  502    0  0.23470725517E+02  0.41526485451E+01  0.83837135452E+02  0.87159536065E+02  0.00000000000E+00 0.  1.
</event>
<event>
 4    1  0.3664744E+003  0.2458932E+02  0.7546771E-02  0.1473450E+00
          2   -1    0    0  502    0  0.00000000000E+00  0.00000000000E+00  0.26139055809E+02  0.26139055809E+02  0.00000000000E+00 0.  1.
          1   -1    0    0  501    0 -0.00000000000E+00 -0.00000000000E+00 -0.43412622955E+02  0.43412622955E+02  0.00000000000E+00 0.  1.
          2    1    1    2  501    0 -0.15257933863E+02  0.19282902908E+02  0.15132488694E+02  0.28872601275E+02  0.00000000000E+00 0.  1.
          1    1    1    2  502    0  0.15257933863E+02 -0.19282902908E+02 -0.32406055840E+02  0.40679077489E+02  0.00000000000E+00 0.  1.
</event>
<event>
 4    1  0.3664744E+003  0.3064724E+02  0.7546771E-02  0.1414054E+00
          2   -1    0    0  502    0  0.00000000000E+00  0.00000000000E+00  0.41328681827E+03  0.41328681827E+03  0.00000000000E+00 0.  1.
          1   -1    0    0  501    0 -0.00000000000E+00 -0.00000000000E+00 -0.20134996213E+02  0.20134996213E+02  0.00000000000E+00 0.  1.
          2    1    1    2  501    0 -0.28860031225E+02  0.10312713430E+02  0.40069063248E+03  0.40186096653E+03  0.00000000000E+00 0.  1.
          1    1    1    2  502    0  0.28860031225E+02 -0.10312713430E+02 -0.75388104293E+01  0.31560847950E+02  0.00000000000E+00 0.  1.
</event>
<event>
 4    1  0.3664744E+003  0.3047985E+02  0.7546771E-02  0.1415472E+00
          2   -1    0    0  502    0  0.00000000000E+00  0.00000000000E+00  0.74880966323E+03  0.74880966323E+03  0.00000000000E+00 0. -1.
          1   -1    0    0  501    0 -0.00000000000E+00 -0.00000000000E+00 -0.97981865946E+01  0.97981865946E+01  0.00000000000E+00 0.  1.
          2    1    1    2  501    0 -0.10186166130E+02 -0.28727395147E+02  0.72398310461E+03  0.72462442477E+03  0.00000000000E+00 0. -1.
          1    1    1    2  502    0  0.10186166130E+02  0.28727395147E+02  0.15028372016E+02  0.33983425046E+02  0.00000000000E+00 0.  1.
</event>
<event>
 4    1  0.3664744E+003  0.3337841E+02  0.7546771E-02  0.1392336E+00
          2   -1    0    0  502    0  0.00000000000E+00  0.00000000000E+00  0.12685067580E+04  0.12685067580E+04  0.00000000000E+00 0. -1.
          1   -1    0    0  501    0 -0.00000000000E+00 -0.00000000000E+00 -0.14529936766E+02  0.14529936766E+02  0.00000000000E+00 0. -1.
          2    1    1    2  501    0  0.10610691347E+02 -0.31646984138E+02  0.12488156191E+04  0.12492616095E+04  0.00000000000E+00 0. -1.
          1    1    1    2  502    0 -0.10610691347E+02  0.31646984138E+02  0.51612020690E+01  0.33775085236E+02  0.00000000000E+00 0. -1.
</event>
<event>
 4    1  0.3664744E+003  0.5233685E+02  0.7546771E-02  0.1288347E+00
          2   -1    0    0  502    0  0.00000000000E+00  0.00000000000E+00  0.13849817430E+04  0.13849817430E+04  0.00000000000E+00 0. -1.
          1   -1    0    0  501    0 -0.00000000000E+00 -0.00000000000E+00 -0.83361388373E+02  0.83361388373E+02  0.00000000000E+00 0. -1.
          2    1    1    2  501    0  0.40008064575E+02  0.33741675900E+02  0.13762203557E+04  0.13772151659E+04  0.00000000000E+00 0. -1.
          1    1    1    2  502    0 -0.40008064575E+02 -0.33741675900E+02 -0.74600001060E+02  0.91127965421E+02  0.00000000000E+00 0. -1.
</event>
<event>
 4    1  0.3664744E+003  0.3295545E+02  0.7546771E-02  0.1395536E+00
          2   -1    0    0  502    0  0.00000000000E+00  0.00000000000E+00  0.12307543885E+02  0.12307543885E+02  0.00000000000E+00 0. -1.
          1   -1    0    0  501    0 -0.00000000000E+00 -0.00000000000E+00 -0.26497283121E+03  0.26497283121E+03  0.00000000000E+00 0. -1.
          2    1    1    2  501    0 -0.23347546993E+02 -0.23258406264E+02 -0.13107543159E+02  0.35466450347E+02  0.00000000000E+00 0. -1.
          1    1    1    2  502    0  0.23347546993E+02  0.23258406264E+02 -0.23955774417E+03  0.24181392475E+03  0.00000000000E+00 0. -1.
</event>
<event>
 4    1  0.3664744E+003  0.3039224E+02  0.7546771E-02  0.1416218E+00
          2   -1    0    0  502    0  0.00000000000E+00  0.00000000000E+00  0.60286290910E+02  0.60286290910E+02  0.00000000000E+00 0. -1.
          1   -1    0    0  501    0 -0.00000000000E+00 -0.00000000000E+00 -0.11838305830E+03  0.11838305830E+03  0.00000000000E+00 0. -1.
          2    1    1    2  501    0  0.29021556766E+02 -0.90242660370E+01  0.54304998110E+02  0.62231189562E+02  0.00000000000E+00 0. -1.
          1    1    1    2  502    0 -0.29021556766E+02  0.90242660370E+01 -0.11240176550E+03  0.11643815965E+03  0.00000000000E+00 0. -1.
</event>
<event>
 4    1  0.3664744E+003  0.3502067E+02  0.7546771E-02  0.1380418E+00
          2   -1    0    0  502    0  0.00000000000E+00  0.00000000000E+00  0.19989317987E+04  0.19989317987E+04  0.00000000000E+00 0.  1.
          1   -1    0    0  501    0 -0.00000000000E+00 -0.00000000000E+00 -0.41457803519E+03  0.41457803519E+03  0.00000000000E+00 0.  1.
          2    1    1    2  501    0  0.12129196747E+02 -0.32853161140E+02  0.19980385043E+04  0.19983453937E+04  0.00000000000E+00 0.  1.
          1    1    1    2  502    0 -0.12129196747E+02  0.32853161140E+02 -0.41368474084E+03  0.41516444021E+03  0.00000000000E+00 0.  1.
</event>
<event>
 4    1  0.3664744E+003  0.2111815E+02  0.7546771E-02  0.1517585E+00
          2   -1    0    0  502    0  0.00000000000E+00  0.00000000000E+00  0.15226468075E+04  0.15226468075E+04  0.00000000000E+00 0.  1.
          1   -1    0    0  501    0 -0.00000000000E+00 -0.00000000000E+00 -0.38881062556E+00  0.38881062556E+00  0.00000000000E+00 0.  1.
          2    1    1    2  501    0 -0.16967762244E+02 -0.12572640174E+02  0.11393579700E+04  0.11395536670E+04  0.00000000000E+00 0.  1.
          1    1    1    2  502    0  0.16967762244E+02  0.12572640174E+02  0.38290002690E+03  0.38348195112E+03  0.00000000000E+00 0.  1.
</event>
<event>
 4    1  0.3664744E+003  0.2177437E+02  0.7546771E-02  0.1508490E+00
          2   -1    0    0  502    0  0.00000000000E+00  0.00000000000E+00  0.42259727912E+01  0.42259727912E+01  0.00000000000E+00 0. -1.
          1   -1    0    0  501    0 -0.00000000000E+00 -0.00000000000E+00 -0.25946165044E+03  0.25946165044E+03  0.00000000000E+00 0.  1.
          2    1    1    2  501    0 -0.73265499237E+01 -0.20504753314E+02 -0.28288218138E+02  0.35697990527E+02  0.00000000000E+00 0. -1.
          1    1    1    2  502    0  0.73265499237E+01  0.20504753314E+02 -0.22694745951E+03  0.22798963270E+03  0.00000000000E+00 0.  1.
</event>
<event>
 4    1  0.3664744E+003  0.2636130E+02  0.7546771E-02  0.1454132E+00
          2   -1    0    0  502    0  0.00000000000E+00  0.00000000000E+00  0.13078501087E+02  0.13078501087E+02  0.00000000000E+00 0. -1.
          1   -1    0    0  501    0 -0.00000000000E+00 -0.00000000000E+00 -0.11401167137E+03  0.11401167137E+03  0.00000000000E+00 0. -1.
          2    1    1    2  501    0  0.25325727258E+02 -0.73161198802E+01 -0.40327055386E+01  0.26667973024E+02  0.00000000000E+00 0. -1.
          1    1    1    2  502    0 -0.25325727258E+02  0.73161198802E+01 -0.96900464741E+02  0.10042219943E+03  0.00000000000E+00 0. -1.
</event>
<event>
 4    1  0.3664744E+003  0.2131803E+02  0.7546771E-02  0.1514772E+00
          2   -1    0    0  502    0  0.00000000000E+00  0.00000000000E+00  0.77862429126E+03  0.77862429126E+03  0.00000000000E+00 0. -1.
          1   -1    0    0  501    0 -0.00000000000E+00 -0.00000000000E+00 -0.11414493429E+02  0.11414493429E+02  0.00000000000E+00 0. -1.
          2    1    1    2  501    0  0.16496330994E+02 -0.13502939210E+02  0.76839232124E+03  0.76868798459E+03  0.00000000000E+00 0. -1.
          1    1    1    2  502    0 -0.16496330994E+02  0.13502939210E+02 -0.11825234061E+01  0.21350800107E+02  0.00000000000E+00 0. -1.
</event>
<event>
 4    1  0.3664744E+003  0.3303882E+02  0.7546771E-02  0.1394901E+00
          2   -1    0    0  502    0  0.00000000000E+00  0.00000000000E+00  0.10350294593E+03  0.10350294593E+03  0.00000000000E+00 0.  1.
          1   -1    0    0  501    0 -0.00000000000E+00 -0.00000000000E+00 -0.25640329430E+03  0.25640329430E+03  0.00000000000E+00 0. -1.
          2    1    1    2  501    0  0.23932321644E+02  0.22777349773E+02  0.99763231604E+02  0.10509170311E+03  0.00000000000E+00 0.  1.
          1    1    1    2  502    0 -0.23932321644E+02 -0.22777349773E+02 -0.25266357998E+03  0.25481453712E+03  0.00000000000E+00 0. -1.
</event>
<event>
 4    1  0.3664744E+003  0.2000881E+02  0.7546771E-02  0.1533901E+00
          2   -1    0    0  502    0  0.00000000000E+00  0.00000000000E+00  0.23905259326E+02  0.23905259326E+02  0.00000000000E+00 0.  1.
          1   -1    0    0  501    0 -0.00000000000E+00 -0.00000000000E+00 -0.21689500617E+02  0.21689500617E+02  0.00000000000E+00 0.  1.
          2    1    1    2  501    0  0.93269351272E+01  0.17702000429E+02  0.11989986952E+02  0.23326215406E+02  0.00000000000E+00 0.  1.
          1    1    1    2  502    0 -0.93269351272E+01 -0.17702000429E+02 -0.97742282425E+01  0.22268544537E+02  0.00000000000E+00 0.  1.
</event>
<event>
 4    1  0.3664744E+003  0.2451443E+02  0.7546771E-02  0.1474309E+00
          2   -1    0    0  502    0  0.00000000000E+00  0.00000000000E+00  0.78916784969E+03  0.78916784969E+03  0.00000000000E+00 0.  1.
          1   -1    0    0  501    0 -0.00000000000E+00 -0.00000000000E+00 -0.16514809315E+01  0.16514809315E+01  0.00000000000E+00 0. -1.
          2    1    1    2  501    0  0.24159179260E+02  0.41582857065E+01  0.68402608089E+03  0.68446521944E+03  0.00000000000E+00 0.  1.
          1    1    1    2  502    0 -0.24159179260E+02 -0.41582857065E+01  0.10349028787E+03  0.10635411118E+03  0.00000000000E+00 0. -1.
</event>
<event>
 4    1  0.3664744E+003  0.2582996E+02  0.7546771E-02  0.1459729E+00
          2   -1    0    0  502    0  0.00000000000E+00  0.00000000000E+00  0.40959719535E+02  0.40959719535E+02  0.00000000000E+00 0. -1.
          1   -1    0    0  501    0 -0.00000000000E+00 -0.00000000000E+00 -0.31468754311E+03  0.31468754311E+03  0.00000000000E+00 0.  1.
          2    1    1    2  501    0 -0.24355148791E+02 -0.86031060941E+01  0.36296319635E+02  0.44548956510E+02  0.00000000000E+00 0. -1.
          1    1    1    2  502    0  0.24355148791E+02  0.86031060941E+01 -0.31002414321E+03  0.31109830614E+03  0.00000000000E+00 0.  1.
</event>
<event>
 4    1  0.3664744E+003  0.4080629E+02  0.7546771E-02  0.1343825E+00
          2   -1    0    0  502    0  0.00000000000E+00  0.00000000000E+00  0.10753687041E+04  0.10753687041E+04  0.00000000000E+00 0. -1.
          1   -1    0    0  501    0 -0.00000000000E+00 -0.00000000000E+00 -0.25330910352E+01  0.25330910352E+01  0.00000000000E+00 0.  1.
          2    1    1    2  501    0 -0.25983420020E+02  0.31464506614E+02  0.87243619808E+03  0.87338998907E+03  0.00000000000E+00 0. -1.
          1    1    1    2  502    0  0.25983420020E+02 -0.31464506614E+02  0.20039941496E+03  0.20451180604E+03  0.00000000000E+00 0.  1.
</event>
<event>
 4    1  0.3664744E+003  0.2309923E+02  0.7546771E-02  0.1491256E+00
          2   -1    0    0  502    0  0.00000000000E+00  0.00000000000E+00  0.12507854593E+03  0.12507854593E+03  0.00000000000E+00 0. -1.
          1   -1    0    0  501    0 -0.00000000000E+00 -0.00000000000E+00 -0.12691666436E+02  0.12691666436E+02  0.00000000000E+00 0. -1.
          2    1    1    2  501    0 -0.22902237202E+02 -0.30102747640E+01  0.11232025172E+03  0.11467089068E+03  0.00000000000E+00 0. -1.
          1    1    1    2  502    0  0.22902237202E+02  0.30102747640E+01  0.66627771659E-01  0.23099321684E+02  0.00000000000E+00 0. -1.
</event>
<event>
 4    1  0.3664744E+003  0.2183141E+02  0.7546771E-02  0.1507718E+00
          2   -1    0    0  502    0  0.00000000000E+00  0.00000000000E+00  0.91978763464E+00  0.91978763464E+00  0.00000000000E+00 0. -1.
          1   -1    0    0  501    0 -0.00000000000E+00 -0.00000000000E+00 -0.81543490000E+03  0.81543490000E+03  0.00000000000E+00 0. -1.
          2    1    1    2  501    0 -0.21208515562E+02  0.51777549637E+01 -0.16081088836E+03  0.16228601940E+03  0.00000000000E+00 0. -1.
          1    1    1    2  502    0  0.21208515562E+02 -0.51777549637E+01 -0.65370422401E+03  0.65406866823E+03  0.00000000000E+00 0. -1.
</event>
<event>
 4    1  0.3664744E+003  0.2362579E+02  0.7546771E-02  0.1484786E+00
          2   -1    0    0  502    0  0.00000000000E+00  0.00000000000E+00  0.39826150597E+01  0.39826150597E+01  0.00000000000E+00 0.  1.
          1   -1    0    0  501    0 -0.00000000000E+00 -0.00000000000E+00 -0.60485444826E+03  0.60485444826E+03  0.00000000000E+00 0. -1.
          2    1    1    2  501    0 -0.22920620700E+02 -0.57291538224E+01 -0.33607330868E+02  0.41080783158E+02  0.00000000000E+00 0.  1.
          1    1    1    2  502    0  0.22920620700E+02  0.57291538224E+01 -0.56726450233E+03  0.56775628016E+03  0.00000000000E+00 0. -1.
</event>
<event>
 4    1  0.3664744E+003  0.5251547E+02  0.7546771E-02  0.1287620E+00
          2   -1    0    0  502    0  0.00000000000E+00  0.00000000000E+00  0.18274513326E+03  0.18274513326E+03  0.00000000000E+00 0. -1.
          1   -1    0    0  501    0 -0.00000000000E+00 -0.00000000000E+00 -0.63232574803E+02  0.63232574803E+02  0.00000000000E+00 0.  1.
          2    1    1    2  501    0  0.28988740568E+01  0.52435400955E+02  0.16706963881E+03  0.17512892096E+03  0.00000000000E+00 0. -1.
          1    1    1    2  502    0 -0.28988740568E+01 -0.52435400955E+02 -0.47557080346E+02  0.70848787111E+02  0.00000000000E+00 0.  1.
</event>
<event>
 4    1  0.3664744E+003  0.3602035E+02  0.7546771E-02  0.1373528E+00
          2   -1    0    0  502    0  0.00000000000E+00  0.00000000000E+00  0.13450866257E+04  0.13450866257E+04  0.00000000000E+00 0. -1.
          1   -1    0    0  501    0 -0.00000000000E+00 -0.00000000000E+00 -0.10583767996E+01  0.10583767996E+01  0.00000000000E+00 0.  1.
          2    1    1    2  501    0  0.13273664519E+02  0.33485455833E+02  0.87236782953E+03  0.87311115897E+03  0.00000000000E+00 0. -1.
          1    1    1    2  502    0 -0.13273664519E+02 -0.33485455833E+02  0.47166041939E+03  0.47303384355E+03  0.00000000000E+00 0.  1.
</event>
<event>
 4    1  0.3664744E+003  0.2041078E+02  0.7546771E-02  0.1527846E+00
          2   -1    0    0  502    0  0.00000000000E+00  0.00000000000E+00  0.45448956491E+01  0.45448956491E+01  0.00000000000E+00 0.  1.
          1   -1    0    0  501    0 -0.00000000000E+00 -0.00000000000E+00 -0.93097416952E+02  0.93097416952E+02  0.00000000000E+00 0.  1.
          2    1    1    2  501    0 -0.20409568779E+02 -0.22140526550E+00 -0.50335973281E+02  0.54316753623E+02  0.00000000000E+00 0.  1.
          1    1    1    2  502    0  0.20409568779E+02  0.22140526550E+00 -0.38216548023E+02  0.43325558979E+02  0.00000000000E+00 0.  1.
</event>
<event>
 4    1  0.3664744E+003  0.2877344E+02  0.7546771E-02  0.1430563E+00
          2   -1    0    0  502    0  0.00000000000E+00  0.00000000000E+00  0.22424437540E+03  0.22424437540E+03  0.00000000000E+00 0. -1.
          1   -1    0    0  501    0 -0.00000000000E+00 -0.00000000000E+00 -0.57193812225E+02  0.57193812225E+02  0.00000000000E+00 0. -1.
          2    1    1    2  501    0 -0.18828284785E+02  0.21757913308E+02  0.21962672712E+03  0.22150352224E+03  0.00000000000E+00 0. -1.
          1    1    1    2  502    0  0.18828284785E+02 -0.21757913308E+02 -0.52576163946E+02  0.59934665385E+02  0.00000000000E+00 0. -1.
</event>
<event>
 4    1  0.3664744E+003  0.4994490E+02  0.7546771E-02  0.1298412E+00
          2   -1    0    0  502    0  0.00000000000E+00  0.00000000000E+00  0.24430043385E+02  0.24430043385E+02  0.00000000000E+00 0.  1.
          1   -1    0    0  501    0 -0.00000000000E+00 -0.00000000000E+00 -0.36383295680E+03  0.36383295680E+03  0.00000000000E+00 0.  1.
          2    1    1    2  501    0 -0.49456997032E+02  0.69640511760E+01 -0.50491153009E+01  0.50199463439E+02  0.00000000000E+00 0.  1.
          1    1    1    2  502    0  0.49456997032E+02 -0.69640511760E+01 -0.33435379812E+03  0.33806353675E+03  0.00000000000E+00 0.  1.
</event>
<event>
 4    1  0.3664744E+003  0.4026125E+02  0.7546771E-02  0.1346962E+00
          2   -1    0    0  502    0  0.00000000000E+00  0.00000000000E+00  0.64463689109E+02  0.64463689109E+02  0.00000000000E+00 0. -1.
          1   -1    0    0  501    0 -0.00000000000E+00 -0.00000000000E+00 -0.85423230080E+03  0.85423230080E+03  0.00000000000E+00 0.  1.
          2    1    1    2  501    0  0.34763688498E+02  0.20308970423E+02  0.57652434956E+02  0.70319069775E+02  0.00000000000E+00 0. -1.
          1    1    1    2  502    0 -0.34763688498E+02 -0.20308970423E+02 -0.84742104665E+03  0.84837692013E+03  0.00000000000E+00 0.  1.
</event>
<event>
 4    1  0.3664744E+003  0.4136818E+02  0.7546771E-02  0.1340650E+00
          2   -1    0    0  502    0  0.00000000000E+00  0.00000000000E+00  0.22646975226E+01  0.22646975226E+01  0.00000000000E+00 0. -1.
          1   -1    0    0  501    0 -0.00000000000E+00 -0.00000000000E+00 -0.31315888191E+04  0.31315888191E+04  0.00000000000E+00 0.  1.
          2    1    1    2  501    0  0.29308776532E+02  0.29194551416E+02 -0.19981605588E+03  0.20405338126E+03  0.00000000000E+00 0. -1.
          1    1    1    2  502    0 -0.29308776532E+02 -0.29194551416E+02 -0.29295080657E+04  0.29298001353E+04  0.00000000000E+00 0.  1.
</event>
<event>
 4    1  0.3664744E+003  0.4372884E+02  0.7546771E-02  0.1327919E+00
          2   -1    0    0  502    0  0.00000000000E+00  0.00000000000E+00  0.16233326653E+04  0.16233326653E+04  0.00000000000E+00 0.  1.
          1   -1    0    0  501    0 -0.00000000000E+00 -0.00000000000E+00 -0.20149715801E+01  0.20149715801E+01  0.00000000000E+00 0. -1.
          2    1    1    2  501    0 -0.32093684609E+02 -0.29701966074E+02  0.13344390358E+04  0.13351553287E+04  0.00000000000E+00 0.  1.
          1    1    1    2  502    0  0.32093684609E+02  0.29701966074E+02  0.28687865790E+03  0.29019230820E+03  0.00000000000E+00 0. -1.
</event>
<event>
 4    1  0.3664744E+003  0.2616133E+02  0.7546771E-02  0.1456220E+00
          2   -1    0    0  502    0  0.00000000000E+00  0.00000000000E+00  0.44377377767E+03  0.44377377767E+03  0.00000000000E+00 0.  1.
          1   -1    0    0  501    0 -0.00000000000E+00 -0.00000000000E+00 -0.42239943305E+02  0.42239943305E+02  0.00000000000E+00 0. -1.
          2    1    1    2  501    0 -0.13191101866E+02 -0.22592259565E+02  0.43929620171E+03  0.44007450301E+03  0.00000000000E+00 0.  1.
          1    1    1    2  502    0  0.13191101866E+02  0.22592259565E+02 -0.37762367340E+02  0.45939217971E+02  0.00000000000E+00 0. -1.
</event>
<event>
 4    1  0.3664744E+003  0.2083247E+02  0.7546771E-02  0.1521670E+00
          2   -1    0    0  502    0  0.00000000000E+00  0.00000000000E+00  0.49510419439E+03  0.49510419439E+03  0.00000000000E+00 0.  1.
          1   -1    0    0  501    0 -0.00000000000E+00 -0.00000000000E+00 -0.23460355088E+03  0.23460355088E+03  0.00000000000E+00 0. -1.
          2    1    1    2  501    0 -0.20812402098E+02  0.91419209069E+00  0.49442194121E+03  0.49486063470E+03  0.00000000000E+00 0.  1.
          1    1    1    2  502    0  0.20812402098E+02 -0.91419209069E+00 -0.23392129769E+03  0.23484711057E+03  0.00000000000E+00 0. -1.
</event>
<event>
 4    1  0.3664744E+003  0.2156252E+02  0.7546771E-02  0.1511383E+00
          2   -1    0    0  502    0  0.00000000000E+00  0.00000000000E+00  0.13520120607E+01  0.13520120607E+01  0.00000000000E+00 0.  1.
          1   -1    0    0  501    0 -0.00000000000E+00 -0.00000000000E+00 -0.42948062154E+03  0.42948062154E+03  0.00000000000E+00 0.  1.
          2    1    1    2  501    0  0.20716485972E+02 -0.59807707707E+01 -0.11789824786E+03  0.11985382454E+03  0.00000000000E+00 0.  1.
          1    1    1    2  502    0 -0.20716485972E+02  0.59807707707E+01 -0.31023036162E+03  0.31097880906E+03  0.00000000000E+00 0.  1.
</event>
<event>
 4    1  0.3664744E+003  0.2039212E+02  0.7546771E-02  0.1528123E+00
          2   -1    0    0  502    0  0.00000000000E+00  0.00000000000E+00  0.10546603158E+02  0.10546603158E+02  0.00000000000E+00 0. -1.
          1   -1    0    0  501    0 -0.00000000000E+00 -0.00000000000E+00 -0.21311179637E+03  0.21311179637E+03  0.00000000000E+00 0.  1.
          2    1    1    2  501    0  0.13354128058E+02  0.15411225399E+02 -0.32702826450E+00  0.20394743244E+02  0.00000000000E+00 0. -1.
          1    1    1    2  502    0 -0.13354128058E+02 -0.15411225399E+02 -0.20223816495E+03  0.20326365628E+03  0.00000000000E+00 0.  1.
</event>
<event>
 4    1  0.3664744E+003  0.4564280E+02  0.7546771E-02  0.1318256E+00
          2   -1    0    0  502    0  0.00000000000E+00  0.00000000000E+00  0.69787612269E+01  0.69787612269E+01  0.00000000000E+00 0.  1.
          1   -1    0    0  501    0 -0.00000000000E+00 -0.00000000000E+00 -0.42746514382E+03  0.42746514382E+03  0.00000000000E+00 0.  1.
          2    1    1    2  501    0 -0.15201493708E+02  0.43036957317E+02 -0.90936657902E+02  0.10174841943E+03  0.00000000000E+00 0.  1.
          1    1    1    2  502    0  0.15201493708E+02 -0.43036957317E+02 -0.32954972469E+03  0.33269548562E+03  0.00000000000E+00 0.  1.
</event>
<event>
 4    1  0.3664744E+003  0.2131467E+02  0.7546771E-02  0.1514819E+00
          2   -1    0    0  502    0  0.00000000000E+00  0.00000000000E+00  0.60808537572E+01  0.60808537572E+01  0.00000000000E+00 0.  1.
          1   -1    0    0  501    0 -0.00000000000E+00 -0.00000000000E+00 -0.11817521133E+04  0.11817521133E+04  0.00000000000E+00 0.  1.
          2    1    1    2  501    0  0.20740445839E+02 -0.49141552629E+01 -0.12999852160E+02  0.24966200587E+02  0.00000000000E+00 0.  1.
          1    1    1    2  502    0 -0.20740445839E+02  0.49141552629E+01 -0.11626714074E+04  0.11628667664E+04  0.00000000000E+00 0.  1.
</event>
<event>
 4    1  0.3664744E+003  0.2863098E+02  0.7546771E-02  0.1431878E+00
          2   -1    0    0  502    0  0.00000000000E+00  0.00000000000E+00  0.50177948667E+02  0.50177948667E+02  0.00000000000E+00 0.  1.
          1   -1    0    0  501    0 -0.00000000000E+00 -0.00000000000E+00 -0.28260002121E+02  0.28260002121E+02  0.00000000000E+00 0.  1.
          2    1    1    2  501    0 -0.16976899963E+02 -0.23054674962E+02  0.36433824803E+02  0.46337422886E+02  0.00000000000E+00 0.  1.
          1    1    1    2  502    0  0.16976899963E+02  0.23054674962E+02 -0.14515878258E+02  0.32100527901E+02  0.00000000000E+00 0.  1.
</event>
<event>
 4    1  0.3664744E+003  0.2350955E+02  0.7546771E-02  0.1486197E+00
          2   -1    0    0  502    0  0.00000000000E+00  0.00000000000E+00  0.71600862141E+03  0.71600862141E+03  0.00000000000E+00 0. -1.
          1   -1    0    0  501    0 -0.00000000000E+00 -0.00000000000E+00 -0.10319462217E+01  0.10319462217E+01  0.00000000000E+00 0.  1.
          2    1    1    2  501    0  0.27646561547E+01  0.23346426061E+02  0.53745688832E+03  0.53797082238E+03  0.00000000000E+00 0. -1.
          1    1    1    2  502    0 -0.27646561547E+01 -0.23346426061E+02  0.17751978687E+03  0.17906974525E+03  0.00000000000E+00 0.  1.
</event>
<event>
 4    1  0.3664744E+003  0.3343203E+02  0.7546771E-02  0.1391935E+00
          2   -1    0    0  502    0  0.00000000000E+00  0.00000000000E+00  0.14040129850E+04  0.14040129850E+04  0.00000000000E+00 0. -1.
          1   -1    0    0  501    0 -0.00000000000E+00 -0.00000000000E+00 -0.21981445934E+01  0.21981445934E+01  0.00000000000E+00 0.  1.
          2    1    1    2  501    0  0.31536946479E+02  0.11096006860E+02  0.12624427844E+04  0.12628853805E+04  0.00000000000E+00 0. -1.
          1    1    1    2  502    0 -0.31536946479E+02 -0.11096006860E+02  0.13937205598E+03  0.14332574908E+03  0.00000000000E+00 0.  1.
</event>
<event>
 4    1  0.3664744E+003  0.6822740E+02  0.7546771E-02  0.1234180E+00
          2   -1    0    0  502    0  0.00000000000E+00  0.00000000000E+00  0.89451814517E+02  0.89451814517E+02  0.00000000000E+00 0. -1.
          1   -1    0    0  501    0 -0.00000000000E+00 -0.00000000000E+00 -0.17784893849E+03  0.17784893849E+03  0.00000000000E+00 0.  1.
          2    1    1    2  501    0  0.47969706959E+02 -0.48516859061E+02  0.68210703794E+02  0.96476310621E+02  0.00000000000E+00 0. -1.
          1    1    1    2  502    0 -0.47969706959E+02  0.48516859061E+02 -0.15660782777E+03  0.17082444239E+03  0.00000000000E+00 0.  1.
</event>
<event>
 4    1  0.3664744E+003  0.2158123E+02  0.7546771E-02  0.1511126E+00
          2   -1    0    0  502    0  0.00000000000E+00  0.00000000000E+00  0.27503318003E+03  0.27503318003E+03  0.00000000000E+00 0. -1.
          1   -1    0    0  501    0 -0.00000000000E+00 -0.00000000000E+00 -0.33904776048E+01  0.33904776048E+01  0.00000000000E+00 0. -1.
          2    1    1    2  501    0 -0.21353257407E+02  0.31285288017E+01  0.23431149652E+03  0.23530326538E+03  0.00000000000E+00 0. -1.
          1    1    1    2  502    0  0.21353257407E+02 -0.31285288017E+01  0.37331205902E+02  0.43120392258E+02  0.00000000000E+00 0. -1.
</event>
<event>
 4    1  0.3664744E+003  0.2103256E+02  0.7546771E-02  0.1518800E+00
          2   -1    0    0  502    0  0.00000000000E+00  0.00000000000E+00  0.46089209886E+03  0.46089209886E+03  0.00000000000E+00 0. -1.
          1   -1    0    0  501    0 -0.00000000000E+00 -0.00000000000E+00 -0.95986399104E+00  0.95986399104E+00  0.00000000000E+00 0.  1.
          2    1    1    2  501    0  0.16313846879E+02  0.13275051443E+02  0.23170687926E+03  0.23265950763E+03  0.00000000000E+00 0. -1.
          1    1    1    2  502    0 -0.16313846879E+02 -0.13275051443E+02  0.22822535560E+03  0.22919245522E+03  0.00000000000E+00 0.  1.
</event>
<event>
 4    1  0.3664744E+003  0.2380297E+02  0.7546771E-02  0.1482654E+00
          2   -1    0    0  502    0  0.00000000000E+00  0.00000000000E+00  0.33575403363E+03  0.33575403363E+03  0.00000000000E+00 0. -1.
          1   -1    0    0  501    0 -0.00000000000E+00 -0.00000000000E+00 -0.65807238094E+01  0.65807238094E+01  0.00000000000E+00 0.  1.
          2    1    1    2  501    0  0.13032264831E+02  0.19918373702E+02  0.31218522720E+03  0.31309135667E+03  0.00000000000E+00 0. -1.
          1    1    1    2  502    0 -0.13032264831E+02 -0.19918373702E+02  0.16988082619E+02  0.29243400771E+02  0.00000000000E+00 0.  1.
</event>
<event>
 4    1  0.3664744E+003  0.2281046E+02  0.7546771E-02  0.1494892E+00
          2   -1    0    0  502    0  0.00000000000E+00  0.00000000000E+00  0.27630387916E+03  0.27630387916E+03  0.00000000000E+00 0.  1.
          1   -1    0    0  501    0 -0.00000000000E+00 -0.00000000000E+00 -0.99854224403E+01  0.99854224403E+01  0.00000000000E+00 0. -1.
          2    1    1    2  501    0  0.21178772874E+02  0.84720977329E+01  0.26210163975E+03  0.26309235340E+03  0.00000000000E+00 0.  1.
          1    1    1    2  502    0 -0.21178772874E+02 -0.84720977329E+01  0.42168169759E+01  0.23196948202E+02  0.00000000000E+00 0. -1.
</event>
<event>
 4    1  0.3664744E+003  0.3148177E+02  0.7546771E-02  0.1407142E+00
          2   -1    0    0  502    0  0.00000000000E+00  0.00000000000E+00  0.32851625298E+01  0.32851625298E+01  0.00000000000E+00 0. -1.
          1   -1    0    0  501    0 -0.00000000000E+00 -0.00000000000E+00 -0.42380216418E+03  0.42380216418E+03  0.00000000000E+00 0.  1.
          2    1    1    2  501    0  0.31319393063E+02  0.31933852728E+01 -0.95632324419E+02  0.10068089970E+03  0.00000000000E+00 0. -1.
          1    1    1    2  502    0 -0.31319393063E+02 -0.31933852728E+01 -0.32488467723E+03  0.32640642700E+03  0.00000000000E+00 0.  1.
</event>
<event>
 4    1  0.3664744E+003  0.2697997E+02  0.7546771E-02  0.1447809E+00
          2   -1    0    0  502    0  0.00000000000E+00  0.00000000000E+00  0.23933987608E+02  0.23933987608E+02  0.00000000000E+00 0.  1.
          1   -1    0    0  501    0 -0.00000000000E+00 -0.00000000000E+00 -0.41327467896E+02  0.41327467896E+02  0.00000000000E+00 0.  1.
          2    1    1    2  501    0  0.44137363589E+01  0.26616490723E+02  0.80718586060E+01  0.28161561541E+02  0.00000000000E+00 0.  1.
          1    1    1    2  502    0 -0.44137363589E+01 -0.26616490723E+02 -0.25465338894E+02  0.37099893963E+02  0.00000000000E+00 0.  1.
</event>
<event>
 4    1  0.3664744E+003  0.2124081E+02  0.7546771E-02  0.1515854E+00
          2   -1    0    0  502    0  0.00000000000E+00  0.00000000000E+00  0.30043720345E+02  0.30043720345E+02  0.00000000000E+00 0.  1.
          1   -1    0    0  501    0 -0.00000000000E+00 -0.00000000000E+00 -0.16443710691E+02  0.16443710691E+02  0.00000000000E+00 0.  1.
          2    1    1    2  501    0 -0.10771555450E+02  0.18306983893E+02  0.13646142708E+02  0.25246569606E+02  0.00000000000E+00 0.  1.
          1    1    1    2  502    0  0.10771555450E+02 -0.18306983893E+02 -0.46133053625E-01  0.21240861430E+02  0.00000000000E+00 0.  1.
</event>
<event>
 4    1  0.3664744E+003  0.2448616E+02  0.7546771E-02  0.1474635E+00
          2   -1    0    0  502    0  0.00000000000E+00  0.00000000000E+00  0.63502506572E+03  0.63502506572E+03  0.00000000000E+00 0.  1.
          1   -1    0    0  501    0 -0.00000000000E+00 -0.00000000000E+00 -0.51121279622E+03  0.51121279622E+03  0.00000000000E+00 0. -1.
          2    1    1    2  501    0  0.54461247186E+01  0.23872821946E+02  0.63449556798E+03  0.63496787138E+03  0.00000000000E+00 0.  1.
          1    1    1    2  502    0 -0.54461247186E+01 -0.23872821946E+02 -0.51068329848E+03  0.51126999056E+03  0.00000000000E+00 0. -1.
</event>
<event>
 4    1  0.3664744E+003  0.2569867E+02  0.7546771E-02  0.1461137E+00
          2   -1    0    0  502    0  0.00000000000E+00  0.00000000000E+00  0.96356011853E+03  0.96356011853E+03  0.00000000000E+00 0.  1.
          1   -1    0    0  501    0 -0.00000000000E+00 -0.00000000000E+00 -0.82754962963E+00  0.82754962963E+00  0.00000000000E+00 0. -1.
          2    1    1    2  501    0  0.53728147563E+01 -0.25130746616E+02  0.68121507462E+03  0.68169964020E+03  0.00000000000E+00 0.  1.
          1    1    1    2  502    0 -0.53728147563E+01  0.25130746616E+02  0.28151749428E+03  0.28268802796E+03  0.00000000000E+00 0. -1.
</event>
<event>
 4    1  0.3664744E+003  0.2166201E+02  0.7546771E-02  0.1510019E+00
          2   -1    0    0  502    0  0.00000000000E+00  0.00000000000E+00  0.20665736024E+02  0.20665736024E+02  0.00000000000E+00 0. -1.
          1   -1    0    0  501    0 -0.00000000000E+00 -0.00000000000E+00 -0.99390869618E+03  0.99390869618E+03  0.00000000000E+00 0.  1.
          2    1    1    2  501    0 -0.30565521752E+01 -0.21445280188E+02  0.14837650954E+02  0.26256398065E+02  0.00000000000E+00 0. -1.
          1    1    1    2  502    0  0.30565521752E+01  0.21445280188E+02 -0.98808061111E+03  0.98831803414E+03  0.00000000000E+00 0.  1.
</event>
<event>
 4    1  0.3664744E+003  0.2839541E+02  0.7546771E-02  0.1434073E+00
          2   -1    0    0  502    0  0.00000000000E+00  0.00000000000E+00  0.13407775494E+04  0.13407775494E+04  0.00000000000E+00 0.  1.
          1   -1    0    0  501    0 -0.00000000000E+00 -0.00000000000E+00 -0.17798095773E+01  0.17798095773E+01  0.00000000000E+00 0. -1.
          2    1    1    2  501    0 -0.25319132120E+02 -0.12854612468E+02  0.12157222400E+04  0.12160538081E+04  0.00000000000E+00 0.  1.
          1    1    1    2  502    0  0.25319132120E+02  0.12854612468E+02  0.12327549989E+03  0.12650355089E+03  0.00000000000E+00 0. -1.
</event>
<event>
 4    1  0.3664744E+003  0.2814381E+02  0.7546771E-02  0.1436445E+00
          2   -1    0    0  502    0  0.00000000000E+00  0.00000000000E+00  0.64868591759E+03  0.64868591759E+03  0.00000000000E+00 0. -1.
          1   -1    0    0  501    0 -0.00000000000E+00 -0.00000000000E+00 -0.37107370201E+03  0.37107370201E+03  0.00000000000E+00 0. -1.
          2    1    1    2  501    0  0.26273014926E+02  0.10089730626E+02  0.64784632881E+03  0.64845735382E+03  0.00000000000E+00 0. -1.
          1    1    1    2  502    0 -0.26273014926E+02 -0.10089730626E+02 -0.37023411323E+03  0.37130226578E+03  0.00000000000E+00 0. -1.
</event>
<event>
 4    1  0.3664744E+003  0.2342846E+02  0.7546771E-02  0.1487187E+00
          2   -1    0    0  502    0  0.00000000000E+00  0.00000000000E+00  0.10402903739E+04  0.10402903739E+04  0.00000000000E+00 0.  1.
          1   -1    0    0  501    0 -0.00000000000E+00 -0.00000000000E+00 -0.16437594839E+01  0.16437594839E+01  0.00000000000E+00 0. -1.
          2    1    1    2  501    0 -0.38495593923E+01 -0.23110028313E+02  0.94861022766E+03  0.94889949759E+03  0.00000000000E+00 0.  1.
          1    1    1    2  502    0  0.38495593923E+01  0.23110028313E+02  0.90036386755E+02  0.93034635787E+02  0.00000000000E+00 0. -1.
</event>
<event>
 4    1  0.3664744E+003  0.2263894E+02  0.7546771E-02  0.1497082E+00
          2   -1    0    0  502    0  0.00000000000E+00  0.00000000000E+00  0.22714393493E+02  0.22714393493E+02  0.00000000000E+00 0.  1.
          1   -1    0    0  501    0 -0.00000000000E+00 -0.00000000000E+00 -0.22933216874E+02  0.22933216874E+02  0.00000000000E+00 0.  1.
          2    1    1    2  501    0 -0.47876653182E+01 -0.22126901213E+02  0.27876227478E+01  0.22809917515E+02  0.00000000000E+00 0.  1.
          1    1    1    2  502    0  0.47876653182E+01  0.22126901213E+02 -0.30064461284E+01  0.22837692852E+02  0.00000000000E+00 0.  1.
</event>
<event>
 4    1  0.3664744E+003  0.2936895E+02  0.7546771E-02  0.1425161E+00
          2   -1    0    0  502    0  0.00000000000E+00  0.00000000000E+00  0.18729284320E+03  0.18729284320E+03  0.00000000000E+00 0. -1.
          1   -1    0    0  501    0 -0.00000000000E+00 -0.00000000000E+00 -0.30129618981E+02  0.30129618981E+02  0.00000000000E+00 0. -1.
          2    1    1    2  501    0  0.29222659738E+02  0.29277082350E+01  0.17864031676E+03  0.18103838844E+03  0.00000000000E+00 0. -1.
          1    1    1    2  502    0 -0.29222659738E+02 -0.29277082350E+01 -0.21477092543E+02  0.36384073738E+02  0.00000000000E+00 0. -1.
</event>
<event>
 4    1  0.3664744E+003  0.2652497E+02  0.7546771E-02  0.1452439E+00
          2   -1    0    0  502    0  0.00000000000E+00  0.00000000000E+00  0.73631662739E+00  0.73631662739E+00  0.00000000000E+00 0. -1.
          1   -1    0    0  501    0 -0.00000000000E+00 -0.00000000000E+00 -0.20268287719E+04  0.20268287719E+04  0.00000000000E+00 0.  1.
          2    1    1    2  501    0 -0.11087116478E+02 -0.24096681075E+02 -0.27600606869E+03  0.27727770222E+03  0.00000000000E+00 0. -1.
          1    1    1    2  502    0  0.11087116478E+02  0.24096681075E+02 -0.17500863866E+04  0.17502873863E+04  0.00000000000E+00 0.  1.
</event>
<event>
 4    1  0.3664744E+003  0.2284481E+02  0.7546771E-02  0.1494456E+00
          2   -1    0    0  502    0  0.00000000000E+00  0.00000000000E+00  0.24116720610E+03  0.24116720610E+03  0.00000000000E+00 0. -1.
          1   -1    0    0  501    0 -0.00000000000E+00 -0.00000000000E+00 -0.46242624233E+01  0.46242624233E+01  0.00000000000E+00 0. -1.
          2    1    1    2  501    0 -0.13965971610E+02 -0.18078630497E+02  0.20791243319E+03  0.20916372802E+03  0.00000000000E+00 0. -1.
          1    1    1    2  502    0  0.13965971610E+02  0.18078630497E+02  0.28630510479E+02  0.36627740497E+02  0.00000000000E+00 0. -1.
</event>
<event>
 4    1  0.3664744E+003  0.3659031E+02  0.7546771E-02  0.1369715E+00
          2   -1    0    0  502    0  0.00000000000E+00  0.00000000000E+00  0.88916910108E+03  0.88916910108E+03  0.00000000000E+00 0.  1.
          1   -1    0    0  501    0 -0.00000000000E+00 -0.00000000000E+00 -0.11811595312E+02  0.11811595312E+02  0.00000000000E+00 0.  1.
          2    1    1    2  501    0  0.24600965312E+02 -0.27085846803E+02  0.85947648931E+03  0.86025501234E+03  0.00000000000E+00 0.  1.
          1    1    1    2  502    0 -0.24600965312E+02  0.27085846803E+02  0.17881016456E+02  0.40725684044E+02  0.00000000000E+00 0.  1.
</event>
<event>
 4    1  0.3664744E+003  0.4963136E+02  0.7546771E-02  0.1299779E+00
          2   -1    0    0  502    0  0.00000000000E+00  0.00000000000E+00  0.49435726991E+01  0.49435726991E+01  0.00000000000E+00 0.  1.
          1   -1    0    0  501    0 -0.00000000000E+00 -0.00000000000E+00 -0.72909865238E+03  0.72909865238E+03  0.00000000000E+00 0.  1.
          2    1    1    2  501    0  0.30818911528E+01 -0.49535582054E+02 -0.15557018142E+03  0.16329529476E+03  0.00000000000E+00 0.  1.
          1    1    1    2  502    0 -0.30818911528E+01  0.49535582054E+02 -0.56858489826E+03  0.57074693032E+03  0.00000000000E+00 0.  1.
</event>
<event>
 4    1  0.3664744E+003  0.2315290E+02  0.7546771E-02  0.1490587E+00
          2   -1    0    0  502    0  0.00000000000E+00  0.00000000000E+00  0.52592755421E+03  0.52592755421E+03  0.00000000000E+00 0.  1.
          1   -1    0    0  501    0 -0.00000000000E+00 -0.00000000000E+00 -0.40469250133E+02  0.40469250133E+02  0.00000000000E+00 0. -1.
          2    1    1    2  501    0  0.22879268527E+02  0.35490712441E+01  0.52233848947E+03  0.52285136934E+03  0.00000000000E+00 0.  1.
          1    1    1    2  502    0 -0.22879268527E+02 -0.35490712441E+01 -0.36880185394E+02  0.43545435005E+02  0.00000000000E+00 0. -1.
</event>
<event>
 4    1  0.3664744E+003  0.2031944E+02  0.7546771E-02  0.1529207E+00
          2   -1    0    0  502    0  0.00000000000E+00  0.00000000000E+00  0.11083432370E+04  0.11083432370E+04  0.00000000000E+00 0.  1.
          1   -1    0    0  501    0 -0.00000000000E+00 -0.00000000000E+00 -0.27554621464E+01  0.27554621464E+01  0.00000000000E+00 0. -1.
          2    1    1    2  501    0 -0.20184025299E+02 -0.23419360523E+01  0.10694269640E+04  0.10696199843E+04  0.00000000000E+00 0.  1.
          1    1    1    2  502    0  0.20184025299E+02  0.23419360523E+01  0.36160810880E+02  0.41478714846E+02  0.00000000000E+00 0. -1.
</event>
<event>
 4    1  0.3664744E+003  0.2529548E+02  0.7546771E-02  0.1465525E+00
          2   -1    0    0  502    0  0.00000000000E+00  0.00000000000E+00  0.32950163932E+03  0.32950163932E+03  0.00000000000E+00 0.  1.
          1   -1    0    0  501    0 -0.00000000000E+00 -0.00000000000E+00 -0.46821041911E+01  0.46821041911E+01  0.00000000000E+00 0.  1.
          2    1    1    2  501    0 -0.14097146749E+02 -0.21003139417E+02  0.29023768877E+03  0.29133790930E+03  0.00000000000E+00 0.  1.
          1    1    1    2  502    0  0.14097146749E+02  0.21003139417E+02  0.34581846363E+02  0.42845834217E+02  0.00000000000E+00 0.  1.
</event>
<event>
 4    1  0.3664744E+003  0.2043633E+02  0.7546771E-02  0.1527467E+00
          2   -1    0    0  502    0  0.00000000000E+00  0.00000000000E+00  0.48124726974E+02  0.48124726974E+02  0.00000000000E+00 0.  1.
          1   -1    0    0  501    0 -0.00000000000E+00 -0.00000000000E+00 -0.31867664926E+02  0.31867664926E+02  0.00000000000E+00 0.  1.
          2    1    1    2  501    0  0.14135723057E+02 -0.14758898238E+02  0.42246834248E+02  0.46930147533E+02  0.00000000000E+00 0.  1.
          1    1    1    2  502    0 -0.14135723057E+02  0.14758898238E+02 -0.25989772200E+02  0.33062244367E+02  0.00000000000E+00 0.  1.
</event>
<event>
 4    1  0.3664744E+003  0.2037130E+02  0.7546771E-02  0.1528433E+00
          2   -1    0    0  502    0  0.00000000000E+00  0.00000000000E+00  0.22159571604E+02  0.22159571604E+02  0.00000000000E+00 0. -1.
          1   -1    0    0  501    0 -0.00000000000E+00 -0.00000000000E+00 -0.54242024066E+02  0.54242024066E+02  0.00000000000E+00 0.  1.
          2    1    1    2  501    0 -0.12612125627E+02 -0.15997627735E+02  0.14869447761E+02  0.25220830333E+02  0.00000000000E+00 0. -1.
          1    1    1    2  502    0  0.12612125627E+02  0.15997627735E+02 -0.46951900223E+02  0.51180765337E+02  0.00000000000E+00 0.  1.
</event>
<event>
 4    1  0.3664744E+003  0.2282604E+02  0.7546771E-02  0.1494694E+00
          2   -1    0    0  502    0  0.00000000000E+00  0.00000000000E+00  0.12232002928E+04  0.12232002928E+04  0.00000000000E+00 0. -1.
          1   -1    0    0  501    0 -0.00000000000E+00 -0.00000000000E+00 -0.74781553726E+01  0.74781553726E+01  0.00000000000E+00 0.  1.
          2    1    1    2  501    0  0.14211537410E+02  0.17862260556E+02  0.12054185424E+04  0.12056346422E+04  0.00000000000E+00 0. -1.
          1    1    1    2  502    0 -0.14211537410E+02 -0.17862260556E+02  0.10303595074E+02  0.25043806004E+02  0.00000000000E+00 0.  1.
</event>
<event>
 4    1  0.3664744E+003  0.2106527E+02  0.7546771E-02  0.1518335E+00
          2   -1    0    0  502    0  0.00000000000E+00  0.00000000000E+00  0.22482291715E+01  0.22482291715E+01  0.00000000000E+00 0.  1.
          1   -1    0    0  501    0 -0.00000000000E+00 -0.00000000000E+00 -0.68120086199E+03  0.68120086199E+03  0.00000000000E+00 0. -1.
          2    1    1    2  501    0 -0.33870875377E+01  0.20791183093E+02 -0.51482717146E+02  0.55625675916E+02  0.00000000000E+00 0.  1.
          1    1    1    2  502    0  0.33870875377E+01 -0.20791183093E+02 -0.62746991567E+03  0.62782341524E+03  0.00000000000E+00 0. -1.
</event>
<event>
 4    1  0.3664744E+003  0.4193632E+02  0.7546771E-02  0.1337498E+00
          2   -1    0    0  502    0  0.00000000000E+00  0.00000000000E+00  0.26863710129E+03  0.26863710129E+03  0.00000000000E+00 0. -1.
          1   -1    0    0  501    0 -0.00000000000E+00 -0.00000000000E+00 -0.79493765586E+01  0.79493765586E+01  0.00000000000E+00 0.  1.
          2    1    1    2  501    0  0.41311238457E+02 -0.72135276126E+01  0.72249731175E+02  0.83538476515E+02  0.00000000000E+00 0. -1.
          1    1    1    2  502    0 -0.41311238457E+02  0.72135276126E+01  0.18843799355E+03  0.19304800133E+03  0.00000000000E+00 0.  1.
</event>
<event>
 4    1  0.3664744E+003  0.3138685E+02  0.7546771E-02  0.1407916E+00
          2   -1    0    0  502    0  0.00000000000E+00  0.00000000000E+00  0.30058321176E+04  0.30058321176E+04  0.00000000000E+00 0.  1.
          1   -1    0    0  501    0 -0.00000000000E+00 -0.00000000000E+00 -0.33496874140E+00  0.33496874140E+00  0.00000000000E+00 0.  1.
          2    1    1    2  501    0  0.22901483009E+02  0.21462891181E+02  0.12819530326E+04  0.12823372065E+04  0.00000000000E+00 0.  1.
          1    1    1    2  502    0 -0.22901483009E+02 -0.21462891181E+02  0.17235441163E+04  0.17238298798E+04  0.00000000000E+00 0.  1.
</event>
<event>
 4    1  0.3664744E+003  0.2308539E+02  0.7546771E-02  0.1491429E+00
          2   -1    0    0  502    0  0.00000000000E+00  0.00000000000E+00  0.31543478347E+02  0.31543478347E+02  0.00000000000E+00 0. -1.
          1   -1    0    0  501    0 -0.00000000000E+00 -0.00000000000E+00 -0.35407382260E+02  0.35407382260E+02  0.00000000000E+00 0. -1.
          2    1    1    2  501    0  0.18810952345E+02 -0.13382200962E+02  0.22273175688E+02  0.32078491017E+02  0.00000000000E+00 0. -1.
          1    1    1    2  502    0 -0.18810952345E+02  0.13382200962E+02 -0.26137079601E+02  0.34872369590E+02  0.00000000000E+00 0. -1.
</event>
<event>
 4    1  0.3664744E+003  0.2459173E+02  0.7546771E-02  0.1473423E+00
          2   -1    0    0  502    0  0.00000000000E+00  0.00000000000E+00  0.79816586968E+01  0.79816586968E+01  0.00000000000E+00 0.  1.
          1   -1    0    0  501    0 -0.00000000000E+00 -0.00000000000E+00 -0.78106209374E+03  0.78106209374E+03  0.00000000000E+00 0. -1.
          2    1    1    2  501    0  0.21712641195E+02  0.11546190824E+02 -0.11641917180E+02  0.27208225702E+02  0.00000000000E+00 0.  1.
          1    1    1    2  502    0 -0.21712641195E+02 -0.11546190824E+02 -0.76143851786E+03  0.76183552673E+03  0.00000000000E+00 0. -1.
</event>
<event>
 4    1  0.3664744E+003  0.2560761E+02  0.7546771E-02  0.1462120E+00
          2   -1    0    0  502    0  0.00000000000E+00  0.00000000000E+00  0.14038506411E+04  0.14038506411E+04  0.00000000000E+00 0. -1.
          1   -1    0    0  501    0 -0.00000000000E+00 -0.00000000000E+00 -0.34986989023E+01  0.34986989023E+01  0.00000000000E+00 0. -1.
          2    1    1    2  501    0 -0.24747236872E+02  0.65820954039E+01  0.13551950336E+04  0.13554369512E+04  0.00000000000E+00 0. -1.
          1    1    1    2  502    0  0.24747236872E+02 -0.65820954039E+01  0.45156908640E+02  0.51912388797E+02  0.00000000000E+00 0. -1.
</event>
<event>
 4    1  0.3664744E+003  0.2778527E+02  0.7546771E-02  0.1439875E+00
          2   -1    0    0  502    0  0.00000000000E+00  0.00000000000E+00  0.17269370629E+02  0.17269370629E+02  0.00000000000E+00 0.  1.
          1   -1    0    0  501    0 -0.00000000000E+00 -0.00000000000E+00 -0.13012308971E+03  0.13012308971E+03  0.00000000000E+00 0. -1.
          2    1    1    2  501    0 -0.80786581516E+01  0.26584892807E+02  0.32827038485E+01  0.27978516538E+02  0.00000000000E+00 0.  1.
          1    1    1    2  502    0  0.80786581516E+01 -0.26584892807E+02 -0.11613642293E+03  0.11941394380E+03  0.00000000000E+00 0. -1.
</event>
<event>
 4    1  0.3664744E+003  0.2779961E+02  0.7546771E-02  0.1439737E+00
          2   -1    0    0  502    0  0.00000000000E+00  0.00000000000E+00  0.10586849960E+04  0.10586849960E+04  0.00000000000E+00 0.  1.
          1   -1    0    0  501    0 -0.00000000000E+00 -0.00000000000E+00 -0.57057349130E+01  0.57057349130E+01  0.00000000000E+00 0.  1.
          2    1    1    2  501    0  0.24604121295E+02 -0.12940457867E+02  0.10234763797E+04  0.10238538558E+04  0.00000000000E+00 0.  1.
          1    1    1    2  502    0 -0.24604121295E+02  0.12940457867E+02  0.29502881422E+02  0.40536875147E+02  0.00000000000E+00 0.  1.
</event>
<event>
 4    1  0.3664744E+003  0.2163113E+02  0.7546771E-02  0.1510442E+00
          2   -1    0    0  502    0  0.00000000000E+00  0.00000000000E+00  0.59729215313E+02  0.59729215313E+02  0.00000000000E+00 0.  1.
          1   -1    0    0  501    0 -0.00000000000E+00 -0.00000000000E+00 -0.12452453615E+02  0.12452453615E+02  0.00000000000E+00 0.  1.
          2    1    1    2  501    0 -0.21252632936E+02 -0.40288278282E+01  0.45618388318E+02  0.50487059858E+02  0.00000000000E+00 0.  1.
          1    1    1    2  502    0  0.21252632936E+02  0.40288278282E+01  0.16583733806E+01  0.21694609069E+02  0.00000000000E+00 0.  1.
</event>
<event>
 4    1  0.3664744E+003  0.2205978E+02  0.7546771E-02  0.1504654E+00
          2   -1    0    0  502    0  0.00000000000E+00  0.00000000000E+00  0.10753564575E+04  0.10753564575E+04  0.00000000000E+00 0.  1.
          1   -1    0    0  501    0 -0.00000000000E+00 -0.00000000000E+00 -0.57633133084E+00  0.57633133084E+00  0.00000000000E+00 0.  1.
          2    1    1    2  501    0 -0.13310407940E+02 -0.17591676753E+02  0.78672136653E+03  0.78703058556E+03  0.00000000000E+00 0.  1.
          1    1    1    2  502    0  0.13310407940E+02  0.17591676753E+02  0.28805875966E+03  0.28890220329E+03  0.00000000000E+00 0.  1.
</event>
<event>
 4    1  0.3664744E+003  0.3558393E+02  0.7546771E-02  0.1376504E+00
          2   -1    0    0  502    0  0.00000000000E+00  0.00000000000E+00  0.55623350783E+03  0.55623350783E+03  0.00000000000E+00 0.  1.
          1   -1    0    0  501    0 -0.00000000000E+00 -0.00000000000E+00 -0.11643674430E+03  0.11643674430E+03  0.00000000000E+00 0.  1.
          2    1    1    2  501    0  0.32879970790E+02 -0.13606002033E+02  0.55292949928E+03  0.55407332271E+03  0.00000000000E+00 0.  1.
          1    1    1    2  502    0 -0.32879970790E+02  0.13606002033E+02 -0.11313273575E+03  0.11859692942E+03  0.00000000000E+00 0.  1.
</event>
<event>
 4    1  0.3664744E+003  0.3500585E+02  0.7546771E-02  0.1380522E+00
          2   -1    0    0  502    0  0.00000000000E+00  0.00000000000E+00  0.35266857154E+02  0.35266857154E+02  0.00000000000E+00 0.  1.
          1   -1    0    0  501    0 -0.00000000000E+00 -0.00000000000E+00 -0.50061126663E+02  0.50061126663E+02  0.00000000000E+00 0.  1.
          2    1    1    2  501    0  0.78171498864E+01 -0.34121851038E+02 -0.30994357297E+02  0.46755307024E+02  0.00000000000E+00 0.  1.
          1    1    1    2  502    0 -0.78171498864E+01  0.34121851038E+02  0.16200087788E+02  0.38572676793E+02  0.00000000000E+00 0.  1.
</event>
<event>
 4    1  0.3664744E+003  0.2223160E+02  0.7546771E-02  0.1502379E+00
          2   -1    0    0  502    0  0.00000000000E+00  0.00000000000E+00  0.10716598835E+03  0.10716598835E+03  0.00000000000E+00 0.  1.
          1   -1    0    0  501    0 -0.00000000000E+00 -0.00000000000E+00 -0.15708460208E+02  0.15708460208E+02  0.00000000000E+00 0.  1.
          2    1    1    2  501    0 -0.72755271296E+01  0.21007393316E+02  0.97365412205E+02  0.99871253936E+02  0.00000000000E+00 0.  1.
          1    1    1    2  502    0  0.72755271296E+01 -0.21007393316E+02 -0.59078840587E+01  0.23003194626E+02  0.00000000000E+00 0.  1.
</event>
<event>
 4    1  0.3664744E+003  0.2321596E+02  0.7546771E-02  0.1489804E+00
          2   -1    0    0  502    0  0.00000000000E+00  0.00000000000E+00  0.31886386920E+02  0.31886386920E+02  0.00000000000E+00 0.  1.
          1   -1    0    0  501    0 -0.00000000000E+00 -0.00000000000E+00 -0.16991241671E+02  0.16991241671E+02  0.00000000000E+00 0.  1.
          2    1    1    2  501    0 -0.22688089398E+02  0.49224656734E+01  0.56877895682E+01  0.23902531645E+02  0.00000000000E+00 0.  1.
          1    1    1    2  502    0  0.22688089398E+02 -0.49224656734E+01  0.92073556803E+01  0.24975096946E+02  0.00000000000E+00 0.  1.
</event>
<event>
 4    1  0.3664744E+003  0.2033492E+02  0.7546771E-02  0.1528976E+00
          2   -1    0    0  502    0  0.00000000000E+00  0.00000000000E+00  0.97813785257E+03  0.97813785257E+03  0.00000000000E+00 0.  1.
          1   -1    0    0  501    0 -0.00000000000E+00 -0.00000000000E+00 -0.85484938061E+01  0.85484938061E+01  0.00000000000E+00 0.  1.
          2    1    1    2  501    0  0.12102652420E+02 -0.16341196058E+02  0.96578446607E+03  0.96599852163E+03  0.00000000000E+00 0.  1.
          1    1    1    2  502    0 -0.12102652420E+02  0.16341196058E+02  0.38048926881E+01  0.20687824743E+02  0.00000000000E+00 0.  1.
</event>
<event>
 4    1  0.3664744E+003  0.2537787E+02  0.7546771E-02  0.1464620E+00
          2   -1    0    0  502    0  0.00000000000E+00  0.00000000000E+00  0.48246231335E+00  0.48246231335E+00  0.00000000000E+00 0.  1.
          1   -1    0    0  501    0 -0.00000000000E+00 -0.00000000000E+00 -0.14103200142E+04  0.14103200142E+04  0.00000000000E+00 0. -1.
          2    1    1    2  501    0  0.21637352153E+02 -0.13261269893E+02 -0.54178776406E+03  0.54238180055E+03  0.00000000000E+00 0.  1.
          1    1    1    2  502    0 -0.21637352153E+02  0.13261269893E+02 -0.86804978785E+03  0.86842067598E+03  0.00000000000E+00 0. -1.
</event>
<event>
 4    1  0.3664744E+003  0.4028379E+02  0.7546771E-02  0.1346831E+00
          2   -1    0    0  502    0  0.00000000000E+00  0.00000000000E+00  0.26321541575E+03  0.26321541575E+03  0.00000000000E+00 0.  1.
          1   -1    0    0  501    0 -0.00000000000E+00 -0.00000000000E+00 -0.61678356381E+01  0.61678356381E+01  0.00000000000E+00 0.  1.
          2    1    1    2  501    0 -0.32602138069E+02 -0.23661838032E+02  0.12575216379E+03  0.13204691849E+03  0.00000000000E+00 0.  1.
          1    1    1    2  502    0  0.32602138069E+02  0.23661838032E+02  0.13129541632E+03  0.13733633289E+03  0.00000000000E+00 0.  1.
</event>
<event>
 4    1  0.3664744E+003  0.2460429E+02  0.7546771E-02  0.1473279E+00
          2   -1    0    0  502    0  0.00000000000E+00  0.00000000000E+00  0.16131567960E+02  0.16131567960E+02  0.00000000000E+00 0. -1.
          1   -1    0    0  501    0 -0.00000000000E+00 -0.00000000000E+00 -0.13923318127E+03  0.13923318127E+03  0.00000000000E+00 0.  1.
          2    1    1    2  501    0  0.12218348414E+02 -0.21356105443E+02  0.48425366804E+01  0.25076312312E+02  0.00000000000E+00 0. -1.
          1    1    1    2  502    0 -0.12218348414E+02  0.21356105443E+02 -0.12794414999E+03  0.13028843692E+03  0.00000000000E+00 0.  1.
</event>
<event>
 4    1  0.3664744E+003  0.3466429E+02  0.7546771E-02  0.1382939E+00
          2   -1    0    0  502    0  0.00000000000E+00  0.00000000000E+00  0.12758468722E+03  0.12758468722E+03  0.00000000000E+00 0. -1.
          1   -1    0    0  501    0 -0.00000000000E+00 -0.00000000000E+00 -0.24061883166E+02  0.24061883166E+02  0.00000000000E+00 0.  1.
          2    1    1    2  501    0  0.14070850612E+02  0.31680022997E+02  0.11091260489E+03  0.11620335029E+03  0.00000000000E+00 0. -1.
          1    1    1    2  502    0 -0.14070850612E+02 -0.31680022997E+02 -0.73898008437E+01  0.35443220093E+02  0.00000000000E+00 0.  1.
</event>
<event>
 4    1  0.3664744E+003  0.2827586E+02  0.7546771E-02  0.1435196E+00
          2   -1    0    0  502    0  0.00000000000E+00  0.00000000000E+00  0.92118955659E+03  0.92118955659E+03  0.00000000000E+00 0. -1.
          1   -1    0    0  501    0 -0.00000000000E+00 -0.00000000000E+00 -0.16225035299E+03  0.16225035299E+03  0.00000000000E+00 0.  1.
          2    1    1    2  501    0 -0.16070900713E+01 -0.28230156002E+02  0.91973870199E+03  0.92017324694E+03  0.00000000000E+00 0. -1.
          1    1    1    2  502    0  0.16070900713E+01  0.28230156002E+02 -0.16079949839E+03  0.16326666264E+03  0.00000000000E+00 0.  1.
</event>
<event>
 4    1  0.3664744E+003  0.8211619E+02  0.7546771E-02  0.1199018E+00
          2   -1    0    0  502    0  0.00000000000E+00  0.00000000000E+00  0.65663496197E+02  0.65663496197E+02  0.00000000000E+00 0.  1.
          1   -1    0    0  501    0 -0.00000000000E+00 -0.00000000000E+00 -0.10283298023E+03  0.10283298023E+03  0.00000000000E+00 0.  1.
          2    1    1    2  501    0  0.38616878711E+02 -0.72469345373E+02 -0.15457513143E+02  0.83558387088E+02  0.00000000000E+00 0.  1.
          1    1    1    2  502    0 -0.38616878711E+02  0.72469345373E+02 -0.21711970887E+02  0.84938089336E+02  0.00000000000E+00 0.  1.
</event>
<event>
 4    1  0.3664744E+003  0.3633652E+02  0.7546771E-02  0.1371403E+00
          2   -1    0    0  502    0  0.00000000000E+00  0.00000000000E+00  0.79823290955E+02  0.79823290955E+02  0.00000000000E+00 0.  1.
          1   -1    0    0  501    0 -0.00000000000E+00 -0.00000000000E+00 -0.24604214073E+02  0.24604214073E+02  0.00000000000E+00 0. -1.
          2    1    1    2  501    0 -0.23904035741E+02  0.27366759095E+02  0.57500451950E+02  0.68019441357E+02  0.00000000000E+00 0.  1.
          1    1    1    2  502    0  0.23904035741E+02 -0.27366759095E+02 -0.22813750679E+01  0.36408063672E+02  0.00000000000E+00 0. -1.
</event>
<event>
 4    1  0.3664744E+003  0.2245049E+02  0.7546771E-02  0.1499516E+00
          2   -1    0    0  502    0  0.00000000000E+00  0.00000000000E+00  0.13812535483E+04  0.13812535483E+04  0.00000000000E+00 0. -1.
          1   -1    0    0  501    0 -0.00000000000E+00 -0.00000000000E+00 -0.52537774927E+00  0.52537774927E+00  0.00000000000E+00 0. -1.
          2    1    1    2  501    0  0.96633523114E+00 -0.22429681912E+02  0.10721986427E+04  0.10724336594E+04  0.00000000000E+00 0. -1.
          1    1    1    2  502    0 -0.96633523114E+00  0.22429681912E+02  0.30852952787E+03  0.30934526665E+03  0.00000000000E+00 0. -1.
</event>
<event>
 4    1  0.3664744E+003  0.2425463E+02  0.7546771E-02  0.1477317E+00
          2   -1    0    0  502    0  0.00000000000E+00  0.00000000000E+00  0.12959353738E+04  0.12959353738E+04  0.00000000000E+00 0. -1.
          1   -1    0    0  501    0 -0.00000000000E+00 -0.00000000000E+00 -0.61750173789E+00  0.61750173789E+00  0.00000000000E+00 0. -1.
          2    1    1    2  501    0  0.14382391226E+02 -0.19530328068E+02  0.98129406394E+03  0.98159376873E+03  0.00000000000E+00 0. -1.
          1    1    1    2  502    0 -0.14382391226E+02  0.19530328068E+02  0.31402380816E+03  0.31495910684E+03  0.00000000000E+00 0. -1.
</event>
<event>
 4    1  0.3664744E+003  0.2413407E+02  0.7546771E-02  0.1478728E+00
          2   -1    0    0  502    0  0.00000000000E+00  0.00000000000E+00  0.33425086980E+03  0.33425086980E+03  0.00000000000E+00 0.  1.
          1   -1    0    0  501    0 -0.00000000000E+00 -0.00000000000E+00 -0.65676245257E+01  0.65676245257E+01  0.00000000000E+00 0.  1.
          2    1    1    2  501    0 -0.19382611811E+02  0.14379414588E+02  0.30990469339E+03  0.31084300248E+03  0.00000000000E+00 0.  1.
          1    1    1    2  502    0  0.19382611811E+02 -0.14379414588E+02  0.17778551889E+02  0.29975491852E+02  0.00000000000E+00 0.  1.
</event>
<event>
 4    1  0.3664744E+003  0.2381182E+02  0.7546771E-02  0.1482548E+00
          2   -1    0    0  502    0  0.00000000000E+00  0.00000000000E+00  0.11696800539E+04  0.11696800539E+04  0.00000000000E+00 0. -1.
          1   -1    0    0  501    0 -0.00000000000E+00 -0.00000000000E+00 -0.41328743435E+02  0.41328743435E+02  0.00000000000E+00 0. -1.
          2    1    1    2  501    0  0.21654420846E+02  0.99039736503E+01  0.11661185599E+04  0.11663616500E+04  0.00000000000E+00 0. -1.
          1    1    1    2  502    0 -0.21654420846E+02 -0.99039736503E+01 -0.37767249478E+02  0.44647147382E+02  0.00000000000E+00 0. -1.
</event>
<event>
 4    1  0.3664744E+003  0.2118167E+02  0.7546771E-02  0.1516687E+00
          2   -1    0    0  502    0  0.00000000000E+00  0.00000000000E+00  0.28305499849E+02  0.28305499849E+02  0.00000000000E+00 0. -1.
          1   -1    0    0  501    0 -0.00000000000E+00 -0.00000000000E+00 -0.50213676215E+02  0.50213676215E+02  0.00000000000E+00 0. -1.
          2    1    1    2  501    0  0.41829219647E+01 -0.20764549256E+02  0.21523203984E+02  0.30197874953E+02  0.00000000000E+00 0. -1.
          1    1    1    2  502    0 -0.41829219647E+01  0.20764549256E+02 -0.43431380349E+02  0.48321301111E+02  0.00000000000E+00 0. -1.
</event>
<event>
 4    1  0.3664744E+003  0.2704073E+02  0.7546771E-02  0.1447199E+00
          2   -1    0    0  502    0  0.00000000000E+00  0.00000000000E+00  0.33490689246E+03  0.33490689246E+03  0.00000000000E+00 0.  1.
          1   -1    0    0  501    0 -0.00000000000E+00 -0.00000000000E+00 -0.38290562959E+03  0.38290562959E+03  0.00000000000E+00 0.  1.
          2    1    1    2  501    0  0.92858721426E+01 -0.25396332721E+02  0.33388220253E+03  0.33497541149E+03  0.00000000000E+00 0.  1.
          1    1    1    2  502    0 -0.92858721426E+01  0.25396332721E+02 -0.38188093966E+03  0.38283711055E+03  0.00000000000E+00 0.  1.
</event>
<event>
 4    1  0.3664744E+003  0.3057239E+02  0.7546771E-02  0.1414686E+00
          2   -1    0    0  502    0  0.00000000000E+00  0.00000000000E+00  0.10517221380E+04  0.10517221380E+04  0.00000000000E+00 0. -1.
          1   -1    0    0  501    0 -0.00000000000E+00 -0.00000000000E+00 -0.62292701596E+02  0.62292701596E+02  0.00000000000E+00 0.  1.
          2    1    1    2  501    0  0.30365443875E+02 -0.35512089278E+01  0.10477345615E+04  0.10481805105E+04  0.00000000000E+00 0. -1.
          1    1    1    2  502    0 -0.30365443875E+02  0.35512089278E+01 -0.58305125121E+02  0.65834329054E+02  0.00000000000E+00 0.  1.
</event>
<event>
 4    1  0.3664744E+003  0.2322315E+02  0.7546771E-02  0.1489715E+00
          2   -1    0    0  502    0  0.00000000000E+00  0.00000000000E+00  0.49067784449E+03  0.49067784449E+03  0.00000000000E+00 0. -1.
          1   -1    0    0  501    0 -0.00000000000E+00 -0.00000000000E+00 -0.13699319800E+02  0.13699319800E+02  0.00000000000E+00 0. -1.
          2    1    1    2  501    0  0.23216498918E+02 -0.55591582472E+00  0.48034956810E+03  0.48091061793E+03  0.00000000000E+00 0. -1.
          1    1    1    2  502    0 -0.23216498918E+02  0.55591582472E+00 -0.33710434094E+01  0.23466546360E+02  0.00000000000E+00 0. -1.
</event>
<event>
 4    1  0.3664744E+003  0.2203432E+02  0.7546771E-02  0.1504994E+00
          2   -1    0    0  502    0  0.00000000000E+00  0.00000000000E+00  0.64090764207E+03  0.64090764207E+03  0.00000000000E+00 0. -1.
          1   -1    0    0  501    0 -0.00000000000E+00 -0.00000000000E+00 -0.32323402629E+02  0.32323402629E+02  0.00000000000E+00 0.  1.
          2    1    1    2  501    0  0.21078194766E+02  0.64203401145E+01  0.63693976728E+03  0.63732078125E+03  0.00000000000E+00 0. -1.
          1    1    1    2  502    0 -0.21078194766E+02 -0.64203401145E+01 -0.28355527844E+02  0.35910263451E+02  0.00000000000E+00 0.  1.
</event>
<event>
 4    1  0.3664744E+003  0.2959692E+02  0.7546771E-02  0.1423132E+00
          2   -1    0    0  502    0  0.00000000000E+00  0.00000000000E+00  0.80791001746E+03  0.80791001746E+03  0.00000000000E+00 0. -1.
          1   -1    0    0  501    0 -0.00000000000E+00 -0.00000000000E+00 -0.83842170955E+01  0.83842170955E+01  0.00000000000E+00 0. -1.
          2    1    1    2  501    0 -0.15421146617E+02 -0.25261951215E+02  0.78060580737E+03  0.78116669440E+03  0.00000000000E+00 0. -1.
          1    1    1    2  502    0  0.15421146617E+02  0.25261951215E+02  0.18919992988E+02  0.35127540148E+02  0.00000000000E+00 0. -1.
</event>
<event>
 4    1  0.3664744E+003  0.2306002E+02  0.7546771E-02  0.1491746E+00
          2   -1    0    0  502    0  0.00000000000E+00  0.00000000000E+00  0.10135516612E+02  0.10135516612E+02  0.00000000000E+00 0. -1.
          1   -1    0    0  501    0 -0.00000000000E+00 -0.00000000000E+00 -0.34354511124E+03  0.34354511124E+03  0.00000000000E+00 0. -1.
          2    1    1    2  501    0  0.15464620105E+02 -0.17105851920E+02 -0.39269479900E+01  0.23391997893E+02  0.00000000000E+00 0. -1.
          1    1    1    2  502    0 -0.15464620105E+02  0.17105851920E+02 -0.32948264664E+03  0.33028862996E+03  0.00000000000E+00 0. -1.
</event>
<event>
 4    1  0.3664744E+003  0.2486202E+02  0.7546771E-02  0.1470353E+00
          2   -1    0    0  502    0  0.00000000000E+00  0.00000000000E+00  0.34642758601E+03  0.34642758601E+03  0.00000000000E+00 0.  1.
          1   -1    0    0  501    0 -0.00000000000E+00 -0.00000000000E+00 -0.12541217350E+04  0.12541217350E+04  0.00000000000E+00 0. -1.
          2    1    1    2  501    0  0.22093072804E+02  0.11402470819E+02  0.34585809824E+03  0.34675055058E+03  0.00000000000E+00 0.  1.
          1    1    1    2  502    0 -0.22093072804E+02 -0.11402470819E+02 -0.12535522472E+04  0.12537987704E+04  0.00000000000E+00 0. -1.
</event>
<event>
 4    1  0.3664744E+003  0.2415803E+02  0.7546771E-02  0.1478447E+00
          2   -1    0    0  502    0  0.00000000000E+00  0.00000000000E+00  0.65207003571E+03  0.65207003571E+03  0.00000000000E+00 0. -1.
          1   -1    0    0  501    0 -0.00000000000E+00 -0.00000000000E+00 -0.53127798158E+01  0.53127798158E+01  0.00000000000E+00 0.  1.
          2    1    1    2  501    0 -0.18975944428E+02  0.14950709369E+02  0.62310772897E+03  0.62357585912E+03  0.00000000000E+00 0. -1.
          1    1    1    2  502    0  0.18975944428E+02 -0.14950709369E+02  0.23649526926E+02  0.33806956405E+02  0.00000000000E+00 0.  1.
</event>
<event>
 4    1  0.3664744E+003  0.2260341E+02  0.7546771E-02  0.1497539E+00
          2   -1    0    0  502    0  0.00000000000E+00  0.00000000000E+00  0.10243727372E+01  0.10243727372E+01  0.00000000000E+00 0.  1.
          1   -1    0    0  501    0 -0.00000000000E+00 -0.00000000000E+00 -0.13440794302E+04  0.13440794302E+04  0.00000000000E+00 0.  1.
          2    1    1    2  501    0  0.21790944230E+02 -0.60057522185E+01 -0.13816288438E+03  0.13999963190E+03  0.00000000000E+00 0.  1.
          1    1    1    2  502    0 -0.21790944230E+02  0.60057522185E+01 -0.12048921731E+04  0.12051041710E+04  0.00000000000E+00 0.  1.
</event>
<event>
 4    1  0.3664744E+003  0.3485885E+02  0.7546771E-02  0.1381558E+00
          2   -1    0    0  502    0  0.00000000000E+00  0.00000000000E+00  0.14831834870E+03  0.14831834870E+03  0.00000000000E+00 0.  1.
          1   -1    0    0  501    0 -0.00000000000E+00 -0.00000000000E+00 -0.83539216624E+01  0.83539216624E+01  0.00000000000E+00 0. -1.
          2    1    1    2  501    0  0.29322906590E+02 -0.18849572724E+02  0.80862093774E+02  0.88055763311E+02  0.00000000000E+00 0.  1.
          1    1    1    2  502    0 -0.29322906590E+02  0.18849572724E+02  0.59102333263E+02  0.68616507051E+02  0.00000000000E+00 0. -1.
</event>
<event>
 4    1  0.3664744E+003  0.2809523E+02  0.7546771E-02  0.1436906E+00
          2   -1    0    0  502    0  0.00000000000E+00  0.00000000000E+00  0.11149268579E+04  0.11149268579E+04  0.00000000000E+00 0. -1.
          1   -1    0    0  501    0 -0.00000000000E+00 -0.00000000000E+00 -0.45767936809E+02  0.45767936809E+02  0.00000000000E+00 0. -1.
          2    1    1    2  501    0  0.15715031700E+02 -0.23289042445E+02  0.11104207175E+04  0.11107760852E+04  0.00000000000E+00 0. -1.
          1    1    1    2  502    0 -0.15715031700E+02  0.23289042445E+02 -0.41261796361E+02  0.49918709502E+02  0.00000000000E+00 0. -1.
</event>
<event>
 4    1  0.3664744E+003  0.2349007E+02  0.7546771E-02  0.1486434E+00
          2   -1    0    0  502    0  0.00000000000E+00  0.00000000000E+00  0.16443081605E+04  0.16443081605E+04  0.00000000000E+00 0.  1.
          1   -1    0    0  501    0 -0.00000000000E+00 -0.00000000000E+00 -0.22241340639E+02  0.22241340639E+02  0.00000000000E+00 0.  1.
          2    1    1    2  501    0  0.17522071505E+02 -0.15644827201E+02  0.16379981465E+04  0.16381665701E+04  0.00000000000E+00 0.  1.
          1    1    1    2  502    0 -0.17522071505E+02  0.15644827201E+02 -0.15931326586E+02  0.28382931046E+02  0.00000000000E+00 0.  1.
</event>
<event>
 4    1  0.3664744E+003  0.2156665E+02  0.7546771E-02  0.1511326E+00
          2   -1    0    0  502    0  0.00000000000E+00  0.00000000000E+00  0.56435331052E+02  0.56435331052E+02  0.00000000000E+00 0. -1.
          1   -1    0    0  501    0 -0.00000000000E+00 -0.00000000000E+00 -0.96038700930E+03  0.96038700930E+03  0.00000000000E+00 0. -1.
          2    1    1    2  501    0 -0.63521933696E+01  0.20609953576E+02  0.54249140529E+02  0.58378847155E+02  0.00000000000E+00 0. -1.
          1    1    1    2  502    0  0.63521933696E+01 -0.20609953576E+02 -0.95820081877E+03  0.95844349319E+03  0.00000000000E+00 0. -1.
</event>
<event>
 4    1  0.3664744E+003  0.2188399E+02  0.7546771E-02  0.1507008E+00
          2   -1    0    0  502    0  0.00000000000E+00  0.00000000000E+00  0.27018659041E+01  0.27018659041E+01  0.00000000000E+00 0.  1.
          1   -1    0    0  501    0 -0.00000000000E+00 -0.00000000000E+00 -0.94239632512E+03  0.94239632512E+03  0.00000000000E+00 0.  1.
          2    1    1    2  501    0  0.21561763866E+02 -0.37415836035E+01 -0.44050778008E+02  0.49187195000E+02  0.00000000000E+00 0.  1.
          1    1    1    2  502    0 -0.21561763866E+02  0.37415836035E+01 -0.89564368120E+03  0.89591099602E+03  0.00000000000E+00 0.  1.
</event>
<event>
 4    1  0.3664744E+003  0.5054885E+02  0.7546771E-02  0.1295810E+00
          2   -1    0    0  502    0  0.00000000000E+00  0.00000000000E+00  0.86045349508E+02  0.86045349508E+02  0.00000000000E+00 0.  1.
          1   -1    0    0  501    0 -0.00000000000E+00 -0.00000000000E+00 -0.63615966017E+02  0.63615966017E+02  0.00000000000E+00 0.  1.
          2    1    1    2  501    0 -0.50319574485E+02 -0.48090480948E+01  0.65856543343E+02  0.83019701403E+02  0.00000000000E+00 0.  1.
          1    1    1    2  502    0  0.50319574485E+02  0.48090480948E+01 -0.43427159852E+02  0.66641614122E+02  0.00000000000E+00 0.  1.
</event>
<event>
 4    1  0.3908288E+003  0.2291240E+02  0.7546771E-02  0.1493601E+00
          2   -1    0    0  502    0  0.00000000000E+00  0.00000000000E+00  0.63318764884E+03  0.63318764884E+03  0.00000000000E+00 0.  1.
          1   -1    0    0  501    0 -0.00000000000E+00 -0.00000000000E+00 -0.88043021386E+03  0.88043021386E+03  0.00000000000E+00 0.  1.
          2    1    1    2  501    0 -0.90776701512E+01  0.21037441423E+02  0.63283122045E+03  0.63324586979E+03  0.00000000000E+00 0.  1.
          1    1    1    2  502    0  0.90776701512E+01 -0.21037441423E+02 -0.88007378546E+03  0.88037199290E+03  0.00000000000E+00 0.  1.
</event>
<event>
 4    1  0.3664744E+003  0.3163903E+02  0.7546771E-02  0.1405869E+00
          2   -1    0    0  502    0  0.00000000000E+00  0.00000000000E+00  0.56983680094E+03  0.56983680094E+03  0.00000000000E+00 0. -1.
          1   -1    0    0  501    0 -0.00000000000E+00 -0.00000000000E+00 -0.46048254110E+03  0.46048254110E+03  0.00000000000E+00 0. -1.
          2    1    1    2  501    0 -0.30823703406E+02  0.71363485988E+01  0.56885322185E+03  0.56973240751E+03  0.00000000000E+00 0. -1.
          1    1    1    2  502    0  0.30823703406E+02 -0.71363485988E+01 -0.45949896201E+03  0.46058693452E+03  0.00000000000E+00 0. -1.
</event>
<event>
 4    1  0.3664744E+003  0.2520428E+02  0.7546771E-02  0.1466531E+00
          2   -1    0    0  502    0  0.00000000000E+00  0.00000000000E+00  0.43837668438E+03  0.43837668438E+03  0.00000000000E+00 0. -1.
          1   -1    0    0  501    0 -0.00000000000E+00 -0.00000000000E+00 -0.26782498608E+01  0.26782498608E+01  0.00000000000E+00 0. -1.
          2    1    1    2  501    0  0.13604369744E+02 -0.21217371886E+02  0.36724485369E+03  0.36810873164E+03  0.00000000000E+00 0. -1.
          1    1    1    2  502    0 -0.13604369744E+02  0.21217371886E+02  0.68453580827E+02  0.72946202601E+02  0.00000000000E+00 0. -1.
</event>
<event>
 4    1  0.3664744E+003  0.2488187E+02  0.7546771E-02  0.1470129E+00
          2   -1    0    0  502    0  0.00000000000E+00  0.00000000000E+00  0.74369544868E+02  0.74369544868E+02  0.00000000000E+00 0.  1.
          1   -1    0    0  501    0 -0.00000000000E+00 -0.00000000000E+00 -0.11821836796E+03  0.11821836796E+03  0.00000000000E+00 0. -1.
          2    1    1    2  501    0 -0.20946449580E+02  0.13429580308E+02  0.70917227715E+02  0.75155575735E+02  0.00000000000E+00 0.  1.
          1    1    1    2  502    0  0.20946449580E+02 -0.13429580308E+02 -0.11476605080E+03  0.11743233709E+03  0.00000000000E+00 0. -1.
</event>
<event>
 4    1  0.3664744E+003  0.2527822E+02  0.7546771E-02  0.1465715E+00
          2   -1    0    0  502    0  0.00000000000E+00  0.00000000000E+00  0.54234270834E+03  0.54234270834E+03  0.00000000000E+00 0.  1.
          1   -1    0    0  501    0 -0.00000000000E+00 -0.00000000000E+00 -0.77016978260E+01  0.77016978260E+01  0.00000000000E+00 0.  1.
          2    1    1    2  501    0 -0.24389929214E+02 -0.66422709936E+01  0.52043368858E+03  0.52104722686E+03  0.00000000000E+00 0.  1.
          1    1    1    2  502    0  0.24389929214E+02  0.66422709936E+01  0.14207321931E+02  0.28997179301E+02  0.00000000000E+00 0.  1.
</event>
<event>
 4    1  0.3664744E+003  0.2651745E+02  0.7546771E-02  0.1452517E+00
          2   -1    0    0  502    0  0.00000000000E+00  0.00000000000E+00  0.23009734254E+02  0.23009734254E+02  0.00000000000E+00 0. -1.
          1   -1    0    0  501    0 -0.00000000000E+00 -0.00000000000E+00 -0.87387383717E+02  0.87387383717E+02  0.00000000000E+00 0. -1.
          2    1    1    2  501    0  0.38455523519E+00 -0.26514663488E+02  0.12323735114E+02  0.29241233041E+02  0.00000000000E+00 0. -1.
          1    1    1    2  502    0 -0.38455523519E+00  0.26514663488E+02 -0.76701384578E+02  0.81155884930E+02  0.00000000000E+00 0. -1.
</event>
<event>
 4    1  0.3664744E+003  0.3126878E+02  0.7546771E-02  0.1408882E+00
          2   -1    0    0  502    0  0.00000000000E+00  0.00000000000E+00  0.56249775855E+03  0.56249775855E+03  0.00000000000E+00 0. -1.
          1   -1    0    0  501    0 -0.00000000000E+00 -0.00000000000E+00 -0.99811630636E+01  0.99811630636E+01  0.00000000000E+00 0. -1.
          2    1    1    2  501    0 -0.30643865936E+02  0.62201394543E+01  0.53638232178E+03  0.53729296643E+03  0.00000000000E+00 0. -1.
          1    1    1    2  502    0  0.30643865936E+02 -0.62201394543E+01  0.16134273707E+02  0.35185955187E+02  0.00000000000E+00 0. -1.
</event>
<event>
 4    1  0.3664744E+003  0.4156044E+02  0.7546771E-02  0.1339577E+00
          2   -1    0    0  502    0  0.00000000000E+00  0.00000000000E+00  0.90666316559E+02  0.90666316559E+02  0.00000000000E+00 0. -1.
          1   -1    0    0  501    0 -0.00000000000E+00 -0.00000000000E+00 -0.28060580989E+02  0.28060580989E+02  0.00000000000E+00 0. -1.
          2    1    1    2  501    0  0.17364413951E+02  0.37759064527E+02  0.64940611564E+02  0.77100926428E+02  0.00000000000E+00 0. -1.
          1    1    1    2  502    0 -0.17364413951E+02 -0.37759064527E+02 -0.23348759940E+01  0.41625971120E+02  0.00000000000E+00 0. -1.
</event>
<event>
 4    1  0.3664744E+003  0.2010275E+02  0.7546771E-02  0.1532471E+00
          2   -1    0    0  502    0  0.00000000000E+00  0.00000000000E+00  0.15620107770E+01  0.15620107770E+01  0.00000000000E+00 0. -1.
          1   -1    0    0  501    0 -0.00000000000E+00 -0.00000000000E+00 -0.10477991862E+04  0.10477991862E+04  0.00000000000E+00 0. -1.
          2    1    1    2  501    0 -0.18455163413E+02  0.79704235453E+01 -0.67798563700E+02  0.70716093980E+02  0.00000000000E+00 0. -1.
          1    1    1    2  502    0  0.18455163413E+02 -0.79704235453E+01 -0.97843861168E+03  0.97864510296E+03  0.00000000000E+00 0. -1.
</event>
<event>
 4    1  0.3664744E+003  0.5257843E+02  0.7546771E-02  0.1287364E+00
          2   -1    0    0  502    0  0.00000000000E+00  0.00000000000E+00  0.29304529764E+03  0.29304529764E+03  0.00000000000E+00 0.  1.
          1   -1    0    0  501    0 -0.00000000000E+00 -0.00000000000E+00 -0.96744258576E+01  0.96744258576E+01  0.00000000000E+00 0.  1.
          2    1    1    2  501    0  0.52074365272E+02 -0.72630756388E+01  0.16556295272E+03  0.17371120602E+03  0.00000000000E+00 0.  1.
          1    1    1    2  502    0 -0.52074365272E+02  0.72630756388E+01  0.11780791907E+03  0.12900851748E+03  0.00000000000E+00 0.  1.
</event>
<event>
 4    1  0.3664744E+003  0.1141866E+03  0.7546771E-02  0.1141266E+00
          2   -1    0    0  502    0  0.00000000000E+00  0.00000000000E+00  0.32368961255E+03  0.32368961255E+03  0.00000000000E+00 0.  1.
          1   -1    0    0  501    0 -0.00000000000E+00 -0.00000000000E+00 -0.37922543803E+03  0.37922543803E+03  0.00000000000E+00 0.  1.
          2    1    1    2  501    0  0.63667273939E+01  0.11400901481E+03  0.30449990106E+03  0.32520575090E+03  0.00000000000E+00 0.  1.
          1    1    1    2  502    0 -0.63667273939E+01 -0.11400901481E+03 -0.36003572654E+03  0.37770929968E+03  0.00000000000E+00 0.  1.
</event>
<event>
 4    1  0.3664744E+003  0.3656217E+02  0.7546771E-02  0.1369901E+00
          2   -1    0    0  502    0  0.00000000000E+00  0.00000000000E+00  0.53897609800E+01  0.53897609800E+01  0.00000000000E+00 0.  1.
          1   -1    0    0  501    0 -0.00000000000E+00 -0.00000000000E+00 -0.48966607470E+03  0.48966607470E+03  0.00000000000E+00 0. -1.
          2    1    1    2  501    0 -0.13921175417E+01 -0.36535658745E+02 -0.68253973744E+02  0.77429950814E+02  0.00000000000E+00 0.  1.
          1    1    1    2  502    0  0.13921175417E+01  0.36535658745E+02 -0.41602233997E+03  0.41762588486E+03  0.00000000000E+00 0. -1.
</event>
<event>
 4    1  0.3664744E+003  0.2073229E+02  0.7546771E-02  0.1523122E+00
          2   -1    0    0  502    0  0.00000000000E+00  0.00000000000E+00  0.18508219849E+01  0.18508219849E+01  0.00000000000E+00 0. -1.
          1   -1    0    0  501    0 -0.00000000000E+00 -0.00000000000E+00 -0.10525944511E+04  0.10525944511E+04  0.00000000000E+00 0. -1.
          2    1    1    2  501    0  0.17496042570E+02 -0.11122786649E+02 -0.59930122892E+02  0.63414884044E+02  0.00000000000E+00 0. -1.
          1    1    1    2  502    0 -0.17496042570E+02  0.11122786649E+02 -0.99081350620E+03  0.99103038902E+03  0.00000000000E+00 0. -1.
</event>
<event>
 4    1  0.3664744E+003  0.2489127E+02  0.7546771E-02  0.1470024E+00
          2   -1    0    0  502    0  0.00000000000E+00  0.00000000000E+00  0.11685681638E+02  0.11685681638E+02  0.00000000000E+00 0.  1.
          1   -1    0    0  501    0 -0.00000000000E+00 -0.00000000000E+00 -0.53106914789E+02  0.53106914789E+02  0.00000000000E+00 0.  1.
          2    1    1    2  501    0 -0.10983741887E+02  0.22336784583E+02 -0.22021405510E+02  0.33234271949E+02  0.00000000000E+00 0.  1.
          1    1    1    2  502    0  0.10983741887E+02 -0.22336784583E+02 -0.19399827641E+02  0.31558324478E+02  0.00000000000E+00 0.  1.
</event>
<event>
 4    1  0.3664744E+003  0.2178019E+02  0.7546771E-02  0.1508411E+00
          2   -1    0    0  502    0  0.00000000000E+00  0.00000000000E+00  0.15162735212E+01  0.15162735212E+01  0.00000000000E+00 0. -1.
          1   -1    0    0  501    0 -0.00000000000E+00 -0.00000000000E+00 -0.15914607290E+04  0.15914607290E+04  0.00000000000E+00 0.  1.
          2    1    1    2  501    0  0.15825447331E+02 -0.14964349624E+02 -0.81052212897E+02  0.83927574482E+02  0.00000000000E+00 0. -1.
          1    1    1    2  502    0 -0.15825447331E+02  0.14964349624E+02 -0.15088922425E+04  0.15090494280E+04  0.00000000000E+00 0.  1.
</event>
<event>
 4    1  0.3664744E+003  0.2371623E+02  0.7546771E-02  0.1483695E+00
          2   -1    0    0  502    0  0.00000000000E+00  0.00000000000E+00  0.10876754773E+04  0.10876754773E+04  0.00000000000E+00 0. -1.
          1   -1    0    0  501    0 -0.00000000000E+00 -0.00000000000E+00 -0.52498346012E+00  0.52498346012E+00  0.00000000000E+00 0.  1.
          2    1    1    2  501    0  0.22335043564E+02  0.79753124468E+01  0.61016181295E+03  0.61062254934E+03  0.00000000000E+00 0. -1.
          1    1    1    2  502    0 -0.22335043564E+02 -0.79753124468E+01  0.47698868086E+03  0.47757791139E+03  0.00000000000E+00 0.  1.
</event>
<event>
 4    1  0.3664744E+003  0.3149623E+02  0.7546771E-02  0.1407025E+00
          2   -1    0    0  502    0  0.00000000000E+00  0.00000000000E+00  0.44685761170E+03  0.44685761170E+03  0.00000000000E+00 0. -1.
          1   -1    0    0  501    0 -0.00000000000E+00 -0.00000000000E+00 -0.23040526319E+02  0.23040526319E+02  0.00000000000E+00 0. -1.
          2    1    1    2  501    0 -0.13715875606E+02 -0.28352904636E+02  0.43525221355E+03  0.43639030907E+03  0.00000000000E+00 0. -1.
          1    1    1    2  502    0  0.13715875606E+02  0.28352904636E+02 -0.11435128170E+02  0.33507828954E+02  0.00000000000E+00 0. -1.
</event>
<event>
 4    1  0.3664744E+003  0.2107689E+02  0.7546771E-02  0.1518170E+00
          2   -1    0    0  502    0  0.00000000000E+00  0.00000000000E+00  0.49294243678E+03  0.49294243678E+03  0.00000000000E+00 0.  1.
          1   -1    0    0  501    0 -0.00000000000E+00 -0.00000000000E+00 -0.21198549019E+01  0.21198549019E+01  0.00000000000E+00 0. -1.
          2    1    1    2  501    0  0.13678436362E+02 -0.16035449365E+02  0.43309162539E+03  0.43360418730E+03  0.00000000000E+00 0.  1.
          1    1    1    2  502    0 -0.13678436362E+02  0.16035449365E+02  0.57730956483E+02  0.61458104381E+02  0.00000000000E+00 0. -1.
</event>
<event>
 4    1  0.3664744E+003  0.2428037E+02  0.7546771E-02  0.1477017E+00
          2   -1    0    0  502    0  0.00000000000E+00  0.00000000000E+00  0.43829581292E+03  0.43829581292E+03  0.00000000000E+00 0. -1.
          1   -1    0    0  501    0 -0.00000000000E+00 -0.00000000000E+00 -0.22236059303E+02  0.22236059303E+02  0.00000000000E+00 0.  1.
          2    1    1    2  501    0 -0.16566057003E+02  0.17751111943E+02  0.43122276034E+03  0.43190578285E+03  0.00000000000E+00 0. -1.
          1    1    1    2  502    0  0.16566057003E+02 -0.17751111943E+02 -0.15163006726E+02  0.28626089374E+02  0.00000000000E+00 0.  1.
</event>
<event>
 4    1  0.3664744E+003  0.2916466E+02  0.7546771E-02  0.1426997E+00
          2   -1    0    0  502    0  0.00000000000E+00  0.00000000000E+00  0.23236343804E+03  0.23236343804E+03  0.00000000000E+00 0.  1.
          1   -1    0    0  501    0 -0.00000000000E+00 -0.00000000000E+00 -0.10975242411E+04  0.10975242411E+04  0.00000000000E+00 0.  1.
          2    1    1    2  501    0 -0.15406004565E+02 -0.24763530161E+02  0.23125362589E+03  0.23308542831E+03  0.00000000000E+00 0.  1.
          1    1    1    2  502    0  0.15406004565E+02  0.24763530161E+02 -0.10964144289E+04  0.10968022508E+04  0.00000000000E+00 0.  1.
</event>
<event>
 4    1  0.3664744E+003  0.2180449E+02  0.7546771E-02  0.1508082E+00
          2   -1    0    0  502    0  0.00000000000E+00  0.00000000000E+00  0.12279214585E+03  0.12279214585E+03  0.00000000000E+00 0. -1.
          1   -1    0    0  501    0 -0.00000000000E+00 -0.00000000000E+00 -0.19928873475E+03  0.19928873475E+03  0.00000000000E+00 0.  1.
          2    1    1    2  501    0  0.19284326987E+02  0.10175981147E+02  0.12122008806E+03  0.12316552119E+03  0.00000000000E+00 0. -1.
          1    1    1    2  502    0 -0.19284326987E+02 -0.10175981147E+02 -0.19771667696E+03  0.19891535941E+03  0.00000000000E+00 0.  1.
</event>
<event>
 4    1  0.3664744E+003  0.2623645E+02  0.7546771E-02  0.1455433E+00
          2   -1    0    0  502    0  0.00000000000E+00  0.00000000000E+00  0.82988535028E+00  0.82988535028E+00  0.00000000000E+00 0. -1.
          1   -1    0    0  501    0 -0.00000000000E+00 -0.00000000000E+00 -0.89713692557E+03  0.89713692557E+03  0.00000000000E+00 0. -1.
          2    1    1    2  501    0  0.49181290479E+01 -0.25771369124E+02 -0.32483125201E+03  0.32588908196E+03  0.00000000000E+00 0. -1.
          1    1    1    2  502    0 -0.49181290479E+01  0.25771369124E+02 -0.57147578821E+03  0.57207772896E+03  0.00000000000E+00 0. -1.
</event>
<event>
 4    1  0.3664744E+003  0.2141562E+02  0.7546771E-02  0.1513413E+00
          2   -1    0    0  502    0  0.00000000000E+00  0.00000000000E+00  0.27107858527E+03  0.27107858527E+03  0.00000000000E+00 0.  1.
          1   -1    0    0  501    0 -0.00000000000E+00 -0.00000000000E+00 -0.53300100894E+02  0.53300100894E+02  0.00000000000E+00 0.  1.
          2    1    1    2  501    0 -0.16252158930E+02  0.13946180797E+02  0.26848369873E+03  0.26933645336E+03  0.00000000000E+00 0.  1.
          1    1    1    2  502    0  0.16252158930E+02 -0.13946180797E+02 -0.50705214353E+02  0.55042232797E+02  0.00000000000E+00 0.  1.
</event>
<event>
 4    1  0.3664744E+003  0.2440728E+02  0.7546771E-02  0.1475545E+00
          2   -1    0    0  502    0  0.00000000000E+00  0.00000000000E+00  0.23164908134E+03  0.23164908134E+03  0.00000000000E+00 0.  1.
          1   -1    0    0  501    0 -0.00000000000E+00 -0.00000000000E+00 -0.78151041937E+03  0.78151041937E+03  0.00000000000E+00 0.  1.
          2    1    1    2  501    0  0.35032111309E+01 -0.24154558028E+02  0.23081492234E+03  0.23210179563E+03  0.00000000000E+00 0.  1.
          1    1    1    2  502    0 -0.35032111309E+01  0.24154558028E+02 -0.78067626037E+03  0.78105770508E+03  0.00000000000E+00 0.  1.
</event>
<event>
 4    1  0.3664744E+003  0.3353018E+02  0.7546771E-02  0.1391202E+00
          2   -1    0    0  502    0  0.00000000000E+00  0.00000000000E+00  0.12838141494E+04  0.12838141494E+04  0.00000000000E+00 0. -1.
          1   -1    0    0  501    0 -0.00000000000E+00 -0.00000000000E+00 -0.11555690205E+01  0.11555690205E+01  0.00000000000E+00 0.  1.
          2    1    1    2  501    0  0.32380400889E+02  0.87053335736E+01  0.95749874976E+03  0.95808565848E+03  0.00000000000E+00 0. -1.
          1    1    1    2  502    0 -0.32380400889E+02 -0.87053335736E+01  0.32515983066E+03  0.32688405998E+03  0.00000000000E+00 0.  1.
</event>
<event>
 4    1  0.3664744E+003  0.4014499E+02  0.7546771E-02  0.1347638E+00
          2   -1    0    0  502    0  0.00000000000E+00  0.00000000000E+00  0.53763052623E+03  0.53763052623E+03  0.00000000000E+00 0. -1.
          1   -1    0    0  501    0 -0.00000000000E+00 -0.00000000000E+00 -0.13976300069E+04  0.13976300069E+04  0.00000000000E+00 0.  1.
          2    1    1    2  501    0  0.34505013604E+02 -0.20518866235E+02  0.53659228333E+03  0.53809190512E+03  0.00000000000E+00 0. -1.
          1    1    1    2  502    0 -0.34505013604E+02  0.20518866235E+02 -0.13965917640E+04  0.13971686280E+04  0.00000000000E+00 0.  1.
</event>
<event>
 4    1  0.3664744E+003  0.3985795E+02  0.7546771E-02  0.1349320E+00
          2   -1    0    0  502    0  0.00000000000E+00  0.00000000000E+00  0.10079973368E+03  0.10079973368E+03  0.00000000000E+00 0.  1.
          1   -1    0    0  501    0 -0.00000000000E+00 -0.00000000000E+00 -0.30511987659E+03  0.30511987659E+03  0.00000000000E+00 0.  1.
          2    1    1    2  501    0 -0.15400124503E+02 -0.36762645069E+02  0.95488443035E+02  0.10347317846E+03  0.00000000000E+00 0.  1.
          1    1    1    2  502    0  0.15400124503E+02  0.36762645069E+02 -0.29980858595E+03  0.30244643181E+03  0.00000000000E+00 0.  1.
</event>
<event>
 4    1  0.3664744E+003  0.2043472E+02  0.7546771E-02  0.1527491E+00
          2   -1    0    0  502    0  0.00000000000E+00  0.00000000000E+00  0.23383361301E+00  0.23383361301E+00  0.00000000000E+00 0. -1.
          1   -1    0    0  501    0 -0.00000000000E+00 -0.00000000000E+00 -0.18486992834E+04  0.18486992834E+04  0.00000000000E+00 0. -1.
          2    1    1    2  501    0 -0.14061036513E+02 -0.14827849933E+02 -0.75369786457E+03  0.75397483309E+03  0.00000000000E+00 0. -1.
          1    1    1    2  502    0  0.14061036513E+02  0.14827849933E+02 -0.10947675852E+04  0.10949582839E+04  0.00000000000E+00 0. -1.
</event>
<event>
 4    1  0.3664744E+003  0.2263356E+02  0.7546771E-02  0.1497151E+00
          2   -1    0    0  502    0  0.00000000000E+00  0.00000000000E+00  0.28926981326E+02  0.28926981326E+02  0.00000000000E+00 0.  1.
          1   -1    0    0  501    0 -0.00000000000E+00 -0.00000000000E+00 -0.49253809780E+03  0.49253809780E+03  0.00000000000E+00 0.  1.
          2    1    1    2  501    0 -0.21873525981E+02  0.58161036799E+01  0.24196714050E+02  0.33132448923E+02  0.00000000000E+00 0.  1.
          1    1    1    2  502    0  0.21873525981E+02 -0.58161036799E+01 -0.48780783052E+03  0.48833263020E+03  0.00000000000E+00 0.  1.
</event>
<event>
 4    1  0.3664744E+003  0.2220598E+02  0.7546771E-02  0.1502717E+00
          2   -1    0    0  502    0  0.00000000000E+00  0.00000000000E+00  0.52393655971E+03  0.52393655971E+03  0.00000000000E+00 0.  1.
          1   -1    0    0  501    0 -0.00000000000E+00 -0.00000000000E+00 -0.15625036522E+02  0.15625036522E+02  0.00000000000E+00 0. -1.
          2    1    1    2  501    0  0.11332389867E+02 -0.19096665424E+02  0.51568541931E+03  0.51616330496E+03  0.00000000000E+00 0.  1.
          1    1    1    2  502    0 -0.11332389867E+02  0.19096665424E+02 -0.73738961279E+01  0.23398291274E+02  0.00000000000E+00 0. -1.
</event>
<event>
 4    1  0.3664744E+003  0.2184734E+02  0.7546771E-02  0.1507502E+00
          2   -1    0    0  502    0  0.00000000000E+00  0.00000000000E+00  0.22017400429E+03  0.22017400429E+03  0.00000000000E+00 0. -1.
          1   -1    0    0  501    0 -0.00000000000E+00 -0.00000000000E+00 -0.47151549364E+01  0.47151549364E+01  0.00000000000E+00 0.  1.
          2    1    1    2  501    0 -0.11529709968E+02  0.18557268807E+02  0.19037700617E+03  0.19162648803E+03  0.00000000000E+00 0. -1.
          1    1    1    2  502    0  0.11529709968E+02 -0.18557268807E+02  0.25081843187E+02  0.33262671197E+02  0.00000000000E+00 0.  1.
</event>
<event>
 4    1  0.3664744E+003  0.4917203E+02  0.7546771E-02  0.1301803E+00
          2   -1    0    0  502    0  0.00000000000E+00  0.00000000000E+00  0.67188907880E+03  0.67188907880E+03  0.00000000000E+00 0.  1.
          1   -1    0    0  501    0 -0.00000000000E+00 -0.00000000000E+00 -0.75212447754E+01  0.75212447754E+01  0.00000000000E+00 0. -1.
          2    1    1    2  501    0 -0.26850092587E+02  0.41194182238E+02  0.57751041616E+03  0.57960000768E+03  0.00000000000E+00 0.  1.
          1    1    1    2  502    0  0.26850092587E+02 -0.41194182238E+02  0.86857417862E+02  0.99810315899E+02  0.00000000000E+00 0. -1.
</event>
<event>
 4    1  0.3664744E+003  0.3435478E+02  0.7546771E-02  0.1385157E+00
          2   -1    0    0  502    0  0.00000000000E+00  0.00000000000E+00  0.23115162669E+04  0.23115162669E+04  0.00000000000E+00 0.  1.
          1   -1    0    0  501    0 -0.00000000000E+00 -0.00000000000E+00 -0.13756281906E+01  0.13756281906E+01  0.00000000000E+00 0. -1.
          2    1    1    2  501    0  0.19156272002E+02 -0.28518209261E+02  0.20721159236E+04  0.20724006977E+04  0.00000000000E+00 0.  1.
          1    1    1    2  502    0 -0.19156272002E+02  0.28518209261E+02  0.23802471510E+03  0.24049119738E+03  0.00000000000E+00 0. -1.
</event>
<event>
 4    1  0.3664744E+003  0.2608528E+02  0.7546771E-02  0.1457019E+00
          2   -1    0    0  502    0  0.00000000000E+00  0.00000000000E+00  0.53758504268E+03  0.53758504268E+03  0.00000000000E+00 0. -1.
          1   -1    0    0  501    0 -0.00000000000E+00 -0.00000000000E+00 -0.87272185156E+01  0.87272185156E+01  0.00000000000E+00 0. -1.
          2    1    1    2  501    0  0.71917314367E+01  0.25074304994E+02  0.51700110447E+03  0.51765875227E+03  0.00000000000E+00 0. -1.
          1    1    1    2  502    0 -0.71917314367E+01 -0.25074304994E+02  0.11856719688E+02  0.28653508925E+02  0.00000000000E+00 0. -1.
</event>
<event>
 4    1  0.3664744E+003  0.2753510E+02  0.7546771E-02  0.1442306E+00
          2   -1    0    0  502    0  0.00000000000E+00  0.00000000000E+00  0.24095201899E+04  0.24095201899E+04  0.00000000000E+00 0. -1.
          1   -1    0    0  501    0 -0.00000000000E+00 -0.00000000000E+00 -0.31839444264E+00  0.31839444264E+00  0.00000000000E+00 0. -1.
          2    1    1    2  501    0 -0.48520677431E+01  0.27104212976E+02  0.10741170502E+04  0.10744699244E+04  0.00000000000E+00 0. -1.
          1    1    1    2  502    0  0.48520677431E+01 -0.27104212976E+02  0.13350847452E+04  0.13353686599E+04  0.00000000000E+00 0. -1.
</event>
<event>
 4    1  0.3664744E+003  0.2965336E+02  0.7546771E-02  0.1422633E+00
          2   -1    0    0  502    0  0.00000000000E+00  0.00000000000E+00  0.29037349564E+03  0.29037349564E+03  0.00000000000E+00 0.  1.
          1   -1    0    0  501    0 -0.00000000000E+00 -0.00000000000E+00 -0.42509839025E+01  0.42509839025E+01  0.00000000000E+00 0.  1.
          2    1    1    2  501    0  0.15199663286E+02  0.25461559607E+02  0.64054948257E+02  0.70585814282E+02  0.00000000000E+00 0.  1.
          1    1    1    2  502    0 -0.15199663286E+02 -0.25461559607E+02  0.22206756348E+03  0.22403866526E+03  0.00000000000E+00 0.  1.
</event>
<event>
 4    1  0.3664744E+003  0.2196978E+02  0.7546771E-02  0.1505856E+00
          2   -1    0    0  502    0  0.00000000000E+00  0.00000000000E+00  0.14919064253E+02  0.14919064253E+02  0.00000000000E+00 0.  1.
          1   -1    0    0  501    0 -0.00000000000E+00 -0.00000000000E+00 -0.48925438573E+02  0.48925438573E+02  0.00000000000E+00 0.  1.
          2    1    1    2  501    0 -0.16372715698E+02 -0.14649419328E+02  0.15758801510E+01  0.22026227644E+02  0.00000000000E+00 0.  1.
          1    1    1    2  502    0  0.16372715698E+02  0.14649419328E+02 -0.35582254470E+02  0.41818275182E+02  0.00000000000E+00 0.  1.
</event>
<event>
 4    1  0.3664744E+003  0.5490522E+02  0.7546771E-02  0.1278200E+00
          2   -1    0    0  502    0  0.00000000000E+00  0.00000000000E+00  0.42583179916E+02  0.42583179916E+02  0.00000000000E+00 0.  1.
          1   -1    0    0  501    0 -0.00000000000E+00 -0.00000000000E+00 -0.73661870490E+02  0.73661870490E+02  0.00000000000E+00 0.  1.
          2    1    1    2  501    0  0.38346816650E+02  0.39295067675E+02 -0.27010232182E+02  0.61189323687E+02  0.00000000000E+00 0.  1.
          1    1    1    2  502    0 -0.38346816650E+02 -0.39295067675E+02 -0.40684583922E+01  0.55055726718E+02  0.00000000000E+00 0.  1.
</event>
<event>
 4    1  0.3664744E+003  0.2101488E+02  0.7546771E-02  0.1519052E+00
          2   -1    0    0  502    0  0.00000000000E+00  0.00000000000E+00  0.18253818464E+01  0.18253818464E+01  0.00000000000E+00 0.  1.
          1   -1    0    0  501    0 -0.00000000000E+00 -0.00000000000E+00 -0.35194550145E+03  0.35194550145E+03  0.00000000000E+00 0. -1.
          2    1    1    2  501    0  0.10452430304E+02  0.18231073092E+02 -0.76166102163E+02  0.79012027211E+02  0.00000000000E+00 0.  1.
          1    1    1    2  502    0 -0.10452430304E+02 -0.18231073092E+02 -0.27395401744E+03  0.27475885608E+03  0.00000000000E+00 0. -1.
</event>
<event>
 4    1  0.3664744E+003  0.2729538E+02  0.7546771E-02  0.1444663E+00
          2   -1    0    0  502    0  0.00000000000E+00  0.00000000000E+00  0.10495709385E+01  0.10495709385E+01  0.00000000000E+00 0.  1.
          1   -1    0    0  501    0 -0.00000000000E+00 -0.00000000000E+00 -0.14235232338E+04  0.14235232338E+04  0.00000000000E+00 0.  1.
          2    1    1    2  501    0 -0.20436267204E+02  0.18094105634E+02 -0.20689829698E+03  0.20869102273E+03  0.00000000000E+00 0.  1.
          1    1    1    2  502    0  0.20436267204E+02 -0.18094105634E+02 -0.12155753659E+04  0.12158817820E+04  0.00000000000E+00 0.  1.
</event>
<event>
 4    1  0.3664744E+003  0.3324259E+02  0.7546771E-02  0.1393358E+00
          2   -1    0    0  502    0  0.00000000000E+00  0.00000000000E+00  0.13210350102E+04  0.13210350102E+04  0.00000000000E+00 0.  1.
          1   -1    0    0  501    0 -0.00000000000E+00 -0.00000000000E+00 -0.21660821110E+01  0.21660821110E+01  0.00000000000E+00 0. -1.
          2    1    1    2  501    0 -0.33234083195E+02  0.75214132872E+00  0.11777723880E+04  0.11782414303E+04  0.00000000000E+00 0.  1.
          1    1    1    2  502    0  0.33234083195E+02 -0.75214132872E+00  0.14109654011E+03  0.14495966209E+03  0.00000000000E+00 0. -1.
</event>
<event>
 4    1  0.3664744E+003  0.5178128E+02  0.7546771E-02  0.1290629E+00
          2   -1    0    0  502    0  0.00000000000E+00  0.00000000000E+00  0.94817203747E+03  0.94817203747E+03  0.00000000000E+00 0. -1.
          1   -1    0    0  501    0 -0.00000000000E+00 -0.00000000000E+00 -0.23989722598E+03  0.23989722598E+03  0.00000000000E+00 0.  1.
          2    1    1    2  501    0  0.39136915785E+02 -0.33905787424E+02  0.94466047463E+03  0.94607859765E+03  0.00000000000E+00 0. -1.
          1    1    1    2  502    0 -0.39136915785E+02  0.33905787424E+02 -0.23638566314E+03  0.24199066581E+03  0.00000000000E+00 0.  1.
</event>
<event>
 4    1  0.3664744E+003  0.2954934E+02  0.7546771E-02  0.1423554E+00
          2   -1    0    0  502    0  0.00000000000E+00  0.00000000000E+00  0.10101132820E+04  0.10101132820E+04  0.00000000000E+00 0.  1.
          1   -1    0    0  501    0 -0.00000000000E+00 -0.00000000000E+00 -0.87986381004E+00  0.87986381004E+00  0.00000000000E+00 0.  1.
          2    1    1    2  501    0  0.29427340982E+02 -0.26822386412E+01  0.43764702144E+03  0.43864345222E+03  0.00000000000E+00 0.  1.
          1    1    1    2  502    0 -0.29427340982E+02  0.26822386412E+01  0.57158639674E+03  0.57234969358E+03  0.00000000000E+00 0.  1.
</event>
<event>
 4    1  0.3664744E+003  0.2113582E+02  0.7546771E-02  0.1517334E+00
          2   -1    0    0  502    0  0.00000000000E+00  0.00000000000E+00  0.16023850183E+03  0.16023850183E+03  0.00000000000E+00 0. -1.
          1   -1    0    0  501    0 -0.00000000000E+00 -0.00000000000E+00 -0.87390372055E+01  0.87390372055E+01  0.00000000000E+00 0. -1.
          2    1    1    2  501    0 -0.21135084659E+02  0.17672879533E+00  0.14547151970E+03  0.14699893225E+03  0.00000000000E+00 0. -1.
          1    1    1    2  502    0  0.21135084659E+02 -0.17672879533E+00  0.60279449263E+01  0.21978606795E+02  0.00000000000E+00 0. -1.
</event>
<event>
 4    1  0.3664744E+003  0.2061589E+02  0.7546771E-02  0.1524820E+00
          2   -1    0    0  502    0  0.00000000000E+00  0.00000000000E+00  0.11347449651E+03  0.11347449651E+03  0.00000000000E+00 0.  1.
          1   -1    0    0  501    0 -0.00000000000E+00 -0.00000000000E+00 -0.16864729445E+02  0.16864729445E+02  0.00000000000E+00 0.  1.
          2    1    1    2  501    0  0.15930740786E+02 -0.13085349650E+02  0.10578401245E+03  0.10777417208E+03  0.00000000000E+00 0.  1.
          1    1    1    2  502    0 -0.15930740786E+02  0.13085349650E+02 -0.91742453932E+01  0.22565053867E+02  0.00000000000E+00 0.  1.
</event>
<event>
 4    1  0.3664744E+003  0.2103198E+02  0.7546771E-02  0.1518809E+00
          2   -1    0    0  502    0  0.00000000000E+00  0.00000000000E+00  0.26539458309E+01  0.26539458309E+01  0.00000000000E+00 0. -1.
          1   -1    0    0  501    0 -0.00000000000E+00 -0.00000000000E+00 -0.50836818935E+03  0.50836818935E+03  0.00000000000E+00 0. -1.
          2    1    1    2  501    0 -0.25050504185E+01  0.20882265151E+02 -0.43378741059E+02  0.48208499783E+02  0.00000000000E+00 0. -1.
          1    1    1    2  502    0  0.25050504185E+01 -0.20882265151E+02 -0.46233550246E+03  0.46281363540E+03  0.00000000000E+00 0. -1.
</event>
<event>
 4    1  0.3664744E+003  0.3657783E+02  0.7546771E-02  0.1369797E+00
          2   -1    0    0  502    0  0.00000000000E+00  0.00000000000E+00  0.19126106835E+01  0.19126106835E+01  0.00000000000E+00 0. -1.
          1   -1    0    0  501    0 -0.00000000000E+00 -0.00000000000E+00 -0.25825502440E+04  0.25825502440E+04  0.00000000000E+00 0. -1.
          2    1    1    2  501    0 -0.28639032468E+02 -0.22753982965E+02 -0.18689376752E+03  0.19043953965E+03  0.00000000000E+00 0. -1.
          1    1    1    2  502    0  0.28639032468E+02  0.22753982965E+02 -0.23937438658E+04  0.23940233151E+04  0.00000000000E+00 0. -1.
</event>
<event>
 4    1  0.3664744E+003  0.4071831E+02  0.7546771E-02  0.1344327E+00
          2   -1    0    0  502    0  0.00000000000E+00  0.00000000000E+00  0.50098907507E+03  0.50098907507E+03  0.00000000000E+00 0. -1.
          1   -1    0    0  501    0 -0.00000000000E+00 -0.00000000000E+00 -0.49355278252E+01  0.49355278252E+01  0.00000000000E+00 0. -1.
          2    1    1    2  501    0  0.26679298972E+02  0.30760299479E+02  0.39322598926E+03  0.39532854646E+03  0.00000000000E+00 0. -1.
          1    1    1    2  502    0 -0.26679298972E+02 -0.30760299479E+02  0.10282755799E+03  0.11059605644E+03  0.00000000000E+00 0. -1.
</event>
<event>
 4    1  0.3664744E+003  0.5385874E+02  0.7546771E-02  0.1282257E+00
          2   -1    0    0  502    0  0.00000000000E+00  0.00000000000E+00  0.15038367749E+04  0.15038367749E+04  0.00000000000E+00 0.  1.
          1   -1    0    0  501    0 -0.00000000000E+00 -0.00000000000E+00 -0.19313481058E+01  0.19313481058E+01  0.00000000000E+00 0.  1.
          2    1    1    2  501    0  0.47641412492E+02  0.25120898313E+02  0.77771030917E+03  0.77957301692E+03  0.00000000000E+00 0.  1.
          1    1    1    2  502    0 -0.47641412492E+02 -0.25120898313E+02  0.72419511764E+03  0.72619510610E+03  0.00000000000E+00 0.  1.
</event>
<event>
 4    1  0.3664744E+003  0.3629914E+02  0.7546771E-02  0.1371653E+00
          2   -1    0    0  502    0  0.00000000000E+00  0.00000000000E+00  0.28198837734E+03  0.28198837734E+03  0.00000000000E+00 0. -1.
          1   -1    0    0  501    0 -0.00000000000E+00 -0.00000000000E+00 -0.16586491274E+03  0.16586491274E+03  0.00000000000E+00 0. -1.
          2    1    1    2  501    0  0.87358802349E+01  0.35232258257E+02  0.27881169181E+03  0.28116469749E+03  0.00000000000E+00 0. -1.
          1    1    1    2  502    0 -0.87358802349E+01 -0.35232258257E+02 -0.16268822722E+03  0.16668859259E+03  0.00000000000E+00 0. -1.
</event>
<event>
 4    1  0.3664744E+003  0.2141049E+02  0.7546771E-02  0.1513484E+00
          2   -1    0    0  502    0  0.00000000000E+00  0.00000000000E+00  0.20920006450E+02  0.20920006450E+02  0.00000000000E+00 0. -1.
          1   -1    0    0  501    0 -0.00000000000E+00 -0.00000000000E+00 -0.18867754919E+03  0.18867754919E+03  0.00000000000E+00 0. -1.
          2    1    1    2  501    0 -0.21371945353E+02  0.12840842783E+01  0.14646733161E+02  0.25941004470E+02  0.00000000000E+00 0. -1.
          1    1    1    2  502    0  0.21371945353E+02 -0.12840842783E+01 -0.18240427590E+03  0.18365655117E+03  0.00000000000E+00 0. -1.
</event>
<event>
 4    1  0.3664744E+003  0.2730546E+02  0.7546771E-02  0.1444564E+00
          2   -1    0    0  502    0  0.00000000000E+00  0.00000000000E+00  0.14890060594E+04  0.14890060594E+04  0.00000000000E+00 0. -1.
          1   -1    0    0  501    0 -0.00000000000E+00 -0.00000000000E+00 -0.24367821908E+02  0.24367821908E+02  0.00000000000E+00 0.  1.
          2    1    1    2  501    0 -0.20177629105E+02 -0.18397052467E+02  0.14811912107E+04  0.14814428747E+04  0.00000000000E+00 0. -1.
          1    1    1    2  502    0  0.20177629105E+02  0.18397052467E+02 -0.16552973282E+02  0.31931006565E+02  0.00000000000E+00 0.  1.
</event>
<event>
 4    1  0.3664744E+003  0.2314324E+02  0.7546771E-02  0.1490707E+00
          2   -1    0    0  502    0  0.00000000000E+00  0.00000000000E+00  0.34493066808E+03  0.34493066808E+03  0.00000000000E+00 0.  1.
          1   -1    0    0  501    0 -0.00000000000E+00 -0.00000000000E+00 -0.30983178653E+01  0.30983178653E+01  0.00000000000E+00 0. -1.
          2    1    1    2  501    0  0.21181590630E+02 -0.93246947191E+01  0.29381815829E+03  0.29472821354E+03  0.00000000000E+00 0.  1.
          1    1    1    2  502    0 -0.21181590630E+02  0.93246947191E+01  0.48014191921E+02  0.53300772405E+02  0.00000000000E+00 0. -1.
</event>
<event>
 4    1  0.3664744E+003  0.2290499E+02  0.7546771E-02  0.1493695E+00
          2   -1    0    0  502    0  0.00000000000E+00  0.00000000000E+00  0.15886103546E+02  0.15886103546E+02  0.00000000000E+00 0. -1.
          1   -1    0    0  501    0 -0.00000000000E+00 -0.00000000000E+00 -0.49047543967E+02  0.49047543967E+02  0.00000000000E+00 0.  1.
          2    1    1    2  501    0 -0.20877180143E+02 -0.94224113888E+01  0.19758187293E+01  0.22990048864E+02  0.00000000000E+00 0. -1.
          1    1    1    2  502    0  0.20877180143E+02  0.94224113888E+01 -0.35137259150E+02  0.41943598649E+02  0.00000000000E+00 0.  1.
</event>
<event>
 4    1  0.3664744E+003  0.2204764E+02  0.7546771E-02  0.1504816E+00
          2   -1    0    0  502    0  0.00000000000E+00  0.00000000000E+00  0.72470264289E+01  0.72470264289E+01  0.00000000000E+00 0.  1.
          1   -1    0    0  501    0 -0.00000000000E+00 -0.00000000000E+00 -0.59393507356E+03  0.59393507356E+03  0.00000000000E+00 0.  1.
          2    1    1    2  501    0  0.19419575702E+02 -0.10439269831E+02 -0.10234827079E+02  0.24307405464E+02  0.00000000000E+00 0.  1.
          1    1    1    2  502    0 -0.19419575702E+02  0.10439269831E+02 -0.57645322005E+03  0.57687469453E+03  0.00000000000E+00 0.  1.
</event>
<event>
 4    1  0.3664744E+003  0.3775288E+02  0.7546771E-02  0.1362182E+00
          2   -1    0    0  502    0  0.00000000000E+00  0.00000000000E+00  0.23599436220E+04  0.23599436220E+04  0.00000000000E+00 0.  1.
          1   -1    0    0  501    0 -0.00000000000E+00 -0.00000000000E+00 -0.15747240377E+03  0.15747240377E+03  0.00000000000E+00 0.  1.
          2    1    1    2  501    0 -0.32331936993E+02  0.19491685273E+02  0.23575275710E+04  0.23578298344E+04  0.00000000000E+00 0.  1.
          1    1    1    2  502    0  0.32331936993E+02 -0.19491685273E+02 -0.15505635277E+03  0.15958619138E+03  0.00000000000E+00 0.  1.
</event>
<event>
 4    1  0.3664744E+003  0.2674479E+02  0.7546771E-02  0.1450189E+00
          2   -1    0    0  502    0  0.00000000000E+00  0.00000000000E+00  0.53303283718E+00  0.53303283718E+00  0.00000000000E+00 0.  1.
          1   -1    0    0  501    0 -0.00000000000E+00 -0.00000000000E+00 -0.16847257439E+04  0.16847257439E+04  0.00000000000E+00 0. -1.
          2    1    1    2  501    0  0.26291830211E+02 -0.49013886056E+01 -0.46199433792E+03  0.46276781675E+03  0.00000000000E+00 0.  1.
          1    1    1    2  502    0 -0.26291830211E+02  0.49013886056E+01 -0.12221983731E+04  0.12224909600E+04  0.00000000000E+00 0. -1.
</event>
<event>
 4    1  0.3664744E+003  0.2285212E+02  0.7546771E-02  0.1494363E+00
          2   -1    0    0  502    0  0.00000000000E+00  0.00000000000E+00  0.41097934712E+03  0.41097934712E+03  0.00000000000E+00 0.  1.
          1   -1    0    0  501    0 -0.00000000000E+00 -0.00000000000E+00 -0.20179958607E+02  0.20179958607E+02  0.00000000000E+00 0.  1.
          2    1    1    2  501    0  0.93987337624E+01  0.20829864882E+02  0.40408180386E+03  0.40472746840E+03  0.00000000000E+00 0.  1.
          1    1    1    2  502    0 -0.93987337624E+01 -0.20829864882E+02 -0.13282415343E+02  0.26431837331E+02  0.00000000000E+00 0.  1.
</event>
<event>
 4    1  0.3664744E+003  0.3598048E+02  0.7546771E-02  0.1373798E+00
          2   -1    0    0  502    0  0.00000000000E+00  0.00000000000E+00  0.87087784952E+02  0.87087784952E+02  0.00000000000E+00 0.  1.
          1   -1    0    0  501    0 -0.00000000000E+00 -0.00000000000E+00 -0.47607270234E+03  0.47607270234E+03  0.00000000000E+00 0.  1.
          2    1    1    2  501    0 -0.35295788154E+02  0.69858483090E+01  0.82656740406E+02  0.90148385857E+02  0.00000000000E+00 0.  1.
          1    1    1    2  502    0  0.35295788154E+02 -0.69858483090E+01 -0.47164165779E+03  0.47301210143E+03  0.00000000000E+00 0.  1.
</event>
<event>
 4    1  0.3664744E+003  0.2043374E+02  0.7546771E-02  0.1527505E+00
          2   -1    0    0  502    0  0.00000000000E+00  0.00000000000E+00  0.13354666702E+03  0.13354666702E+03  0.00000000000E+00 0. -1.
          1   -1    0    0  501    0 -0.00000000000E+00 -0.00000000000E+00 -0.31916525937E+02  0.31916525937E+02  0.00000000000E+00 0. -1.
          2    1    1    2  501    0 -0.62654706493E+01  0.19449468104E+02  0.12939006970E+03  0.13099361842E+03  0.00000000000E+00 0. -1.
          1    1    1    2  502    0  0.62654706493E+01 -0.19449468104E+02 -0.27759928612E+02  0.34469574534E+02  0.00000000000E+00 0. -1.
</event>
<event>
 4    1  0.3664744E+003  0.5568069E+02  0.7546771E-02  0.1275259E+00
          2   -1    0    0  502    0  0.00000000000E+00  0.00000000000E+00  0.14435609299E+04  0.14435609299E+04  0.00000000000E+00 0. -1.
          1   -1    0    0  501    0 -0.00000000000E+00 -0.00000000000E+00 -0.24784072297E+02  0.24784072297E+02  0.00000000000E+00 0.  1.
          2    1    1    2  501    0  0.55087154322E+02  0.81083270785E+01  0.14110297689E+04  0.14121279503E+04  0.00000000000E+00 0. -1.
          1    1    1    2  502    0 -0.55087154322E+02 -0.81083270785E+01  0.77470887905E+01  0.56217051898E+02  0.00000000000E+00 0.  1.
</event>
<event>
 4    1  0.3664744E+003  0.2916200E+02  0.7546771E-02  0.1427021E+00
          2   -1    0    0  502    0  0.00000000000E+00  0.00000000000E+00  0.12007591186E+02  0.12007591186E+02  0.00000000000E+00 0.  1.
          1   -1    0    0  501    0 -0.00000000000E+00 -0.00000000000E+00 -0.19508303926E+03  0.19508303926E+03  0.00000000000E+00 0.  1.
          2    1    1    2  501    0  0.71068190225E+01 -0.28282773221E+02 -0.88986954930E+01  0.30489488667E+02  0.00000000000E+00 0.  1.
          1    1    1    2  502    0 -0.71068190225E+01  0.28282773221E+02 -0.17417675258E+03  0.17660114177E+03  0.00000000000E+00 0.  1.
</event>
<event>
 4    1  0.3664744E+003  0.1779837E+03  0.7546771E-02  0.1071949E+00
          2   -1    0    0  502    0  0.00000000000E+00  0.00000000000E+00  0.11424105704E+03  0.11424105704E+03  0.00000000000E+00 0. -1.
          1   -1    0    0  501    0 -0.00000000000E+00 -0.00000000000E+00 -0.20487413316E+04  0.20487413316E+04  0.00000000000E+00 0.  1.
          2    1    1    2  501    0  0.64240452939E+02  0.16598607420E+03  0.38392557648E+02  0.18207745908E+03  0.00000000000E+00 0. -1.
          1    1    1    2  502    0 -0.64240452939E+02 -0.16598607420E+03 -0.19728928322E+04  0.19809049296E+04  0.00000000000E+00 0.  1.
</event>
<event>
 4    1  0.3664744E+003  0.2132444E+02  0.7546771E-02  0.1514683E+00
          2   -1    0    0  502    0  0.00000000000E+00  0.00000000000E+00  0.14568330917E+03  0.14568330917E+03  0.00000000000E+00 0. -1.
          1   -1    0    0  501    0 -0.00000000000E+00 -0.00000000000E+00 -0.89066224224E+01  0.89066224224E+01  0.00000000000E+00 0. -1.
          2    1    1    2  501    0  0.74724787280E+01  0.19972323594E+02  0.13068371910E+03  0.13241210702E+03  0.00000000000E+00 0. -1.
          1    1    1    2  502    0 -0.74724787280E+01 -0.19972323594E+02  0.60929676514E+01  0.22177824575E+02  0.00000000000E+00 0. -1.
</event>
<event>
 4    1  0.3664744E+003  0.2915842E+02  0.7546771E-02  0.1427053E+00
          2   -1    0    0  502    0  0.00000000000E+00  0.00000000000E+00  0.14162840384E+04  0.14162840384E+04  0.00000000000E+00 0. -1.
          1   -1    0    0  501    0 -0.00000000000E+00 -0.00000000000E+00 -0.14342678285E+01  0.14342678285E+01  0.00000000000E+00 0. -1.
          2    1    1    2  501    0  0.31548581831E+01  0.28987241887E+02  0.12479503513E+04  0.12482909487E+04  0.00000000000E+00 0. -1.
          1    1    1    2  502    0 -0.31548581831E+01 -0.28987241887E+02  0.16689941926E+03  0.16942735751E+03  0.00000000000E+00 0. -1.
</event>
<event>
 4    1  0.3712473E+003  0.3256545E+02  0.7546771E-02  0.1398537E+00
          2   -1    0    0  502    0  0.00000000000E+00  0.00000000000E+00  0.44897187168E+03  0.44897187168E+03  0.00000000000E+00 0. -1.
          1   -1    0    0  501    0 -0.00000000000E+00 -0.00000000000E+00 -0.11810078578E+04  0.11810078578E+04  0.00000000000E+00 0.  1.
          2    1    1    2  501    0  0.11523881620E+02 -0.30458307547E+02  0.44815645104E+03  0.44933808314E+03  0.00000000000E+00 0. -1.
          1    1    1    2  502    0 -0.11523881620E+02  0.30458307547E+02 -0.11801924371E+04  0.11806416463E+04  0.00000000000E+00 0.  1.
</event>
<event>
 4    1  0.3664744E+003  0.2363896E+02  0.7546771E-02  0.1484627E+00
          2   -1    0    0  502    0  0.00000000000E+00  0.00000000000E+00  0.37211925236E+00  0.37211925236E+00  0.00000000000E+00 0.  1.
          1   -1    0    0  501    0 -0.00000000000E+00 -0.00000000000E+00 -0.15878362485E+04  0.15878362485E+04  0.00000000000E+00 0.  1.
          2    1    1    2  501    0 -0.14374225166E+02  0.18766512653E+02 -0.60874429031E+03  0.60920309531E+03  0.00000000000E+00 0.  1.
          1    1    1    2  502    0  0.14374225166E+02 -0.18766512653E+02 -0.97871983898E+03  0.97900527249E+03  0.00000000000E+00 0.  1.
</event>
<event>
 4    1  0.3664744E+003  0.2247565E+02  0.7546771E-02  0.1499189E+00
          2   -1    0    0  502    0  0.00000000000E+00  0.00000000000E+00  0.33810985030E+02  0.33810985030E+02  0.00000000000E+00 0. -1.
          1   -1    0    0  501    0 -0.00000000000E+00 -0.00000000000E+00 -0.43370100757E+02  0.43370100757E+02  0.00000000000E+00 0.  1.
          2    1    1    2  501    0 -0.20897091118E+02 -0.82744567587E+01  0.26464727419E+02  0.34720841712E+02  0.00000000000E+00 0. -1.
          1    1    1    2  502    0  0.20897091118E+02  0.82744567587E+01 -0.36023843146E+02  0.42460244075E+02  0.00000000000E+00 0.  1.
</event>
<event>
 4    1  0.3664744E+003  0.2792546E+02  0.7546771E-02  0.1438527E+00
          2   -1    0    0  502    0  0.00000000000E+00  0.00000000000E+00  0.94554981400E+03  0.94554981400E+03  0.00000000000E+00 0. -1.
          1   -1    0    0  501    0 -0.00000000000E+00 -0.00000000000E+00 -0.38895909281E+02  0.38895909281E+02  0.00000000000E+00 0.  1.
          2    1    1    2  501    0 -0.26978223740E+02 -0.72115716207E+01  0.94030337283E+03  0.94071795150E+03  0.00000000000E+00 0. -1.
          1    1    1    2  502    0  0.26978223740E+02  0.72115716207E+01 -0.33649468106E+02  0.43727771785E+02  0.00000000000E+00 0.  1.
</event>
<event>
 4    1  0.3664744E+003  0.2042205E+02  0.7546771E-02  0.1527679E+00
          2   -1    0    0  502    0  0.00000000000E+00  0.00000000000E+00  0.63284308505E+01  0.63284308505E+01  0.00000000000E+00 0.  1.
          1   -1    0    0  501    0 -0.00000000000E+00 -0.00000000000E+00 -0.15212617404E+03  0.15212617404E+03  0.00000000000E+00 0. -1.
          2    1    1    2  501    0 -0.20380601253E+02  0.13004515644E+01 -0.13252243935E+02  0.24345062149E+02  0.00000000000E+00 0.  1.
          1    1    1    2  502    0  0.20380601253E+02 -0.13004515644E+01 -0.13254549925E+03  0.13410954274E+03  0.00000000000E+00 0. -1.
</event>
<event>
 4    1  0.3664744E+003  0.2836151E+02  0.7546771E-02  0.1434391E+00
          2   -1    0    0  502    0  0.00000000000E+00  0.00000000000E+00  0.10350531694E+02  0.10350531694E+02  0.00000000000E+00 0.  1.
          1   -1    0    0  501    0 -0.00000000000E+00 -0.00000000000E+00 -0.79123985018E+02  0.79123985018E+02  0.00000000000E+00 0. -1.
          2    1    1    2  501    0  0.24839050184E+00  0.28360421062E+02 -0.28413453426E+02  0.40145977585E+02  0.00000000000E+00 0.  1.
          1    1    1    2  502    0 -0.24839050184E+00 -0.28360421062E+02 -0.40359999897E+02  0.49328539126E+02  0.00000000000E+00 0. -1.
</event>
<event>
 4    1  0.3664744E+003  0.2119124E+02  0.7546771E-02  0.1516552E+00
          2   -1    0    0  502    0  0.00000000000E+00  0.00000000000E+00  0.39885670809E+02  0.39885670809E+02  0.00000000000E+00 0. -1.
          1   -1    0    0  501    0 -0.00000000000E+00 -0.00000000000E+00 -0.27073244254E+02  0.27073244254E+02  0.00000000000E+00 0. -1.
          2    1    1    2  501    0 -0.19837898152E+02  0.74516167681E+01  0.31994066469E+02  0.38375631392E+02  0.00000000000E+00 0. -1.
          1    1    1    2  502    0  0.19837898152E+02 -0.74516167681E+01 -0.19181639914E+02  0.28583283670E+02  0.00000000000E+00 0. -1.
</event>
<event>
 4    1  0.3664744E+003  0.4347596E+02  0.7546771E-02  0.1329238E+00
          2   -1    0    0  502    0  0.00000000000E+00  0.00000000000E+00  0.64794635237E+03  0.64794635237E+03  0.00000000000E+00 0. -1.
          1   -1    0    0  501    0 -0.00000000000E+00 -0.00000000000E+00 -0.60602330937E+02  0.60602330937E+02  0.00000000000E+00 0.  1.
          2    1    1    2  501    0  0.37425480653E+02 -0.22124486823E+02  0.63931451936E+03  0.64079108467E+03  0.00000000000E+00 0. -1.
          1    1    1    2  502    0 -0.37425480653E+02  0.22124486823E+02 -0.51970497927E+02  0.67757598644E+02  0.00000000000E+00 0.  1.
</event>
<event>
 4    1  0.3664744E+003  0.2736148E+02  0.7546771E-02  0.1444010E+00
          2   -1    0    0  502    0  0.00000000000E+00  0.00000000000E+00  0.61811377342E+02  0.61811377342E+02  0.00000000000E+00 0.  1.
          1   -1    0    0  501    0 -0.00000000000E+00 -0.00000000000E+00 -0.17951029257E+02  0.17951029257E+02  0.00000000000E+00 0. -1.
          2    1    1    2  501    0 -0.12688352900E+02 -0.24241618146E+02  0.44675876211E+02  0.52388779952E+02  0.00000000000E+00 0.  1.
          1    1    1    2  502    0  0.12688352900E+02  0.24241618146E+02 -0.81552812550E+00  0.27373626647E+02  0.00000000000E+00 0. -1.
</event>
<event>
 4    1  0.3664744E+003  0.3010594E+02  0.7546771E-02  0.1418678E+00
          2   -1    0    0  502    0  0.00000000000E+00  0.00000000000E+00  0.90996877285E+03  0.90996877285E+03  0.00000000000E+00 0.  1.
          1   -1    0    0  501    0 -0.00000000000E+00 -0.00000000000E+00 -0.15855323957E+03  0.15855323957E+03  0.00000000000E+00 0.  1.
          2    1    1    2  501    0 -0.28897530146E+02  0.84439440992E+01  0.90828799681E+03  0.90878680260E+03  0.00000000000E+00 0.  1.
          1    1    1    2  502    0  0.28897530146E+02 -0.84439440992E+01 -0.15687246353E+03  0.15973520981E+03  0.00000000000E+00 0.  1.
</event>
<event>
 4    1  0.3664744E+003  0.2278584E+02  0.7546771E-02  0.1495205E+00
          2   -1    0    0  502    0  0.00000000000E+00  0.00000000000E+00  0.16068484222E+04  0.16068484222E+04  0.00000000000E+00 0.  1.
          1   -1    0    0  501    0 -0.00000000000E+00 -0.00000000000E+00 -0.39107279649E+01  0.39107279649E+01  0.00000000000E+00 0.  1.
          2    1    1    2  501    0  0.22349802995E+02  0.44363225533E+01  0.15728600510E+04  0.15730250903E+04  0.00000000000E+00 0.  1.
          1    1    1    2  502    0 -0.22349802995E+02 -0.44363225533E+01  0.30077643214E+02  0.37734059853E+02  0.00000000000E+00 0.  1.
</event>
<event>
 4    1  0.3664744E+003  0.4199545E+02  0.7546771E-02  0.1337173E+00
          2   -1    0    0  502    0  0.00000000000E+00  0.00000000000E+00  0.13642477543E+04  0.13642477543E+04  0.00000000000E+00 0.  1.
          1   -1    0    0  501    0 -0.00000000000E+00 -0.00000000000E+00 -0.40719909485E+03  0.40719909485E+03  0.00000000000E+00 0.  1.
          2    1    1    2  501    0  0.22073486402E+02 -0.35726446076E+02  0.13628406780E+04  0.13634875619E+04  0.00000000000E+00 0.  1.
          1    1    1    2  502    0 -0.22073486402E+02  0.35726446076E+02 -0.40579201856E+03  0.40795928728E+03  0.00000000000E+00 0.  1.
</event>
<event>
 4    1  0.3664744E+003  0.2445882E+02  0.7546771E-02  0.1474949E+00
          2   -1    0    0  502    0  0.00000000000E+00  0.00000000000E+00  0.27265710132E+03  0.27265710132E+03  0.00000000000E+00 0.  1.
          1   -1    0    0  501    0 -0.00000000000E+00 -0.00000000000E+00 -0.65505882044E+01  0.65505882044E+01  0.00000000000E+00 0. -1.
          2    1    1    2  501    0  0.60583239154E+00 -0.24451319988E+02  0.24690141879E+03  0.24810994475E+03  0.00000000000E+00 0.  1.
          1    1    1    2  502    0 -0.60583239154E+00  0.24451319988E+02  0.19205094320E+02  0.31097744772E+02  0.00000000000E+00 0. -1.
</event>
<event>
 4    1  0.3664744E+003  0.2296625E+02  0.7546771E-02  0.1492922E+00
          2   -1    0    0  502    0  0.00000000000E+00  0.00000000000E+00  0.17316476878E+03  0.17316476878E+03  0.00000000000E+00 0. -1.
          1   -1    0    0  501    0 -0.00000000000E+00 -0.00000000000E+00 -0.33777716330E+01  0.33777716330E+01  0.00000000000E+00 0.  1.
          2    1    1    2  501    0  0.19385596680E+02 -0.12314512162E+02  0.11256078912E+03  0.11487984948E+03  0.00000000000E+00 0. -1.
          1    1    1    2  502    0 -0.19385596680E+02  0.12314512162E+02  0.57226208030E+02  0.61662690939E+02  0.00000000000E+00 0.  1.
</event>
<event>
 4    1  0.3664744E+003  0.3732610E+02  0.7546771E-02  0.1364910E+00
          2   -1    0    0  502    0  0.00000000000E+00  0.00000000000E+00  0.19985722883E+01  0.19985722883E+01  0.00000000000E+00 0.  1.
          1   -1    0    0  501    0 -0.00000000000E+00 -0.00000000000E+00 -0.23274209284E+04  0.23274209284E+04  0.00000000000E+00 0.  1.
          2    1    1    2  501    0 -0.15325970182E+02 -0.34034575087E+02 -0.18791324115E+03  0.19158450841E+03  0.00000000000E+00 0.  1.
          1    1    1    2  502    0  0.15325970182E+02  0.34034575087E+02 -0.21375091150E+04  0.21378349923E+04  0.00000000000E+00 0.  1.
</event>
<event>
 4    1  0.3664744E+003  0.2387959E+02  0.7546771E-02  0.1481739E+00
          2   -1    0    0  502    0  0.00000000000E+00  0.00000000000E+00  0.40703523285E+01  0.40703523285E+01  0.00000000000E+00 0.  1.
          1   -1    0    0  501    0 -0.00000000000E+00 -0.00000000000E+00 -0.97492661641E+03  0.97492661641E+03  0.00000000000E+00 0. -1.
          2    1    1    2  501    0  0.84030653913E+01 -0.22352259514E+02 -0.32462871704E+02  0.40299789734E+02  0.00000000000E+00 0.  1.
          1    1    1    2  502    0 -0.84030653913E+01  0.22352259514E+02 -0.93839339238E+03  0.93869717901E+03  0.00000000000E+00 0. -1.
</event>
<event>
 4    1  0.3664744E+003  0.2286076E+02  0.7546771E-02  0.1494254E+00
          2   -1    0    0  502    0  0.00000000000E+00  0.00000000000E+00  0.11640356245E+04  0.11640356245E+04  0.00000000000E+00 0.  1.
          1   -1    0    0  501    0 -0.00000000000E+00 -0.00000000000E+00 -0.54863694284E+01  0.54863694284E+01  0.00000000000E+00 0.  1.
          2    1    1    2  501    0  0.18352548814E+02 -0.13630790489E+02  0.11395985488E+04  0.11398278233E+04  0.00000000000E+00 0.  1.
          1    1    1    2  502    0 -0.18352548814E+02  0.13630790489E+02  0.18950706285E+02  0.29694170573E+02  0.00000000000E+00 0.  1.
</event>
<event>
 4    1  0.3664744E+003  0.2302859E+02  0.7546771E-02  0.1492139E+00
          2   -1    0    0  502    0  0.00000000000E+00  0.00000000000E+00  0.11161880903E+02  0.11161880903E+02  0.00000000000E+00 0. -1.
          1   -1    0    0  501    0 -0.00000000000E+00 -0.00000000000E+00 -0.82357635297E+02  0.82357635297E+02  0.00000000000E+00 0. -1.
          2    1    1    2  501    0 -0.69169304026E+01  0.21965243890E+02 -0.51821182479E+01  0.23604453285E+02  0.00000000000E+00 0. -1.
          1    1    1    2  502    0  0.69169304026E+01 -0.21965243890E+02 -0.66013636145E+02  0.69915062915E+02  0.00000000000E+00 0. -1.
</event>
<event>
 4    1  0.3664744E+003  0.5970332E+02  0.7546771E-02  0.1260844E+00
          2   -1    0    0  502    0  0.00000000000E+00  0.00000000000E+00  0.12528797854E+04  0.12528797854E+04  0.00000000000E+00 0. -1.
          1   -1    0    0  501    0 -0.00000000000E+00 -0.00000000000E+00 -0.56431476190E+01  0.56431476190E+01  0.00000000000E+00 0. -1.
          2    1    1    2  501    0  0.27108232366E+02 -0.53194270777E+02  0.10667196308E+04  0.10683890946E+04  0.00000000000E+00 0. -1.
          1    1    1    2  502    0 -0.27108232366E+02  0.53194270777E+02  0.18051700694E+03  0.19013383839E+03  0.00000000000E+00 0. -1.
</event>
<event>
 4    1  0.3664744E+003  0.2721060E+02  0.7546771E-02  0.1445504E+00
          2   -1    0    0  502    0  0.00000000000E+00  0.00000000000E+00  0.17076758897E+04  0.17076758897E+04  0.00000000000E+00 0.  1.
          1   -1    0    0  501    0 -0.00000000000E+00 -0.00000000000E+00 -0.29849261744E+02  0.29849261744E+02  0.00000000000E+00 0.  1.
          2    1    1    2  501    0  0.16101765804E+01 -0.27162916918E+02  0.17013431147E+04  0.17015606985E+04  0.00000000000E+00 0.  1.
          1    1    1    2  502    0 -0.16101765804E+01  0.27162916918E+02 -0.23516486770E+02  0.35964452924E+02  0.00000000000E+00 0.  1.
</event>
<event>
 4    1  0.3664744E+003  0.2651564E+02  0.7546771E-02  0.1452535E+00
          2   -1    0    0  502    0  0.00000000000E+00  0.00000000000E+00  0.42720905194E+03  0.42720905194E+03  0.00000000000E+00 0. -1.
          1   -1    0    0  501    0 -0.00000000000E+00 -0.00000000000E+00 -0.73065826938E+03  0.73065826938E+03  0.00000000000E+00 0.  1.
          2    1    1    2  501    0 -0.26380631033E+02 -0.26723936684E+01  0.42655668315E+03  0.42738002214E+03  0.00000000000E+00 0. -1.
          1    1    1    2  502    0  0.26380631033E+02  0.26723936684E+01 -0.73000590058E+03  0.73048729918E+03  0.00000000000E+00 0.  1.
</event>
<event>
 4    1  0.3664744E+003  0.4058711E+02  0.7546771E-02  0.1345079E+00
          2   -1    0    0  502    0  0.00000000000E+00  0.00000000000E+00  0.21306773917E+04  0.21306773917E+04  0.00000000000E+00 0.  1.
          1   -1    0    0  501    0 -0.00000000000E+00 -0.00000000000E+00 -0.21345250803E+04  0.21345250803E+04  0.00000000000E+00 0.  1.
          2    1    1    2  501    0 -0.44454522260E+01  0.40342923421E+02  0.21302911348E+04  0.21306777401E+04  0.00000000000E+00 0.  1.
          1    1    1    2  502    0  0.44454522260E+01 -0.40342923421E+02 -0.21341388234E+04  0.21345247319E+04  0.00000000000E+00 0.  1.
</event>
<event>
 4    1  0.3664744E+003  0.2270408E+02  0.7546771E-02  0.1496248E+00
          2   -1    0    0  502    0  0.00000000000E+00  0.00000000000E+00  0.79243576130E+02  0.79243576130E+02  0.00000000000E+00 0.  1.
          1   -1    0    0  501    0 -0.00000000000E+00 -0.00000000000E+00 -0.49380816328E+02  0.49380816328E+02  0.00000000000E+00 0. -1.
          2    1    1    2  501    0 -0.14932133326E+02  0.17102827894E+02  0.74858122741E+02  0.78225404237E+02  0.00000000000E+00 0.  1.
          1    1    1    2  502    0  0.14932133326E+02 -0.17102827894E+02 -0.44995362939E+02  0.50398988221E+02  0.00000000000E+00 0. -1.
</event>
<event>
 4    1  0.3664744E+003  0.3155619E+02  0.7546771E-02  0.1406539E+00
          2   -1    0    0  502    0  0.00000000000E+00  0.00000000000E+00  0.27181384377E+03  0.27181384377E+03  0.00000000000E+00 0. -1.
          1   -1    0    0  501    0 -0.00000000000E+00 -0.00000000000E+00 -0.56645418720E+03  0.56645418720E+03  0.00000000000E+00 0. -1.
          2    1    1    2  501    0 -0.30367369945E+02 -0.85799784875E+01  0.27045628199E+03  0.27229100913E+03  0.00000000000E+00 0. -1.
          1    1    1    2  502    0  0.30367369945E+02  0.85799784875E+01 -0.56509662542E+03  0.56597702184E+03  0.00000000000E+00 0. -1.
</event>
<event>
 4    1  0.3664744E+003  0.2380311E+02  0.7546771E-02  0.1482652E+00
          2   -1    0    0  502    0  0.00000000000E+00  0.00000000000E+00  0.13335415001E+04  0.13335415001E+04  0.00000000000E+00 0.  1.
          1   -1    0    0  501    0 -0.00000000000E+00 -0.00000000000E+00 -0.15333036882E+02  0.15333036882E+02  0.00000000000E+00 0. -1.
          2    1    1    2  501    0  0.12898968813E+01  0.23768133406E+02  0.13241316106E+04  0.13243455403E+04  0.00000000000E+00 0.  1.
          1    1    1    2  502    0 -0.12898968813E+01 -0.23768133406E+02 -0.59231474204E+01  0.24528996615E+02  0.00000000000E+00 0. -1.
</event>
<event>
 4    1  0.3664744E+003  0.4632195E+02  0.7546771E-02  0.1314958E+00
          2   -1    0    0  502    0  0.00000000000E+00  0.00000000000E+00  0.45806947159E+01  0.45806947159E+01  0.00000000000E+00 0. -1.
          1   -1    0    0  501    0 -0.00000000000E+00 -0.00000000000E+00 -0.46891628893E+03  0.46891628893E+03  0.00000000000E+00 0.  1.
          2    1    1    2  501    0  0.28079438080E+02  0.36841118954E+02 -0.22452332836E+03  0.22925193099E+03  0.00000000000E+00 0. -1.
          1    1    1    2  502    0 -0.28079438080E+02 -0.36841118954E+02 -0.23981226585E+03  0.24424505265E+03  0.00000000000E+00 0.  1.
</event>
<event>
 4    1  0.3664744E+003  0.4395427E+02  0.7546771E-02  0.1326752E+00
          2   -1    0    0  502    0  0.00000000000E+00  0.00000000000E+00  0.68178894765E+01  0.68178894765E+01  0.00000000000E+00 0.  1.
          1   -1    0    0  501    0 -0.00000000000E+00 -0.00000000000E+00 -0.30192723560E+03  0.30192723560E+03  0.00000000000E+00 0. -1.
          2    1    1    2  501    0  0.67637765156E+01 -0.43430735635E+02 -0.10928197174E+03  0.11779018133E+03  0.00000000000E+00 0.  1.
          1    1    1    2  502    0 -0.67637765156E+01  0.43430735635E+02 -0.18582737438E+03  0.19095494374E+03  0.00000000000E+00 0. -1.
</event>
<event>
 4    1  0.3664744E+003  0.2233140E+02  0.7546771E-02  0.1501069E+00
          2   -1    0    0  502    0  0.00000000000E+00  0.00000000000E+00  0.12330816144E+03  0.12330816144E+03  0.00000000000E+00 0.  1.
          1   -1    0    0  501    0 -0.00000000000E+00 -0.00000000000E+00 -0.11577756781E+02  0.11577756781E+02  0.00000000000E+00 0.  1.
          2    1    1    2  501    0 -0.16427528575E+02  0.15127057054E+02  0.11026814722E+03  0.11250669243E+03  0.00000000000E+00 0.  1.
          1    1    1    2  502    0  0.16427528575E+02 -0.15127057054E+02  0.14622574398E+01  0.22379225791E+02  0.00000000000E+00 0.  1.
</event>
<event>
 4    1  0.3664744E+003  0.3080956E+02  0.7546771E-02  0.1412689E+00
          2   -1    0    0  502    0  0.00000000000E+00  0.00000000000E+00  0.10561065513E+04  0.10561065513E+04  0.00000000000E+00 0. -1.
          1   -1    0    0  501    0 -0.00000000000E+00 -0.00000000000E+00 -0.10900387939E+01  0.10900387939E+01  0.00000000000E+00 0.  1.
          2    1    1    2  501    0 -0.14252450912E+02  0.27314766772E+02  0.74891583657E+03  0.74954930399E+03  0.00000000000E+00 0. -1.
          1    1    1    2  502    0  0.14252450912E+02 -0.27314766772E+02  0.30610067591E+03  0.30764728608E+03  0.00000000000E+00 0.  1.
</event>
<event>
 4    1  0.3664744E+003  0.2573287E+02  0.7546771E-02  0.1460769E+00
          2   -1    0    0  502    0  0.00000000000E+00  0.00000000000E+00  0.23272264907E+03  0.23272264907E+03  0.00000000000E+00 0.  1.
          1   -1    0    0  501    0 -0.00000000000E+00 -0.00000000000E+00 -0.28454087438E+01  0.28454087438E+01  0.00000000000E+00 0. -1.
          2    1    1    2  501    0 -0.14121143008E+02  0.21512160918E+02  0.11445177595E+03  0.11730894581E+03  0.00000000000E+00 0.  1.
          1    1    1    2  502    0  0.14121143008E+02 -0.21512160918E+02  0.11542546437E+03  0.11825911201E+03  0.00000000000E+00 0. -1.
</event>
<event>
 4    1  0.3664744E+003  0.2184425E+02  0.7546771E-02  0.1507544E+00
          2   -1    0    0  502    0  0.00000000000E+00  0.00000000000E+00  0.23637265068E+02  0.23637265068E+02  0.00000000000E+00 0.  1.
          1   -1    0    0  501    0 -0.00000000000E+00 -0.00000000000E+00 -0.48665939675E+02  0.48665939675E+02  0.00000000000E+00 0.  1.
          2    1    1    2  501    0  0.14772419559E+02 -0.16091821495E+02  0.15140753385E+02  0.26578440732E+02  0.00000000000E+00 0.  1.
          1    1    1    2  502    0 -0.14772419559E+02  0.16091821495E+02 -0.40169427992E+02  0.45724764011E+02  0.00000000000E+00 0.  1.
</event>
<event>
 4    1  0.3664744E+003  0.4202654E+02  0.7546771E-02  0.1337003E+00
          2   -1    0    0  502    0  0.00000000000E+00  0.00000000000E+00  0.25171766521E+02  0.25171766521E+02  0.00000000000E+00 0.  1.
          1   -1    0    0  501    0 -0.00000000000E+00 -0.00000000000E+00 -0.54093121773E+03  0.54093121773E+03  0.00000000000E+00 0.  1.
          2    1    1    2  501    0  0.30491308187E+02  0.28922491434E+02  0.61763062473E+01  0.42477960693E+02  0.00000000000E+00 0.  1.
          1    1    1    2  502    0 -0.30491308187E+02 -0.28922491434E+02 -0.52193575745E+03  0.52362502356E+03  0.00000000000E+00 0.  1.
</event>
<event>
 4    1  0.3664744E+003  0.2112045E+02  0.7546771E-02  0.1517552E+00
          2   -1    0    0  502    0  0.00000000000E+00  0.00000000000E+00  0.57642825168E+01  0.57642825168E+01  0.00000000000E+00 0. -1.
          1   -1    0    0  501    0 -0.00000000000E+00 -0.00000000000E+00 -0.26673132251E+03  0.26673132251E+03  0.00000000000E+00 0. -1.
          2    1    1    2  501    0  0.14684362995E+02 -0.15180344146E+02 -0.15689288038E+02  0.26310209503E+02  0.00000000000E+00 0. -1.
          1    1    1    2  502    0 -0.14684362995E+02  0.15180344146E+02 -0.24527775195E+03  0.24618539552E+03  0.00000000000E+00 0. -1.
</event>
<event>
 4    1  0.3664744E+003  0.3088052E+02  0.7546771E-02  0.1412096E+00
          2   -1    0    0  502    0  0.00000000000E+00  0.00000000000E+00  0.86627142965E+03  0.86627142965E+03  0.00000000000E+00 0.  1.
          1   -1    0    0  501    0 -0.00000000000E+00 -0.00000000000E+00 -0.17893726398E+01  0.17893726398E+01  0.00000000000E+00 0. -1.
          2    1    1    2  501    0 -0.15774798026E+02 -0.26547356168E+02  0.70148082495E+03  0.70216020546E+03  0.00000000000E+00 0.  1.
          1    1    1    2  502    0  0.15774798026E+02  0.26547356168E+02  0.16300123206E+03  0.16590059682E+03  0.00000000000E+00 0. -1.
</event>
<event>
 4    1  0.3664744E+003  0.2483477E+02  0.7546771E-02  0.1470660E+00
          2   -1    0    0  502    0  0.00000000000E+00  0.00000000000E+00  0.50409070650E+01  0.50409070650E+01  0.00000000000E+00 0. -1.
          1   -1    0    0  501    0 -0.00000000000E+00 -0.00000000000E+00 -0.47151375604E+03  0.47151375604E+03  0.00000000000E+00 0. -1.
          2    1    1    2  501    0  0.20988156952E+02  0.13276405940E+02 -0.28191604896E+02  0.37570364299E+02  0.00000000000E+00 0. -1.
          1    1    1    2  502    0 -0.20988156952E+02 -0.13276405940E+02 -0.43828124408E+03  0.43898429880E+03  0.00000000000E+00 0. -1.
</event>
<event>
 4    1  0.3664744E+003  0.2000604E+02  0.7546771E-02  0.1533943E+00
          2   -1    0    0  502    0  0.00000000000E+00  0.00000000000E+00  0.14608125015E+03  0.14608125015E+03  0.00000000000E+00 0. -1.
          1   -1    0    0  501    0 -0.00000000000E+00 -0.00000000000E+00 -0.54786006753E+02  0.54786006753E+02  0.00000000000E+00 0. -1.
          2    1    1    2  501    0  0.13000653785E+02 -0.15206067488E+02  0.14353769199E+03  0.14492518935E+03  0.00000000000E+00 0. -1.
          1    1    1    2  502    0 -0.13000653785E+02  0.15206067488E+02 -0.52242448590E+02  0.55942067552E+02  0.00000000000E+00 0. -1.
</event>
<event>
 4    1  0.3664744E+003  0.2273969E+02  0.7546771E-02  0.1495793E+00
          2   -1    0    0  502    0  0.00000000000E+00  0.00000000000E+00  0.11920423878E+04  0.11920423878E+04  0.00000000000E+00 0. -1.
          1   -1    0    0  501    0 -0.00000000000E+00 -0.00000000000E+00 -0.27823446913E+02  0.27823446913E+02  0.00000000000E+00 0.  1.
          2    1    1    2  501    0 -0.20359859521E+02 -0.10127672540E+02  0.11872690589E+04  0.11874868049E+04  0.00000000000E+00 0. -1.
          1    1    1    2  502    0  0.20359859521E+02  0.10127672540E+02 -0.23050118007E+02  0.32379029802E+02  0.00000000000E+00 0.  1.
</event>
<event>
 4    1  0.3664744E+003  0.3277764E+02  0.7546771E-02  0.1396898E+00
          2   -1    0    0  502    0  0.00000000000E+00  0.00000000000E+00  0.18012137813E+03  0.18012137813E+03  0.00000000000E+00 0. -1.
          1   -1    0    0  501    0 -0.00000000000E+00 -0.00000000000E+00 -0.59649696146E+01  0.59649696146E+01  0.00000000000E+00 0. -1.
          2    1    1    2  501    0  0.25579636798E+02 -0.20495244653E+02  0.86471553296E+02  0.92475415119E+02  0.00000000000E+00 0. -1.
          1    1    1    2  502    0 -0.25579636798E+02  0.20495244653E+02  0.87684855222E+02  0.93610932627E+02  0.00000000000E+00 0. -1.
</event>
<event>
 4    1  0.3664744E+003  0.2044820E+02  0.7546771E-02  0.1527291E+00
          2   -1    0    0  502    0  0.00000000000E+00  0.00000000000E+00  0.44288388824E+02  0.44288388824E+02  0.00000000000E+00 0.  1.
          1   -1    0    0  501    0 -0.00000000000E+00 -0.00000000000E+00 -0.82497291406E+02  0.82497291406E+02  0.00000000000E+00 0. -1.
          2    1    1    2  501    0  0.17853990105E+02 -0.99681519015E+01  0.40550846608E+02  0.45414757245E+02  0.00000000000E+00 0.  1.
          1    1    1    2  502    0 -0.17853990105E+02  0.99681519015E+01 -0.78759749190E+02  0.81370922985E+02  0.00000000000E+00 0. -1.
</event>
<event>
 4    1  0.3664744E+003  0.7763862E+02  0.7546771E-02  0.1209438E+00
          2   -1    0    0  502    0  0.00000000000E+00  0.00000000000E+00  0.18269546335E+04  0.18269546335E+04  0.00000000000E+00 0. -1.
          1   -1    0    0  501    0 -0.00000000000E+00 -0.00000000000E+00 -0.11301358461E+02  0.11301358461E+02  0.00000000000E+00 0. -1.
          2    1    1    2  501    0  0.54873908343E+02  0.54923666762E+02  0.16812375370E+04  0.16830292365E+04  0.00000000000E+00 0. -1.
          1    1    1    2  502    0 -0.54873908343E+02 -0.54923666762E+02  0.13441573801E+03  0.15522675547E+03  0.00000000000E+00 0. -1.
</event>
<event>
 4    1  0.3664744E+003  0.3177481E+02  0.7546771E-02  0.1404776E+00
          2   -1    0    0  502    0  0.00000000000E+00  0.00000000000E+00  0.34783531127E+03  0.34783531127E+03  0.00000000000E+00 0.  1.
          1   -1    0    0  501    0 -0.00000000000E+00 -0.00000000000E+00 -0.10367869780E+02  0.10367869780E+02  0.00000000000E+00 0. -1.
          2    1    1    2  501    0 -0.57483212944E+01 -0.31250524378E+02  0.32071022510E+03  0.32228044768E+03  0.00000000000E+00 0.  1.
          1    1    1    2  502    0  0.57483212944E+01  0.31250524378E+02  0.16757216386E+02  0.35922733368E+02  0.00000000000E+00 0. -1.
</event>
<event>
 4    1  0.3664744E+003  0.2814031E+02  0.7546771E-02  0.1436478E+00
          2   -1    0    0  502    0  0.00000000000E+00  0.00000000000E+00  0.39483097544E+01  0.39483097544E+01  0.00000000000E+00 0. -1.
          1   -1    0    0  501    0 -0.00000000000E+00 -0.00000000000E+00 -0.77309980308E+03  0.77309980308E+03  0.00000000000E+00 0.  1.
          2    1    1    2  501    0  0.21475057349E+02 -0.18185130329E+02 -0.50224777601E+02  0.57570872308E+02  0.00000000000E+00 0. -1.
          1    1    1    2  502    0 -0.21475057349E+02  0.18185130329E+02 -0.71892671572E+03  0.71947724052E+03  0.00000000000E+00 0.  1.
</event>
<event>
 4    1  0.3664744E+003  0.3077176E+02  0.7546771E-02  0.1413006E+00
          2   -1    0    0  502    0  0.00000000000E+00  0.00000000000E+00  0.44961060188E+02  0.44961060188E+02  0.00000000000E+00 0.  1.
          1   -1    0    0  501    0 -0.00000000000E+00 -0.00000000000E+00 -0.21060475725E+02  0.21060475725E+02  0.00000000000E+00 0.  1.
          2    1    1    2  501    0 -0.25538494147E+02  0.17166431536E+02  0.11967645414E+02  0.33017050016E+02  0.00000000000E+00 0.  1.
          1    1    1    2  502    0  0.25538494147E+02 -0.17166431536E+02  0.11932939050E+02  0.33004485898E+02  0.00000000000E+00 0.  1.
</event>
<event>
 4    1  0.3664744E+003  0.2804787E+02  0.7546771E-02  0.1437357E+00
          2   -1    0    0  502    0  0.00000000000E+00  0.00000000000E+00  0.10313745433E+02  0.10313745433E+02  0.00000000000E+00 0.  1.
          1   -1    0    0  501    0 -0.00000000000E+00 -0.00000000000E+00 -0.10954315863E+04  0.10954315863E+04  0.00000000000E+00 0. -1.
          2    1    1    2  501    0 -0.27862133171E+02  0.32224661304E+01 -0.92818515449E+01  0.29543789887E+02  0.00000000000E+00 0.  1.
          1    1    1    2  502    0  0.27862133171E+02 -0.32224661304E+01 -0.10758359893E+04  0.10762015418E+04  0.00000000000E+00 0. -1.
</event>
<event>
 4    1  0.3664744E+003  0.2392705E+02  0.7546771E-02  0.1481174E+00
          2   -1    0    0  502    0  0.00000000000E+00  0.00000000000E+00  0.18117895397E+03  0.18117895397E+03  0.00000000000E+00 0. -1.
          1   -1    0    0  501    0 -0.00000000000E+00 -0.00000000000E+00 -0.13077367091E+03  0.13077367091E+03  0.00000000000E+00 0.  1.
          2    1    1    2  501    0 -0.19431158887E+02  0.13961872354E+02  0.17928300549E+03  0.18087260675E+03  0.00000000000E+00 0. -1.
          1    1    1    2  502    0  0.19431158887E+02 -0.13961872354E+02 -0.12887772243E+03  0.13108001814E+03  0.00000000000E+00 0.  1.
</event>
<event>
 4    1  0.3664744E+003  0.2777327E+02  0.7546771E-02  0.1439991E+00
          2   -1    0    0  502    0  0.00000000000E+00  0.00000000000E+00  0.19076458925E+03  0.19076458925E+03  0.00000000000E+00 0.  1.
          1   -1    0    0  501    0 -0.00000000000E+00 -0.00000000000E+00 -0.88127478923E+03  0.88127478923E+03  0.00000000000E+00 0. -1.
          2    1    1    2  501    0  0.27734247843E+02 -0.14717521297E+01  0.18953348535E+03  0.19155755434E+03  0.00000000000E+00 0.  1.
          1    1    1    2  502    0 -0.27734247843E+02  0.14717521297E+01 -0.88004368533E+03  0.88048182414E+03  0.00000000000E+00 0. -1.
</event>
<event>
 4    1  0.3664744E+003  0.3119529E+02  0.7546771E-02  0.1409486E+00
          2   -1    0    0  502    0  0.00000000000E+00  0.00000000000E+00  0.36668151788E+04  0.36668151788E+04  0.00000000000E+00 0.  1.
          1   -1    0    0  501    0 -0.00000000000E+00 -0.00000000000E+00 -0.26541092305E+00  0.26541092305E+00  0.00000000000E+00 0.  1.
          2    1    1    2  501    0 -0.16470586901E+02  0.26492755393E+02  0.18484290628E+04  0.18486922801E+04  0.00000000000E+00 0.  1.
          1    1    1    2  502    0  0.16470586901E+02 -0.26492755393E+02  0.18181207050E+04  0.18183883096E+04  0.00000000000E+00 0.  1.
</event>
<event>
 4    1  0.3664744E+003  0.2081288E+02  0.7546771E-02  0.1521953E+00
          2   -1    0    0  502    0  0.00000000000E+00  0.00000000000E+00  0.46286381536E+03  0.46286381536E+03  0.00000000000E+00 0. -1.
          1   -1    0    0  501    0 -0.00000000000E+00 -0.00000000000E+00 -0.13086536623E+02  0.13086536623E+02  0.00000000000E+00 0.  1.
          2    1    1    2  501    0  0.18051806646E+02  0.10358972345E+02  0.45419680173E+03  0.45467341107E+03  0.00000000000E+00 0. -1.
          1    1    1    2  502    0 -0.18051806646E+02 -0.10358972345E+02 -0.44195229923E+01  0.21276940915E+02  0.00000000000E+00 0.  1.
</event>
<event>
 4    1  0.3664744E+003  0.2113311E+02  0.7546771E-02  0.1517373E+00
          2   -1    0    0  502    0  0.00000000000E+00  0.00000000000E+00  0.25606534129E+02  0.25606534129E+02  0.00000000000E+00 0. -1.
          1   -1    0    0  501    0 -0.00000000000E+00 -0.00000000000E+00 -0.19101060271E+02  0.19101060271E+02  0.00000000000E+00 0. -1.
          2    1    1    2  501    0 -0.13721192781E+02 -0.16072867938E+02  0.98423622964E+01  0.23312664170E+02  0.00000000000E+00 0. -1.
          1    1    1    2  502    0  0.13721192781E+02  0.16072867938E+02 -0.33368884380E+01  0.21394930230E+02  0.00000000000E+00 0. -1.
</event>
<event>
 4    1  0.3664744E+003  0.2148687E+02  0.7546771E-02  0.1512426E+00
          2   -1    0    0  502    0  0.00000000000E+00  0.00000000000E+00  0.33580572201E+03  0.33580572201E+03  0.00000000000E+00 0. -1.
          1   -1    0    0  501    0 -0.00000000000E+00 -0.00000000000E+00 -0.29990697902E+01  0.29990697902E+01  0.00000000000E+00 0. -1.
          2    1    1    2  501    0 -0.15181984525E+02  0.15205031097E+02  0.29106915126E+03  0.29186115952E+03  0.00000000000E+00 0. -1.
          1    1    1    2  502    0  0.15181984525E+02 -0.15205031097E+02  0.41737500967E+02  0.46943632282E+02  0.00000000000E+00 0. -1.
</event>
<event>
 4    1  0.3664744E+003  0.2231552E+02  0.7546771E-02  0.1501277E+00
          2   -1    0    0  502    0  0.00000000000E+00  0.00000000000E+00  0.65532197674E+03  0.65532197674E+03  0.00000000000E+00 0. -1.
          1   -1    0    0  501    0 -0.00000000000E+00 -0.00000000000E+00 -0.11824057478E+02  0.11824057478E+02  0.00000000000E+00 0. -1.
          2    1    1    2  501    0  0.13444172931E+02  0.17811138714E+02  0.64442500305E+03  0.64481126464E+03  0.00000000000E+00 0. -1.
          1    1    1    2  502    0 -0.13444172931E+02 -0.17811138714E+02 -0.92708378274E+00  0.22334769585E+02  0.00000000000E+00 0. -1.
</event>
<event>
 4    1  0.3664744E+003  0.4287651E+02  0.7546771E-02  0.1332407E+00
          2   -1    0    0  502    0  0.00000000000E+00  0.00000000000E+00  0.49308531834E+03  0.49308531834E+03  0.00000000000E+00 0.  1.
          1   -1    0    0  501    0 -0.00000000000E+00 -0.00000000000E+00 -0.14306984133E+02  0.14306984133E+02  0.00000000000E+00 0.  1.
          2    1    1    2  501    0  0.36417033749E+02 -0.22631720717E+02  0.45753886173E+03  0.45954347468E+03  0.00000000000E+00 0.  1.
          1    1    1    2  502    0 -0.36417033749E+02  0.22631720717E+02  0.21239472474E+02  0.47848827787E+02  0.00000000000E+00 0.  1.
</event>
<event>
 4    1  0.3664744E+003  0.2122563E+02  0.7546771E-02  0.1516068E+00
          2   -1    0    0  502    0  0.00000000000E+00  0.00000000000E+00  0.14087071505E+04  0.14087071505E+04  0.00000000000E+00 0.  1.
          1   -1    0    0  501    0 -0.00000000000E+00 -0.00000000000E+00 -0.31488504516E+02  0.31488504516E+02  0.00000000000E+00 0.  1.
          2    1    1    2  501    0 -0.61705609521E+01 -0.20308904853E+02  0.14050409437E+04  0.14052012599E+04  0.00000000000E+00 0.  1.
          1    1    1    2  502    0  0.61705609521E+01  0.20308904853E+02 -0.27822297703E+02  0.34994395098E+02  0.00000000000E+00 0.  1.
</event>
<event>
 4    1  0.3664744E+003  0.2269572E+02  0.7546771E-02  0.1496355E+00
          2   -1    0    0  502    0  0.00000000000E+00  0.00000000000E+00  0.12207605872E+02  0.12207605872E+02  0.00000000000E+00 0.  1.
          1   -1    0    0  501    0 -0.00000000000E+00 -0.00000000000E+00 -0.11571338440E+04  0.11571338440E+04  0.00000000000E+00 0. -1.
          2    1    1    2  501    0  0.11602325346E+02 -0.19505935891E+02  0.14486685096E+01  0.22741902490E+02  0.00000000000E+00 0.  1.
          1    1    1    2  502    0 -0.11602325346E+02  0.19505935891E+02 -0.11463749066E+04  0.11465995474E+04  0.00000000000E+00 0. -1.
</event>
<event>
 4    1  0.3664744E+003  0.2630291E+02  0.7546771E-02  0.1454739E+00
          2   -1    0    0  502    0  0.00000000000E+00  0.00000000000E+00  0.43502873853E+03  0.43502873853E+03  0.00000000000E+00 0.  1.
          1   -1    0    0  501    0 -0.00000000000E+00 -0.00000000000E+00 -0.26715746071E+02  0.26715746071E+02  0.00000000000E+00 0.  1.
          2    1    1    2  501    0  0.13770660495E+02 -0.22410083598E+02  0.42805161502E+03  0.42885898388E+03  0.00000000000E+00 0.  1.
          1    1    1    2  502    0 -0.13770660495E+02  0.22410083598E+02 -0.19738622556E+02  0.32885500722E+02  0.00000000000E+00 0.  1.
</event>
<event>
 4    1  0.3664744E+003  0.2304745E+02  0.7546771E-02  0.1491903E+00
          2   -1    0    0  502    0  0.00000000000E+00  0.00000000000E+00  0.52978213433E+01  0.52978213433E+01  0.00000000000E+00 0.  1.
          1   -1    0    0  501    0 -0.00000000000E+00 -0.00000000000E+00 -0.51669837224E+03  0.51669837224E+03  0.00000000000E+00 0.  1.
          2    1    1    2  501    0  0.16845979315E+02  0.15728891300E+02 -0.21389826197E+02  0.31443754632E+02  0.00000000000E+00 0.  1.
          1    1    1    2  502    0 -0.16845979315E+02 -0.15728891300E+02 -0.49001072470E+03  0.49055243895E+03  0.00000000000E+00 0.  1.
</event>
<event>
 4    1  0.3664744E+003  0.2479127E+02  0.7546771E-02  0.1471152E+00
          2   -1    0    0  502    0  0.00000000000E+00  0.00000000000E+00  0.14922033347E+03  0.14922033347E+03  0.00000000000E+00 0.  1.
          1   -1    0    0  501    0 -0.00000000000E+00 -0.00000000000E+00 -0.55072921035E+03  0.55072921035E+03  0.00000000000E+00 0. -1.
          2    1    1    2  501    0 -0.23270220253E+02  0.85500852307E+01  0.14790918313E+03  0.14997244268E+03  0.00000000000E+00 0.  1.
          1    1    1    2  502    0  0.23270220253E+02 -0.85500852307E+01 -0.54941806001E+03  0.54997710114E+03  0.00000000000E+00 0. -1.
</event>
<event>
 4    1  0.3664744E+003  0.3484319E+02  0.7546771E-02  0.1381669E+00
          2   -1    0    0  502    0  0.00000000000E+00  0.00000000000E+00  0.23695430531E+02  0.23695430531E+02  0.00000000000E+00 0. -1.
          1   -1    0    0  501    0 -0.00000000000E+00 -0.00000000000E+00 -0.36063430367E+03  0.36063430367E+03  0.00000000000E+00 0.  1.
          2    1    1    2  501    0  0.26556957695E+02 -0.22556066255E+02  0.95222675629E+01  0.36120931695E+02  0.00000000000E+00 0. -1.
          1    1    1    2  502    0 -0.26556957695E+02  0.22556066255E+02 -0.34646114070E+03  0.34820880250E+03  0.00000000000E+00 0.  1.
</event>
<event>
 4    1  0.3664744E+003  0.2324299E+02  0.7546771E-02  0.1489469E+00
          2   -1    0    0  502    0  0.00000000000E+00  0.00000000000E+00  0.12890400848E+03  0.12890400848E+03  0.00000000000E+00 0.  1.
          1   -1    0    0  501    0 -0.00000000000E+00 -0.00000000000E+00 -0.23820338740E+02  0.23820338740E+02  0.00000000000E+00 0. -1.
          2    1    1    2  501    0  0.96816473391E+01 -0.21130600298E+02  0.12186161264E+03  0.12405841043E+03  0.00000000000E+00 0.  1.
          1    1    1    2  502    0 -0.96816473391E+01  0.21130600298E+02 -0.16777942897E+02  0.28665936789E+02  0.00000000000E+00 0. -1.
</event>
<event>
 4    1  0.3664744E+003  0.2456281E+02  0.7546771E-02  0.1473754E+00
          2   -1    0    0  502    0  0.00000000000E+00  0.00000000000E+00  0.12521697505E+04  0.12521697505E+04  0.00000000000E+00 0. -1.
          1   -1    0    0  501    0 -0.00000000000E+00 -0.00000000000E+00 -0.90641046010E+01  0.90641046010E+01  0.00000000000E+00 0.  1.
          2    1    1    2  501    0  0.12693774455E+02 -0.21028539813E+02  0.12351797435E+04  0.12354239476E+04  0.00000000000E+00 0. -1.
          1    1    1    2  502    0 -0.12693774455E+02  0.21028539813E+02  0.79259023151E+01  0.25809907480E+02  0.00000000000E+00 0.  1.
</event>
<event>
 4    1  0.3664744E+003  0.2078046E+02  0.7546771E-02  0.1522423E+00
          2   -1    0    0  502    0  0.00000000000E+00  0.00000000000E+00  0.49799038263E+03  0.49799038263E+03  0.00000000000E+00 0.  1.
          1   -1    0    0  501    0 -0.00000000000E+00 -0.00000000000E+00 -0.32219204763E+01  0.32219204763E+01  0.00000000000E+00 0. -1.
          2    1    1    2  501    0 -0.14972804090E+02 -0.14409814461E+02  0.46162863579E+03  0.46209612095E+03  0.00000000000E+00 0.  1.
          1    1    1    2  502    0  0.14972804090E+02  0.14409814461E+02  0.33139826362E+02  0.39116182156E+02  0.00000000000E+00 0. -1.
</event>
<event>
 4    1  0.3664744E+003  0.2063555E+02  0.7546771E-02  0.1524532E+00
          2   -1    0    0  502    0  0.00000000000E+00  0.00000000000E+00  0.15533133937E+04  0.15533133937E+04  0.00000000000E+00 0. -1.
          1   -1    0    0  501    0 -0.00000000000E+00 -0.00000000000E+00 -0.27707229410E+00  0.27707229410E+00  0.00000000000E+00 0. -1.
          2    1    1    2  501    0 -0.18477831960E+02  0.91866860047E+01  0.69660706358E+03  0.69691263908E+03  0.00000000000E+00 0. -1.
          1    1    1    2  502    0  0.18477831960E+02 -0.91866860047E+01  0.85642925783E+03  0.85667782692E+03  0.00000000000E+00 0. -1.
</event>
<event>
 4    1  0.3664744E+003  0.2819242E+02  0.7546771E-02  0.1435984E+00
          2   -1    0    0  502    0  0.00000000000E+00  0.00000000000E+00  0.19278778487E+03  0.19278778487E+03  0.00000000000E+00 0.  1.
          1   -1    0    0  501    0 -0.00000000000E+00 -0.00000000000E+00 -0.10074514443E+02  0.10074514443E+02  0.00000000000E+00 0.  1.
          2    1    1    2  501    0 -0.17199722996E+02 -0.22337908462E+02  0.16931859749E+03  0.17164964341E+03  0.00000000000E+00 0.  1.
          1    1    1    2  502    0  0.17199722996E+02  0.22337908462E+02  0.13394672936E+02  0.31212655905E+02  0.00000000000E+00 0.  1.
</event>
<event>
 4    1  0.3664744E+003  0.2557281E+02  0.7546771E-02  0.1462496E+00
          2   -1    0    0  502    0  0.00000000000E+00  0.00000000000E+00  0.26949346013E+03  0.26949346013E+03  0.00000000000E+00 0.  1.
          1   -1    0    0  501    0 -0.00000000000E+00 -0.00000000000E+00 -0.47243182216E+01  0.47243182216E+01  0.00000000000E+00 0. -1.
          2    1    1    2  501    0  0.23702510485E+02  0.95999855200E+01  0.22800239378E+03  0.22943203851E+03  0.00000000000E+00 0.  1.
          1    1    1    2  502    0 -0.23702510485E+02 -0.95999855200E+01  0.36766748131E+02  0.44785739845E+02  0.00000000000E+00 0. -1.
</event>
<event>
 4    1  0.3664744E+003  0.2121907E+02  0.7546771E-02  0.1516160E+00
          2   -1    0    0  502    0  0.00000000000E+00  0.00000000000E+00  0.19576364749E+02  0.19576364749E+02  0.00000000000E+00 0.  1.
          1   -1    0    0  501    0 -0.00000000000E+00 -0.00000000000E+00 -0.13943286101E+04  0.13943286101E+04  0.00000000000E+00 0. -1.
          2    1    1    2  501    0 -0.18663788717E+02 -0.10095137038E+02  0.13721488440E+02  0.25269112491E+02  0.00000000000E+00 0.  1.
          1    1    1    2  502    0  0.18663788717E+02  0.10095137038E+02 -0.13884737338E+04  0.13886358624E+04  0.00000000000E+00 0. -1.
</event>
<event>
 4    1  0.3664744E+003  0.2130931E+02  0.7546771E-02  0.1514894E+00
          2   -1    0    0  502    0  0.00000000000E+00  0.00000000000E+00  0.15918912199E+03  0.15918912199E+03  0.00000000000E+00 0.  1.
          1   -1    0    0  501    0 -0.00000000000E+00 -0.00000000000E+00 -0.24084400942E+03  0.24084400942E+03  0.00000000000E+00 0. -1.
          2    1    1    2  501    0  0.15025542296E+01  0.21256270402E+02  0.15800111995E+03  0.15943161734E+03  0.00000000000E+00 0.  1.
          1    1    1    2  502    0 -0.15025542296E+01 -0.21256270402E+02 -0.23965600738E+03  0.24060151407E+03  0.00000000000E+00 0. -1.
</event>
<event>
 4    1  0.3664744E+003  0.2310790E+02  0.7546771E-02  0.1491148E+00
          2   -1    0    0  502    0  0.00000000000E+00  0.00000000000E+00  0.72674676372E+01  0.72674676372E+01  0.00000000000E+00 0. -1.
          1   -1    0    0  501    0 -0.00000000000E+00 -0.00000000000E+00 -0.93627766502E+03  0.93627766502E+03  0.00000000000E+00 0. -1.
          2    1    1    2  501    0 -0.12941391583E+02 -0.19144076143E+02 -0.11621954928E+02  0.25865906205E+02  0.00000000000E+00 0. -1.
          1    1    1    2  502    0  0.12941391583E+02  0.19144076143E+02 -0.91738824246E+03  0.91767922646E+03  0.00000000000E+00 0. -1.
</event>
<event>
 4    1  0.3664744E+003  0.5710081E+02  0.7546771E-02  0.1270014E+00
          2   -1    0    0  502    0  0.00000000000E+00  0.00000000000E+00  0.29902089148E+02  0.29902089148E+02  0.00000000000E+00 0.  1.
          1   -1    0    0  501    0 -0.00000000000E+00 -0.00000000000E+00 -0.83370538434E+03  0.83370538434E+03  0.00000000000E+00 0. -1.
          2    1    1    2  501    0 -0.53995410929E+02  0.18574132807E+02  0.67544748908E+00  0.57104807506E+02  0.00000000000E+00 0.  1.
          1    1    1    2  502    0  0.53995410929E+02 -0.18574132807E+02 -0.80447874268E+03  0.80650266598E+03  0.00000000000E+00 0. -1.
</event>
<event>
 4    1  0.3664744E+003  0.2439900E+02  0.7546771E-02  0.1475640E+00
          2   -1    0    0  502    0  0.00000000000E+00  0.00000000000E+00  0.38144371941E+03  0.38144371941E+03  0.00000000000E+00 0.  1.
          1   -1    0    0  501    0 -0.00000000000E+00 -0.00000000000E+00 -0.17013642157E+01  0.17013642157E+01  0.00000000000E+00 0. -1.
          2    1    1    2  501    0  0.20634125466E+02 -0.13020902192E+02  0.24495950072E+03  0.24617162310E+03  0.00000000000E+00 0.  1.
          1    1    1    2  502    0 -0.20634125466E+02  0.13020902192E+02  0.13478285447E+03  0.13697346052E+03  0.00000000000E+00 0. -1.
</event>
<event>
 4    1  0.3664744E+003  0.8985490E+02  0.7546771E-02  0.1182653E+00
          2   -1    0    0  502    0  0.00000000000E+00  0.00000000000E+00  0.11208344222E+02  0.11208344222E+02  0.00000000000E+00 0.  1.
          1   -1    0    0  501    0 -0.00000000000E+00 -0.00000000000E+00 -0.11619833698E+04  0.11619833698E+04  0.00000000000E+00 0. -1.
          2    1    1    2  501    0 -0.19983410102E+02  0.87604606358E+02 -0.21375192553E+03  0.23187019947E+03  0.00000000000E+00 0.  1.
          1    1    1    2  502    0  0.19983410102E+02 -0.87604606358E+02 -0.93702310006E+03  0.94132151456E+03  0.00000000000E+00 0. -1.
</event>
<event>
 4    1  0.3664744E+003  0.5643729E+02  0.7546771E-02  0.1272443E+00
          2   -1    0    0  502    0  0.00000000000E+00  0.00000000000E+00  0.49782081082E+03  0.49782081082E+03  0.00000000000E+00 0. -1.
          1   -1    0    0  501    0 -0.00000000000E+00 -0.00000000000E+00 -0.48804206133E+03  0.48804206133E+03  0.00000000000E+00 0. -1.
          2    1    1    2  501    0 -0.47418938283E+02  0.30604123886E+02  0.49457898986E+03  0.49778865528E+03  0.00000000000E+00 0. -1.
          1    1    1    2  502    0  0.47418938283E+02 -0.30604123886E+02 -0.48480024037E+03  0.48807421687E+03  0.00000000000E+00 0. -1.
</event>
<event>
 4    1  0.3664744E+003  0.2245975E+02  0.7546771E-02  0.1499396E+00
          2   -1    0    0  502    0  0.00000000000E+00  0.00000000000E+00  0.47694525216E+01  0.47694525216E+01  0.00000000000E+00 0. -1.
          1   -1    0    0  501    0 -0.00000000000E+00 -0.00000000000E+00 -0.10780738270E+03  0.10780738270E+03  0.00000000000E+00 0. -1.
          2    1    1    2  501    0 -0.22439111500E+02  0.96254146730E+00 -0.43771061789E+02  0.49197012725E+02  0.00000000000E+00 0. -1.
          1    1    1    2  502    0  0.22439111500E+02 -0.96254146730E+00 -0.59266868393E+02  0.63379822500E+02  0.00000000000E+00 0. -1.
</event>
<event>
 4    1  0.3664744E+003  0.2121950E+02  0.7546771E-02  0.1516154E+00
          2   -1    0    0  502    0  0.00000000000E+00  0.00000000000E+00  0.10797097511E+04  0.10797097511E+04  0.00000000000E+00 0.  1.
          1   -1    0    0  501    0 -0.00000000000E+00 -0.00000000000E+00 -0.27086512490E+01  0.27086512490E+01  0.00000000000E+00 0.  1.
          2    1    1    2  501    0  0.20768483163E+02  0.43517189303E+01  0.10363068606E+04  0.10365240839E+04  0.00000000000E+00 0.  1.
          1    1    1    2  502    0 -0.20768483163E+02 -0.43517189303E+01  0.40694239300E+02  0.45894318415E+02  0.00000000000E+00 0.  1.
</event>
<event>
 4    1  0.3664744E+003  0.2077370E+02  0.7546771E-02  0.1522520E+00
          2   -1    0    0  502    0  0.00000000000E+00  0.00000000000E+00  0.54321720401E+01  0.54321720401E+01  0.00000000000E+00 0.  1.
          1   -1    0    0  501    0 -0.00000000000E+00 -0.00000000000E+00 -0.89159330121E+02  0.89159330121E+02  0.00000000000E+00 0. -1.
          2    1    1    2  501    0 -0.16469513305E+02 -0.12661036435E+02 -0.26250256328E+02  0.33475702672E+02  0.00000000000E+00 0.  1.
          1    1    1    2  502    0  0.16469513305E+02  0.12661036435E+02 -0.57476901752E+02  0.61115799489E+02  0.00000000000E+00 0. -1.
</event>
<event>
 4    1  0.3664744E+003  0.2163768E+02  0.7546771E-02  0.1510352E+00
          2   -1    0    0  502    0  0.00000000000E+00  0.00000000000E+00  0.74803351135E+01  0.74803351135E+01  0.00000000000E+00 0.  1.
          1   -1    0    0  501    0 -0.00000000000E+00 -0.00000000000E+00 -0.69379530173E+02  0.69379530173E+02  0.00000000000E+00 0.  1.
          2    1    1    2  501    0  0.82960956893E+01  0.19984077451E+02 -0.42972181873E+02  0.48112336985E+02  0.00000000000E+00 0.  1.
          1    1    1    2  502    0 -0.82960956893E+01 -0.19984077451E+02 -0.18927013186E+02  0.28747528301E+02  0.00000000000E+00 0.  1.
</event>
<event>
 4    1  0.3664744E+003  0.2916736E+02  0.7546771E-02  0.1426973E+00
          2   -1    0    0  502    0  0.00000000000E+00  0.00000000000E+00  0.18083806859E+02  0.18083806859E+02  0.00000000000E+00 0.  1.
          1   -1    0    0  501    0 -0.00000000000E+00 -0.00000000000E+00 -0.15374201377E+03  0.15374201377E+03  0.00000000000E+00 0. -1.
          2    1    1    2  501    0 -0.70413193055E+01  0.28304672770E+02  0.37424276773E+01  0.29406469409E+02  0.00000000000E+00 0.  1.
          1    1    1    2  502    0  0.70413193055E+01 -0.28304672770E+02 -0.13940063459E+03  0.14241935122E+03  0.00000000000E+00 0. -1.
</event>
<event>
 4    1  0.3664744E+003  0.2947514E+02  0.7546771E-02  0.1424213E+00
          2   -1    0    0  502    0  0.00000000000E+00  0.00000000000E+00  0.22072514755E+01  0.22072514755E+01  0.00000000000E+00 0. -1.
          1   -1    0    0  501    0 -0.00000000000E+00 -0.00000000000E+00 -0.16023741474E+04  0.16023741474E+04  0.00000000000E+00 0. -1.
          2    1    1    2  501    0 -0.15961366497E+02 -0.24779398251E+02 -0.10326186839E+03  0.10738620610E+03  0.00000000000E+00 0. -1.
          1    1    1    2  502    0  0.15961366497E+02  0.24779398251E+02 -0.14969050276E+04  0.14971951928E+04  0.00000000000E+00 0. -1.
</event>
<event>
 4    1  0.3664744E+003  0.5850865E+02  0.7546771E-02  0.1264986E+00
          2   -1    0    0  502    0  0.00000000000E+00  0.00000000000E+00  0.19990955355E+04  0.19990955355E+04  0.00000000000E+00 0.  1.
          1   -1    0    0  501    0 -0.00000000000E+00 -0.00000000000E+00 -0.29932347867E+02  0.29932347867E+02  0.00000000000E+00 0. -1.
          2    1    1    2  501    0 -0.49930397455E+02 -0.30499467774E+02  0.19696484097E+04  0.19705172214E+04  0.00000000000E+00 0.  1.
          1    1    1    2  502    0  0.49930397455E+02  0.30499467774E+02 -0.48522202531E+00  0.58510661977E+02  0.00000000000E+00 0. -1.
</event>
<event>
 4    1  0.3664744E+003  0.2945256E+02  0.7546771E-02  0.1424414E+00
          2   -1    0    0  502    0  0.00000000000E+00  0.00000000000E+00  0.59741090191E+03  0.59741090191E+03  0.00000000000E+00 0.  1.
          1   -1    0    0  501    0 -0.00000000000E+00 -0.00000000000E+00 -0.71161655026E+02  0.71161655026E+02  0.00000000000E+00 0. -1.
          2    1    1    2  501    0 -0.28669969950E+02 -0.67443271384E+01  0.59398284575E+03  0.59471259796E+03  0.00000000000E+00 0.  1.
          1    1    1    2  502    0  0.28669969950E+02  0.67443271384E+01 -0.67733598864E+02  0.73859958980E+02  0.00000000000E+00 0. -1.
</event>
<event>
 4    1  0.3664744E+003  0.5958428E+02  0.7546771E-02  0.1261252E+00
          2   -1    0    0  502    0  0.00000000000E+00  0.00000000000E+00  0.62792721996E+03  0.62792721996E+03  0.00000000000E+00 0.  1.
          1   -1    0    0  501    0 -0.00000000000E+00 -0.00000000000E+00 -0.34406790421E+02  0.34406790421E+02  0.00000000000E+00 0.  1.
          2    1    1    2  501    0 -0.74028257509E+01  0.59122624932E+02  0.59949696604E+03  0.60245074396E+03  0.00000000000E+00 0.  1.
          1    1    1    2  502    0  0.74028257509E+01 -0.59122624932E+02 -0.59765365060E+01  0.59883266415E+02  0.00000000000E+00 0.  1.
</event>
<event>
 4    1  0.3664744E+003  0.2127131E+02  0.7546771E-02  0.1515426E+00
          2   -1    0    0  502    0  0.00000000000E+00  0.00000000000E+00  0.60497978333E+02  0.60497978333E+02  0.00000000000E+00 0. -1.
          1   -1    0    0  501    0 -0.00000000000E+00 -0.00000000000E+00 -0.80880046546E+02  0.80880046546E+02  0.00000000000E+00 0. -1.
          2    1    1    2  501    0  0.14093153843E+02  0.15932728988E+02  0.57150363602E+02  0.60980594439E+02  0.00000000000E+00 0. -1.
          1    1    1    2  502    0 -0.14093153843E+02 -0.15932728988E+02 -0.77532431815E+02  0.80397430440E+02  0.00000000000E+00 0. -1.
</event>
<event>
 4    1  0.3664744E+003  0.4724121E+02  0.7546771E-02  0.1310598E+00
          2   -1    0    0  502    0  0.00000000000E+00  0.00000000000E+00  0.50049011383E+03  0.50049011383E+03  0.00000000000E+00 0.  1.
          1   -1    0    0  501    0 -0.00000000000E+00 -0.00000000000E+00 -0.52966397750E+03  0.52966397750E+03  0.00000000000E+00 0. -1.
          2    1    1    2  501    0 -0.45603141908E+02  0.12332305420E+02  0.49831738609E+03  0.50055164527E+03  0.00000000000E+00 0.  1.
          1    1    1    2  502    0  0.45603141908E+02 -0.12332305420E+02 -0.52749124975E+03  0.52960244606E+03  0.00000000000E+00 0. -1.
</event>
<event>
 4    1  0.3664744E+003  0.2348093E+02  0.7546771E-02  0.1486546E+00
          2   -1    0    0  502    0  0.00000000000E+00  0.00000000000E+00  0.22358331931E+03  0.22358331931E+03  0.00000000000E+00 0. -1.
          1   -1    0    0  501    0 -0.00000000000E+00 -0.00000000000E+00 -0.18511158911E+03  0.18511158911E+03  0.00000000000E+00 0. -1.
          2    1    1    2  501    0 -0.22471811851E+02 -0.68096888093E+01  0.22221763423E+03  0.22345476310E+03  0.00000000000E+00 0. -1.
          1    1    1    2  502    0  0.22471811851E+02  0.68096888093E+01 -0.18374590403E+03  0.18524014532E+03  0.00000000000E+00 0. -1.
</event>
<event>
 4    1  0.3664744E+003  0.3527937E+02  0.7546771E-02  0.1378610E+00
          2   -1    0    0  502    0  0.00000000000E+00  0.00000000000E+00  0.39504260519E+03  0.39504260519E+03  0.00000000000E+00 0.  1.
          1   -1    0    0  501    0 -0.00000000000E+00 -0.00000000000E+00 -0.32358772242E+01  0.32358772242E+01  0.00000000000E+00 0.  1.
          2    1    1    2  501    0 -0.29310267057E+02 -0.19635234897E+02  0.22822502892E+03  0.23093570107E+03  0.00000000000E+00 0.  1.
          1    1    1    2  502    0  0.29310267057E+02  0.19635234897E+02  0.16358169904E+03  0.16734278134E+03  0.00000000000E+00 0.  1.
</event>
<event>
 4    1  0.3664744E+003  0.3293054E+02  0.7546771E-02  0.1395726E+00
          2   -1    0    0  502    0  0.00000000000E+00  0.00000000000E+00  0.30517965934E+03  0.30517965934E+03  0.00000000000E+00 0. -1.
          1   -1    0    0  501    0 -0.00000000000E+00 -0.00000000000E+00 -0.32393062868E+03  0.32393062868E+03  0.00000000000E+00 0.  1.
          2    1    1    2  501    0  0.87977587829E+01  0.31733579033E+02  0.30344963229E+03  0.30523122372E+03  0.00000000000E+00 0. -1.
          1    1    1    2  502    0 -0.87977587829E+01 -0.31733579033E+02 -0.32220060163E+03  0.32387906429E+03  0.00000000000E+00 0.  1.
</event>
<event>
 4    1  0.3664744E+003  0.2689551E+02  0.7546771E-02  0.1448661E+00
          2   -1    0    0  502    0  0.00000000000E+00  0.00000000000E+00  0.67418345091E+02  0.67418345091E+02  0.00000000000E+00 0.  1.
          1   -1    0    0  501    0 -0.00000000000E+00 -0.00000000000E+00 -0.84066614987E+02  0.84066614987E+02  0.00000000000E+00 0.  1.
          2    1    1    2  501    0 -0.26720900044E+02  0.30597387225E+01  0.62419847397E+02  0.67967682389E+02  0.00000000000E+00 0.  1.
          1    1    1    2  502    0  0.26720900044E+02 -0.30597387225E+01 -0.79068117294E+02  0.83517277689E+02  0.00000000000E+00 0.  1.
</event>
<event>
 4    1  0.3664744E+003  0.2031777E+02  0.7546771E-02  0.1529232E+00
          2   -1    0    0  502    0  0.00000000000E+00  0.00000000000E+00  0.10530799098E+03  0.10530799098E+03  0.00000000000E+00 0.  1.
          1   -1    0    0  501    0 -0.00000000000E+00 -0.00000000000E+00 -0.62354505296E+02  0.62354505296E+02  0.00000000000E+00 0.  1.
          2    1    1    2  501    0  0.16944611593E+02  0.11211249451E+02  0.10263010832E+03  0.10462194373E+03  0.00000000000E+00 0.  1.
          1    1    1    2  502    0 -0.16944611593E+02 -0.11211249451E+02 -0.59676622634E+02  0.63040552546E+02  0.00000000000E+00 0.  1.
</event>
<event>
 4    1  0.3664744E+003  0.2717925E+02  0.7546771E-02  0.1445816E+00
          2   -1    0    0  502    0  0.00000000000E+00  0.00000000000E+00  0.62175372645E+03  0.62175372645E+03  0.00000000000E+00 0.  1.
          1   -1    0    0  501    0 -0.00000000000E+00 -0.00000000000E+00 -0.56666808756E+01  0.56666808756E+01  0.00000000000E+00 0.  1.
          2    1    1    2  501    0 -0.24019434470E+02  0.12719210225E+02  0.58693421125E+03  0.58756317097E+03  0.00000000000E+00 0.  1.
          1    1    1    2  502    0  0.24019434470E+02 -0.12719210225E+02  0.29152834324E+02  0.39857236358E+02  0.00000000000E+00 0.  1.
</event>
<event>
 4    1  0.3664744E+003  0.3138761E+02  0.7546771E-02  0.1407910E+00
          2   -1    0    0  502    0  0.00000000000E+00  0.00000000000E+00  0.52487879076E+01  0.52487879076E+01  0.00000000000E+00 0. -1.
          1   -1    0    0  501    0 -0.00000000000E+00 -0.00000000000E+00 -0.33601389856E+03  0.33601389856E+03  0.00000000000E+00 0.  1.
          2    1    1    2  501    0 -0.24274041524E+02  0.19898565851E+02 -0.52018484954E+02  0.60754463143E+02  0.00000000000E+00 0. -1.
          1    1    1    2  502    0  0.24274041524E+02 -0.19898565851E+02 -0.27874662570E+03  0.28050822332E+03  0.00000000000E+00 0.  1.
</event>
<event>
 4    1  0.3664744E+003  0.2111017E+02  0.7546771E-02  0.1517698E+00
          2   -1    0    0  502    0  0.00000000000E+00  0.00000000000E+00  0.35445619491E+01  0.35445619491E+01  0.00000000000E+00 0.  1.
          1   -1    0    0  501    0 -0.00000000000E+00 -0.00000000000E+00 -0.35176563297E+03  0.35176563297E+03  0.00000000000E+00 0.  1.
          2    1    1    2  501    0  0.20949800841E+02  0.25971282351E+01 -0.31699235996E+02  0.38085178128E+02  0.00000000000E+00 0.  1.
          1    1    1    2  502    0 -0.20949800841E+02 -0.25971282351E+01 -0.31652183502E+03  0.31722501679E+03  0.00000000000E+00 0.  1.
</event>
<event>
 4    1  0.3664744E+003  0.2890480E+02  0.7546771E-02  0.1429358E+00
          2   -1    0    0  502    0  0.00000000000E+00  0.00000000000E+00  0.25377571424E+03  0.25377571424E+03  0.00000000000E+00 0. -1.
          1   -1    0    0  501    0 -0.00000000000E+00 -0.00000000000E+00 -0.26701459751E+02  0.26701459751E+02  0.00000000000E+00 0.  1.
          2    1    1    2  501    0  0.24230559990E+02  0.15759669549E+02  0.24484586185E+03  0.24654610784E+03  0.00000000000E+00 0. -1.
          1    1    1    2  502    0 -0.24230559990E+02 -0.15759669549E+02 -0.17771607369E+02  0.33931066152E+02  0.00000000000E+00 0.  1.
</event>
<event>
 4    1  0.3664744E+003  0.2444836E+02  0.7546771E-02  0.1475070E+00
          2   -1    0    0  502    0  0.00000000000E+00  0.00000000000E+00  0.11610009549E+03  0.11610009549E+03  0.00000000000E+00 0. -1.
          1   -1    0    0  501    0 -0.00000000000E+00 -0.00000000000E+00 -0.42403696165E+03  0.42403696165E+03  0.00000000000E+00 0.  1.
          2    1    1    2  501    0 -0.46582315754E+01  0.24000479052E+02  0.11445560534E+03  0.11703763373E+03  0.00000000000E+00 0. -1.
          1    1    1    2  502    0  0.46582315754E+01 -0.24000479052E+02 -0.42239247150E+03  0.42309942341E+03  0.00000000000E+00 0.  1.
</event>
<event>
 4    1  0.3664744E+003  0.2175175E+02  0.7546771E-02  0.1508797E+00
          2   -1    0    0  502    0  0.00000000000E+00  0.00000000000E+00  0.70514331347E+01  0.70514331347E+01  0.00000000000E+00 0. -1.
          1   -1    0    0  501    0 -0.00000000000E+00 -0.00000000000E+00 -0.90729188584E+02  0.90729188584E+02  0.00000000000E+00 0. -1.
          2    1    1    2  501    0  0.19254197538E+02 -0.10119983161E+02 -0.66790029999E+02  0.70242766811E+02  0.00000000000E+00 0. -1.
          1    1    1    2  502    0 -0.19254197538E+02  0.10119983161E+02 -0.16887725450E+02  0.27537854908E+02  0.00000000000E+00 0. -1.
</event>
<event>
 4    1  0.3664744E+003  0.2090371E+02  0.7546771E-02  0.1520644E+00
          2   -1    0    0  502    0  0.00000000000E+00  0.00000000000E+00  0.12707373908E+04  0.12707373908E+04  0.00000000000E+00 0. -1.
          1   -1    0    0  501    0 -0.00000000000E+00 -0.00000000000E+00 -0.42251501722E+02  0.42251501722E+02  0.00000000000E+00 0. -1.
          2    1    1    2  501    0  0.32733841019E+01 -0.20645823868E+02  0.12680604659E+04  0.12682327509E+04  0.00000000000E+00 0. -1.
          1    1    1    2  502    0 -0.32733841019E+01  0.20645823868E+02 -0.39574576835E+02  0.44756141683E+02  0.00000000000E+00 0. -1.
</event>
<event>
 4    1  0.3664744E+003  0.2210371E+02  0.7546771E-02  0.1504070E+00
          2   -1    0    0  502    0  0.00000000000E+00  0.00000000000E+00  0.35543769113E+03  0.35543769113E+03  0.00000000000E+00 0.  1.
          1   -1    0    0  501    0 -0.00000000000E+00 -0.00000000000E+00 -0.15808061628E+02  0.15808061628E+02  0.00000000000E+00 0.  1.
          2    1    1    2  501    0 -0.22029235450E+02  0.18129211224E+01  0.34718388686E+03  0.34788679940E+03  0.00000000000E+00 0.  1.
          1    1    1    2  502    0  0.22029235450E+02 -0.18129211224E+01 -0.75542573660E+01  0.23358953355E+02  0.00000000000E+00 0.  1.
</event>
<event>
 4    1  0.3664744E+003  0.2548672E+02  0.7546771E-02  0.1463431E+00
          2   -1    0    0  502    0  0.00000000000E+00  0.00000000000E+00  0.16078311716E+02  0.16078311716E+02  0.00000000000E+00 0. -1.
          1   -1    0    0  501    0 -0.00000000000E+00 -0.00000000000E+00 -0.15716657253E+03  0.15716657253E+03  0.00000000000E+00 0. -1.
          2    1    1    2  501    0  0.22756527100E+02 -0.11476650672E+02  0.41194014109E+01  0.25817484468E+02  0.00000000000E+00 0. -1.
          1    1    1    2  502    0 -0.22756527100E+02  0.11476650672E+02 -0.14520766222E+03  0.14742739978E+03  0.00000000000E+00 0. -1.
</event>
<event>
 4    1  0.3664744E+003  0.2775295E+02  0.7546771E-02  0.1440188E+00
          2   -1    0    0  502    0  0.00000000000E+00  0.00000000000E+00  0.28461764788E+02  0.28461764788E+02  0.00000000000E+00 0.  1.
          1   -1    0    0  501    0 -0.00000000000E+00 -0.00000000000E+00 -0.81037615071E+02  0.81037615071E+02  0.00000000000E+00 0. -1.
          2    1    1    2  501    0  0.10581317909E+02 -0.25656612193E+02  0.18394632099E+02  0.33295473085E+02  0.00000000000E+00 0.  1.
          1    1    1    2  502    0 -0.10581317909E+02  0.25656612193E+02 -0.70970482383E+02  0.76203906774E+02  0.00000000000E+00 0. -1.
</event>
<event>
 4    1  0.3664744E+003  0.2182091E+02  0.7546771E-02  0.1507860E+00
          2   -1    0    0  502    0  0.00000000000E+00  0.00000000000E+00  0.20895790391E+02  0.20895790391E+02  0.00000000000E+00 0.  1.
          1   -1    0    0  501    0 -0.00000000000E+00 -0.00000000000E+00 -0.79117749172E+02  0.79117749172E+02  0.00000000000E+00 0.  1.
          2    1    1    2  501    0  0.18097363707E+02 -0.12191696097E+02  0.13084377850E+02  0.25443132091E+02  0.00000000000E+00 0.  1.
          1    1    1    2  502    0 -0.18097363707E+02  0.12191696097E+02 -0.71306336631E+02  0.74570407472E+02  0.00000000000E+00 0.  1.
</event>
<event>
 4    1  0.3664744E+003  0.2405888E+02  0.7546771E-02  0.1479613E+00
          2   -1    0    0  502    0  0.00000000000E+00  0.00000000000E+00  0.56298260938E+02  0.56298260938E+02  0.00000000000E+00 0. -1.
          1   -1    0    0  501    0 -0.00000000000E+00 -0.00000000000E+00 -0.20612607302E+02  0.20612607302E+02  0.00000000000E+00 0. -1.
          2    1    1    2  501    0  0.23625397914E+02 -0.45464683437E+01  0.45067644301E+02  0.51087399267E+02  0.00000000000E+00 0. -1.
          1    1    1    2  502    0 -0.23625397914E+02  0.45464683437E+01 -0.93819906649E+01  0.25823468974E+02  0.00000000000E+00 0. -1.
</event>
<event>
 4    1  0.3664744E+003  0.3381713E+02  0.7546771E-02  0.1389075E+00
          2   -1    0    0  502    0  0.00000000000E+00  0.00000000000E+00  0.48730743759E+03  0.48730743759E+03  0.00000000000E+00 0. -1.
          1   -1    0    0  501    0 -0.00000000000E+00 -0.00000000000E+00 -0.12718119819E+03  0.12718119819E+03  0.00000000000E+00 0.  1.
          2    1    1    2  501    0  0.92737411648E+01 -0.32520698474E+02  0.48445957674E+03  0.48563842476E+03  0.00000000000E+00 0. -1.
          1    1    1    2  502    0 -0.92737411648E+01  0.32520698474E+02 -0.12433333734E+03  0.12885021102E+03  0.00000000000E+00 0.  1.
</event>
<event>
 4    1  0.3664744E+003  0.2500425E+02  0.7546771E-02  0.1468756E+00
          2   -1    0    0  502    0  0.00000000000E+00  0.00000000000E+00  0.14166270417E+03  0.14166270417E+03  0.00000000000E+00 0. -1.
          1   -1    0    0  501    0 -0.00000000000E+00 -0.00000000000E+00 -0.23777490161E+03  0.23777490161E+03  0.00000000000E+00 0.  1.
          2    1    1    2  501    0  0.23809373772E+02 -0.76371616361E+01  0.13989375263E+03  0.14211078264E+03  0.00000000000E+00 0. -1.
          1    1    1    2  502    0 -0.23809373772E+02  0.76371616361E+01 -0.23600595007E+03  0.23732682315E+03  0.00000000000E+00 0.  1.
</event>
<event>
 4    1  0.3664744E+003  0.2952219E+02  0.7546771E-02  0.1423795E+00
          2   -1    0    0  502    0  0.00000000000E+00  0.00000000000E+00  0.21414656125E+03  0.21414656125E+03  0.00000000000E+00 0.  1.
          1   -1    0    0  501    0 -0.00000000000E+00 -0.00000000000E+00 -0.16706080594E+03  0.16706080594E+03  0.00000000000E+00 0.  1.
          2    1    1    2  501    0  0.12200244767E+02 -0.26883334990E+02  0.21181051035E+03  0.21385801824E+03  0.00000000000E+00 0.  1.
          1    1    1    2  502    0 -0.12200244767E+02  0.26883334990E+02 -0.16472475504E+03  0.16734934895E+03  0.00000000000E+00 0.  1.
</event>
<event>
 4    1  0.3664744E+003  0.2020100E+02  0.7546771E-02  0.1530985E+00
          2   -1    0    0  502    0  0.00000000000E+00  0.00000000000E+00  0.56576534347E+02  0.56576534347E+02  0.00000000000E+00 0.  1.
          1   -1    0    0  501    0 -0.00000000000E+00 -0.00000000000E+00 -0.29260337913E+03  0.29260337913E+03  0.00000000000E+00 0.  1.
          2    1    1    2  501    0 -0.57217158045E+00 -0.20192899070E+02  0.54411219818E+02  0.58040170531E+02  0.00000000000E+00 0.  1.
          1    1    1    2  502    0  0.57217158045E+00  0.20192899070E+02 -0.29043806460E+03  0.29113974295E+03  0.00000000000E+00 0.  1.
</event>
<event>
 4    1  0.3664744E+003  0.5040970E+02  0.7546771E-02  0.1296406E+00
          2   -1    0    0  502    0  0.00000000000E+00  0.00000000000E+00  0.70196294317E+02  0.70196294317E+02  0.00000000000E+00 0. -1.
          1   -1    0    0  501    0 -0.00000000000E+00 -0.00000000000E+00 -0.30969968563E+03  0.30969968563E+03  0.00000000000E+00 0.  1.
          2    1    1    2  501    0 -0.17745711843E+02 -0.47182917612E+02  0.58750010719E+02  0.77412542670E+02  0.00000000000E+00 0. -1.
          1    1    1    2  502    0  0.17745711843E+02  0.47182917612E+02 -0.29825340203E+03  0.30248343728E+03  0.00000000000E+00 0.  1.
</event>
<event>
 4    1  0.3664744E+003  0.2301490E+02  0.7546771E-02  0.1492311E+00
          2   -1    0    0  502    0  0.00000000000E+00  0.00000000000E+00  0.77076596838E+01  0.77076596838E+01  0.00000000000E+00 0.  1.
          1   -1    0    0  501    0 -0.00000000000E+00 -0.00000000000E+00 -0.80673829032E+02  0.80673829032E+02  0.00000000000E+00 0. -1.
          2    1    1    2  501    0 -0.88753250637E+01 -0.21234725541E+02 -0.53492293473E+02  0.58233241579E+02  0.00000000000E+00 0.  1.
          1    1    1    2  502    0  0.88753250637E+01  0.21234725541E+02 -0.19473875875E+02  0.30148247137E+02  0.00000000000E+00 0. -1.
</event>
<event>
 4    1  0.3664744E+003  0.2400227E+02  0.7546771E-02  0.1480282E+00
          2   -1    0    0  502    0  0.00000000000E+00  0.00000000000E+00  0.16538598682E+02  0.16538598682E+02  0.00000000000E+00 0. -1.
          1   -1    0    0  501    0 -0.00000000000E+00 -0.00000000000E+00 -0.36481778096E+02  0.36481778096E+02  0.00000000000E+00 0. -1.
          2    1    1    2  501    0  0.94568497364E+01 -0.22060755096E+02 -0.43378435244E+01  0.24391101017E+02  0.00000000000E+00 0. -1.
          1    1    1    2  502    0 -0.94568497364E+01  0.22060755096E+02 -0.15605335889E+02  0.28629275761E+02  0.00000000000E+00 0. -1.
</event>
<event>
 4    1  0.3664744E+003  0.2025223E+02  0.7546771E-02  0.1530214E+00
          2   -1    0    0  502    0  0.00000000000E+00  0.00000000000E+00  0.94281608970E+03  0.94281608970E+03  0.00000000000E+00 0.  1.
          1   -1    0    0  501    0 -0.00000000000E+00 -0.00000000000E+00 -0.35384144593E+01  0.35384144593E+01  0.00000000000E+00 0.  1.
          2    1    1    2  501    0 -0.13328296922E+02 -0.15248258054E+02  0.91277513873E+03  0.91299978464E+03  0.00000000000E+00 0.  1.
          1    1    1    2  502    0  0.13328296922E+02  0.15248258054E+02  0.26502536506E+02  0.33354719512E+02  0.00000000000E+00 0.  1.
</event>
<event>
 4    1  0.3664744E+003  0.3934932E+02  0.7546771E-02  0.1352342E+00
          2   -1    0    0  502    0  0.00000000000E+00  0.00000000000E+00  0.10962969360E+04  0.10962969360E+04  0.00000000000E+00 0.  1.
          1   -1    0    0  501    0 -0.00000000000E+00 -0.00000000000E+00 -0.12283633898E+02  0.12283633898E+02  0.00000000000E+00 0. -1.
          2    1    1    2  501    0 -0.10676360179E+01 -0.39334832217E+02  0.10634582460E+04  0.10641859846E+04  0.00000000000E+00 0.  1.
          1    1    1    2  502    0  0.10676360179E+01  0.39334832217E+02  0.20555056130E+02  0.44394585308E+02  0.00000000000E+00 0. -1.
</event>
<event>
 4    1  0.3664744E+003  0.2638250E+02  0.7546771E-02  0.1453912E+00
          2   -1    0    0  502    0  0.00000000000E+00  0.00000000000E+00  0.41793287203E+00  0.41793287203E+00  0.00000000000E+00 0.  1.
          1   -1    0    0  501    0 -0.00000000000E+00 -0.00000000000E+00 -0.20812256261E+04  0.20812256261E+04  0.00000000000E+00 0.  1.
          2    1    1    2  501    0  0.21625395431E+02  0.15112203351E+02 -0.57518355050E+03  0.57578828851E+03  0.00000000000E+00 0.  1.
          1    1    1    2  502    0 -0.21625395431E+02 -0.15112203351E+02 -0.15056241427E+04  0.15058552704E+04  0.00000000000E+00 0.  1.
</event>
<event>
 4    1  0.3664744E+003  0.2446019E+02  0.7546771E-02  0.1474934E+00
          2   -1    0    0  502    0  0.00000000000E+00  0.00000000000E+00  0.31259021029E+02  0.31259021029E+02  0.00000000000E+00 0. -1.
          1   -1    0    0  501    0 -0.00000000000E+00 -0.00000000000E+00 -0.24243907484E+02  0.24243907484E+02  0.00000000000E+00 0. -1.
          2    1    1    2  501    0  0.76938432742E+01 -0.23218650568E+02  0.16240579213E+02  0.29360813539E+02  0.00000000000E+00 0. -1.
          1    1    1    2  502    0 -0.76938432742E+01  0.23218650568E+02 -0.92254656674E+01  0.26142114974E+02  0.00000000000E+00 0. -1.
</event>
<event>
 4    1  0.3664744E+003  0.3092240E+02  0.7546771E-02  0.1411746E+00
          2   -1    0    0  502    0  0.00000000000E+00  0.00000000000E+00  0.26295842450E+04  0.26295842450E+04  0.00000000000E+00 0. -1.
          1   -1    0    0  501    0 -0.00000000000E+00 -0.00000000000E+00 -0.38207190730E+00  0.38207190730E+00  0.00000000000E+00 0.  1.
          2    1    1    2  501    0 -0.18346786379E+02 -0.24891565462E+02  0.16035064193E+04  0.16038045490E+04  0.00000000000E+00 0. -1.
          1    1    1    2  502    0  0.18346786379E+02  0.24891565462E+02  0.10256957538E+04  0.10261617679E+04  0.00000000000E+00 0.  1.
</event>
<event>
 4    1  0.3664744E+003  0.2032109E+02  0.7546771E-02  0.1529183E+00
          2   -1    0    0  502    0  0.00000000000E+00  0.00000000000E+00  0.13895878559E+04  0.13895878559E+04  0.00000000000E+00 0. -1.
          1   -1    0    0  501    0 -0.00000000000E+00 -0.00000000000E+00 -0.17633980894E+01  0.17633980894E+01  0.00000000000E+00 0. -1.
          2    1    1    2  501    0 -0.85225968647E+01  0.18447546353E+02  0.13282668009E+04  0.13284222375E+04  0.00000000000E+00 0. -1.
          1    1    1    2  502    0  0.85225968647E+01 -0.18447546353E+02  0.59557656907E+02  0.62929016519E+02  0.00000000000E+00 0. -1.
</event>
<event>
 4    1  0.3664744E+003  0.2441735E+02  0.7546771E-02  0.1475428E+00
          2   -1    0    0  502    0  0.00000000000E+00  0.00000000000E+00  0.10795812148E+01  0.10795812148E+01  0.00000000000E+00 0. -1.
          1   -1    0    0  501    0 -0.00000000000E+00 -0.00000000000E+00 -0.11922567330E+04  0.11922567330E+04  0.00000000000E+00 0. -1.
          2    1    1    2  501    0 -0.19292163290E+02  0.14967276767E+02 -0.15843135164E+03  0.16030190305E+03  0.00000000000E+00 0. -1.
          1    1    1    2  502    0  0.19292163290E+02 -0.14967276767E+02 -0.10327458002E+04  0.10330344112E+04  0.00000000000E+00 0. -1.
</event>
<event>
 4    1  0.3664744E+003  0.2294768E+02  0.7546771E-02  0.1493156E+00
          2   -1    0    0  502    0  0.00000000000E+00  0.00000000000E+00  0.37073473437E+03  0.37073473437E+03  0.00000000000E+00 0.  1.
          1   -1    0    0  501    0 -0.00000000000E+00 -0.00000000000E+00 -0.11794351283E+04  0.11794351283E+04  0.00000000000E+00 0.  1.
          2    1    1    2  501    0  0.21628160914E+02  0.76693313884E+01  0.37026787044E+03  0.37097829029E+03  0.00000000000E+00 0.  1.
          1    1    1    2  502    0 -0.21628160914E+02 -0.76693313884E+01 -0.11789682644E+04  0.11791915724E+04  0.00000000000E+00 0.  1.
</event>
<event>
 4    1  0.3664744E+003  0.2003951E+02  0.7546771E-02  0.1533433E+00
          2   -1    0    0  502    0  0.00000000000E+00  0.00000000000E+00  0.29912210555E+02  0.29912210555E+02  0.00000000000E+00 0. -1.
          1   -1    0    0  501    0 -0.00000000000E+00 -0.00000000000E+00 -0.39463587851E+03  0.39463587851E+03  0.00000000000E+00 0.  1.
          2    1    1    2  501    0 -0.20039508569E+02 -0.72972670020E-02  0.26270229544E+02  0.33040988442E+02  0.00000000000E+00 0. -1.
          1    1    1    2  502    0  0.20039508569E+02  0.72972670020E-02 -0.39099389750E+03  0.39150710062E+03  0.00000000000E+00 0.  1.
</event>
<event>
 4    1  0.3664744E+003  0.2724573E+02  0.7546771E-02  0.1445155E+00
          2   -1    0    0  502    0  0.00000000000E+00  0.00000000000E+00  0.34199034447E+02  0.34199034447E+02  0.00000000000E+00 0. -1.
          1   -1    0    0  501    0 -0.00000000000E+00 -0.00000000000E+00 -0.22609722270E+02  0.22609722270E+02  0.00000000000E+00 0. -1.
          2    1    1    2  501    0  0.86719237121E+01  0.25828801989E+02  0.11633672944E+00  0.27245968643E+02  0.00000000000E+00 0. -1.
          1    1    1    2  502    0 -0.86719237121E+01 -0.25828801989E+02  0.11472975447E+02  0.29562788074E+02  0.00000000000E+00 0. -1.
</event>
<event>
 4    1  0.3664744E+003  0.3096283E+02  0.7546771E-02  0.1411410E+00
          2   -1    0    0  502    0  0.00000000000E+00  0.00000000000E+00  0.18358537503E+04  0.18358537503E+04  0.00000000000E+00 0. -1.
          1   -1    0    0  501    0 -0.00000000000E+00 -0.00000000000E+00 -0.93813609828E+00  0.93813609828E+00  0.00000000000E+00 0. -1.
          2    1    1    2  501    0  0.26934394480E+02  0.15272047613E+02  0.15289716562E+04  0.15292851345E+04  0.00000000000E+00 0. -1.
          1    1    1    2  502    0 -0.26934394480E+02 -0.15272047613E+02  0.30594395795E+03  0.30750675188E+03  0.00000000000E+00 0. -1.
</event>
<event>
 4    1  0.3664744E+003  0.2606722E+02  0.7546771E-02  0.1457210E+00
          2   -1    0    0  502    0  0.00000000000E+00  0.00000000000E+00  0.17362590248E+04  0.17362590248E+04  0.00000000000E+00 0. -1.
          1   -1    0    0  501    0 -0.00000000000E+00 -0.00000000000E+00 -0.21389023805E+01  0.21389023805E+01  0.00000000000E+00 0. -1.
          2    1    1    2  501    0 -0.25520659779E+02 -0.53099787142E+01  0.16527256768E+04  0.16529312335E+04  0.00000000000E+00 0. -1.
          1    1    1    2  502    0  0.25520659779E+02  0.53099787142E+01  0.81394445591E+02  0.85466693645E+02  0.00000000000E+00 0. -1.
</event>
<event>
 4    1  0.3664744E+003  0.3815272E+02  0.7546771E-02  0.1359665E+00
          2   -1    0    0  502    0  0.00000000000E+00  0.00000000000E+00  0.21157423363E+03  0.21157423363E+03  0.00000000000E+00 0. -1.
          1   -1    0    0  501    0 -0.00000000000E+00 -0.00000000000E+00 -0.11612958741E+02  0.11612958741E+02  0.00000000000E+00 0.  1.
          2    1    1    2  501    0  0.83737192535E+01  0.37222448125E+02  0.17122235612E+03  0.17542156382E+03  0.00000000000E+00 0. -1.
          1    1    1    2  502    0 -0.83737192535E+01 -0.37222448125E+02  0.28738918767E+02  0.47765628547E+02  0.00000000000E+00 0.  1.
</event>
<event>
 4    1  0.3977453E+003  0.3106324E+02  0.7546771E-02  0.1410576E+00
          2   -1    0    0  502    0  0.00000000000E+00  0.00000000000E+00  0.79452240546E+03  0.79452240546E+03  0.00000000000E+00 0. -1.
          1   -1    0    0  501    0 -0.00000000000E+00 -0.00000000000E+00 -0.47107400340E+03  0.47107400340E+03  0.00000000000E+00 0.  1.
          2    1    1    2  501    0 -0.30621330680E+02 -0.52210339720E+01  0.79370617324E+03  0.79431380104E+03  0.00000000000E+00 0. -1.
          1    1    1    2  502    0  0.30621330680E+02  0.52210339720E+01 -0.47025777118E+03  0.47128260783E+03  0.00000000000E+00 0.  1.
</event>
<event>
 4    1  0.3664744E+003  0.2767092E+02  0.7546771E-02  0.1440983E+00
          2   -1    0    0  502    0  0.00000000000E+00  0.00000000000E+00  0.15044527852E+03  0.15044527852E+03  0.00000000000E+00 0.  1.
          1   -1    0    0  501    0 -0.00000000000E+00 -0.00000000000E+00 -0.17778374543E+03  0.17778374543E+03  0.00000000000E+00 0.  1.
          2    1    1    2  501    0  0.87470165795E+01  0.26252038508E+02  0.14807916472E+03  0.15064235410E+03  0.00000000000E+00 0.  1.
          1    1    1    2  502    0 -0.87470165795E+01 -0.26252038508E+02 -0.17541763163E+03  0.17758666986E+03  0.00000000000E+00 0.  1.
</event>
<event>
 4    1  0.3664744E+003  0.2818067E+02  0.7546771E-02  0.1436095E+00
          2   -1    0    0  502    0  0.00000000000E+00  0.00000000000E+00  0.80526500533E+02  0.80526500533E+02  0.00000000000E+00 0. -1.
          1   -1    0    0  501    0 -0.00000000000E+00 -0.00000000000E+00 -0.70126424295E+02  0.70126424295E+02  0.00000000000E+00 0.  1.
          2    1    1    2  501    0 -0.18451168468E+02 -0.21300342044E+02  0.75029280014E+02  0.80147008980E+02  0.00000000000E+00 0. -1.
          1    1    1    2  502    0  0.18451168468E+02  0.21300342044E+02 -0.64629203775E+02  0.70505915848E+02  0.00000000000E+00 0.  1.
</event>
<event>
 4    1  0.3664744E+003  0.3247351E+02  0.7546771E-02  0.1399252E+00
          2   -1    0    0  502    0  0.00000000000E+00  0.00000000000E+00  0.16134196593E+03  0.16134196593E+03  0.00000000000E+00 0. -1.
          1   -1    0    0  501    0 -0.00000000000E+00 -0.00000000000E+00 -0.87554766899E+01  0.87554766899E+01  0.00000000000E+00 0.  1.
          2    1    1    2  501    0 -0.13466858570E+02 -0.29549495801E+02  0.11911401363E+03  0.12346123774E+03  0.00000000000E+00 0. -1.
          1    1    1    2  502    0  0.13466858570E+02  0.29549495801E+02  0.33472475608E+02  0.46636204875E+02  0.00000000000E+00 0.  1.
</event>
<event>
 4    1  0.3664744E+003  0.2398298E+02  0.7546771E-02  0.1480510E+00
          2   -1    0    0  502    0  0.00000000000E+00  0.00000000000E+00  0.65008298732E+03  0.65008298732E+03  0.00000000000E+00 0.  1.
          1   -1    0    0  501    0 -0.00000000000E+00 -0.00000000000E+00 -0.21867534805E+01  0.21867534805E+01  0.00000000000E+00 0. -1.
          2    1    1    2  501    0 -0.70179242815E+01 -0.22933211925E+02  0.57559850870E+03  0.57609793151E+03  0.00000000000E+00 0.  1.
          1    1    1    2  502    0  0.70179242815E+01  0.22933211925E+02  0.72297725132E+02  0.76171809285E+02  0.00000000000E+00 0. -1.
</event>
<event>
 4    1  0.3664744E+003  0.2131888E+02  0.7546771E-02  0.1514761E+00
          2   -1    0    0  502    0  0.00000000000E+00  0.00000000000E+00  0.13882279561E+04  0.13882279561E+04  0.00000000000E+00 0. -1.
          1   -1    0    0  501    0 -0.00000000000E+00 -0.00000000000E+00 -0.92573319440E+00  0.92573319440E+00  0.00000000000E+00 0.  1.
          2    1    1    2  501    0  0.21065799711E+02  0.32751379267E+01  0.12520594670E+04  0.12522409526E+04  0.00000000000E+00 0. -1.
          1    1    1    2  502    0 -0.21065799711E+02 -0.32751379267E+01  0.13524275582E+03  0.13691273661E+03  0.00000000000E+00 0.  1.
</event>
<event>
 4    1  0.3664744E+003  0.3142862E+02  0.7546771E-02  0.1407575E+00
          2   -1    0    0  502    0  0.00000000000E+00  0.00000000000E+00  0.13622161380E+02  0.13622161380E+02  0.00000000000E+00 0. -1.
          1   -1    0    0  501    0 -0.00000000000E+00 -0.00000000000E+00 -0.26941624296E+03  0.26941624296E+03  0.00000000000E+00 0.  1.
          2    1    1    2  501    0  0.17739274507E+01 -0.31378515956E+02 -0.69119097274E+01  0.32179692017E+02  0.00000000000E+00 0. -1.
          1    1    1    2  502    0 -0.17739274507E+01  0.31378515956E+02 -0.24888217186E+03  0.25085871233E+03  0.00000000000E+00 0.  1.
</event>
<event>
 4    1  0.3664744E+003  0.2074888E+02  0.7546771E-02  0.1522881E+00
          2   -1    0    0  502    0  0.00000000000E+00  0.00000000000E+00  0.72611982732E+01  0.72611982732E+01  0.00000000000E+00 0.  1.
          1   -1    0    0  501    0 -0.00000000000E+00 -0.00000000000E+00 -0.62604250059E+02  0.62604250059E+02  0.00000000000E+00 0. -1.
          2    1    1    2  501    0  0.20412778806E+02 -0.37194707130E+01 -0.19633910994E+02  0.28565826820E+02  0.00000000000E+00 0.  1.
          1    1    1    2  502    0 -0.20412778806E+02  0.37194707130E+01 -0.35709140791E+02  0.41299621512E+02  0.00000000000E+00 0. -1.
</event>
<event>
 4    1  0.3664744E+003  0.3425910E+02  0.7546771E-02  0.1385848E+00
          2   -1    0    0  502    0  0.00000000000E+00  0.00000000000E+00  0.19739067445E+03  0.19739067445E+03  0.00000000000E+00 0.  1.
          1   -1    0    0  501    0 -0.00000000000E+00 -0.00000000000E+00 -0.82737625589E+01  0.82737625589E+01  0.00000000000E+00 0.  1.
          2    1    1    2  501    0 -0.87809943179E+01  0.33114647947E+02  0.14910241158E+03  0.15298762992E+03  0.00000000000E+00 0.  1.
          1    1    1    2  502    0  0.87809943179E+01 -0.33114647947E+02  0.40014500313E+02  0.52676807089E+02  0.00000000000E+00 0.  1.
</event>
<event>
 4    1  0.3664744E+003  0.3389967E+02  0.7546771E-02  0.1388468E+00
          2   -1    0    0  502    0  0.00000000000E+00  0.00000000000E+00  0.70148052735E+01  0.70148052735E+01  0.00000000000E+00 0. -1.
          1   -1    0    0  501    0 -0.00000000000E+00 -0.00000000000E+00 -0.29722237961E+03  0.29722237961E+03  0.00000000000E+00 0. -1.
          2    1    1    2  501    0  0.27854926991E+02  0.19320737642E+02 -0.43193477556E+02  0.54907780542E+02  0.00000000000E+00 0. -1.
          1    1    1    2  502    0 -0.27854926991E+02 -0.19320737642E+02 -0.24701409678E+03  0.24932940434E+03  0.00000000000E+00 0. -1.
</event>
<event>
 4    1  0.3664744E+003  0.2784633E+02  0.7546771E-02  0.1439287E+00
          2   -1    0    0  502    0  0.00000000000E+00  0.00000000000E+00  0.16622395145E+04  0.16622395145E+04  0.00000000000E+00 0.  1.
          1   -1    0    0  501    0 -0.00000000000E+00 -0.00000000000E+00 -0.84199686980E+00  0.84199686980E+00  0.00000000000E+00 0. -1.
          2    1    1    2  501    0 -0.57994550039E+01  0.27235724269E+02  0.13860108885E+04  0.13862905906E+04  0.00000000000E+00 0.  1.
          1    1    1    2  502    0  0.57994550039E+01 -0.27235724269E+02  0.27538662906E+03  0.27679092077E+03  0.00000000000E+00 0. -1.
</event>
<event>
 4    1  0.3664744E+003  0.3414392E+02  0.7546771E-02  0.1386684E+00
          2   -1    0    0  502    0  0.00000000000E+00  0.00000000000E+00  0.96322657947E+03  0.96322657947E+03  0.00000000000E+00 0.  1.
          1   -1    0    0  501    0 -0.00000000000E+00 -0.00000000000E+00 -0.49252514614E+01  0.49252514614E+01  0.00000000000E+00 0.  1.
          2    1    1    2  501    0  0.46028598459E+01 -0.33832247394E+02  0.89956254822E+03  0.90021030067E+03  0.00000000000E+00 0.  1.
          1    1    1    2  502    0 -0.46028598459E+01  0.33832247394E+02  0.58738779790E+02  0.67941530258E+02  0.00000000000E+00 0.  1.
</event>
<event>
 4    1  0.3664744E+003  0.2271021E+02  0.7546771E-02  0.1496169E+00
          2   -1    0    0  502    0  0.00000000000E+00  0.00000000000E+00  0.69232738259E+01  0.69232738259E+01  0.00000000000E+00 0.  1.
          1   -1    0    0  501    0 -0.00000000000E+00 -0.00000000000E+00 -0.75405806151E+02  0.75405806151E+02  0.00000000000E+00 0.  1.
          2    1    1    2  501    0 -0.58858538069E+01 -0.21934230203E+02 -0.29718744110E+02  0.37402640029E+02  0.00000000000E+00 0.  1.
          1    1    1    2  502    0  0.58858538069E+01  0.21934230203E+02 -0.38763788215E+02  0.44926439948E+02  0.00000000000E+00 0.  1.
</event>
<event>
 4    1  0.3664744E+003  0.3236023E+02  0.7546771E-02  0.1400136E+00
          2   -1    0    0  502    0  0.00000000000E+00  0.00000000000E+00  0.37550575466E+03  0.37550575466E+03  0.00000000000E+00 0.  1.
          1   -1    0    0  501    0 -0.00000000000E+00 -0.00000000000E+00 -0.14591944260E+02  0.14591944260E+02  0.00000000000E+00 0.  1.
          2    1    1    2  501    0  0.53472819443E+01 -0.31915376447E+02  0.35588006604E+03  0.35734829800E+03  0.00000000000E+00 0.  1.
          1    1    1    2  502    0 -0.53472819443E+01  0.31915376447E+02  0.50337443514E+01  0.32749400912E+02  0.00000000000E+00 0.  1.
</event>
<event>
 4    1  0.3664744E+003  0.4627863E+02  0.7546771E-02  0.1315167E+00
          2   -1    0    0  502    0  0.00000000000E+00  0.00000000000E+00  0.26654519261E+04  0.26654519261E+04  0.00000000000E+00 0. -1.
          1   -1    0    0  501    0 -0.00000000000E+00 -0.00000000000E+00 -0.87080919303E+00  0.87080919303E+00  0.00000000000E+00 0. -1.
          2    1    1    2  501    0 -0.30400005065E+02  0.34893397132E+02  0.96166480389E+03  0.96277770255E+03  0.00000000000E+00 0. -1.
          1    1    1    2  502    0  0.30400005065E+02 -0.34893397132E+02  0.17029163130E+04  0.17035450328E+04  0.00000000000E+00 0. -1.
</event>
<event>
 4    1  0.3664744E+003  0.2002647E+02  0.7546771E-02  0.1533631E+00
          2   -1    0    0  502    0  0.00000000000E+00  0.00000000000E+00  0.29618460274E+03  0.29618460274E+03  0.00000000000E+00 0.  1.
          1   -1    0    0  501    0 -0.00000000000E+00 -0.00000000000E+00 -0.34079703866E+01  0.34079703866E+01  0.00000000000E+00 0.  1.
          2    1    1    2  501    0 -0.19866511717E+02  0.25261079208E+01  0.26267797801E+03  0.26344027718E+03  0.00000000000E+00 0.  1.
          1    1    1    2  502    0  0.19866511717E+02 -0.25261079208E+01  0.30098654348E+02  0.36152295952E+02  0.00000000000E+00 0.  1.
</event>
<event>
 4    1  0.3664744E+003  0.2226410E+02  0.7546771E-02  0.1501952E+00
          2   -1    0    0  502    0  0.00000000000E+00  0.00000000000E+00  0.87965722181E+02  0.87965722181E+02  0.00000000000E+00 0. -1.
          1   -1    0    0  501    0 -0.00000000000E+00 -0.00000000000E+00 -0.21115578800E+03  0.21115578800E+03  0.00000000000E+00 0. -1.
          2    1    1    2  501    0  0.19882223257E+02 -0.10019347356E+02  0.85956590720E+02  0.88793161962E+02  0.00000000000E+00 0. -1.
          1    1    1    2  502    0 -0.19882223257E+02  0.10019347356E+02 -0.20914665654E+03  0.21032834822E+03  0.00000000000E+00 0. -1.
</event>
<event>
 4    1  0.3664744E+003  0.2262522E+02  0.7546771E-02  0.1497259E+00
          2   -1    0    0  502    0  0.00000000000E+00  0.00000000000E+00  0.34632478868E+03  0.34632478868E+03  0.00000000000E+00 0. -1.
          1   -1    0    0  501    0 -0.00000000000E+00 -0.00000000000E+00 -0.36595086841E+01  0.36595086841E+01  0.00000000000E+00 0. -1.
          2    1    1    2  501    0  0.14001547093E+02  0.17772371072E+02  0.30643916283E+03  0.30727326765E+03  0.00000000000E+00 0. -1.
          1    1    1    2  502    0 -0.14001547093E+02 -0.17772371072E+02  0.36226117162E+02  0.42711029713E+02  0.00000000000E+00 0. -1.
</event>
<event>
 4    1  0.3664744E+003  0.2202204E+02  0.7546771E-02  0.1505158E+00
          2   -1    0    0  502    0  0.00000000000E+00  0.00000000000E+00  0.15925320058E+01  0.15925320058E+01  0.00000000000E+00 0.  1.
          1   -1    0    0  501    0 -0.00000000000E+00 -0.00000000000E+00 -0.79489764989E+03  0.79489764989E+03  0.00000000000E+00 0. -1.
          2    1    1    2  501    0  0.46901753083E+01 -0.21516792856E+02 -0.83859760198E+02  0.86703111246E+02  0.00000000000E+00 0.  1.
          1    1    1    2  502    0 -0.46901753083E+01  0.21516792856E+02 -0.70944535769E+03  0.70978707065E+03  0.00000000000E+00 0. -1.
</event>
<event>
 4    1  0.3664744E+003  0.2160738E+02  0.7546771E-02  0.1510767E+00
          2   -1    0    0  502    0  0.00000000000E+00  0.00000000000E+00  0.26877281657E+03  0.26877281657E+03  0.00000000000E+00 0. -1.
          1   -1    0    0  501    0 -0.00000000000E+00 -0.00000000000E+00 -0.91209401408E+02  0.91209401408E+02  0.00000000000E+00 0. -1.
          2    1    1    2  501    0  0.20974015348E+02 -0.51932179914E+01  0.26705061890E+03  0.26792333211E+03  0.00000000000E+00 0. -1.
          1    1    1    2  502    0 -0.20974015348E+02  0.51932179914E+01 -0.89487203743E+02  0.92058885865E+02  0.00000000000E+00 0. -1.
</event>
<event>
 4    1  0.3664744E+003  0.3506313E+02  0.7546771E-02  0.1380120E+00
          2   -1    0    0  502    0  0.00000000000E+00  0.00000000000E+00  0.16825445129E+04  0.16825445129E+04  0.00000000000E+00 0. -1.
          1   -1    0    0  501    0 -0.00000000000E+00 -0.00000000000E+00 -0.20932985539E+01  0.20932985539E+01  0.00000000000E+00 0. -1.
          2    1    1    2  501    0 -0.31392945798E+02  0.15617486735E+02  0.15198142183E+04  0.15202186294E+04  0.00000000000E+00 0. -1.
          1    1    1    2  502    0  0.31392945798E+02 -0.15617486735E+02  0.16063699597E+03  0.16441918201E+03  0.00000000000E+00 0. -1.
</event>
<event>
 4    1  0.3664744E+003  0.2339730E+02  0.7546771E-02  0.1487569E+00
          2   -1    0    0  502    0  0.00000000000E+00  0.00000000000E+00  0.33348021881E+02  0.33348021881E+02  0.00000000000E+00 0.  1.
          1   -1    0    0  501    0 -0.00000000000E+00 -0.00000000000E+00 -0.11810508779E+03  0.11810508779E+03  0.00000000000E+00 0.  1.
          2    1    1    2  501    0 -0.78232310823E+01  0.22050636723E+02  0.27888490713E+02  0.36403316315E+02  0.00000000000E+00 0.  1.
          1    1    1    2  502    0  0.78232310823E+01 -0.22050636723E+02 -0.11264555662E+03  0.11504979336E+03  0.00000000000E+00 0.  1.
</event>
<event>
 4    1  0.3664744E+003  0.2051296E+02  0.7546771E-02  0.1526333E+00
          2   -1    0    0  502    0  0.00000000000E+00  0.00000000000E+00  0.68571550006E+01  0.68571550006E+01  0.00000000000E+00 0. -1.
          1   -1    0    0  501    0 -0.00000000000E+00 -0.00000000000E+00 -0.62063985644E+02  0.62063985644E+02  0.00000000000E+00 0. -1.
          2    1    1    2  501    0  0.11421924486E+02 -0.17038816602E+02 -0.23943384777E+02  0.31528832911E+02  0.00000000000E+00 0. -1.
          1    1    1    2  502    0 -0.11421924486E+02  0.17038816602E+02 -0.31263445867E+02  0.37392307734E+02  0.00000000000E+00 0. -1.
</event>
<event>
 4    1  0.3664744E+003  0.2242534E+02  0.7546771E-02  0.1499843E+00
          2   -1    0    0  502    0  0.00000000000E+00  0.00000000000E+00  0.16945447727E+02  0.16945447727E+02  0.00000000000E+00 0. -1.
          1   -1    0    0  501    0 -0.00000000000E+00 -0.00000000000E+00 -0.30997149047E+02  0.30997149047E+02  0.00000000000E+00 0. -1.
          2    1    1    2  501    0  0.57246277998E+01  0.21682347619E+02 -0.11972244345E+02  0.25421058128E+02  0.00000000000E+00 0. -1.
          1    1    1    2  502    0 -0.57246277998E+01 -0.21682347619E+02 -0.20794569757E+01  0.22521538647E+02  0.00000000000E+00 0. -1.
</event>
<event>
 4    1  0.3664744E+003  0.2085555E+02  0.7546771E-02  0.1521337E+00
          2   -1    0    0  502    0  0.00000000000E+00  0.00000000000E+00  0.89366062861E+03  0.89366062861E+03  0.00000000000E+00 0.  1.
          1   -1    0    0  501    0 -0.00000000000E+00 -0.00000000000E+00 -0.49809629837E+00  0.49809629837E+00  0.00000000000E+00 0. -1.
          2    1    1    2  501    0  0.27123945762E+01 -0.20678419202E+02  0.51417519827E+03  0.51459798739E+03  0.00000000000E+00 0.  1.
          1    1    1    2  502    0 -0.27123945762E+01  0.20678419202E+02  0.37898733404E+03  0.37956073752E+03  0.00000000000E+00 0. -1.
</event>
<event>
 4    1  0.3664744E+003  0.2044638E+02  0.7546771E-02  0.1527318E+00
          2   -1    0    0  502    0  0.00000000000E+00  0.00000000000E+00  0.54521238839E+02  0.54521238839E+02  0.00000000000E+00 0.  1.
          1   -1    0    0  501    0 -0.00000000000E+00 -0.00000000000E+00 -0.12465830517E+02  0.12465830517E+02  0.00000000000E+00 0. -1.
          2    1    1    2  501    0  0.10389201685E+02 -0.17610197265E+02  0.41807185113E+02  0.46539180122E+02  0.00000000000E+00 0.  1.
          1    1    1    2  502    0 -0.10389201685E+02  0.17610197265E+02  0.24822320851E+00  0.20447889234E+02  0.00000000000E+00 0. -1.
</event>
<event>
 4    1  0.3664744E+003  0.2696682E+02  0.7546771E-02  0.1447942E+00
          2   -1    0    0  502    0  0.00000000000E+00  0.00000000000E+00  0.45711930682E+03  0.45711930682E+03  0.00000000000E+00 0. -1.
          1   -1    0    0  501    0 -0.00000000000E+00 -0.00000000000E+00 -0.17235521897E+01  0.17235521897E+01  0.00000000000E+00 0. -1.
          2    1    1    2  501    0 -0.19267170320E+02  0.18867575654E+02  0.29135649107E+03  0.29260180135E+03  0.00000000000E+00 0. -1.
          1    1    1    2  502    0  0.19267170320E+02 -0.18867575654E+02  0.16403926356E+03  0.16624105766E+03  0.00000000000E+00 0. -1.
</event>
<event>
 4    1  0.3664744E+003  0.2134270E+02  0.7546771E-02  0.1514428E+00
          2   -1    0    0  502    0  0.00000000000E+00  0.00000000000E+00  0.71861564822E+03  0.71861564822E+03  0.00000000000E+00 0. -1.
          1   -1    0    0  501    0 -0.00000000000E+00 -0.00000000000E+00 -0.73159627505E+00  0.73159627505E+00  0.00000000000E+00 0.  1.
          2    1    1    2  501    0  0.11962431954E+02  0.17675154144E+02  0.49039562619E+03  0.49085983849E+03  0.00000000000E+00 0. -1.
          1    1    1    2  502    0 -0.11962431954E+02 -0.17675154144E+02  0.22748842575E+03  0.22848740600E+03  0.00000000000E+00 0.  1.
</event>
<event>
 4    1  0.3664744E+003  0.2752129E+02  0.7546771E-02  0.1442441E+00
          2   -1    0    0  502    0  0.00000000000E+00  0.00000000000E+00  0.96423914272E+03  0.96423914272E+03  0.00000000000E+00 0.  1.
          1   -1    0    0  501    0 -0.00000000000E+00 -0.00000000000E+00 -0.17326911342E+01  0.17326911342E+01  0.00000000000E+00 0. -1.
          2    1    1    2  501    0 -0.26777929326E+02  0.63532428202E+01  0.83835335344E+03  0.83880496327E+03  0.00000000000E+00 0.  1.
          1    1    1    2  502    0  0.26777929326E+02 -0.63532428202E+01  0.12415309815E+03  0.12716687058E+03  0.00000000000E+00 0. -1.
</event>
<event>
 4    1  0.3664744E+003  0.2606431E+02  0.7546771E-02  0.1457241E+00
          2   -1    0    0  502    0  0.00000000000E+00  0.00000000000E+00  0.13454367518E+03  0.13454367518E+03  0.00000000000E+00 0. -1.
          1   -1    0    0  501    0 -0.00000000000E+00 -0.00000000000E+00 -0.91160501407E+03  0.91160501407E+03  0.00000000000E+00 0.  1.
          2    1    1    2  501    0  0.18526769715E+01 -0.25998381330E+02  0.13309303895E+03  0.13562118294E+03  0.00000000000E+00 0. -1.
          1    1    1    2  502    0 -0.18526769715E+01  0.25998381330E+02 -0.91015437784E+03  0.91052750631E+03  0.00000000000E+00 0.  1.
</event>
<event>
 4    1  0.3664744E+003  0.2040736E+02  0.7546771E-02  0.1527897E+00
          2   -1    0    0  502    0  0.00000000000E+00  0.00000000000E+00  0.17477222603E+04  0.17477222603E+04  0.00000000000E+00 0. -1.
          1   -1    0    0  501    0 -0.00000000000E+00 -0.00000000000E+00 -0.33670714859E+00  0.33670714859E+00  0.00000000000E+00 0. -1.
          2    1    1    2  501    0 -0.19497329134E+02 -0.60261471482E+01  0.13462353200E+04  0.13463899870E+04  0.00000000000E+00 0. -1.
          1    1    1    2  502    0  0.19497329134E+02  0.60261471482E+01  0.40115023310E+03  0.40166898039E+03  0.00000000000E+00 0. -1.
</event>
<event>
 4    1  0.3664744E+003  0.2188633E+02  0.7546771E-02  0.1506977E+00
          2   -1    0    0  502    0  0.00000000000E+00  0.00000000000E+00  0.23488837216E+03  0.23488837216E+03  0.00000000000E+00 0.  1.
          1   -1    0    0  501    0 -0.00000000000E+00 -0.00000000000E+00 -0.35431586625E+02  0.35431586625E+02  0.00000000000E+00 0.  1.
          2    1    1    2  501    0  0.67886447868E+01 -0.20806862644E+02  0.23094107188E+03  0.23197583907E+03  0.00000000000E+00 0.  1.
          1    1    1    2  502    0 -0.67886447868E+01  0.20806862644E+02 -0.31484286338E+02  0.38344119723E+02  0.00000000000E+00 0.  1.
</event>
<event>
 4    1  0.3664744E+003  0.3187748E+02  0.7546771E-02  0.1403953E+00
          2   -1    0    0  502    0  0.00000000000E+00  0.00000000000E+00  0.47381641808E+01  0.47381641808E+01  0.00000000000E+00 0.  1.
          1   -1    0    0  501    0 -0.00000000000E+00 -0.00000000000E+00 -0.24376654187E+03  0.24376654187E+03  0.00000000000E+00 0.  1.
          2    1    1    2  501    0  0.24210904288E+02 -0.20736578934E+02 -0.76435965063E+02  0.82816848210E+02  0.00000000000E+00 0.  1.
          1    1    1    2  502    0 -0.24210904288E+02  0.20736578934E+02 -0.16259241262E+03  0.16568785784E+03  0.00000000000E+00 0.  1.
</event>
<event>
 4    1  0.3664744E+003  0.2271591E+02  0.7546771E-02  0.1496097E+00
          2   -1    0    0  502    0  0.00000000000E+00  0.00000000000E+00  0.16392433931E+03  0.16392433931E+03  0.00000000000E+00 0. -1.
          1   -1    0    0  501    0 -0.00000000000E+00 -0.00000000000E+00 -0.53059518891E+01  0.53059518891E+01  0.00000000000E+00 0.  1.
          2    1    1    2  501    0 -0.16366907600E+02  0.15752363252E+02  0.13327272350E+03  0.13519479073E+03  0.00000000000E+00 0. -1.
          1    1    1    2  502    0  0.16366907600E+02 -0.15752363252E+02  0.25345663925E+02  0.34035500469E+02  0.00000000000E+00 0.  1.
</event>
<event>
 4    1  0.3664744E+003  0.3021467E+02  0.7546771E-02  0.1417740E+00
          2   -1    0    0  502    0  0.00000000000E+00  0.00000000000E+00  0.37044028609E+02  0.37044028609E+02  0.00000000000E+00 0. -1.
          1   -1    0    0  501    0 -0.00000000000E+00 -0.00000000000E+00 -0.10545149118E+03  0.10545149118E+03  0.00000000000E+00 0.  1.
          2    1    1    2  501    0  0.25818752709E+02  0.15694539791E+02  0.28165398104E+02  0.41306370224E+02  0.00000000000E+00 0. -1.
          1    1    1    2  502    0 -0.25818752709E+02 -0.15694539791E+02 -0.96572860677E+02  0.10118914957E+03  0.00000000000E+00 0.  1.
</event>
<event>
 4    1  0.3664744E+003  0.3150849E+02  0.7546771E-02  0.1406925E+00
          2   -1    0    0  502    0  0.00000000000E+00  0.00000000000E+00  0.12240720302E+01  0.12240720302E+01  0.00000000000E+00 0.  1.
          1   -1    0    0  501    0 -0.00000000000E+00 -0.00000000000E+00 -0.12004432290E+04  0.12004432290E+04  0.00000000000E+00 0. -1.
          2    1    1    2  501    0 -0.15753326011E+02 -0.27287683726E+02 -0.25741193030E+03  0.25933315797E+03  0.00000000000E+00 0.  1.
          1    1    1    2  502    0  0.15753326011E+02  0.27287683726E+02 -0.94180722665E+03  0.94233414303E+03  0.00000000000E+00 0. -1.
</event>
<event>
 4    1  0.3664744E+003  0.3504132E+02  0.7546771E-02  0.1380273E+00
          2   -1    0    0  502    0  0.00000000000E+00  0.00000000000E+00  0.13478300296E+02  0.13478300296E+02  0.00000000000E+00 0. -1.
          1   -1    0    0  501    0 -0.00000000000E+00 -0.00000000000E+00 -0.34173486459E+03  0.34173486459E+03  0.00000000000E+00 0. -1.
          2    1    1    2  501    0  0.96322635036E+01  0.33691445432E+02 -0.12026670659E+02  0.37047736809E+02  0.00000000000E+00 0. -1.
          1    1    1    2  502    0 -0.96322635036E+01 -0.33691445432E+02 -0.31622989363E+03  0.31816542808E+03  0.00000000000E+00 0. -1.
</event>
<event>
 4    1  0.3664744E+003  0.2111887E+02  0.7546771E-02  0.1517574E+00
          2   -1    0    0  502    0  0.00000000000E+00  0.00000000000E+00  0.90687108455E+02  0.90687108455E+02  0.00000000000E+00 0. -1.
          1   -1    0    0  501    0 -0.00000000000E+00 -0.00000000000E+00 -0.15059010986E+02  0.15059010986E+02  0.00000000000E+00 0.  1.
          2    1    1    2  501    0 -0.97123288186E+01 -0.18753063856E+02  0.81202591633E+02  0.83903918997E+02  0.00000000000E+00 0. -1.
          1    1    1    2  502    0  0.97123288186E+01  0.18753063856E+02 -0.55744941639E+01  0.21842200444E+02  0.00000000000E+00 0.  1.
</event>
<event>
 4    1  0.3664744E+003  0.3686721E+02  0.7546771E-02  0.1367891E+00
          2   -1    0    0  502    0  0.00000000000E+00  0.00000000000E+00  0.16249402968E+03  0.16249402968E+03  0.00000000000E+00 0.  1.
          1   -1    0    0  501    0 -0.00000000000E+00 -0.00000000000E+00 -0.82592607585E+02  0.82592607585E+02  0.00000000000E+00 0.  1.
          2    1    1    2  501    0  0.34561242066E+02  0.12834003480E+02  0.15612313916E+03  0.16041703675E+03  0.00000000000E+00 0.  1.
          1    1    1    2  502    0 -0.34561242066E+02 -0.12834003480E+02 -0.76221717067E+02  0.84669600513E+02  0.00000000000E+00 0.  1.
</event>
<event>
 4    1  0.3664744E+003  0.2121823E+02  0.7546771E-02  0.1516172E+00
          2   -1    0    0  502    0  0.00000000000E+00  0.00000000000E+00  0.23477276303E+02  0.23477276303E+02  0.00000000000E+00 0.  1.
          1   -1    0    0  501    0 -0.00000000000E+00 -0.00000000000E+00 -0.22449734542E+02  0.22449734542E+02  0.00000000000E+00 0.  1.
          2    1    1    2  501    0 -0.12734518301E+02 -0.16971901850E+02  0.92821058121E+01  0.23159682577E+02  0.00000000000E+00 0.  1.
          1    1    1    2  502    0  0.12734518301E+02  0.16971901850E+02 -0.82545640514E+01  0.22767328268E+02  0.00000000000E+00 0.  1.
</event>
<event>
 4    1  0.3664744E+003  0.3644526E+02  0.7546771E-02  0.1370678E+00
          2   -1    0    0  502    0  0.00000000000E+00  0.00000000000E+00  0.70055750602E+03  0.70055750602E+03  0.00000000000E+00 0.  1.
          1   -1    0    0  501    0 -0.00000000000E+00 -0.00000000000E+00 -0.11864961145E+02  0.11864961145E+02  0.00000000000E+00 0. -1.
          2    1    1    2  501    0  0.36222366407E+02  0.40245892414E+01  0.67085846200E+03  0.67184770088E+03  0.00000000000E+00 0.  1.
          1    1    1    2  502    0 -0.36222366407E+02 -0.40245892414E+01  0.17834082874E+02  0.40574766280E+02  0.00000000000E+00 0. -1.
</event>
<event>
 4    1  0.3664744E+003  0.2034868E+02  0.7546771E-02  0.1528771E+00
          2   -1    0    0  502    0  0.00000000000E+00  0.00000000000E+00  0.31591933954E+03  0.31591933954E+03  0.00000000000E+00 0. -1.
          1   -1    0    0  501    0 -0.00000000000E+00 -0.00000000000E+00 -0.13747533199E+01  0.13747533199E+01  0.00000000000E+00 0. -1.
          2    1    1    2  501    0 -0.57678929400E+01 -0.19514099129E+02  0.19152253523E+03  0.19260049365E+03  0.00000000000E+00 0. -1.
          1    1    1    2  502    0  0.57678929400E+01  0.19514099129E+02  0.12302205099E+03  0.12469359921E+03  0.00000000000E+00 0. -1.
</event>
<event>
 4    1  0.3664744E+003  0.2186339E+02  0.7546771E-02  0.1507286E+00
          2   -1    0    0  502    0  0.00000000000E+00  0.00000000000E+00  0.33973337599E+03  0.33973337599E+03  0.00000000000E+00 0.  1.
          1   -1    0    0  501    0 -0.00000000000E+00 -0.00000000000E+00 -0.23113926307E+02  0.23113926307E+02  0.00000000000E+00 0. -1.
          2    1    1    2  501    0 -0.18359990772E+02  0.11870920977E+02  0.33412480112E+03  0.33483935066E+03  0.00000000000E+00 0.  1.
          1    1    1    2  502    0  0.18359990772E+02 -0.11870920977E+02 -0.17505351438E+02  0.28007951638E+02  0.00000000000E+00 0. -1.
</event>
<event>
 4    1  0.3664744E+003  0.2091664E+02  0.7546771E-02  0.1520458E+00
          2   -1    0    0  502    0  0.00000000000E+00  0.00000000000E+00  0.33467783394E+03  0.33467783394E+03  0.00000000000E+00 0.  1.
          1   -1    0    0  501    0 -0.00000000000E+00 -0.00000000000E+00 -0.16533360543E+02  0.16533360543E+02  0.00000000000E+00 0.  1.
          2    1    1    2  501    0 -0.18602320612E+02 -0.95634372968E+01  0.32759258879E+03  0.32825966840E+03  0.00000000000E+00 0.  1.
          1    1    1    2  502    0  0.18602320612E+02  0.95634372968E+01 -0.94481153952E+01  0.22951526085E+02  0.00000000000E+00 0.  1.
</event>
<event>
 4    1  0.3664744E+003  0.3195931E+02  0.7546771E-02  0.1403301E+00
          2   -1    0    0  502    0  0.00000000000E+00  0.00000000000E+00  0.13552650751E+02  0.13552650751E+02  0.00000000000E+00 0.  1.
          1   -1    0    0  501    0 -0.00000000000E+00 -0.00000000000E+00 -0.16243888266E+03  0.16243888266E+03  0.00000000000E+00 0. -1.
          2    1    1    2  501    0 -0.24208530049E+02  0.20864911716E+02 -0.10017232849E+02  0.33492423352E+02  0.00000000000E+00 0.  1.
          1    1    1    2  502    0  0.24208530049E+02 -0.20864911716E+02 -0.13886899906E+03  0.14249911006E+03  0.00000000000E+00 0. -1.
</event>
<event>
 4    1  0.3664744E+003  0.2181378E+02  0.7546771E-02  0.1507956E+00
          2   -1    0    0  502    0  0.00000000000E+00  0.00000000000E+00  0.32479970796E+01  0.32479970796E+01  0.00000000000E+00 0.  1.
          1   -1    0    0  501    0 -0.00000000000E+00 -0.00000000000E+00 -0.20876280746E+03  0.20876280746E+03  0.00000000000E+00 0.  1.
          2    1    1    2  501    0  0.19841256171E+02  0.90645280762E+01 -0.44867140406E+02  0.49888890586E+02  0.00000000000E+00 0.  1.
          1    1    1    2  502    0 -0.19841256171E+02 -0.90645280762E+01 -0.16064766997E+03  0.16212191395E+03  0.00000000000E+00 0.  1.
</event>
<event>
 4    1  0.3664744E+003  0.2110462E+02  0.7546771E-02  0.1517776E+00
          2   -1    0    0  502    0  0.00000000000E+00  0.00000000000E+00  0.34431351526E+03  0.34431351526E+03  0.00000000000E+00 0. -1.
          1   -1    0    0  501    0 -0.00000000000E+00 -0.00000000000E+00 -0.13561895165E+03  0.13561895165E+03  0.00000000000E+00 0.  1.
          2    1    1    2  501    0  0.13377366174E+01 -0.21062176920E+02  0.34316631307E+03  0.34381466412E+03  0.00000000000E+00 0. -1.
          1    1    1    2  502    0 -0.13377366174E+01  0.21062176920E+02 -0.13447174946E+03  0.13611780279E+03  0.00000000000E+00 0.  1.
</event>
<event>
 4    1  0.3664744E+003  0.2455517E+02  0.7546771E-02  0.1473842E+00
          2   -1    0    0  502    0  0.00000000000E+00  0.00000000000E+00  0.99560171350E+01  0.99560171350E+01  0.00000000000E+00 0. -1.
          1   -1    0    0  501    0 -0.00000000000E+00 -0.00000000000E+00 -0.83066388071E+03  0.83066388071E+03  0.00000000000E+00 0.  1.
          2    1    1    2  501    0  0.10792419798E+02 -0.22056295724E+02 -0.56558991436E+01  0.25198128924E+02  0.00000000000E+00 0. -1.
          1    1    1    2  502    0 -0.10792419798E+02  0.22056295724E+02 -0.81505196443E+03  0.81542176892E+03  0.00000000000E+00 0.  1.
</event>
<event>
 4    1  0.3664744E+003  0.2450747E+02  0.7546771E-02  0.1474389E+00
          2   -1    0    0  502    0  0.00000000000E+00  0.00000000000E+00  0.15069224641E+04  0.15069224641E+04  0.00000000000E+00 0. -1.
          1   -1    0    0  501    0 -0.00000000000E+00 -0.00000000000E+00 -0.61987569597E+00  0.61987569597E+00  0.00000000000E+00 0. -1.
          2    1    1    2  501    0 -0.17983432814E+02 -0.16649687508E+02  0.12035346171E+04  0.12037841129E+04  0.00000000000E+00 0. -1.
          1    1    1    2  502    0  0.17983432814E+02  0.16649687508E+02  0.30276797128E+03  0.30375822685E+03  0.00000000000E+00 0. -1.
</event>
<event>
 4    1  0.3664744E+003  0.2286608E+02  0.7546771E-02  0.1494187E+00
          2   -1    0    0  502    0  0.00000000000E+00  0.00000000000E+00  0.69980235799E+02  0.69980235799E+02  0.00000000000E+00 0.  1.
          1   -1    0    0  501    0 -0.00000000000E+00 -0.00000000000E+00 -0.42672930974E+03  0.42672930974E+03  0.00000000000E+00 0. -1.
          2    1    1    2  501    0  0.80252102200E+01  0.21411533551E+02  0.67796441138E+02  0.71548691107E+02  0.00000000000E+00 0.  1.
          1    1    1    2  502    0 -0.80252102200E+01 -0.21411533551E+02 -0.42454551508E+03  0.42516085443E+03  0.00000000000E+00 0. -1.
</event>
<event>
 4    1  0.3664744E+003  0.3126483E+02  0.7546771E-02  0.1408914E+00
          2   -1    0    0  502    0  0.00000000000E+00  0.00000000000E+00  0.74508872484E+03  0.74508872484E+03  0.00000000000E+00 0.  1.
          1   -1    0    0  501    0 -0.00000000000E+00 -0.00000000000E+00 -0.10070609180E+03  0.10070609180E+03  0.00000000000E+00 0.  1.
          2    1    1    2  501    0 -0.12471138433E+02 -0.28669852399E+02  0.74232512690E+03  0.74298323249E+03  0.00000000000E+00 0.  1.
          1    1    1    2  502    0  0.12471138433E+02  0.28669852399E+02 -0.97942493870E+02  0.10281158415E+03  0.00000000000E+00 0.  1.
</event>
<event>
 4    1  0.3664744E+003  0.2032377E+02  0.7546771E-02  0.1529143E+00
          2   -1    0    0  502    0  0.00000000000E+00  0.00000000000E+00  0.12260274045E+04  0.12260274045E+04  0.00000000000E+00 0. -1.
          1   -1    0    0  501    0 -0.00000000000E+00 -0.00000000000E+00 -0.16722041332E+02  0.16722041332E+02  0.00000000000E+00 0. -1.
          2    1    1    2  501    0 -0.13290855973E+02 -0.15375588847E+02  0.12197360116E+04  0.12199053216E+04  0.00000000000E+00 0. -1.
          1    1    1    2  502    0  0.13290855973E+02  0.15375588847E+02 -0.10430648462E+02  0.22844124239E+02  0.00000000000E+00 0. -1.
</event>
<event>
 4    1  0.3664744E+003  0.4267639E+02  0.7546771E-02  0.1333478E+00
          2   -1    0    0  502    0  0.00000000000E+00  0.00000000000E+00  0.42354731744E+01  0.42354731744E+01  0.00000000000E+00 0. -1.
          1   -1    0    0  501    0 -0.00000000000E+00 -0.00000000000E+00 -0.82414759950E+03  0.82414759950E+03  0.00000000000E+00 0.  1.
          2    1    1    2  501    0  0.38892167257E+02  0.17569106476E+02 -0.12352146811E+03  0.13068598723E+03  0.00000000000E+00 0. -1.
          1    1    1    2  502    0 -0.38892167257E+02 -0.17569106476E+02 -0.69639065822E+03  0.69769708544E+03  0.00000000000E+00 0.  1.
</event>
<event>
 4    1  0.3664744E+003  0.2470260E+02  0.7546771E-02  0.1472158E+00
          2   -1    0    0  502    0  0.00000000000E+00  0.00000000000E+00  0.73849374089E+02  0.73849374089E+02  0.00000000000E+00 0. -1.
          1   -1    0    0  501    0 -0.00000000000E+00 -0.00000000000E+00 -0.56560374821E+02  0.56560374821E+02  0.00000000000E+00 0. -1.
          2    1    1    2  501    0 -0.20957952106E+02 -0.13076036663E+02  0.68898462941E+02  0.73193009823E+02  0.00000000000E+00 0. -1.
          1    1    1    2  502    0  0.20957952106E+02  0.13076036663E+02 -0.51609463672E+02  0.57216739088E+02  0.00000000000E+00 0. -1.
</event>
<event>
 4    1  0.3664744E+003  0.3576347E+02  0.7546771E-02  0.1375274E+00
          2   -1    0    0  502    0  0.00000000000E+00  0.00000000000E+00  0.41071203549E+02  0.41071203549E+02  0.00000000000E+00 0.  1.
          1   -1    0    0  501    0 -0.00000000000E+00 -0.00000000000E+00 -0.31297101623E+02  0.31297101623E+02  0.00000000000E+00 0. -1.
          2    1    1    2  501    0  0.25903041416E+02  0.24658811109E+02  0.23368061706E+01  0.35839715163E+02  0.00000000000E+00 0.  1.
          1    1    1    2  502    0 -0.25903041416E+02 -0.24658811109E+02  0.74372957554E+01  0.36528590009E+02  0.00000000000E+00 0. -1.
</event>
<event>
 4    1  0.3664744E+003  0.3339868E+02  0.7546771E-02  0.1392184E+00
          2   -1    0    0  502    0  0.00000000000E+00  0.00000000000E+00  0.54302977307E+02  0.54302977307E+02  0.00000000000E+00 0.  1.
          1   -1    0    0  501    0 -0.00000000000E+00 -0.00000000000E+00 -0.28409452938E+02  0.28409452938E+02  0.00000000000E+00 0.  1.
          2    1    1    2  501    0 -0.21523992701E+02  0.25538001716E+02  0.34710654843E+02  0.48169506465E+02  0.00000000000E+00 0.  1.
          1    1    1    2  502    0  0.21523992701E+02 -0.25538001716E+02 -0.88171304740E+01  0.34542923780E+02  0.00000000000E+00 0.  1.
</event>
<event>
 4    1  0.3664744E+003  0.2539228E+02  0.7546771E-02  0.1464462E+00
          2   -1    0    0  502    0  0.00000000000E+00  0.00000000000E+00  0.40403774077E+03  0.40403774077E+03  0.00000000000E+00 0. -1.
          1   -1    0    0  501    0 -0.00000000000E+00 -0.00000000000E+00 -0.20285270364E+01  0.20285270364E+01  0.00000000000E+00 0. -1.
          2    1    1    2  501    0 -0.24456656986E+02 -0.68293227515E+01  0.29477769118E+03  0.29586932071E+03  0.00000000000E+00 0. -1.
          1    1    1    2  502    0  0.24456656986E+02  0.68293227515E+01  0.10723152256E+03  0.11019694710E+03  0.00000000000E+00 0. -1.
</event>
<event>
 4    1  0.3664744E+003  0.2224266E+02  0.7546771E-02  0.1502233E+00
          2   -1    0    0  502    0  0.00000000000E+00  0.00000000000E+00  0.96392273498E+01  0.96392273498E+01  0.00000000000E+00 0.  1.
          1   -1    0    0  501    0 -0.00000000000E+00 -0.00000000000E+00 -0.31820679289E+03  0.31820679289E+03  0.00000000000E+00 0. -1.
          2    1    1    2  501    0 -0.63704237303E+01 -0.21310882214E+02 -0.41617466033E+01  0.22628657362E+02  0.00000000000E+00 0.  1.
          1    1    1    2  502    0  0.63704237303E+01  0.21310882214E+02 -0.30440581894E+03  0.30521736288E+03  0.00000000000E+00 0. -1.
</event>
<event>
 4    1  0.3664744E+003  0.2490674E+02  0.7546771E-02  0.1469849E+00
          2   -1    0    0  502    0  0.00000000000E+00  0.00000000000E+00  0.36934616375E+02  0.36934616375E+02  0.00000000000E+00 0. -1.
          1   -1    0    0  501    0 -0.00000000000E+00 -0.00000000000E+00 -0.32978077871E+02  0.32978077871E+02  0.00000000000E+00 0. -1.
          2    1    1    2  501    0 -0.42712253770E+01 -0.24537758931E+02 -0.22508626242E+02  0.33570570965E+02  0.00000000000E+00 0. -1.
          1    1    1    2  502    0  0.42712253770E+01  0.24537758931E+02  0.26465164746E+02  0.36342123282E+02  0.00000000000E+00 0. -1.
</event>
<event>
 4    1  0.3664744E+003  0.2167876E+02  0.7546771E-02  0.1509791E+00
          2   -1    0    0  502    0  0.00000000000E+00  0.00000000000E+00  0.10928029604E+02  0.10928029604E+02  0.00000000000E+00 0.  1.
          1   -1    0    0  501    0 -0.00000000000E+00 -0.00000000000E+00 -0.47435425940E+03  0.47435425940E+03  0.00000000000E+00 0.  1.
          2    1    1    2  501    0  0.21628501217E+02  0.14752930989E+01 -0.33239190425E+00  0.21681306211E+02  0.00000000000E+00 0.  1.
          1    1    1    2  502    0 -0.21628501217E+02 -0.14752930989E+01 -0.46309383789E+03  0.46360098279E+03  0.00000000000E+00 0.  1.
</event>
<event>
 4    1  0.3664744E+003  0.2161241E+02  0.7546771E-02  0.1510698E+00
          2   -1    0    0  502    0  0.00000000000E+00  0.00000000000E+00  0.52427336178E+03  0.52427336178E+03  0.00000000000E+00 0.  1.
          1   -1    0    0  501    0 -0.00000000000E+00 -0.00000000000E+00 -0.21533541638E+02  0.21533541638E+02  0.00000000000E+00 0. -1.
          2    1    1    2  501    0 -0.71455777524E+01 -0.20396986008E+02  0.51856809770E+03  0.51901827355E+03  0.00000000000E+00 0.  1.
          1    1    1    2  502    0  0.71455777524E+01  0.20396986008E+02 -0.15828277564E+02  0.26788629869E+02  0.00000000000E+00 0. -1.
</event>
<event>
 4    1  0.3664744E+003  0.5683809E+02  0.7546771E-02  0.1270971E+00
          2   -1    0    0  502    0  0.00000000000E+00  0.00000000000E+00  0.10322462333E+03  0.10322462333E+03  0.00000000000E+00 0. -1.
          1   -1    0    0  501    0 -0.00000000000E+00 -0.00000000000E+00 -0.12873478098E+03  0.12873478098E+03  0.00000000000E+00 0.  1.
          2    1    1    2  501    0  0.49542644659E+02 -0.27858480456E+02  0.88146709847E+02  0.10488284431E+03  0.00000000000E+00 0. -1.
          1    1    1    2  502    0 -0.49542644659E+02  0.27858480456E+02 -0.11365686750E+03  0.12707656000E+03  0.00000000000E+00 0.  1.
</event>
<event>
 4    1  0.3664744E+003  0.2390409E+02  0.7546771E-02  0.1481447E+00
          2   -1    0    0  502    0  0.00000000000E+00  0.00000000000E+00  0.14687134033E+03  0.14687134033E+03  0.00000000000E+00 0. -1.
          1   -1    0    0  501    0 -0.00000000000E+00 -0.00000000000E+00 -0.52551678395E+01  0.52551678395E+01  0.00000000000E+00 0.  1.
          2    1    1    2  501    0  0.17871231197E+02 -0.15875288307E+02  0.10956883182E+03  0.11214604135E+03  0.00000000000E+00 0. -1.
          1    1    1    2  502    0 -0.17871231197E+02  0.15875288307E+02  0.32047340670E+02  0.39980466822E+02  0.00000000000E+00 0.  1.
</event>
<event>
 4    1  0.3664744E+003  0.2489456E+02  0.7546771E-02  0.1469986E+00
          2   -1    0    0  502    0  0.00000000000E+00  0.00000000000E+00  0.49753670654E+03  0.49753670654E+03  0.00000000000E+00 0.  1.
          1   -1    0    0  501    0 -0.00000000000E+00 -0.00000000000E+00 -0.24180655756E+01  0.24180655756E+01  0.00000000000E+00 0.  1.
          2    1    1    2  501    0  0.13494984353E+01  0.24857956516E+02  0.42162532912E+03  0.42235963029E+03  0.00000000000E+00 0.  1.
          1    1    1    2  502    0 -0.13494984353E+01 -0.24857956516E+02  0.73493311848E+02  0.77595141824E+02  0.00000000000E+00 0.  1.
</event>
<event>
 4    1  0.3664744E+003  0.3135471E+02  0.7546771E-02  0.1408178E+00
          2   -1    0    0  502    0  0.00000000000E+00  0.00000000000E+00  0.12372258614E+03  0.12372258614E+03  0.00000000000E+00 0. -1.
          1   -1    0    0  501    0 -0.00000000000E+00 -0.00000000000E+00 -0.61623703881E+02  0.61623703881E+02  0.00000000000E+00 0. -1.
          2    1    1    2  501    0  0.24233154626E+02  0.19896534242E+02  0.11754152746E+03  0.12165166886E+03  0.00000000000E+00 0. -1.
          1    1    1    2  502    0 -0.24233154626E+02 -0.19896534242E+02 -0.55442645203E+02  0.63694621163E+02  0.00000000000E+00 0. -1.
</event>
<event>
 4    1  0.3664744E+003  0.3536680E+02  0.7546771E-02  0.1378003E+00
          2   -1    0    0  502    0  0.00000000000E+00  0.00000000000E+00  0.80518777865E+02  0.80518777865E+02  0.00000000000E+00 0. -1.
          1   -1    0    0  501    0 -0.00000000000E+00 -0.00000000000E+00 -0.48146199910E+03  0.48146199910E+03  0.00000000000E+00 0. -1.
          2    1    1    2  501    0  0.54301465633E+00 -0.35362632305E+02  0.75948525960E+02  0.83779408114E+02  0.00000000000E+00 0. -1.
          1    1    1    2  502    0 -0.54301465633E+00  0.35362632305E+02 -0.47689174720E+03  0.47820136885E+03  0.00000000000E+00 0. -1.
</event>
<event>
 4    1  0.3664744E+003  0.4035138E+02  0.7546771E-02  0.1346439E+00
          2   -1    0    0  502    0  0.00000000000E+00  0.00000000000E+00  0.23767045021E+02  0.23767045021E+02  0.00000000000E+00 0. -1.
          1   -1    0    0  501    0 -0.00000000000E+00 -0.00000000000E+00 -0.14870169908E+03  0.14870169908E+03  0.00000000000E+00 0. -1.
          2    1    1    2  501    0  0.40326893674E+02 -0.14055851194E+01  0.86018333757E+00  0.40360549281E+02  0.00000000000E+00 0. -1.
          1    1    1    2  502    0 -0.40326893674E+02  0.14055851194E+01 -0.12579483739E+03  0.13210819482E+03  0.00000000000E+00 0. -1.
</event>
<event>
 4    1  0.3664744E+003  0.2101770E+02  0.7546771E-02  0.1519012E+00
          2   -1    0    0  502    0  0.00000000000E+00  0.00000000000E+00  0.18477273347E+03  0.18477273347E+03  0.00000000000E+00 0.  1.
          1   -1    0    0  501    0 -0.00000000000E+00 -0.00000000000E+00 -0.78398714747E+03  0.78398714747E+03  0.00000000000E+00 0. -1.
          2    1    1    2  501    0 -0.85375669562E+00 -0.21000353029E+02  0.18403361987E+03  0.18522990302E+03  0.00000000000E+00 0.  1.
          1    1    1    2  502    0  0.85375669562E+00  0.21000353029E+02 -0.78324803388E+03  0.78352997792E+03  0.00000000000E+00 0. -1.
</event>
<event>
 4    1  0.3664744E+003  0.2124815E+02  0.7546771E-02  0.1515751E+00
          2   -1    0    0  502    0  0.00000000000E+00  0.00000000000E+00  0.85998846290E+03  0.85998846290E+03  0.00000000000E+00 0. -1.
          1   -1    0    0  501    0 -0.00000000000E+00 -0.00000000000E+00 -0.94020977926E+00  0.94020977926E+00  0.00000000000E+00 0. -1.
          2    1    1    2  501    0 -0.59362744165E+01 -0.20402071627E+02  0.71558911013E+03  0.71590450370E+03  0.00000000000E+00 0. -1.
          1    1    1    2  502    0  0.59362744165E+01  0.20402071627E+02  0.14345914300E+03  0.14502416898E+03  0.00000000000E+00 0. -1.
</event>
<event>
 4    1  0.3664744E+003  0.2198896E+02  0.7546771E-02  0.1505600E+00
          2   -1    0    0  502    0  0.00000000000E+00  0.00000000000E+00  0.88430750865E+03  0.88430750865E+03  0.00000000000E+00 0.  1.
          1   -1    0    0  501    0 -0.00000000000E+00 -0.00000000000E+00 -0.58846460047E+00  0.58846460047E+00  0.00000000000E+00 0.  1.
          2    1    1    2  501    0 -0.12600725735E+01 -0.21952825548E+02  0.55962907651E+03  0.56006090527E+03  0.00000000000E+00 0.  1.
          1    1    1    2  502    0  0.12600725735E+01  0.21952825548E+02  0.32408996753E+03  0.32483506798E+03  0.00000000000E+00 0.  1.
</event>
<event>
 4    1  0.3664744E+003  0.2327151E+02  0.7546771E-02  0.1489117E+00
          2   -1    0    0  502    0  0.00000000000E+00  0.00000000000E+00  0.43239256513E+03  0.43239256513E+03  0.00000000000E+00 0. -1.
          1   -1    0    0  501    0 -0.00000000000E+00 -0.00000000000E+00 -0.73451403131E+02  0.73451403131E+02  0.00000000000E+00 0. -1.
          2    1    1    2  501    0  0.90615088533E+01  0.21434840015E+02  0.43022690234E+03  0.43085583529E+03  0.00000000000E+00 0. -1.
          1    1    1    2  502    0 -0.90615088533E+01 -0.21434840015E+02 -0.71285740344E+02  0.74988132965E+02  0.00000000000E+00 0. -1.
</event>
<event>
 4    1  0.3664744E+003  0.2207771E+02  0.7546771E-02  0.1504416E+00
          2   -1    0    0  502    0  0.00000000000E+00  0.00000000000E+00  0.90544949027E+00  0.90544949027E+00  0.00000000000E+00 0. -1.
          1   -1    0    0  501    0 -0.00000000000E+00 -0.00000000000E+00 -0.54694122970E+03  0.54694122970E+03  0.00000000000E+00 0. -1.
          2    1    1    2  501    0  0.20573392871E+02 -0.80100006253E+01 -0.30740208674E+03  0.30819387979E+03  0.00000000000E+00 0. -1.
          1    1    1    2  502    0 -0.20573392871E+02  0.80100006253E+01 -0.23863369347E+03  0.23965279941E+03  0.00000000000E+00 0. -1.
</event>
<event>
 4    1  0.3664744E+003  0.2652953E+02  0.7546771E-02  0.1452392E+00
          2   -1    0    0  502    0  0.00000000000E+00  0.00000000000E+00  0.23220616985E+03  0.23220616985E+03  0.00000000000E+00 0. -1.
          1   -1    0    0  501    0 -0.00000000000E+00 -0.00000000000E+00 -0.35098851607E+01  0.35098851607E+01  0.00000000000E+00 0. -1.
          2    1    1    2  501    0 -0.20891082919E+02 -0.16351714696E+02  0.15788231766E+03  0.16009572808E+03  0.00000000000E+00 0. -1.
          1    1    1    2  502    0  0.20891082919E+02  0.16351714696E+02  0.70813967024E+02  0.75620326927E+02  0.00000000000E+00 0. -1.
</event>
<event>
 4    1  0.3664744E+003  0.2061769E+02  0.7546771E-02  0.1524794E+00
          2   -1    0    0  502    0  0.00000000000E+00  0.00000000000E+00  0.71824405951E+02  0.71824405951E+02  0.00000000000E+00 0. -1.
          1   -1    0    0  501    0 -0.00000000000E+00 -0.00000000000E+00 -0.46543377631E+02  0.46543377631E+02  0.00000000000E+00 0.  1.
          2    1    1    2  501    0 -0.19435680696E+02  0.68806701083E+01  0.67933604145E+02  0.70993407281E+02  0.00000000000E+00 0. -1.
          1    1    1    2  502    0  0.19435680696E+02 -0.68806701083E+01 -0.42652575825E+02  0.47374376300E+02  0.00000000000E+00 0.  1.
</event>
<event>
 4    1  0.3664744E+003  0.3548761E+02  0.7546771E-02  0.1377167E+00
          2   -1    0    0  502    0  0.00000000000E+00  0.00000000000E+00  0.63277227890E+02  0.63277227890E+02  0.00000000000E+00 0.  1.
          1   -1    0    0  501    0 -0.00000000000E+00 -0.00000000000E+00 -0.10021191319E+04  0.10021191319E+04  0.00000000000E+00 0.  1.
          2    1    1    2  501    0  0.22260122428E+02  0.27637968371E+02  0.57960916269E+02  0.67962034702E+02  0.00000000000E+00 0.  1.
          1    1    1    2  502    0 -0.22260122428E+02 -0.27637968371E+02 -0.99680282028E+03  0.99743432509E+03  0.00000000000E+00 0.  1.
</event>
<event>
 4    1  0.3664744E+003  0.2087511E+02  0.7546771E-02  0.1521055E+00
          2   -1    0    0  502    0  0.00000000000E+00  0.00000000000E+00  0.42645908353E+03  0.42645908353E+03  0.00000000000E+00 0. -1.
          1   -1    0    0  501    0 -0.00000000000E+00 -0.00000000000E+00 -0.48710192495E+02  0.48710192495E+02  0.00000000000E+00 0. -1.
          2    1    1    2  501    0  0.76239517006E+01  0.19433108611E+02  0.42395387091E+03  0.42446749582E+03  0.00000000000E+00 0. -1.
          1    1    1    2  502    0 -0.76239517006E+01 -0.19433108611E+02 -0.46204979879E+02  0.50701780199E+02  0.00000000000E+00 0. -1.
</event>
<event>
 4    1  0.3664744E+003  0.4046790E+02  0.7546771E-02  0.1345766E+00
          2   -1    0    0  502    0  0.00000000000E+00  0.00000000000E+00  0.14221264777E+03  0.14221264777E+03  0.00000000000E+00 0.  1.
          1   -1    0    0  501    0 -0.00000000000E+00 -0.00000000000E+00 -0.24586660008E+02  0.24586660008E+02  0.00000000000E+00 0.  1.
          2    1    1    2  501    0  0.35124264054E+02  0.20098179096E+02  0.11962249369E+03  0.12628219085E+03  0.00000000000E+00 0.  1.
          1    1    1    2  502    0 -0.35124264054E+02 -0.20098179096E+02 -0.19965059310E+01  0.40517116929E+02  0.00000000000E+00 0.  1.
</event>
<event>
 4    1  0.3664744E+003  0.2297194E+02  0.7546771E-02  0.1492851E+00
          2   -1    0    0  502    0  0.00000000000E+00  0.00000000000E+00  0.19062247669E+03  0.19062247669E+03  0.00000000000E+00 0. -1.
          1   -1    0    0  501    0 -0.00000000000E+00 -0.00000000000E+00 -0.36666187945E+02  0.36666187945E+02  0.00000000000E+00 0. -1.
          2    1    1    2  501    0 -0.20819381237E+02  0.97089416192E+01  0.18624812996E+03  0.18765946844E+03  0.00000000000E+00 0. -1.
          1    1    1    2  502    0  0.20819381237E+02 -0.97089416192E+01 -0.32291841210E+02  0.39629196197E+02  0.00000000000E+00 0. -1.
</event>
<event>
 4    1  0.3664744E+003  0.2752699E+02  0.7546771E-02  0.1442385E+00
          2   -1    0    0  502    0  0.00000000000E+00  0.00000000000E+00  0.32249949348E+02  0.32249949348E+02  0.00000000000E+00 0.  1.
          1   -1    0    0  501    0 -0.00000000000E+00 -0.00000000000E+00 -0.23908799332E+02  0.23908799332E+02  0.00000000000E+00 0.  1.
          2    1    1    2  501    0 -0.27292618619E+02  0.35842890587E+01  0.47951000580E+00  0.27531147614E+02  0.00000000000E+00 0.  1.
          1    1    1    2  502    0  0.27292618619E+02 -0.35842890587E+01  0.78616400108E+01  0.28627601066E+02  0.00000000000E+00 0.  1.
</event>
<event>
 4    1  0.3664744E+003  0.4035926E+02  0.7546771E-02  0.1346393E+00
          2   -1    0    0  502    0  0.00000000000E+00  0.00000000000E+00  0.85456387701E+01  0.85456387701E+01  0.00000000000E+00 0. -1.
          1   -1    0    0  501    0 -0.00000000000E+00 -0.00000000000E+00 -0.77866840412E+03  0.77866840412E+03  0.00000000000E+00 0. -1.
          2    1    1    2  501    0  0.39152106950E+02  0.97970756045E+01 -0.43005237002E+02  0.58977288668E+02  0.00000000000E+00 0. -1.
          1    1    1    2  502    0 -0.39152106950E+02 -0.97970756045E+01 -0.72711752834E+03  0.72823675422E+03  0.00000000000E+00 0. -1.
</event>
<event>
 4    1  0.3664744E+003  0.4072939E+02  0.7546771E-02  0.1344264E+00
          2   -1    0    0  502    0  0.00000000000E+00  0.00000000000E+00  0.27706834039E+03  0.27706834039E+03  0.00000000000E+00 0. -1.
          1   -1    0    0  501    0 -0.00000000000E+00 -0.00000000000E+00 -0.13755017556E+03  0.13755017556E+03  0.00000000000E+00 0. -1.
          2    1    1    2  501    0  0.40244750885E+02  0.62644201147E+01  0.27250627577E+03  0.27553321627E+03  0.00000000000E+00 0. -1.
          1    1    1    2  502    0 -0.40244750885E+02 -0.62644201147E+01 -0.13298811095E+03  0.13908529968E+03  0.00000000000E+00 0. -1.
</event>
<event>
 4    1  0.3664744E+003  0.4318741E+02  0.7546771E-02  0.1330756E+00
          2   -1    0    0  502    0  0.00000000000E+00  0.00000000000E+00  0.13359683957E+04  0.13359683957E+04  0.00000000000E+00 0. -1.
          1   -1    0    0  501    0 -0.00000000000E+00 -0.00000000000E+00 -0.20977979339E+01  0.20977979339E+01  0.00000000000E+00 0. -1.
          2    1    1    2  501    0  0.37396174662E+02 -0.21602750086E+02  0.10538713579E+04  0.10547558920E+04  0.00000000000E+00 0. -1.
          1    1    1    2  502    0 -0.37396174662E+02  0.21602750086E+02  0.27999923986E+03  0.28331030164E+03  0.00000000000E+00 0. -1.
</event>
<event>
 4    1  0.3664744E+003  0.2520606E+02  0.7546771E-02  0.1466511E+00
          2   -1    0    0  502    0  0.00000000000E+00  0.00000000000E+00  0.22011968065E+02  0.22011968065E+02  0.00000000000E+00 0.  1.
          1   -1    0    0  501    0 -0.00000000000E+00 -0.00000000000E+00 -0.83884817669E+02  0.83884817669E+02  0.00000000000E+00 0.  1.
          2    1    1    2  501    0  0.24277125519E+02  0.67798736594E+01  0.11945674986E+02  0.27893451941E+02  0.00000000000E+00 0.  1.
          1    1    1    2  502    0 -0.24277125519E+02 -0.67798736594E+01 -0.73818524590E+02  0.78003333793E+02  0.00000000000E+00 0.  1.
</event>
<event>
 4    1  0.3664744E+003  0.4082618E+02  0.7546771E-02  0.1343711E+00
          2   -1    0    0  502    0  0.00000000000E+00  0.00000000000E+00  0.23428328728E+03  0.23428328728E+03  0.00000000000E+00 0. -1.
          1   -1    0    0  501    0 -0.00000000000E+00 -0.00000000000E+00 -0.44445462892E+02  0.44445462892E+02  0.00000000000E+00 0. -1.
          2    1    1    2  501    0 -0.57025781968E+01  0.40425950684E+02  0.22264318376E+03  0.22635539349E+03  0.00000000000E+00 0. -1.
          1    1    1    2  502    0  0.57025781968E+01 -0.40425950684E+02 -0.32805359372E+02  0.52373356683E+02  0.00000000000E+00 0. -1.
</event>
<event>
 4    1  0.3664744E+003  0.3836150E+02  0.7546771E-02  0.1358364E+00
          2   -1    0    0  502    0  0.00000000000E+00  0.00000000000E+00  0.29011534262E+04  0.29011534262E+04  0.00000000000E+00 0. -1.
          1   -1    0    0  501    0 -0.00000000000E+00 -0.00000000000E+00 -0.33352007554E+01  0.33352007554E+01  0.00000000000E+00 0.  1.
          2    1    1    2  501    0  0.26393644859E+02 -0.27838461380E+02  0.27861657598E+04  0.27864298386E+04  0.00000000000E+00 0. -1.
          1    1    1    2  502    0 -0.26393644859E+02  0.27838461380E+02  0.11165246566E+03  0.11805878836E+03  0.00000000000E+00 0.  1.
</event>
<event>
 4    1  0.3664744E+003  0.2271375E+02  0.7546771E-02  0.1496124E+00
          2   -1    0    0  502    0  0.00000000000E+00  0.00000000000E+00  0.86075016223E+01  0.86075016223E+01  0.00000000000E+00 0.  1.
          1   -1    0    0  501    0 -0.00000000000E+00 -0.00000000000E+00 -0.84186258406E+03  0.84186258406E+03  0.00000000000E+00 0. -1.
          2    1    1    2  501    0  0.12088213976E+02  0.19229906496E+02 -0.68096182282E+01  0.23712551980E+02  0.00000000000E+00 0.  1.
          1    1    1    2  502    0 -0.12088213976E+02 -0.19229906496E+02 -0.82644546421E+03  0.82675753370E+03  0.00000000000E+00 0. -1.
</event>
<event>
 4    1  0.3664744E+003  0.2131121E+02  0.7546771E-02  0.1514868E+00
          2   -1    0    0  502    0  0.00000000000E+00  0.00000000000E+00  0.12049224921E+01  0.12049224921E+01  0.00000000000E+00 0. -1.
          1   -1    0    0  501    0 -0.00000000000E+00 -0.00000000000E+00 -0.40188421788E+03  0.40188421788E+03  0.00000000000E+00 0. -1.
          2    1    1    2  501    0 -0.16933286785E+01  0.21243826540E+02 -0.15011454643E+03  0.15161973677E+03  0.00000000000E+00 0. -1.
          1    1    1    2  502    0  0.16933286785E+01 -0.21243826540E+02 -0.25056474896E+03  0.25146940360E+03  0.00000000000E+00 0. -1.
</event>
<event>
 4    1  0.3664744E+003  0.2463246E+02  0.7546771E-02  0.1472957E+00
          2   -1    0    0  502    0  0.00000000000E+00  0.00000000000E+00  0.21915162405E+02  0.21915162405E+02  0.00000000000E+00 0. -1.
          1   -1    0    0  501    0 -0.00000000000E+00 -0.00000000000E+00 -0.74240371143E+03  0.74240371143E+03  0.00000000000E+00 0. -1.
          2    1    1    2  501    0  0.17117072444E+02  0.17713387574E+02  0.14721461679E+02  0.28696336044E+02  0.00000000000E+00 0. -1.
          1    1    1    2  502    0 -0.17117072444E+02 -0.17713387574E+02 -0.73521001071E+03  0.73562253779E+03  0.00000000000E+00 0. -1.
</event>
<event>
 4    1  0.3664744E+003  0.2023606E+02  0.7546771E-02  0.1530457E+00
          2   -1    0    0  502    0  0.00000000000E+00  0.00000000000E+00  0.15629790540E+03  0.15629790540E+03  0.00000000000E+00 0.  1.
          1   -1    0    0  501    0 -0.00000000000E+00 -0.00000000000E+00 -0.41310233540E+01  0.41310233540E+01  0.00000000000E+00 0. -1.
          2    1    1    2  501    0 -0.46124616438E+01 -0.19703380781E+02  0.12459684471E+03  0.12622944081E+03  0.00000000000E+00 0.  1.
          1    1    1    2  502    0  0.46124616438E+01  0.19703380781E+02  0.27570037337E+02  0.34199487941E+02  0.00000000000E+00 0. -1.
</event>
<event>
 4    1  0.3664744E+003  0.3407662E+02  0.7546771E-02  0.1387174E+00
          2   -1    0    0  502    0  0.00000000000E+00  0.00000000000E+00  0.84405507529E+03  0.84405507529E+03  0.00000000000E+00 0. -1.
          1   -1    0    0  501    0 -0.00000000000E+00 -0.00000000000E+00 -0.13578117587E+02  0.13578117587E+02  0.00000000000E+00 0. -1.
          2    1    1    2  501    0 -0.19337887572E+02 -0.28058193361E+02  0.82175078736E+03  0.82245703392E+03  0.00000000000E+00 0. -1.
          1    1    1    2  502    0  0.19337887572E+02  0.28058193361E+02  0.87261703419E+01  0.35176158961E+02  0.00000000000E+00 0. -1.
</event>
<event>
 4    1  0.3664744E+003  0.2949480E+02  0.7546771E-02  0.1424038E+00
          2   -1    0    0  502    0  0.00000000000E+00  0.00000000000E+00  0.20074181495E+03  0.20074181495E+03  0.00000000000E+00 0. -1.
          1   -1    0    0  501    0 -0.00000000000E+00 -0.00000000000E+00 -0.68198520968E+03  0.68198520968E+03  0.00000000000E+00 0. -1.
          2    1    1    2  501    0  0.24100868349E+02 -0.17002679948E+02  0.19933726887E+03  0.20150754264E+03  0.00000000000E+00 0. -1.
          1    1    1    2  502    0 -0.24100868349E+02  0.17002679948E+02 -0.68058066359E+03  0.68121948199E+03  0.00000000000E+00 0. -1.
</event>
<event>
 4    1  0.3664744E+003  0.2045138E+02  0.7546771E-02  0.1527244E+00
          2   -1    0    0  502    0  0.00000000000E+00  0.00000000000E+00  0.56606493987E+03  0.56606493987E+03  0.00000000000E+00 0. -1.
          1   -1    0    0  501    0 -0.00000000000E+00 -0.00000000000E+00 -0.35989450367E+02  0.35989450367E+02  0.00000000000E+00 0. -1.
          2    1    1    2  501    0 -0.62774180508E+01 -0.19464141668E+02  0.56295876578E+03  0.56333012591E+03  0.00000000000E+00 0. -1.
          1    1    1    2  502    0  0.62774180508E+01  0.19464141668E+02 -0.32883276283E+02  0.38724264322E+02  0.00000000000E+00 0. -1.
</event>
<event>
 4    1  0.3664744E+003  0.2082381E+02  0.7546771E-02  0.1521795E+00
          2   -1    0    0  502    0  0.00000000000E+00  0.00000000000E+00  0.60045856705E+01  0.60045856705E+01  0.00000000000E+00 0. -1.
          1   -1    0    0  501    0 -0.00000000000E+00 -0.00000000000E+00 -0.13995535064E+03  0.13995535064E+03  0.00000000000E+00 0. -1.
          2    1    1    2  501    0  0.10959548601E+02 -0.17706483457E+02 -0.16203035407E+02  0.26385026404E+02  0.00000000000E+00 0. -1.
          1    1    1    2  502    0 -0.10959548601E+02  0.17706483457E+02 -0.11774772956E+03  0.11957490990E+03  0.00000000000E+00 0. -1.
</event>
<event>
 4    1  0.3664744E+003  0.2019312E+02  0.7546771E-02  0.1531104E+00
          2   -1    0    0  502    0  0.00000000000E+00  0.00000000000E+00  0.29208252932E+03  0.29208252932E+03  0.00000000000E+00 0.  1.
          1   -1    0    0  501    0 -0.00000000000E+00 -0.00000000000E+00 -0.30260926347E+01  0.30260926347E+01  0.00000000000E+00 0.  1.
          2    1    1    2  501    0  0.61926830704E+01  0.19220116248E+02  0.25282364162E+03  0.25362877588E+03  0.00000000000E+00 0.  1.
          1    1    1    2  502    0 -0.61926830704E+01 -0.19220116248E+02  0.36232795070E+02  0.41479846080E+02  0.00000000000E+00 0.  1.
</event>
<event>
 4    1  0.3664744E+003  0.2104599E+02  0.7546771E-02  0.1518609E+00
          2   -1    0    0  502    0  0.00000000000E+00  0.00000000000E+00  0.52774682104E+01  0.52774682104E+01  0.00000000000E+00 0.  1.
          1   -1    0    0  501    0 -0.00000000000E+00 -0.00000000000E+00 -0.40514463325E+03  0.40514463325E+03  0.00000000000E+00 0.  1.
          2    1    1    2  501    0 -0.21045609522E+02 -0.12598163815E+00 -0.17210287727E+02  0.27186900433E+02  0.00000000000E+00 0.  1.
          1    1    1    2  502    0  0.21045609522E+02  0.12598163815E+00 -0.38265687732E+03  0.38323520103E+03  0.00000000000E+00 0.  1.
</event>
<event>
 4    1  0.3664744E+003  0.2516485E+02  0.7546771E-02  0.1466968E+00
          2   -1    0    0  502    0  0.00000000000E+00  0.00000000000E+00  0.10154166261E+03  0.10154166261E+03  0.00000000000E+00 0. -1.
          1   -1    0    0  501    0 -0.00000000000E+00 -0.00000000000E+00 -0.66170999955E+01  0.66170999955E+01  0.00000000000E+00 0. -1.
          2    1    1    2  501    0  0.83971471405E+01 -0.23722508916E+02  0.60431223355E+02  0.65461456336E+02  0.00000000000E+00 0. -1.
          1    1    1    2  502    0 -0.83971471405E+01  0.23722508916E+02  0.34493339256E+02  0.42697306267E+02  0.00000000000E+00 0. -1.
</event>
<event>
 4    1  0.3664744E+003  0.3838271E+02  0.7546771E-02  0.1358233E+00
          2   -1    0    0  502    0  0.00000000000E+00  0.00000000000E+00  0.14735533250E+04  0.14735533250E+04  0.00000000000E+00 0.  1.
          1   -1    0    0  501    0 -0.00000000000E+00 -0.00000000000E+00 -0.75408158255E+02  0.75408158255E+02  0.00000000000E+00 0. -1.
          2    1    1    2  501    0 -0.26206757733E+01 -0.38293137964E+02  0.14684020540E+04  0.14689036131E+04  0.00000000000E+00 0.  1.
          1    1    1    2  502    0  0.26206757733E+01  0.38293137964E+02 -0.70256887295E+02  0.80057870126E+02  0.00000000000E+00 0. -1.
</event>
<event>
 4    1  0.3664744E+003  0.3148326E+02  0.7546771E-02  0.1407130E+00
          2   -1    0    0  502    0  0.00000000000E+00  0.00000000000E+00  0.84544624469E+03  0.84544624469E+03  0.00000000000E+00 0.  1.
          1   -1    0    0  501    0 -0.00000000000E+00 -0.00000000000E+00 -0.34700661192E+03  0.34700661192E+03  0.00000000000E+00 0.  1.
          2    1    1    2  501    0 -0.20985152912E+02 -0.23469530301E+02  0.84443819001E+03  0.84502488262E+03  0.00000000000E+00 0.  1.
          1    1    1    2  502    0  0.20985152912E+02  0.23469530301E+02 -0.34599855724E+03  0.34742797399E+03  0.00000000000E+00 0.  1.
</event>
<event>
 4    1  0.3664744E+003  0.2417211E+02  0.7546771E-02  0.1478282E+00
          2   -1    0    0  502    0  0.00000000000E+00  0.00000000000E+00  0.42980224496E+03  0.42980224496E+03  0.00000000000E+00 0.  1.
          1   -1    0    0  501    0 -0.00000000000E+00 -0.00000000000E+00 -0.22654262323E+02  0.22654262323E+02  0.00000000000E+00 0.  1.
          2    1    1    2  501    0 -0.24108110155E+02 -0.17578223866E+01  0.42290946546E+03  0.42359970124E+03  0.00000000000E+00 0.  1.
          1    1    1    2  502    0  0.24108110155E+02  0.17578223866E+01 -0.15761482817E+02  0.28856806049E+02  0.00000000000E+00 0.  1.
</event>
<event>
 4    1  0.3664744E+003  0.2623778E+02  0.7546771E-02  0.1455419E+00
          2   -1    0    0  502    0  0.00000000000E+00  0.00000000000E+00  0.78909296193E+02  0.78909296193E+02  0.00000000000E+00 0. -1.
          1   -1    0    0  501    0 -0.00000000000E+00 -0.00000000000E+00 -0.29392544254E+03  0.29392544254E+03  0.00000000000E+00 0. -1.
          2    1    1    2  501    0 -0.20740363163E+02 -0.16070418508E+02  0.76121864258E+02  0.80516825778E+02  0.00000000000E+00 0. -1.
          1    1    1    2  502    0  0.20740363163E+02  0.16070418508E+02 -0.29113801061E+03  0.29231791296E+03  0.00000000000E+00 0. -1.
</event>
<event>
 4    1  0.3664744E+003  0.2272904E+02  0.7546771E-02  0.1495929E+00
          2   -1    0    0  502    0  0.00000000000E+00  0.00000000000E+00  0.64181075333E+02  0.64181075333E+02  0.00000000000E+00 0. -1.
          1   -1    0    0  501    0 -0.00000000000E+00 -0.00000000000E+00 -0.12398837256E+02  0.12398837256E+02  0.00000000000E+00 0. -1.
          2    1    1    2  501    0 -0.21334490032E+02 -0.78389400259E+01  0.48569835583E+02  0.53624979013E+02  0.00000000000E+00 0. -1.
          1    1    1    2  502    0  0.21334490032E+02  0.78389400259E+01  0.32124024951E+01  0.22954933576E+02  0.00000000000E+00 0. -1.
</event>
<event>
 4    1  0.3664744E+003  0.4632193E+02  0.7546771E-02  0.1314959E+00
          2   -1    0    0  502    0  0.00000000000E+00  0.00000000000E+00  0.49156512362E+01  0.49156512362E+01  0.00000000000E+00 0. -1.
          1   -1    0    0  501    0 -0.00000000000E+00 -0.00000000000E+00 -0.18844404603E+04  0.18844404603E+04  0.00000000000E+00 0. -1.
          2    1    1    2  501    0 -0.45440736669E+02 -0.89922534695E+01 -0.11169294656E+03  0.12091747386E+03  0.00000000000E+00 0. -1.
          1    1    1    2  502    0  0.45440736669E+02  0.89922534695E+01 -0.17678318625E+04  0.17684386377E+04  0.00000000000E+00 0. -1.
</event>
<event>
 4    1  0.3664744E+003  0.2403421E+02  0.7546771E-02  0.1479904E+00
          2   -1    0    0  502    0  0.00000000000E+00  0.00000000000E+00  0.39058754403E+01  0.39058754403E+01  0.00000000000E+00 0. -1.
          1   -1    0    0  501    0 -0.00000000000E+00 -0.00000000000E+00 -0.43083259133E+03  0.43083259133E+03  0.00000000000E+00 0. -1.
          2    1    1    2  501    0 -0.58541993582E+00  0.24027083031E+02 -0.37309454394E+02  0.44380613140E+02  0.00000000000E+00 0. -1.
          1    1    1    2  502    0  0.58541993582E+00 -0.24027083031E+02 -0.38961726150E+03  0.39035785363E+03  0.00000000000E+00 0. -1.
</event>
<event>
 4    1  0.3664744E+003  0.2303188E+02  0.7546771E-02  0.1492098E+00
          2   -1    0    0  502    0  0.00000000000E+00  0.00000000000E+00  0.53661838736E+01  0.53661838736E+01  0.00000000000E+00 0.  1.
          1   -1    0    0  501    0 -0.00000000000E+00 -0.00000000000E+00 -0.13294294638E+04  0.13294294638E+04  0.00000000000E+00 0.  1.
          2    1    1    2  501    0  0.13953887501E+01 -0.22989572388E+02 -0.19926270901E+02  0.30455275739E+02  0.00000000000E+00 0.  1.
          1    1    1    2  502    0 -0.13953887501E+01  0.22989572388E+02 -0.13041370090E+04  0.13043403719E+04  0.00000000000E+00 0.  1.
</event>
<event>
 4    1  0.3664744E+003  0.2533100E+02  0.7546771E-02  0.1465134E+00
          2   -1    0    0  502    0  0.00000000000E+00  0.00000000000E+00  0.15082076703E+02  0.15082076703E+02  0.00000000000E+00 0.  1.
          1   -1    0    0  501    0 -0.00000000000E+00 -0.00000000000E+00 -0.11048983633E+04  0.11048983633E+04  0.00000000000E+00 0. -1.
          2    1    1    2  501    0  0.32284991673E+00  0.25328942674E+02  0.41949317648E+01  0.25676000887E+02  0.00000000000E+00 0.  1.
          1    1    1    2  502    0 -0.32284991673E+00 -0.25328942674E+02 -0.10940112183E+04  0.10943044391E+04  0.00000000000E+00 0. -1.
</event>
<event>
 4    1  0.3664744E+003  0.2123368E+02  0.7546771E-02  0.1515955E+00
          2   -1    0    0  502    0  0.00000000000E+00  0.00000000000E+00  0.32998345051E+03  0.32998345051E+03  0.00000000000E+00 0. -1.
          1   -1    0    0  501    0 -0.00000000000E+00 -0.00000000000E+00 -0.18782236874E+02  0.18782236874E+02  0.00000000000E+00 0. -1.
          2    1    1    2  501    0  0.38952027287E+01 -0.20873340708E+02  0.32352084627E+03  0.32421691339E+03  0.00000000000E+00 0. -1.
          1    1    1    2  502    0 -0.38952027287E+01  0.20873340708E+02 -0.12319632630E+02  0.24548773997E+02  0.00000000000E+00 0. -1.
</event>
<event>
 4    1  0.3664744E+003  0.2720374E+02  0.7546771E-02  0.1445572E+00
          2   -1    0    0  502    0  0.00000000000E+00  0.00000000000E+00  0.84151140482E+03  0.84151140482E+03  0.00000000000E+00 0. -1.
          1   -1    0    0  501    0 -0.00000000000E+00 -0.00000000000E+00 -0.36399946339E+01  0.36399946339E+01  0.00000000000E+00 0. -1.
          2    1    1    2  501    0  0.94030851043E+01  0.25526960481E+02  0.78694071365E+03  0.78741077623E+03  0.00000000000E+00 0. -1.
          1    1    1    2  502    0 -0.94030851043E+01 -0.25526960481E+02  0.50930696540E+02  0.57740623230E+02  0.00000000000E+00 0. -1.
</event>
<event>
 4    1  0.3664744E+003  0.5857099E+02  0.7546771E-02  0.1264767E+00
          2   -1    0    0  502    0  0.00000000000E+00  0.00000000000E+00  0.33121017820E+01  0.33121017820E+01  0.00000000000E+00 0.  1.
          1   -1    0    0  501    0 -0.00000000000E+00 -0.00000000000E+00 -0.16321254075E+04  0.16321254075E+04  0.00000000000E+00 0.  1.
          2    1    1    2  501    0  0.13110651346E+02  0.57084779281E+02 -0.32011717439E+03  0.32543135458E+03  0.00000000000E+00 0.  1.
          1    1    1    2  502    0 -0.13110651346E+02 -0.57084779281E+02 -0.13086961313E+04  0.13100061547E+04  0.00000000000E+00 0.  1.
</event>
<event>
 4    1  0.3664744E+003  0.2171526E+02  0.7546771E-02  0.1509293E+00
          2   -1    0    0  502    0  0.00000000000E+00  0.00000000000E+00  0.37590859234E+02  0.37590859234E+02  0.00000000000E+00 0.  1.
          1   -1    0    0  501    0 -0.00000000000E+00 -0.00000000000E+00 -0.52945273077E+03  0.52945273077E+03  0.00000000000E+00 0. -1.
          2    1    1    2  501    0  0.69081504505E+01 -0.20587126111E+02  0.34211981488E+02  0.40521747020E+02  0.00000000000E+00 0.  1.
          1    1    1    2  502    0 -0.69081504505E+01  0.20587126111E+02 -0.52607385303E+03  0.52652184299E+03  0.00000000000E+00 0. -1.
</event>
<event>
 4    1  0.3664744E+003  0.4978169E+02  0.7546771E-02  0.1299122E+00
          2   -1    0    0  502    0  0.00000000000E+00  0.00000000000E+00  0.74172157314E+01  0.74172157314E+01  0.00000000000E+00 0.  1.
          1   -1    0    0  501    0 -0.00000000000E+00 -0.00000000000E+00 -0.74130638805E+03  0.74130638805E+03  0.00000000000E+00 0.  1.
          2    1    1    2  501    0 -0.15633771739E+02 -0.47263113237E+02 -0.89490600518E+02  0.10240500121E+03  0.00000000000E+00 0.  1.
          1    1    1    2  502    0  0.15633771739E+02  0.47263113237E+02 -0.64439857180E+03  0.64631860257E+03  0.00000000000E+00 0.  1.
</event>
<event>
 4    1  0.3664744E+003  0.2440727E+02  0.7546771E-02  0.1475545E+00
          2   -1    0    0  502    0  0.00000000000E+00  0.00000000000E+00  0.83719558358E+03  0.83719558358E+03  0.00000000000E+00 0.  1.
          1   -1    0    0  501    0 -0.00000000000E+00 -0.00000000000E+00 -0.16439850354E+02  0.16439850354E+02  0.00000000000E+00 0.  1.
          2    1    1    2  501    0  0.66134533144E+01  0.23494189540E+02  0.82785651661E+03  0.82821623191E+03  0.00000000000E+00 0.  1.
          1    1    1    2  502    0 -0.66134533144E+01 -0.23494189540E+02 -0.71007833836E+01  0.25419202024E+02  0.00000000000E+00 0.  1.
</event>
<event>
 4    1  0.3664744E+003  0.2016685E+02  0.7546771E-02  0.1531500E+00
          2   -1    0    0  502    0  0.00000000000E+00  0.00000000000E+00  0.21820534168E+03  0.21820534168E+03  0.00000000000E+00 0. -1.
          1   -1    0    0  501    0 -0.00000000000E+00 -0.00000000000E+00 -0.21879449739E+01  0.21879449739E+01  0.00000000000E+00 0. -1.
          2    1    1    2  501    0 -0.52669850002E+01  0.19466908838E+02  0.15042056697E+03  0.15176642790E+03  0.00000000000E+00 0. -1.
          1    1    1    2  502    0  0.52669850002E+01 -0.19466908838E+02  0.65596829743E+02  0.68626858758E+02  0.00000000000E+00 0. -1.
</event>
<event>
 4    1  0.3664744E+003  0.2579948E+02  0.7546771E-02  0.1460055E+00
          2   -1    0    0  502    0  0.00000000000E+00  0.00000000000E+00  0.10722169990E+03  0.10722169990E+03  0.00000000000E+00 0.  1.
          1   -1    0    0  501    0 -0.00000000000E+00 -0.00000000000E+00 -0.86996998384E+02  0.86996998384E+02  0.00000000000E+00 0. -1.
          2    1    1    2  501    0 -0.47252200118E+00  0.25795154445E+02  0.10369288028E+03  0.10685423104E+03  0.00000000000E+00 0.  1.
          1    1    1    2  502    0  0.47252200118E+00 -0.25795154445E+02 -0.83468178768E+02  0.87364467243E+02  0.00000000000E+00 0. -1.
</event>
<event>
 4    1  0.3664744E+003  0.2329221E+02  0.7546771E-02  0.1488861E+00
          2   -1    0    0  502    0  0.00000000000E+00  0.00000000000E+00  0.54853136273E+00  0.54853136273E+00  0.00000000000E+00 0. -1.
          1   -1    0    0  501    0 -0.00000000000E+00 -0.00000000000E+00 -0.13266415294E+04  0.13266415294E+04  0.00000000000E+00 0. -1.
          2    1    1    2  501    0  0.15307961033E+02 -0.17555436415E+02 -0.32829720575E+03  0.32912244275E+03  0.00000000000E+00 0. -1.
          1    1    1    2  502    0 -0.15307961033E+02  0.17555436415E+02 -0.99779579227E+03  0.99806761800E+03  0.00000000000E+00 0. -1.
</event>
<event>
 4    1  0.3664744E+003  0.2353911E+02  0.7546771E-02  0.1485837E+00
          2   -1    0    0  502    0  0.00000000000E+00  0.00000000000E+00  0.13983783583E+04  0.13983783583E+04  0.00000000000E+00 0.  1.
          1   -1    0    0  501    0 -0.00000000000E+00 -0.00000000000E+00 -0.96068080690E+01  0.96068080690E+01  0.00000000000E+00 0. -1.
          2    1    1    2  501    0  0.18912611395E+02  0.14014374684E+02  0.13837072366E+04  0.13839074414E+04  0.00000000000E+00 0.  1.
          1    1    1    2  502    0 -0.18912611395E+02 -0.14014374684E+02  0.50643135620E+01  0.24077724963E+02  0.00000000000E+00 0. -1.
</event>
<event>
 4    1  0.3664744E+003  0.4933284E+02  0.7546771E-02  0.1301091E+00
          2   -1    0    0  502    0  0.00000000000E+00  0.00000000000E+00  0.21649969067E+03  0.21649969067E+03  0.00000000000E+00 0.  1.
          1   -1    0    0  501    0 -0.00000000000E+00 -0.00000000000E+00 -0.69586220738E+03  0.69586220738E+03  0.00000000000E+00 0.  1.
          2    1    1    2  501    0  0.33137344029E+02 -0.36546490406E+02  0.21280001548E+03  0.21844353073E+03  0.00000000000E+00 0.  1.
          1    1    1    2  502    0 -0.33137344029E+02  0.36546490406E+02 -0.69216253219E+03  0.69391836732E+03  0.00000000000E+00 0.  1.
</event>
<event>
 4    1  0.3664744E+003  0.2181341E+02  0.7546771E-02  0.1507961E+00
          2   -1    0    0  502    0  0.00000000000E+00  0.00000000000E+00  0.47715228638E+03  0.47715228638E+03  0.00000000000E+00 0. -1.
          1   -1    0    0  501    0 -0.00000000000E+00 -0.00000000000E+00 -0.27204974035E+02  0.27204974035E+02  0.00000000000E+00 0. -1.
          2    1    1    2  501    0  0.81782813423E+01 -0.20222275013E+02  0.47248724363E+03  0.47299050739E+03  0.00000000000E+00 0. -1.
          1    1    1    2  502    0 -0.81782813423E+01  0.20222275013E+02 -0.22539931288E+02  0.31366753018E+02  0.00000000000E+00 0. -1.
</event>
<event>
 4    1  0.3664744E+003  0.2056237E+02  0.7546771E-02  0.1525606E+00
          2   -1    0    0  502    0  0.00000000000E+00  0.00000000000E+00  0.12222274194E+03  0.12222274194E+03  0.00000000000E+00 0. -1.
          1   -1    0    0  501    0 -0.00000000000E+00 -0.00000000000E+00 -0.10609749493E+03  0.10609749493E+03  0.00000000000E+00 0.  1.
          2    1    1    2  501    0 -0.18933200130E+02  0.80215276887E+01  0.12034620256E+03  0.12209021028E+03  0.00000000000E+00 0. -1.
          1    1    1    2  502    0  0.18933200130E+02 -0.80215276887E+01 -0.10422095556E+03  0.10623002660E+03  0.00000000000E+00 0.  1.
</event>
<event>
 4    1  0.3664744E+003  0.2024518E+02  0.7546771E-02  0.1530320E+00
          2   -1    0    0  502    0  0.00000000000E+00  0.00000000000E+00  0.10629952114E+04  0.10629952114E+04  0.00000000000E+00 0. -1.
          1   -1    0    0  501    0 -0.00000000000E+00 -0.00000000000E+00 -0.81062702316E+02  0.81062702316E+02  0.00000000000E+00 0.  1.
          2    1    1    2  501    0  0.54229470623E+01 -0.19505360570E+02  0.10616331508E+04  0.10618261696E+04  0.00000000000E+00 0. -1.
          1    1    1    2  502    0 -0.54229470623E+01  0.19505360570E+02 -0.79700641760E+02  0.82231744130E+02  0.00000000000E+00 0.  1.
</event>
<event>
 4    1  0.3664744E+003  0.3571175E+02  0.7546771E-02  0.1375627E+00
          2   -1    0    0  502    0  0.00000000000E+00  0.00000000000E+00  0.91546612033E+01  0.91546612033E+01  0.00000000000E+00 0. -1.
          1   -1    0    0  501    0 -0.00000000000E+00 -0.00000000000E+00 -0.87143234564E+03  0.87143234564E+03  0.00000000000E+00 0. -1.
          2    1    1    2  501    0  0.31261979724E+02  0.17263187273E+02 -0.27570126874E+02  0.45115860924E+02  0.00000000000E+00 0. -1.
          1    1    1    2  502    0 -0.31261979724E+02 -0.17263187273E+02 -0.83470755756E+03  0.83547114592E+03  0.00000000000E+00 0. -1.
</event>
<event>
 4    1  0.3664744E+003  0.3083112E+02  0.7546771E-02  0.1412509E+00
          2   -1    0    0  502    0  0.00000000000E+00  0.00000000000E+00  0.61351111606E+01  0.61351111606E+01  0.00000000000E+00 0.  1.
          1   -1    0    0  501    0 -0.00000000000E+00 -0.00000000000E+00 -0.23298358037E+03  0.23298358037E+03  0.00000000000E+00 0.  1.
          2    1    1    2  501    0 -0.70343682122E+01 -0.30017917828E+02 -0.44225699486E+02  0.53911689103E+02  0.00000000000E+00 0.  1.
          1    1    1    2  502    0  0.70343682122E+01  0.30017917828E+02 -0.18262276973E+03  0.18520700243E+03  0.00000000000E+00 0.  1.
</event>
<event>
 4    1  0.3664744E+003  0.2439277E+02  0.7546771E-02  0.1475712E+00
          2   -1    0    0  502    0  0.00000000000E+00  0.00000000000E+00  0.85943399773E+02  0.85943399773E+02  0.00000000000E+00 0. -1.
          1   -1    0    0  501    0 -0.00000000000E+00 -0.00000000000E+00 -0.12771877198E+02  0.12771877198E+02  0.00000000000E+00 0. -1.
          2    1    1    2  501    0  0.19788257594E+02  0.14262966698E+02  0.69986348216E+02  0.74115425481E+02  0.00000000000E+00 0. -1.
          1    1    1    2  502    0 -0.19788257594E+02 -0.14262966698E+02  0.31851743582E+01  0.24599851490E+02  0.00000000000E+00 0. -1.
</event>
<event>
 4    1  0.3664744E+003  0.3244114E+02  0.7546771E-02  0.1399504E+00
          2   -1    0    0  502    0  0.00000000000E+00  0.00000000000E+00  0.11310316650E+03  0.11310316650E+03  0.00000000000E+00 0. -1.
          1   -1    0    0  501    0 -0.00000000000E+00 -0.00000000000E+00 -0.41092008186E+02  0.41092008186E+02  0.00000000000E+00 0.  1.
          2    1    1    2  501    0  0.16041685467E+01  0.32401454002E+02  0.10381449077E+03  0.10876523375E+03  0.00000000000E+00 0. -1.
          1    1    1    2  502    0 -0.16041685467E+01 -0.32401454002E+02 -0.31803332457E+02  0.45429940937E+02  0.00000000000E+00 0.  1.
</event>
<event>
 4    1  0.3664744E+003  0.2886859E+02  0.7546771E-02  0.1429690E+00
          2   -1    0    0  502    0  0.00000000000E+00  0.00000000000E+00  0.94357818446E+03  0.94357818446E+03  0.00000000000E+00 0. -1.
          1   -1    0    0  501    0 -0.00000000000E+00 -0.00000000000E+00 -0.21382275907E+01  0.21382275907E+01  0.00000000000E+00 0. -1.
          2    1    1    2  501    0 -0.36943798037E+01  0.28631221603E+02  0.83298436707E+03  0.83348446360E+03  0.00000000000E+00 0. -1.
          1    1    1    2  502    0  0.36943798037E+01 -0.28631221603E+02  0.10845558981E+03  0.11223194845E+03  0.00000000000E+00 0. -1.
</event>
<event>
 4    1  0.3664744E+003  0.3023837E+02  0.7546771E-02  0.1417536E+00
          2   -1    0    0  502    0  0.00000000000E+00  0.00000000000E+00  0.13890100902E+03  0.13890100902E+03  0.00000000000E+00 0. -1.
          1   -1    0    0  501    0 -0.00000000000E+00 -0.00000000000E+00 -0.26990089629E+03  0.26990089629E+03  0.00000000000E+00 0. -1.
          2    1    1    2  501    0 -0.22472386628E+02  0.20232425096E+02  0.13639297940E+03  0.13970470292E+03  0.00000000000E+00 0. -1.
          1    1    1    2  502    0  0.22472386628E+02 -0.20232425096E+02 -0.26739286667E+03  0.26909720239E+03  0.00000000000E+00 0. -1.
</event>
<event>
 4    1  0.3664744E+003  0.2078662E+02  0.7546771E-02  0.1522333E+00
          2   -1    0    0  502    0  0.00000000000E+00  0.00000000000E+00  0.69328465661E+03  0.69328465661E+03  0.00000000000E+00 0. -1.
          1   -1    0    0  501    0 -0.00000000000E+00 -0.00000000000E+00 -0.78318433594E+03  0.78318433594E+03  0.00000000000E+00 0.  1.
          2    1    1    2  501    0  0.20583152012E+02 -0.29012445389E+01  0.69299086274E+03  0.69330254522E+03  0.00000000000E+00 0. -1.
          1    1    1    2  502    0 -0.20583152012E+02  0.29012445389E+01 -0.78289054207E+03  0.78316644734E+03  0.00000000000E+00 0.  1.
</event>
<event>
 4    1  0.3664744E+003  0.2056147E+02  0.7546771E-02  0.1525619E+00
          2   -1    0    0  502    0  0.00000000000E+00  0.00000000000E+00  0.13851485339E+01  0.13851485339E+01  0.00000000000E+00 0. -1.
          1   -1    0    0  501    0 -0.00000000000E+00 -0.00000000000E+00 -0.12772029844E+04  0.12772029844E+04  0.00000000000E+00 0. -1.
          2    1    1    2  501    0  0.18778826009E+02  0.83743496772E+01 -0.80209484709E+02  0.82802991951E+02  0.00000000000E+00 0. -1.
          1    1    1    2  502    0 -0.18778826009E+02 -0.83743496772E+01 -0.11956083511E+04  0.11957851409E+04  0.00000000000E+00 0. -1.
</event>
<event>
 4    1  0.3664744E+003  0.2341124E+02  0.7546771E-02  0.1487398E+00
          2   -1    0    0  502    0  0.00000000000E+00  0.00000000000E+00  0.54191392609E+01  0.54191392609E+01  0.00000000000E+00 0. -1.
          1   -1    0    0  501    0 -0.00000000000E+00 -0.00000000000E+00 -0.15551280817E+03  0.15551280817E+03  0.00000000000E+00 0.  1.
          2    1    1    2  501    0  0.26808193434E+01  0.23257248098E+02 -0.27466879839E+02  0.36090384724E+02  0.00000000000E+00 0. -1.
          1    1    1    2  502    0 -0.26808193434E+01 -0.23257248098E+02 -0.12262678907E+03  0.12484156271E+03  0.00000000000E+00 0.  1.
</event>
<event>
 4    1  0.3664744E+003  0.2648180E+02  0.7546771E-02  0.1452884E+00
          2   -1    0    0  502    0  0.00000000000E+00  0.00000000000E+00  0.22059238363E+01  0.22059238363E+01  0.00000000000E+00 0. -1.
          1   -1    0    0  501    0 -0.00000000000E+00 -0.00000000000E+00 -0.40365220322E+03  0.40365220322E+03  0.00000000000E+00 0. -1.
          2    1    1    2  501    0 -0.24531933528E+02 -0.99734555302E+01 -0.10719602708E+03  0.11041862977E+03  0.00000000000E+00 0. -1.
          1    1    1    2  502    0  0.24531933528E+02  0.99734555302E+01 -0.29425025230E+03  0.29543949729E+03  0.00000000000E+00 0. -1.
</event>
<event>
 4    1  0.3664744E+003  0.2993631E+02  0.7546771E-02  0.1420151E+00
          2   -1    0    0  502    0  0.00000000000E+00  0.00000000000E+00  0.67616634727E+01  0.67616634727E+01  0.00000000000E+00 0.  1.
          1   -1    0    0  501    0 -0.00000000000E+00 -0.00000000000E+00 -0.15521743492E+03  0.15521743492E+03  0.00000000000E+00 0.  1.
          2    1    1    2  501    0  0.51163159805E+01  0.29495846004E+02 -0.10518559394E+03  0.10936265722E+03  0.00000000000E+00 0.  1.
          1    1    1    2  502    0 -0.51163159805E+01 -0.29495846004E+02 -0.43270177508E+02  0.52616441178E+02  0.00000000000E+00 0.  1.
</event>
<event>
 4    1  0.3664744E+003  0.2327076E+02  0.7546771E-02  0.1489126E+00
          2   -1    0    0  502    0  0.00000000000E+00  0.00000000000E+00  0.30858519996E+03  0.30858519996E+03  0.00000000000E+00 0. -1.
          1   -1    0    0  501    0 -0.00000000000E+00 -0.00000000000E+00 -0.38493543936E+02  0.38493543936E+02  0.00000000000E+00 0. -1.
          2    1    1    2  501    0 -0.68222021258E+00 -0.23260752988E+02  0.30458333375E+03  0.30547100559E+03  0.00000000000E+00 0. -1.
          1    1    1    2  502    0  0.68222021258E+00  0.23260752988E+02 -0.34491677733E+02  0.41607738305E+02  0.00000000000E+00 0. -1.
</event>
<event>
 4    1  0.3664744E+003  0.3355078E+02  0.7546771E-02  0.1391048E+00
          2   -1    0    0  502    0  0.00000000000E+00  0.00000000000E+00  0.91823224292E+02  0.91823224292E+02  0.00000000000E+00 0. -1.
          1   -1    0    0  501    0 -0.00000000000E+00 -0.00000000000E+00 -0.12491575882E+02  0.12491575882E+02  0.00000000000E+00 0. -1.
          2    1    1    2  501    0  0.33018795223E+02 -0.59509890122E+01  0.46783670547E+02  0.57570538802E+02  0.00000000000E+00 0. -1.
          1    1    1    2  502    0 -0.33018795223E+02  0.59509890122E+01  0.32547977863E+02  0.46744261371E+02  0.00000000000E+00 0. -1.
</event>
<event>
 4    1  0.3664744E+003  0.2045196E+02  0.7546771E-02  0.1527235E+00
          2   -1    0    0  502    0  0.00000000000E+00  0.00000000000E+00  0.46773510847E+02  0.46773510847E+02  0.00000000000E+00 0. -1.
          1   -1    0    0  501    0 -0.00000000000E+00 -0.00000000000E+00 -0.36885365750E+02  0.36885365750E+02  0.00000000000E+00 0.  1.
          2    1    1    2  501    0 -0.19473208803E+02  0.62511432377E+01  0.41351392287E+02  0.46132638088E+02  0.00000000000E+00 0. -1.
          1    1    1    2  502    0  0.19473208803E+02 -0.62511432377E+01 -0.31463247190E+02  0.37526238509E+02  0.00000000000E+00 0.  1.
</event>
<event>
 4    1  0.3664744E+003  0.2225289E+02  0.7546771E-02  0.1502099E+00
          2   -1    0    0  502    0  0.00000000000E+00  0.00000000000E+00  0.49669391775E+02  0.49669391775E+02  0.00000000000E+00 0.  1.
          1   -1    0    0  501    0 -0.00000000000E+00 -0.00000000000E+00 -0.14963080431E+03  0.14963080431E+03  0.00000000000E+00 0. -1.
          2    1    1    2  501    0 -0.71710105420E+01 -0.21065790451E+02  0.46292380989E+02  0.51363172187E+02  0.00000000000E+00 0.  1.
          1    1    1    2  502    0  0.71710105420E+01  0.21065790451E+02 -0.14625379353E+03  0.14793702390E+03  0.00000000000E+00 0. -1.
</event>
<event>
 4    1  0.3664744E+003  0.2114272E+02  0.7546771E-02  0.1517237E+00
          2   -1    0    0  502    0  0.00000000000E+00  0.00000000000E+00  0.73035438261E+01  0.73035438261E+01  0.00000000000E+00 0.  1.
          1   -1    0    0  501    0 -0.00000000000E+00 -0.00000000000E+00 -0.58986049264E+03  0.58986049264E+03  0.00000000000E+00 0. -1.
          2    1    1    2  501    0 -0.21135213654E+02 -0.56324275618E+00 -0.86113457866E+01  0.22829143104E+02  0.00000000000E+00 0.  1.
          1    1    1    2  502    0  0.21135213654E+02  0.56324275618E+00 -0.57394560303E+03  0.57433489336E+03  0.00000000000E+00 0. -1.
</event>
<event>
 4    1  0.3664744E+003  0.4267808E+02  0.7546771E-02  0.1333469E+00
          2   -1    0    0  502    0  0.00000000000E+00  0.00000000000E+00  0.63350156687E+02  0.63350156687E+02  0.00000000000E+00 0. -1.
          1   -1    0    0  501    0 -0.00000000000E+00 -0.00000000000E+00 -0.31818714335E+02  0.31818714335E+02  0.00000000000E+00 0.  1.
          2    1    1    2  501    0 -0.29346837315E+02 -0.30986801740E+02  0.30539383523E+02  0.52479259602E+02  0.00000000000E+00 0. -1.
          1    1    1    2  502    0  0.29346837315E+02  0.30986801740E+02  0.99205882906E+00  0.42689611420E+02  0.00000000000E+00 0.  1.
</event>
<event>
 4    1  0.3664744E+003  0.2166140E+02  0.7546771E-02  0.1510028E+00
          2   -1    0    0  502    0  0.00000000000E+00  0.00000000000E+00  0.82897642838E+03  0.82897642838E+03  0.00000000000E+00 0.  1.
          1   -1    0    0  501    0 -0.00000000000E+00 -0.00000000000E+00 -0.61209788519E+00  0.61209788519E+00  0.00000000000E+00 0.  1.
          2    1    1    2  501    0  0.21314027294E+02 -0.38637307086E+01  0.52799064361E+03  0.52843479817E+03  0.00000000000E+00 0.  1.
          1    1    1    2  502    0 -0.21314027294E+02  0.38637307086E+01  0.30037368688E+03  0.30115372810E+03  0.00000000000E+00 0.  1.
</event>
<event>
 4    1  0.3664744E+003  0.2301994E+02  0.7546771E-02  0.1492248E+00
          2   -1    0    0  502    0  0.00000000000E+00  0.00000000000E+00  0.53883057944E+02  0.53883057944E+02  0.00000000000E+00 0. -1.
          1   -1    0    0  501    0 -0.00000000000E+00 -0.00000000000E+00 -0.10451453276E+02  0.10451453276E+02  0.00000000000E+00 0. -1.
          2    1    1    2  501    0 -0.97944434452E+01  0.20832325758E+02  0.13900860134E+02  0.26891463913E+02  0.00000000000E+00 0. -1.
          1    1    1    2  502    0  0.97944434452E+01 -0.20832325758E+02  0.29530744534E+02  0.37443047307E+02  0.00000000000E+00 0. -1.
</event>
<event>
 4    1  0.3664744E+003  0.6616254E+02  0.7546771E-02  0.1240219E+00
          2   -1    0    0  502    0  0.00000000000E+00  0.00000000000E+00  0.10303423773E+04  0.10303423773E+04  0.00000000000E+00 0. -1.
          1   -1    0    0  501    0 -0.00000000000E+00 -0.00000000000E+00 -0.14245278644E+02  0.14245278644E+02  0.00000000000E+00 0. -1.
          2    1    1    2  501    0  0.15885525527E+02 -0.64227191670E+02  0.94557864277E+03  0.94789052729E+03  0.00000000000E+00 0. -1.
          1    1    1    2  502    0 -0.15885525527E+02  0.64227191670E+02  0.70518455934E+02  0.96697128698E+02  0.00000000000E+00 0. -1.
</event>
<event>
 4    1  0.3664744E+003  0.2052064E+02  0.7546771E-02  0.1526220E+00
          2   -1    0    0  502    0  0.00000000000E+00  0.00000000000E+00  0.38571168761E+03  0.38571168761E+03  0.00000000000E+00 0. -1.
          1   -1    0    0  501    0 -0.00000000000E+00 -0.00000000000E+00 -0.52793984003E+03  0.52793984003E+03  0.00000000000E+00 0. -1.
          2    1    1    2  501    0 -0.19758034145E+02 -0.55422714425E+01  0.38523910267E+03  0.38578525492E+03  0.00000000000E+00 0. -1.
          1    1    1    2  502    0  0.19758034145E+02  0.55422714425E+01 -0.52746725509E+03  0.52786627272E+03  0.00000000000E+00 0. -1.
</event>
<event>
 4    1  0.3664744E+003  0.2986580E+02  0.7546771E-02  0.1420766E+00
          2   -1    0    0  502    0  0.00000000000E+00  0.00000000000E+00  0.87314023869E+02  0.87314023869E+02  0.00000000000E+00 0.  1.
          1   -1    0    0  501    0 -0.00000000000E+00 -0.00000000000E+00 -0.56979452538E+02  0.56979452538E+02  0.00000000000E+00 0.  1.
          2    1    1    2  501    0  0.28256272023E+02 -0.96720845480E+01  0.80527377513E+02  0.85887278786E+02  0.00000000000E+00 0.  1.
          1    1    1    2  502    0 -0.28256272023E+02  0.96720845480E+01 -0.50192806182E+02  0.58406197621E+02  0.00000000000E+00 0.  1.
</event>
<event>
 4    1  0.3664744E+003  0.2293465E+02  0.7546771E-02  0.1493320E+00
          2   -1    0    0  502    0  0.00000000000E+00  0.00000000000E+00  0.69171996356E+01  0.69171996356E+01  0.00000000000E+00 0. -1.
          1   -1    0    0  501    0 -0.00000000000E+00 -0.00000000000E+00 -0.25254149248E+03  0.25254149248E+03  0.00000000000E+00 0.  1.
          2    1    1    2  501    0 -0.19460183543E+02 -0.12136702434E+02 -0.14358668871E+02  0.27058633765E+02  0.00000000000E+00 0. -1.
          1    1    1    2  502    0  0.19460183543E+02  0.12136702434E+02 -0.23126562397E+03  0.23240005835E+03  0.00000000000E+00 0.  1.
</event>
<event>
 4    1  0.4336337E+003  0.3527439E+02  0.7546771E-02  0.1378644E+00
          2   -1    0    0  502    0  0.00000000000E+00  0.00000000000E+00  0.10031129208E+04  0.10031129208E+04  0.00000000000E+00 0. -1.
          1   -1    0    0  501    0 -0.00000000000E+00 -0.00000000000E+00 -0.11208381099E+04  0.11208381099E+04  0.00000000000E+00 0. -1.
          2    1    1    2  501    0  0.31921501044E+02 -0.15010017829E+02  0.10025251187E+04  0.10031455012E+04  0.00000000000E+00 0. -1.
          1    1    1    2  502    0 -0.31921501044E+02  0.15010017829E+02 -0.11202503078E+04  0.11208055295E+04  0.00000000000E+00 0. -1.
</event>
<event>
 4    1  0.3664744E+003  0.2777743E+02  0.7546771E-02  0.1439951E+00
          2   -1    0    0  502    0  0.00000000000E+00  0.00000000000E+00  0.10365571170E+03  0.10365571170E+03  0.00000000000E+00 0.  1.
          1   -1    0    0  501    0 -0.00000000000E+00 -0.00000000000E+00 -0.11979668858E+02  0.11979668858E+02  0.00000000000E+00 0.  1.
          2    1    1    2  501    0 -0.15022857559E+01  0.27736777116E+02  0.81415214422E+02  0.86023385231E+02  0.00000000000E+00 0.  1.
          1    1    1    2  502    0  0.15022857559E+01 -0.27736777116E+02  0.10260828417E+02  0.29611995324E+02  0.00000000000E+00 0.  1.
</event>
<event>
 4    1  0.3664744E+003  0.3099980E+02  0.7546771E-02  0.1411102E+00
          2   -1    0    0  502    0  0.00000000000E+00  0.00000000000E+00  0.35393890259E+03  0.35393890259E+03  0.00000000000E+00 0.  1.
          1   -1    0    0  501    0 -0.00000000000E+00 -0.00000000000E+00 -0.15378609084E+03  0.15378609084E+03  0.00000000000E+00 0. -1.
          2    1    1    2  501    0 -0.27524654408E+02  0.14261167409E+02  0.35168792778E+03  0.35305153454E+03  0.00000000000E+00 0.  1.
          1    1    1    2  502    0  0.27524654408E+02 -0.14261167409E+02 -0.15153511603E+03  0.15467345889E+03  0.00000000000E+00 0. -1.
</event>
<event>
 4    1  0.3664744E+003  0.3025950E+02  0.7546771E-02  0.1417354E+00
          2   -1    0    0  502    0  0.00000000000E+00  0.00000000000E+00  0.59172928473E+02  0.59172928473E+02  0.00000000000E+00 0.  1.
          1   -1    0    0  501    0 -0.00000000000E+00 -0.00000000000E+00 -0.16871842531E+02  0.16871842531E+02  0.00000000000E+00 0.  1.
          2    1    1    2  501    0 -0.21785275047E+02  0.21000932364E+02  0.32095123251E+02  0.44110478410E+02  0.00000000000E+00 0.  1.
          1    1    1    2  502    0  0.21785275047E+02 -0.21000932364E+02  0.10205962692E+02  0.31934292594E+02  0.00000000000E+00 0.  1.
</event>
<event>
 4    1  0.3664744E+003  0.2524354E+02  0.7546771E-02  0.1466097E+00
          2   -1    0    0  502    0  0.00000000000E+00  0.00000000000E+00  0.50518412840E+03  0.50518412840E+03  0.00000000000E+00 0. -1.
          1   -1    0    0  501    0 -0.00000000000E+00 -0.00000000000E+00 -0.94803147807E+01  0.94803147807E+01  0.00000000000E+00 0.  1.
          2    1    1    2  501    0 -0.87853986716E+01 -0.23665442854E+02  0.48745376286E+03  0.48810696302E+03  0.00000000000E+00 0. -1.
          1    1    1    2  502    0  0.87853986716E+01  0.23665442854E+02  0.82500507584E+01  0.26557480167E+02  0.00000000000E+00 0.  1.
</event>
<event>
 4    1  0.3664744E+003  0.2708350E+02  0.7546771E-02  0.1446771E+00
          2   -1    0    0  502    0  0.00000000000E+00  0.00000000000E+00  0.12178500050E+04  0.12178500050E+04  0.00000000000E+00 0. -1.
          1   -1    0    0  501    0 -0.00000000000E+00 -0.00000000000E+00 -0.30010277082E+02  0.30010277082E+02  0.00000000000E+00 0.  1.
          2    1    1    2  501    0 -0.25762412113E+02 -0.83554875115E+01  0.12115571542E+04  0.12118598326E+04  0.00000000000E+00 0. -1.
          1    1    1    2  502    0  0.25762412113E+02  0.83554875115E+01 -0.23717426297E+02  0.36000449436E+02  0.00000000000E+00 0.  1.
</event>
<event>
 4    1  0.3664744E+003  0.2037503E+02  0.7546771E-02  0.1528378E+00
          2   -1    0    0  502    0  0.00000000000E+00  0.00000000000E+00  0.68176013407E+01  0.68176013407E+01  0.00000000000E+00 0.  1.
          1   -1    0    0  501    0 -0.00000000000E+00 -0.00000000000E+00 -0.12491420737E+03  0.12491420737E+03  0.00000000000E+00 0.  1.
          2    1    1    2  501    0  0.61985936656E+01  0.19409259207E+02 -0.11894382042E+02  0.23592758011E+02  0.00000000000E+00 0.  1.
          1    1    1    2  502    0 -0.61985936656E+01 -0.19409259207E+02 -0.10620222399E+03  0.10813905070E+03  0.00000000000E+00 0.  1.
</event>
<event>
 4    1  0.3664744E+003  0.4964121E+02  0.7546771E-02  0.1299736E+00
          2   -1    0    0  502    0  0.00000000000E+00  0.00000000000E+00  0.35470140072E+03  0.35470140072E+03  0.00000000000E+00 0.  1.
          1   -1    0    0  501    0 -0.00000000000E+00 -0.00000000000E+00 -0.35946598391E+02  0.35946598391E+02  0.00000000000E+00 0. -1.
          2    1    1    2  501    0  0.33547528028E+02 -0.36589791068E+02  0.33481382664E+03  0.33847385122E+03  0.00000000000E+00 0.  1.
          1    1    1    2  502    0 -0.33547528028E+02  0.36589791068E+02 -0.16059024308E+02  0.52174147898E+02  0.00000000000E+00 0. -1.
</event>
<event>
 4    1  0.3664744E+003  0.2740975E+02  0.7546771E-02  0.1443535E+00
          2   -1    0    0  502    0  0.00000000000E+00  0.00000000000E+00  0.16945729120E+01  0.16945729120E+01  0.00000000000E+00 0. -1.
          1   -1    0    0  501    0 -0.00000000000E+00 -0.00000000000E+00 -0.11820764922E+04  0.11820764922E+04  0.00000000000E+00 0.  1.
          2    1    1    2  501    0  0.24354097939E+02 -0.12576656510E+02 -0.12228796838E+03  0.12532215122E+03  0.00000000000E+00 0. -1.
          1    1    1    2  502    0 -0.24354097939E+02  0.12576656510E+02 -0.10580939509E+04  0.10584489139E+04  0.00000000000E+00 0.  1.
</event>
<event>
 4    1  0.3664744E+003  0.2826700E+02  0.7546771E-02  0.1435280E+00
          2   -1    0    0  502    0  0.00000000000E+00  0.00000000000E+00  0.17788112078E+01  0.17788112078E+01  0.00000000000E+00 0. -1.
          1   -1    0    0  501    0 -0.00000000000E+00 -0.00000000000E+00 -0.97824493344E+03  0.97824493344E+03  0.00000000000E+00 0.  1.
          2    1    1    2  501    0  0.25280398908E+02  0.12646128523E+02 -0.12787567318E+03  0.13096263180E+03  0.00000000000E+00 0. -1.
          1    1    1    2  502    0 -0.25280398908E+02 -0.12646128523E+02 -0.84859044905E+03  0.84906111285E+03  0.00000000000E+00 0.  1.
</event>
<event>
 4    1  0.3664744E+003  0.4223742E+02  0.7546771E-02  0.1335851E+00
          2   -1    0    0  502    0  0.00000000000E+00  0.00000000000E+00  0.12720072243E+04  0.12720072243E+04  0.00000000000E+00 0.  1.
          1   -1    0    0  501    0 -0.00000000000E+00 -0.00000000000E+00 -0.10886825321E+02  0.10886825321E+02  0.00000000000E+00 0.  1.
          2    1    1    2  501    0 -0.38944170386E+02  0.16350867086E+02  0.12292656675E+04  0.12299910896E+04  0.00000000000E+00 0.  1.
          1    1    1    2  502    0  0.38944170386E+02 -0.16350867086E+02  0.31854731542E+02  0.52902960060E+02  0.00000000000E+00 0.  1.
</event>
<event>
 4    1  0.3664744E+003  0.2568138E+02  0.7546771E-02  0.1461323E+00
          2   -1    0    0  502    0  0.00000000000E+00  0.00000000000E+00  0.50118455576E+02  0.50118455576E+02  0.00000000000E+00 0.  1.
          1   -1    0    0  501    0 -0.00000000000E+00 -0.00000000000E+00 -0.25575231254E+02  0.25575231254E+02  0.00000000000E+00 0. -1.
          2    1    1    2  501    0  0.25564310453E+02 -0.24493315505E+01  0.38641376434E+02  0.46397081446E+02  0.00000000000E+00 0.  1.
          1    1    1    2  502    0 -0.25564310453E+02  0.24493315505E+01 -0.14098152112E+02  0.29296605383E+02  0.00000000000E+00 0. -1.
</event>
<event>
 4    1  0.3664744E+003  0.2441266E+02  0.7546771E-02  0.1475482E+00
          2   -1    0    0  502    0  0.00000000000E+00  0.00000000000E+00  0.14249175928E+02  0.14249175928E+02  0.00000000000E+00 0. -1.
          1   -1    0    0  501    0 -0.00000000000E+00 -0.00000000000E+00 -0.62037871098E+02  0.62037871098E+02  0.00000000000E+00 0. -1.
          2    1    1    2  501    0  0.24405053002E+02  0.60929508047E+00 -0.21221737690E+01  0.24504723504E+02  0.00000000000E+00 0. -1.
          1    1    1    2  502    0 -0.24405053002E+02 -0.60929508047E+00 -0.45666521401E+02  0.51782323522E+02  0.00000000000E+00 0. -1.
</event>
<event>
 4    1  0.3664744E+003  0.2549260E+02  0.7546771E-02  0.1463367E+00
          2   -1    0    0  502    0  0.00000000000E+00  0.00000000000E+00  0.55434910161E+02  0.55434910161E+02  0.00000000000E+00 0. -1.
          1   -1    0    0  501    0 -0.00000000000E+00 -0.00000000000E+00 -0.42668904275E+03  0.42668904275E+03  0.00000000000E+00 0.  1.
          2    1    1    2  501    0 -0.22732753990E+02 -0.11536660624E+02  0.52100289962E+02  0.58002696976E+02  0.00000000000E+00 0. -1.
          1    1    1    2  502    0  0.22732753990E+02  0.11536660624E+02 -0.42335442256E+03  0.42412125594E+03  0.00000000000E+00 0.  1.
</event>
<event>
 4    1  0.3664744E+003  0.2236955E+02  0.7546771E-02  0.1500570E+00
          2   -1    0    0  502    0  0.00000000000E+00  0.00000000000E+00  0.22199301152E+03  0.22199301152E+03  0.00000000000E+00 0.  1.
          1   -1    0    0  501    0 -0.00000000000E+00 -0.00000000000E+00 -0.10775116123E+03  0.10775116123E+03  0.00000000000E+00 0.  1.
          2    1    1    2  501    0  0.68651500666E+01 -0.21290054705E+02  0.22025936852E+03  0.22139238048E+03  0.00000000000E+00 0.  1.
          1    1    1    2  502    0 -0.68651500666E+01  0.21290054705E+02 -0.10601751823E+03  0.10835179226E+03  0.00000000000E+00 0.  1.
</event>
<event>
 4    1  0.3664744E+003  0.3273451E+02  0.7546771E-02  0.1397230E+00
          2   -1    0    0  502    0  0.00000000000E+00  0.00000000000E+00  0.47790152409E+02  0.47790152409E+02  0.00000000000E+00 0. -1.
          1   -1    0    0  501    0 -0.00000000000E+00 -0.00000000000E+00 -0.12351184050E+03  0.12351184050E+03  0.00000000000E+00 0.  1.
          2    1    1    2  501    0 -0.97450394192E+01 -0.31250319634E+02  0.39626717163E+02  0.51398686594E+02  0.00000000000E+00 0. -1.
          1    1    1    2  502    0  0.97450394192E+01  0.31250319634E+02 -0.11534840525E+03  0.11990330631E+03  0.00000000000E+00 0.  1.
</event>
<event>
 4    1  0.3664744E+003  0.2174227E+02  0.7546771E-02  0.1508926E+00
          2   -1    0    0  502    0  0.00000000000E+00  0.00000000000E+00  0.14693020529E+02  0.14693020529E+02  0.00000000000E+00 0.  1.
          1   -1    0    0  501    0 -0.00000000000E+00 -0.00000000000E+00 -0.79523580865E+02  0.79523580865E+02  0.00000000000E+00 0. -1.
          2    1    1    2  501    0  0.21096407296E+02 -0.52600259543E+01  0.39351637810E+01  0.22095515106E+02  0.00000000000E+00 0.  1.
          1    1    1    2  502    0 -0.21096407296E+02  0.52600259543E+01 -0.68765724118E+02  0.72121086288E+02  0.00000000000E+00 0. -1.
</event>
<event>
 4    1  0.3664744E+003  0.2184297E+02  0.7546771E-02  0.1507562E+00
          2   -1    0    0  502    0  0.00000000000E+00  0.00000000000E+00  0.72928282637E+01  0.72928282637E+01  0.00000000000E+00 0. -1.
          1   -1    0    0  501    0 -0.00000000000E+00 -0.00000000000E+00 -0.68040647777E+02  0.68040647777E+02  0.00000000000E+00 0. -1.
          2    1    1    2  501    0 -0.57723528498E+00  0.21835337190E+02 -0.22985179633E+02  0.31708573502E+02  0.00000000000E+00 0. -1.
          1    1    1    2  502    0  0.57723528498E+00 -0.21835337190E+02 -0.37762639881E+02  0.43624902539E+02  0.00000000000E+00 0. -1.
</event>
<event>
 4    1  0.3664744E+003  0.2507014E+02  0.7546771E-02  0.1468020E+00
          2   -1    0    0  502    0  0.00000000000E+00  0.00000000000E+00  0.12193529531E+03  0.12193529531E+03  0.00000000000E+00 0. -1.
          1   -1    0    0  501    0 -0.00000000000E+00 -0.00000000000E+00 -0.86510983011E+02  0.86510983011E+02  0.00000000000E+00 0.  1.
          2    1    1    2  501    0 -0.24777494647E+02 -0.38193514420E+01  0.11878272090E+03  0.12139953242E+03  0.00000000000E+00 0. -1.
          1    1    1    2  502    0  0.24777494647E+02  0.38193514420E+01 -0.83358408606E+02  0.87046745900E+02  0.00000000000E+00 0.  1.
</event>
<event>
 4    1  0.3664744E+003  0.2997489E+02  0.7546771E-02  0.1419815E+00
          2   -1    0    0  502    0  0.00000000000E+00  0.00000000000E+00  0.11813549331E+04  0.11813549331E+04  0.00000000000E+00 0.  1.
          1   -1    0    0  501    0 -0.00000000000E+00 -0.00000000000E+00 -0.11890696829E+03  0.11890696829E+03  0.00000000000E+00 0.  1.
          2    1    1    2  501    0  0.26690275708E+02  0.13642691412E+02  0.11792723881E+04  0.11796532793E+04  0.00000000000E+00 0.  1.
          1    1    1    2  502    0 -0.26690275708E+02 -0.13642691412E+02 -0.11682442333E+03  0.12060862213E+03  0.00000000000E+00 0.  1.
</event>
<event>
 4    1  0.3664744E+003  0.2316152E+02  0.7546771E-02  0.1490480E+00
          2   -1    0    0  502    0  0.00000000000E+00  0.00000000000E+00  0.22764786657E+01  0.22764786657E+01  0.00000000000E+00 0.  1.
          1   -1    0    0  501    0 -0.00000000000E+00 -0.00000000000E+00 -0.27140146928E+03  0.27140146928E+03  0.00000000000E+00 0. -1.
          2    1    1    2  501    0 -0.18840384140E+02 -0.13472050272E+02 -0.84898695413E+02  0.88001390306E+02  0.00000000000E+00 0.  1.
          1    1    1    2  502    0  0.18840384140E+02  0.13472050272E+02 -0.18422629520E+03  0.18567655764E+03  0.00000000000E+00 0. -1.
</event>
<event>
 4    1  0.3664744E+003  0.3285108E+02  0.7546771E-02  0.1396335E+00
          2   -1    0    0  502    0  0.00000000000E+00  0.00000000000E+00  0.26095223997E+04  0.26095223997E+04  0.00000000000E+00 0.  1.
          1   -1    0    0  501    0 -0.00000000000E+00 -0.00000000000E+00 -0.82778409219E+00  0.82778409219E+00  0.00000000000E+00 0. -1.
          2    1    1    2  501    0  0.99645077849E+01  0.31303386719E+02  0.22276158674E+04  0.22278580848E+04  0.00000000000E+00 0.  1.
          1    1    1    2  502    0 -0.99645077849E+01 -0.31303386719E+02  0.38107874823E+03  0.38249209899E+03  0.00000000000E+00 0. -1.
</event>
<event>
 4    1  0.3664744E+003  0.2058735E+02  0.7546771E-02  0.1525239E+00
          2   -1    0    0  502    0  0.00000000000E+00  0.00000000000E+00  0.28951300276E+03  0.28951300276E+03  0.00000000000E+00 0. -1.
          1   -1    0    0  501    0 -0.00000000000E+00 -0.00000000000E+00 -0.25940328296E+01  0.25940328296E+01  0.00000000000E+00 0.  1.
          2    1    1    2  501    0  0.20587142688E+02 -0.91343840022E-01  0.23985909845E+03  0.24074099339E+03  0.00000000000E+00 0. -1.
          1    1    1    2  502    0 -0.20587142688E+02  0.91343840022E-01  0.47059871475E+02  0.51366042197E+02  0.00000000000E+00 0.  1.
</event>
<event>
 4    1  0.3664744E+003  0.2701560E+02  0.7546771E-02  0.1447451E+00
          2   -1    0    0  502    0  0.00000000000E+00  0.00000000000E+00  0.49597053974E+02  0.49597053974E+02  0.00000000000E+00 0.  1.
          1   -1    0    0  501    0 -0.00000000000E+00 -0.00000000000E+00 -0.45659559826E+02  0.45659559826E+02  0.00000000000E+00 0.  1.
          2    1    1    2  501    0 -0.21575314370E+02  0.16258795000E+02  0.41177978684E+02  0.49249046016E+02  0.00000000000E+00 0.  1.
          1    1    1    2  502    0  0.21575314370E+02 -0.16258795000E+02 -0.37240484535E+02  0.46007567784E+02  0.00000000000E+00 0.  1.
</event>
<event>
 4    1  0.3664744E+003  0.2482331E+02  0.7546771E-02  0.1470790E+00
          2   -1    0    0  502    0  0.00000000000E+00  0.00000000000E+00  0.39599730440E+01  0.39599730440E+01  0.00000000000E+00 0. -1.
          1   -1    0    0  501    0 -0.00000000000E+00 -0.00000000000E+00 -0.15024727912E+04  0.15024727912E+04  0.00000000000E+00 0.  1.
          2    1    1    2  501    0 -0.16965423464E+02  0.18121013620E+02 -0.36109959625E+02  0.43819241345E+02  0.00000000000E+00 0. -1.
          1    1    1    2  502    0  0.16965423464E+02 -0.18121013620E+02 -0.14624028586E+04  0.14626135229E+04  0.00000000000E+00 0.  1.
</event>
<event>
 4    1  0.3664744E+003  0.2702741E+02  0.7546771E-02  0.1447333E+00
          2   -1    0    0  502    0  0.00000000000E+00  0.00000000000E+00  0.49934974212E+03  0.49934974212E+03  0.00000000000E+00 0. -1.
          1   -1    0    0  501    0 -0.00000000000E+00 -0.00000000000E+00 -0.17325266790E+01  0.17325266790E+01  0.00000000000E+00 0. -1.
          2    1    1    2  501    0 -0.23099573775E+02  0.14031775878E+02  0.34765231868E+03  0.34870132739E+03  0.00000000000E+00 0. -1.
          1    1    1    2  502    0  0.23099573775E+02 -0.14031775878E+02  0.14996489677E+03  0.15238094141E+03  0.00000000000E+00 0. -1.
</event>
<event>
 4    1  0.3664744E+003  0.2549068E+02  0.7546771E-02  0.1463388E+00
          2   -1    0    0  502    0  0.00000000000E+00  0.00000000000E+00  0.11226885545E+04  0.11226885545E+04  0.00000000000E+00 0.  1.
          1   -1    0    0  501    0 -0.00000000000E+00 -0.00000000000E+00 -0.88758589803E+00  0.88758589803E+00  0.00000000000E+00 0.  1.
          2    1    1    2  501    0  0.15645450455E+02  0.20124474102E+02  0.89227535313E+03  0.89263938989E+03  0.00000000000E+00 0.  1.
          1    1    1    2  502    0 -0.15645450455E+02 -0.20124474102E+02  0.22952561542E+03  0.23093675046E+03  0.00000000000E+00 0.  1.
</event>
<event>
 4    1  0.3664744E+003  0.2766424E+02  0.7546771E-02  0.1441047E+00
          2   -1    0    0  502    0  0.00000000000E+00  0.00000000000E+00  0.49288413414E+01  0.49288413414E+01  0.00000000000E+00 0.  1.
          1   -1    0    0  501    0 -0.00000000000E+00 -0.00000000000E+00 -0.95620439150E+03  0.95620439150E+03  0.00000000000E+00 0.  1.
          2    1    1    2  501    0  0.29642379711E+01  0.27504974784E+02 -0.35816534454E+02  0.45256319834E+02  0.00000000000E+00 0.  1.
          1    1    1    2  502    0 -0.29642379711E+01 -0.27504974784E+02 -0.91545901570E+03  0.91587691301E+03  0.00000000000E+00 0.  1.
</event>
<event>
 4    1  0.3664744E+003  0.2311468E+02  0.7546771E-02  0.1491063E+00
          2   -1    0    0  502    0  0.00000000000E+00  0.00000000000E+00  0.74466037510E+03  0.74466037510E+03  0.00000000000E+00 0. -1.
          1   -1    0    0  501    0 -0.00000000000E+00 -0.00000000000E+00 -0.20383988983E+01  0.20383988983E+01  0.00000000000E+00 0. -1.
          2    1    1    2  501    0 -0.22518978297E+02  0.52138313438E+01  0.67185413907E+03  0.67225164381E+03  0.00000000000E+00 0. -1.
          1    1    1    2  502    0  0.22518978297E+02 -0.52138313438E+01  0.70767837127E+02  0.74447130183E+02  0.00000000000E+00 0. -1.
</event>
<event>
 4    1  0.3664744E+003  0.2048312E+02  0.7546771E-02  0.1526774E+00
          2   -1    0    0  502    0  0.00000000000E+00  0.00000000000E+00  0.28389919755E+00  0.28389919755E+00  0.00000000000E+00 0. -1.
          1   -1    0    0  501    0 -0.00000000000E+00 -0.00000000000E+00 -0.14796682660E+04  0.14796682660E+04  0.00000000000E+00 0. -1.
          2    1    1    2  501    0 -0.20325827875E+02  0.25335284647E+01 -0.71369270259E+03  0.71398657675E+03  0.00000000000E+00 0. -1.
          1    1    1    2  502    0  0.20325827875E+02 -0.25335284647E+01 -0.76569166424E+03  0.76596558848E+03  0.00000000000E+00 0. -1.
</event>
<event>
 4    1  0.3664744E+003  0.2149781E+02  0.7546771E-02  0.1512275E+00
          2   -1    0    0  502    0  0.00000000000E+00  0.00000000000E+00  0.12832779481E+03  0.12832779481E+03  0.00000000000E+00 0. -1.
          1   -1    0    0  501    0 -0.00000000000E+00 -0.00000000000E+00 -0.69804017697E+01  0.69804017697E+01  0.00000000000E+00 0. -1.
          2    1    1    2  501    0 -0.20464702140E+01  0.21400182208E+02  0.10774433111E+03  0.10986808784E+03  0.00000000000E+00 0. -1.
          1    1    1    2  502    0  0.20464702140E+01 -0.21400182208E+02  0.13603061928E+02  0.25440108739E+02  0.00000000000E+00 0. -1.
</event>
<event>
 4    1  0.3664744E+003  0.3663237E+02  0.7546771E-02  0.1369436E+00
          2   -1    0    0  502    0  0.00000000000E+00  0.00000000000E+00  0.26063533574E+02  0.26063533574E+02  0.00000000000E+00 0. -1.
          1   -1    0    0  501    0 -0.00000000000E+00 -0.00000000000E+00 -0.75415549900E+02  0.75415549900E+02  0.00000000000E+00 0. -1.
          2    1    1    2  501    0 -0.32971321979E+02  0.15963161277E+02  0.39048438904E+01  0.36839902237E+02  0.00000000000E+00 0. -1.
          1    1    1    2  502    0  0.32971321979E+02 -0.15963161277E+02 -0.53256860216E+02  0.64639181238E+02  0.00000000000E+00 0. -1.
</event>
<event>
 4    1  0.3664744E+003  0.3522520E+02  0.7546771E-02  0.1378987E+00
          2   -1    0    0  502    0  0.00000000000E+00  0.00000000000E+00  0.67824187270E+03  0.67824187270E+03  0.00000000000E+00 0.  1.
          1   -1    0    0  501    0 -0.00000000000E+00 -0.00000000000E+00 -0.55724636371E+02  0.55724636371E+02  0.00000000000E+00 0.  1.
          2    1    1    2  501    0 -0.26081200942E+02  0.23676694323E+02  0.67216751142E+03  0.67308987387E+03  0.00000000000E+00 0.  1.
          1    1    1    2  502    0  0.26081200942E+02 -0.23676694323E+02 -0.49650275092E+02  0.60876635200E+02  0.00000000000E+00 0.  1.
</event>
<event>
 4    1  0.3664744E+003  0.3503688E+02  0.7546771E-02  0.1380304E+00
          2   -1    0    0  502    0  0.00000000000E+00  0.00000000000E+00  0.16353560646E+04  0.16353560646E+04  0.00000000000E+00 0.  1.
          1   -1    0    0  501    0 -0.00000000000E+00 -0.00000000000E+00 -0.24780648971E+01  0.24780648971E+01  0.00000000000E+00 0. -1.
          2    1    1    2  501    0 -0.34916124362E+02 -0.29063702507E+01  0.15001643875E+04  0.15005734811E+04  0.00000000000E+00 0.  1.
          1    1    1    2  502    0  0.34916124362E+02  0.29063702507E+01  0.13271361227E+03  0.13726064844E+03  0.00000000000E+00 0. -1.
</event>
<event>
 4    1  0.3664744E+003  0.2065850E+02  0.7546771E-02  0.1524197E+00
          2   -1    0    0  502    0  0.00000000000E+00  0.00000000000E+00  0.12974010613E+04  0.12974010613E+04  0.00000000000E+00 0. -1.
          1   -1    0    0  501    0 -0.00000000000E+00 -0.00000000000E+00 -0.46756201769E+00  0.46756201769E+00  0.00000000000E+00 0. -1.
          2    1    1    2  501    0  0.14474165004E+01  0.20607730004E+02  0.10018040213E+04  0.10020170012E+04  0.00000000000E+00 0. -1.
          1    1    1    2  502    0 -0.14474165004E+01 -0.20607730004E+02  0.29512947795E+03  0.29585162211E+03  0.00000000000E+00 0. -1.
</event>
<event>
 4    1  0.3664744E+003  0.2024014E+02  0.7546771E-02  0.1530396E+00
          2   -1    0    0  502    0  0.00000000000E+00  0.00000000000E+00  0.11954878208E+04  0.11954878208E+04  0.00000000000E+00 0.  1.
          1   -1    0    0  501    0 -0.00000000000E+00 -0.00000000000E+00 -0.13576584353E+01  0.13576584353E+01  0.00000000000E+00 0.  1.
          2    1    1    2  501    0 -0.18330931852E+02 -0.85813949063E+01  0.11144840827E+04  0.11146678582E+04  0.00000000000E+00 0.  1.
          1    1    1    2  502    0  0.18330931852E+02  0.85813949063E+01  0.79646079631E+02  0.82177621051E+02  0.00000000000E+00 0.  1.
</event>
<event>
 4    1  0.3664744E+003  0.4263441E+02  0.7546771E-02  0.1333703E+00
          2   -1    0    0  502    0  0.00000000000E+00  0.00000000000E+00  0.82787098977E+03  0.82787098977E+03  0.00000000000E+00 0. -1.
          1   -1    0    0  501    0 -0.00000000000E+00 -0.00000000000E+00 -0.16797803940E+02  0.16797803940E+02  0.00000000000E+00 0.  1.
          2    1    1    2  501    0  0.41236930704E+02 -0.10826274341E+02  0.79930336102E+03  0.80043960147E+03  0.00000000000E+00 0. -1.
          1    1    1    2  502    0 -0.41236930704E+02  0.10826274341E+02  0.11769824812E+02  0.44229192239E+02  0.00000000000E+00 0.  1.
</event>
<event>
 4    1  0.3664744E+003  0.2321163E+02  0.7546771E-02  0.1489858E+00
          2   -1    0    0  502    0  0.00000000000E+00  0.00000000000E+00  0.45966460761E+00  0.45966460761E+00  0.00000000000E+00 0.  1.
          1   -1    0    0  501    0 -0.00000000000E+00 -0.00000000000E+00 -0.11810000298E+04  0.11810000298E+04  0.00000000000E+00 0.  1.
          2    1    1    2  501    0 -0.23168743702E+02  0.14101875701E+01 -0.64151126312E+03  0.64193105551E+03  0.00000000000E+00 0.  1.
          1    1    1    2  502    0  0.23168743702E+02 -0.14101875701E+01 -0.53902910212E+03  0.53952863894E+03  0.00000000000E+00 0.  1.
</event>
<event>
 4    1  0.3664744E+003  0.2034033E+02  0.7546771E-02  0.1528895E+00
          2   -1    0    0  502    0  0.00000000000E+00  0.00000000000E+00  0.73168047536E+03  0.73168047536E+03  0.00000000000E+00 0. -1.
          1   -1    0    0  501    0 -0.00000000000E+00 -0.00000000000E+00 -0.46374326449E+02  0.46374326449E+02  0.00000000000E+00 0. -1.
          2    1    1    2  501    0 -0.20075735115E+02  0.32701522194E+01  0.72930146097E+03  0.72958505331E+03  0.00000000000E+00 0. -1.
          1    1    1    2  502    0  0.20075735115E+02 -0.32701522194E+01 -0.43995312062E+02  0.48469748498E+02  0.00000000000E+00 0. -1.
</event>
<event>
 4    1  0.3664744E+003  0.2091915E+02  0.7546771E-02  0.1520422E+00
          2   -1    0    0  502    0  0.00000000000E+00  0.00000000000E+00  0.16096208013E+03  0.16096208013E+03  0.00000000000E+00 0.  1.
          1   -1    0    0  501    0 -0.00000000000E+00 -0.00000000000E+00 -0.67309315839E+01  0.67309315839E+01  0.00000000000E+00 0.  1.
          2    1    1    2  501    0  0.11460109904E+02 -0.17500765639E+02  0.14185059094E+03  0.14338480068E+03  0.00000000000E+00 0.  1.
          1    1    1    2  502    0 -0.11460109904E+02  0.17500765639E+02  0.12380557610E+02  0.24308211034E+02  0.00000000000E+00 0.  1.
</event>
<event>
 4    1  0.3664744E+003  0.2430530E+02  0.7546771E-02  0.1476727E+00
          2   -1    0    0  502    0  0.00000000000E+00  0.00000000000E+00  0.40890460236E+01  0.40890460236E+01  0.00000000000E+00 0. -1.
          1   -1    0    0  501    0 -0.00000000000E+00 -0.00000000000E+00 -0.31860912529E+03  0.31860912529E+03  0.00000000000E+00 0. -1.
          2    1    1    2  501    0  0.12743198517E+02  0.20696825133E+02 -0.37975376897E+02  0.45087436493E+02  0.00000000000E+00 0. -1.
          1    1    1    2  502    0 -0.12743198517E+02 -0.20696825133E+02 -0.27654470237E+03  0.27761073483E+03  0.00000000000E+00 0. -1.
</event>
<event>
 4    1  0.3664744E+003  0.2119340E+02  0.7546771E-02  0.1516521E+00
          2   -1    0    0  502    0  0.00000000000E+00  0.00000000000E+00  0.44374883727E+01  0.44374883727E+01  0.00000000000E+00 0.  1.
          1   -1    0    0  501    0 -0.00000000000E+00 -0.00000000000E+00 -0.13944497437E+04  0.13944497437E+04  0.00000000000E+00 0. -1.
          2    1    1    2  501    0  0.77243284269E+00 -0.21179322232E+02 -0.21426096069E+02  0.30136986170E+02  0.00000000000E+00 0.  1.
          1    1    1    2  502    0 -0.77243284269E+00  0.21179322232E+02 -0.13685861593E+04  0.13687502459E+04  0.00000000000E+00 0. -1.
</event>
<event>
 4    1  0.3664744E+003  0.2489707E+02  0.7546771E-02  0.1469958E+00
          2   -1    0    0  502    0  0.00000000000E+00  0.00000000000E+00  0.35274432287E+00  0.35274432287E+00  0.00000000000E+00 0. -1.
          1   -1    0    0  501    0 -0.00000000000E+00 -0.00000000000E+00 -0.20217385934E+04  0.20217385934E+04  0.00000000000E+00 0. -1.
          2    1    1    2  501    0  0.11740893928E+02  0.21954855491E+02 -0.64501249570E+03  0.64549282248E+03  0.00000000000E+00 0. -1.
          1    1    1    2  502    0 -0.11740893928E+02 -0.21954855491E+02 -0.13763733534E+04  0.13765985153E+04  0.00000000000E+00 0. -1.
</event>
<event>
 4    1  0.3664744E+003  0.2457684E+02  0.7546771E-02  0.1473593E+00
          2   -1    0    0  502    0  0.00000000000E+00  0.00000000000E+00  0.18968971043E+02  0.18968971043E+02  0.00000000000E+00 0.  1.
          1   -1    0    0  501    0 -0.00000000000E+00 -0.00000000000E+00 -0.33660425525E+02  0.33660425525E+02  0.00000000000E+00 0. -1.
          2    1    1    2  501    0  0.24097305942E+02  0.48312417429E+01 -0.12304433236E+01  0.24607621609E+02  0.00000000000E+00 0.  1.
          1    1    1    2  502    0 -0.24097305942E+02 -0.48312417429E+01 -0.13461011159E+02  0.28021774960E+02  0.00000000000E+00 0. -1.
</event>
<event>
 4    1  0.3664744E+003  0.2796140E+02  0.7546771E-02  0.1438183E+00
          2   -1    0    0  502    0  0.00000000000E+00  0.00000000000E+00  0.39656941996E+01  0.39656941996E+01  0.00000000000E+00 0. -1.
          1   -1    0    0  501    0 -0.00000000000E+00 -0.00000000000E+00 -0.37968976546E+03  0.37968976546E+03  0.00000000000E+00 0. -1.
          2    1    1    2  501    0 -0.15384786879E+02  0.23348406934E+02 -0.54854962343E+02  0.61570339185E+02  0.00000000000E+00 0. -1.
          1    1    1    2  502    0  0.15384786879E+02 -0.23348406934E+02 -0.32086910892E+03  0.32208512048E+03  0.00000000000E+00 0. -1.
</event>
<event>
 4    1  0.3664744E+003  0.3296772E+02  0.7546771E-02  0.1395443E+00
          2   -1    0    0  502    0  0.00000000000E+00  0.00000000000E+00  0.86516108717E+02  0.86516108717E+02  0.00000000000E+00 0.  1.
          1   -1    0    0  501    0 -0.00000000000E+00 -0.00000000000E+00 -0.60567435692E+03  0.60567435692E+03  0.00000000000E+00 0.  1.
          2    1    1    2  501    0 -0.20283465472E+02  0.25989445412E+02  0.82908022857E+02  0.89222253381E+02  0.00000000000E+00 0.  1.
          1    1    1    2  502    0  0.20283465472E+02 -0.25989445412E+02 -0.60206627105E+03  0.60296821225E+03  0.00000000000E+00 0.  1.
</event>
<event>
 4    1  0.3664744E+003  0.2132319E+02  0.7546771E-02  0.1514700E+00
          2   -1    0    0  502    0  0.00000000000E+00  0.00000000000E+00  0.64183993599E+01  0.64183993599E+01  0.00000000000E+00 0. -1.
          1   -1    0    0  501    0 -0.00000000000E+00 -0.00000000000E+00 -0.12221419677E+03  0.12221419677E+03  0.00000000000E+00 0.  1.
          2    1    1    2  501    0  0.94146953864E+01  0.19132217285E+02 -0.16198142885E+02  0.26777939808E+02  0.00000000000E+00 0. -1.
          1    1    1    2  502    0 -0.94146953864E+01 -0.19132217285E+02 -0.99597654529E+02  0.10185465633E+03  0.00000000000E+00 0.  1.
</event>
<event>
 4    1  0.3664744E+003  0.3050533E+02  0.7546771E-02  0.1415255E+00
          2   -1    0    0  502    0  0.00000000000E+00  0.00000000000E+00  0.83412443342E+02  0.83412443342E+02  0.00000000000E+00 0. -1.
          1   -1    0    0  501    0 -0.00000000000E+00 -0.00000000000E+00 -0.11156421789E+02  0.11156421789E+02  0.00000000000E+00 0. -1.
          2    1    1    2  501    0  0.29566161638E+02 -0.75110727923E+01  0.35970914525E+02  0.47164402044E+02  0.00000000000E+00 0. -1.
          1    1    1    2  502    0 -0.29566161638E+02  0.75110727923E+01  0.36285107028E+02  0.47404463086E+02  0.00000000000E+00 0. -1.
</event>
<event>
 4    1  0.3664744E+003  0.2356680E+02  0.7546771E-02  0.1485501E+00
          2   -1    0    0  502    0  0.00000000000E+00  0.00000000000E+00  0.20384866860E+02  0.20384866860E+02  0.00000000000E+00 0. -1.
          1   -1    0    0  501    0 -0.00000000000E+00 -0.00000000000E+00 -0.97725845140E+02  0.97725845140E+02  0.00000000000E+00 0.  1.
          2    1    1    2  501    0  0.16388627533E+02  0.16935382379E+02  0.11481576762E+02  0.26214898315E+02  0.00000000000E+00 0. -1.
          1    1    1    2  502    0 -0.16388627533E+02 -0.16935382379E+02 -0.88822555042E+02  0.91895813685E+02  0.00000000000E+00 0.  1.
</event>
<event>
 4    1  0.3664744E+003  0.2020511E+02  0.7546771E-02  0.1530923E+00
          2   -1    0    0  502    0  0.00000000000E+00  0.00000000000E+00  0.24754916120E+02  0.24754916120E+02  0.00000000000E+00 0. -1.
          1   -1    0    0  501    0 -0.00000000000E+00 -0.00000000000E+00 -0.28815418430E+03  0.28815418430E+03  0.00000000000E+00 0. -1.
          2    1    1    2  501    0 -0.18267949272E+02  0.86329895921E+01  0.20211883308E+02  0.28579130616E+02  0.00000000000E+00 0. -1.
          1    1    1    2  502    0  0.18267949272E+02 -0.86329895921E+01 -0.28361115149E+03  0.28432996981E+03  0.00000000000E+00 0. -1.
</event>
<event>
 4    1  0.3664744E+003  0.3274505E+02  0.7546771E-02  0.1397149E+00
          2   -1    0    0  502    0  0.00000000000E+00  0.00000000000E+00  0.80279484859E+01  0.80279484859E+01  0.00000000000E+00 0.  1.
          1   -1    0    0  501    0 -0.00000000000E+00 -0.00000000000E+00 -0.48465152850E+03  0.48465152850E+03  0.00000000000E+00 0. -1.
          2    1    1    2  501    0  0.93387693454E+01 -0.31385121998E+02 -0.28645853533E+02  0.43506590539E+02  0.00000000000E+00 0.  1.
          1    1    1    2  502    0 -0.93387693454E+01  0.31385121998E+02 -0.44797772648E+03  0.44917288645E+03  0.00000000000E+00 0. -1.
</event>
<event>
 4    1  0.3664744E+003  0.2138654E+02  0.7546771E-02  0.1513817E+00
          2   -1    0    0  502    0  0.00000000000E+00  0.00000000000E+00  0.41665376288E+02  0.41665376288E+02  0.00000000000E+00 0. -1.
          1   -1    0    0  501    0 -0.00000000000E+00 -0.00000000000E+00 -0.11627229670E+02  0.11627229670E+02  0.00000000000E+00 0. -1.
          2    1    1    2  501    0  0.20521809551E+02  0.60198858420E+01  0.87204020027E+01  0.23096084168E+02  0.00000000000E+00 0. -1.
          1    1    1    2  502    0 -0.20521809551E+02 -0.60198858420E+01  0.21317744615E+02  0.30196521791E+02  0.00000000000E+00 0. -1.
</event>
<event>
 4    1  0.3664744E+003  0.2534238E+02  0.7546771E-02  0.1465009E+00
          2   -1    0    0  502    0  0.00000000000E+00  0.00000000000E+00  0.71152679721E+01  0.71152679721E+01  0.00000000000E+00 0. -1.
          1   -1    0    0  501    0 -0.00000000000E+00 -0.00000000000E+00 -0.99588903505E+02  0.99588903505E+02  0.00000000000E+00 0. -1.
          2    1    1    2  501    0  0.19111184582E+02 -0.16643279355E+02 -0.29909236756E+02  0.39202022488E+02  0.00000000000E+00 0. -1.
          1    1    1    2  502    0 -0.19111184582E+02  0.16643279355E+02 -0.62564398777E+02  0.67502148989E+02  0.00000000000E+00 0. -1.
</event>
<event>
 4    1  0.3664744E+003  0.4873943E+02  0.7546771E-02  0.1303732E+00
          2   -1    0    0  502    0  0.00000000000E+00  0.00000000000E+00  0.81964252808E+03  0.81964252808E+03  0.00000000000E+00 0. -1.
          1   -1    0    0  501    0 -0.00000000000E+00 -0.00000000000E+00 -0.71860854627E+01  0.71860854627E+01  0.00000000000E+00 0. -1.
          2    1    1    2  501    0  0.33271603608E+01  0.48625738272E+02  0.72557177584E+03  0.72720694050E+03  0.00000000000E+00 0. -1.
          1    1    1    2  502    0 -0.33271603608E+01 -0.48625738272E+02  0.86884666783E+02  0.99621673046E+02  0.00000000000E+00 0. -1.
</event>
<event>
 4    1  0.3664744E+003  0.2646847E+02  0.7546771E-02  0.1453022E+00
          2   -1    0    0  502    0  0.00000000000E+00  0.00000000000E+00  0.27172394675E+02  0.27172394675E+02  0.00000000000E+00 0. -1.
          1   -1    0    0  501    0 -0.00000000000E+00 -0.00000000000E+00 -0.52562634015E+03  0.52562634015E+03  0.00000000000E+00 0. -1.
          2    1    1    2  501    0  0.26394618332E+02 -0.19758389758E+01  0.20308255828E+02  0.33361730640E+02  0.00000000000E+00 0. -1.
          1    1    1    2  502    0 -0.26394618332E+02  0.19758389758E+01 -0.51876220131E+03  0.51943700419E+03  0.00000000000E+00 0. -1.
</event>
<event>
 4    1  0.3664744E+003  0.4553981E+02  0.7546771E-02  0.1318762E+00
          2   -1    0    0  502    0  0.00000000000E+00  0.00000000000E+00  0.22276958748E+04  0.22276958748E+04  0.00000000000E+00 0. -1.
          1   -1    0    0  501    0 -0.00000000000E+00 -0.00000000000E+00 -0.15005790073E+01  0.15005790073E+01  0.00000000000E+00 0.  1.
          2    1    1    2  501    0  0.39723825047E+02 -0.22268641484E+02  0.17998256530E+04  0.18004016930E+04  0.00000000000E+00 0. -1.
          1    1    1    2  502    0 -0.39723825047E+02  0.22268641484E+02  0.42636964279E+03  0.42879476089E+03  0.00000000000E+00 0.  1.
</event>
<event>
 4    1  0.3664744E+003  0.3215158E+02  0.7546771E-02  0.1401776E+00
          2   -1    0    0  502    0  0.00000000000E+00  0.00000000000E+00  0.87008197416E+02  0.87008197416E+02  0.00000000000E+00 0.  1.
          1   -1    0    0  501    0 -0.00000000000E+00 -0.00000000000E+00 -0.66841968318E+03  0.66841968318E+03  0.00000000000E+00 0. -1.
          2    1    1    2  501    0  0.16615060842E+02 -0.27525691075E+02  0.83636326005E+02  0.89603342256E+02  0.00000000000E+00 0.  1.
          1    1    1    2  502    0 -0.16615060842E+02  0.27525691075E+02 -0.66504781177E+03  0.66582453834E+03  0.00000000000E+00 0. -1.
</event>
<event>
 4    1  0.3664744E+003  0.2385804E+02  0.7546771E-02  0.1481996E+00
          2   -1    0    0  502    0  0.00000000000E+00  0.00000000000E+00  0.43984920915E+03  0.43984920915E+03  0.00000000000E+00 0.  1.
          1   -1    0    0  501    0 -0.00000000000E+00 -0.00000000000E+00 -0.85006051732E+01  0.85006051732E+01  0.00000000000E+00 0.  1.
          2    1    1    2  501    0 -0.86285945114E+01 -0.22243053554E+02  0.42208139546E+03  0.42275514245E+03  0.00000000000E+00 0.  1.
          1    1    1    2  502    0  0.86285945114E+01  0.22243053554E+02  0.92672085189E+01  0.25594671875E+02  0.00000000000E+00 0.  1.
</event>
<event>
 4    1  0.3664744E+003  0.2204120E+02  0.7546771E-02  0.1504902E+00
          2   -1    0    0  502    0  0.00000000000E+00  0.00000000000E+00  0.36943315646E+02  0.36943315646E+02  0.00000000000E+00 0.  1.
          1   -1    0    0  501    0 -0.00000000000E+00 -0.00000000000E+00 -0.64649772842E+02  0.64649772842E+02  0.00000000000E+00 0.  1.
          2    1    1    2  501    0 -0.21148364577E+02  0.62097797522E+01  0.31483707970E+02  0.38432259319E+02  0.00000000000E+00 0.  1.
          1    1    1    2  502    0  0.21148364577E+02 -0.62097797522E+01 -0.59190165166E+02  0.63160829168E+02  0.00000000000E+00 0.  1.
</event>
<event>
 4    1  0.3664744E+003  0.3014936E+02  0.7546771E-02  0.1418303E+00
          2   -1    0    0  502    0  0.00000000000E+00  0.00000000000E+00  0.21684707799E+03  0.21684707799E+03  0.00000000000E+00 0. -1.
          1   -1    0    0  501    0 -0.00000000000E+00 -0.00000000000E+00 -0.83703815957E+02  0.83703815957E+02  0.00000000000E+00 0. -1.
          2    1    1    2  501    0 -0.29708256467E+02 -0.51384283469E+01  0.21303591307E+03  0.21515874187E+03  0.00000000000E+00 0. -1.
          1    1    1    2  502    0  0.29708256467E+02  0.51384283469E+01 -0.79892651029E+02  0.85392152079E+02  0.00000000000E+00 0. -1.
</event>
<event>
 4    1  0.3664744E+003  0.2257645E+02  0.7546771E-02  0.1497886E+00
          2   -1    0    0  502    0  0.00000000000E+00  0.00000000000E+00  0.22433106945E+03  0.22433106945E+03  0.00000000000E+00 0.  1.
          1   -1    0    0  501    0 -0.00000000000E+00 -0.00000000000E+00 -0.34841092826E+02  0.34841092826E+02  0.00000000000E+00 0. -1.
          2    1    1    2  501    0 -0.20561356928E+02 -0.93234498930E+01  0.22003453263E+03  0.22118971872E+03  0.00000000000E+00 0.  1.
          1    1    1    2  502    0  0.20561356928E+02  0.93234498930E+01 -0.30544556010E+02  0.37982443556E+02  0.00000000000E+00 0. -1.
</event>
<event>
 4    1  0.3664744E+003  0.2961871E+02  0.7546771E-02  0.1422939E+00
          2   -1    0    0  502    0  0.00000000000E+00  0.00000000000E+00  0.75769907178E+03  0.75769907178E+03  0.00000000000E+00 0. -1.
          1   -1    0    0  501    0 -0.00000000000E+00 -0.00000000000E+00 -0.12832495416E+02  0.12832495416E+02  0.00000000000E+00 0.  1.
          2    1    1    2  501    0 -0.10151195765E+02  0.27824829764E+02  0.73990808952E+03  0.74050067446E+03  0.00000000000E+00 0. -1.
          1    1    1    2  502    0  0.10151195765E+02 -0.27824829764E+02  0.49584868370E+01  0.30030892737E+02  0.00000000000E+00 0.  1.
</event>
<event>
 4    1  0.3664744E+003  0.5725386E+02  0.7546771E-02  0.1269460E+00
          2   -1    0    0  502    0  0.00000000000E+00  0.00000000000E+00  0.72536728075E+02  0.72536728075E+02  0.00000000000E+00 0.  1.
          1   -1    0    0  501    0 -0.00000000000E+00 -0.00000000000E+00 -0.12176823657E+04  0.12176823657E+04  0.00000000000E+00 0.  1.
          2    1    1    2  501    0 -0.15824384880E+02 -0.55023574295E+02  0.60452810103E+02  0.83261918873E+02  0.00000000000E+00 0.  1.
          1    1    1    2  502    0  0.15824384880E+02  0.55023574295E+02 -0.12055984478E+04  0.12069571749E+04  0.00000000000E+00 0.  1.
</event>
<event>
 4    1  0.3664744E+003  0.2135339E+02  0.7546771E-02  0.1514279E+00
          2   -1    0    0  502    0  0.00000000000E+00  0.00000000000E+00  0.44425991837E+01  0.44425991837E+01  0.00000000000E+00 0.  1.
          1   -1    0    0  501    0 -0.00000000000E+00 -0.00000000000E+00 -0.18132236439E+03  0.18132236439E+03  0.00000000000E+00 0.  1.
          2    1    1    2  501    0 -0.21197049084E+02 -0.25792355496E+01 -0.27252779555E+02  0.34621977692E+02  0.00000000000E+00 0.  1.
          1    1    1    2  502    0  0.21197049084E+02  0.25792355496E+01 -0.14962698565E+03  0.15114298588E+03  0.00000000000E+00 0.  1.
</event>
<event>
 4    1  0.3664744E+003  0.2669204E+02  0.7546771E-02  0.1450726E+00
          2   -1    0    0  502    0  0.00000000000E+00  0.00000000000E+00  0.66606725831E+03  0.66606725831E+03  0.00000000000E+00 0.  1.
          1   -1    0    0  501    0 -0.00000000000E+00 -0.00000000000E+00 -0.12814401514E+01  0.12814401514E+01  0.00000000000E+00 0.  1.
          2    1    1    2  501    0  0.22684016471E+02 -0.14067716458E+02  0.46804193404E+03  0.46880242883E+03  0.00000000000E+00 0.  1.
          1    1    1    2  502    0 -0.22684016471E+02  0.14067716458E+02  0.19674388411E+03  0.19854626963E+03  0.00000000000E+00 0.  1.
</event>
<event>
 4    1  0.3664744E+003  0.2655149E+02  0.7546771E-02  0.1452166E+00
          2   -1    0    0  502    0  0.00000000000E+00  0.00000000000E+00  0.78728354393E+03  0.78728354393E+03  0.00000000000E+00 0.  1.
          1   -1    0    0  501    0 -0.00000000000E+00 -0.00000000000E+00 -0.94447143389E+00  0.94447143389E+00  0.00000000000E+00 0.  1.
          2    1    1    2  501    0 -0.22585399880E+02 -0.13959993019E+02  0.48294792878E+03  0.48367725148E+03  0.00000000000E+00 0.  1.
          1    1    1    2  502    0  0.22585399880E+02  0.13959993019E+02  0.30339114372E+03  0.30455076388E+03  0.00000000000E+00 0.  1.
</event>
<event>
 4    1  0.3664744E+003  0.2711995E+02  0.7546771E-02  0.1446407E+00
          2   -1    0    0  502    0  0.00000000000E+00  0.00000000000E+00  0.15208949506E+02  0.15208949506E+02  0.00000000000E+00 0.  1.
          1   -1    0    0  501    0 -0.00000000000E+00 -0.00000000000E+00 -0.96862764283E+02  0.96862764283E+02  0.00000000000E+00 0. -1.
          2    1    1    2  501    0 -0.57335195807E+01 -0.26506951480E+02 -0.11740322824E+01  0.27145350898E+02  0.00000000000E+00 0.  1.
          1    1    1    2  502    0  0.57335195807E+01  0.26506951480E+02 -0.80479782494E+02  0.84926362891E+02  0.00000000000E+00 0. -1.
</event>
<event>
 4    1  0.3664744E+003  0.2717315E+02  0.7546771E-02  0.1445876E+00
          2   -1    0    0  502    0  0.00000000000E+00  0.00000000000E+00  0.13384605792E+04  0.13384605792E+04  0.00000000000E+00 0. -1.
          1   -1    0    0  501    0 -0.00000000000E+00 -0.00000000000E+00 -0.27640561121E+01  0.27640561121E+01  0.00000000000E+00 0.  1.
          2    1    1    2  501    0  0.19332017089E+02 -0.19095896675E+02  0.12678177652E+04  0.12681089330E+04  0.00000000000E+00 0. -1.
          1    1    1    2  502    0 -0.19332017089E+02  0.19095896675E+02  0.67878757878E+02  0.73115702320E+02  0.00000000000E+00 0.  1.
</event>
<event>
 4    1  0.3664744E+003  0.2498512E+02  0.7546771E-02  0.1468970E+00
          2   -1    0    0  502    0  0.00000000000E+00  0.00000000000E+00  0.11432305926E+04  0.11432305926E+04  0.00000000000E+00 0.  1.
          1   -1    0    0  501    0 -0.00000000000E+00 -0.00000000000E+00 -0.57354331519E+00  0.57354331519E+00  0.00000000000E+00 0.  1.
          2    1    1    2  501    0 -0.24738426526E+02 -0.35022395243E+01  0.44610352247E+03  0.44680265016E+03  0.00000000000E+00 0.  1.
          1    1    1    2  502    0  0.24738426526E+02  0.35022395243E+01  0.69655352680E+03  0.69700148574E+03  0.00000000000E+00 0.  1.
</event>
<event>
 4    1  0.3664744E+003  0.4225013E+02  0.7546771E-02  0.1335782E+00
          2   -1    0    0  502    0  0.00000000000E+00  0.00000000000E+00  0.32641842774E+03  0.32641842774E+03  0.00000000000E+00 0. -1.
          1   -1    0    0  501    0 -0.00000000000E+00 -0.00000000000E+00 -0.13060378313E+04  0.13060378313E+04  0.00000000000E+00 0.  1.
          2    1    1    2  501    0  0.21366832278E+02  0.36449030220E+02  0.32470777233E+03  0.32744497361E+03  0.00000000000E+00 0. -1.
          1    1    1    2  502    0 -0.21366832278E+02 -0.36449030220E+02 -0.13043271759E+04  0.13050112855E+04  0.00000000000E+00 0.  1.
</event>
<event>
 4    1  0.3664744E+003  0.4006746E+02  0.7546771E-02  0.1348091E+00
          2   -1    0    0  502    0  0.00000000000E+00  0.00000000000E+00  0.10083555326E+02  0.10083555326E+02  0.00000000000E+00 0. -1.
          1   -1    0    0  501    0 -0.00000000000E+00 -0.00000000000E+00 -0.42042779235E+03  0.42042779235E+03  0.00000000000E+00 0. -1.
          2    1    1    2  501    0 -0.24815010729E+02 -0.31458176298E+02 -0.35500040883E+02  0.53531808452E+02  0.00000000000E+00 0. -1.
          1    1    1    2  502    0  0.24815010729E+02  0.31458176298E+02 -0.37484419614E+03  0.37697953922E+03  0.00000000000E+00 0. -1.
</event>
<event>
 4    1  0.3664744E+003  0.2563053E+02  0.7546771E-02  0.1461872E+00
          2   -1    0    0  502    0  0.00000000000E+00  0.00000000000E+00  0.90635844477E+03  0.90635844477E+03  0.00000000000E+00 0. -1.
          1   -1    0    0  501    0 -0.00000000000E+00 -0.00000000000E+00 -0.22533863585E+03  0.22533863585E+03  0.00000000000E+00 0.  1.
          2    1    1    2  501    0 -0.61084065821E+00 -0.25623252532E+02  0.90544769418E+03  0.90581038363E+03  0.00000000000E+00 0. -1.
          1    1    1    2  502    0  0.61084065821E+00  0.25623252532E+02 -0.22442788526E+03  0.22588669699E+03  0.00000000000E+00 0.  1.
</event>
<event>
 4    1  0.3664744E+003  0.2740605E+02  0.7546771E-02  0.1443571E+00
          2   -1    0    0  502    0  0.00000000000E+00  0.00000000000E+00  0.90017492796E+03  0.90017492796E+03  0.00000000000E+00 0.  1.
          1   -1    0    0  501    0 -0.00000000000E+00 -0.00000000000E+00 -0.18568294063E+02  0.18568294063E+02  0.00000000000E+00 0.  1.
          2    1    1    2  501    0  0.26727044364E+02  0.60627444390E+01  0.88973514592E+03  0.89015713312E+03  0.00000000000E+00 0.  1.
          1    1    1    2  502    0 -0.26727044364E+02 -0.60627444390E+01 -0.81285120251E+01  0.28586088895E+02  0.00000000000E+00 0.  1.
</event>
<event>
 4    1  0.3664744E+003  0.2143432E+02  0.7546771E-02  0.1513153E+00
          2   -1    0    0  502    0  0.00000000000E+00  0.00000000000E+00  0.35946460020E+02  0.35946460020E+02  0.00000000000E+00 0. -1.
          1   -1    0    0  501    0 -0.00000000000E+00 -0.00000000000E+00 -0.15145414430E+02  0.15145414430E+02  0.00000000000E+00 0. -1.
          2    1    1    2  501    0 -0.12283622265E+02 -0.17565381261E+02  0.20494153962E+02  0.29655359405E+02  0.00000000000E+00 0. -1.
          1    1    1    2  502    0  0.12283622265E+02  0.17565381261E+02  0.30689162762E+00  0.21436515045E+02  0.00000000000E+00 0. -1.
</event>
<event>
 4    1  0.3664744E+003  0.2037368E+02  0.7546771E-02  0.1528398E+00
          2   -1    0    0  502    0  0.00000000000E+00  0.00000000000E+00  0.39062613566E+03  0.39062613566E+03  0.00000000000E+00 0.  1.
          1   -1    0    0  501    0 -0.00000000000E+00 -0.00000000000E+00 -0.15175880660E+02  0.15175880660E+02  0.00000000000E+00 0.  1.
          2    1    1    2  501    0  0.17468222297E+02  0.10485602515E+02  0.38339364492E+03  0.38393459549E+03  0.00000000000E+00 0.  1.
          1    1    1    2  502    0 -0.17468222297E+02 -0.10485602515E+02 -0.79433899186E+01  0.21867420830E+02  0.00000000000E+00 0.  1.
</event>
<event>
 4    1  0.3664744E+003  0.2186726E+02  0.7546771E-02  0.1507234E+00
          2   -1    0    0  502    0  0.00000000000E+00  0.00000000000E+00  0.20393250920E+02  0.20393250920E+02  0.00000000000E+00 0.  1.
          1   -1    0    0  501    0 -0.00000000000E+00 -0.00000000000E+00 -0.12029195012E+04  0.12029195012E+04  0.00000000000E+00 0. -1.
          2    1    1    2  501    0  0.16272747441E+02 -0.14607358369E+02  0.14402581210E+02  0.26184185558E+02  0.00000000000E+00 0.  1.
          1    1    1    2  502    0 -0.16272747441E+02  0.14607358369E+02 -0.11969288315E+04  0.11971285666E+04  0.00000000000E+00 0. -1.
</event>
<event>
 4    1  0.3664744E+003  0.2267167E+02  0.7546771E-02  0.1496663E+00
          2   -1    0    0  502    0  0.00000000000E+00  0.00000000000E+00  0.74420846583E+02  0.74420846583E+02  0.00000000000E+00 0. -1.
          1   -1    0    0  501    0 -0.00000000000E+00 -0.00000000000E+00 -0.97887829458E+01  0.97887829458E+01  0.00000000000E+00 0.  1.
          2    1    1    2  501    0  0.11893049174E+02 -0.19301812955E+02  0.55162468947E+02  0.59639773493E+02  0.00000000000E+00 0. -1.
          1    1    1    2  502    0 -0.11893049174E+02  0.19301812955E+02  0.94695946904E+01  0.24569856036E+02  0.00000000000E+00 0.  1.
</event>
<event>
 4    1  0.3664744E+003  0.6759585E+02  0.7546771E-02  0.1236001E+00
          2   -1    0    0  502    0  0.00000000000E+00  0.00000000000E+00  0.12023322556E+02  0.12023322556E+02  0.00000000000E+00 0.  1.
          1   -1    0    0  501    0 -0.00000000000E+00 -0.00000000000E+00 -0.39284532132E+03  0.39284532132E+03  0.00000000000E+00 0.  1.
          2    1    1    2  501    0  0.17878350756E+02  0.65188680319E+02 -0.15384548831E+03  0.16804057171E+03  0.00000000000E+00 0.  1.
          1    1    1    2  502    0 -0.17878350756E+02 -0.65188680319E+02 -0.22697651045E+03  0.23682807216E+03  0.00000000000E+00 0.  1.
</event>
<event>
 4    1  0.3664744E+003  0.2031057E+02  0.7546771E-02  0.1529340E+00
          2   -1    0    0  502    0  0.00000000000E+00  0.00000000000E+00  0.75556845551E+01  0.75556845551E+01  0.00000000000E+00 0.  1.
          1   -1    0    0  501    0 -0.00000000000E+00 -0.00000000000E+00 -0.89335769231E+02  0.89335769231E+02  0.00000000000E+00 0.  1.
          2    1    1    2  501    0 -0.60768879748E+00 -0.20301477005E+02 -0.10680181696E+02  0.22947451608E+02  0.00000000000E+00 0.  1.
          1    1    1    2  502    0  0.60768879748E+00  0.20301477005E+02 -0.71099902981E+02  0.73944002178E+02  0.00000000000E+00 0.  1.
</event>
<event>
 4    1  0.3664744E+003  0.3254215E+02  0.7546771E-02  0.1398718E+00
          2   -1    0    0  502    0  0.00000000000E+00  0.00000000000E+00  0.29256621904E+03  0.29256621904E+03  0.00000000000E+00 0. -1.
          1   -1    0    0  501    0 -0.00000000000E+00 -0.00000000000E+00 -0.72251364671E+01  0.72251364671E+01  0.00000000000E+00 0. -1.
          2    1    1    2  501    0  0.28356463246E+02  0.15965659263E+02  0.24855865231E+03  0.25067986541E+03  0.00000000000E+00 0. -1.
          1    1    1    2  502    0 -0.28356463246E+02 -0.15965659263E+02  0.36782430260E+02  0.49111490095E+02  0.00000000000E+00 0. -1.
</event>
<event>
 4    1  0.3664744E+003  0.2316938E+02  0.7546771E-02  0.1490382E+00
          2   -1    0    0  502    0  0.00000000000E+00  0.00000000000E+00  0.78319419569E+03  0.78319419569E+03  0.00000000000E+00 0. -1.
          1   -1    0    0  501    0 -0.00000000000E+00 -0.00000000000E+00 -0.33202610399E+01  0.33202610399E+01  0.00000000000E+00 0.  1.
          2    1    1    2  501    0 -0.19944172074E+02  0.11791953453E+02  0.74025901623E+03  0.74062151689E+03  0.00000000000E+00 0. -1.
          1    1    1    2  502    0  0.19944172074E+02 -0.11791953453E+02  0.39614918414E+02  0.45892939837E+02  0.00000000000E+00 0.  1.
</event>
<event>
 4    1  0.3664744E+003  0.3278447E+02  0.7546771E-02  0.1396846E+00
          2   -1    0    0  502    0  0.00000000000E+00  0.00000000000E+00  0.26736342176E+02  0.26736342176E+02  0.00000000000E+00 0. -1.
          1   -1    0    0  501    0 -0.00000000000E+00 -0.00000000000E+00 -0.11888109621E+04  0.11888109621E+04  0.00000000000E+00 0.  1.
          2    1    1    2  501    0 -0.32816618877E+01 -0.32619816212E+02  0.16371743592E+02  0.36644995602E+02  0.00000000000E+00 0. -1.
          1    1    1    2  502    0  0.32816618877E+01  0.32619816212E+02 -0.11784463635E+04  0.11789023087E+04  0.00000000000E+00 0.  1.
</event>
<event>
 4    1  0.3664744E+003  0.3364599E+02  0.7546771E-02  0.1390340E+00
          2   -1    0    0  502    0  0.00000000000E+00  0.00000000000E+00  0.23135788843E+04  0.23135788843E+04  0.00000000000E+00 0.  1.
          1   -1    0    0  501    0 -0.00000000000E+00 -0.00000000000E+00 -0.61622305033E+01  0.61622305033E+01  0.00000000000E+00 0.  1.
          2    1    1    2  501    0 -0.27664663130E+02 -0.19149913140E+02  0.22665771561E+04  0.22668268697E+04  0.00000000000E+00 0.  1.
          1    1    1    2  502    0  0.27664663130E+02  0.19149913140E+02  0.40839497673E+02  0.52914245054E+02  0.00000000000E+00 0.  1.
</event>
<event>
 4    1  0.3664744E+003  0.3898754E+02  0.7546771E-02  0.1354523E+00
          2   -1    0    0  502    0  0.00000000000E+00  0.00000000000E+00  0.32423277657E+01  0.32423277657E+01  0.00000000000E+00 0.  1.
          1   -1    0    0  501    0 -0.00000000000E+00 -0.00000000000E+00 -0.52521871463E+03  0.52521871463E+03  0.00000000000E+00 0. -1.
          2    1    1    2  501    0 -0.28936128292E+02  0.26129080639E+02 -0.17439282606E+03  0.17869775084E+03  0.00000000000E+00 0.  1.
          1    1    1    2  502    0  0.28936128292E+02 -0.26129080639E+02 -0.34758356080E+03  0.34976329155E+03  0.00000000000E+00 0. -1.
</event>
<event>
 4    1  0.3664744E+003  0.2879887E+02  0.7546771E-02  0.1430329E+00
          2   -1    0    0  502    0  0.00000000000E+00  0.00000000000E+00  0.15632386908E+04  0.15632386908E+04  0.00000000000E+00 0. -1.
          1   -1    0    0  501    0 -0.00000000000E+00 -0.00000000000E+00 -0.14849836851E+02  0.14849836851E+02  0.00000000000E+00 0.  1.
          2    1    1    2  501    0 -0.14130957781E+02 -0.25093641543E+02  0.15490151626E+04  0.15492828498E+04  0.00000000000E+00 0. -1.
          1    1    1    2  502    0  0.14130957781E+02  0.25093641543E+02 -0.62630862538E+00  0.28805677846E+02  0.00000000000E+00 0.  1.
</event>
<event>
 4    1  0.3664744E+003  0.2334314E+02  0.7546771E-02  0.1488234E+00
          2   -1    0    0  502    0  0.00000000000E+00  0.00000000000E+00  0.19430457432E+01  0.19430457432E+01  0.00000000000E+00 0. -1.
          1   -1    0    0  501    0 -0.00000000000E+00 -0.00000000000E+00 -0.10936245551E+04  0.10936245551E+04  0.00000000000E+00 0. -1.
          2    1    1    2  501    0  0.12916121937E+02 -0.19444175543E+02 -0.73483721852E+02  0.77102266799E+02  0.00000000000E+00 0. -1.
          1    1    1    2  502    0 -0.12916121937E+02  0.19444175543E+02 -0.10181977875E+04  0.10184653340E+04  0.00000000000E+00 0. -1.
</event>
<event>
 4    1  0.3664744E+003  0.2187004E+02  0.7546771E-02  0.1507196E+00
          2   -1    0    0  502    0  0.00000000000E+00  0.00000000000E+00  0.31600021736E+02  0.31600021736E+02  0.00000000000E+00 0.  1.
          1   -1    0    0  501    0 -0.00000000000E+00 -0.00000000000E+00 -0.10803958773E+03  0.10803958773E+03  0.00000000000E+00 0. -1.
          2    1    1    2  501    0 -0.18966524073E+02  0.10888960936E+02  0.26524790003E+02  0.34378234253E+02  0.00000000000E+00 0.  1.
          1    1    1    2  502    0  0.18966524073E+02 -0.10888960936E+02 -0.10296435600E+03  0.10526137521E+03  0.00000000000E+00 0. -1.
</event>
<event>
 4    1  0.3664744E+003  0.2666414E+02  0.7546771E-02  0.1451011E+00
          2   -1    0    0  502    0  0.00000000000E+00  0.00000000000E+00  0.21541134754E+01  0.21541134754E+01  0.00000000000E+00 0.  1.
          1   -1    0    0  501    0 -0.00000000000E+00 -0.00000000000E+00 -0.60824674082E+03  0.60824674082E+03  0.00000000000E+00 0. -1.
          2    1    1    2  501    0 -0.75913157566E+01 -0.25560682237E+02 -0.96642779030E+02  0.10025369464E+03  0.00000000000E+00 0.  1.
          1    1    1    2  502    0  0.75913157566E+01  0.25560682237E+02 -0.50944984832E+03  0.51014715965E+03  0.00000000000E+00 0. -1.
</event>
<event>
 4    1  0.3664744E+003  0.2156043E+02  0.7546771E-02  0.1511412E+00
          2   -1    0    0  502    0  0.00000000000E+00  0.00000000000E+00  0.39618350905E+00  0.39618350905E+00  0.00000000000E+00 0.  1.
          1   -1    0    0  501    0 -0.00000000000E+00 -0.00000000000E+00 -0.14600845373E+04  0.14600845373E+04  0.00000000000E+00 0.  1.
          2    1    1    2  501    0  0.21470728620E+02 -0.19647222832E+01 -0.40622430348E+03  0.40679606323E+03  0.00000000000E+00 0.  1.
          1    1    1    2  502    0 -0.21470728620E+02  0.19647222832E+01 -0.10534640504E+04  0.10536846576E+04  0.00000000000E+00 0.  1.
</event>
<event>
 4    1  0.3664744E+003  0.2427750E+02  0.7546771E-02  0.1477051E+00
          2   -1    0    0  502    0  0.00000000000E+00  0.00000000000E+00  0.48639761076E+00  0.48639761076E+00  0.00000000000E+00 0.  1.
          1   -1    0    0  501    0 -0.00000000000E+00 -0.00000000000E+00 -0.13068837271E+04  0.13068837271E+04  0.00000000000E+00 0. -1.
          2    1    1    2  501    0  0.10061498433E+02 -0.22094422015E+02 -0.47684105473E+03  0.47745867749E+03  0.00000000000E+00 0.  1.
          1    1    1    2  502    0 -0.10061498433E+02  0.22094422015E+02 -0.82955627475E+03  0.82991144722E+03  0.00000000000E+00 0. -1.
</event>
<event>
 4    1  0.3664744E+003  0.2834234E+02  0.7546771E-02  0.1434571E+00
          2   -1    0    0  502    0  0.00000000000E+00  0.00000000000E+00  0.95818266796E+03  0.95818266796E+03  0.00000000000E+00 0.  1.
          1   -1    0    0  501    0 -0.00000000000E+00 -0.00000000000E+00 -0.45809563557E+01  0.45809563557E+01  0.00000000000E+00 0. -1.
          2    1    1    2  501    0  0.22877371412E+02 -0.16730642215E+02  0.91191070452E+03  0.91235104074E+03  0.00000000000E+00 0.  1.
          1    1    1    2  502    0 -0.22877371412E+02  0.16730642215E+02  0.41691007086E+02  0.50412583583E+02  0.00000000000E+00 0. -1.
</event>
<event>
 4    1  0.3664744E+003  0.6853786E+02  0.7546771E-02  0.1233292E+00
          2   -1    0    0  502    0  0.00000000000E+00  0.00000000000E+00  0.17043264684E+04  0.17043264684E+04  0.00000000000E+00 0. -1.
          1   -1    0    0  501    0 -0.00000000000E+00 -0.00000000000E+00 -0.37845202191E+01  0.37845202191E+01  0.00000000000E+00 0.  1.
          2    1    1    2  501    0 -0.53114049088E+02  0.43316694882E+02  0.12954637698E+04  0.12972755364E+04  0.00000000000E+00 0. -1.
          1    1    1    2  502    0  0.53114049088E+02 -0.43316694882E+02  0.40507817832E+03  0.41083545224E+03  0.00000000000E+00 0.  1.
</event>
<event>
 4    1  0.3664744E+003  0.2097956E+02  0.7546771E-02  0.1519557E+00
          2   -1    0    0  502    0  0.00000000000E+00  0.00000000000E+00  0.50410729728E+01  0.50410729728E+01  0.00000000000E+00 0.  1.
          1   -1    0    0  501    0 -0.00000000000E+00 -0.00000000000E+00 -0.28185394447E+03  0.28185394447E+03  0.00000000000E+00 0. -1.
          2    1    1    2  501    0  0.20248386555E+02  0.54904087210E+01 -0.19230504023E+02  0.28459691336E+02  0.00000000000E+00 0.  1.
          1    1    1    2  502    0 -0.20248386555E+02 -0.54904087210E+01 -0.25758236747E+03  0.25843532610E+03  0.00000000000E+00 0. -1.
</event>
<event>
 4    1  0.3664744E+003  0.2673558E+02  0.7546771E-02  0.1450282E+00
          2   -1    0    0  502    0  0.00000000000E+00  0.00000000000E+00  0.37445173416E+03  0.37445173416E+03  0.00000000000E+00 0.  1.
          1   -1    0    0  501    0 -0.00000000000E+00 -0.00000000000E+00 -0.28772719320E+01  0.28772719320E+01  0.00000000000E+00 0.  1.
          2    1    1    2  501    0  0.46476627796E+01 -0.26328510170E+02  0.29523846382E+03  0.29644652424E+03  0.00000000000E+00 0.  1.
          1    1    1    2  502    0 -0.46476627796E+01  0.26328510170E+02  0.76335998414E+02  0.80882481855E+02  0.00000000000E+00 0.  1.
</event>
<event>
 4    1  0.3664744E+003  0.2282486E+02  0.7546771E-02  0.1494709E+00
          2   -1    0    0  502    0  0.00000000000E+00  0.00000000000E+00  0.17145246115E+01  0.17145246115E+01  0.00000000000E+00 0. -1.
          1   -1    0    0  501    0 -0.00000000000E+00 -0.00000000000E+00 -0.52348049006E+03  0.52348049006E+03  0.00000000000E+00 0.  1.
          2    1    1    2  501    0  0.15328590764E+02 -0.16911784759E+02 -0.90793476193E+02  0.93618531701E+02  0.00000000000E+00 0. -1.
          1    1    1    2  502    0 -0.15328590764E+02  0.16911784759E+02 -0.43097248925E+03  0.43157648297E+03  0.00000000000E+00 0.  1.
</event>
<event>
 4    1  0.3664744E+003  0.2970767E+02  0.7546771E-02  0.1422154E+00
          2   -1    0    0  502    0  0.00000000000E+00  0.00000000000E+00  0.49162579329E+03  0.49162579329E+03  0.00000000000E+00 0.  1.
          1   -1    0    0  501    0 -0.00000000000E+00 -0.00000000000E+00 -0.24559991147E+01  0.24559991147E+01  0.00000000000E+00 0. -1.
          2    1    1    2  501    0 -0.17811380126E+02 -0.23776022561E+02  0.11643913213E+03  0.12016911418E+03  0.00000000000E+00 0.  1.
          1    1    1    2  502    0  0.17811380126E+02  0.23776022561E+02  0.37273066204E+03  0.37391267823E+03  0.00000000000E+00 0. -1.
</event>
<event>
 4    1  0.3664744E+003  0.2021207E+02  0.7546771E-02  0.1530818E+00
          2   -1    0    0  502    0  0.00000000000E+00  0.00000000000E+00  0.85828395261E+03  0.85828395261E+03  0.00000000000E+00 0. -1.
          1   -1    0    0  501    0 -0.00000000000E+00 -0.00000000000E+00 -0.21598180109E+02  0.21598180109E+02  0.00000000000E+00 0. -1.
          2    1    1    2  501    0 -0.28355901871E+01  0.20012174879E+02  0.85340922163E+03  0.85364853850E+03  0.00000000000E+00 0. -1.
          1    1    1    2  502    0  0.28355901871E+01 -0.20012174879E+02 -0.16723449129E+02  0.26233594223E+02  0.00000000000E+00 0. -1.
</event>
<event>
 4    1  0.3664744E+003  0.2044568E+02  0.7546771E-02  0.1527328E+00
          2   -1    0    0  502    0  0.00000000000E+00  0.00000000000E+00  0.16584307865E+03  0.16584307865E+03  0.00000000000E+00 0.  1.
          1   -1    0    0  501    0 -0.00000000000E+00 -0.00000000000E+00 -0.44999751166E+02  0.44999751166E+02  0.00000000000E+00 0.  1.
          2    1    1    2  501    0 -0.20442163091E+02 -0.37904565838E+00  0.16284800247E+03  0.16412646836E+03  0.00000000000E+00 0.  1.
          1    1    1    2  502    0  0.20442163091E+02  0.37904565838E+00 -0.42004674984E+02  0.46716361459E+02  0.00000000000E+00 0.  1.
</event>
<event>
 4    1  0.3664744E+003  0.5385867E+02  0.7546771E-02  0.1282257E+00
          2   -1    0    0  502    0  0.00000000000E+00  0.00000000000E+00  0.69901801756E+03  0.69901801756E+03  0.00000000000E+00 0.  1.
          1   -1    0    0  501    0 -0.00000000000E+00 -0.00000000000E+00 -0.11620182650E+03  0.11620182650E+03  0.00000000000E+00 0. -1.
          2    1    1    2  501    0 -0.52453464174E+02 -0.12222534410E+02  0.69167364015E+03  0.69376738229E+03  0.00000000000E+00 0.  1.
          1    1    1    2  502    0  0.52453464174E+02  0.12222534410E+02 -0.10885744908E+03  0.12145246178E+03  0.00000000000E+00 0. -1.
</event>
<event>
 4    1  0.3664744E+003  0.3248968E+02  0.7546771E-02  0.1399126E+00
          2   -1    0    0  502    0  0.00000000000E+00  0.00000000000E+00  0.59253457134E+03  0.59253457134E+03  0.00000000000E+00 0.  1.
          1   -1    0    0  501    0 -0.00000000000E+00 -0.00000000000E+00 -0.26426228337E+02  0.26426228337E+02  0.00000000000E+00 0. -1.
          2    1    1    2  501    0 -0.25641871918E+00  0.32488670615E+02  0.58192111744E+03  0.58282738987E+03  0.00000000000E+00 0.  1.
          1    1    1    2  502    0  0.25641871918E+00 -0.32488670615E+02 -0.15812774432E+02  0.36133409805E+02  0.00000000000E+00 0. -1.
</event>
<event>
 4    1  0.3664744E+003  0.2389928E+02  0.7546771E-02  0.1481504E+00
          2   -1    0    0  502    0  0.00000000000E+00  0.00000000000E+00  0.33356846042E+01  0.33356846042E+01  0.00000000000E+00 0. -1.
          1   -1    0    0  501    0 -0.00000000000E+00 -0.00000000000E+00 -0.17717137573E+03  0.17717137573E+03  0.00000000000E+00 0. -1.
          2    1    1    2  501    0 -0.21783042986E+02 -0.98323014496E+01 -0.10344305395E+03  0.10616798258E+03  0.00000000000E+00 0. -1.
          1    1    1    2  502    0  0.21783042986E+02  0.98323014496E+01 -0.70392637177E+02  0.74339077761E+02  0.00000000000E+00 0. -1.
</event>
<event>
 4    1  0.3664744E+003  0.3330744E+02  0.7546771E-02  0.1392869E+00
          2   -1    0    0  502    0  0.00000000000E+00  0.00000000000E+00  0.48538541655E+03  0.48538541655E+03  0.00000000000E+00 0.  1.
          1   -1    0    0  501    0 -0.00000000000E+00 -0.00000000000E+00 -0.21221646416E+02  0.21221646416E+02  0.00000000000E+00 0.  1.
          2    1    1    2  501    0 -0.32092760412E+02 -0.89129367518E+01  0.47135650042E+03  0.47253183617E+03  0.00000000000E+00 0.  1.
          1    1    1    2  502    0  0.32092760412E+02  0.89129367518E+01 -0.71927302780E+01  0.34075226797E+02  0.00000000000E+00 0.  1.
</event>
<event>
 4    1  0.3664744E+003  0.2383641E+02  0.7546771E-02  0.1482254E+00
          2   -1    0    0  502    0  0.00000000000E+00  0.00000000000E+00  0.83035415106E+03  0.83035415106E+03  0.00000000000E+00 0. -1.
          1   -1    0    0  501    0 -0.00000000000E+00 -0.00000000000E+00 -0.26147704774E+03  0.26147704774E+03  0.00000000000E+00 0. -1.
          2    1    1    2  501    0  0.23524717582E+02 -0.38421340478E+01  0.82963938390E+03  0.82998173573E+03  0.00000000000E+00 0. -1.
          1    1    1    2  502    0 -0.23524717582E+02  0.38421340478E+01 -0.26076228058E+03  0.26184946306E+03  0.00000000000E+00 0. -1.
</event>
<event>
 4    1  0.3664744E+003  0.2017867E+02  0.7546771E-02  0.1531322E+00
          2   -1    0    0  502    0  0.00000000000E+00  0.00000000000E+00  0.30261652946E+02  0.30261652946E+02  0.00000000000E+00 0. -1.
          1   -1    0    0  501    0 -0.00000000000E+00 -0.00000000000E+00 -0.11726594990E+04  0.11726594990E+04  0.00000000000E+00 0. -1.
          2    1    1    2  501    0  0.65312160313E+01 -0.19092456142E+02  0.26801073722E+02  0.33548117936E+02  0.00000000000E+00 0. -1.
          1    1    1    2  502    0 -0.65312160313E+01  0.19092456142E+02 -0.11691989198E+04  0.11693730340E+04  0.00000000000E+00 0. -1.
</event>
<event>
 4    1  0.3664744E+003  0.2306439E+02  0.7546771E-02  0.1491691E+00
          2   -1    0    0  502    0  0.00000000000E+00  0.00000000000E+00  0.10010567245E+01  0.10010567245E+01  0.00000000000E+00 0.  1.
          1   -1    0    0  501    0 -0.00000000000E+00 -0.00000000000E+00 -0.12726852424E+04  0.12726852424E+04  0.00000000000E+00 0.  1.
          2    1    1    2  501    0 -0.96053952517E+01 -0.20969085575E+02 -0.14981184151E+03  0.15157689146E+03  0.00000000000E+00 0.  1.
          1    1    1    2  502    0  0.96053952517E+01  0.20969085575E+02 -0.11218723442E+04  0.11221094077E+04  0.00000000000E+00 0.  1.
</event>
<event>
 4    1  0.3664744E+003  0.2257825E+02  0.7546771E-02  0.1497863E+00
          2   -1    0    0  502    0  0.00000000000E+00  0.00000000000E+00  0.22544822877E+01  0.22544822877E+01  0.00000000000E+00 0.  1.
          1   -1    0    0  501    0 -0.00000000000E+00 -0.00000000000E+00 -0.81114306004E+03  0.81114306004E+03  0.00000000000E+00 0. -1.
          2    1    1    2  501    0 -0.22013348067E+02  0.50189399605E+01 -0.59052778237E+02  0.63221893905E+02  0.00000000000E+00 0.  1.
          1    1    1    2  502    0  0.22013348067E+02 -0.50189399605E+01 -0.74983579952E+03  0.75017564842E+03  0.00000000000E+00 0. -1.
</event>
<event>
 4    1  0.3664744E+003  0.2255194E+02  0.7546771E-02  0.1498202E+00
          2   -1    0    0  502    0  0.00000000000E+00  0.00000000000E+00  0.11107682683E+04  0.11107682683E+04  0.00000000000E+00 0.  1.
          1   -1    0    0  501    0 -0.00000000000E+00 -0.00000000000E+00 -0.53180161571E+00  0.53180161571E+00  0.00000000000E+00 0. -1.
          2    1    1    2  501    0 -0.18847252001E+02 -0.12384316876E+02  0.76229180752E+03  0.76262532742E+03  0.00000000000E+00 0.  1.
          1    1    1    2  502    0  0.18847252001E+02  0.12384316876E+02  0.34794465915E+03  0.34867474248E+03  0.00000000000E+00 0. -1.
</event>
<event>
 4    1  0.3664744E+003  0.2193329E+02  0.7546771E-02  0.1506346E+00
          2   -1    0    0  502    0  0.00000000000E+00  0.00000000000E+00  0.65077163166E+01  0.65077163166E+01  0.00000000000E+00 0. -1.
          1   -1    0    0  501    0 -0.00000000000E+00 -0.00000000000E+00 -0.40573648459E+03  0.40573648459E+03  0.00000000000E+00 0.  1.
          2    1    1    2  501    0  0.55375071759E+01 -0.21222748947E+02 -0.13212786635E+02  0.25605600740E+02  0.00000000000E+00 0. -1.
          1    1    1    2  502    0 -0.55375071759E+01  0.21222748947E+02 -0.38601598164E+03  0.38663860017E+03  0.00000000000E+00 0.  1.
</event>
<event>
 4    1  0.3664744E+003  0.2116405E+02  0.7546771E-02  0.1516935E+00
          2   -1    0    0  502    0  0.00000000000E+00  0.00000000000E+00  0.22059719000E+03  0.22059719000E+03  0.00000000000E+00 0. -1.
          1   -1    0    0  501    0 -0.00000000000E+00 -0.00000000000E+00 -0.31098263224E+02  0.31098263224E+02  0.00000000000E+00 0.  1.
          2    1    1    2  501    0 -0.17385040155E+02 -0.12069696674E+02  0.21641940416E+03  0.21745177787E+03  0.00000000000E+00 0. -1.
          1    1    1    2  502    0  0.17385040155E+02  0.12069696674E+02 -0.26920477389E+02  0.34243675356E+02  0.00000000000E+00 0.  1.
</event>
<event>
 4    1  0.3664744E+003  0.2053362E+02  0.7546771E-02  0.1526029E+00
          2   -1    0    0  502    0  0.00000000000E+00  0.00000000000E+00  0.26065031565E+01  0.26065031565E+01  0.00000000000E+00 0. -1.
          1   -1    0    0  501    0 -0.00000000000E+00 -0.00000000000E+00 -0.15069587236E+04  0.15069587236E+04  0.00000000000E+00 0.  1.
          2    1    1    2  501    0  0.20118032269E+02 -0.41102808088E+01 -0.39053299828E+02  0.44122441661E+02  0.00000000000E+00 0. -1.
          1    1    1    2  502    0 -0.20118032269E+02  0.41102808088E+01 -0.14652989207E+04  0.14654427851E+04  0.00000000000E+00 0.  1.
</event>
<event>
 4    1  0.3664744E+003  0.2681750E+02  0.7546771E-02  0.1449450E+00
          2   -1    0    0  502    0  0.00000000000E+00  0.00000000000E+00  0.28909312456E+03  0.28909312456E+03  0.00000000000E+00 0.  1.
          1   -1    0    0  501    0 -0.00000000000E+00 -0.00000000000E+00 -0.30081149564E+01  0.30081149564E+01  0.00000000000E+00 0. -1.
          2    1    1    2  501    0  0.76152614024E+01 -0.25713539098E+02  0.20379010837E+03  0.20554704222E+03  0.00000000000E+00 0.  1.
          1    1    1    2  502    0 -0.76152614024E+01  0.25713539098E+02  0.82294901234E+02  0.86554197289E+02  0.00000000000E+00 0. -1.
</event>
<event>
 4    1  0.3664744E+003  0.2831599E+02  0.7546771E-02  0.1434819E+00
          2   -1    0    0  502    0  0.00000000000E+00  0.00000000000E+00  0.21369058216E+02  0.21369058216E+02  0.00000000000E+00 0.  1.
          1   -1    0    0  501    0 -0.00000000000E+00 -0.00000000000E+00 -0.12168229849E+03  0.12168229849E+03  0.00000000000E+00 0. -1.
          2    1    1    2  501    0  0.52069894708E+01 -0.27833117404E+02  0.93278618740E+01  0.29812818902E+02  0.00000000000E+00 0.  1.
          1    1    1    2  502    0 -0.52069894708E+01  0.27833117404E+02 -0.10964110215E+03  0.11323853781E+03  0.00000000000E+00 0. -1.
</event>
<event>
 4    1  0.3664744E+003  0.2535704E+02  0.7546771E-02  0.1464849E+00
          2   -1    0    0  502    0  0.00000000000E+00  0.00000000000E+00  0.12663578182E+02  0.12663578182E+02  0.00000000000E+00 0. -1.
          1   -1    0    0  501    0 -0.00000000000E+00 -0.00000000000E+00 -0.10903985762E+03  0.10903985762E+03  0.00000000000E+00 0.  1.
          2    1    1    2  501    0 -0.24497026514E+02 -0.65479246983E+01 -0.37058084813E+01  0.25626405179E+02  0.00000000000E+00 0. -1.
          1    1    1    2  502    0  0.24497026514E+02  0.65479246983E+01 -0.92670470958E+02  0.96077030624E+02  0.00000000000E+00 0.  1.
</event>
<event>
 4    1  0.3664744E+003  0.2922809E+02  0.7546771E-02  0.1426425E+00
          2   -1    0    0  502    0  0.00000000000E+00  0.00000000000E+00  0.11471821720E+04  0.11471821720E+04  0.00000000000E+00 0.  1.
          1   -1    0    0  501    0 -0.00000000000E+00 -0.00000000000E+00 -0.10231766858E+01  0.10231766858E+01  0.00000000000E+00 0.  1.
          2    1    1    2  501    0  0.26016979954E+02 -0.13319081448E+02  0.87259956761E+03  0.87308893394E+03  0.00000000000E+00 0.  1.
          1    1    1    2  502    0 -0.26016979954E+02  0.13319081448E+02  0.27355942775E+03  0.27511641479E+03  0.00000000000E+00 0.  1.
</event>
<event>
 4    1  0.3664744E+003  0.4992711E+02  0.7546771E-02  0.1298489E+00
          2   -1    0    0  502    0  0.00000000000E+00  0.00000000000E+00  0.15993206451E+02  0.15993206451E+02  0.00000000000E+00 0.  1.
          1   -1    0    0  501    0 -0.00000000000E+00 -0.00000000000E+00 -0.42387198075E+03  0.42387198075E+03  0.00000000000E+00 0. -1.
          2    1    1    2  501    0 -0.24743118693E+02  0.43364672269E+02 -0.29055999751E+02  0.57766494140E+02  0.00000000000E+00 0.  1.
          1    1    1    2  502    0  0.24743118693E+02 -0.43364672269E+02 -0.37882277455E+03  0.38209869306E+03  0.00000000000E+00 0. -1.
</event>
<event>
 4    1  0.3664744E+003  0.2723485E+02  0.7546771E-02  0.1445263E+00
          2   -1    0    0  502    0  0.00000000000E+00  0.00000000000E+00  0.94405920737E+00  0.94405920737E+00  0.00000000000E+00 0.  1.
          1   -1    0    0  501    0 -0.00000000000E+00 -0.00000000000E+00 -0.78573551282E+03  0.78573551282E+03  0.00000000000E+00 0.  1.
          2    1    1    2  501    0  0.27172726275E+02 -0.18382495919E+01 -0.39544675843E+03  0.39638349483E+03  0.00000000000E+00 0.  1.
          1    1    1    2  502    0 -0.27172726275E+02  0.18382495919E+01 -0.38934469518E+03  0.39029607720E+03  0.00000000000E+00 0.  1.
</event>
<event>
 4    1  0.3664744E+003  0.2114274E+02  0.7546771E-02  0.1517237E+00
          2   -1    0    0  502    0  0.00000000000E+00  0.00000000000E+00  0.16260294427E+02  0.16260294427E+02  0.00000000000E+00 0.  1.
          1   -1    0    0  501    0 -0.00000000000E+00 -0.00000000000E+00 -0.12628843601E+03  0.12628843601E+03  0.00000000000E+00 0.  1.
          2    1    1    2  501    0 -0.13394120984E+02  0.16358881222E+02  0.80270462770E+01  0.22615236981E+02  0.00000000000E+00 0.  1.
          1    1    1    2  502    0  0.13394120984E+02 -0.16358881222E+02 -0.11805518786E+03  0.11993349346E+03  0.00000000000E+00 0.  1.
</event>
<event>
 4    1  0.3664744E+003  0.3317535E+02  0.7546771E-02  0.1393866E+00
          2   -1    0    0  502    0  0.00000000000E+00  0.00000000000E+00  0.25694971573E+03  0.25694971573E+03  0.00000000000E+00 0.  1.
          1   -1    0    0  501    0 -0.00000000000E+00 -0.00000000000E+00 -0.11434531714E+02  0.11434531714E+02  0.00000000000E+00 0. -1.
          2    1    1    2  501    0 -0.29724969629E+02 -0.14731928663E+02  0.22887997179E+03  0.23127179903E+03  0.00000000000E+00 0.  1.
          1    1    1    2  502    0  0.29724969629E+02  0.14731928663E+02  0.16635212234E+02  0.37112448419E+02  0.00000000000E+00 0. -1.
</event>
<event>
 4    1  0.3664744E+003  0.2935368E+02  0.7546771E-02  0.1425297E+00
          2   -1    0    0  502    0  0.00000000000E+00  0.00000000000E+00  0.88523733865E+03  0.88523733865E+03  0.00000000000E+00 0. -1.
          1   -1    0    0  501    0 -0.00000000000E+00 -0.00000000000E+00 -0.69426683747E+01  0.69426683747E+01  0.00000000000E+00 0. -1.
          2    1    1    2  501    0 -0.13172330836E+02 -0.26232200745E+02  0.85278677758E+03  0.85329181800E+03  0.00000000000E+00 0. -1.
          1    1    1    2  502    0  0.13172330836E+02  0.26232200745E+02  0.25507892693E+02  0.38888189020E+02  0.00000000000E+00 0. -1.
</event>
<event>
 4    1  0.3664744E+003  0.2012750E+02  0.7546771E-02  0.1532095E+00
          2   -1    0    0  502    0  0.00000000000E+00  0.00000000000E+00  0.10931719407E+04  0.10931719407E+04  0.00000000000E+00 0.  1.
          1   -1    0    0  501    0 -0.00000000000E+00 -0.00000000000E+00 -0.56783039968E+00  0.56783039968E+00  0.00000000000E+00 0.  1.
          2    1    1    2  501    0  0.20047396857E+02  0.17939656436E+01  0.86861281003E+03  0.86884597610E+03  0.00000000000E+00 0.  1.
          1    1    1    2  502    0 -0.20047396857E+02 -0.17939656436E+01  0.22399130027E+03  0.22489379500E+03  0.00000000000E+00 0.  1.
</event>
<event>
 4    1  0.3664744E+003  0.2155094E+02  0.7546771E-02  0.1511542E+00
          2   -1    0    0  502    0  0.00000000000E+00  0.00000000000E+00  0.44181177661E+01  0.44181177661E+01  0.00000000000E+00 0.  1.
          1   -1    0    0  501    0 -0.00000000000E+00 -0.00000000000E+00 -0.59014155696E+03  0.59014155696E+03  0.00000000000E+00 0. -1.
          2    1    1    2  501    0  0.13732410485E+02  0.16609155506E+02 -0.23356735195E+02  0.31780186018E+02  0.00000000000E+00 0.  1.
          1    1    1    2  502    0 -0.13732410485E+02 -0.16609155506E+02 -0.56236670400E+03  0.56277948871E+03  0.00000000000E+00 0. -1.
</event>
<event>
 4    1  0.3664744E+003  0.2235074E+02  0.7546771E-02  0.1500816E+00
          2   -1    0    0  502    0  0.00000000000E+00  0.00000000000E+00  0.90369871142E+03  0.90369871142E+03  0.00000000000E+00 0.  1.
          1   -1    0    0  501    0 -0.00000000000E+00 -0.00000000000E+00 -0.70700465737E+02  0.70700465737E+02  0.00000000000E+00 0. -1.
          2    1    1    2  501    0  0.20843384310E+02 -0.80690120019E+01  0.90179032532E+03  0.90206726272E+03  0.00000000000E+00 0.  1.
          1    1    1    2  502    0 -0.20843384310E+02  0.80690120019E+01 -0.68792079643E+02  0.72331914435E+02  0.00000000000E+00 0. -1.
</event>
<event>
 4    1  0.3664744E+003  0.2891950E+02  0.7546771E-02  0.1429224E+00
          2   -1    0    0  502    0  0.00000000000E+00  0.00000000000E+00  0.11090578742E+03  0.11090578742E+03  0.00000000000E+00 0. -1.
          1   -1    0    0  501    0 -0.00000000000E+00 -0.00000000000E+00 -0.91023734402E+01  0.91023734402E+01  0.00000000000E+00 0. -1.
          2    1    1    2  501    0  0.20763313611E+02  0.20130131448E+02  0.75753676639E+02  0.81086107988E+02  0.00000000000E+00 0. -1.
          1    1    1    2  502    0 -0.20763313611E+02 -0.20130131448E+02  0.26049737339E+02  0.38922052871E+02  0.00000000000E+00 0. -1.
</event>
<event>
 4    1  0.3664744E+003  0.3395351E+02  0.7546771E-02  0.1388073E+00
          2   -1    0    0  502    0  0.00000000000E+00  0.00000000000E+00  0.20822088187E+03  0.20822088187E+03  0.00000000000E+00 0. -1.
          1   -1    0    0  501    0 -0.00000000000E+00 -0.00000000000E+00 -0.83748965661E+01  0.83748965661E+01  0.00000000000E+00 0. -1.
          2    1    1    2  501    0  0.47398924205E+01  0.33621034289E+02  0.16296897138E+03  0.16646839388E+03  0.00000000000E+00 0. -1.
          1    1    1    2  502    0 -0.47398924205E+01 -0.33621034289E+02  0.36877013921E+02  0.50127384557E+02  0.00000000000E+00 0. -1.
</event>
<event>
 4    1  0.3664744E+003  0.2350591E+02  0.7546771E-02  0.1486241E+00
          2   -1    0    0  502    0  0.00000000000E+00  0.00000000000E+00  0.12605717712E+03  0.12605717712E+03  0.00000000000E+00 0.  1.
          1   -1    0    0  501    0 -0.00000000000E+00 -0.00000000000E+00 -0.61461831848E+01  0.61461831848E+01  0.00000000000E+00 0. -1.
          2    1    1    2  501    0  0.23447242573E+02  0.16596608134E+01  0.95358479656E+02  0.98212867286E+02  0.00000000000E+00 0.  1.
          1    1    1    2  502    0 -0.23447242573E+02 -0.16596608134E+01  0.24552514284E+02  0.33990493023E+02  0.00000000000E+00 0. -1.
</event>
<event>
 4    1  0.3664744E+003  0.2167381E+02  0.7546771E-02  0.1509858E+00
          2   -1    0    0  502    0  0.00000000000E+00  0.00000000000E+00  0.12050955168E+03  0.12050955168E+03  0.00000000000E+00 0.  1.
          1   -1    0    0  501    0 -0.00000000000E+00 -0.00000000000E+00 -0.51320979796E+02  0.51320979796E+02  0.00000000000E+00 0.  1.
          2    1    1    2  501    0  0.18610995098E+02 -0.11107872819E+02  0.11718229438E+03  0.11916981200E+03  0.00000000000E+00 0.  1.
          1    1    1    2  502    0 -0.18610995098E+02  0.11107872819E+02 -0.47993722492E+02  0.52660719476E+02  0.00000000000E+00 0.  1.
</event>
<event>
 4    1  0.3664744E+003  0.4120787E+02  0.7546771E-02  0.1341549E+00
          2   -1    0    0  502    0  0.00000000000E+00  0.00000000000E+00  0.27763785157E+03  0.27763785157E+03  0.00000000000E+00 0.  1.
          1   -1    0    0  501    0 -0.00000000000E+00 -0.00000000000E+00 -0.15353155959E+02  0.15353155959E+02  0.00000000000E+00 0.  1.
          2    1    1    2  501    0 -0.40486685266E+02  0.76757493261E+01  0.24477153122E+03  0.24821601743E+03  0.00000000000E+00 0.  1.
          1    1    1    2  502    0  0.40486685266E+02 -0.76757493261E+01  0.17513164389E+02  0.44774990100E+02  0.00000000000E+00 0.  1.
</event>
<event>
 4    1  0.3664744E+003  0.2174714E+02  0.7546771E-02  0.1508859E+00
          2   -1    0    0  502    0  0.00000000000E+00  0.00000000000E+00  0.44471448441E+01  0.44471448441E+01  0.00000000000E+00 0. -1.
          1   -1    0    0  501    0 -0.00000000000E+00 -0.00000000000E+00 -0.10445126459E+04  0.10445126459E+04  0.00000000000E+00 0. -1.
          2    1    1    2  501    0  0.16591344744E+02  0.14059355271E+02 -0.22969245640E+02  0.31631067581E+02  0.00000000000E+00 0. -1.
          1    1    1    2  502    0 -0.16591344744E+02 -0.14059355271E+02 -0.10170962554E+04  0.10173287232E+04  0.00000000000E+00 0. -1.
</event>
<event>
 4    1  0.3664744E+003  0.2125402E+02  0.7546771E-02  0.1515669E+00
          2   -1    0    0  502    0  0.00000000000E+00  0.00000000000E+00  0.64773325470E+02  0.64773325470E+02  0.00000000000E+00 0. -1.
          1   -1    0    0  501    0 -0.00000000000E+00 -0.00000000000E+00 -0.19104736914E+03  0.19104736914E+03  0.00000000000E+00 0. -1.
          2    1    1    2  501    0 -0.97460603802E+01 -0.18887770029E+02  0.62416976713E+02  0.65936427955E+02  0.00000000000E+00 0. -1.
          1    1    1    2  502    0  0.97460603802E+01  0.18887770029E+02 -0.18869102038E+03  0.18988426665E+03  0.00000000000E+00 0. -1.
</event>
<event>
 4    1  0.3664744E+003  0.3716366E+02  0.7546771E-02  0.1365959E+00
          2   -1    0    0  502    0  0.00000000000E+00  0.00000000000E+00  0.83103488225E+03  0.83103488225E+03  0.00000000000E+00 0.  1.
          1   -1    0    0  501    0 -0.00000000000E+00 -0.00000000000E+00 -0.57801469614E+02  0.57801469614E+02  0.00000000000E+00 0. -1.
          2    1    1    2  501    0 -0.30739351467E+02  0.20886109951E+02  0.82459917121E+03  0.82543620618E+03  0.00000000000E+00 0.  1.
          1    1    1    2  502    0  0.30739351467E+02 -0.20886109951E+02 -0.51365758578E+02  0.63400145676E+02  0.00000000000E+00 0. -1.
</event>
<event>
 4    1  0.3664744E+003  0.2583678E+02  0.7546771E-02  0.1459656E+00
          2   -1    0    0  502    0  0.00000000000E+00  0.00000000000E+00  0.13790760281E+03  0.13790760281E+03  0.00000000000E+00 0. -1.
          1   -1    0    0  501    0 -0.00000000000E+00 -0.00000000000E+00 -0.66322383266E+02  0.66322383266E+02  0.00000000000E+00 0. -1.
          2    1    1    2  501    0 -0.84181763443E+01  0.24426896475E+02  0.13411062493E+03  0.13657671355E+03  0.00000000000E+00 0. -1.
          1    1    1    2  502    0  0.84181763443E+01 -0.24426896475E+02 -0.62525405389E+02  0.67653272526E+02  0.00000000000E+00 0. -1.
</event>
<event>
 4    1  0.3664744E+003  0.3378948E+02  0.7546771E-02  0.1389279E+00
          2   -1    0    0  502    0  0.00000000000E+00  0.00000000000E+00  0.95778890466E+03  0.95778890466E+03  0.00000000000E+00 0.  1.
          1   -1    0    0  501    0 -0.00000000000E+00 -0.00000000000E+00 -0.12643189873E+02  0.12643189873E+02  0.00000000000E+00 0.  1.
          2    1    1    2  501    0 -0.33757995804E+02  0.14583249707E+01  0.93434874318E+03  0.93495951938E+03  0.00000000000E+00 0.  1.
          1    1    1    2  502    0  0.33757995804E+02 -0.14583249707E+01  0.10796971611E+02  0.35472575159E+02  0.00000000000E+00 0.  1.
</event>
<event>
 4    1  0.3664744E+003  0.2155791E+02  0.7546771E-02  0.1511446E+00
          2   -1    0    0  502    0  0.00000000000E+00  0.00000000000E+00  0.29773708392E+03  0.29773708392E+03  0.00000000000E+00 0.  1.
          1   -1    0    0  501    0 -0.00000000000E+00 -0.00000000000E+00 -0.11667359402E+02  0.11667359402E+02  0.00000000000E+00 0. -1.
          2    1    1    2  501    0  0.19661556237E+02  0.88411910922E+01  0.28701725067E+03  0.28782572094E+03  0.00000000000E+00 0.  1.
          1    1    1    2  502    0 -0.19661556237E+02 -0.88411910922E+01 -0.94752615450E+00  0.21578722377E+02  0.00000000000E+00 0. -1.
</event>
<event>
 4    1  0.3664744E+003  0.2226500E+02  0.7546771E-02  0.1501940E+00
          2   -1    0    0  502    0  0.00000000000E+00  0.00000000000E+00  0.67915782189E+02  0.67915782189E+02  0.00000000000E+00 0.  1.
          1   -1    0    0  501    0 -0.00000000000E+00 -0.00000000000E+00 -0.37115365925E+03  0.37115365925E+03  0.00000000000E+00 0.  1.
          2    1    1    2  501    0  0.15438181870E+02 -0.16043463158E+02  0.65746354038E+02  0.69414070900E+02  0.00000000000E+00 0.  1.
          1    1    1    2  502    0 -0.15438181870E+02  0.16043463158E+02 -0.36898423110E+03  0.36965537054E+03  0.00000000000E+00 0.  1.
</event>
<event>
 4    1  0.3664744E+003  0.2238576E+02  0.7546771E-02  0.1500359E+00
          2   -1    0    0  502    0  0.00000000000E+00  0.00000000000E+00  0.13272687958E+01  0.13272687958E+01  0.00000000000E+00 0. -1.
          1   -1    0    0  501    0 -0.00000000000E+00 -0.00000000000E+00 -0.69082889903E+03  0.69082889903E+03  0.00000000000E+00 0.  1.
          2    1    1    2  501    0 -0.15680677373E+02 -0.15976190754E+02 -0.11170132094E+03  0.11392237451E+03  0.00000000000E+00 0. -1.
          1    1    1    2  502    0  0.15680677373E+02  0.15976190754E+02 -0.57780030929E+03  0.57823379331E+03  0.00000000000E+00 0.  1.
</event>
<event>
 4    1  0.3664744E+003  0.6188145E+02  0.7546771E-02  0.1253571E+00
          2   -1    0    0  502    0  0.00000000000E+00  0.00000000000E+00  0.78341991557E+02  0.78341991557E+02  0.00000000000E+00 0.  1.
          1   -1    0    0  501    0 -0.00000000000E+00 -0.00000000000E+00 -0.75277045680E+02  0.75277045680E+02  0.00000000000E+00 0. -1.
          2    1    1    2  501    0  0.50197565586E+02 -0.36187265812E+02  0.47017233292E+02  0.77717012450E+02  0.00000000000E+00 0.  1.
          1    1    1    2  502    0 -0.50197565586E+02  0.36187265812E+02 -0.43952287415E+02  0.75902024787E+02  0.00000000000E+00 0. -1.
</event>
<event>
 4    1  0.3664744E+003  0.2092416E+02  0.7546771E-02  0.1520350E+00
          2   -1    0    0  502    0  0.00000000000E+00  0.00000000000E+00  0.16015614808E+03  0.16015614808E+03  0.00000000000E+00 0.  1.
          1   -1    0    0  501    0 -0.00000000000E+00 -0.00000000000E+00 -0.35516918375E+02  0.35516918375E+02  0.00000000000E+00 0.  1.
          2    1    1    2  501    0  0.19937630764E+02 -0.63491302038E+01  0.15631556435E+03  0.15770978484E+03  0.00000000000E+00 0.  1.
          1    1    1    2  502    0 -0.19937630764E+02  0.63491302038E+01 -0.31676334644E+02  0.37963281620E+02  0.00000000000E+00 0.  1.
</event>
<event>
 4    1  0.3664744E+003  0.2122950E+02  0.7546771E-02  0.1516013E+00
          2   -1    0    0  502    0  0.00000000000E+00  0.00000000000E+00  0.21451725257E+02  0.21451725257E+02  0.00000000000E+00 0.  1.
          1   -1    0    0  501    0 -0.00000000000E+00 -0.00000000000E+00 -0.12996475231E+04  0.12996475231E+04  0.00000000000E+00 0.  1.
          2    1    1    2  501    0  0.41423834495E+01 -0.20821443662E+02  0.16090880259E+02  0.26638473761E+02  0.00000000000E+00 0.  1.
          1    1    1    2  502    0 -0.41423834495E+01  0.20821443662E+02 -0.12942866781E+04  0.12944607746E+04  0.00000000000E+00 0.  1.
</event>
<event>
 4    1  0.3664744E+003  0.2258582E+02  0.7546771E-02  0.1497766E+00
          2   -1    0    0  502    0  0.00000000000E+00  0.00000000000E+00  0.16178387257E+03  0.16178387257E+03  0.00000000000E+00 0. -1.
          1   -1    0    0  501    0 -0.00000000000E+00 -0.00000000000E+00 -0.72983466066E+01  0.72983466066E+01  0.00000000000E+00 0. -1.
          2    1    1    2  501    0 -0.22410301944E+02  0.28102631420E+01  0.14095625058E+03  0.14275427766E+03  0.00000000000E+00 0. -1.
          1    1    1    2  502    0  0.22410301944E+02 -0.28102631420E+01  0.13529275382E+02  0.26327941517E+02  0.00000000000E+00 0. -1.
</event>
<event>
 4    1  0.4039706E+003  0.4183515E+02  0.7546771E-02  0.1338055E+00
          2   -1    0    0  502    0  0.00000000000E+00  0.00000000000E+00  0.96389202474E+03  0.96389202474E+03  0.00000000000E+00 0.  1.
          1   -1    0    0  501    0 -0.00000000000E+00 -0.00000000000E+00 -0.11994564657E+04  0.11994564657E+04  0.00000000000E+00 0.  1.
          2    1    1    2  501    0  0.37628454976E+02 -0.18283308815E+02  0.96307299290E+03  0.96398120814E+03  0.00000000000E+00 0.  1.
          1    1    1    2  502    0 -0.37628454976E+02  0.18283308815E+02 -0.11986374338E+04  0.11993672823E+04  0.00000000000E+00 0.  1.
</event>
<event>
 4    1  0.3664744E+003  0.2033761E+02  0.7546771E-02  0.1528936E+00
          2   -1    0    0  502    0  0.00000000000E+00  0.00000000000E+00  0.40799496255E+03  0.40799496255E+03  0.00000000000E+00 0. -1.
          1   -1    0    0  501    0 -0.00000000000E+00 -0.00000000000E+00 -0.60094719869E+01  0.60094719869E+01  0.00000000000E+00 0. -1.
          2    1    1    2  501    0  0.91828953613E+01  0.18146428099E+02  0.38972865101E+03  0.39025893948E+03  0.00000000000E+00 0. -1.
          1    1    1    2  502    0 -0.91828953613E+01 -0.18146428099E+02  0.12256839550E+02  0.23745495062E+02  0.00000000000E+00 0. -1.
</event>
<event>
 4    1  0.3664744E+003  0.5949197E+02  0.7546771E-02  0.1261569E+00
          2   -1    0    0  502    0  0.00000000000E+00  0.00000000000E+00  0.16135544169E+04  0.16135544169E+04  0.00000000000E+00 0. -1.
          1   -1    0    0  501    0 -0.00000000000E+00 -0.00000000000E+00 -0.13824453024E+02  0.13824453024E+02  0.00000000000E+00 0.  1.
          2    1    1    2  501    0 -0.54517143965E+02  0.23815447585E+02  0.15462153967E+04  0.15473594758E+04  0.00000000000E+00 0. -1.
          1    1    1    2  502    0  0.54517143965E+02 -0.23815447585E+02  0.53514567231E+02  0.80019394123E+02  0.00000000000E+00 0.  1.
</event>
<event>
 4    1  0.3664744E+003  0.2513552E+02  0.7546771E-02  0.1467293E+00
          2   -1    0    0  502    0  0.00000000000E+00  0.00000000000E+00  0.64083403462E+02  0.64083403462E+02  0.00000000000E+00 0. -1.
          1   -1    0    0  501    0 -0.00000000000E+00 -0.00000000000E+00 -0.15295192918E+03  0.15295192918E+03  0.00000000000E+00 0. -1.
          2    1    1    2  501    0 -0.13469901092E+02 -0.21221601239E+02  0.60527747502E+02  0.65539322641E+02  0.00000000000E+00 0. -1.
          1    1    1    2  502    0  0.13469901092E+02  0.21221601239E+02 -0.14939627322E+03  0.15149601000E+03  0.00000000000E+00 0. -1.
</event>
<event>
 4    1  0.3664744E+003  0.2877071E+02  0.7546771E-02  0.1430588E+00
          2   -1    0    0  502    0  0.00000000000E+00  0.00000000000E+00  0.74485814815E+02  0.74485814815E+02  0.00000000000E+00 0.  1.
          1   -1    0    0  501    0 -0.00000000000E+00 -0.00000000000E+00 -0.79535380150E+03  0.79535380150E+03  0.00000000000E+00 0.  1.
          2    1    1    2  501    0  0.28020829465E+02 -0.65258828816E+01  0.71436715329E+02  0.77012715368E+02  0.00000000000E+00 0.  1.
          1    1    1    2  502    0 -0.28020829465E+02  0.65258828816E+01 -0.79230470201E+03  0.79282690094E+03  0.00000000000E+00 0.  1.
</event>
<event>
 4    1  0.3664744E+003  0.2282106E+02  0.7546771E-02  0.1494757E+00
          2   -1    0    0  502    0  0.00000000000E+00  0.00000000000E+00  0.50793285328E+03  0.50793285328E+03  0.00000000000E+00 0.  1.
          1   -1    0    0  501    0 -0.00000000000E+00 -0.00000000000E+00 -0.66860993087E+01  0.66860993087E+01  0.00000000000E+00 0. -1.
          2    1    1    2  501    0 -0.22541317308E+02  0.35622865214E+01  0.48738261890E+03  0.48791660976E+03  0.00000000000E+00 0.  1.
          1    1    1    2  502    0  0.22541317308E+02 -0.35622865214E+01  0.13864135065E+02  0.26702342825E+02  0.00000000000E+00 0. -1.
</event>
<event>
 4    1  0.3664744E+003  0.2109207E+02  0.7546771E-02  0.1517954E+00
          2   -1    0    0  502    0  0.00000000000E+00  0.00000000000E+00  0.45395212136E+03  0.45395212136E+03  0.00000000000E+00 0.  1.
          1   -1    0    0  501    0 -0.00000000000E+00 -0.00000000000E+00 -0.35100956413E+01  0.35100956413E+01  0.00000000000E+00 0.  1.
          2    1    1    2  501    0 -0.14886029967E+02  0.14942606302E+02  0.41941411324E+03  0.41994413171E+03  0.00000000000E+00 0.  1.
          1    1    1    2  502    0  0.14886029967E+02 -0.14942606302E+02  0.31027912479E+02  0.37518085293E+02  0.00000000000E+00 0.  1.
</event>
<event>
 4    1  0.3664744E+003  0.2902971E+02  0.7546771E-02  0.1428220E+00
          2   -1    0    0  502    0  0.00000000000E+00  0.00000000000E+00  0.19982484730E+04  0.19982484730E+04  0.00000000000E+00 0. -1.
          1   -1    0    0  501    0 -0.00000000000E+00 -0.00000000000E+00 -0.12954006619E+01  0.12954006619E+01  0.00000000000E+00 0. -1.
          2    1    1    2  501    0 -0.96291431041E+00  0.29013736764E+02  0.18195318441E+04  0.18197634066E+04  0.00000000000E+00 0. -1.
          1    1    1    2  502    0  0.96291431041E+00 -0.29013736764E+02  0.17742122816E+03  0.17978046703E+03  0.00000000000E+00 0. -1.
</event>
<event>
 4    1  0.3664744E+003  0.3323651E+02  0.7546771E-02  0.1393404E+00
          2   -1    0    0  502    0  0.00000000000E+00  0.00000000000E+00  0.14430853871E+03  0.14430853871E+03  0.00000000000E+00 0. -1.
          1   -1    0    0  501    0 -0.00000000000E+00 -0.00000000000E+00 -0.21900766693E+02  0.21900766693E+02  0.00000000000E+00 0.  1.
          2    1    1    2  501    0 -0.31630791014E+02  0.10205816568E+02  0.12822942388E+03  0.13246679124E+03  0.00000000000E+00 0. -1.
          1    1    1    2  502    0  0.31630791014E+02 -0.10205816568E+02 -0.58216518608E+01  0.33742514168E+02  0.00000000000E+00 0.  1.
</event>
<event>
 4    1  0.3664744E+003  0.2174721E+02  0.7546771E-02  0.1508858E+00
          2   -1    0    0  502    0  0.00000000000E+00  0.00000000000E+00  0.26993374094E+03  0.26993374094E+03  0.00000000000E+00 0. -1.
          1   -1    0    0  501    0 -0.00000000000E+00 -0.00000000000E+00 -0.35763665363E+03  0.35763665363E+03  0.00000000000E+00 0. -1.
          2    1    1    2  501    0  0.18579376187E+02  0.11302570643E+02  0.26916417931E+03  0.27004128711E+03  0.00000000000E+00 0. -1.
          1    1    1    2  502    0 -0.18579376187E+02 -0.11302570643E+02 -0.35686709200E+03  0.35752910745E+03  0.00000000000E+00 0. -1.
</event>
<event>
 4    1  0.3664744E+003  0.1120562E+03  0.7546771E-02  0.1144412E+00
          2   -1    0    0  502    0  0.00000000000E+00  0.00000000000E+00  0.50042334164E+03  0.50042334164E+03  0.00000000000E+00 0. -1.
          1   -1    0    0  501    0 -0.00000000000E+00 -0.00000000000E+00 -0.47790708070E+02  0.47790708070E+02  0.00000000000E+00 0. -1.
          2    1    1    2  501    0  0.10774515197E+03 -0.30782751693E+02  0.41522395462E+03  0.43007851384E+03  0.00000000000E+00 0. -1.
          1    1    1    2  502    0 -0.10774515197E+03  0.30782751693E+02  0.37408678952E+02  0.11813553587E+03  0.00000000000E+00 0. -1.
</event>
<event>
 4    1  0.3664744E+003  0.2764234E+02  0.7546771E-02  0.1441260E+00
          2   -1    0    0  502    0  0.00000000000E+00  0.00000000000E+00  0.65745708114E+01  0.65745708114E+01  0.00000000000E+00 0.  1.
          1   -1    0    0  501    0 -0.00000000000E+00 -0.00000000000E+00 -0.23264830058E+03  0.23264830058E+03  0.00000000000E+00 0.  1.
          2    1    1    2  501    0  0.13390863174E+02  0.24182297655E+02 -0.28421069774E+02  0.39646638490E+02  0.00000000000E+00 0.  1.
          1    1    1    2  502    0 -0.13390863174E+02 -0.24182297655E+02 -0.19765265999E+03  0.19957623290E+03  0.00000000000E+00 0.  1.
</event>
<event>
 4    1  0.3664744E+003  0.3312500E+02  0.7546771E-02  0.1394247E+00
          2   -1    0    0  502    0  0.00000000000E+00  0.00000000000E+00  0.13722658601E+01  0.13722658601E+01  0.00000000000E+00 0.  1.
          1   -1    0    0  501    0 -0.00000000000E+00 -0.00000000000E+00 -0.12548009302E+04  0.12548009302E+04  0.00000000000E+00 0.  1.
          2    1    1    2  501    0 -0.32859358537E+02  0.41866545741E+01 -0.24841717573E+03  0.25061595863E+03  0.00000000000E+00 0.  1.
          1    1    1    2  502    0  0.32859358537E+02 -0.41866545741E+01 -0.10050114886E+04  0.10055572375E+04  0.00000000000E+00 0.  1.
</event>
<event>
 4    1  0.3664744E+003  0.2261464E+02  0.7546771E-02  0.1497395E+00
          2   -1    0    0  502    0  0.00000000000E+00  0.00000000000E+00  0.78889815240E+03  0.78889815240E+03  0.00000000000E+00 0.  1.
          1   -1    0    0  501    0 -0.00000000000E+00 -0.00000000000E+00 -0.46900762593E+01  0.46900762593E+01  0.00000000000E+00 0. -1.
          2    1    1    2  501    0 -0.22612224910E+02 -0.33041112447E+00  0.76045585746E+03  0.76079204322E+03  0.00000000000E+00 0.  1.
          1    1    1    2  502    0  0.22612224910E+02  0.33041112447E+00  0.23752218681E+02  0.32796185436E+02  0.00000000000E+00 0. -1.
</event>
<event>
 4    1  0.3664744E+003  0.2747861E+02  0.7546771E-02  0.1442859E+00
          2   -1    0    0  502    0  0.00000000000E+00  0.00000000000E+00  0.11912271527E+04  0.11912271527E+04  0.00000000000E+00 0. -1.
          1   -1    0    0  501    0 -0.00000000000E+00 -0.00000000000E+00 -0.10999855828E+01  0.10999855828E+01  0.00000000000E+00 0. -1.
          2    1    1    2  501    0 -0.16138624875E+02  0.22240029667E+02  0.98314449045E+03  0.98352842523E+03  0.00000000000E+00 0. -1.
          1    1    1    2  502    0  0.16138624875E+02 -0.22240029667E+02  0.20698267668E+03  0.20879871307E+03  0.00000000000E+00 0. -1.
</event>
<event>
 4    1  0.3664744E+003  0.2293004E+02  0.7546771E-02  0.1493379E+00
          2   -1    0    0  502    0  0.00000000000E+00  0.00000000000E+00  0.72535780637E+03  0.72535780637E+03  0.00000000000E+00 0.  1.
          1   -1    0    0  501    0 -0.00000000000E+00 -0.00000000000E+00 -0.80665553928E+00  0.80665553928E+00  0.00000000000E+00 0.  1.
          2    1    1    2  501    0  0.22865707893E+02 -0.17164213287E+01  0.47788991163E+03  0.47843970815E+03  0.00000000000E+00 0.  1.
          1    1    1    2  502    0 -0.22865707893E+02  0.17164213287E+01  0.24666123920E+03  0.24772475375E+03  0.00000000000E+00 0.  1.
</event>
<event>
 4    1  0.3664744E+003  0.2605890E+02  0.7546771E-02  0.1457298E+00
          2   -1    0    0  502    0  0.00000000000E+00  0.00000000000E+00  0.18729494185E+03  0.18729494185E+03  0.00000000000E+00 0.  1.
          1   -1    0    0  501    0 -0.00000000000E+00 -0.00000000000E+00 -0.11262542360E+02  0.11262542360E+02  0.00000000000E+00 0. -1.
          2    1    1    2  501    0 -0.10920860511E+02  0.23660111695E+02  0.16976781749E+03  0.17175615836E+03  0.00000000000E+00 0.  1.
          1    1    1    2  502    0  0.10920860511E+02 -0.23660111695E+02  0.62645820024E+01  0.26801325851E+02  0.00000000000E+00 0. -1.
</event>
<event>
 4    1  0.3664744E+003  0.2134371E+02  0.7546771E-02  0.1514414E+00
          2   -1    0    0  502    0  0.00000000000E+00  0.00000000000E+00  0.52459956334E+02  0.52459956334E+02  0.00000000000E+00 0. -1.
          1   -1    0    0  501    0 -0.00000000000E+00 -0.00000000000E+00 -0.32354918853E+03  0.32354918853E+03  0.00000000000E+00 0.  1.
          2    1    1    2  501    0  0.20736587210E+02 -0.50544917456E+01  0.49919838893E+02  0.54291290747E+02  0.00000000000E+00 0. -1.
          1    1    1    2  502    0 -0.20736587210E+02  0.50544917456E+01 -0.32100907109E+03  0.32171785412E+03  0.00000000000E+00 0.  1.
</event>
<event>
 4    1  0.3664744E+003  0.2214032E+02  0.7546771E-02  0.1503585E+00
          2   -1    0    0  502    0  0.00000000000E+00  0.00000000000E+00  0.90220227308E+02  0.90220227308E+02  0.00000000000E+00 0.  1.
          1   -1    0    0  501    0 -0.00000000000E+00 -0.00000000000E+00 -0.13644441860E+02  0.13644441860E+02  0.00000000000E+00 0. -1.
          2    1    1    2  501    0 -0.10241574953E+02  0.19629155620E+02  0.78574595348E+02  0.81634310446E+02  0.00000000000E+00 0.  1.
          1    1    1    2  502    0  0.10241574953E+02 -0.19629155620E+02 -0.19988098999E+01  0.22230358722E+02  0.00000000000E+00 0. -1.
</event>
<event>
 4    1  0.3664744E+003  0.2475186E+02  0.7546771E-02  0.1471599E+00
          2   -1    0    0  502    0  0.00000000000E+00  0.00000000000E+00  0.50965047340E+02  0.50965047340E+02  0.00000000000E+00 0. -1.
          1   -1    0    0  501    0 -0.00000000000E+00 -0.00000000000E+00 -0.34241356216E+02  0.34241356216E+02  0.00000000000E+00 0. -1.
          2    1    1    2  501    0  0.78927047182E+00 -0.24739270464E+02  0.42681394803E+02  0.49339192467E+02  0.00000000000E+00 0. -1.
          1    1    1    2  502    0 -0.78927047182E+00  0.24739270464E+02 -0.25957703679E+02  0.35867211089E+02  0.00000000000E+00 0. -1.
</event>
<event>
 4    1  0.4254159E+003  0.3041931E+02  0.7546771E-02  0.1415987E+00
          2   -1    0    0  502    0  0.00000000000E+00  0.00000000000E+00  0.93653532186E+03  0.93653532186E+03  0.00000000000E+00 0. -1.
          1   -1    0    0  501    0 -0.00000000000E+00 -0.00000000000E+00 -0.44876581875E+03  0.44876581875E+03  0.00000000000E+00 0. -1.
          2    1    1    2  501    0 -0.29447494103E+02 -0.76275434433E+01  0.93577240329E+03  0.93626669549E+03  0.00000000000E+00 0. -1.
          1    1    1    2  502    0  0.29447494103E+02  0.76275434433E+01 -0.44800290018E+03  0.44903444511E+03  0.00000000000E+00 0. -1.
</event>
<event>
 4    1  0.3664744E+003  0.2109735E+02  0.7546771E-02  0.1517879E+00
          2   -1    0    0  502    0  0.00000000000E+00  0.00000000000E+00  0.67148399884E+02  0.67148399884E+02  0.00000000000E+00 0. -1.
          1   -1    0    0  501    0 -0.00000000000E+00 -0.00000000000E+00 -0.46118876927E+02  0.46118876927E+02  0.00000000000E+00 0.  1.
          2    1    1    2  501    0 -0.14889311665E+00  0.21096824734E+02  0.62920679241E+02  0.66363469313E+02  0.00000000000E+00 0. -1.
          1    1    1    2  502    0  0.14889311665E+00 -0.21096824734E+02 -0.41891156284E+02  0.46903807499E+02  0.00000000000E+00 0.  1.
</event>
<event>
 4    1  0.3664744E+003  0.4274838E+02  0.7546771E-02  0.1333092E+00
          2   -1    0    0  502    0  0.00000000000E+00  0.00000000000E+00  0.82703363582E+02  0.82703363582E+02  0.00000000000E+00 0.  1.
          1   -1    0    0  501    0 -0.00000000000E+00 -0.00000000000E+00 -0.44983761976E+03  0.44983761976E+03  0.00000000000E+00 0. -1.
          2    1    1    2  501    0  0.40829443845E+02  0.12664130335E+02  0.76081388905E+02  0.87268559170E+02  0.00000000000E+00 0.  1.
          1    1    1    2  502    0 -0.40829443845E+02 -0.12664130335E+02 -0.44321564508E+03  0.44527242417E+03  0.00000000000E+00 0. -1.
</event>
<event>
 4    1  0.3664744E+003  0.2039728E+02  0.7546771E-02  0.1528047E+00
          2   -1    0    0  502    0  0.00000000000E+00  0.00000000000E+00  0.36077865179E+03  0.36077865179E+03  0.00000000000E+00 0.  1.
          1   -1    0    0  501    0 -0.00000000000E+00 -0.00000000000E+00 -0.23343471697E+02  0.23343471697E+02  0.00000000000E+00 0. -1.
          2    1    1    2  501    0 -0.70244783107E+01 -0.19149560280E+02  0.35597453733E+03  0.35655843866E+03  0.00000000000E+00 0.  1.
          1    1    1    2  502    0  0.70244783107E+01  0.19149560280E+02 -0.18539357235E+02  0.27563684825E+02  0.00000000000E+00 0. -1.
</event>
<event>
 4    1  0.3664744E+003  0.3859420E+02  0.7546771E-02  0.1356927E+00
          2   -1    0    0  502    0  0.00000000000E+00  0.00000000000E+00  0.55747045057E+03  0.55747045057E+03  0.00000000000E+00 0.  1.
          1   -1    0    0  501    0 -0.00000000000E+00 -0.00000000000E+00 -0.27119236638E+02  0.27119236638E+02  0.00000000000E+00 0. -1.
          2    1    1    2  501    0 -0.38209059823E+02 -0.54387606308E+01  0.54269803556E+03  0.54406862634E+03  0.00000000000E+00 0.  1.
          1    1    1    2  502    0  0.38209059823E+02  0.54387606308E+01 -0.12346821623E+02  0.40521060869E+02  0.00000000000E+00 0. -1.
</event>
<event>
 4    1  0.3664744E+003  0.2186889E+02  0.7546771E-02  0.1507212E+00
          2   -1    0    0  502    0  0.00000000000E+00  0.00000000000E+00  0.93569188438E+02  0.93569188438E+02  0.00000000000E+00 0.  1.
          1   -1    0    0  501    0 -0.00000000000E+00 -0.00000000000E+00 -0.21566225188E+03  0.21566225188E+03  0.00000000000E+00 0. -1.
          2    1    1    2  501    0 -0.19170631964E+02 -0.10523071564E+02  0.91726014488E+02  0.94296924122E+02  0.00000000000E+00 0.  1.
          1    1    1    2  502    0  0.19170631964E+02  0.10523071564E+02 -0.21381907793E+03  0.21493451620E+03  0.00000000000E+00 0. -1.
</event>
<event>
 4    1  0.3664744E+003  0.2250591E+02  0.7546771E-02  0.1498797E+00
          2   -1    0    0  502    0  0.00000000000E+00  0.00000000000E+00  0.13001438237E+04  0.13001438237E+04  0.00000000000E+00 0. -1.
          1   -1    0    0  501    0 -0.00000000000E+00 -0.00000000000E+00 -0.40859442521E+00  0.40859442521E+00  0.00000000000E+00 0. -1.
          2    1    1    2  501    0  0.22204382621E+02  0.36716076830E+01  0.50960340555E+03  0.51010013356E+03  0.00000000000E+00 0. -1.
          1    1    1    2  502    0 -0.22204382621E+02 -0.36716076830E+01  0.79013182377E+03  0.79045228461E+03  0.00000000000E+00 0. -1.
</event>
<event>
 4    1  0.3664744E+003  0.3174852E+02  0.7546771E-02  0.1404987E+00
          2   -1    0    0  502    0  0.00000000000E+00  0.00000000000E+00  0.48158777420E+03  0.48158777420E+03  0.00000000000E+00 0.  1.
          1   -1    0    0  501    0 -0.00000000000E+00 -0.00000000000E+00 -0.81812341604E+01  0.81812341604E+01  0.00000000000E+00 0.  1.
          2    1    1    2  501    0  0.20213912042E+02 -0.24481954395E+02  0.44795349871E+03  0.44907717080E+03  0.00000000000E+00 0.  1.
          1    1    1    2  502    0 -0.20213912042E+02  0.24481954395E+02  0.25453041338E+02  0.40691837564E+02  0.00000000000E+00 0.  1.
</event>
<event>
 4    1  0.3664744E+003  0.2968726E+02  0.7546771E-02  0.1422334E+00
          2   -1    0    0  502    0  0.00000000000E+00  0.00000000000E+00  0.15832092073E+04  0.15832092073E+04  0.00000000000E+00 0. -1.
          1   -1    0    0  501    0 -0.00000000000E+00 -0.00000000000E+00 -0.49864218991E+01  0.49864218991E+01  0.00000000000E+00 0. -1.
          2    1    1    2  501    0 -0.24624376879E+02  0.16582328335E+02  0.15375719681E+04  0.15378585405E+04  0.00000000000E+00 0. -1.
          1    1    1    2  502    0  0.24624376879E+02 -0.16582328335E+02  0.40650817291E+02  0.50337088673E+02  0.00000000000E+00 0. -1.
</event>
<event>
 4    1  0.3664744E+003  0.2598187E+02  0.7546771E-02  0.1458112E+00
          2   -1    0    0  502    0  0.00000000000E+00  0.00000000000E+00  0.23173121355E+02  0.23173121355E+02  0.00000000000E+00 0. -1.
          1   -1    0    0  501    0 -0.00000000000E+00 -0.00000000000E+00 -0.45626862851E+02  0.45626862851E+02  0.00000000000E+00 0.  1.
          2    1    1    2  501    0  0.20315607190E+02  0.16196715202E+02  0.94571435536E+01  0.27649503486E+02  0.00000000000E+00 0. -1.
          1    1    1    2  502    0 -0.20315607190E+02 -0.16196715202E+02 -0.31910885050E+02  0.41150480720E+02  0.00000000000E+00 0.  1.
</event>
<event>
 4    1  0.3664744E+003  0.2122970E+02  0.7546771E-02  0.1516010E+00
          2   -1    0    0  502    0  0.00000000000E+00  0.00000000000E+00  0.34457980544E+03  0.34457980544E+03  0.00000000000E+00 0. -1.
          1   -1    0    0  501    0 -0.00000000000E+00 -0.00000000000E+00 -0.15618139693E+01  0.15618139693E+01  0.00000000000E+00 0. -1.
          2    1    1    2  501    0  0.21181096047E+02 -0.14357378171E+01  0.24128278182E+03  0.24221494788E+03  0.00000000000E+00 0. -1.
          1    1    1    2  502    0 -0.21181096047E+02  0.14357378171E+01  0.10173520965E+03  0.10392667153E+03  0.00000000000E+00 0. -1.
</event>
<event>
 4    1  0.3664744E+003  0.2910618E+02  0.7546771E-02  0.1427526E+00
          2   -1    0    0  502    0  0.00000000000E+00  0.00000000000E+00  0.85462192301E+02  0.85462192301E+02  0.00000000000E+00 0. -1.
          1   -1    0    0  501    0 -0.00000000000E+00 -0.00000000000E+00 -0.10855618680E+02  0.10855618680E+02  0.00000000000E+00 0.  1.
          2    1    1    2  501    0  0.27775319211E+01 -0.28973347023E+02  0.51495942699E+02  0.59152359511E+02  0.00000000000E+00 0. -1.
          1    1    1    2  502    0 -0.27775319211E+01  0.28973347023E+02  0.23110630922E+02  0.37165451469E+02  0.00000000000E+00 0.  1.
</event>
<event>
 4    1  0.3664744E+003  0.2202424E+02  0.7546771E-02  0.1505128E+00
          2   -1    0    0  502    0  0.00000000000E+00  0.00000000000E+00  0.89481474436E+03  0.89481474436E+03  0.00000000000E+00 0. -1.
          1   -1    0    0  501    0 -0.00000000000E+00 -0.00000000000E+00 -0.19496191867E+02  0.19496191867E+02  0.00000000000E+00 0.  1.
          2    1    1    2  501    0 -0.16944758024E+02  0.14069197667E+02  0.88841439475E+03  0.88868734882E+03  0.00000000000E+00 0. -1.
          1    1    1    2  502    0  0.16944758024E+02 -0.14069197667E+02 -0.13095842255E+02  0.25623587412E+02  0.00000000000E+00 0.  1.
</event>
<event>
 4    1  0.3664744E+003  0.2513256E+02  0.7546771E-02  0.1467326E+00
          2   -1    0    0  502    0  0.00000000000E+00  0.00000000000E+00  0.94686125609E+02  0.94686125609E+02  0.00000000000E+00 0.  1.
          1   -1    0    0  501    0 -0.00000000000E+00 -0.00000000000E+00 -0.63254975546E+02  0.63254975546E+02  0.00000000000E+00 0.  1.
          2    1    1    2  501    0  0.23235183070E+02  0.95797638702E+01  0.90405972897E+02  0.93834351617E+02  0.00000000000E+00 0.  1.
          1    1    1    2  502    0 -0.23235183070E+02 -0.95797638702E+01 -0.58974822833E+02  0.64106749538E+02  0.00000000000E+00 0.  1.
</event>
<event>
 4    1  0.3664744E+003  0.2249132E+02  0.7546771E-02  0.1498986E+00
          2   -1    0    0  502    0  0.00000000000E+00  0.00000000000E+00  0.62995643037E+03  0.62995643037E+03  0.00000000000E+00 0. -1.
          1   -1    0    0  501    0 -0.00000000000E+00 -0.00000000000E+00 -0.10805778174E+03  0.10805778174E+03  0.00000000000E+00 0. -1.
          2    1    1    2  501    0 -0.22470123852E+02 -0.97628870463E+00  0.62858277663E+03  0.62898502898E+03  0.00000000000E+00 0. -1.
          1    1    1    2  502    0  0.22470123852E+02  0.97628870463E+00 -0.10668412801E+03  0.10902918313E+03  0.00000000000E+00 0. -1.
</event>
<event>
 4    1  0.3664744E+003  0.2498165E+02  0.7546771E-02  0.1469009E+00
          2   -1    0    0  502    0  0.00000000000E+00  0.00000000000E+00  0.70122948147E+02  0.70122948147E+02  0.00000000000E+00 0.  1.
          1   -1    0    0  501    0 -0.00000000000E+00 -0.00000000000E+00 -0.13869411128E+03  0.13869411128E+03  0.00000000000E+00 0.  1.
          2    1    1    2  501    0  0.12358288238E+02 -0.21710725813E+02  0.66717525550E+02  0.71241217838E+02  0.00000000000E+00 0.  1.
          1    1    1    2  502    0 -0.12358288238E+02  0.21710725813E+02 -0.13528868868E+03  0.13757584159E+03  0.00000000000E+00 0.  1.
</event>
<event>
 4    1  0.3664744E+003  0.2316700E+02  0.7546771E-02  0.1490412E+00
          2   -1    0    0  502    0  0.00000000000E+00  0.00000000000E+00  0.51357276689E+03  0.51357276689E+03  0.00000000000E+00 0.  1.
          1   -1    0    0  501    0 -0.00000000000E+00 -0.00000000000E+00 -0.66572182346E+01  0.66572182346E+01  0.00000000000E+00 0. -1.
          2    1    1    2  501    0 -0.22824551612E+02  0.39685845760E+01  0.49228524724E+03  0.49283006653E+03  0.00000000000E+00 0.  1.
          1    1    1    2  502    0  0.22824551612E+02 -0.39685845760E+01  0.14630301416E+02  0.27399918601E+02  0.00000000000E+00 0. -1.
</event>
<event>
 4    1  0.3664744E+003  0.2395248E+02  0.7546771E-02  0.1480872E+00
          2   -1    0    0  502    0  0.00000000000E+00  0.00000000000E+00  0.13283842522E+02  0.13283842522E+02  0.00000000000E+00 0. -1.
          1   -1    0    0  501    0 -0.00000000000E+00 -0.00000000000E+00 -0.16221704704E+03  0.16221704704E+03  0.00000000000E+00 0.  1.
          2    1    1    2  501    0  0.67174127612E+01  0.22991248316E+02  0.70001612963E+00  0.23962703435E+02  0.00000000000E+00 0. -1.
          1    1    1    2  502    0 -0.67174127612E+01 -0.22991248316E+02 -0.14963322065E+03  0.15153818613E+03  0.00000000000E+00 0.  1.
</event>
<event>
 4    1  0.3664744E+003  0.3244655E+02  0.7546771E-02  0.1399462E+00
          2   -1    0    0  502    0  0.00000000000E+00  0.00000000000E+00  0.80212459641E+01  0.80212459641E+01  0.00000000000E+00 0.  1.
          1   -1    0    0  501    0 -0.00000000000E+00 -0.00000000000E+00 -0.21358459774E+03  0.21358459774E+03  0.00000000000E+00 0.  1.
          2    1    1    2  501    0 -0.19307013434E+02  0.26077145946E+02 -0.33986055250E+02  0.46987554309E+02  0.00000000000E+00 0.  1.
          1    1    1    2  502    0  0.19307013434E+02 -0.26077145946E+02 -0.17157729653E+03  0.17461828940E+03  0.00000000000E+00 0.  1.
</event>
<event>
 4    1  0.3664744E+003  0.2276384E+02  0.7546771E-02  0.1495485E+00
          2   -1    0    0  502    0  0.00000000000E+00  0.00000000000E+00  0.23272027503E+03  0.23272027503E+03  0.00000000000E+00 0. -1.
          1   -1    0    0  501    0 -0.00000000000E+00 -0.00000000000E+00 -0.14864008300E+03  0.14864008300E+03  0.00000000000E+00 0. -1.
          2    1    1    2  501    0  0.22580849090E+02 -0.28805704896E+01  0.23128666133E+03  0.23240419992E+03  0.00000000000E+00 0. -1.
          1    1    1    2  502    0 -0.22580849090E+02  0.28805704896E+01 -0.14720646931E+03  0.14895615811E+03  0.00000000000E+00 0. -1.
</event>
<event>
 4    1  0.3664744E+003  0.2066969E+02  0.7546771E-02  0.1524033E+00
          2   -1    0    0  502    0  0.00000000000E+00  0.00000000000E+00  0.35817973929E+01  0.35817973929E+01  0.00000000000E+00 0.  1.
          1   -1    0    0  501    0 -0.00000000000E+00 -0.00000000000E+00 -0.46678596375E+03  0.46678596375E+03  0.00000000000E+00 0. -1.
          2    1    1    2  501    0 -0.21480927274E+01  0.20557767119E+02 -0.28679719998E+02  0.35351979159E+02  0.00000000000E+00 0.  1.
          1    1    1    2  502    0  0.21480927274E+01 -0.20557767119E+02 -0.43452444636E+03  0.43501578199E+03  0.00000000000E+00 0. -1.
</event>
<event>
 4    1  0.3664744E+003  0.3271145E+02  0.7546771E-02  0.1397408E+00
          2   -1    0    0  502    0  0.00000000000E+00  0.00000000000E+00  0.12161076439E+04  0.12161076439E+04  0.00000000000E+00 0.  1.
          1   -1    0    0  501    0 -0.00000000000E+00 -0.00000000000E+00 -0.10668310129E+01  0.10668310129E+01  0.00000000000E+00 0. -1.
          2    1    1    2  501    0  0.25215606363E+02  0.20837751813E+02  0.86227936767E+03  0.86289961561E+03  0.00000000000E+00 0.  1.
          1    1    1    2  502    0 -0.25215606363E+02 -0.20837751813E+02  0.35276144526E+03  0.35427485935E+03  0.00000000000E+00 0. -1.
</event>
<event>
 4    1  0.3664744E+003  0.2274124E+02  0.7546771E-02  0.1495773E+00
          2   -1    0    0  502    0  0.00000000000E+00  0.00000000000E+00  0.57454498249E+03  0.57454498249E+03  0.00000000000E+00 0.  1.
          1   -1    0    0  501    0 -0.00000000000E+00 -0.00000000000E+00 -0.59908506630E+01  0.59908506630E+01  0.00000000000E+00 0.  1.
          2    1    1    2  501    0  0.24831200428E+01 -0.22605266999E+02  0.55185143560E+03  0.55231980859E+03  0.00000000000E+00 0.  1.
          1    1    1    2  502    0 -0.24831200428E+01  0.22605266999E+02  0.16702696229E+02  0.28216024571E+02  0.00000000000E+00 0.  1.
</event>
<event>
 4    1  0.3664744E+003  0.2148574E+02  0.7546771E-02  0.1512441E+00
          2   -1    0    0  502    0  0.00000000000E+00  0.00000000000E+00  0.81378438577E+03  0.81378438577E+03  0.00000000000E+00 0. -1.
          1   -1    0    0  501    0 -0.00000000000E+00 -0.00000000000E+00 -0.38594656535E+01  0.38594656535E+01  0.00000000000E+00 0. -1.
          2    1    1    2  501    0  0.68092004494E+01 -0.20378221548E+02  0.78254619131E+03  0.78284109413E+03  0.00000000000E+00 0. -1.
          1    1    1    2  502    0 -0.68092004494E+01  0.20378221548E+02  0.27378728807E+02  0.34802757294E+02  0.00000000000E+00 0. -1.
</event>
<event>
 4    1  0.3664744E+003  0.2706753E+02  0.7546771E-02  0.1446931E+00
          2   -1    0    0  502    0  0.00000000000E+00  0.00000000000E+00  0.36413369915E+03  0.36413369915E+03  0.00000000000E+00 0. -1.
          1   -1    0    0  501    0 -0.00000000000E+00 -0.00000000000E+00 -0.52832225814E+01  0.52832225814E+01  0.00000000000E+00 0.  1.
          2    1    1    2  501    0 -0.26861666283E+02  0.33319443140E+01  0.32476680499E+03  0.32589281764E+03  0.00000000000E+00 0. -1.
          1    1    1    2  502    0  0.26861666283E+02 -0.33319443140E+01  0.34083671581E+02  0.43524104090E+02  0.00000000000E+00 0.  1.
</event>
<event>
 4    1  0.3664744E+003  0.2298422E+02  0.7546771E-02  0.1492696E+00
          2   -1    0    0  502    0  0.00000000000E+00  0.00000000000E+00  0.11380631513E+02  0.11380631513E+02  0.00000000000E+00 0. -1.
          1   -1    0    0  501    0 -0.00000000000E+00 -0.00000000000E+00 -0.73542623151E+02  0.73542623151E+02  0.00000000000E+00 0.  1.
          2    1    1    2  501    0 -0.15453727587E+02 -0.17013426838E+02 -0.52938581093E+01  0.23585998448E+02  0.00000000000E+00 0. -1.
          1    1    1    2  502    0  0.15453727587E+02  0.17013426838E+02 -0.56868133528E+02  0.61337256216E+02  0.00000000000E+00 0.  1.
</event>
<event>
 4    1  0.3664744E+003  0.3176566E+02  0.7546771E-02  0.1404849E+00
          2   -1    0    0  502    0  0.00000000000E+00  0.00000000000E+00  0.18471575808E+04  0.18471575808E+04  0.00000000000E+00 0. -1.
          1   -1    0    0  501    0 -0.00000000000E+00 -0.00000000000E+00 -0.71767948790E+01  0.71767948790E+01  0.00000000000E+00 0. -1.
          2    1    1    2  501    0  0.19287906722E+02 -0.25239529728E+02  0.18111727011E+04  0.18114512443E+04  0.00000000000E+00 0. -1.
          1    1    1    2  502    0 -0.19287906722E+02  0.25239529728E+02  0.28808084799E+02  0.42883131374E+02  0.00000000000E+00 0. -1.
</event>
<event>
 4    1  0.3664744E+003  0.2391061E+02  0.7546771E-02  0.1481370E+00
          2   -1    0    0  502    0  0.00000000000E+00  0.00000000000E+00  0.11391498553E+04  0.11391498553E+04  0.00000000000E+00 0.  1.
          1   -1    0    0  501    0 -0.00000000000E+00 -0.00000000000E+00 -0.15364115610E+01  0.15364115610E+01  0.00000000000E+00 0.  1.
          2    1    1    2  501    0 -0.22708658149E+02 -0.74855846108E+01  0.10368157115E+04  0.10370913831E+04  0.00000000000E+00 0.  1.
          1    1    1    2  502    0  0.22708658149E+02  0.74855846108E+01  0.10079773214E+03  0.10359488374E+03  0.00000000000E+00 0.  1.
</event>
<event>
 4    1  0.3664744E+003  0.2196938E+02  0.7546771E-02  0.1505862E+00
          2   -1    0    0  502    0  0.00000000000E+00  0.00000000000E+00  0.11203933333E+04  0.11203933333E+04  0.00000000000E+00 0. -1.
          1   -1    0    0  501    0 -0.00000000000E+00 -0.00000000000E+00 -0.19311058202E+01  0.19311058202E+01  0.00000000000E+00 0. -1.
          2    1    1    2  501    0  0.25169743204E+01  0.21824726327E+02  0.10538569353E+04  0.10540859044E+04  0.00000000000E+00 0. -1.
          1    1    1    2  502    0 -0.25169743204E+01 -0.21824726327E+02  0.64605292179E+02  0.68238534689E+02  0.00000000000E+00 0. -1.
</event>
<event>
 4    1  0.3664744E+003  0.2473782E+02  0.7546771E-02  0.1471758E+00
          2   -1    0    0  502    0  0.00000000000E+00  0.00000000000E+00  0.23852892412E+04  0.23852892412E+04  0.00000000000E+00 0.  1.
          1   -1    0    0  501    0 -0.00000000000E+00 -0.00000000000E+00 -0.26846724664E+00  0.26846724664E+00  0.00000000000E+00 0.  1.
          2    1    1    2  501    0 -0.18845487456E+02  0.16025208933E+02  0.14437551812E+04  0.14439670990E+04  0.00000000000E+00 0.  1.
          1    1    1    2  502    0  0.18845487456E+02 -0.16025208933E+02  0.94126559271E+03  0.94159060942E+03  0.00000000000E+00 0.  1.
</event>
<event>
 4    1  0.3664744E+003  0.2052636E+02  0.7546771E-02  0.1526136E+00
          2   -1    0    0  502    0  0.00000000000E+00  0.00000000000E+00  0.83529294186E+03  0.83529294186E+03  0.00000000000E+00 0.  1.
          1   -1    0    0  501    0 -0.00000000000E+00 -0.00000000000E+00 -0.21847484963E+01  0.21847484963E+01  0.00000000000E+00 0.  1.
          2    1    1    2  501    0  0.51901545728E+01 -0.19859344064E+02  0.78378628355E+03  0.78405501690E+03  0.00000000000E+00 0.  1.
          1    1    1    2  502    0 -0.51901545728E+01  0.19859344064E+02  0.49321909816E+02  0.53422673455E+02  0.00000000000E+00 0.  1.
</event>
<event>
 4    1  0.3664744E+003  0.2124061E+02  0.7546771E-02  0.1515857E+00
          2   -1    0    0  502    0  0.00000000000E+00  0.00000000000E+00  0.13442460779E+04  0.13442460779E+04  0.00000000000E+00 0.  1.
          1   -1    0    0  501    0 -0.00000000000E+00 -0.00000000000E+00 -0.14655548732E+02  0.14655548732E+02  0.00000000000E+00 0.  1.
          2    1    1    2  501    0  0.37147125170E+01  0.20913262933E+02  0.13364209880E+04  0.13365897728E+04  0.00000000000E+00 0.  1.
          1    1    1    2  502    0 -0.37147125170E+01 -0.20913262933E+02 -0.68304587771E+01  0.22311853861E+02  0.00000000000E+00 0.  1.
</event>
<event>
 4    1  0.3664744E+003  0.2695910E+02  0.7546771E-02  0.1448019E+00
          2   -1    0    0  502    0  0.00000000000E+00  0.00000000000E+00  0.46628880808E+03  0.46628880808E+03  0.00000000000E+00 0. -1.
          1   -1    0    0  501    0 -0.00000000000E+00 -0.00000000000E+00 -0.15587348902E+01  0.15587348902E+01  0.00000000000E+00 0. -1.
          2    1    1    2  501    0 -0.26956961396E+02  0.33939912318E+00  0.23380848461E+03  0.23535760119E+03  0.00000000000E+00 0. -1.
          1    1    1    2  502    0  0.26956961396E+02 -0.33939912318E+00  0.23092158858E+03  0.23248994178E+03  0.00000000000E+00 0. -1.
</event>
<event>
 4    1  0.3664744E+003  0.2235546E+02  0.7546771E-02  0.1500754E+00
          2   -1    0    0  502    0  0.00000000000E+00  0.00000000000E+00  0.14057820411E+04  0.14057820411E+04  0.00000000000E+00 0.  1.
          1   -1    0    0  501    0 -0.00000000000E+00 -0.00000000000E+00 -0.58534203880E+00  0.58534203880E+00  0.00000000000E+00 0.  1.
          2    1    1    2  501    0  0.14408737389E+02  0.17092542503E+02  0.11432253772E+04  0.11434439338E+04  0.00000000000E+00 0.  1.
          1    1    1    2  502    0 -0.14408737389E+02 -0.17092542503E+02  0.26197132181E+03  0.26292344926E+03  0.00000000000E+00 0.  1.
</event>
<event>
 4    1  0.3664744E+003  0.2748067E+02  0.7546771E-02  0.1442839E+00
          2   -1    0    0  502    0  0.00000000000E+00  0.00000000000E+00  0.11390630843E+03  0.11390630843E+03  0.00000000000E+00 0. -1.
          1   -1    0    0  501    0 -0.00000000000E+00 -0.00000000000E+00 -0.10277729798E+02  0.10277729798E+02  0.00000000000E+00 0.  1.
          2    1    1    2  501    0  0.20038967182E+02 -0.18804973687E+02  0.88806013033E+02  0.92960718542E+02  0.00000000000E+00 0. -1.
          1    1    1    2  502    0 -0.20038967182E+02  0.18804973687E+02  0.14822565595E+02  0.31223319681E+02  0.00000000000E+00 0.  1.
</event>
<event>
 4    1  0.3664744E+003  0.3383597E+02  0.7546771E-02  0.1388937E+00
          2   -1    0    0  502    0  0.00000000000E+00  0.00000000000E+00  0.69193589464E+03  0.69193589464E+03  0.00000000000E+00 0.  1.
          1   -1    0    0  501    0 -0.00000000000E+00 -0.00000000000E+00 -0.20673312736E+01  0.20673312736E+01  0.00000000000E+00 0.  1.
          2    1    1    2  501    0  0.25780436464E+02 -0.21914402367E+02  0.18988702168E+03  0.19287807791E+03  0.00000000000E+00 0.  1.
          1    1    1    2  502    0 -0.25780436464E+02  0.21914402367E+02  0.49998154169E+03  0.50112514801E+03  0.00000000000E+00 0.  1.
</event>
<event>
 4    1  0.3664744E+003  0.5416902E+02  0.7546771E-02  0.1281043E+00
          2   -1    0    0  502    0  0.00000000000E+00  0.00000000000E+00  0.82773622928E+01  0.82773622928E+01  0.00000000000E+00 0.  1.
          1   -1    0    0  501    0 -0.00000000000E+00 -0.00000000000E+00 -0.84673869604E+03  0.84673869604E+03  0.00000000000E+00 0. -1.
          2    1    1    2  501    0 -0.49815256041E+01  0.53939474354E+02 -0.93274118933E+02  0.10786261518E+03  0.00000000000E+00 0.  1.
          1    1    1    2  502    0  0.49815256041E+01 -0.53939474354E+02 -0.74518721482E+03  0.74715344316E+03  0.00000000000E+00 0. -1.
</event>
<event>
 4    1  0.3664744E+003  0.2208318E+02  0.7546771E-02  0.1504343E+00
          2   -1    0    0  502    0  0.00000000000E+00  0.00000000000E+00  0.71777285696E+02  0.71777285696E+02  0.00000000000E+00 0.  1.
          1   -1    0    0  501    0 -0.00000000000E+00 -0.00000000000E+00 -0.58774666654E+02  0.58774666654E+02  0.00000000000E+00 0.  1.
          2    1    1    2  501    0  0.21474026044E+02  0.51510379081E+01  0.67888605787E+02  0.71389983764E+02  0.00000000000E+00 0.  1.
          1    1    1    2  502    0 -0.21474026044E+02 -0.51510379081E+01 -0.54885986745E+02  0.59161968587E+02  0.00000000000E+00 0.  1.
</event>
<event>
 4    1  0.3664744E+003  0.2222061E+02  0.7546771E-02  0.1502524E+00
          2   -1    0    0  502    0  0.00000000000E+00  0.00000000000E+00  0.44916130518E+02  0.44916130518E+02  0.00000000000E+00 0. -1.
          1   -1    0    0  501    0 -0.00000000000E+00 -0.00000000000E+00 -0.30921370605E+02  0.30921370605E+02  0.00000000000E+00 0. -1.
          2    1    1    2  501    0  0.21371420609E+02 -0.60842502086E+01  0.37438618479E+02  0.43536259291E+02  0.00000000000E+00 0. -1.
          1    1    1    2  502    0 -0.21371420609E+02  0.60842502086E+01 -0.23443858566E+02  0.32301241832E+02  0.00000000000E+00 0. -1.
</event>
<event>
 4    1  0.3664744E+003  0.2728182E+02  0.7546771E-02  0.1444798E+00
          2   -1    0    0  502    0  0.00000000000E+00  0.00000000000E+00  0.91059540468E+02  0.91059540468E+02  0.00000000000E+00 0. -1.
          1   -1    0    0  501    0 -0.00000000000E+00 -0.00000000000E+00 -0.64653142076E+03  0.64653142076E+03  0.00000000000E+00 0. -1.
          2    1    1    2  501    0 -0.18098484706E+02 -0.20414276703E+02  0.88720883870E+02  0.92820757790E+02  0.00000000000E+00 0. -1.
          1    1    1    2  502    0  0.18098484706E+02  0.20414276703E+02 -0.64419276417E+03  0.64477020344E+03  0.00000000000E+00 0. -1.
</event>
<event>
 4    1  0.3664744E+003  0.3349633E+02  0.7546771E-02  0.1391454E+00
          2   -1    0    0  502    0  0.00000000000E+00  0.00000000000E+00  0.11513841662E+02  0.11513841662E+02  0.00000000000E+00 0.  1.
          1   -1    0    0  501    0 -0.00000000000E+00 -0.00000000000E+00 -0.10047676904E+04  0.10047676904E+04  0.00000000000E+00 0. -1.
          2    1    1    2  501    0  0.11259273764E+02  0.31547313315E+02 -0.13755722658E+02  0.36210828890E+02  0.00000000000E+00 0.  1.
          1    1    1    2  502    0 -0.11259273764E+02 -0.31547313315E+02 -0.97949812606E+03  0.98007070315E+03  0.00000000000E+00 0. -1.
</event>
<event>
 4    1  0.3664744E+003  0.2032944E+02  0.7546771E-02  0.1529058E+00
          2   -1    0    0  502    0  0.00000000000E+00  0.00000000000E+00  0.67178489488E+03  0.67178489488E+03  0.00000000000E+00 0.  1.
          1   -1    0    0  501    0 -0.00000000000E+00 -0.00000000000E+00 -0.60958580693E+01  0.60958580693E+01  0.00000000000E+00 0.  1.
          2    1    1    2  501    0 -0.19567500817E+02  0.55135179395E+01  0.65422685801E+03  0.65454264010E+03  0.00000000000E+00 0.  1.
          1    1    1    2  502    0  0.19567500817E+02 -0.55135179395E+01  0.11462178793E+02  0.23338112841E+02  0.00000000000E+00 0.  1.
</event>
<event>
 4    1  0.3664744E+003  0.5763752E+02  0.7546771E-02  0.1268078E+00
          2   -1    0    0  502    0  0.00000000000E+00  0.00000000000E+00  0.16698563369E+04  0.16698563369E+04  0.00000000000E+00 0. -1.
          1   -1    0    0  501    0 -0.00000000000E+00 -0.00000000000E+00 -0.52050843794E+01  0.52050843794E+01  0.00000000000E+00 0. -1.
          2    1    1    2  501    0 -0.54549141810E+02 -0.18613833593E+02  0.14906208000E+04  0.14917347127E+04  0.00000000000E+00 0. -1.
          1    1    1    2  502    0  0.54549141810E+02  0.18613833593E+02  0.17403045243E+03  0.18332670849E+03  0.00000000000E+00 0. -1.
</event>
<event>
 4    1  0.3664744E+003  0.2432560E+02  0.7546771E-02  0.1476491E+00
          2   -1    0    0  502    0  0.00000000000E+00  0.00000000000E+00  0.30625768947E+02  0.30625768947E+02  0.00000000000E+00 0.  1.
          1   -1    0    0  501    0 -0.00000000000E+00 -0.00000000000E+00 -0.88824593864E+02  0.88824593864E+02  0.00000000000E+00 0. -1.
          2    1    1    2  501    0 -0.16694374365E+02 -0.17692727281E+02  0.23732099428E+02  0.33984515258E+02  0.00000000000E+00 0.  1.
          1    1    1    2  502    0  0.16694374365E+02  0.17692727281E+02 -0.81930924345E+02  0.85465847554E+02  0.00000000000E+00 0. -1.
</event>
<event>
 4    1  0.3664744E+003  0.2974696E+02  0.7546771E-02  0.1421808E+00
          2   -1    0    0  502    0  0.00000000000E+00  0.00000000000E+00  0.10491473040E+02  0.10491473040E+02  0.00000000000E+00 0.  1.
          1   -1    0    0  501    0 -0.00000000000E+00 -0.00000000000E+00 -0.16644028562E+03  0.16644028562E+03  0.00000000000E+00 0.  1.
          2    1    1    2  501    0  0.28799114430E+02 -0.74493286808E+01 -0.15843000722E+02  0.33702850943E+02  0.00000000000E+00 0.  1.
          1    1    1    2  502    0 -0.28799114430E+02  0.74493286808E+01 -0.14010581186E+03  0.14322890772E+03  0.00000000000E+00 0.  1.
</event>
<event>
 4    1  0.3664744E+003  0.3574388E+02  0.7546771E-02  0.1375408E+00
          2   -1    0    0  502    0  0.00000000000E+00  0.00000000000E+00  0.87570071176E+01  0.87570071176E+01  0.00000000000E+00 0.  1.
          1   -1    0    0  501    0 -0.00000000000E+00 -0.00000000000E+00 -0.17296270607E+03  0.17296270607E+03  0.00000000000E+00 0.  1.
          2    1    1    2  501    0 -0.17318896309E+02 -0.31267865139E+02 -0.11804492964E+03  0.12333786512E+03  0.00000000000E+00 0.  1.
          1    1    1    2  502    0  0.17318896309E+02  0.31267865139E+02 -0.46160769310E+02  0.58381848061E+02  0.00000000000E+00 0.  1.
</event>
<event>
 4    1  0.3664744E+003  0.2675791E+02  0.7546771E-02  0.1450055E+00
          2   -1    0    0  502    0  0.00000000000E+00  0.00000000000E+00  0.15731500996E+04  0.15731500996E+04  0.00000000000E+00 0.  1.
          1   -1    0    0  501    0 -0.00000000000E+00 -0.00000000000E+00 -0.27529813251E+01  0.27529813251E+01  0.00000000000E+00 0.  1.
          2    1    1    2  501    0  0.17689360294E+01 -0.26699372453E+02  0.15050766729E+04  0.15053145110E+04  0.00000000000E+00 0.  1.
          1    1    1    2  502    0 -0.17689360294E+01  0.26699372453E+02  0.65320445327E+02  0.70588569909E+02  0.00000000000E+00 0.  1.
</event>
<event>
 4    1  0.3664744E+003  0.2709575E+02  0.7546771E-02  0.1446649E+00
          2   -1    0    0  502    0  0.00000000000E+00  0.00000000000E+00  0.44802742467E+02  0.44802742467E+02  0.00000000000E+00 0.  1.
          1   -1    0    0  501    0 -0.00000000000E+00 -0.00000000000E+00 -0.19945484456E+02  0.19945484456E+02  0.00000000000E+00 0.  1.
          2    1    1    2  501    0  0.11977276508E+02  0.24304821868E+02  0.26103153787E+02  0.37623850896E+02  0.00000000000E+00 0.  1.
          1    1    1    2  502    0 -0.11977276508E+02 -0.24304821868E+02 -0.12458957760E+01  0.27124376028E+02  0.00000000000E+00 0.  1.
</event>
<event>
 4    1  0.3664744E+003  0.2071166E+02  0.7546771E-02  0.1523422E+00
          2   -1    0    0  502    0  0.00000000000E+00  0.00000000000E+00  0.16947898105E+03  0.16947898105E+03  0.00000000000E+00 0.  1.
          1   -1    0    0  501    0 -0.00000000000E+00 -0.00000000000E+00 -0.56042171717E+02  0.56042171717E+02  0.00000000000E+00 0.  1.
          2    1    1    2  501    0 -0.14772156918E+02 -0.14517448236E+02  0.16690316251E+03  0.16818334810E+03  0.00000000000E+00 0.  1.
          1    1    1    2  502    0  0.14772156918E+02  0.14517448236E+02 -0.53466353169E+02  0.57337804671E+02  0.00000000000E+00 0.  1.
</event>
<event>
 4    1  0.3664744E+003  0.2116004E+02  0.7546771E-02  0.1516992E+00
          2   -1    0    0  502    0  0.00000000000E+00  0.00000000000E+00  0.11799681771E+04  0.11799681771E+04  0.00000000000E+00 0. -1.
          1   -1    0    0  501    0 -0.00000000000E+00 -0.00000000000E+00 -0.50242299766E+00  0.50242299766E+00  0.00000000000E+00 0. -1.
          2    1    1    2  501    0  0.15500331574E+01 -0.21103184777E+02  0.29773264010E+03  0.29848362098E+03  0.00000000000E+00 0. -1.
          1    1    1    2  502    0 -0.15500331574E+01  0.21103184777E+02  0.88173311404E+03  0.88198697915E+03  0.00000000000E+00 0. -1.
</event>
<event>
 4    1  0.3664744E+003  0.3309890E+02  0.7546771E-02  0.1394445E+00
          2   -1    0    0  502    0  0.00000000000E+00  0.00000000000E+00  0.39865439738E+02  0.39865439738E+02  0.00000000000E+00 0. -1.
          1   -1    0    0  501    0 -0.00000000000E+00 -0.00000000000E+00 -0.78536859997E+02  0.78536859997E+02  0.00000000000E+00 0.  1.
          2    1    1    2  501    0  0.19291592680E+02 -0.26895571191E+02  0.28397065704E+02  0.43611129754E+02  0.00000000000E+00 0. -1.
          1    1    1    2  502    0 -0.19291592680E+02  0.26895571191E+02 -0.67068485963E+02  0.74791169982E+02  0.00000000000E+00 0.  1.
</event>
<event>
 4    1  0.3664744E+003  0.2821983E+02  0.7546771E-02  0.1435725E+00
          2   -1    0    0  502    0  0.00000000000E+00  0.00000000000E+00  0.19579998364E+02  0.19579998364E+02  0.00000000000E+00 0. -1.
          1   -1    0    0  501    0 -0.00000000000E+00 -0.00000000000E+00 -0.19216038029E+03  0.19216038029E+03  0.00000000000E+00 0.  1.
          2    1    1    2  501    0  0.28113873089E+02  0.24431467098E+01  0.77105643237E+01  0.29254258290E+02  0.00000000000E+00 0. -1.
          1    1    1    2  502    0 -0.28113873089E+02 -0.24431467098E+01 -0.18029094625E+03  0.18248612037E+03  0.00000000000E+00 0.  1.
</event>
<event>
 4    1  0.3664744E+003  0.2096270E+02  0.7546771E-02  0.1519798E+00
          2   -1    0    0  502    0  0.00000000000E+00  0.00000000000E+00  0.60519512008E+01  0.60519512008E+01  0.00000000000E+00 0.  1.
          1   -1    0    0  501    0 -0.00000000000E+00 -0.00000000000E+00 -0.29808830109E+03  0.29808830109E+03  0.00000000000E+00 0. -1.
          2    1    1    2  501    0 -0.10097899019E+02 -0.18370277034E+02 -0.13759726140E+02  0.25075181083E+02  0.00000000000E+00 0.  1.
          1    1    1    2  502    0  0.10097899019E+02  0.18370277034E+02 -0.27827662375E+03  0.27906507121E+03  0.00000000000E+00 0. -1.
</event>
<event>
 4    1  0.3664744E+003  0.3887533E+02  0.7546771E-02  0.1355205E+00
          2   -1    0    0  502    0  0.00000000000E+00  0.00000000000E+00  0.66823064628E+01  0.66823064628E+01  0.00000000000E+00 0. -1.
          1   -1    0    0  501    0 -0.00000000000E+00 -0.00000000000E+00 -0.43338382527E+03  0.43338382527E+03  0.00000000000E+00 0.  1.
          2    1    1    2  501    0  0.20760288265E+02 -0.32867945533E+02 -0.61202091783E+02  0.72505085691E+02  0.00000000000E+00 0. -1.
          1    1    1    2  502    0 -0.20760288265E+02  0.32867945533E+02 -0.36549942702E+03  0.36756104604E+03  0.00000000000E+00 0.  1.
</event>
<event>
 4    1  0.3664744E+003  0.2361976E+02  0.7546771E-02  0.1484859E+00
          2   -1    0    0  502    0  0.00000000000E+00  0.00000000000E+00  0.53262530135E+03  0.53262530135E+03  0.00000000000E+00 0.  1.
          1   -1    0    0  501    0 -0.00000000000E+00 -0.00000000000E+00 -0.39503030269E+01  0.39503030269E+01  0.00000000000E+00 0.  1.
          2    1    1    2  501    0  0.23619071222E+02  0.18021098290E+00  0.49432222834E+03  0.49488620756E+03  0.00000000000E+00 0.  1.
          1    1    1    2  502    0 -0.23619071222E+02 -0.18021098290E+00  0.34352769977E+02  0.41689396811E+02  0.00000000000E+00 0.  1.
</event>
<event>
 4    1  0.3664744E+003  0.2451144E+02  0.7546771E-02  0.1474344E+00
          2   -1    0    0  502    0  0.00000000000E+00  0.00000000000E+00  0.12060596531E+01  0.12060596531E+01  0.00000000000E+00 0. -1.
          1   -1    0    0  501    0 -0.00000000000E+00 -0.00000000000E+00 -0.52482454888E+03  0.52482454888E+03  0.00000000000E+00 0.  1.
          2    1    1    2  501    0  0.24127800449E+02 -0.43197045747E+01 -0.20252468835E+03  0.20400259800E+03  0.00000000000E+00 0. -1.
          1    1    1    2  502    0 -0.24127800449E+02  0.43197045747E+01 -0.32109380088E+03  0.32202801053E+03  0.00000000000E+00 0.  1.
</event>
<event>
 4    1  0.3664744E+003  0.2124263E+02  0.7546771E-02  0.1515829E+00
          2   -1    0    0  502    0  0.00000000000E+00  0.00000000000E+00  0.15047411078E+04  0.15047411078E+04  0.00000000000E+00 0.  1.
          1   -1    0    0  501    0 -0.00000000000E+00 -0.00000000000E+00 -0.46800533935E+00  0.46800533935E+00  0.00000000000E+00 0.  1.
          2    1    1    2  501    0 -0.13601457407E+02  0.16317153225E+02  0.12032146079E+04  0.12034021114E+04  0.00000000000E+00 0.  1.
          1    1    1    2  502    0  0.13601457407E+02 -0.16317153225E+02  0.30105849456E+03  0.30180700170E+03  0.00000000000E+00 0.  1.
</event>
<event>
 4    1  0.3664744E+003  0.2917826E+02  0.7546771E-02  0.1426874E+00
          2   -1    0    0  502    0  0.00000000000E+00  0.00000000000E+00  0.74466201007E+02  0.74466201007E+02  0.00000000000E+00 0.  1.
          1   -1    0    0  501    0 -0.00000000000E+00 -0.00000000000E+00 -0.25260335714E+03  0.25260335714E+03  0.00000000000E+00 0. -1.
          2    1    1    2  501    0 -0.18822975428E+02 -0.22294983933E+02  0.70722508257E+02  0.76505188626E+02  0.00000000000E+00 0.  1.
          1    1    1    2  502    0  0.18822975428E+02  0.22294983933E+02 -0.24885966439E+03  0.25056436952E+03  0.00000000000E+00 0. -1.
</event>
<event>
 4    1  0.3664744E+003  0.2967707E+02  0.7546771E-02  0.1422424E+00
          2   -1    0    0  502    0  0.00000000000E+00  0.00000000000E+00  0.10062020899E+01  0.10062020899E+01  0.00000000000E+00 0. -1.
          1   -1    0    0  501    0 -0.00000000000E+00 -0.00000000000E+00 -0.21724120776E+04  0.21724120776E+04  0.00000000000E+00 0.  1.
          2    1    1    2  501    0  0.23472257328E+02 -0.18159887443E+02 -0.24598966249E+03  0.24777336908E+03  0.00000000000E+00 0. -1.
          1    1    1    2  502    0 -0.23472257328E+02  0.18159887443E+02 -0.19254162130E+04  0.19256449106E+04  0.00000000000E+00 0.  1.
</event>
<event>
 4    1  0.3664744E+003  0.2877086E+02  0.7546771E-02  0.1430587E+00
          2   -1    0    0  502    0  0.00000000000E+00  0.00000000000E+00  0.98842743790E+02  0.98842743790E+02  0.00000000000E+00 0. -1.
          1   -1    0    0  501    0 -0.00000000000E+00 -0.00000000000E+00 -0.74019327310E+02  0.74019327310E+02  0.00000000000E+00 0. -1.
          2    1    1    2  501    0  0.10756413021E+02 -0.26684487001E+02  0.93806624445E+02  0.98119544727E+02  0.00000000000E+00 0. -1.
          1    1    1    2  502    0 -0.10756413021E+02  0.26684487001E+02 -0.68983207965E+02  0.74742526374E+02  0.00000000000E+00 0. -1.
</event>
<event>
 4    1  0.3664744E+003  0.2318145E+02  0.7546771E-02  0.1490232E+00
          2   -1    0    0  502    0  0.00000000000E+00  0.00000000000E+00  0.91041301793E+03  0.91041301793E+03  0.00000000000E+00 0.  1.
          1   -1    0    0  501    0 -0.00000000000E+00 -0.00000000000E+00 -0.71019875673E+02  0.71019875673E+02  0.00000000000E+00 0.  1.
          2    1    1    2  501    0 -0.17859578905E+02 -0.14778873394E+02  0.90836954601E+03  0.90866529139E+03  0.00000000000E+00 0.  1.
          1    1    1    2  502    0  0.17859578905E+02  0.14778873394E+02 -0.68976403752E+02  0.72767602214E+02  0.00000000000E+00 0.  1.
</event>
<event>
 4    1  0.3664744E+003  0.2928348E+02  0.7546771E-02  0.1425927E+00
          2   -1    0    0  502    0  0.00000000000E+00  0.00000000000E+00  0.18138673127E+02  0.18138673127E+02  0.00000000000E+00 0.  1.
          1   -1    0    0  501    0 -0.00000000000E+00 -0.00000000000E+00 -0.18661326268E+03  0.18661326268E+03  0.00000000000E+00 0.  1.
          2    1    1    2  501    0 -0.19711677515E+02 -0.21655760221E+02  0.42254791886E+01  0.29586768252E+02  0.00000000000E+00 0.  1.
          1    1    1    2  502    0  0.19711677515E+02  0.21655760221E+02 -0.17270006875E+03  0.17516516756E+03  0.00000000000E+00 0.  1.
</event>
<event>
 4    1  0.3664744E+003  0.2242762E+02  0.7546771E-02  0.1499813E+00
          2   -1    0    0  502    0  0.00000000000E+00  0.00000000000E+00  0.11151886108E+03  0.11151886108E+03  0.00000000000E+00 0. -1.
          1   -1    0    0  501    0 -0.00000000000E+00 -0.00000000000E+00 -0.71398965237E+03  0.71398965237E+03  0.00000000000E+00 0. -1.
          2    1    1    2  501    0 -0.47049415784E+01  0.21928559049E+02  0.11021306534E+03  0.11247185403E+03  0.00000000000E+00 0. -1.
          1    1    1    2  502    0  0.47049415784E+01 -0.21928559049E+02 -0.71268385663E+03  0.71303665942E+03  0.00000000000E+00 0. -1.
</event>
<event>
 4    1  0.3664744E+003  0.2074558E+02  0.7546771E-02  0.1522928E+00
          2   -1    0    0  502    0  0.00000000000E+00  0.00000000000E+00  0.29791373054E+02  0.29791373054E+02  0.00000000000E+00 0.  1.
          1   -1    0    0  501    0 -0.00000000000E+00 -0.00000000000E+00 -0.21346330009E+02  0.21346330009E+02  0.00000000000E+00 0.  1.
          2    1    1    2  501    0  0.20700914120E+02 -0.13606702947E+01  0.18759384965E+02  0.27969515429E+02  0.00000000000E+00 0.  1.
          1    1    1    2  502    0 -0.20700914120E+02  0.13606702947E+01 -0.10314341920E+02  0.23168187635E+02  0.00000000000E+00 0.  1.
</event>
<event>
 4    1  0.3664744E+003  0.4041458E+02  0.7546771E-02  0.1346073E+00
          2   -1    0    0  502    0  0.00000000000E+00  0.00000000000E+00  0.51156323459E+03  0.51156323459E+03  0.00000000000E+00 0.  1.
          1   -1    0    0  501    0 -0.00000000000E+00 -0.00000000000E+00 -0.27556410715E+02  0.27556410715E+02  0.00000000000E+00 0. -1.
          2    1    1    2  501    0 -0.27385531362E+02  0.29721562072E+02  0.49546626773E+03  0.49711181945E+03  0.00000000000E+00 0.  1.
          1    1    1    2  502    0  0.27385531362E+02 -0.29721562072E+02 -0.11459443851E+02  0.42007825858E+02  0.00000000000E+00 0. -1.
</event>
<event>
 4    1  0.3664744E+003  0.2138925E+02  0.7546771E-02  0.1513779E+00
          2   -1    0    0  502    0  0.00000000000E+00  0.00000000000E+00  0.44619961180E+03  0.44619961180E+03  0.00000000000E+00 0. -1.
          1   -1    0    0  501    0 -0.00000000000E+00 -0.00000000000E+00 -0.34961410569E+01  0.34961410569E+01  0.00000000000E+00 0. -1.
          2    1    1    2  501    0 -0.36583282639E+01  0.21074079706E+02  0.41037462995E+03  0.41093166964E+03  0.00000000000E+00 0. -1.
          1    1    1    2  502    0  0.36583282639E+01 -0.21074079706E+02  0.32328840794E+02  0.38764083224E+02  0.00000000000E+00 0. -1.
</event>
<event>
 4    1  0.3664744E+003  0.2065926E+02  0.7546771E-02  0.1524186E+00
          2   -1    0    0  502    0  0.00000000000E+00  0.00000000000E+00  0.50215680988E+03  0.50215680988E+03  0.00000000000E+00 0. -1.
          1   -1    0    0  501    0 -0.00000000000E+00 -0.00000000000E+00 -0.24952697912E+01  0.24952697912E+01  0.00000000000E+00 0. -1.
          2    1    1    2  501    0  0.20387876135E+02  0.33376148722E+01  0.45472478389E+03  0.45519384250E+03  0.00000000000E+00 0. -1.
          1    1    1    2  502    0 -0.20387876135E+02 -0.33376148722E+01  0.44936756193E+02  0.49458237165E+02  0.00000000000E+00 0. -1.
</event>
<event>
 4    1  0.3664744E+003  0.2514805E+02  0.7546771E-02  0.1467154E+00
          2   -1    0    0  502    0  0.00000000000E+00  0.00000000000E+00  0.57561235301E+01  0.57561235301E+01  0.00000000000E+00 0. -1.
          1   -1    0    0  501    0 -0.00000000000E+00 -0.00000000000E+00 -0.26932090176E+03  0.26932090176E+03  0.00000000000E+00 0.  1.
          2    1    1    2  501    0 -0.17577158362E+02 -0.17985217949E+02 -0.25953812127E+02  0.36138966846E+02  0.00000000000E+00 0. -1.
          1    1    1    2  502    0  0.17577158362E+02  0.17985217949E+02 -0.23761096610E+03  0.23893805844E+03  0.00000000000E+00 0.  1.
</event>
<event>
 4    1  0.3664744E+003  0.4032747E+02  0.7546771E-02  0.1346577E+00
          2   -1    0    0  502    0  0.00000000000E+00  0.00000000000E+00  0.19342807573E+04  0.19342807573E+04  0.00000000000E+00 0.  1.
          1   -1    0    0  501    0 -0.00000000000E+00 -0.00000000000E+00 -0.12387561014E+01  0.12387561014E+01  0.00000000000E+00 0.  1.
          2    1    1    2  501    0 -0.30555805599E+02  0.26318199168E+02  0.15150543927E+04  0.15155910127E+04  0.00000000000E+00 0.  1.
          1    1    1    2  502    0  0.30555805599E+02 -0.26318199168E+02  0.41798760845E+03  0.41992850068E+03  0.00000000000E+00 0.  1.
</event>
<event>
 4    1  0.3664744E+003  0.9114055E+02  0.7546771E-02  0.1180114E+00
          2   -1    0    0  502    0  0.00000000000E+00  0.00000000000E+00  0.82515586993E+03  0.82515586993E+03  0.00000000000E+00 0.  1.
          1   -1    0    0  501    0 -0.00000000000E+00 -0.00000000000E+00 -0.12802426512E+02  0.12802426512E+02  0.00000000000E+00 0.  1.
          2    1    1    2  501    0 -0.63872650124E+02  0.65014493346E+02  0.59985561603E+03  0.60673994418E+03  0.00000000000E+00 0.  1.
          1    1    1    2  502    0  0.63872650124E+02 -0.65014493346E+02  0.21249782739E+03  0.23121835227E+03  0.00000000000E+00 0.  1.
</event>
<event>
 4    1  0.3664744E+003  0.2282139E+02  0.7546771E-02  0.1494753E+00
          2   -1    0    0  502    0  0.00000000000E+00  0.00000000000E+00  0.98912001137E+03  0.98912001137E+03  0.00000000000E+00 0.  1.
          1   -1    0    0  501    0 -0.00000000000E+00 -0.00000000000E+00 -0.79504995693E+02  0.79504995693E+02  0.00000000000E+00 0.  1.
          2    1    1    2  501    0  0.16106017921E+02 -0.16168235631E+02  0.98734775389E+03  0.98761146347E+03  0.00000000000E+00 0.  1.
          1    1    1    2  502    0 -0.16106017921E+02  0.16168235631E+02 -0.77732738212E+02  0.81013543600E+02  0.00000000000E+00 0.  1.
</event>
<event>
 4    1  0.3664744E+003  0.2263196E+02  0.7546771E-02  0.1497172E+00
          2   -1    0    0  502    0  0.00000000000E+00  0.00000000000E+00  0.87770024371E+03  0.87770024371E+03  0.00000000000E+00 0. -1.
          1   -1    0    0  501    0 -0.00000000000E+00 -0.00000000000E+00 -0.74490453644E+00  0.74490453644E+00  0.00000000000E+00 0. -1.
          2    1    1    2  501    0 -0.19322381929E+02 -0.11783520888E+02  0.64288119908E+03  0.64327944312E+03  0.00000000000E+00 0. -1.
          1    1    1    2  502    0  0.19322381929E+02  0.11783520888E+02  0.23407414010E+03  0.23516570513E+03  0.00000000000E+00 0. -1.
</event>
<event>
 4    1  0.3664744E+003  0.2176203E+02  0.7546771E-02  0.1508657E+00
          2   -1    0    0  502    0  0.00000000000E+00  0.00000000000E+00  0.17570023178E+04  0.17570023178E+04  0.00000000000E+00 0. -1.
          1   -1    0    0  501    0 -0.00000000000E+00 -0.00000000000E+00 -0.27040652326E+00  0.27040652326E+00  0.00000000000E+00 0.  1.
          2    1    1    2  501    0 -0.10627513434E+02  0.18990566356E+02  0.82868075845E+03  0.82896645594E+03  0.00000000000E+00 0. -1.
          1    1    1    2  502    0  0.10627513434E+02 -0.18990566356E+02  0.92805115283E+03  0.92830626839E+03  0.00000000000E+00 0.  1.
</event>
<event>
 4    1  0.3664744E+003  0.2063283E+02  0.7546771E-02  0.1524572E+00
          2   -1    0    0  502    0  0.00000000000E+00  0.00000000000E+00  0.30092495823E+03  0.30092495823E+03  0.00000000000E+00 0.  1.
          1   -1    0    0  501    0 -0.00000000000E+00 -0.00000000000E+00 -0.61435779244E+01  0.61435779244E+01  0.00000000000E+00 0.  1.
          2    1    1    2  501    0  0.11138539943E+02 -0.17367974329E+02  0.28209281351E+03  0.28284637003E+03  0.00000000000E+00 0.  1.
          1    1    1    2  502    0 -0.11138539943E+02  0.17367974329E+02  0.12688566789E+02  0.24222166120E+02  0.00000000000E+00 0.  1.
</event>
<event>
 4    1  0.3664744E+003  0.2439340E+02  0.7546771E-02  0.1475705E+00
          2   -1    0    0  502    0  0.00000000000E+00  0.00000000000E+00  0.97967270712E+03  0.97967270712E+03  0.00000000000E+00 0.  1.
          1   -1    0    0  501    0 -0.00000000000E+00 -0.00000000000E+00 -0.76146749930E+01  0.76146749930E+01  0.00000000000E+00 0. -1.
          2    1    1    2  501    0 -0.73586108743E+01 -0.23257016735E+02  0.95957588257E+03  0.95988588509E+03  0.00000000000E+00 0.  1.
          1    1    1    2  502    0  0.73586108743E+01  0.23257016735E+02  0.12482149549E+02  0.27401497017E+02  0.00000000000E+00 0. -1.
</event>
<event>
 4    1  0.3664744E+003  0.2234593E+02  0.7546771E-02  0.1500879E+00
          2   -1    0    0  502    0  0.00000000000E+00  0.00000000000E+00  0.66327483047E+02  0.66327483047E+02  0.00000000000E+00 0.  1.
          1   -1    0    0  501    0 -0.00000000000E+00 -0.00000000000E+00 -0.75973709113E+01  0.75973709113E+01  0.00000000000E+00 0.  1.
          2    1    1    2  501    0  0.85870359557E+01 -0.20630141067E+02  0.25843311700E+02  0.34164552779E+02  0.00000000000E+00 0.  1.
          1    1    1    2  502    0 -0.85870359557E+01  0.20630141067E+02  0.32886800436E+02  0.39760301179E+02  0.00000000000E+00 0.  1.
</event>
<event>
 4    1  0.3664744E+003  0.2436028E+02  0.7546771E-02  0.1476089E+00
          2   -1    0    0  502    0  0.00000000000E+00  0.00000000000E+00  0.70959000288E+03  0.70959000288E+03  0.00000000000E+00 0. -1.
          1   -1    0    0  501    0 -0.00000000000E+00 -0.00000000000E+00 -0.11196497599E+01  0.11196497599E+01  0.00000000000E+00 0.  1.
          2    1    1    2  501    0  0.97352606117E+01 -0.22330423433E+02  0.53300331481E+03  0.53355970304E+03  0.00000000000E+00 0. -1.
          1    1    1    2  502    0 -0.97352606117E+01  0.22330423433E+02  0.17546703831E+03  0.17714994960E+03  0.00000000000E+00 0.  1.
</event>
<event>
 4    1  0.3664744E+003  0.2503874E+02  0.7546771E-02  0.1468370E+00
          2   -1    0    0  502    0  0.00000000000E+00  0.00000000000E+00  0.39320224119E+01  0.39320224119E+01  0.00000000000E+00 0.  1.
          1   -1    0    0  501    0 -0.00000000000E+00 -0.00000000000E+00 -0.24295672937E+03  0.24295672937E+03  0.00000000000E+00 0. -1.
          2    1    1    2  501    0  0.19088172073E+02  0.16204326903E+02 -0.47138378553E+02  0.53375699115E+02  0.00000000000E+00 0.  1.
          1    1    1    2  502    0 -0.19088172073E+02 -0.16204326903E+02 -0.19188632841E+03  0.19351305267E+03  0.00000000000E+00 0. -1.
</event>
<event>
 4    1  0.3664744E+003  0.2200512E+02  0.7546771E-02  0.1505384E+00
          2   -1    0    0  502    0  0.00000000000E+00  0.00000000000E+00  0.17260272194E+04  0.17260272194E+04  0.00000000000E+00 0. -1.
          1   -1    0    0  501    0 -0.00000000000E+00 -0.00000000000E+00 -0.49849207379E+00  0.49849207379E+00  0.00000000000E+00 0. -1.
          2    1    1    2  501    0 -0.54525378584E+01  0.21318888166E+02  0.14335739555E+04  0.14337428330E+04  0.00000000000E+00 0. -1.
          1    1    1    2  502    0  0.54525378584E+01 -0.21318888166E+02  0.29195477185E+03  0.29278287855E+03  0.00000000000E+00 0. -1.
</event>
<event>
 4    1  0.3664744E+003  0.3159328E+02  0.7546771E-02  0.1406238E+00
          2   -1    0    0  502    0  0.00000000000E+00  0.00000000000E+00  0.17989059490E+01  0.17989059490E+01  0.00000000000E+00 0.  1.
          1   -1    0    0  501    0 -0.00000000000E+00 -0.00000000000E+00 -0.22741204613E+04  0.22741204613E+04  0.00000000000E+00 0. -1.
          2    1    1    2  501    0  0.18875712434E+02 -0.25334611142E+02 -0.14671637515E+03  0.15007941157E+03  0.00000000000E+00 0.  1.
          1    1    1    2  502    0 -0.18875712434E+02  0.25334611142E+02 -0.21256051802E+04  0.21258399557E+04  0.00000000000E+00 0. -1.
</event>
<event>
 4    1  0.3664744E+003  0.3445548E+02  0.7546771E-02  0.1384432E+00
          2   -1    0    0  502    0  0.00000000000E+00  0.00000000000E+00  0.38124103502E+03  0.38124103502E+03  0.00000000000E+00 0.  1.
          1   -1    0    0  501    0 -0.00000000000E+00 -0.00000000000E+00 -0.94854910837E+01  0.94854910837E+01  0.00000000000E+00 0.  1.
          2    1    1    2  501    0 -0.15139512503E+02  0.30951179963E+02  0.34599346740E+03  0.34770484591E+03  0.00000000000E+00 0.  1.
          1    1    1    2  502    0  0.15139512503E+02 -0.30951179963E+02  0.25762076535E+02  0.43021680201E+02  0.00000000000E+00 0.  1.
</event>
<event>
 4    1  0.3664744E+003  0.2254929E+02  0.7546771E-02  0.1498237E+00
          2   -1    0    0  502    0  0.00000000000E+00  0.00000000000E+00  0.33043947723E+02  0.33043947723E+02  0.00000000000E+00 0. -1.
          1   -1    0    0  501    0 -0.00000000000E+00 -0.00000000000E+00 -0.76736906556E+02  0.76736906556E+02  0.00000000000E+00 0.  1.
          2    1    1    2  501    0  0.37069467888E+01 -0.22242504105E+02  0.27232885239E+02  0.35356760058E+02  0.00000000000E+00 0. -1.
          1    1    1    2  502    0 -0.37069467888E+01  0.22242504105E+02 -0.70925844072E+02  0.74424094221E+02  0.00000000000E+00 0.  1.
</event>
<event>
 4    1  0.3664744E+003  0.2449723E+02  0.7546771E-02  0.1474507E+00
          2   -1    0    0  502    0  0.00000000000E+00  0.00000000000E+00  0.21721551875E+03  0.21721551875E+03  0.00000000000E+00 0. -1.
          1   -1    0    0  501    0 -0.00000000000E+00 -0.00000000000E+00 -0.12725709056E+02  0.12725709056E+02  0.00000000000E+00 0.  1.
          2    1    1    2  501    0 -0.18836165949E+02  0.15662476590E+02  0.20397274243E+03  0.20543854062E+03  0.00000000000E+00 0. -1.
          1    1    1    2  502    0  0.18836165949E+02 -0.15662476590E+02  0.51706726650E+00  0.24502687182E+02  0.00000000000E+00 0.  1.
</event>
<event>
 4    1  0.3664744E+003  0.2502478E+02  0.7546771E-02  0.1468526E+00
          2   -1    0    0  502    0  0.00000000000E+00  0.00000000000E+00  0.34365975662E+03  0.34365975662E+03  0.00000000000E+00 0. -1.
          1   -1    0    0  501    0 -0.00000000000E+00 -0.00000000000E+00 -0.94415560692E+01  0.94415560692E+01  0.00000000000E+00 0. -1.
          2    1    1    2  501    0  0.24271384274E+02 -0.60942169895E+01  0.32570968894E+03  0.32666962063E+03  0.00000000000E+00 0. -1.
          1    1    1    2  502    0 -0.24271384274E+02  0.60942169895E+01  0.85085116156E+01  0.26431692061E+02  0.00000000000E+00 0. -1.
</event>
<event>
 4    1  0.3664744E+003  0.4184116E+02  0.7546771E-02  0.1338022E+00
          2   -1    0    0  502    0  0.00000000000E+00  0.00000000000E+00  0.20907898888E+03  0.20907898888E+03  0.00000000000E+00 0.  1.
          1   -1    0    0  501    0 -0.00000000000E+00 -0.00000000000E+00 -0.86424506176E+02  0.86424506176E+02  0.00000000000E+00 0. -1.
          2    1    1    2  501    0  0.30378354658E+02 -0.28772176663E+02  0.20173915637E+03  0.20603244840E+03  0.00000000000E+00 0.  1.
          1    1    1    2  502    0 -0.30378354658E+02  0.28772176663E+02 -0.79084673663E+02  0.89471046658E+02  0.00000000000E+00 0. -1.
</event>
<event>
 4    1  0.4910346E+003  0.3103367E+02  0.7546771E-02  0.1410821E+00
          2   -1    0    0  502    0  0.00000000000E+00  0.00000000000E+00  0.69857914330E+03  0.69857914330E+03  0.00000000000E+00 0. -1.
          1   -1    0    0  501    0 -0.00000000000E+00 -0.00000000000E+00 -0.13513847417E+04  0.13513847417E+04  0.00000000000E+00 0.  1.
          2    1    1    2  501    0 -0.20091519633E+02  0.23652057297E+02  0.69805618289E+03  0.69874567866E+03  0.00000000000E+00 0. -1.
          1    1    1    2  502    0  0.20091519633E+02 -0.23652057297E+02 -0.13508617813E+04  0.13512182063E+04  0.00000000000E+00 0.  1.
</event>
<event>
 4    1  0.3664744E+003  0.1312690E+03  0.7546771E-02  0.1118529E+00
          2   -1    0    0  502    0  0.00000000000E+00  0.00000000000E+00  0.82304270058E+02  0.82304270058E+02  0.00000000000E+00 0.  1.
          1   -1    0    0  501    0 -0.00000000000E+00 -0.00000000000E+00 -0.17140558811E+04  0.17140558811E+04  0.00000000000E+00 0.  1.
          2    1    1    2  501    0  0.12734305414E+03 -0.31863910833E+02  0.25664067271E+02  0.13375427694E+03  0.00000000000E+00 0.  1.
          1    1    1    2  502    0 -0.12734305414E+03  0.31863910833E+02 -0.16574156783E+04  0.16626058742E+04  0.00000000000E+00 0.  1.
</event>
<event>
 4    1  0.3664744E+003  0.3336779E+02  0.7546771E-02  0.1392416E+00
          2   -1    0    0  502    0  0.00000000000E+00  0.00000000000E+00  0.53850635339E+02  0.53850635339E+02  0.00000000000E+00 0.  1.
          1   -1    0    0  501    0 -0.00000000000E+00 -0.00000000000E+00 -0.47902162689E+02  0.47902162689E+02  0.00000000000E+00 0. -1.
          2    1    1    2  501    0 -0.32893553528E+02 -0.56056784282E+01  0.41330204197E+02  0.53118690433E+02  0.00000000000E+00 0.  1.
          1    1    1    2  502    0  0.32893553528E+02  0.56056784282E+01 -0.35381731547E+02  0.48634107595E+02  0.00000000000E+00 0. -1.
</event>
<event>
 4    1  0.3664744E+003  0.2817245E+02  0.7546771E-02  0.1436173E+00
          2   -1    0    0  502    0  0.00000000000E+00  0.00000000000E+00  0.61268517276E+02  0.61268517276E+02  0.00000000000E+00 0.  1.
          1   -1    0    0  501    0 -0.00000000000E+00 -0.00000000000E+00 -0.78693332025E+02  0.78693332025E+02  0.00000000000E+00 0. -1.
          2    1    1    2  501    0  0.23236006458E+02 -0.15930306550E+02  0.55249673214E+02  0.62017844635E+02  0.00000000000E+00 0.  1.
          1    1    1    2  502    0 -0.23236006458E+02  0.15930306550E+02 -0.72674487963E+02  0.77944004667E+02  0.00000000000E+00 0. -1.
</event>
<event>
 4    1  0.3664744E+003  0.2058239E+02  0.7546771E-02  0.1525312E+00
          2   -1    0    0  502    0  0.00000000000E+00  0.00000000000E+00  0.21990191237E+02  0.21990191237E+02  0.00000000000E+00 0. -1.
          1   -1    0    0  501    0 -0.00000000000E+00 -0.00000000000E+00 -0.47572838963E+03  0.47572838963E+03  0.00000000000E+00 0.  1.
          2    1    1    2  501    0 -0.16384273163E+02  0.12457541729E+02  0.16899316769E+02  0.26631215899E+02  0.00000000000E+00 0. -1.
          1    1    1    2  502    0  0.16384273163E+02 -0.12457541729E+02 -0.47063751517E+03  0.47108736497E+03  0.00000000000E+00 0.  1.
</event>
<event>
 4    1  0.3664744E+003  0.1537816E+03  0.7546771E-02  0.1093803E+00
          2   -1    0    0  502    0  0.00000000000E+00  0.00000000000E+00  0.67272497591E+03  0.67272497591E+03  0.00000000000E+00 0.  1.
          1   -1    0    0  501    0 -0.00000000000E+00 -0.00000000000E+00 -0.34380983141E+03  0.34380983141E+03  0.00000000000E+00 0.  1.
          2    1    1    2  501    0  0.30005840891E+02  0.15082583833E+03  0.64603991416E+03  0.66409062234E+03  0.00000000000E+00 0.  1.
          1    1    1    2  502    0 -0.30005840891E+02 -0.15082583833E+03 -0.31712476966E+03  0.35244418498E+03  0.00000000000E+00 0.  1.
</event>
<event>
 4    1  0.3664744E+003  0.2214338E+02  0.7546771E-02  0.1503544E+00
          2   -1    0    0  502    0  0.00000000000E+00  0.00000000000E+00  0.22472887560E+02  0.22472887560E+02  0.00000000000E+00 0.  1.
          1   -1    0    0  501    0 -0.00000000000E+00 -0.00000000000E+00 -0.89542162352E+02  0.89542162352E+02  0.00000000000E+00 0.  1.
          2    1    1    2  501    0 -0.18021294446E+01  0.22069924425E+02  0.15173571798E+02  0.26843370053E+02  0.00000000000E+00 0.  1.
          1    1    1    2  502    0  0.18021294446E+01 -0.22069924425E+02 -0.82242846590E+02  0.85171679859E+02  0.00000000000E+00 0.  1.
</event>
<event>
 4    1  0.3664744E+003  0.2505674E+02  0.7546771E-02  0.1468170E+00
          2   -1    0    0  502    0  0.00000000000E+00  0.00000000000E+00  0.20967617292E+03  0.20967617292E+03  0.00000000000E+00 0.  1.
          1   -1    0    0  501    0 -0.00000000000E+00 -0.00000000000E+00 -0.96909741982E+01  0.96909741982E+01  0.00000000000E+00 0.  1.
          2    1    1    2  501    0 -0.25044413539E+02  0.78582524256E+00  0.19116983179E+03  0.19280493966E+03  0.00000000000E+00 0.  1.
          1    1    1    2  502    0  0.25044413539E+02 -0.78582524256E+00  0.88153669291E+01  0.26562207455E+02  0.00000000000E+00 0.  1.
</event>
<event>
 4    1  0.3664744E+003  0.7425434E+02  0.7546771E-02  0.1217854E+00
          2   -1    0    0  502    0  0.00000000000E+00  0.00000000000E+00  0.12620085113E+04  0.12620085113E+04  0.00000000000E+00 0. -1.
          1   -1    0    0  501    0 -0.00000000000E+00 -0.00000000000E+00 -0.33008365562E+02  0.33008365562E+02  0.00000000000E+00 0. -1.
          2    1    1    2  501    0  0.47933412770E+02 -0.56710624661E+02  0.12176359570E+04  0.12198979592E+04  0.00000000000E+00 0. -1.
          1    1    1    2  502    0 -0.47933412770E+02  0.56710624661E+02  0.11364188736E+02  0.75118917690E+02  0.00000000000E+00 0. -1.
</event>
<event>
 4    1  0.3664744E+003  0.2048693E+02  0.7546771E-02  0.1526718E+00
          2   -1    0    0  502    0  0.00000000000E+00  0.00000000000E+00  0.14679409802E+01  0.14679409802E+01  0.00000000000E+00 0. -1.
          1   -1    0    0  501    0 -0.00000000000E+00 -0.00000000000E+00 -0.29170850789E+03  0.29170850789E+03  0.00000000000E+00 0. -1.
          2    1    1    2  501    0  0.48460080009E+01 -0.19905542533E+02 -0.12447175322E+03  0.12614646950E+03  0.00000000000E+00 0. -1.
          1    1    1    2  502    0 -0.48460080009E+01  0.19905542533E+02 -0.16576881368E+03  0.16702997937E+03  0.00000000000E+00 0. -1.
</event>
<event>
 4    1  0.3664744E+003  0.2122935E+02  0.7546771E-02  0.1516015E+00
          2   -1    0    0  502    0  0.00000000000E+00  0.00000000000E+00  0.78773766898E+03  0.78773766898E+03  0.00000000000E+00 0.  1.
          1   -1    0    0  501    0 -0.00000000000E+00 -0.00000000000E+00 -0.83966823569E+02  0.83966823569E+02  0.00000000000E+00 0. -1.
          2    1    1    2  501    0 -0.21113748617E+02  0.22124598231E+01  0.78625024393E+03  0.78653679598E+03  0.00000000000E+00 0.  1.
          1    1    1    2  502    0  0.21113748617E+02 -0.22124598231E+01 -0.82479398515E+02  0.85167696567E+02  0.00000000000E+00 0. -1.
</event>
<event>
 4    1  0.3664744E+003  0.3230702E+02  0.7546771E-02  0.1400553E+00
          2   -1    0    0  502    0  0.00000000000E+00  0.00000000000E+00  0.20725748882E+03  0.20725748882E+03  0.00000000000E+00 0.  1.
          1   -1    0    0  501    0 -0.00000000000E+00 -0.00000000000E+00 -0.50760099555E+03  0.50760099555E+03  0.00000000000E+00 0. -1.
          2    1    1    2  501    0  0.13365501783E+02 -0.29412694832E+02  0.20548001885E+03  0.20800428218E+03  0.00000000000E+00 0.  1.
          1    1    1    2  502    0 -0.13365501783E+02  0.29412694832E+02 -0.50582352558E+03  0.50685420220E+03  0.00000000000E+00 0. -1.
</event>
<event>
 4    1  0.3664744E+003  0.2929400E+02  0.7546771E-02  0.1425832E+00
          2   -1    0    0  502    0  0.00000000000E+00  0.00000000000E+00  0.69415791017E+03  0.69415791017E+03  0.00000000000E+00 0.  1.
          1   -1    0    0  501    0 -0.00000000000E+00 -0.00000000000E+00 -0.92601580401E+02  0.92601580401E+02  0.00000000000E+00 0.  1.
          2    1    1    2  501    0  0.18149624284E+02  0.22994118187E+02  0.69152328163E+03  0.69214347311E+03  0.00000000000E+00 0.  1.
          1    1    1    2  502    0 -0.18149624284E+02 -0.22994118187E+02 -0.89966951861E+02  0.94616017460E+02  0.00000000000E+00 0.  1.
</event>
<event>
 4    1  0.3664744E+003  0.1912543E+03  0.7546771E-02  0.1061516E+00
          2   -1    0    0  502    0  0.00000000000E+00  0.00000000000E+00  0.11620023104E+04  0.11620023104E+04  0.00000000000E+00 0.  1.
          1   -1    0    0  501    0 -0.00000000000E+00 -0.00000000000E+00 -0.66266020016E+02  0.66266020016E+02  0.00000000000E+00 0.  1.
          2    1    1    2  501    0 -0.43053633281E+02 -0.18634533191E+03  0.99283633763E+03  0.10110896060E+04  0.00000000000E+00 0.  1.
          1    1    1    2  502    0  0.43053633281E+02  0.18634533191E+03  0.10289995279E+03  0.21717872444E+03  0.00000000000E+00 0.  1.
</event>
<event>
 4    1  0.3664744E+003  0.2419632E+02  0.7546771E-02  0.1477999E+00
          2   -1    0    0  502    0  0.00000000000E+00  0.00000000000E+00  0.13458305612E+04  0.13458305612E+04  0.00000000000E+00 0. -1.
          1   -1    0    0  501    0 -0.00000000000E+00 -0.00000000000E+00 -0.45894844655E+00  0.45894844655E+00  0.00000000000E+00 0.  1.
          2    1    1    2  501    0  0.24002654812E+02 -0.30551198331E+01  0.51897749317E+03  0.51954123957E+03  0.00000000000E+00 0. -1.
          1    1    1    2  502    0 -0.24002654812E+02  0.30551198331E+01  0.82639411962E+03  0.82674827012E+03  0.00000000000E+00 0.  1.
</event>
<event>
 4    1  0.3664744E+003  0.2684837E+02  0.7546771E-02  0.1449137E+00
          2   -1    0    0  502    0  0.00000000000E+00  0.00000000000E+00  0.49661782499E+02  0.49661782499E+02  0.00000000000E+00 0.  1.
          1   -1    0    0  501    0 -0.00000000000E+00 -0.00000000000E+00 -0.12811383158E+03  0.12811383158E+03  0.00000000000E+00 0.  1.
          2    1    1    2  501    0  0.20694034061E+02  0.17105326466E+02  0.44475106577E+02  0.51950652973E+02  0.00000000000E+00 0.  1.
          1    1    1    2  502    0 -0.20694034061E+02 -0.17105326466E+02 -0.12292715566E+03  0.12582496111E+03  0.00000000000E+00 0.  1.
</event>
<event>
 4    1  0.3664744E+003  0.2177864E+02  0.7546771E-02  0.1508432E+00
          2   -1    0    0  502    0  0.00000000000E+00  0.00000000000E+00  0.94875697126E+00  0.94875697126E+00  0.00000000000E+00 0. -1.
          1   -1    0    0  501    0 -0.00000000000E+00 -0.00000000000E+00 -0.58542350190E+03  0.58542350190E+03  0.00000000000E+00 0. -1.
          2    1    1    2  501    0 -0.21645486726E+02  0.24046282789E+01 -0.18019501669E+03  0.18150634527E+03  0.00000000000E+00 0. -1.
          1    1    1    2  502    0  0.21645486726E+02 -0.24046282789E+01 -0.40427972824E+03  0.40486591360E+03  0.00000000000E+00 0. -1.
</event>
<event>
 4    1  0.3664744E+003  0.4573282E+02  0.7546771E-02  0.1317815E+00
          2   -1    0    0  502    0  0.00000000000E+00  0.00000000000E+00  0.11748687594E+02  0.11748687594E+02  0.00000000000E+00 0.  1.
          1   -1    0    0  501    0 -0.00000000000E+00 -0.00000000000E+00 -0.18136962281E+03  0.18136962281E+03  0.00000000000E+00 0.  1.
          2    1    1    2  501    0 -0.26517846000E+02  0.37259794264E+02 -0.97934899898E+02  0.10808669226E+03  0.00000000000E+00 0.  1.
          1    1    1    2  502    0  0.26517846000E+02 -0.37259794264E+02 -0.71686035319E+02  0.85031618148E+02  0.00000000000E+00 0.  1.
</event>
<event>
 4    1  0.3664744E+003  0.2437766E+02  0.7546771E-02  0.1475887E+00
          2   -1    0    0  502    0  0.00000000000E+00  0.00000000000E+00  0.10773244484E+02  0.10773244484E+02  0.00000000000E+00 0.  1.
          1   -1    0    0  501    0 -0.00000000000E+00 -0.00000000000E+00 -0.97253112607E+02  0.97253112607E+02  0.00000000000E+00 0.  1.
          2    1    1    2  501    0  0.22518797287E+02 -0.93366721292E+01 -0.78774017283E+02  0.82459780964E+02  0.00000000000E+00 0.  1.
          1    1    1    2  502    0 -0.22518797287E+02  0.93366721292E+01 -0.77058508395E+01  0.25566576127E+02  0.00000000000E+00 0.  1.
</event>
<event>
 4    1  0.3664744E+003  0.2477807E+02  0.7546771E-02  0.1471302E+00
          2   -1    0    0  502    0  0.00000000000E+00  0.00000000000E+00  0.63353492683E+03  0.63353492683E+03  0.00000000000E+00 0. -1.
          1   -1    0    0  501    0 -0.00000000000E+00 -0.00000000000E+00 -0.10239492431E+01  0.10239492431E+01  0.00000000000E+00 0. -1.
          2    1    1    2  501    0  0.24402216482E+02  0.42993534863E+01  0.38969437352E+03  0.39048131500E+03  0.00000000000E+00 0. -1.
          1    1    1    2  502    0 -0.24402216482E+02 -0.42993534863E+01  0.24281660406E+03  0.24407756107E+03  0.00000000000E+00 0. -1.
</event>
<event>
 4    1  0.3664744E+003  0.2004696E+02  0.7546771E-02  0.1533319E+00
          2   -1    0    0  502    0  0.00000000000E+00  0.00000000000E+00  0.12743130126E+02  0.12743130126E+02  0.00000000000E+00 0.  1.
          1   -1    0    0  501    0 -0.00000000000E+00 -0.00000000000E+00 -0.15893001656E+03  0.15893001656E+03  0.00000000000E+00 0.  1.
          2    1    1    2  501    0  0.16931988666E+00  0.20046249536E+02  0.37562477498E+01  0.20395837488E+02  0.00000000000E+00 0.  1.
          1    1    1    2  502    0 -0.16931988666E+00 -0.20046249536E+02 -0.14994313418E+03  0.15127730919E+03  0.00000000000E+00 0.  1.
</event>
<event>
 4    1  0.3664744E+003  0.2071344E+02  0.7546771E-02  0.1523396E+00
          2   -1    0    0  502    0  0.00000000000E+00  0.00000000000E+00  0.12837246327E+01  0.12837246327E+01  0.00000000000E+00 0. -1.
          1   -1    0    0  501    0 -0.00000000000E+00 -0.00000000000E+00 -0.43419189348E+03  0.43419189348E+03  0.00000000000E+00 0. -1.
          2    1    1    2  501    0  0.14149974503E+02  0.15126955684E+02 -0.11197442478E+03  0.11387413390E+03  0.00000000000E+00 0. -1.
          1    1    1    2  502    0 -0.14149974503E+02 -0.15126955684E+02 -0.32093374406E+03  0.32160148421E+03  0.00000000000E+00 0. -1.
</event>
<event>
 4    1  0.3664744E+003  0.3841926E+02  0.7546771E-02  0.1358006E+00
          2   -1    0    0  502    0  0.00000000000E+00  0.00000000000E+00  0.39439704000E+03  0.39439704000E+03  0.00000000000E+00 0.  1.
          1   -1    0    0  501    0 -0.00000000000E+00 -0.00000000000E+00 -0.38035031041E+01  0.38035031041E+01  0.00000000000E+00 0. -1.
          2    1    1    2  501    0  0.29053656729E+02 -0.25138110892E+02  0.22050705024E+03  0.22382894986E+03  0.00000000000E+00 0.  1.
          1    1    1    2  502    0 -0.29053656729E+02  0.25138110892E+02  0.17008648665E+03  0.17437159324E+03  0.00000000000E+00 0. -1.
</event>
<event>
 4    1  0.3664744E+003  0.2132628E+02  0.7546771E-02  0.1514657E+00
          2   -1    0    0  502    0  0.00000000000E+00  0.00000000000E+00  0.55604030119E+02  0.55604030119E+02  0.00000000000E+00 0.  1.
          1   -1    0    0  501    0 -0.00000000000E+00 -0.00000000000E+00 -0.32391072093E+02  0.32391072093E+02  0.00000000000E+00 0.  1.
          2    1    1    2  501    0  0.11920322228E+02  0.17683782476E+02  0.49645366685E+02  0.54032144858E+02  0.00000000000E+00 0.  1.
          1    1    1    2  502    0 -0.11920322228E+02 -0.17683782476E+02 -0.26432408660E+02  0.33962957354E+02  0.00000000000E+00 0.  1.
</event>
<event>
 4    1  0.3664744E+003  0.4965349E+02  0.7546771E-02  0.1299682E+00
          2   -1    0    0  502    0  0.00000000000E+00  0.00000000000E+00  0.28554904031E+03  0.28554904031E+03  0.00000000000E+00 0. -1.
          1   -1    0    0  501    0 -0.00000000000E+00 -0.00000000000E+00 -0.88087870396E+02  0.88087870396E+02  0.00000000000E+00 0. -1.
          2    1    1    2  501    0 -0.48499613322E+02  0.10642224146E+02  0.27615724490E+03  0.28058562568E+03  0.00000000000E+00 0. -1.
          1    1    1    2  502    0  0.48499613322E+02 -0.10642224146E+02 -0.78696074985E+02  0.93051285027E+02  0.00000000000E+00 0. -1.
</event>
<event>
 4    1  0.3664744E+003  0.4408962E+02  0.7546771E-02  0.1326055E+00
          2   -1    0    0  502    0  0.00000000000E+00  0.00000000000E+00  0.82306483218E+03  0.82306483218E+03  0.00000000000E+00 0. -1.
          1   -1    0    0  501    0 -0.00000000000E+00 -0.00000000000E+00 -0.21820229506E+03  0.21820229506E+03  0.00000000000E+00 0. -1.
          2    1    1    2  501    0 -0.24192362708E+02  0.36859521154E+02  0.82023955200E+03  0.82142365280E+03  0.00000000000E+00 0. -1.
          1    1    1    2  502    0  0.24192362708E+02 -0.36859521154E+02 -0.21537701488E+03  0.21984347444E+03  0.00000000000E+00 0. -1.
</event>
<event>
 4    1  0.3664744E+003  0.2341924E+02  0.7546771E-02  0.1487300E+00
          2   -1    0    0  502    0  0.00000000000E+00  0.00000000000E+00  0.38819594473E+03  0.38819594473E+03  0.00000000000E+00 0. -1.
          1   -1    0    0  501    0 -0.00000000000E+00 -0.00000000000E+00 -0.10911980828E+02  0.10911980828E+02  0.00000000000E+00 0.  1.
          2    1    1    2  501    0 -0.10462261303E+02 -0.20952375191E+02  0.37482951351E+03  0.37556041477E+03  0.00000000000E+00 0. -1.
          1    1    1    2  502    0  0.10462261303E+02  0.20952375191E+02  0.24544503869E+01  0.23547510790E+02  0.00000000000E+00 0.  1.
</event>
<event>
 4    1  0.3664744E+003  0.1063092E+03  0.7546771E-02  0.1153302E+00
          2   -1    0    0  502    0  0.00000000000E+00  0.00000000000E+00  0.38504316425E+02  0.38504316425E+02  0.00000000000E+00 0.  1.
          1   -1    0    0  501    0 -0.00000000000E+00 -0.00000000000E+00 -0.44730398665E+03  0.44730398665E+03  0.00000000000E+00 0. -1.
          2    1    1    2  501    0  0.10444183276E+03 -0.19837842314E+02 -0.61972079358E+02  0.12305354541E+03  0.00000000000E+00 0.  1.
          1    1    1    2  502    0 -0.10444183276E+03  0.19837842314E+02 -0.34682759087E+03  0.36275475766E+03  0.00000000000E+00 0. -1.
</event>
<event>
 4    1  0.3664744E+003  0.3916235E+02  0.7546771E-02  0.1353466E+00
          2   -1    0    0  502    0  0.00000000000E+00  0.00000000000E+00  0.26419803754E+04  0.26419803754E+04  0.00000000000E+00 0.  1.
          1   -1    0    0  501    0 -0.00000000000E+00 -0.00000000000E+00 -0.63647714271E+01  0.63647714271E+01  0.00000000000E+00 0. -1.
          2    1    1    2  501    0  0.26885431412E+02  0.28475655904E+02  0.25801503869E+04  0.25804475791E+04  0.00000000000E+00 0.  1.
          1    1    1    2  502    0 -0.26885431412E+02 -0.28475655904E+02  0.55465217132E+02  0.67897567798E+02  0.00000000000E+00 0. -1.
</event>
<event>
 4    1  0.3664744E+003  0.2662346E+02  0.7546771E-02  0.1451428E+00
          2   -1    0    0  502    0  0.00000000000E+00  0.00000000000E+00  0.19897525191E+03  0.19897525191E+03  0.00000000000E+00 0. -1.
          1   -1    0    0  501    0 -0.00000000000E+00 -0.00000000000E+00 -0.94174163686E+02  0.94174163686E+02  0.00000000000E+00 0.  1.
          2    1    1    2  501    0  0.21114092458E+02  0.16217384297E+02  0.19617631193E+03  0.19797462922E+03  0.00000000000E+00 0. -1.
          1    1    1    2  502    0 -0.21114092458E+02 -0.16217384297E+02 -0.91375223706E+02  0.95174786373E+02  0.00000000000E+00 0.  1.
</event>
<event>
 4    1  0.3664744E+003  0.2476061E+02  0.7546771E-02  0.1471499E+00
          2   -1    0    0  502    0  0.00000000000E+00  0.00000000000E+00  0.10378536373E+04  0.10378536373E+04  0.00000000000E+00 0. -1.
          1   -1    0    0  501    0 -0.00000000000E+00 -0.00000000000E+00 -0.59631992422E+00  0.59631992422E+00  0.00000000000E+00 0. -1.
          2    1    1    2  501    0  0.12052122606E+02  0.21629468910E+02  0.56891581949E+03  0.56945438557E+03  0.00000000000E+00 0. -1.
          1    1    1    2  502    0 -0.12052122606E+02 -0.21629468910E+02  0.46834149789E+03  0.46899557165E+03  0.00000000000E+00 0. -1.
</event>
<event>
 4    1  0.3664744E+003  0.2375685E+02  0.7546771E-02  0.1483207E+00
          2   -1    0    0  502    0  0.00000000000E+00  0.00000000000E+00  0.29641689716E+02  0.29641689716E+02  0.00000000000E+00 0.  1.
          1   -1    0    0  501    0 -0.00000000000E+00 -0.00000000000E+00 -0.45513581543E+02  0.45513581543E+02  0.00000000000E+00 0.  1.
          2    1    1    2  501    0 -0.23267749850E+02 -0.47958137690E+01  0.20723148355E+02  0.31525178676E+02  0.00000000000E+00 0.  1.
          1    1    1    2  502    0  0.23267749850E+02  0.47958137690E+01 -0.36595040183E+02  0.43630092583E+02  0.00000000000E+00 0.  1.
</event>
<event>
 4    1  0.3664744E+003  0.2294720E+02  0.7546771E-02  0.1493162E+00
          2   -1    0    0  502    0  0.00000000000E+00  0.00000000000E+00  0.60429474821E+02  0.60429474821E+02  0.00000000000E+00 0. -1.
          1   -1    0    0  501    0 -0.00000000000E+00 -0.00000000000E+00 -0.13414986995E+02  0.13414986995E+02  0.00000000000E+00 0. -1.
          2    1    1    2  501    0  0.16328918825E+02  0.16122664503E+02  0.45364410430E+02  0.50838013675E+02  0.00000000000E+00 0. -1.
          1    1    1    2  502    0 -0.16328918825E+02 -0.16122664503E+02  0.16500773961E+01  0.23006448142E+02  0.00000000000E+00 0. -1.
</event>
<event>
 4    1  0.3664744E+003  0.2453101E+02  0.7546771E-02  0.1474119E+00
          2   -1    0    0  502    0  0.00000000000E+00  0.00000000000E+00  0.48594662987E+01  0.48594662987E+01  0.00000000000E+00 0.  1.
          1   -1    0    0  501    0 -0.00000000000E+00 -0.00000000000E+00 -0.99964001360E+03  0.99964001360E+03  0.00000000000E+00 0.  1.
          2    1    1    2  501    0  0.16192213215E+02  0.18427766087E+02 -0.27277876697E+02  0.36685867699E+02  0.00000000000E+00 0.  1.
          1    1    1    2  502    0 -0.16192213215E+02 -0.18427766087E+02 -0.96750267061E+03  0.96781361220E+03  0.00000000000E+00 0.  1.
</event>
<event>
 4    1  0.3664744E+003  0.2050998E+02  0.7546771E-02  0.1526377E+00
          2   -1    0    0  502    0  0.00000000000E+00  0.00000000000E+00  0.26437397200E+03  0.26437397200E+03  0.00000000000E+00 0.  1.
          1   -1    0    0  501    0 -0.00000000000E+00 -0.00000000000E+00 -0.72265983228E+01  0.72265983228E+01  0.00000000000E+00 0.  1.
          2    1    1    2  501    0  0.87875834900E+01 -0.18532076298E+02  0.24849540406E+03  0.24934038043E+03  0.00000000000E+00 0.  1.
          1    1    1    2  502    0 -0.87875834900E+01  0.18532076298E+02  0.86519696111E+01  0.22260189884E+02  0.00000000000E+00 0.  1.
</event>
<event>
 4    1  0.3664744E+003  0.2351668E+02  0.7546771E-02  0.1486110E+00
          2   -1    0    0  502    0  0.00000000000E+00  0.00000000000E+00  0.18486707854E+03  0.18486707854E+03  0.00000000000E+00 0.  1.
          1   -1    0    0  501    0 -0.00000000000E+00 -0.00000000000E+00 -0.14593080474E+04  0.14593080474E+04  0.00000000000E+00 0.  1.
          2    1    1    2  501    0  0.16331225376E+02 -0.16921145730E+02  0.18402402302E+03  0.18552055181E+03  0.00000000000E+00 0.  1.
          1    1    1    2  502    0 -0.16331225376E+02  0.16921145730E+02 -0.14584649919E+04  0.14586545741E+04  0.00000000000E+00 0.  1.
</event>
<event>
 4    1  0.3664744E+003  0.2509922E+02  0.7546771E-02  0.1467696E+00
          2   -1    0    0  502    0  0.00000000000E+00  0.00000000000E+00  0.19787123153E+02  0.19787123153E+02  0.00000000000E+00 0.  1.
          1   -1    0    0  501    0 -0.00000000000E+00 -0.00000000000E+00 -0.13140444196E+03  0.13140444196E+03  0.00000000000E+00 0.  1.
          2    1    1    2  501    0 -0.24456647671E+02  0.56430009108E+01  0.99950368700E+01  0.27016140299E+02  0.00000000000E+00 0.  1.
          1    1    1    2  502    0  0.24456647671E+02 -0.56430009108E+01 -0.12161235567E+03  0.12417542481E+03  0.00000000000E+00 0.  1.
</event>
<event>
 4    1  0.3664744E+003  0.6539552E+02  0.7546771E-02  0.1242526E+00
          2   -1    0    0  502    0  0.00000000000E+00  0.00000000000E+00  0.23709267780E+03  0.23709267780E+03  0.00000000000E+00 0.  1.
          1   -1    0    0  501    0 -0.00000000000E+00 -0.00000000000E+00 -0.28293190465E+03  0.28293190465E+03  0.00000000000E+00 0. -1.
          2    1    1    2  501    0 -0.56466187213E+02  0.32987024949E+02  0.22866800120E+03  0.23783529782E+03  0.00000000000E+00 0.  1.
          1    1    1    2  502    0  0.56466187213E+02 -0.32987024949E+02 -0.27450722805E+03  0.28218928464E+03  0.00000000000E+00 0. -1.
</event>
<event>
 4    1  0.3664744E+003  0.2290467E+02  0.7546771E-02  0.1493699E+00
          2   -1    0    0  502    0  0.00000000000E+00  0.00000000000E+00  0.14647164763E+02  0.14647164763E+02  0.00000000000E+00 0. -1.
          1   -1    0    0  501    0 -0.00000000000E+00 -0.00000000000E+00 -0.55943515806E+03  0.55943515806E+03  0.00000000000E+00 0.  1.
          2    1    1    2  501    0  0.21537883402E+02  0.77938133109E+01  0.53063789598E+01  0.23511308025E+02  0.00000000000E+00 0. -1.
          1    1    1    2  502    0 -0.21537883402E+02 -0.77938133109E+01 -0.55009437226E+03  0.55057101480E+03  0.00000000000E+00 0.  1.
</event>
<event>
 4    1  0.3664744E+003  0.2158121E+02  0.7546771E-02  0.1511126E+00
          2   -1    0    0  502    0  0.00000000000E+00  0.00000000000E+00  0.17646759609E+03  0.17646759609E+03  0.00000000000E+00 0. -1.
          1   -1    0    0  501    0 -0.00000000000E+00 -0.00000000000E+00 -0.36675075426E+01  0.36675075426E+01  0.00000000000E+00 0.  1.
          2    1    1    2  501    0  0.10147852485E+02 -0.19046509605E+02  0.13408992329E+03  0.13581552181E+03  0.00000000000E+00 0. -1.
          1    1    1    2  502    0 -0.10147852485E+02  0.19046509605E+02  0.38710165259E+02  0.44319581819E+02  0.00000000000E+00 0.  1.
</event>
<event>
 4    1  0.3664744E+003  0.3195313E+02  0.7546771E-02  0.1403350E+00
          2   -1    0    0  502    0  0.00000000000E+00  0.00000000000E+00  0.44819127251E+03  0.44819127251E+03  0.00000000000E+00 0.  1.
          1   -1    0    0  501    0 -0.00000000000E+00 -0.00000000000E+00 -0.22910720515E+01  0.22910720515E+01  0.00000000000E+00 0.  1.
          2    1    1    2  501    0 -0.49690126183E+01 -0.31564402542E+02  0.23993061196E+03  0.24204896437E+03  0.00000000000E+00 0.  1.
          1    1    1    2  502    0  0.49690126183E+01  0.31564402542E+02  0.20596958850E+03  0.20843338020E+03  0.00000000000E+00 0.  1.
</event>
<event>
 4    1  0.3664744E+003  0.3963548E+02  0.7546771E-02  0.1350635E+00
          2   -1    0    0  502    0  0.00000000000E+00  0.00000000000E+00  0.16239948098E+03  0.16239948098E+03  0.00000000000E+00 0. -1.
          1   -1    0    0  501    0 -0.00000000000E+00 -0.00000000000E+00 -0.20515792505E+02  0.20515792505E+02  0.00000000000E+00 0.  1.
          2    1    1    2  501    0  0.90894563763E+01 -0.38579183007E+02  0.13742878667E+03  0.14303021703E+03  0.00000000000E+00 0. -1.
          1    1    1    2  502    0 -0.90894563763E+01  0.38579183007E+02  0.44549018133E+01  0.39885056461E+02  0.00000000000E+00 0.  1.
</event>
<event>
 4    1  0.3664744E+003  0.2428359E+02  0.7546771E-02  0.1476980E+00
          2   -1    0    0  502    0  0.00000000000E+00  0.00000000000E+00  0.60391707656E+02  0.60391707656E+02  0.00000000000E+00 0. -1.
          1   -1    0    0  501    0 -0.00000000000E+00 -0.00000000000E+00 -0.95070186992E+02  0.95070186992E+02  0.00000000000E+00 0. -1.
          2    1    1    2  501    0  0.14085972006E+02 -0.19780756373E+02  0.56291787495E+02  0.61306266152E+02  0.00000000000E+00 0. -1.
          1    1    1    2  502    0 -0.14085972006E+02  0.19780756373E+02 -0.90970266832E+02  0.94155628496E+02  0.00000000000E+00 0. -1.
</event>
<event>
 4    1  0.3664744E+003  0.4231557E+02  0.7546771E-02  0.1335426E+00
          2   -1    0    0  502    0  0.00000000000E+00  0.00000000000E+00  0.11795756216E+03  0.11795756216E+03  0.00000000000E+00 0.  1.
          1   -1    0    0  501    0 -0.00000000000E+00 -0.00000000000E+00 -0.82249005762E+03  0.82249005762E+03  0.00000000000E+00 0.  1.
          2    1    1    2  501    0 -0.13108536145E+02 -0.40233990016E+02  0.11359806405E+03  0.12122346237E+03  0.00000000000E+00 0.  1.
          1    1    1    2  502    0  0.13108536145E+02  0.40233990016E+02 -0.81813055952E+03  0.81922415741E+03  0.00000000000E+00 0.  1.
</event>
<event>
 4    1  0.3664744E+003  0.3145754E+02  0.7546771E-02  0.1407340E+00
          2   -1    0    0  502    0  0.00000000000E+00  0.00000000000E+00  0.63439679908E+02  0.63439679908E+02  0.00000000000E+00 0.  1.
          1   -1    0    0  501    0 -0.00000000000E+00 -0.00000000000E+00 -0.29950817969E+03  0.29950817969E+03  0.00000000000E+00 0.  1.
          2    1    1    2  501    0  0.20980561757E+02 -0.23439128935E+02  0.58650816719E+02  0.66554451682E+02  0.00000000000E+00 0.  1.
          1    1    1    2  502    0 -0.20980561757E+02  0.23439128935E+02 -0.29471931650E+03  0.29639340792E+03  0.00000000000E+00 0.  1.
</event>
<event>
 4    1  0.3664744E+003  0.2016603E+02  0.7546771E-02  0.1531513E+00
          2   -1    0    0  502    0  0.00000000000E+00  0.00000000000E+00  0.44205794852E+01  0.44205794852E+01  0.00000000000E+00 0. -1.
          1   -1    0    0  501    0 -0.00000000000E+00 -0.00000000000E+00 -0.91303581419E+03  0.91303581419E+03  0.00000000000E+00 0.  1.
          2    1    1    2  501    0  0.30817337249E+01  0.19929167185E+02 -0.19302818998E+02  0.27915365101E+02  0.00000000000E+00 0. -1.
          1    1    1    2  502    0 -0.30817337249E+01 -0.19929167185E+02 -0.88931241570E+03  0.88954102857E+03  0.00000000000E+00 0.  1.
</event>
<event>
 4    1  0.3664744E+003  0.2913258E+02  0.7546771E-02  0.1427287E+00
          2   -1    0    0  502    0  0.00000000000E+00  0.00000000000E+00  0.15964633722E+01  0.15964633722E+01  0.00000000000E+00 0.  1.
          1   -1    0    0  501    0 -0.00000000000E+00 -0.00000000000E+00 -0.55579106640E+03  0.55579106640E+03  0.00000000000E+00 0.  1.
          2    1    1    2  501    0  0.29117050892E+02 -0.95100574691E+00 -0.21897452539E+03  0.22090393802E+03  0.00000000000E+00 0.  1.
          1    1    1    2  502    0 -0.29117050892E+02  0.95100574691E+00 -0.33522007764E+03  0.33648359176E+03  0.00000000000E+00 0.  1.
</event>
<event>
 4    1  0.3664744E+003  0.2005261E+02  0.7546771E-02  0.1533233E+00
          2   -1    0    0  502    0  0.00000000000E+00  0.00000000000E+00  0.11647832528E+01  0.11647832528E+01  0.00000000000E+00 0.  1.
          1   -1    0    0  501    0 -0.00000000000E+00 -0.00000000000E+00 -0.35131194808E+03  0.35131194808E+03  0.00000000000E+00 0. -1.
          2    1    1    2  501    0  0.19783921222E+02 -0.32716102769E+01 -0.15186669757E+03  0.15318485827E+03  0.00000000000E+00 0.  1.
          1    1    1    2  502    0 -0.19783921222E+02  0.32716102769E+01 -0.19828046726E+03  0.19929187307E+03  0.00000000000E+00 0. -1.
</event>
<event>
 4    1  0.3664744E+003  0.2265799E+02  0.7546771E-02  0.1496838E+00
          2   -1    0    0  502    0  0.00000000000E+00  0.00000000000E+00  0.99438411683E+03  0.99438411683E+03  0.00000000000E+00 0.  1.
          1   -1    0    0  501    0 -0.00000000000E+00 -0.00000000000E+00 -0.16182508489E+03  0.16182508489E+03  0.00000000000E+00 0. -1.
          2    1    1    2  501    0 -0.16920903338E+02  0.15068766472E+02  0.99346119243E+03  0.99371954069E+03  0.00000000000E+00 0.  1.
          1    1    1    2  502    0  0.16920903338E+02 -0.15068766472E+02 -0.16090216048E+03  0.16248966103E+03  0.00000000000E+00 0. -1.
</event>
<event>
 4    1  0.3664744E+003  0.2065806E+02  0.7546771E-02  0.1524203E+00
          2   -1    0    0  502    0  0.00000000000E+00  0.00000000000E+00  0.25006820676E+02  0.25006820676E+02  0.00000000000E+00 0.  1.
          1   -1    0    0  501    0 -0.00000000000E+00 -0.00000000000E+00 -0.11531476267E+03  0.11531476267E+03  0.00000000000E+00 0.  1.
          2    1    1    2  501    0  0.15109782284E+02  0.14087226565E+02  0.19607474950E+02  0.28481723032E+02  0.00000000000E+00 0.  1.
          1    1    1    2  502    0 -0.15109782284E+02 -0.14087226565E+02 -0.10991541694E+03  0.11183986031E+03  0.00000000000E+00 0.  1.
</event>
<event>
 4    1  0.3664744E+003  0.4536448E+02  0.7546771E-02  0.1319627E+00
          2   -1    0    0  502    0  0.00000000000E+00  0.00000000000E+00  0.26096947933E+04  0.26096947933E+04  0.00000000000E+00 0. -1.
          1   -1    0    0  501    0 -0.00000000000E+00 -0.00000000000E+00 -0.60004023409E+03  0.60004023409E+03  0.00000000000E+00 0.  1.
          2    1    1    2  501    0  0.50850332281E+01 -0.45078583832E+02  0.26086398872E+04  0.26090343036E+04  0.00000000000E+00 0. -1.
          1    1    1    2  502    0 -0.50850332281E+01  0.45078583832E+02 -0.59898532804E+03  0.60070072373E+03  0.00000000000E+00 0.  1.
</event>
<event>
 4    1  0.3664744E+003  0.5818691E+02  0.7546771E-02  0.1266120E+00
          2   -1    0    0  502    0  0.00000000000E+00  0.00000000000E+00  0.10668064779E+04  0.10668064779E+04  0.00000000000E+00 0. -1.
          1   -1    0    0  501    0 -0.00000000000E+00 -0.00000000000E+00 -0.35842257204E+01  0.35842257204E+01  0.00000000000E+00 0. -1.
          2    1    1    2  501    0 -0.50193006536E+02 -0.29434312636E+02  0.71274027229E+03  0.71511146852E+03  0.00000000000E+00 0. -1.
          1    1    1    2  502    0  0.50193006536E+02  0.29434312636E+02  0.35048197985E+03  0.35527923506E+03  0.00000000000E+00 0. -1.
</event>
<event>
 4    1  0.3664744E+003  0.4023789E+02  0.7546771E-02  0.1347097E+00
          2   -1    0    0  502    0  0.00000000000E+00  0.00000000000E+00  0.97512693686E+01  0.97512693686E+01  0.00000000000E+00 0. -1.
          1   -1    0    0  501    0 -0.00000000000E+00 -0.00000000000E+00 -0.25563619500E+03  0.25563619500E+03  0.00000000000E+00 0.  1.
          2    1    1    2  501    0 -0.27049471654E+02  0.29789492720E+02 -0.44385036920E+02  0.59909258848E+02  0.00000000000E+00 0. -1.
          1    1    1    2  502    0  0.27049471654E+02 -0.29789492720E+02 -0.20149988871E+03  0.20547820552E+03  0.00000000000E+00 0.  1.
</event>
<event>
 4    1  0.3664744E+003  0.3588034E+02  0.7546771E-02  0.1374478E+00
          2   -1    0    0  502    0  0.00000000000E+00  0.00000000000E+00  0.18754030239E+04  0.18754030239E+04  0.00000000000E+00 0. -1.
          1   -1    0    0  501    0 -0.00000000000E+00 -0.00000000000E+00 -0.32274477220E+01  0.32274477220E+01  0.00000000000E+00 0. -1.
          2    1    1    2  501    0  0.21230103501E+02  0.28925452134E+02  0.17695436203E+04  0.17699073488E+04  0.00000000000E+00 0. -1.
          1    1    1    2  502    0 -0.21230103501E+02 -0.28925452134E+02  0.10263195587E+03  0.10872312284E+03  0.00000000000E+00 0. -1.
</event>
<event>
 4    1  0.3664744E+003  0.2169339E+02  0.7546771E-02  0.1509591E+00
          2   -1    0    0  502    0  0.00000000000E+00  0.00000000000E+00  0.11322735078E+04  0.11322735078E+04  0.00000000000E+00 0.  1.
          1   -1    0    0  501    0 -0.00000000000E+00 -0.00000000000E+00 -0.22314654945E+01  0.22314654945E+01  0.00000000000E+00 0. -1.
          2    1    1    2  501    0 -0.21467027265E+02  0.31256870937E+01  0.10767263709E+04  0.10769448830E+04  0.00000000000E+00 0.  1.
          1    1    1    2  502    0  0.21467027265E+02 -0.31256870937E+01  0.53315671347E+02  0.57560090259E+02  0.00000000000E+00 0. -1.
</event>
<event>
 4    1  0.3664744E+003  0.2638150E+02  0.7546771E-02  0.1453922E+00
          2   -1    0    0  502    0  0.00000000000E+00  0.00000000000E+00  0.85608660592E+02  0.85608660592E+02  0.00000000000E+00 0. -1.
          1   -1    0    0  501    0 -0.00000000000E+00 -0.00000000000E+00 -0.27598898060E+02  0.27598898060E+02  0.00000000000E+00 0. -1.
          2    1    1    2  501    0 -0.18352383014E+02 -0.18951880783E+02  0.76546301764E+02  0.80964931058E+02  0.00000000000E+00 0. -1.
          1    1    1    2  502    0  0.18352383014E+02  0.18951880783E+02 -0.18536539232E+02  0.32242627594E+02  0.00000000000E+00 0. -1.
</event>
<event>
 4    1  0.3664744E+003  0.2517070E+02  0.7546771E-02  0.1466903E+00
          2   -1    0    0  502    0  0.00000000000E+00  0.00000000000E+00  0.28042333275E+03  0.28042333275E+03  0.00000000000E+00 0. -1.
          1   -1    0    0  501    0 -0.00000000000E+00 -0.00000000000E+00 -0.88990929214E+01  0.88990929214E+01  0.00000000000E+00 0.  1.
          2    1    1    2  501    0  0.21272746995E+02  0.13454903044E+02  0.26071781707E+03  0.26193003707E+03  0.00000000000E+00 0. -1.
          1    1    1    2  502    0 -0.21272746995E+02 -0.13454903044E+02  0.10806422760E+02  0.27392388605E+02  0.00000000000E+00 0.  1.
</event>
<event>
 4    1  0.3664744E+003  0.2322226E+02  0.7546771E-02  0.1489726E+00
          2   -1    0    0  502    0  0.00000000000E+00  0.00000000000E+00  0.30433517753E+03  0.30433517753E+03  0.00000000000E+00 0.  1.
          1   -1    0    0  501    0 -0.00000000000E+00 -0.00000000000E+00 -0.35202488905E+03  0.35202488905E+03  0.00000000000E+00 0.  1.
          2    1    1    2  501    0 -0.84273863671E+01  0.21639142303E+02  0.30350816302E+03  0.30439526662E+03  0.00000000000E+00 0.  1.
          1    1    1    2  502    0  0.84273863671E+01 -0.21639142303E+02 -0.35119787455E+03  0.35196479996E+03  0.00000000000E+00 0.  1.
</event>
<event>
 4    1  0.3664744E+003  0.2209939E+02  0.7546771E-02  0.1504128E+00
          2   -1    0    0  502    0  0.00000000000E+00  0.00000000000E+00  0.52367985505E+02  0.52367985505E+02  0.00000000000E+00 0. -1.
          1   -1    0    0  501    0 -0.00000000000E+00 -0.00000000000E+00 -0.92040425143E+02  0.92040425143E+02  0.00000000000E+00 0.  1.
          2    1    1    2  501    0 -0.17817376525E+02 -0.13073799000E+02  0.48612266388E+02  0.53399771253E+02  0.00000000000E+00 0. -1.
          1    1    1    2  502    0  0.17817376525E+02  0.13073799000E+02 -0.88284706026E+02  0.91008639396E+02  0.00000000000E+00 0.  1.
</event>
<event>
 4    1  0.3664744E+003  0.2287718E+02  0.7546771E-02  0.1494046E+00
          2   -1    0    0  502    0  0.00000000000E+00  0.00000000000E+00  0.11443650388E+02  0.11443650388E+02  0.00000000000E+00 0. -1.
          1   -1    0    0  501    0 -0.00000000000E+00 -0.00000000000E+00 -0.36038899458E+03  0.36038899458E+03  0.00000000000E+00 0.  1.
          2    1    1    2  501    0  0.22511011939E+02 -0.40767507943E+01 -0.75301013442E+00  0.22889573605E+02  0.00000000000E+00 0. -1.
          1    1    1    2  502    0 -0.22511011939E+02  0.40767507943E+01 -0.34819233406E+03  0.34894307136E+03  0.00000000000E+00 0.  1.
</event>
<event>
 4    1  0.3664744E+003  0.2612482E+02  0.7546771E-02  0.1456603E+00
          2   -1    0    0  502    0  0.00000000000E+00  0.00000000000E+00  0.87885456080E+01  0.87885456080E+01  0.00000000000E+00 0. -1.
          1   -1    0    0  501    0 -0.00000000000E+00 -0.00000000000E+00 -0.80208005962E+02  0.80208005962E+02  0.00000000000E+00 0. -1.
          2    1    1    2  501    0  0.54403083843E+01  0.25552071815E+02 -0.43643174090E+02  0.50864840253E+02  0.00000000000E+00 0. -1.
          1    1    1    2  502    0 -0.54403083843E+01 -0.25552071815E+02 -0.27776286264E+02  0.38131711317E+02  0.00000000000E+00 0. -1.
</event>
<event>
 4    1  0.3664744E+003  0.2165475E+02  0.7546771E-02  0.1510119E+00
          2   -1    0    0  502    0  0.00000000000E+00  0.00000000000E+00  0.37758381044E+03  0.37758381044E+03  0.00000000000E+00 0.  1.
          1   -1    0    0  501    0 -0.00000000000E+00 -0.00000000000E+00 -0.67902548963E+01  0.67902548963E+01  0.00000000000E+00 0. -1.
          2    1    1    2  501    0 -0.37686801878E+01 -0.21324284186E+02  0.35912183495E+03  0.35977412412E+03  0.00000000000E+00 0.  1.
          1    1    1    2  502    0  0.37686801878E+01  0.21324284186E+02  0.11671720594E+02  0.24599941220E+02  0.00000000000E+00 0. -1.
</event>
<event>
 4    1  0.3664744E+003  0.2494836E+02  0.7546771E-02  0.1469382E+00
          2   -1    0    0  502    0  0.00000000000E+00  0.00000000000E+00  0.19324728533E+03  0.19324728533E+03  0.00000000000E+00 0.  1.
          1   -1    0    0  501    0 -0.00000000000E+00 -0.00000000000E+00 -0.41925499693E+02  0.41925499693E+02  0.00000000000E+00 0. -1.
          2    1    1    2  501    0 -0.21836833702E+02  0.12065379637E+02  0.18864035641E+03  0.19028295972E+03  0.00000000000E+00 0.  1.
          1    1    1    2  502    0  0.21836833702E+02 -0.12065379637E+02 -0.37318570770E+02  0.44889825309E+02  0.00000000000E+00 0. -1.
</event>
<event>
 4    1  0.3664744E+003  0.2153709E+02  0.7546771E-02  0.1511733E+00
          2   -1    0    0  502    0  0.00000000000E+00  0.00000000000E+00  0.10660494806E+03  0.10660494806E+03  0.00000000000E+00 0.  1.
          1   -1    0    0  501    0 -0.00000000000E+00 -0.00000000000E+00 -0.23127705538E+02  0.23127705538E+02  0.00000000000E+00 0.  1.
          2    1    1    2  501    0  0.16050816674E+02  0.14360283154E+02  0.10018556770E+03  0.10247435984E+03  0.00000000000E+00 0.  1.
          1    1    1    2  502    0 -0.16050816674E+02 -0.14360283154E+02 -0.16708325184E+02  0.27258293758E+02  0.00000000000E+00 0.  1.
</event>
<event>
 4    1  0.3664744E+003  0.2508634E+02  0.7546771E-02  0.1467840E+00
          2   -1    0    0  502    0  0.00000000000E+00  0.00000000000E+00  0.80304858685E+02  0.80304858685E+02  0.00000000000E+00 0.  1.
          1   -1    0    0  501    0 -0.00000000000E+00 -0.00000000000E+00 -0.94756682354E+01  0.94756682354E+01  0.00000000000E+00 0. -1.
          2    1    1    2  501    0  0.22693091331E+02  0.10693369320E+02  0.54084125773E+02  0.59618933253E+02  0.00000000000E+00 0.  1.
          1    1    1    2  502    0 -0.22693091331E+02 -0.10693369320E+02  0.16745064677E+02  0.30161593668E+02  0.00000000000E+00 0. -1.
</event>
<event>
 4    1  0.3664744E+003  0.2559714E+02  0.7546771E-02  0.1462233E+00
          2   -1    0    0  502    0  0.00000000000E+00  0.00000000000E+00  0.11766154727E+04  0.11766154727E+04  0.00000000000E+00 0. -1.
          1   -1    0    0  501    0 -0.00000000000E+00 -0.00000000000E+00 -0.67186602502E+01  0.67186602502E+01  0.00000000000E+00 0.  1.
          2    1    1    2  501    0  0.10519194335E+02  0.23335817589E+02  0.11515656038E+04  0.11518500569E+04  0.00000000000E+00 0. -1.
          1    1    1    2  502    0 -0.10519194335E+02 -0.23335817589E+02  0.18331208678E+02  0.31484076032E+02  0.00000000000E+00 0.  1.
</event>
<event>
 4    1  0.3664744E+003  0.2845716E+02  0.7546771E-02  0.1433495E+00
          2   -1    0    0  502    0  0.00000000000E+00  0.00000000000E+00  0.73206633514E+02  0.73206633514E+02  0.00000000000E+00 0.  1.
          1   -1    0    0  501    0 -0.00000000000E+00 -0.00000000000E+00 -0.22005280406E+02  0.22005280406E+02  0.00000000000E+00 0.  1.
          2    1    1    2  501    0  0.21877704746E+02  0.18198236257E+02  0.59172285472E+02  0.65659493874E+02  0.00000000000E+00 0.  1.
          1    1    1    2  502    0 -0.21877704746E+02 -0.18198236257E+02 -0.79709323638E+01  0.29552420045E+02  0.00000000000E+00 0.  1.
</event>
<event>
 4    1  0.3664744E+003  0.4195239E+02  0.7546771E-02  0.1337410E+00
          2   -1    0    0  502    0  0.00000000000E+00  0.00000000000E+00  0.14372091088E+04  0.14372091088E+04  0.00000000000E+00 0. -1.
          1   -1    0    0  501    0 -0.00000000000E+00 -0.00000000000E+00 -0.21871760838E+01  0.21871760838E+01  0.00000000000E+00 0.  1.
          2    1    1    2  501    0  0.39663892857E+02 -0.13666685700E+02  0.11949595431E+04  0.11956957440E+04  0.00000000000E+00 0. -1.
          1    1    1    2  502    0 -0.39663892857E+02  0.13666685700E+02  0.24006238968E+03  0.24370054089E+03  0.00000000000E+00 0.  1.
</event>
<event>
 4    1  0.3664744E+003  0.2682852E+02  0.7546771E-02  0.1449338E+00
          2   -1    0    0  502    0  0.00000000000E+00  0.00000000000E+00  0.14638008104E+02  0.14638008104E+02  0.00000000000E+00 0. -1.
          1   -1    0    0  501    0 -0.00000000000E+00 -0.00000000000E+00 -0.26408346817E+03  0.26408346817E+03  0.00000000000E+00 0. -1.
          2    1    1    2  501    0  0.65126108682E+01 -0.26026054260E+02  0.99610648954E+00  0.26847007818E+02  0.00000000000E+00 0. -1.
          1    1    1    2  502    0 -0.65126108682E+01  0.26026054260E+02 -0.25044156655E+03  0.25187446845E+03  0.00000000000E+00 0. -1.
</event>
<event>
 4    1  0.3664744E+003  0.2034666E+02  0.7546771E-02  0.1528801E+00
          2   -1    0    0  502    0  0.00000000000E+00  0.00000000000E+00  0.84300728448E+00  0.84300728448E+00  0.00000000000E+00 0.  1.
          1   -1    0    0  501    0 -0.00000000000E+00 -0.00000000000E+00 -0.77657201779E+03  0.77657201779E+03  0.00000000000E+00 0. -1.
          2    1    1    2  501    0 -0.12955150711E+02  0.15689194845E+02 -0.15218242025E+03  0.15353656177E+03  0.00000000000E+00 0.  1.
          1    1    1    2  502    0  0.12955150711E+02 -0.15689194845E+02 -0.62354659025E+03  0.62387846331E+03  0.00000000000E+00 0. -1.
</event>
<event>
 4    1  0.3664744E+003  0.2140033E+02  0.7546771E-02  0.1513625E+00
          2   -1    0    0  502    0  0.00000000000E+00  0.00000000000E+00  0.25673687504E+02  0.25673687504E+02  0.00000000000E+00 0. -1.
          1   -1    0    0  501    0 -0.00000000000E+00 -0.00000000000E+00 -0.19065294671E+02  0.19065294671E+02  0.00000000000E+00 0. -1.
          2    1    1    2  501    0 -0.20092224069E+02  0.73672746800E+01  0.89791295880E+01  0.23207735185E+02  0.00000000000E+00 0. -1.
          1    1    1    2  502    0  0.20092224069E+02 -0.73672746800E+01 -0.23707367551E+01  0.21531246991E+02  0.00000000000E+00 0. -1.
</event>
<event>
 4    1  0.3664744E+003  0.2312143E+02  0.7546771E-02  0.1490979E+00
          2   -1    0    0  502    0  0.00000000000E+00  0.00000000000E+00  0.21374863562E+02  0.21374863562E+02  0.00000000000E+00 0. -1.
          1   -1    0    0  501    0 -0.00000000000E+00 -0.00000000000E+00 -0.24512409318E+03  0.24512409318E+03  0.00000000000E+00 0.  1.
          2    1    1    2  501    0  0.11201765623E+02 -0.20226743020E+02  0.14394092432E+02  0.27235832706E+02  0.00000000000E+00 0. -1.
          1    1    1    2  502    0 -0.11201765623E+02  0.20226743020E+02 -0.23814332205E+03  0.23926312404E+03  0.00000000000E+00 0.  1.
</event>
<event>
 4    1  0.3664744E+003  0.1139347E+03  0.7546771E-02  0.1141634E+00
          2   -1    0    0  502    0  0.00000000000E+00  0.00000000000E+00  0.10159384431E+04  0.10159384431E+04  0.00000000000E+00 0. -1.
          1   -1    0    0  501    0 -0.00000000000E+00 -0.00000000000E+00 -0.80093470817E+02  0.80093470817E+02  0.00000000000E+00 0. -1.
          2    1    1    2  501    0 -0.10147287534E+03  0.51810846607E+02  0.97032736431E+03  0.97699350161E+03  0.00000000000E+00 0. -1.
          1    1    1    2  502    0  0.10147287534E+03 -0.51810846607E+02 -0.34482391992E+02  0.11903841234E+03  0.00000000000E+00 0. -1.
</event>
<event>
 4    1  0.3664744E+003  0.2584645E+02  0.7546771E-02  0.1459553E+00
          2   -1    0    0  502    0  0.00000000000E+00  0.00000000000E+00  0.15146125663E+01  0.15146125663E+01  0.00000000000E+00 0. -1.
          1   -1    0    0  501    0 -0.00000000000E+00 -0.00000000000E+00 -0.73387244389E+03  0.73387244389E+03  0.00000000000E+00 0. -1.
          2    1    1    2  501    0 -0.20539378617E+02 -0.15689903989E+02 -0.13392211899E+03  0.13639344968E+03  0.00000000000E+00 0. -1.
          1    1    1    2  502    0  0.20539378617E+02  0.15689903989E+02 -0.59843571234E+03  0.59899360678E+03  0.00000000000E+00 0. -1.
</event>
<event>
 4    1  0.3664744E+003  0.2137906E+02  0.7546771E-02  0.1513921E+00
          2   -1    0    0  502    0  0.00000000000E+00  0.00000000000E+00  0.81399746880E+02  0.81399746880E+02  0.00000000000E+00 0.  1.
          1   -1    0    0  501    0 -0.00000000000E+00 -0.00000000000E+00 -0.19367885679E+02  0.19367885679E+02  0.00000000000E+00 0. -1.
          2    1    1    2  501    0  0.20524149977E+02 -0.59852654013E+01  0.73472606255E+02  0.76519853660E+02  0.00000000000E+00 0.  1.
          1    1    1    2  502    0 -0.20524149977E+02  0.59852654013E+01 -0.11440745054E+02  0.24247778900E+02  0.00000000000E+00 0. -1.
</event>
<event>
 4    1  0.3664744E+003  0.2369752E+02  0.7546771E-02  0.1483920E+00
          2   -1    0    0  502    0  0.00000000000E+00  0.00000000000E+00  0.15212761214E+03  0.15212761214E+03  0.00000000000E+00 0. -1.
          1   -1    0    0  501    0 -0.00000000000E+00 -0.00000000000E+00 -0.77547969201E+01  0.77547969201E+01  0.00000000000E+00 0.  1.
          2    1    1    2  501    0 -0.70690686830E+01  0.22618595821E+02  0.13005288239E+03  0.13219426926E+03  0.00000000000E+00 0. -1.
          1    1    1    2  502    0  0.70690686830E+01 -0.22618595821E+02  0.14319932829E+02  0.27688139792E+02  0.00000000000E+00 0.  1.
</event>
<event>
 4    1  0.3664744E+003  0.2274618E+02  0.7546771E-02  0.1495710E+00
          2   -1    0    0  502    0  0.00000000000E+00  0.00000000000E+00  0.24204889580E+02  0.24204889580E+02  0.00000000000E+00 0.  1.
          1   -1    0    0  501    0 -0.00000000000E+00 -0.00000000000E+00 -0.72247491218E+03  0.72247491218E+03  0.00000000000E+00 0. -1.
          2    1    1    2  501    0  0.60983348423E+01 -0.21913446273E+02  0.18640543871E+02  0.29408479920E+02  0.00000000000E+00 0.  1.
          1    1    1    2  502    0 -0.60983348423E+01  0.21913446273E+02 -0.71691056647E+03  0.71727132184E+03  0.00000000000E+00 0. -1.
</event>
<event>
 4    1  0.3664744E+003  0.4399322E+02  0.7546771E-02  0.1326551E+00
          2   -1    0    0  502    0  0.00000000000E+00  0.00000000000E+00  0.25086203285E+02  0.25086203285E+02  0.00000000000E+00 0. -1.
          1   -1    0    0  501    0 -0.00000000000E+00 -0.00000000000E+00 -0.79086388051E+02  0.79086388051E+02  0.00000000000E+00 0.  1.
          2    1    1    2  501    0 -0.35989488237E+02 -0.25301384996E+02 -0.18850114176E+02  0.47861572798E+02  0.00000000000E+00 0. -1.
          1    1    1    2  502    0  0.35989488237E+02  0.25301384996E+02 -0.35150070590E+02  0.56311018538E+02  0.00000000000E+00 0.  1.
</event>
<event>
 4    1  0.3664744E+003  0.2787988E+02  0.7546771E-02  0.1438964E+00
          2   -1    0    0  502    0  0.00000000000E+00  0.00000000000E+00  0.75675662899E+01  0.75675662899E+01  0.00000000000E+00 0. -1.
          1   -1    0    0  501    0 -0.00000000000E+00 -0.00000000000E+00 -0.89631004152E+03  0.89631004152E+03  0.00000000000E+00 0. -1.
          2    1    1    2  501    0  0.16153793842E+02 -0.22723170142E+02 -0.19115170819E+02  0.33803509762E+02  0.00000000000E+00 0. -1.
          1    1    1    2  502    0 -0.16153793842E+02  0.22723170142E+02 -0.86962730441E+03  0.87007409804E+03  0.00000000000E+00 0. -1.
</event>
<event>
 4    1  0.3664744E+003  0.3091314E+02  0.7546771E-02  0.1411824E+00
          2   -1    0    0  502    0  0.00000000000E+00  0.00000000000E+00  0.97630345486E+03  0.97630345486E+03  0.00000000000E+00 0. -1.
          1   -1    0    0  501    0 -0.00000000000E+00 -0.00000000000E+00 -0.10890541551E+01  0.10890541551E+01  0.00000000000E+00 0.  1.
          2    1    1    2  501    0 -0.27007447117E+02 -0.15040617486E+02  0.64308857110E+03  0.64383113675E+03  0.00000000000E+00 0. -1.
          1    1    1    2  502    0  0.27007447117E+02  0.15040617486E+02  0.33212582960E+03  0.33356137226E+03  0.00000000000E+00 0.  1.
</event>
<event>
 4    1  0.3664744E+003  0.2265795E+02  0.7546771E-02  0.1496839E+00
          2   -1    0    0  502    0  0.00000000000E+00  0.00000000000E+00  0.14150452918E+04  0.14150452918E+04  0.00000000000E+00 0.  1.
          1   -1    0    0  501    0 -0.00000000000E+00 -0.00000000000E+00 -0.47080601195E+02  0.47080601195E+02  0.00000000000E+00 0. -1.
          2    1    1    2  501    0  0.21494725313E+02  0.71665494271E+01  0.14122230598E+04  0.14124048121E+04  0.00000000000E+00 0.  1.
          1    1    1    2  502    0 -0.21494725313E+02 -0.71665494271E+01 -0.44258369159E+02  0.49721080918E+02  0.00000000000E+00 0. -1.
</event>
<event>
 4    1  0.3664744E+003  0.2321997E+02  0.7546771E-02  0.1489754E+00
          2   -1    0    0  502    0  0.00000000000E+00  0.00000000000E+00  0.11418630776E+04  0.11418630776E+04  0.00000000000E+00 0.  1.
          1   -1    0    0  501    0 -0.00000000000E+00 -0.00000000000E+00 -0.78267360181E+01  0.78267360181E+01  0.00000000000E+00 0.  1.
          2    1    1    2  501    0  0.23158945290E+02  0.16823237489E+01  0.11242533442E+04  0.11244931075E+04  0.00000000000E+00 0.  1.
          1    1    1    2  502    0 -0.23158945290E+02 -0.16823237489E+01  0.97829974052E+01  0.25196706101E+02  0.00000000000E+00 0.  1.
</event>
<event>
 4    1  0.3664744E+003  0.2006954E+02  0.7546771E-02  0.1532975E+00
          2   -1    0    0  502    0  0.00000000000E+00  0.00000000000E+00  0.29779801495E+03  0.29779801495E+03  0.00000000000E+00 0. -1.
          1   -1    0    0  501    0 -0.00000000000E+00 -0.00000000000E+00 -0.40846214960E+01  0.40846214960E+01  0.00000000000E+00 0. -1.
          2    1    1    2  501    0 -0.12349065663E+02  0.15820463046E+02  0.27030306596E+03  0.27104710650E+03  0.00000000000E+00 0. -1.
          1    1    1    2  502    0  0.12349065663E+02 -0.15820463046E+02  0.23410327491E+02  0.30835529944E+02  0.00000000000E+00 0. -1.
</event>
<event>
 4    1  0.3664744E+003  0.3398395E+02  0.7546771E-02  0.1387850E+00
          2   -1    0    0  502    0  0.00000000000E+00  0.00000000000E+00  0.28311011973E+01  0.28311011973E+01  0.00000000000E+00 0.  1.
          1   -1    0    0  501    0 -0.00000000000E+00 -0.00000000000E+00 -0.70471328396E+03  0.70471328396E+03  0.00000000000E+00 0.  1.
          2    1    1    2  501    0 -0.19281105940E+02 -0.27984775076E+02 -0.12136183695E+03  0.12603017159E+03  0.00000000000E+00 0.  1.
          1    1    1    2  502    0  0.19281105940E+02  0.27984775076E+02 -0.58052034581E+03  0.58151421357E+03  0.00000000000E+00 0.  1.
</event>
<event>
 4    1  0.3664744E+003  0.4533600E+02  0.7546771E-02  0.1319768E+00
          2   -1    0    0  502    0  0.00000000000E+00  0.00000000000E+00  0.93100617849E+03  0.93100617849E+03  0.00000000000E+00 0.  1.
          1   -1    0    0  501    0 -0.00000000000E+00 -0.00000000000E+00 -0.20515122234E+02  0.20515122234E+02  0.00000000000E+00 0. -1.
          2    1    1    2  501    0  0.11689570417E+02 -0.43803048199E+02  0.90467902350E+03  0.90581426830E+03  0.00000000000E+00 0.  1.
          1    1    1    2  502    0 -0.11689570417E+02  0.43803048199E+02  0.58120327487E+01  0.45707032421E+02  0.00000000000E+00 0. -1.
</event>
<event>
 4    1  0.3664744E+003  0.2542583E+02  0.7546771E-02  0.1464096E+00
          2   -1    0    0  502    0  0.00000000000E+00  0.00000000000E+00  0.28541474424E+03  0.28541474424E+03  0.00000000000E+00 0. -1.
          1   -1    0    0  501    0 -0.00000000000E+00 -0.00000000000E+00 -0.13336059338E+02  0.13336059338E+02  0.00000000000E+00 0.  1.
          2    1    1    2  501    0 -0.46355689935E+01 -0.24999683812E+02  0.27213972505E+03  0.27332490307E+03  0.00000000000E+00 0. -1.
          1    1    1    2  502    0  0.46355689935E+01  0.24999683812E+02 -0.61040147185E-01  0.25425900505E+02  0.00000000000E+00 0.  1.
</event>
<event>
 4    1  0.3664744E+003  0.2321617E+02  0.7546771E-02  0.1489801E+00
          2   -1    0    0  502    0  0.00000000000E+00  0.00000000000E+00  0.27035200854E+02  0.27035200854E+02  0.00000000000E+00 0.  1.
          1   -1    0    0  501    0 -0.00000000000E+00 -0.00000000000E+00 -0.16136245407E+03  0.16136245407E+03  0.00000000000E+00 0. -1.
          2    1    1    2  501    0  0.32314186046E+01 -0.22990177403E+02  0.21024199634E+02  0.31321035958E+02  0.00000000000E+00 0.  1.
          1    1    1    2  502    0 -0.32314186046E+01  0.22990177403E+02 -0.15535145285E+03  0.15707661896E+03  0.00000000000E+00 0. -1.
</event>
<event>
 4    1  0.3664744E+003  0.2093735E+02  0.7546771E-02  0.1520161E+00
          2   -1    0    0  502    0  0.00000000000E+00  0.00000000000E+00  0.42484288400E+03  0.42484288400E+03  0.00000000000E+00 0. -1.
          1   -1    0    0  501    0 -0.00000000000E+00 -0.00000000000E+00 -0.10799749920E+01  0.10799749920E+01  0.00000000000E+00 0. -1.
          2    1    1    2  501    0 -0.15799554688E+02 -0.13738508433E+02  0.25683834854E+03  0.25769033707E+03  0.00000000000E+00 0. -1.
          1    1    1    2  502    0  0.15799554688E+02  0.13738508433E+02  0.16692456047E+03  0.16823252191E+03  0.00000000000E+00 0. -1.
</event>
<event>
 4    1  0.3664744E+003  0.3113283E+02  0.7546771E-02  0.1410001E+00
          2   -1    0    0  502    0  0.00000000000E+00  0.00000000000E+00  0.10306317710E+04  0.10306317710E+04  0.00000000000E+00 0.  1.
          1   -1    0    0  501    0 -0.00000000000E+00 -0.00000000000E+00 -0.17954824057E+03  0.17954824057E+03  0.00000000000E+00 0.  1.
          2    1    1    2  501    0  0.21523410542E+02  0.22494353119E+02  0.10290450070E+04  0.10295158472E+04  0.00000000000E+00 0.  1.
          1    1    1    2  502    0 -0.21523410542E+02 -0.22494353119E+02 -0.17796147662E+03  0.18066416436E+03  0.00000000000E+00 0.  1.
</event>
<event>
 4    1  0.3664744E+003  0.2209298E+02  0.7546771E-02  0.1504213E+00
          2   -1    0    0  502    0  0.00000000000E+00  0.00000000000E+00  0.75271815059E+02  0.75271815059E+02  0.00000000000E+00 0. -1.
          1   -1    0    0  501    0 -0.00000000000E+00 -0.00000000000E+00 -0.16281518896E+02  0.16281518896E+02  0.00000000000E+00 0. -1.
          2    1    1    2  501    0 -0.48900003081E+01  0.21545010150E+02  0.65004589058E+02  0.68656362881E+02  0.00000000000E+00 0. -1.
          1    1    1    2  502    0  0.48900003081E+01 -0.21545010150E+02 -0.60142928958E+01  0.22896971075E+02  0.00000000000E+00 0. -1.
</event>
<event>
 4    1  0.3664744E+003  0.2186184E+02  0.7546771E-02  0.1507307E+00
          2   -1    0    0  502    0  0.00000000000E+00  0.00000000000E+00  0.23927499028E+02  0.23927499028E+02  0.00000000000E+00 0.  1.
          1   -1    0    0  501    0 -0.00000000000E+00 -0.00000000000E+00 -0.21671762684E+02  0.21671762684E+02  0.00000000000E+00 0. -1.
          2    1    1    2  501    0 -0.17232343013E+01  0.21793814870E+02  0.75083699604E+01  0.23115266005E+02  0.00000000000E+00 0.  1.
          1    1    1    2  502    0  0.17232343013E+01 -0.21793814870E+02 -0.52526336161E+01  0.22483995707E+02  0.00000000000E+00 0. -1.
</event>
<event>
 4    1  0.3664744E+003  0.4034886E+02  0.7546771E-02  0.1346454E+00
          2   -1    0    0  502    0  0.00000000000E+00  0.00000000000E+00  0.20801120795E+04  0.20801120795E+04  0.00000000000E+00 0. -1.
          1   -1    0    0  501    0 -0.00000000000E+00 -0.00000000000E+00 -0.23689474911E+02  0.23689474911E+02  0.00000000000E+00 0.  1.
          2    1    1    2  501    0  0.38521703533E+02  0.12004536942E+02  0.20625895199E+04  0.20629841391E+04  0.00000000000E+00 0. -1.
          1    1    1    2  502    0 -0.38521703533E+02 -0.12004536942E+02 -0.61669152948E+01  0.40817415333E+02  0.00000000000E+00 0.  1.
</event>
<event>
 4    1  0.3664744E+003  0.2451699E+02  0.7546771E-02  0.1474280E+00
          2   -1    0    0  502    0  0.00000000000E+00  0.00000000000E+00  0.86531867897E+02  0.86531867897E+02  0.00000000000E+00 0. -1.
          1   -1    0    0  501    0 -0.00000000000E+00 -0.00000000000E+00 -0.10893060390E+02  0.10893060390E+02  0.00000000000E+00 0. -1.
          2    1    1    2  501    0  0.22316252959E+02  0.10152231067E+02  0.67140574690E+02  0.71476847380E+02  0.00000000000E+00 0. -1.
          1    1    1    2  502    0 -0.22316252959E+02 -0.10152231067E+02  0.84982328168E+01  0.25948080907E+02  0.00000000000E+00 0. -1.
</event>
<event>
 4    1  0.3664744E+003  0.2055860E+02  0.7546771E-02  0.1525661E+00
          2   -1    0    0  502    0  0.00000000000E+00  0.00000000000E+00  0.28653069252E+03  0.28653069252E+03  0.00000000000E+00 0. -1.
          1   -1    0    0  501    0 -0.00000000000E+00 -0.00000000000E+00 -0.12865439049E+03  0.12865439049E+03  0.00000000000E+00 0.  1.
          2    1    1    2  501    0 -0.39759758644E+01 -0.20170467777E+02  0.28533718978E+03  0.28607685685E+03  0.00000000000E+00 0. -1.
          1    1    1    2  502    0  0.39759758644E+01  0.20170467777E+02 -0.12746088775E+03  0.12910822615E+03  0.00000000000E+00 0.  1.
</event>
<event>
 4    1  0.3664744E+003  0.2325001E+02  0.7546771E-02  0.1489382E+00
          2   -1    0    0  502    0  0.00000000000E+00  0.00000000000E+00  0.12034125830E+04  0.12034125830E+04  0.00000000000E+00 0.  1.
          1   -1    0    0  501    0 -0.00000000000E+00 -0.00000000000E+00 -0.89517016539E+01  0.89517016539E+01  0.00000000000E+00 0.  1.
          2    1    1    2  501    0  0.10751096393E+02  0.20614970200E+02  0.11880078912E+04  0.11882353777E+04  0.00000000000E+00 0.  1.
          1    1    1    2  502    0 -0.10751096393E+02 -0.20614970200E+02  0.64529900641E+01  0.24128906954E+02  0.00000000000E+00 0.  1.
</event>
<event>
 4    1  0.3664744E+003  0.3781506E+02  0.7546771E-02  0.1361788E+00
          2   -1    0    0  502    0  0.00000000000E+00  0.00000000000E+00  0.10876013810E+02  0.10876013810E+02  0.00000000000E+00 0.  1.
          1   -1    0    0  501    0 -0.00000000000E+00 -0.00000000000E+00 -0.24338630723E+04  0.24338630723E+04  0.00000000000E+00 0. -1.
          2    1    1    2  501    0 -0.39039732746E+01  0.37613003037E+02 -0.22599255593E+02  0.44053437529E+02  0.00000000000E+00 0.  1.
          1    1    1    2  502    0  0.39039732746E+01 -0.37613003037E+02 -0.24003878029E+04  0.24006856486E+04  0.00000000000E+00 0. -1.
</event>
<event>
 4    1  0.3664744E+003  0.3830211E+02  0.7546771E-02  0.1358733E+00
          2   -1    0    0  502    0  0.00000000000E+00  0.00000000000E+00  0.22067670756E+03  0.22067670756E+03  0.00000000000E+00 0.  1.
          1   -1    0    0  501    0 -0.00000000000E+00 -0.00000000000E+00 -0.47041285425E+02  0.47041285425E+02  0.00000000000E+00 0. -1.
          2    1    1    2  501    0 -0.12111140353E+02 -0.36336921854E+02  0.21085799102E+03  0.21430852523E+03  0.00000000000E+00 0.  1.
          1    1    1    2  502    0  0.12111140353E+02  0.36336921854E+02 -0.37222568888E+02  0.53409467748E+02  0.00000000000E+00 0. -1.
</event>
<event>
 4    1  0.3664744E+003  0.3604907E+02  0.7546771E-02  0.1373334E+00
          2   -1    0    0  502    0  0.00000000000E+00  0.00000000000E+00  0.13466106239E+04  0.13466106239E+04  0.00000000000E+00 0. -1.
          1   -1    0    0  501    0 -0.00000000000E+00 -0.00000000000E+00 -0.57768157318E+01  0.57768157318E+01  0.00000000000E+00 0. -1.
          2    1    1    2  501    0  0.28358707433E+02  0.22255764649E+02  0.12875509264E+04  0.12880554815E+04  0.00000000000E+00 0. -1.
          1    1    1    2  502    0 -0.28358707433E+02 -0.22255764649E+02  0.53282881758E+02  0.64331958122E+02  0.00000000000E+00 0. -1.
</event>
<event>
 4    1  0.3664744E+003  0.2673981E+02  0.7546771E-02  0.1450239E+00
          2   -1    0    0  502    0  0.00000000000E+00  0.00000000000E+00  0.16284114278E+02  0.16284114278E+02  0.00000000000E+00 0. -1.
          1   -1    0    0  501    0 -0.00000000000E+00 -0.00000000000E+00 -0.47706240351E+03  0.47706240351E+03  0.00000000000E+00 0. -1.
          2    1    1    2  501    0  0.10387501850E+01 -0.26719626211E+02  0.46582247388E+01  0.27142521705E+02  0.00000000000E+00 0. -1.
          1    1    1    2  502    0 -0.10387501850E+01  0.26719626211E+02 -0.46543651397E+03  0.46620399608E+03  0.00000000000E+00 0. -1.
</event>
<event>
 4    1  0.3664744E+003  0.2049669E+02  0.7546771E-02  0.1526574E+00
          2   -1    0    0  502    0  0.00000000000E+00  0.00000000000E+00  0.15234596333E+03  0.15234596333E+03  0.00000000000E+00 0.  1.
          1   -1    0    0  501    0 -0.00000000000E+00 -0.00000000000E+00 -0.13999391078E+02  0.13999391078E+02  0.00000000000E+00 0.  1.
          2    1    1    2  501    0  0.14718157248E+02  0.14264997658E+02  0.14370536221E+03  0.14515972388E+03  0.00000000000E+00 0.  1.
          1    1    1    2  502    0 -0.14718157248E+02 -0.14264997658E+02 -0.53587899545E+01  0.21185630525E+02  0.00000000000E+00 0.  1.
</event>
<event>
 4    1  0.3664744E+003  0.2310105E+02  0.7546771E-02  0.1491233E+00
          2   -1    0    0  502    0  0.00000000000E+00  0.00000000000E+00  0.32417550034E+03  0.32417550034E+03  0.00000000000E+00 0.  1.
          1   -1    0    0  501    0 -0.00000000000E+00 -0.00000000000E+00 -0.35769073624E+02  0.35769073624E+02  0.00000000000E+00 0. -1.
          2    1    1    2  501    0 -0.20229397291E+02  0.11154821217E+02  0.31998528217E+03  0.32081807829E+03  0.00000000000E+00 0.  1.
          1    1    1    2  502    0  0.20229397291E+02 -0.11154821217E+02 -0.31578855460E+02  0.39126495669E+02  0.00000000000E+00 0. -1.
</event>
<event>
 4    1  0.3664744E+003  0.2079373E+02  0.7546771E-02  0.1522230E+00
          2   -1    0    0  502    0  0.00000000000E+00  0.00000000000E+00  0.10481896782E+04  0.10481896782E+04  0.00000000000E+00 0.  1.
          1   -1    0    0  501    0 -0.00000000000E+00 -0.00000000000E+00 -0.61492170003E+00  0.61492170003E+00  0.00000000000E+00 0.  1.
          2    1    1    2  501    0  0.19325288075E+02 -0.76754314033E+01  0.82465983354E+03  0.82492194786E+03  0.00000000000E+00 0.  1.
          1    1    1    2  502    0 -0.19325288075E+02  0.76754314033E+01  0.22291492298E+03  0.22388265206E+03  0.00000000000E+00 0.  1.
</event>
<event>
 4    1  0.3664744E+003  0.6119489E+02  0.7546771E-02  0.1255826E+00
          2   -1    0    0  502    0  0.00000000000E+00  0.00000000000E+00  0.28308213595E+04  0.28308213595E+04  0.00000000000E+00 0.  1.
          1   -1    0    0  501    0 -0.00000000000E+00 -0.00000000000E+00 -0.13515785014E+01  0.13515785014E+01  0.00000000000E+00 0. -1.
          2    1    1    2  501    0  0.18855223691E+01 -0.61165838785E+02  0.16211100192E+04  0.16222646237E+04  0.00000000000E+00 0.  1.
          1    1    1    2  502    0 -0.18855223691E+01  0.61165838785E+02  0.12083597618E+04  0.12099083142E+04  0.00000000000E+00 0. -1.
</event>
<event>
 4    1  0.3664744E+003  0.3110450E+02  0.7546771E-02  0.1410235E+00
          2   -1    0    0  502    0  0.00000000000E+00  0.00000000000E+00  0.12185573220E+02  0.12185573220E+02  0.00000000000E+00 0. -1.
          1   -1    0    0  501    0 -0.00000000000E+00 -0.00000000000E+00 -0.13201681051E+03  0.13201681051E+03  0.00000000000E+00 0. -1.
          2    1    1    2  501    0  0.44557744216E+01 -0.30783693750E+02 -0.14395304250E+02  0.34274108464E+02  0.00000000000E+00 0. -1.
          1    1    1    2  502    0 -0.44557744216E+01  0.30783693750E+02 -0.10543593304E+03  0.10992827526E+03  0.00000000000E+00 0. -1.
</event>
<event>
 4    1  0.3664744E+003  0.3066049E+02  0.7546771E-02  0.1413942E+00
          2   -1    0    0  502    0  0.00000000000E+00  0.00000000000E+00  0.18976470263E+04  0.18976470263E+04  0.00000000000E+00 0. -1.
          1   -1    0    0  501    0 -0.00000000000E+00 -0.00000000000E+00 -0.81425721074E+00  0.81425721074E+00  0.00000000000E+00 0. -1.
          2    1    1    2  501    0  0.25824518328E+02  0.16527553012E+02  0.15424339954E+04  0.15427386999E+04  0.00000000000E+00 0. -1.
          1    1    1    2  502    0 -0.25824518328E+02 -0.16527553012E+02  0.35439877367E+03  0.35572258367E+03  0.00000000000E+00 0. -1.
</event>
<event>
 4    1  0.3664744E+003  0.2389325E+02  0.7546771E-02  0.1481576E+00
          2   -1    0    0  502    0  0.00000000000E+00  0.00000000000E+00  0.12599898299E+04  0.12599898299E+04  0.00000000000E+00 0. -1.
          1   -1    0    0  501    0 -0.00000000000E+00 -0.00000000000E+00 -0.11152493939E+01  0.11152493939E+01  0.00000000000E+00 0. -1.
          2    1    1    2  501    0  0.14160171671E+02 -0.19245175162E+02  0.11153037953E+04  0.11155596995E+04  0.00000000000E+00 0. -1.
          1    1    1    2  502    0 -0.14160171671E+02  0.19245175162E+02  0.14357078517E+03  0.14554537981E+03  0.00000000000E+00 0. -1.
</event>
<event>
 4    1  0.3664744E+003  0.2029863E+02  0.7546771E-02  0.1529519E+00
          2   -1    0    0  502    0  0.00000000000E+00  0.00000000000E+00  0.28388060803E+03  0.28388060803E+03  0.00000000000E+00 0.  1.
          1   -1    0    0  501    0 -0.00000000000E+00 -0.00000000000E+00 -0.47555469977E+01  0.47555469977E+01  0.00000000000E+00 0. -1.
          2    1    1    2  501    0 -0.16341944137E+02 -0.12040566272E+02  0.25985760549E+03  0.26064920776E+03  0.00000000000E+00 0.  1.
          1    1    1    2  502    0  0.16341944137E+02  0.12040566272E+02  0.19267455542E+02  0.27986947269E+02  0.00000000000E+00 0. -1.
</event>
<event>
 4    1  0.3664744E+003  0.2288436E+02  0.7546771E-02  0.1493955E+00
          2   -1    0    0  502    0  0.00000000000E+00  0.00000000000E+00  0.58761328898E+03  0.58761328898E+03  0.00000000000E+00 0. -1.
          1   -1    0    0  501    0 -0.00000000000E+00 -0.00000000000E+00 -0.28997717459E+02  0.28997717459E+02  0.00000000000E+00 0. -1.
          2    1    1    2  501    0  0.22619111653E+02  0.34741538695E+01  0.58283855176E+03  0.58328764034E+03  0.00000000000E+00 0. -1.
          1    1    1    2  502    0 -0.22619111653E+02 -0.34741538695E+01 -0.24222980234E+02  0.33323366103E+02  0.00000000000E+00 0. -1.
</event>
<event>
 4    1  0.3664744E+003  0.2517379E+02  0.7546771E-02  0.1466869E+00
          2   -1    0    0  502    0  0.00000000000E+00  0.00000000000E+00  0.53966076949E+02  0.53966076949E+02  0.00000000000E+00 0. -1.
          1   -1    0    0  501    0 -0.00000000000E+00 -0.00000000000E+00 -0.16792800192E+02  0.16792800192E+02  0.00000000000E+00 0. -1.
          2    1    1    2  501    0 -0.15570173388E+02  0.19781036253E+02  0.37987884223E+02  0.45571910673E+02  0.00000000000E+00 0. -1.
          1    1    1    2  502    0  0.15570173388E+02 -0.19781036253E+02 -0.81460746618E+00  0.25186966469E+02  0.00000000000E+00 0. -1.
</event>
<event>
 4    1  0.3664744E+003  0.2385398E+02  0.7546771E-02  0.1482044E+00
          2   -1    0    0  502    0  0.00000000000E+00  0.00000000000E+00  0.14081126640E+04  0.14081126640E+04  0.00000000000E+00 0. -1.
          1   -1    0    0  501    0 -0.00000000000E+00 -0.00000000000E+00 -0.42103331350E+00  0.42103331350E+00  0.00000000000E+00 0. -1.
          2    1    1    2  501    0  0.20726267238E+02  0.11808217776E+02  0.84510156834E+03  0.84543815443E+03  0.00000000000E+00 0. -1.
          1    1    1    2  502    0 -0.20726267238E+02 -0.11808217776E+02  0.56259006237E+03  0.56309554291E+03  0.00000000000E+00 0. -1.
</event>
<event>
 4    1  0.3664744E+003  0.2226471E+02  0.7546771E-02  0.1501943E+00
          2   -1    0    0  502    0  0.00000000000E+00  0.00000000000E+00  0.85851998579E+00  0.85851998579E+00  0.00000000000E+00 0.  1.
          1   -1    0    0  501    0 -0.00000000000E+00 -0.00000000000E+00 -0.15548337509E+04  0.15548337509E+04  0.00000000000E+00 0. -1.
          2    1    1    2  501    0 -0.16330486097E+02  0.15133826234E+02 -0.16026012757E+03  0.16179933856E+03  0.00000000000E+00 0.  1.
          1    1    1    2  502    0  0.16330486097E+02 -0.15133826234E+02 -0.13937151033E+04  0.13938929323E+04  0.00000000000E+00 0. -1.
</event>
<event>
 4    1  0.3664744E+003  0.2089283E+02  0.7546771E-02  0.1520800E+00
          2   -1    0    0  502    0  0.00000000000E+00  0.00000000000E+00  0.52226470825E+02  0.52226470825E+02  0.00000000000E+00 0.  1.
          1   -1    0    0  501    0 -0.00000000000E+00 -0.00000000000E+00 -0.10279527579E+02  0.10279527579E+02  0.00000000000E+00 0.  1.
          2    1    1    2  501    0  0.12805951539E+02  0.16508120533E+02  0.34485637941E+02  0.40320834100E+02  0.00000000000E+00 0.  1.
          1    1    1    2  502    0 -0.12805951539E+02 -0.16508120533E+02  0.74613053048E+01  0.22185164304E+02  0.00000000000E+00 0.  1.
</event>
<event>
 4    1  0.4391649E+003  0.2577708E+02  0.7546771E-02  0.1460295E+00
          2   -1    0    0  502    0  0.00000000000E+00  0.00000000000E+00  0.40866203706E+03  0.40866203706E+03  0.00000000000E+00 0. -1.
          1   -1    0    0  501    0 -0.00000000000E+00 -0.00000000000E+00 -0.10850186091E+04  0.10850186091E+04  0.00000000000E+00 0.  1.
          2    1    1    2  501    0  0.15247250520E+02 -0.20784108819E+02  0.40810224531E+03  0.40891551750E+03  0.00000000000E+00 0. -1.
          1    1    1    2  502    0 -0.15247250520E+02  0.20784108819E+02 -0.10844588174E+04  0.10847651287E+04  0.00000000000E+00 0.  1.
</event>
<event>
 4    1  0.3664744E+003  0.4749706E+02  0.7546771E-02  0.1309405E+00
          2   -1    0    0  502    0  0.00000000000E+00  0.00000000000E+00  0.25373413266E+03  0.25373413266E+03  0.00000000000E+00 0.  1.
          1   -1    0    0  501    0 -0.00000000000E+00 -0.00000000000E+00 -0.12671966441E+02  0.12671966441E+02  0.00000000000E+00 0. -1.
          2    1    1    2  501    0  0.86750073704E+01 -0.46698124382E+02  0.19329045720E+03  0.19904062756E+03  0.00000000000E+00 0.  1.
          1    1    1    2  502    0 -0.86750073704E+01  0.46698124382E+02  0.47771709018E+02  0.67365471543E+02  0.00000000000E+00 0. -1.
</event>
<event>
 4    1  0.3664744E+003  0.3047726E+02  0.7546771E-02  0.1415494E+00
          2   -1    0    0  502    0  0.00000000000E+00  0.00000000000E+00  0.15550335711E+02  0.15550335711E+02  0.00000000000E+00 0.  1.
          1   -1    0    0  501    0 -0.00000000000E+00 -0.00000000000E+00 -0.49136903800E+03  0.49136903800E+03  0.00000000000E+00 0.  1.
          2    1    1    2  501    0 -0.27377897812E+02  0.13390811118E+02 -0.35443976387E+00  0.30479316569E+02  0.00000000000E+00 0.  1.
          1    1    1    2  502    0  0.27377897812E+02 -0.13390811118E+02 -0.47546426253E+03  0.47644005715E+03  0.00000000000E+00 0.  1.
</event>
<event>
 4    1  0.3664744E+003  0.3327408E+02  0.7546771E-02  0.1393120E+00
          2   -1    0    0  502    0  0.00000000000E+00  0.00000000000E+00  0.20522690626E+03  0.20522690626E+03  0.00000000000E+00 0.  1.
          1   -1    0    0  501    0 -0.00000000000E+00 -0.00000000000E+00 -0.53910121597E+03  0.53910121597E+03  0.00000000000E+00 0.  1.
          2    1    1    2  501    0  0.15437417704E+01 -0.33238246354E+02  0.20336008624E+03  0.20606428326E+03  0.00000000000E+00 0.  1.
          1    1    1    2  502    0 -0.15437417704E+01  0.33238246354E+02 -0.53723439594E+03  0.53826383897E+03  0.00000000000E+00 0.  1.
</event>
<event>
 4    1  0.3664744E+003  0.2438508E+02  0.7546771E-02  0.1475801E+00
          2   -1    0    0  502    0  0.00000000000E+00  0.00000000000E+00  0.88572913298E+01  0.88572913298E+01  0.00000000000E+00 0.  1.
          1   -1    0    0  501    0 -0.00000000000E+00 -0.00000000000E+00 -0.14334885787E+03  0.14334885787E+03  0.00000000000E+00 0.  1.
          2    1    1    2  501    0 -0.23942100146E+02  0.46268578473E+01 -0.11754752673E+02  0.27070393114E+02  0.00000000000E+00 0.  1.
          1    1    1    2  502    0  0.23942100146E+02 -0.46268578473E+01 -0.12273681387E+03  0.12513575609E+03  0.00000000000E+00 0.  1.
</event>
<event>
 4    1  0.3664744E+003  0.3836595E+02  0.7546771E-02  0.1358337E+00
          2   -1    0    0  502    0  0.00000000000E+00  0.00000000000E+00  0.39884366225E+03  0.39884366225E+03  0.00000000000E+00 0.  1.
          1   -1    0    0  501    0 -0.00000000000E+00 -0.00000000000E+00 -0.52901913425E+02  0.52901913425E+02  0.00000000000E+00 0.  1.
          2    1    1    2  501    0 -0.15263857470E+02  0.35198873638E+02  0.39082259375E+03  0.39270121700E+03  0.00000000000E+00 0.  1.
          1    1    1    2  502    0  0.15263857470E+02 -0.35198873638E+02 -0.44880844923E+02  0.59044358674E+02  0.00000000000E+00 0.  1.
</event>
<event>
 4    1  0.3664744E+003  0.2008469E+02  0.7546771E-02  0.1532745E+00
          2   -1    0    0  502    0  0.00000000000E+00  0.00000000000E+00  0.14952233426E+04  0.14952233426E+04  0.00000000000E+00 0. -1.
          1   -1    0    0  501    0 -0.00000000000E+00 -0.00000000000E+00 -0.63075134749E+00  0.63075134749E+00  0.00000000000E+00 0. -1.
          2    1    1    2  501    0 -0.30086773462E+01  0.19858058436E+02  0.13130939873E+04  0.13132475829E+04  0.00000000000E+00 0. -1.
          1    1    1    2  502    0  0.30086773462E+01 -0.19858058436E+02  0.18149860394E+03  0.18260651099E+03  0.00000000000E+00 0. -1.
</event>
<event>
 4    1  0.3664744E+003  0.2222608E+02  0.7546771E-02  0.1502452E+00
          2   -1    0    0  502    0  0.00000000000E+00  0.00000000000E+00  0.77973861527E+02  0.77973861527E+02  0.00000000000E+00 0.  1.
          1   -1    0    0  501    0 -0.00000000000E+00 -0.00000000000E+00 -0.49610245434E+03  0.49610245434E+03  0.00000000000E+00 0.  1.
          2    1    1    2  501    0  0.17330479685E+02 -0.13915922538E+02  0.76135173687E+02  0.79313070162E+02  0.00000000000E+00 0.  1.
          1    1    1    2  502    0 -0.17330479685E+02  0.13915922538E+02 -0.49426376650E+03  0.49476324570E+03  0.00000000000E+00 0.  1.
</event>
<event>
 4    1  0.3664744E+003  0.3443729E+02  0.7546771E-02  0.1384563E+00
          2   -1    0    0  502    0  0.00000000000E+00  0.00000000000E+00  0.81579672183E+03  0.81579672183E+03  0.00000000000E+00 0. -1.
          1   -1    0    0  501    0 -0.00000000000E+00 -0.00000000000E+00 -0.46563144124E+01  0.46563144124E+01  0.00000000000E+00 0.  1.
          2    1    1    2  501    0 -0.14300316116E+02  0.31327754239E+02  0.74578611053E+03  0.74658077252E+03  0.00000000000E+00 0. -1.
          1    1    1    2  502    0  0.14300316116E+02 -0.31327754239E+02  0.65354296879E+02  0.73872263721E+02  0.00000000000E+00 0.  1.
</event>
<event>
 4    1  0.3664744E+003  0.3082060E+02  0.7546771E-02  0.1412597E+00
          2   -1    0    0  502    0  0.00000000000E+00  0.00000000000E+00  0.86155663614E+02  0.86155663614E+02  0.00000000000E+00 0.  1.
          1   -1    0    0  501    0 -0.00000000000E+00 -0.00000000000E+00 -0.22460867811E+03  0.22460867811E+03  0.00000000000E+00 0.  1.
          2    1    1    2  501    0 -0.28781217290E+00  0.30819254939E+02  0.82294008718E+02  0.87876124070E+02  0.00000000000E+00 0.  1.
          1    1    1    2  502    0  0.28781217290E+00 -0.30819254939E+02 -0.22074702322E+03  0.22288821766E+03  0.00000000000E+00 0.  1.
</event>
<event>
 4    1  0.3664744E+003  0.2763346E+02  0.7546771E-02  0.1441347E+00
          2   -1    0    0  502    0  0.00000000000E+00  0.00000000000E+00  0.79239646512E+03  0.79239646512E+03  0.00000000000E+00 0.  1.
          1   -1    0    0  501    0 -0.00000000000E+00 -0.00000000000E+00 -0.12290393715E+01  0.12290393715E+01  0.00000000000E+00 0.  1.
          2    1    1    2  501    0  0.21010386133E+02 -0.17949139981E+02  0.57997011714E+03  0.58062806058E+03  0.00000000000E+00 0.  1.
          1    1    1    2  502    0 -0.21010386133E+02  0.17949139981E+02  0.21119730860E+03  0.21299744391E+03  0.00000000000E+00 0.  1.
</event>
<event>
 4    1  0.3664744E+003  0.3351324E+02  0.7546771E-02  0.1391328E+00
          2   -1    0    0  502    0  0.00000000000E+00  0.00000000000E+00  0.60181776265E+01  0.60181776265E+01  0.00000000000E+00 0.  1.
          1   -1    0    0  501    0 -0.00000000000E+00 -0.00000000000E+00 -0.19102950889E+03  0.19102950889E+03  0.00000000000E+00 0.  1.
          2    1    1    2  501    0 -0.32986745411E+02  0.59169808602E+01 -0.10746774624E+03  0.11257198815E+03  0.00000000000E+00 0.  1.
          1    1    1    2  502    0  0.32986745411E+02 -0.59169808602E+01 -0.77543585023E+02  0.84475698361E+02  0.00000000000E+00 0.  1.
</event>
<event>
 4    1  0.3664744E+003  0.2003256E+02  0.7546771E-02  0.1533539E+00
          2   -1    0    0  502    0  0.00000000000E+00  0.00000000000E+00  0.44323893751E+03  0.44323893751E+03  0.00000000000E+00 0. -1.
          1   -1    0    0  501    0 -0.00000000000E+00 -0.00000000000E+00 -0.35501338631E+01  0.35501338631E+01  0.00000000000E+00 0.  1.
          2    1    1    2  501    0 -0.13611483374E+02  0.14697988666E+02  0.41265998467E+03  0.41314593826E+03  0.00000000000E+00 0. -1.
          1    1    1    2  502    0  0.13611483374E+02 -0.14697988666E+02  0.27028818969E+02  0.33643133108E+02  0.00000000000E+00 0.  1.
</event>
<event>
 4    1  0.3664744E+003  0.2878136E+02  0.7546771E-02  0.1430490E+00
          2   -1    0    0  502    0  0.00000000000E+00  0.00000000000E+00  0.46140201159E+02  0.46140201159E+02  0.00000000000E+00 0.  1.
          1   -1    0    0  501    0 -0.00000000000E+00 -0.00000000000E+00 -0.14978396920E+03  0.14978396920E+03  0.00000000000E+00 0.  1.
          2    1    1    2  501    0  0.12006213829E+02 -0.26157549989E+02  0.40081957088E+02  0.49345008622E+02  0.00000000000E+00 0.  1.
          1    1    1    2  502    0 -0.12006213829E+02  0.26157549989E+02 -0.14372572513E+03  0.14657916174E+03  0.00000000000E+00 0.  1.
</event>
<event>
 4    1  0.3664744E+003  0.2671508E+02  0.7546771E-02  0.1450491E+00
          2   -1    0    0  502    0  0.00000000000E+00  0.00000000000E+00  0.93254973685E+03  0.93254973685E+03  0.00000000000E+00 0.  1.
          1   -1    0    0  501    0 -0.00000000000E+00 -0.00000000000E+00 -0.50301702126E+01  0.50301702126E+01  0.00000000000E+00 0. -1.
          2    1    1    2  501    0 -0.21678688009E+02  0.15611847250E+02  0.89541704111E+03  0.89581547922E+03  0.00000000000E+00 0.  1.
          1    1    1    2  502    0  0.21678688009E+02 -0.15611847250E+02  0.32102525528E+02  0.41764427849E+02  0.00000000000E+00 0. -1.
</event>
<event>
 4    1  0.3664744E+003  0.2916617E+02  0.7546771E-02  0.1426983E+00
          2   -1    0    0  502    0  0.00000000000E+00  0.00000000000E+00  0.18258506978E+04  0.18258506978E+04  0.00000000000E+00 0. -1.
          1   -1    0    0  501    0 -0.00000000000E+00 -0.00000000000E+00 -0.37663015099E+01  0.37663015099E+01  0.00000000000E+00 0. -1.
          2    1    1    2  501    0  0.10086226457E+02 -0.27366650656E+02  0.17674014153E+04  0.17676420533E+04  0.00000000000E+00 0. -1.
          1    1    1    2  502    0 -0.10086226457E+02  0.27366650656E+02  0.54682981006E+02  0.61974946099E+02  0.00000000000E+00 0. -1.
</event>
<event>
 4    1  0.3664744E+003  0.4883965E+02  0.7546771E-02  0.1303283E+00
          2   -1    0    0  502    0  0.00000000000E+00  0.00000000000E+00  0.24341311279E+04  0.24341311279E+04  0.00000000000E+00 0.  1.
          1   -1    0    0  501    0 -0.00000000000E+00 -0.00000000000E+00 -0.16410317952E+02  0.16410317952E+02  0.00000000000E+00 0. -1.
          2    1    1    2  501    0 -0.21740471319E+02 -0.43734005747E+02  0.23969844608E+04  0.23974819743E+04  0.00000000000E+00 0.  1.
          1    1    1    2  502    0  0.21740471319E+02  0.43734005747E+02  0.20736349103E+02  0.53059471595E+02  0.00000000000E+00 0. -1.
</event>
<event>
 4    1  0.3664744E+003  0.4707104E+02  0.7546771E-02  0.1311397E+00
          2   -1    0    0  502    0  0.00000000000E+00  0.00000000000E+00  0.22834088277E+03  0.22834088277E+03  0.00000000000E+00 0. -1.
          1   -1    0    0  501    0 -0.00000000000E+00 -0.00000000000E+00 -0.10870020717E+04  0.10870020717E+04  0.00000000000E+00 0.  1.
          2    1    1    2  501    0 -0.17277969303E+01 -0.47039320160E+02  0.22539886667E+03  0.23026144275E+03  0.00000000000E+00 0. -1.
          1    1    1    2  502    0  0.17277969303E+01  0.47039320160E+02 -0.10840600556E+04  0.10850815117E+04  0.00000000000E+00 0.  1.
</event>
<event>
 4    1  0.3664744E+003  0.2147669E+02  0.7546771E-02  0.1512567E+00
          2   -1    0    0  502    0  0.00000000000E+00  0.00000000000E+00  0.46320411382E+00  0.46320411382E+00  0.00000000000E+00 0. -1.
          1   -1    0    0  501    0 -0.00000000000E+00 -0.00000000000E+00 -0.15723695758E+04  0.15723695758E+04  0.00000000000E+00 0.  1.
          2    1    1    2  501    0 -0.13202194748E+02  0.16939607120E+02 -0.30973105484E+03  0.31047475673E+03  0.00000000000E+00 0. -1.
          1    1    1    2  502    0  0.13202194748E+02 -0.16939607120E+02 -0.12621753168E+04  0.12623580231E+04  0.00000000000E+00 0.  1.
</event>
<event>
 4    1  0.3664744E+003  0.2656270E+02  0.7546771E-02  0.1452051E+00
          2   -1    0    0  502    0  0.00000000000E+00  0.00000000000E+00  0.67530325958E+03  0.67530325958E+03  0.00000000000E+00 0.  1.
          1   -1    0    0  501    0 -0.00000000000E+00 -0.00000000000E+00 -0.87277594928E+02  0.87277594928E+02  0.00000000000E+00 0.  1.
          2    1    1    2  501    0 -0.15627559198E+02  0.21479212030E+02  0.67301410855E+03  0.67353809652E+03  0.00000000000E+00 0.  1.
          1    1    1    2  502    0  0.15627559198E+02 -0.21479212030E+02 -0.84988443892E+02  0.89042757994E+02  0.00000000000E+00 0.  1.
</event>
<event>
 4    1  0.3664744E+003  0.2410643E+02  0.7546771E-02  0.1479053E+00
          2   -1    0    0  502    0  0.00000000000E+00  0.00000000000E+00  0.35160820781E+02  0.35160820781E+02  0.00000000000E+00 0.  1.
          1   -1    0    0  501    0 -0.00000000000E+00 -0.00000000000E+00 -0.27589860515E+02  0.27589860515E+02  0.00000000000E+00 0. -1.
          2    1    1    2  501    0  0.42727971208E+01  0.23724737007E+02  0.23652736402E+02  0.33772353791E+02  0.00000000000E+00 0.  1.
          1    1    1    2  502    0 -0.42727971208E+01 -0.23724737007E+02 -0.16081776136E+02  0.28978327505E+02  0.00000000000E+00 0. -1.
</event>
<event>
 4    1  0.3664744E+003  0.2709287E+02  0.7546771E-02  0.1446677E+00
          2   -1    0    0  502    0  0.00000000000E+00  0.00000000000E+00  0.63852820199E+03  0.63852820199E+03  0.00000000000E+00 0. -1.
          1   -1    0    0  501    0 -0.00000000000E+00 -0.00000000000E+00 -0.75399838220E+01  0.75399838220E+01  0.00000000000E+00 0. -1.
          2    1    1    2  501    0 -0.16370532573E+02 -0.21587704993E+02  0.61288533488E+03  0.61348386862E+03  0.00000000000E+00 0. -1.
          1    1    1    2  502    0  0.16370532573E+02  0.21587704993E+02  0.18102883285E+02  0.32584317191E+02  0.00000000000E+00 0. -1.
</event>
<event>
 4    1  0.3664744E+003  0.3933300E+02  0.7546771E-02  0.1352439E+00
          2   -1    0    0  502    0  0.00000000000E+00  0.00000000000E+00  0.12596058813E+04  0.12596058813E+04  0.00000000000E+00 0.  1.
          1   -1    0    0  501    0 -0.00000000000E+00 -0.00000000000E+00 -0.17786629669E+01  0.17786629669E+01  0.00000000000E+00 0. -1.
          2    1    1    2  501    0  0.25648632169E+02 -0.29820000203E+02  0.97976500279E+03  0.98055420322E+03  0.00000000000E+00 0.  1.
          1    1    1    2  502    0 -0.25648632169E+02  0.29820000203E+02  0.27806221552E+03  0.28083034103E+03  0.00000000000E+00 0. -1.
</event>
<event>
 4    1  0.3664744E+003  0.2635018E+02  0.7546771E-02  0.1454247E+00
          2   -1    0    0  502    0  0.00000000000E+00  0.00000000000E+00  0.28802352232E+01  0.28802352232E+01  0.00000000000E+00 0. -1.
          1   -1    0    0  501    0 -0.00000000000E+00 -0.00000000000E+00 -0.11812063258E+04  0.11812063258E+04  0.00000000000E+00 0.  1.
          2    1    1    2  501    0 -0.14922223778E+02 -0.21717721625E+02 -0.60977537291E+02  0.66427345642E+02  0.00000000000E+00 0. -1.
          1    1    1    2  502    0  0.14922223778E+02  0.21717721625E+02 -0.11173485532E+04  0.11176592153E+04  0.00000000000E+00 0.  1.
</event>
<event>
 4    1  0.3664744E+003  0.2197462E+02  0.7546771E-02  0.1505792E+00
          2   -1    0    0  502    0  0.00000000000E+00  0.00000000000E+00  0.10534647230E+04  0.10534647230E+04  0.00000000000E+00 0.  1.
          1   -1    0    0  501    0 -0.00000000000E+00 -0.00000000000E+00 -0.60941095953E+02  0.60941095953E+02  0.00000000000E+00 0.  1.
          2    1    1    2  501    0  0.21834802822E+02  0.24749006434E+01  0.10513652289E+04  0.10515948498E+04  0.00000000000E+00 0.  1.
          1    1    1    2  502    0 -0.21834802822E+02 -0.24749006434E+01 -0.58841601771E+02  0.62810969157E+02  0.00000000000E+00 0.  1.
</event>
<event>
 4    1  0.3664744E+003  0.2449473E+02  0.7546771E-02  0.1474536E+00
          2   -1    0    0  502    0  0.00000000000E+00  0.00000000000E+00  0.87780332412E+03  0.87780332412E+03  0.00000000000E+00 0.  1.
          1   -1    0    0  501    0 -0.00000000000E+00 -0.00000000000E+00 -0.10026198856E+03  0.10026198856E+03  0.00000000000E+00 0.  1.
          2    1    1    2  501    0 -0.15579415520E+02  0.18901687173E+02  0.87613353417E+03  0.87647587626E+03  0.00000000000E+00 0.  1.
          1    1    1    2  502    0  0.15579415520E+02 -0.18901687173E+02 -0.98592198607E+02  0.10158943642E+03  0.00000000000E+00 0.  1.
</event>
<event>
 4    1  0.3664744E+003  0.3805739E+02  0.7546771E-02  0.1360261E+00
          2   -1    0    0  502    0  0.00000000000E+00  0.00000000000E+00  0.46617420552E+01  0.46617420552E+01  0.00000000000E+00 0. -1.
          1   -1    0    0  501    0 -0.00000000000E+00 -0.00000000000E+00 -0.12602860052E+04  0.12602860052E+04  0.00000000000E+00 0.  1.
          2    1    1    2  501    0  0.23923985239E+02 -0.29597423845E+02 -0.78806140209E+02  0.87514411971E+02  0.00000000000E+00 0. -1.
          1    1    1    2  502    0 -0.23923985239E+02  0.29597423845E+02 -0.11768181230E+04  0.11774333353E+04  0.00000000000E+00 0.  1.
</event>
<event>
 4    1  0.3664744E+003  0.2612605E+02  0.7546771E-02  0.1456590E+00
          2   -1    0    0  502    0  0.00000000000E+00  0.00000000000E+00  0.85639006078E+02  0.85639006078E+02  0.00000000000E+00 0.  1.
          1   -1    0    0  501    0 -0.00000000000E+00 -0.00000000000E+00 -0.32845468273E+02  0.32845468273E+02  0.00000000000E+00 0. -1.
          2    1    1    2  501    0 -0.70338774540E+01  0.25161376455E+02  0.77952453620E+02  0.82214082264E+02  0.00000000000E+00 0.  1.
          1    1    1    2  502    0  0.70338774540E+01 -0.25161376455E+02 -0.25158915815E+02  0.36270392087E+02  0.00000000000E+00 0. -1.
</event>
<event>
 4    1  0.3664744E+003  0.2535507E+02  0.7546771E-02  0.1464870E+00
          2   -1    0    0  502    0  0.00000000000E+00  0.00000000000E+00  0.13911240931E+03  0.13911240931E+03  0.00000000000E+00 0. -1.
          1   -1    0    0  501    0 -0.00000000000E+00 -0.00000000000E+00 -0.15888823893E+02  0.15888823893E+02  0.00000000000E+00 0. -1.
          2    1    1    2  501    0  0.22237536921E+02 -0.12180790740E+02  0.12687577805E+03  0.12938447653E+03  0.00000000000E+00 0. -1.
          1    1    1    2  502    0 -0.22237536921E+02  0.12180790740E+02 -0.36521926324E+01  0.25616756672E+02  0.00000000000E+00 0. -1.
</event>
<event>
 4    1  0.3664744E+003  0.2526888E+02  0.7546771E-02  0.1465818E+00
          2   -1    0    0  502    0  0.00000000000E+00  0.00000000000E+00  0.31369794407E+03  0.31369794407E+03  0.00000000000E+00 0. -1.
          1   -1    0    0  501    0 -0.00000000000E+00 -0.00000000000E+00 -0.74284024333E+01  0.74284024333E+01  0.00000000000E+00 0.  1.
          2    1    1    2  501    0  0.83515135242E+01  0.23848872092E+02  0.28994278090E+03  0.29104180572E+03  0.00000000000E+00 0. -1.
          1    1    1    2  502    0 -0.83515135242E+01 -0.23848872092E+02  0.16326760736E+02  0.30084540786E+02  0.00000000000E+00 0.  1.
</event>
<event>
 4    1  0.3989660E+003  0.2272163E+02  0.7546771E-02  0.1496024E+00
          2   -1    0    0  502    0  0.00000000000E+00  0.00000000000E+00  0.11395835634E+04  0.11395835634E+04  0.00000000000E+00 0. -1.
          1   -1    0    0  501    0 -0.00000000000E+00 -0.00000000000E+00 -0.51522933870E+03  0.51522933870E+03  0.00000000000E+00 0.  1.
          2    1    1    2  501    0 -0.91879501721E+01 -0.20781101851E+02  0.11392197181E+04  0.11394462860E+04  0.00000000000E+00 0. -1.
          1    1    1    2  502    0  0.91879501721E+01  0.20781101851E+02 -0.51486549342E+03  0.51536661605E+03  0.00000000000E+00 0.  1.
</event>
<event>
 4    1  0.3664744E+003  0.2912283E+02  0.7546771E-02  0.1427375E+00
          2   -1    0    0  502    0  0.00000000000E+00  0.00000000000E+00  0.58706735753E+02  0.58706735753E+02  0.00000000000E+00 0.  1.
          1   -1    0    0  501    0 -0.00000000000E+00 -0.00000000000E+00 -0.33056036487E+03  0.33056036487E+03  0.00000000000E+00 0.  1.
          2    1    1    2  501    0  0.10348955387E+02  0.27222015586E+02  0.54406018121E+02  0.61710240787E+02  0.00000000000E+00 0.  1.
          1    1    1    2  502    0 -0.10348955387E+02 -0.27222015586E+02 -0.32625964724E+03  0.32755685984E+03  0.00000000000E+00 0.  1.
</event>
<event>
 4    1  0.3664744E+003  0.3111799E+02  0.7546771E-02  0.1410124E+00
          2   -1    0    0  502    0  0.00000000000E+00  0.00000000000E+00  0.57629176998E+02  0.57629176998E+02  0.00000000000E+00 0. -1.
          1   -1    0    0  501    0 -0.00000000000E+00 -0.00000000000E+00 -0.28495197648E+03  0.28495197648E+03  0.00000000000E+00 0.  1.
          2    1    1    2  501    0  0.30137918191E+02 -0.77482428276E+01  0.52502202583E+02  0.61031226892E+02  0.00000000000E+00 0. -1.
          1    1    1    2  502    0 -0.30137918191E+02  0.77482428276E+01 -0.27982500206E+03  0.28154992659E+03  0.00000000000E+00 0.  1.
</event>
<event>
 4    1  0.3664744E+003  0.2132244E+02  0.7546771E-02  0.1514711E+00
          2   -1    0    0  502    0  0.00000000000E+00  0.00000000000E+00  0.75440600080E+01  0.75440600080E+01  0.00000000000E+00 0.  1.
          1   -1    0    0  501    0 -0.00000000000E+00 -0.00000000000E+00 -0.14678111398E+03  0.14678111398E+03  0.00000000000E+00 0. -1.
          2    1    1    2  501    0  0.20280825752E+02 -0.65828877355E+01 -0.10377985668E+02  0.23713896572E+02  0.00000000000E+00 0.  1.
          1    1    1    2  502    0 -0.20280825752E+02  0.65828877355E+01 -0.12885906831E+03  0.13061127742E+03  0.00000000000E+00 0. -1.
</event>
<event>
 4    1  0.3664744E+003  0.2982590E+02  0.7546771E-02  0.1421116E+00
          2   -1    0    0  502    0  0.00000000000E+00  0.00000000000E+00  0.44840825169E+01  0.44840825169E+01  0.00000000000E+00 0.  1.
          1   -1    0    0  501    0 -0.00000000000E+00 -0.00000000000E+00 -0.22969129496E+03  0.22969129496E+03  0.00000000000E+00 0.  1.
          2    1    1    2  501    0 -0.42207952355E+01 -0.29525735330E+02 -0.69378090379E+02  0.75517571358E+02  0.00000000000E+00 0.  1.
          1    1    1    2  502    0  0.42207952355E+01  0.29525735330E+02 -0.15582912207E+03  0.15865780612E+03  0.00000000000E+00 0.  1.
</event>
<event>
 4    1  0.3664744E+003  0.2184482E+02  0.7546771E-02  0.1507536E+00
          2   -1    0    0  502    0  0.00000000000E+00  0.00000000000E+00  0.14854766489E+03  0.14854766489E+03  0.00000000000E+00 0. -1.
          1   -1    0    0  501    0 -0.00000000000E+00 -0.00000000000E+00 -0.78174070452E+01  0.78174070452E+01  0.00000000000E+00 0.  1.
          2    1    1    2  501    0 -0.86096398622E+00 -0.21827850787E+02  0.13037089231E+03  0.13218837275E+03  0.00000000000E+00 0. -1.
          1    1    1    2  502    0  0.86096398622E+00  0.21827850787E+02  0.10359365529E+02  0.24176699178E+02  0.00000000000E+00 0.  1.
</event>
<event>
 4    1  0.3664744E+003  0.2031595E+02  0.7546771E-02  0.1529259E+00
          2   -1    0    0  502    0  0.00000000000E+00  0.00000000000E+00  0.55187191417E+01  0.55187191417E+01  0.00000000000E+00 0.  1.
          1   -1    0    0  501    0 -0.00000000000E+00 -0.00000000000E+00 -0.10260799484E+03  0.10260799484E+03  0.00000000000E+00 0. -1.
          2    1    1    2  501    0  0.66295537705E+01  0.19203828304E+02 -0.20394195692E+02  0.28786476385E+02  0.00000000000E+00 0.  1.
          1    1    1    2  502    0 -0.66295537705E+01 -0.19203828304E+02 -0.76695080006E+02  0.79340237596E+02  0.00000000000E+00 0. -1.
</event>
<event>
 4    1  0.3664744E+003  0.3382735E+02  0.7546771E-02  0.1389000E+00
          2   -1    0    0  502    0  0.00000000000E+00  0.00000000000E+00  0.10218905634E+04  0.10218905634E+04  0.00000000000E+00 0.  1.
          1   -1    0    0  501    0 -0.00000000000E+00 -0.00000000000E+00 -0.26378279846E+01  0.26378279846E+01  0.00000000000E+00 0.  1.
          2    1    1    2  501    0  0.24533934692E+02  0.23288954302E+02  0.89823636979E+03  0.89887310859E+03  0.00000000000E+00 0.  1.
          1    1    1    2  502    0 -0.24533934692E+02 -0.23288954302E+02  0.12101636568E+03  0.12565528284E+03  0.00000000000E+00 0.  1.
</event>
<event>
 4    1  0.3664744E+003  0.2604555E+02  0.7546771E-02  0.1457439E+00
          2   -1    0    0  502    0  0.00000000000E+00  0.00000000000E+00  0.17686762527E+02  0.17686762527E+02  0.00000000000E+00 0.  1.
          1   -1    0    0  501    0 -0.00000000000E+00 -0.00000000000E+00 -0.26660023923E+03  0.26660023923E+03  0.00000000000E+00 0.  1.
          2    1    1    2  501    0  0.18307561852E+02 -0.18525756355E+02  0.70651057238E+01  0.26986778028E+02  0.00000000000E+00 0.  1.
          1    1    1    2  502    0 -0.18307561852E+02  0.18525756355E+02 -0.25597858243E+03  0.25730022373E+03  0.00000000000E+00 0.  1.
</event>
<event>
 4    1  0.3664744E+003  0.2282996E+02  0.7546771E-02  0.1494644E+00
          2   -1    0    0  502    0  0.00000000000E+00  0.00000000000E+00  0.71678723201E+00  0.71678723201E+00  0.00000000000E+00 0.  1.
          1   -1    0    0  501    0 -0.00000000000E+00 -0.00000000000E+00 -0.73062334392E+03  0.73062334392E+03  0.00000000000E+00 0.  1.
          2    1    1    2  501    0  0.10478875562E+02 -0.20283002745E+02 -0.33971643741E+03  0.34048269395E+03  0.00000000000E+00 0.  1.
          1    1    1    2  502    0 -0.10478875562E+02  0.20283002745E+02 -0.39019011928E+03  0.39085743721E+03  0.00000000000E+00 0.  1.
</event>
<event>
 4    1  0.3664744E+003  0.2061841E+02  0.7546771E-02  0.1524783E+00
          2   -1    0    0  502    0  0.00000000000E+00  0.00000000000E+00  0.41577381190E+03  0.41577381190E+03  0.00000000000E+00 0. -1.
          1   -1    0    0  501    0 -0.00000000000E+00 -0.00000000000E+00 -0.99186794610E+01  0.99186794610E+01  0.00000000000E+00 0.  1.
          2    1    1    2  501    0  0.40116890375E+01  0.20224373114E+02  0.40450476688E+03  0.40502990673E+03  0.00000000000E+00 0. -1.
          1    1    1    2  502    0 -0.40116890375E+01 -0.20224373114E+02  0.13503655665E+01  0.20662584639E+02  0.00000000000E+00 0.  1.
</event>
<event>
 4    1  0.3664744E+003  0.2581441E+02  0.7546771E-02  0.1459895E+00
          2   -1    0    0  502    0  0.00000000000E+00  0.00000000000E+00  0.13532591127E+04  0.13532591127E+04  0.00000000000E+00 0. -1.
          1   -1    0    0  501    0 -0.00000000000E+00 -0.00000000000E+00 -0.81702393669E+00  0.81702393669E+00  0.00000000000E+00 0. -1.
          2    1    1    2  501    0  0.12678619421E+02  0.22486363847E+02  0.11029642445E+04  0.11032662909E+04  0.00000000000E+00 0. -1.
          1    1    1    2  502    0 -0.12678619421E+02 -0.22486363847E+02  0.24947784423E+03  0.25080984572E+03  0.00000000000E+00 0. -1.
</event>
<event>
 4    1  0.3664744E+003  0.2192515E+02  0.7546771E-02  0.1506455E+00
          2   -1    0    0  502    0  0.00000000000E+00  0.00000000000E+00  0.13454265665E+02  0.13454265665E+02  0.00000000000E+00 0.  1.
          1   -1    0    0  501    0 -0.00000000000E+00 -0.00000000000E+00 -0.14720800339E+03  0.14720800339E+03  0.00000000000E+00 0. -1.
          2    1    1    2  501    0 -0.21676797334E+02  0.32906968953E+01  0.30290643153E+01  0.22133401441E+02  0.00000000000E+00 0.  1.
          1    1    1    2  502    0  0.21676797334E+02 -0.32906968953E+01 -0.13678280204E+03  0.13852886762E+03  0.00000000000E+00 0. -1.
</event>
<event>
 4    1  0.3664744E+003  0.2296097E+02  0.7546771E-02  0.1492989E+00
          2   -1    0    0  502    0  0.00000000000E+00  0.00000000000E+00  0.67936804338E+03  0.67936804338E+03  0.00000000000E+00 0.  1.
          1   -1    0    0  501    0 -0.00000000000E+00 -0.00000000000E+00 -0.18409710318E+02  0.18409710318E+02  0.00000000000E+00 0.  1.
          2    1    1    2  501    0 -0.19390921869E+02 -0.12296276826E+02  0.67193551764E+03  0.67232770740E+03  0.00000000000E+00 0.  1.
          1    1    1    2  502    0  0.19390921869E+02  0.12296276826E+02 -0.10977184585E+02  0.25450046289E+02  0.00000000000E+00 0.  1.
</event>
<event>
 4    1  0.3664744E+003  0.3115983E+02  0.7546771E-02  0.1409778E+00
          2   -1    0    0  502    0  0.00000000000E+00  0.00000000000E+00  0.60649927165E+03  0.60649927165E+03  0.00000000000E+00 0.  1.
          1   -1    0    0  501    0 -0.00000000000E+00 -0.00000000000E+00 -0.31224411393E+02  0.31224411393E+02  0.00000000000E+00 0.  1.
          2    1    1    2  501    0  0.24947381600E+02 -0.18669845045E+02  0.59821765870E+03  0.59902863216E+03  0.00000000000E+00 0.  1.
          1    1    1    2  502    0 -0.24947381600E+02  0.18669845045E+02 -0.22942798443E+02  0.38695050886E+02  0.00000000000E+00 0.  1.
</event>
<event>
 4    1  0.3664744E+003  0.2942669E+02  0.7546771E-02  0.1424645E+00
          2   -1    0    0  502    0  0.00000000000E+00  0.00000000000E+00  0.93144224769E+03  0.93144224769E+03  0.00000000000E+00 0.  1.
          1   -1    0    0  501    0 -0.00000000000E+00 -0.00000000000E+00 -0.27237687013E+01  0.27237687013E+01  0.00000000000E+00 0. -1.
          2    1    1    2  501    0  0.18365570923E+02 -0.22992083946E+02  0.84344076098E+03  0.84395393678E+03  0.00000000000E+00 0.  1.
          1    1    1    2  502    0 -0.18365570923E+02  0.22992083946E+02  0.85277718008E+02  0.90212079614E+02  0.00000000000E+00 0. -1.
</event>
<event>
 4    1  0.3664744E+003  0.2960867E+02  0.7546771E-02  0.1423028E+00
          2   -1    0    0  502    0  0.00000000000E+00  0.00000000000E+00  0.37532222057E+02  0.37532222057E+02  0.00000000000E+00 0.  1.
          1   -1    0    0  501    0 -0.00000000000E+00 -0.00000000000E+00 -0.12053046712E+04  0.12053046712E+04  0.00000000000E+00 0.  1.
          2    1    1    2  501    0 -0.36092979793E+01  0.29387862724E+02  0.31481454871E+02  0.43217537045E+02  0.00000000000E+00 0.  1.
          1    1    1    2  502    0  0.36092979793E+01 -0.29387862724E+02 -0.11992539040E+04  0.11996193562E+04  0.00000000000E+00 0.  1.
</event>
<event>
 4    1  0.3664744E+003  0.4517860E+02  0.7546771E-02  0.1320549E+00
          2   -1    0    0  502    0  0.00000000000E+00  0.00000000000E+00  0.13278383426E+03  0.13278383426E+03  0.00000000000E+00 0. -1.
          1   -1    0    0  501    0 -0.00000000000E+00 -0.00000000000E+00 -0.66497213001E+02  0.66497213001E+02  0.00000000000E+00 0.  1.
          2    1    1    2  501    0 -0.14528006696E+02  0.42778996795E+02  0.12051150608E+03  0.12870170412E+03  0.00000000000E+00 0. -1.
          1    1    1    2  502    0  0.14528006696E+02 -0.42778996795E+02 -0.54224884818E+02  0.70579343146E+02  0.00000000000E+00 0.  1.
</event>
<event>
 4    1  0.3664744E+003  0.5718305E+02  0.7546771E-02  0.1269716E+00
          2   -1    0    0  502    0  0.00000000000E+00  0.00000000000E+00  0.76237965982E+02  0.76237965982E+02  0.00000000000E+00 0. -1.
          1   -1    0    0  501    0 -0.00000000000E+00 -0.00000000000E+00 -0.23420728053E+03  0.23420728053E+03  0.00000000000E+00 0. -1.
          2    1    1    2  501    0  0.51844479118E+02 -0.24125735614E+02  0.61306761437E+02  0.83835673384E+02  0.00000000000E+00 0. -1.
          1    1    1    2  502    0 -0.51844479118E+02  0.24125735614E+02 -0.21927607599E+03  0.22660957313E+03  0.00000000000E+00 0. -1.
</event>
<event>
 4    1  0.3664744E+003  0.2713475E+02  0.7546771E-02  0.1446259E+00
          2   -1    0    0  502    0  0.00000000000E+00  0.00000000000E+00  0.95970089723E+03  0.95970089723E+03  0.00000000000E+00 0. -1.
          1   -1    0    0  501    0 -0.00000000000E+00 -0.00000000000E+00 -0.18782816187E+02  0.18782816187E+02  0.00000000000E+00 0. -1.
          2    1    1    2  501    0 -0.18326692372E+02 -0.20010674582E+02  0.94960481046E+03  0.94999241618E+03  0.00000000000E+00 0. -1.
          1    1    1    2  502    0  0.18326692372E+02  0.20010674582E+02 -0.86867294145E+01  0.28491297241E+02  0.00000000000E+00 0. -1.
</event>
<event>
 4    1  0.3664744E+003  0.2045901E+02  0.7546771E-02  0.1527131E+00
          2   -1    0    0  502    0  0.00000000000E+00  0.00000000000E+00  0.38452168232E+02  0.38452168232E+02  0.00000000000E+00 0. -1.
          1   -1    0    0  501    0 -0.00000000000E+00 -0.00000000000E+00 -0.72981954773E+03  0.72981954773E+03  0.00000000000E+00 0.  1.
          2    1    1    2  501    0 -0.11087666486E+02 -0.17194032141E+02  0.35576648832E+02  0.41039846875E+02  0.00000000000E+00 0. -1.
          1    1    1    2  502    0  0.11087666486E+02  0.17194032141E+02 -0.72694402834E+03  0.72723186909E+03  0.00000000000E+00 0.  1.
</event>
<event>
 4    1  0.3664744E+003  0.2963016E+02  0.7546771E-02  0.1422838E+00
          2   -1    0    0  502    0  0.00000000000E+00  0.00000000000E+00  0.83047992534E+03  0.83047992534E+03  0.00000000000E+00 0.  1.
          1   -1    0    0  501    0 -0.00000000000E+00 -0.00000000000E+00 -0.90099389234E+01  0.90099389234E+01  0.00000000000E+00 0. -1.
          2    1    1    2  501    0  0.27411075521E+02 -0.11250750328E+02  0.80508705412E+03  0.80563211900E+03  0.00000000000E+00 0.  1.
          1    1    1    2  502    0 -0.27411075521E+02  0.11250750328E+02  0.16382932300E+02  0.33857745272E+02  0.00000000000E+00 0. -1.
</event>
<event>
 4    1  0.3664744E+003  0.5123237E+02  0.7546771E-02  0.1292916E+00
          2   -1    0    0  502    0  0.00000000000E+00  0.00000000000E+00  0.45408331588E+03  0.45408331588E+03  0.00000000000E+00 0. -1.
          1   -1    0    0  501    0 -0.00000000000E+00 -0.00000000000E+00 -0.31068730433E+02  0.31068730433E+02  0.00000000000E+00 0. -1.
          2    1    1    2  501    0  0.44256897543E+02  0.25808584163E+02  0.43035737368E+03  0.43339615259E+03  0.00000000000E+00 0. -1.
          1    1    1    2  502    0 -0.44256897543E+02 -0.25808584163E+02 -0.73427882309E+01  0.51755893729E+02  0.00000000000E+00 0. -1.
</event>
<event>
 4    1  0.3664744E+003  0.2930067E+02  0.7546771E-02  0.1425772E+00
          2   -1    0    0  502    0  0.00000000000E+00  0.00000000000E+00  0.27287123645E+02  0.27287123645E+02  0.00000000000E+00 0. -1.
          1   -1    0    0  501    0 -0.00000000000E+00 -0.00000000000E+00 -0.31770977258E+02  0.31770977258E+02  0.00000000000E+00 0. -1.
          2    1    1    2  501    0 -0.12557845231E+02  0.26473190097E+02  0.66634906664E+00  0.29308246141E+02  0.00000000000E+00 0. -1.
          1    1    1    2  502    0  0.12557845231E+02 -0.26473190097E+02 -0.51502026796E+01  0.29749854763E+02  0.00000000000E+00 0. -1.
</event>
<event>
 4    1  0.3664744E+003  0.2236939E+02  0.7546771E-02  0.1500572E+00
          2   -1    0    0  502    0  0.00000000000E+00  0.00000000000E+00  0.36119223796E+03  0.36119223796E+03  0.00000000000E+00 0. -1.
          1   -1    0    0  501    0 -0.00000000000E+00 -0.00000000000E+00 -0.14485734432E+01  0.14485734432E+01  0.00000000000E+00 0.  1.
          2    1    1    2  501    0 -0.14262924503E+01  0.22323873428E+02  0.21774238634E+03  0.21888841094E+03  0.00000000000E+00 0. -1.
          1    1    1    2  502    0  0.14262924503E+01 -0.22323873428E+02  0.14200127818E+03  0.14375240047E+03  0.00000000000E+00 0.  1.
</event>
<event>
 4    1  0.3664744E+003  0.5098553E+02  0.7546771E-02  0.1293955E+00
          2   -1    0    0  502    0  0.00000000000E+00  0.00000000000E+00  0.10683025374E+04  0.10683025374E+04  0.00000000000E+00 0. -1.
          1   -1    0    0  501    0 -0.00000000000E+00 -0.00000000000E+00 -0.30799677030E+02  0.30799677030E+02  0.00000000000E+00 0. -1.
          2    1    1    2  501    0 -0.50778281277E+02  0.45924162368E+01  0.10461473586E+04  0.10473890490E+04  0.00000000000E+00 0. -1.
          1    1    1    2  502    0  0.50778281277E+02 -0.45924162368E+01 -0.86444981380E+01  0.51713165484E+02  0.00000000000E+00 0. -1.
</event>
<event>
 4    1  0.3664744E+003  0.3819348E+02  0.7546771E-02  0.1359410E+00
          2   -1    0    0  502    0  0.00000000000E+00  0.00000000000E+00  0.42484954824E+02  0.42484954824E+02  0.00000000000E+00 0.  1.
          1   -1    0    0  501    0 -0.00000000000E+00 -0.00000000000E+00 -0.13112253454E+03  0.13112253454E+03  0.00000000000E+00 0. -1.
          2    1    1    2  501    0 -0.90510580881E+01  0.37105528511E+02  0.30258809470E+02  0.48727173622E+02  0.00000000000E+00 0.  1.
          1    1    1    2  502    0  0.90510580881E+01 -0.37105528511E+02 -0.11889638919E+03  0.12488031575E+03  0.00000000000E+00 0. -1.
</event>
<event>
 4    1  0.3664744E+003  0.2204330E+02  0.7546771E-02  0.1504874E+00
          2   -1    0    0  502    0  0.00000000000E+00  0.00000000000E+00  0.90309854952E+03  0.90309854952E+03  0.00000000000E+00 0.  1.
          1   -1    0    0  501    0 -0.00000000000E+00 -0.00000000000E+00 -0.11262603342E+01  0.11262603342E+01  0.00000000000E+00 0. -1.
          2    1    1    2  501    0  0.95943017305E+01 -0.19845816558E+02  0.77772098330E+03  0.77803331223E+03  0.00000000000E+00 0.  1.
          1    1    1    2  502    0 -0.95943017305E+01  0.19845816558E+02  0.12425130588E+03  0.12619149762E+03  0.00000000000E+00 0. -1.
</event>
<event>
 4    1  0.3664744E+003  0.3211072E+02  0.7546771E-02  0.1402099E+00
          2   -1    0    0  502    0  0.00000000000E+00  0.00000000000E+00  0.24284234425E+03  0.24284234425E+03  0.00000000000E+00 0. -1.
          1   -1    0    0  501    0 -0.00000000000E+00 -0.00000000000E+00 -0.21002777673E+02  0.21002777673E+02  0.00000000000E+00 0.  1.
          2    1    1    2  501    0  0.19149922232E+02 -0.25775543396E+02  0.22875538302E+03  0.23099810263E+03  0.00000000000E+00 0. -1.
          1    1    1    2  502    0 -0.19149922232E+02  0.25775543396E+02 -0.69158164477E+01  0.32847019286E+02  0.00000000000E+00 0.  1.
</event>
<event>
 4    1  0.3664744E+003  0.3098511E+02  0.7546771E-02  0.1411225E+00
          2   -1    0    0  502    0  0.00000000000E+00  0.00000000000E+00  0.43776092945E+01  0.43776092945E+01  0.00000000000E+00 0. -1.
          1   -1    0    0  501    0 -0.00000000000E+00 -0.00000000000E+00 -0.28712695905E+03  0.28712695905E+03  0.00000000000E+00 0. -1.
          2    1    1    2  501    0  0.28801513430E+02  0.11425829175E+02 -0.70542507585E+02  0.77047531593E+02  0.00000000000E+00 0. -1.
          1    1    1    2  502    0 -0.28801513430E+02 -0.11425829175E+02 -0.21220684217E+03  0.21445703675E+03  0.00000000000E+00 0. -1.
</event>
<event>
 4    1  0.3664744E+003  0.2554392E+02  0.7546771E-02  0.1462810E+00
          2   -1    0    0  502    0  0.00000000000E+00  0.00000000000E+00  0.75574786404E+03  0.75574786404E+03  0.00000000000E+00 0. -1.
          1   -1    0    0  501    0 -0.00000000000E+00 -0.00000000000E+00 -0.48930443263E+01  0.48930443263E+01  0.00000000000E+00 0. -1.
          2    1    1    2  501    0 -0.18038930721E+01  0.25480148737E+02  0.72056712891E+03  0.72101974957E+03  0.00000000000E+00 0. -1.
          1    1    1    2  502    0  0.18038930721E+01 -0.25480148737E+02  0.30287690806E+02  0.39621158795E+02  0.00000000000E+00 0. -1.
</event>
<event>
 4    1  0.3664744E+003  0.2119961E+02  0.7546771E-02  0.1516434E+00
          2   -1    0    0  502    0  0.00000000000E+00  0.00000000000E+00  0.15137764113E+03  0.15137764113E+03  0.00000000000E+00 0. -1.
          1   -1    0    0  501    0 -0.00000000000E+00 -0.00000000000E+00 -0.30692146632E+01  0.30692146632E+01  0.00000000000E+00 0.  1.
          2    1    1    2  501    0  0.47170889025E+01  0.20668156637E+02  0.88115917017E+02  0.90630229274E+02  0.00000000000E+00 0. -1.
          1    1    1    2  502    0 -0.47170889025E+01 -0.20668156637E+02  0.60192509451E+02  0.63816626520E+02  0.00000000000E+00 0.  1.
</event>
<event>
 4    1  0.3664744E+003  0.3208853E+02  0.7546771E-02  0.1402275E+00
          2   -1    0    0  502    0  0.00000000000E+00  0.00000000000E+00  0.57197665857E+03  0.57197665857E+03  0.00000000000E+00 0.  1.
          1   -1    0    0  501    0 -0.00000000000E+00 -0.00000000000E+00 -0.29557560437E+01  0.29557560437E+01  0.00000000000E+00 0.  1.
          2    1    1    2  501    0 -0.31282581677E+02 -0.71465896973E+01  0.46425163277E+03  0.46535927216E+03  0.00000000000E+00 0.  1.
          1    1    1    2  502    0  0.31282581677E+02  0.71465896973E+01  0.10476926976E+03  0.10957314245E+03  0.00000000000E+00 0.  1.
</event>
<event>
 4    1  0.3664744E+003  0.2094691E+02  0.7546771E-02  0.1520024E+00
          2   -1    0    0  502    0  0.00000000000E+00  0.00000000000E+00  0.21195470981E+03  0.21195470981E+03  0.00000000000E+00 0.  1.
          1   -1    0    0  501    0 -0.00000000000E+00 -0.00000000000E+00 -0.13938206595E+02  0.13938206595E+02  0.00000000000E+00 0.  1.
          2    1    1    2  501    0 -0.15916645189E+02 -0.13617390293E+02  0.20323025456E+03  0.20430689973E+03  0.00000000000E+00 0.  1.
          1    1    1    2  502    0  0.15916645189E+02  0.13617390293E+02 -0.52137513439E+01  0.21586016667E+02  0.00000000000E+00 0.  1.
</event>
<event>
 4    1  0.3664744E+003  0.8205763E+02  0.7546771E-02  0.1199150E+00
          2   -1    0    0  502    0  0.00000000000E+00  0.00000000000E+00  0.16375249553E+04  0.16375249553E+04  0.00000000000E+00 0. -1.
          1   -1    0    0  501    0 -0.00000000000E+00 -0.00000000000E+00 -0.70251715083E+02  0.70251715083E+02  0.00000000000E+00 0. -1.
          2    1    1    2  501    0 -0.65890735465E+02 -0.48906711054E+02  0.16121582858E+04  0.16142452707E+04  0.00000000000E+00 0. -1.
          1    1    1    2  502    0  0.65890735465E+02  0.48906711054E+02 -0.44885045615E+02  0.93531399680E+02  0.00000000000E+00 0. -1.
</event>
<event>
 4    1  0.3664744E+003  0.2148342E+02  0.7546771E-02  0.1512473E+00
          2   -1    0    0  502    0  0.00000000000E+00  0.00000000000E+00  0.23656661744E+03  0.23656661744E+03  0.00000000000E+00 0.  1.
          1   -1    0    0  501    0 -0.00000000000E+00 -0.00000000000E+00 -0.23522037357E+03  0.23522037357E+03  0.00000000000E+00 0. -1.
          2    1    1    2  501    0  0.18106833439E+02 -0.11562011481E+02  0.23558629725E+03  0.23656382009E+03  0.00000000000E+00 0.  1.
          1    1    1    2  502    0 -0.18106833439E+02  0.11562011481E+02 -0.23424005338E+03  0.23522317092E+03  0.00000000000E+00 0. -1.
</event>
<event>
 4    1  0.3664744E+003  0.2084605E+02  0.7546771E-02  0.1521474E+00
          2   -1    0    0  502    0  0.00000000000E+00  0.00000000000E+00  0.28751102099E+03  0.28751102099E+03  0.00000000000E+00 0.  1.
          1   -1    0    0  501    0 -0.00000000000E+00 -0.00000000000E+00 -0.15630000752E+01  0.15630000752E+01  0.00000000000E+00 0. -1.
          2    1    1    2  501    0 -0.20721151231E+02  0.22785142011E+01  0.16922380461E+03  0.17050294361E+03  0.00000000000E+00 0.  1.
          1    1    1    2  502    0  0.20721151231E+02 -0.22785142011E+01  0.11672421631E+03  0.11857107745E+03  0.00000000000E+00 0. -1.
</event>
<event>
 4    1  0.3664744E+003  0.2004680E+02  0.7546771E-02  0.1533321E+00
          2   -1    0    0  502    0  0.00000000000E+00  0.00000000000E+00  0.90563398357E+03  0.90563398357E+03  0.00000000000E+00 0. -1.
          1   -1    0    0  501    0 -0.00000000000E+00 -0.00000000000E+00 -0.21794096121E+01  0.21794096121E+01  0.00000000000E+00 0.  1.
          2    1    1    2  501    0 -0.19767914952E+02  0.33322157966E+01  0.85679681139E+03  0.85703130055E+03  0.00000000000E+00 0. -1.
          1    1    1    2  502    0  0.19767914952E+02 -0.33322157966E+01  0.46657762567E+02  0.50782092625E+02  0.00000000000E+00 0.  1.
</event>
<event>
 4    1  0.3664744E+003  0.2864718E+02  0.7546771E-02  0.1431728E+00
          2   -1    0    0  502    0  0.00000000000E+00  0.00000000000E+00  0.14549829007E+02  0.14549829007E+02  0.00000000000E+00 0.  1.
          1   -1    0    0  501    0 -0.00000000000E+00 -0.00000000000E+00 -0.16220725572E+03  0.16220725572E+03  0.00000000000E+00 0.  1.
          2    1    1    2  501    0  0.28578804426E+02  0.19780582496E+01 -0.24510528798E+01  0.28751842325E+02  0.00000000000E+00 0.  1.
          1    1    1    2  502    0 -0.28578804426E+02 -0.19780582496E+01 -0.14520637383E+03  0.14800524240E+03  0.00000000000E+00 0.  1.
</event>
<event>
 4    1  0.3664744E+003  0.2704254E+02  0.7546771E-02  0.1447181E+00
          2   -1    0    0  502    0  0.00000000000E+00  0.00000000000E+00  0.41074643272E+02  0.41074643272E+02  0.00000000000E+00 0.  1.
          1   -1    0    0  501    0 -0.00000000000E+00 -0.00000000000E+00 -0.86617259452E+02  0.86617259452E+02  0.00000000000E+00 0.  1.
          2    1    1    2  501    0 -0.19765507113E+02 -0.18455998725E+02  0.34135828137E+02  0.43549442281E+02  0.00000000000E+00 0.  1.
          1    1    1    2  502    0  0.19765507113E+02  0.18455998725E+02 -0.79678444317E+02  0.84142460442E+02  0.00000000000E+00 0.  1.
</event>
<event>
 4    1  0.3664744E+003  0.2291329E+02  0.7546771E-02  0.1493590E+00
          2   -1    0    0  502    0  0.00000000000E+00  0.00000000000E+00  0.11189211120E+01  0.11189211120E+01  0.00000000000E+00 0. -1.
          1   -1    0    0  501    0 -0.00000000000E+00 -0.00000000000E+00 -0.51278196790E+03  0.51278196790E+03  0.00000000000E+00 0.  1.
          2    1    1    2  501    0  0.21740168204E+02 -0.72376815363E+01 -0.18093836151E+03  0.18238341376E+03  0.00000000000E+00 0. -1.
          1    1    1    2  502    0 -0.21740168204E+02  0.72376815363E+01 -0.33072468527E+03  0.33151747525E+03  0.00000000000E+00 0.  1.
</event>
<event>
 4    1  0.3664744E+003  0.4470625E+02  0.7546771E-02  0.1322915E+00
          2   -1    0    0  502    0  0.00000000000E+00  0.00000000000E+00  0.41543089036E+03  0.41543089036E+03  0.00000000000E+00 0. -1.
          1   -1    0    0  501    0 -0.00000000000E+00 -0.00000000000E+00 -0.12567829890E+03  0.12567829890E+03  0.00000000000E+00 0.  1.
          2    1    1    2  501    0  0.20434327957E+02  0.39762882187E+02  0.41020188017E+03  0.41263086537E+03  0.00000000000E+00 0. -1.
          1    1    1    2  502    0 -0.20434327957E+02 -0.39762882187E+02 -0.12044928871E+03  0.12847832389E+03  0.00000000000E+00 0.  1.
</event>
<event>
 4    1  0.3664744E+003  0.2428868E+02  0.7546771E-02  0.1476921E+00
          2   -1    0    0  502    0  0.00000000000E+00  0.00000000000E+00  0.14072959650E+03  0.14072959650E+03  0.00000000000E+00 0.  1.
          1   -1    0    0  501    0 -0.00000000000E+00 -0.00000000000E+00 -0.48512007604E+01  0.48512007604E+01  0.00000000000E+00 0. -1.
          2    1    1    2  501    0  0.23676240967E+02  0.54199254749E+01  0.94771305620E+02  0.97834249358E+02  0.00000000000E+00 0.  1.
          1    1    1    2  502    0 -0.23676240967E+02 -0.54199254749E+01  0.41107090115E+02  0.47746547898E+02  0.00000000000E+00 0. -1.
</event>
<event>
 4    1  0.3664744E+003  0.2206662E+02  0.7546771E-02  0.1504563E+00
          2   -1    0    0  502    0  0.00000000000E+00  0.00000000000E+00  0.36990827234E+03  0.36990827234E+03  0.00000000000E+00 0. -1.
          1   -1    0    0  501    0 -0.00000000000E+00 -0.00000000000E+00 -0.41586816414E+01  0.41586816414E+01  0.00000000000E+00 0.  1.
          2    1    1    2  501    0  0.19858868523E+02  0.96208562569E+01  0.33749900209E+03  0.33821962087E+03  0.00000000000E+00 0. -1.
          1    1    1    2  502    0 -0.19858868523E+02 -0.96208562569E+01  0.28250588617E+02  0.35847333113E+02  0.00000000000E+00 0.  1.
</event>
<event>
 4    1  0.3664744E+003  0.2564252E+02  0.7546771E-02  0.1461742E+00
          2   -1    0    0  502    0  0.00000000000E+00  0.00000000000E+00  0.64673671389E+01  0.64673671389E+01  0.00000000000E+00 0. -1.
          1   -1    0    0  501    0 -0.00000000000E+00 -0.00000000000E+00 -0.20448708397E+03  0.20448708397E+03  0.00000000000E+00 0. -1.
          2    1    1    2  501    0  0.10212688002E+02 -0.23521053451E+02 -0.24217396051E+02  0.35270685040E+02  0.00000000000E+00 0. -1.
          1    1    1    2  502    0 -0.10212688002E+02  0.23521053451E+02 -0.17380232078E+03  0.17568376607E+03  0.00000000000E+00 0. -1.
</event>
<event>
 4    1  0.3664744E+003  0.2292518E+02  0.7546771E-02  0.1493440E+00
          2   -1    0    0  502    0  0.00000000000E+00  0.00000000000E+00  0.13424415556E+02  0.13424415556E+02  0.00000000000E+00 0. -1.
          1   -1    0    0  501    0 -0.00000000000E+00 -0.00000000000E+00 -0.39714518040E+02  0.39714518040E+02  0.00000000000E+00 0. -1.
          2    1    1    2  501    0  0.19381461649E+02  0.12244290115E+02 -0.99768748289E+01  0.25002034466E+02  0.00000000000E+00 0. -1.
          1    1    1    2  502    0 -0.19381461649E+02 -0.12244290115E+02 -0.16313227655E+02  0.28136899129E+02  0.00000000000E+00 0. -1.
</event>
<event>
 4    1  0.3664744E+003  0.2148655E+02  0.7546771E-02  0.1512430E+00
          2   -1    0    0  502    0  0.00000000000E+00  0.00000000000E+00  0.17411696876E+02  0.17411696876E+02  0.00000000000E+00 0.  1.
          1   -1    0    0  501    0 -0.00000000000E+00 -0.00000000000E+00 -0.52741529778E+02  0.52741529778E+02  0.00000000000E+00 0. -1.
          2    1    1    2  501    0 -0.10647537677E+02  0.18662842335E+02  0.70700555806E+01  0.22619845900E+02  0.00000000000E+00 0.  1.
          1    1    1    2  502    0  0.10647537677E+02 -0.18662842335E+02 -0.42399888482E+02  0.47533380754E+02  0.00000000000E+00 0. -1.
</event>
<event>
 4    1  0.3664744E+003  0.2009546E+02  0.7546771E-02  0.1532581E+00
          2   -1    0    0  502    0  0.00000000000E+00  0.00000000000E+00  0.26968107319E+03  0.26968107319E+03  0.00000000000E+00 0.  1.
          1   -1    0    0  501    0 -0.00000000000E+00 -0.00000000000E+00 -0.11661509648E+03  0.11661509648E+03  0.00000000000E+00 0.  1.
          2    1    1    2  501    0  0.15600980457E+02 -0.12666372058E+02  0.26843698243E+03  0.26918811473E+03  0.00000000000E+00 0.  1.
          1    1    1    2  502    0 -0.15600980457E+02  0.12666372058E+02 -0.11537100572E+03  0.11710805494E+03  0.00000000000E+00 0.  1.
</event>
<event>
 4    1  0.3664744E+003  0.2582525E+02  0.7546771E-02  0.1459779E+00
          2   -1    0    0  502    0  0.00000000000E+00  0.00000000000E+00  0.10349576482E+03  0.10349576482E+03  0.00000000000E+00 0. -1.
          1   -1    0    0  501    0 -0.00000000000E+00 -0.00000000000E+00 -0.12590751879E+04  0.12590751879E+04  0.00000000000E+00 0.  1.
          2    1    1    2  501    0  0.28486672442E+01 -0.25667657484E+02  0.10175006031E+03  0.10497627503E+03  0.00000000000E+00 0. -1.
          1    1    1    2  502    0 -0.28486672442E+01  0.25667657484E+02 -0.12573294834E+04  0.12575946777E+04  0.00000000000E+00 0.  1.
</event>
<event>
 4    1  0.3664744E+003  0.5558686E+02  0.7546771E-02  0.1275612E+00
          2   -1    0    0  502    0  0.00000000000E+00  0.00000000000E+00  0.45860942478E+03  0.45860942478E+03  0.00000000000E+00 0. -1.
          1   -1    0    0  501    0 -0.00000000000E+00 -0.00000000000E+00 -0.29224478460E+03  0.29224478460E+03  0.00000000000E+00 0.  1.
          2    1    1    2  501    0 -0.28362723054E+02  0.47806428157E+02  0.45425656035E+03  0.45764497294E+03  0.00000000000E+00 0. -1.
          1    1    1    2  502    0  0.28362723054E+02 -0.47806428157E+02 -0.28789192018E+03  0.29320923644E+03  0.00000000000E+00 0.  1.
</event>
<event>
 4    1  0.3664744E+003  0.3433581E+02  0.7546771E-02  0.1385294E+00
          2   -1    0    0  502    0  0.00000000000E+00  0.00000000000E+00  0.44101829868E+03  0.44101829868E+03  0.00000000000E+00 0.  1.
          1   -1    0    0  501    0 -0.00000000000E+00 -0.00000000000E+00 -0.61370242657E+03  0.61370242657E+03  0.00000000000E+00 0.  1.
          2    1    1    2  501    0 -0.13770276975E+02 -0.31453574519E+02  0.43986847471E+03  0.44120655358E+03  0.00000000000E+00 0.  1.
          1    1    1    2  502    0  0.13770276975E+02  0.31453574519E+02 -0.61255260261E+03  0.61351417167E+03  0.00000000000E+00 0.  1.
</event>
<event>
 4    1  0.3664744E+003  0.3373523E+02  0.7546771E-02  0.1389680E+00
          2   -1    0    0  502    0  0.00000000000E+00  0.00000000000E+00  0.14555952982E+03  0.14555952982E+03  0.00000000000E+00 0.  1.
          1   -1    0    0  501    0 -0.00000000000E+00 -0.00000000000E+00 -0.17151271479E+03  0.17151271479E+03  0.00000000000E+00 0.  1.
          2    1    1    2  501    0  0.33733316511E+02 -0.35912663597E+00  0.14190387809E+03  0.14585875439E+03  0.00000000000E+00 0.  1.
          1    1    1    2  502    0 -0.33733316511E+02  0.35912663597E+00 -0.16785706306E+03  0.17121349022E+03  0.00000000000E+00 0.  1.
</event>
<event>
 4    1  0.3664744E+003  0.3501426E+02  0.7546771E-02  0.1380463E+00
          2   -1    0    0  502    0  0.00000000000E+00  0.00000000000E+00  0.25809312228E+04  0.25809312228E+04  0.00000000000E+00 0.  1.
          1   -1    0    0  501    0 -0.00000000000E+00 -0.00000000000E+00 -0.76638561155E+00  0.76638561155E+00  0.00000000000E+00 0.  1.
          2    1    1    2  501    0  0.16876937464E+02 -0.30678449092E+02  0.20860027673E+04  0.20862966096E+04  0.00000000000E+00 0.  1.
          1    1    1    2  502    0 -0.16876937464E+02  0.30678449092E+02  0.49416206993E+03  0.49540099880E+03  0.00000000000E+00 0.  1.
</event>
<event>
 4    1  0.3664744E+003  0.3183176E+02  0.7546771E-02  0.1404319E+00
          2   -1    0    0  502    0  0.00000000000E+00  0.00000000000E+00  0.43058567818E+03  0.43058567818E+03  0.00000000000E+00 0. -1.
          1   -1    0    0  501    0 -0.00000000000E+00 -0.00000000000E+00 -0.12052700650E+02  0.12052700650E+02  0.00000000000E+00 0. -1.
          2    1    1    2  501    0 -0.40352473244E+01  0.31574954165E+02  0.40780795460E+03  0.40904839419E+03  0.00000000000E+00 0. -1.
          1    1    1    2  502    0  0.40352473244E+01 -0.31574954165E+02  0.10725022931E+02  0.33589984643E+02  0.00000000000E+00 0. -1.
</event>
<event>
 4    1  0.3664744E+003  0.3259861E+02  0.7546771E-02  0.1398280E+00
          2   -1    0    0  502    0  0.00000000000E+00  0.00000000000E+00  0.13206634491E+04  0.13206634491E+04  0.00000000000E+00 0.  1.
          1   -1    0    0  501    0 -0.00000000000E+00 -0.00000000000E+00 -0.38033516198E+01  0.38033516198E+01  0.00000000000E+00 0.  1.
          2    1    1    2  501    0 -0.36177208515E+01  0.32397246849E+02  0.12464534331E+04  0.12468796375E+04  0.00000000000E+00 0.  1.
          1    1    1    2  502    0  0.36177208515E+01 -0.32397246849E+02  0.70406664318E+02  0.77587163165E+02  0.00000000000E+00 0.  1.
</event>
<event>
 4    1  0.3664744E+003  0.2580453E+02  0.7546771E-02  0.1460001E+00
          2   -1    0    0  502    0  0.00000000000E+00  0.00000000000E+00  0.61360475824E+03  0.61360475824E+03  0.00000000000E+00 0. -1.
          1   -1    0    0  501    0 -0.00000000000E+00 -0.00000000000E+00 -0.10917972440E+01  0.10917972440E+01  0.00000000000E+00 0. -1.
          2    1    1    2  501    0 -0.25030401575E+02 -0.62731230204E+01  0.28233323707E+03  0.28351001716E+03  0.00000000000E+00 0. -1.
          1    1    1    2  502    0  0.25030401575E+02  0.62731230204E+01  0.33017972392E+03  0.33118653832E+03  0.00000000000E+00 0. -1.
</event>
<event>
 4    1  0.3664744E+003  0.3501086E+02  0.7546771E-02  0.1380487E+00
          2   -1    0    0  502    0  0.00000000000E+00  0.00000000000E+00  0.88654928075E+02  0.88654928075E+02  0.00000000000E+00 0. -1.
          1   -1    0    0  501    0 -0.00000000000E+00 -0.00000000000E+00 -0.14034195345E+02  0.14034195345E+02  0.00000000000E+00 0. -1.
          2    1    1    2  501    0  0.30456189288E+02  0.17267882947E+02  0.31059425535E+02  0.46802213217E+02  0.00000000000E+00 0. -1.
          1    1    1    2  502    0 -0.30456189288E+02 -0.17267882947E+02  0.43561307195E+02  0.55886910203E+02  0.00000000000E+00 0. -1.
</event>
<event>
 4    1  0.3664744E+003  0.2907860E+02  0.7546771E-02  0.1427776E+00
          2   -1    0    0  502    0  0.00000000000E+00  0.00000000000E+00  0.16176407165E+03  0.16176407165E+03  0.00000000000E+00 0.  1.
          1   -1    0    0  501    0 -0.00000000000E+00 -0.00000000000E+00 -0.16334379747E+03  0.16334379747E+03  0.00000000000E+00 0.  1.
          2    1    1    2  501    0  0.16211818068E+02 -0.24140054073E+02  0.15914198639E+03  0.16177681257E+03  0.00000000000E+00 0.  1.
          1    1    1    2  502    0 -0.16211818068E+02  0.24140054073E+02 -0.16072171221E+03  0.16333105654E+03  0.00000000000E+00 0.  1.
</event>
<event>
 4    1  0.3664744E+003  0.2032856E+02  0.7546771E-02  0.1529071E+00
          2   -1    0    0  502    0  0.00000000000E+00  0.00000000000E+00  0.34462960867E+03  0.34462960867E+03  0.00000000000E+00 0.  1.
          1   -1    0    0  501    0 -0.00000000000E+00 -0.00000000000E+00 -0.18019343758E+02  0.18019343758E+02  0.00000000000E+00 0. -1.
          2    1    1    2  501    0 -0.64233091510E+01  0.19287082964E+02  0.33849254477E+03  0.33910242308E+03  0.00000000000E+00 0.  1.
          1    1    1    2  502    0  0.64233091510E+01 -0.19287082964E+02 -0.11882279863E+02  0.23546529350E+02  0.00000000000E+00 0. -1.
</event>
<event>
 4    1  0.3664744E+003  0.2500368E+02  0.7546771E-02  0.1468762E+00
          2   -1    0    0  502    0  0.00000000000E+00  0.00000000000E+00  0.67236606100E+02  0.67236606100E+02  0.00000000000E+00 0. -1.
          1   -1    0    0  501    0 -0.00000000000E+00 -0.00000000000E+00 -0.10335373342E+04  0.10335373342E+04  0.00000000000E+00 0.  1.
          2    1    1    2  501    0 -0.10374019177E+02 -0.22750027215E+02  0.64755221065E+02  0.69414859125E+02  0.00000000000E+00 0. -1.
          1    1    1    2  502    0  0.10374019177E+02  0.22750027215E+02 -0.10310559491E+04  0.10313590811E+04  0.00000000000E+00 0.  1.
</event>
<event>
 4    1  0.3664744E+003  0.2374163E+02  0.7546771E-02  0.1483390E+00
          2   -1    0    0  502    0  0.00000000000E+00  0.00000000000E+00  0.45126679215E+02  0.45126679215E+02  0.00000000000E+00 0. -1.
          1   -1    0    0  501    0 -0.00000000000E+00 -0.00000000000E+00 -0.44958137036E+03  0.44958137036E+03  0.00000000000E+00 0. -1.
          2    1    1    2  501    0  0.22864422495E+02  0.63939868189E+01  0.41666355684E+02  0.47955709561E+02  0.00000000000E+00 0. -1.
          1    1    1    2  502    0 -0.22864422495E+02 -0.63939868189E+01 -0.44612104682E+03  0.44675234001E+03  0.00000000000E+00 0. -1.
</event>
<event>
 4    1  0.3664744E+003  0.2487004E+02  0.7546771E-02  0.1470263E+00
          2   -1    0    0  502    0  0.00000000000E+00  0.00000000000E+00  0.59980177973E+03  0.59980177973E+03  0.00000000000E+00 0. -1.
          1   -1    0    0  501    0 -0.00000000000E+00 -0.00000000000E+00 -0.10454958358E+01  0.10454958358E+01  0.00000000000E+00 0.  1.
          2    1    1    2  501    0  0.23674574524E+02  0.76179525053E+01  0.33450178929E+03  0.33542505231E+03  0.00000000000E+00 0. -1.
          1    1    1    2  502    0 -0.23674574524E+02 -0.76179525053E+01  0.26425449460E+03  0.26542222325E+03  0.00000000000E+00 0.  1.
</event>
<event>
 4    1  0.3664744E+003  0.2712235E+02  0.7546771E-02  0.1446383E+00
          2   -1    0    0  502    0  0.00000000000E+00  0.00000000000E+00  0.21645171274E+03  0.21645171274E+03  0.00000000000E+00 0. -1.
          1   -1    0    0  501    0 -0.00000000000E+00 -0.00000000000E+00 -0.62372647011E+01  0.62372647011E+01  0.00000000000E+00 0.  1.
          2    1    1    2  501    0 -0.23151143577E+02 -0.14129636715E+02  0.18022322705E+03  0.18225266431E+03  0.00000000000E+00 0. -1.
          1    1    1    2  502    0  0.23151143577E+02  0.14129636715E+02  0.29991220991E+02  0.40436313125E+02  0.00000000000E+00 0.  1.
</event>
<event>
 4    1  0.3664744E+003  0.3404075E+02  0.7546771E-02  0.1387435E+00
          2   -1    0    0  502    0  0.00000000000E+00  0.00000000000E+00  0.31427490343E+03  0.31427490343E+03  0.00000000000E+00 0.  1.
          1   -1    0    0  501    0 -0.00000000000E+00 -0.00000000000E+00 -0.58380080569E+03  0.58380080569E+03  0.00000000000E+00 0. -1.
          2    1    1    2  501    0  0.10303196940E+02  0.32444055363E+02  0.31285465560E+03  0.31470114097E+03  0.00000000000E+00 0.  1.
          1    1    1    2  502    0 -0.10303196940E+02 -0.32444055363E+02 -0.58238055786E+03  0.58337456815E+03  0.00000000000E+00 0. -1.
</event>
<event>
 4    1  0.3664744E+003  0.3091356E+02  0.7546771E-02  0.1411820E+00
          2   -1    0    0  502    0  0.00000000000E+00  0.00000000000E+00  0.62283123697E+03  0.62283123697E+03  0.00000000000E+00 0. -1.
          1   -1    0    0  501    0 -0.00000000000E+00 -0.00000000000E+00 -0.22219374983E+02  0.22219374983E+02  0.00000000000E+00 0.  1.
          2    1    1    2  501    0 -0.10927464653E+02  0.28917795552E+02  0.61149603589E+03  0.61227693921E+03  0.00000000000E+00 0. -1.
          1    1    1    2  502    0  0.10927464653E+02 -0.28917795552E+02 -0.10884173902E+02  0.32773672740E+02  0.00000000000E+00 0.  1.
</event>
<event>
 4    1  0.3664744E+003  0.2477158E+02  0.7546771E-02  0.1471375E+00
          2   -1    0    0  502    0  0.00000000000E+00  0.00000000000E+00  0.19775365141E+03  0.19775365141E+03  0.00000000000E+00 0.  1.
          1   -1    0    0  501    0 -0.00000000000E+00 -0.00000000000E+00 -0.45387077235E+01  0.45387077235E+01  0.00000000000E+00 0. -1.
          2    1    1    2  501    0 -0.23058756553E+02  0.90512373224E+01  0.15349475491E+03  0.15548077352E+03  0.00000000000E+00 0.  1.
          1    1    1    2  502    0  0.23058756553E+02 -0.90512373224E+01  0.39720188777E+02  0.46811585610E+02  0.00000000000E+00 0. -1.
</event>
<event>
 4    1  0.3664744E+003  0.2359401E+02  0.7546771E-02  0.1485171E+00
          2   -1    0    0  502    0  0.00000000000E+00  0.00000000000E+00  0.74170795044E+03  0.74170795044E+03  0.00000000000E+00 0. -1.
          1   -1    0    0  501    0 -0.00000000000E+00 -0.00000000000E+00 -0.51150470222E+01  0.51150470222E+01  0.00000000000E+00 0.  1.
          2    1    1    2  501    0 -0.35924487226E+01  0.23318916162E+02  0.71322626642E+03  0.71361641282E+03  0.00000000000E+00 0. -1.
          1    1    1    2  502    0  0.35924487226E+01 -0.23318916162E+02  0.23366636998E+02  0.33206584639E+02  0.00000000000E+00 0.  1.
</event>
<event>
 4    1  0.3664744E+003  0.2542862E+02  0.7546771E-02  0.1464065E+00
          2   -1    0    0  502    0  0.00000000000E+00  0.00000000000E+00  0.16322225199E+03  0.16322225199E+03  0.00000000000E+00 0. -1.
          1   -1    0    0  501    0 -0.00000000000E+00 -0.00000000000E+00 -0.82265499629E+03  0.82265499629E+03  0.00000000000E+00 0.  1.
          2    1    1    2  501    0 -0.25422822551E+02  0.54319287578E+00  0.16203392683E+03  0.16401709792E+03  0.00000000000E+00 0. -1.
          1    1    1    2  502    0  0.25422822551E+02 -0.54319287578E+00 -0.82146667114E+03  0.82186015036E+03  0.00000000000E+00 0.  1.
</event>
<event>
 4    1  0.3664744E+003  0.2230059E+02  0.7546771E-02  0.1501473E+00
          2   -1    0    0  502    0  0.00000000000E+00  0.00000000000E+00  0.11325145777E+04  0.11325145777E+04  0.00000000000E+00 0. -1.
          1   -1    0    0  501    0 -0.00000000000E+00 -0.00000000000E+00 -0.21520796192E+01  0.21520796192E+01  0.00000000000E+00 0.  1.
          2    1    1    2  501    0  0.21057101365E+02  0.73426585800E+01  0.10713344430E+04  0.10715665191E+04  0.00000000000E+00 0. -1.
          1    1    1    2  502    0 -0.21057101365E+02 -0.73426585800E+01  0.59028055018E+02  0.63100138131E+02  0.00000000000E+00 0.  1.
</event>
<event>
 4    1  0.3664744E+003  0.2077077E+02  0.7546771E-02  0.1522563E+00
          2   -1    0    0  502    0  0.00000000000E+00  0.00000000000E+00  0.21306090381E+03  0.21306090381E+03  0.00000000000E+00 0.  1.
          1   -1    0    0  501    0 -0.00000000000E+00 -0.00000000000E+00 -0.16065702591E+03  0.16065702591E+03  0.00000000000E+00 0. -1.
          2    1    1    2  501    0  0.68852336075E+01 -0.19596387998E+02  0.21187960279E+03  0.21289525815E+03  0.00000000000E+00 0.  1.
          1    1    1    2  502    0 -0.68852336075E+01  0.19596387998E+02 -0.15947572488E+03  0.16082267157E+03  0.00000000000E+00 0. -1.
</event>
<event>
 4    1  0.3664744E+003  0.3534682E+02  0.7546771E-02  0.1378141E+00
          2   -1    0    0  502    0  0.00000000000E+00  0.00000000000E+00  0.80732259139E+01  0.80732259139E+01  0.00000000000E+00 0.  1.
          1   -1    0    0  501    0 -0.00000000000E+00 -0.00000000000E+00 -0.41464175010E+03  0.41464175010E+03  0.00000000000E+00 0. -1.
          2    1    1    2  501    0  0.39834818807E+01  0.35121638901E+02 -0.35955519736E+02  0.50420204745E+02  0.00000000000E+00 0.  1.
          1    1    1    2  502    0 -0.39834818807E+01 -0.35121638901E+02 -0.37061300445E+03  0.37229477127E+03  0.00000000000E+00 0. -1.
</event>
<event>
 4    1  0.3664744E+003  0.2229725E+02  0.7546771E-02  0.1501516E+00
          2   -1    0    0  502    0  0.00000000000E+00  0.00000000000E+00  0.22282985414E+04  0.22282985414E+04  0.00000000000E+00 0. -1.
          1   -1    0    0  501    0 -0.00000000000E+00 -0.00000000000E+00 -0.23497904717E+00  0.23497904717E+00  0.00000000000E+00 0.  1.
          2    1    1    2  501    0 -0.20729289114E+02 -0.82136447787E+01  0.13644041795E+04  0.13645863594E+04  0.00000000000E+00 0. -1.
          1    1    1    2  502    0  0.20729289114E+02  0.82136447787E+01  0.86365938290E+03  0.86394716103E+03  0.00000000000E+00 0.  1.
</event>
<event>
 4    1  0.3664744E+003  0.2026376E+02  0.7546771E-02  0.1530041E+00
          2   -1    0    0  502    0  0.00000000000E+00  0.00000000000E+00  0.24815747223E+03  0.24815747223E+03  0.00000000000E+00 0. -1.
          1   -1    0    0  501    0 -0.00000000000E+00 -0.00000000000E+00 -0.91382890123E+01  0.91382890123E+01  0.00000000000E+00 0.  1.
          2    1    1    2  501    0 -0.20086123448E+02  0.26772194977E+01  0.23592913550E+03  0.23679775514E+03  0.00000000000E+00 0. -1.
          1    1    1    2  502    0  0.20086123448E+02 -0.26772194977E+01  0.30900477165E+01  0.20498006106E+02  0.00000000000E+00 0.  1.
</event>
<event>
 4    1  0.3664744E+003  0.2197821E+02  0.7546771E-02  0.1505743E+00
          2   -1    0    0  502    0  0.00000000000E+00  0.00000000000E+00  0.75134648951E+02  0.75134648951E+02  0.00000000000E+00 0.  1.
          1   -1    0    0  501    0 -0.00000000000E+00 -0.00000000000E+00 -0.18743810042E+02  0.18743810042E+02  0.00000000000E+00 0.  1.
          2    1    1    2  501    0 -0.10030466777E+02  0.19555859923E+02  0.66242433738E+02  0.69793280111E+02  0.00000000000E+00 0.  1.
          1    1    1    2  502    0  0.10030466777E+02 -0.19555859923E+02 -0.98515948290E+01  0.24085178882E+02  0.00000000000E+00 0.  1.
</event>
<event>
 4    1  0.3664744E+003  0.2329798E+02  0.7546771E-02  0.1488790E+00
          2   -1    0    0  502    0  0.00000000000E+00  0.00000000000E+00  0.44069978306E+03  0.44069978306E+03  0.00000000000E+00 0. -1.
          1   -1    0    0  501    0 -0.00000000000E+00 -0.00000000000E+00 -0.44234740625E+02  0.44234740625E+02  0.00000000000E+00 0.  1.
          2    1    1    2  501    0  0.23239931686E+02 -0.16436455825E+01  0.43730033348E+03  0.43792051523E+03  0.00000000000E+00 0. -1.
          1    1    1    2  502    0 -0.23239931686E+02  0.16436455825E+01 -0.40835291050E+02  0.47014008452E+02  0.00000000000E+00 0.  1.
</event>
<event>
 4    1  0.3664744E+003  0.3557129E+02  0.7546771E-02  0.1376591E+00
          2   -1    0    0  502    0  0.00000000000E+00  0.00000000000E+00  0.45760162940E+03  0.45760162940E+03  0.00000000000E+00 0. -1.
          1   -1    0    0  501    0 -0.00000000000E+00 -0.00000000000E+00 -0.16167106908E+02  0.16167106908E+02  0.00000000000E+00 0.  1.
          2    1    1    2  501    0  0.18255365655E+02  0.30529630627E+02  0.43639487980E+03  0.43784221797E+03  0.00000000000E+00 0. -1.
          1    1    1    2  502    0 -0.18255365655E+02 -0.30529630627E+02  0.50396426921E+01  0.35926518338E+02  0.00000000000E+00 0.  1.
</event>
<event>
 4    1  0.3664744E+003  0.6357201E+02  0.7546771E-02  0.1248156E+00
          2   -1    0    0  502    0  0.00000000000E+00  0.00000000000E+00  0.82421078787E+03  0.82421078787E+03  0.00000000000E+00 0. -1.
          1   -1    0    0  501    0 -0.00000000000E+00 -0.00000000000E+00 -0.13311368399E+04  0.13311368399E+04  0.00000000000E+00 0.  1.
          2    1    1    2  501    0 -0.37662184467E+02 -0.51214839033E+02  0.82222410450E+03  0.82467804500E+03  0.00000000000E+00 0. -1.
          1    1    1    2  502    0  0.37662184467E+02  0.51214839033E+02 -0.13291501566E+04  0.13306695828E+04  0.00000000000E+00 0.  1.
</event>
<event>
 4    1  0.3664744E+003  0.2376042E+02  0.7546771E-02  0.1483164E+00
          2   -1    0    0  502    0  0.00000000000E+00  0.00000000000E+00  0.19991850559E+03  0.19991850559E+03  0.00000000000E+00 0.  1.
          1   -1    0    0  501    0 -0.00000000000E+00 -0.00000000000E+00 -0.27430356593E+02  0.27430356593E+02  0.00000000000E+00 0.  1.
          2    1    1    2  501    0  0.67355007297E+01  0.22785754009E+02  0.19390826081E+03  0.19535857076E+03  0.00000000000E+00 0.  1.
          1    1    1    2  502    0 -0.67355007297E+01 -0.22785754009E+02 -0.21420111812E+02  0.31990291432E+02  0.00000000000E+00 0.  1.
</event>
<event>
 4    1  0.3664744E+003  0.2009221E+02  0.7546771E-02  0.1532631E+00
          2   -1    0    0  502    0  0.00000000000E+00  0.00000000000E+00  0.11875123368E+04  0.11875123368E+04  0.00000000000E+00 0.  1.
          1   -1    0    0  501    0 -0.00000000000E+00 -0.00000000000E+00 -0.63977124143E+01  0.63977124143E+01  0.00000000000E+00 0.  1.
          2    1    1    2  501    0  0.16464332751E+02 -0.11516182480E+02  0.11714358305E+04  0.11716081264E+04  0.00000000000E+00 0.  1.
          1    1    1    2  502    0 -0.16464332751E+02  0.11516182480E+02  0.96787938357E+01  0.22301922831E+02  0.00000000000E+00 0.  1.
</event>
<event>
 4    1  0.3664744E+003  0.4160073E+02  0.7546771E-02  0.1339353E+00
          2   -1    0    0  502    0  0.00000000000E+00  0.00000000000E+00  0.17204493124E+04  0.17204493124E+04  0.00000000000E+00 0. -1.
          1   -1    0    0  501    0 -0.00000000000E+00 -0.00000000000E+00 -0.22812478849E+01  0.22812478849E+01  0.00000000000E+00 0. -1.
          2    1    1    2  501    0 -0.36430761736E+02  0.20085333444E+02  0.15031248191E+04  0.15037003833E+04  0.00000000000E+00 0. -1.
          1    1    1    2  502    0  0.36430761736E+02 -0.20085333444E+02  0.21504324544E+03  0.21903017699E+03  0.00000000000E+00 0. -1.
</event>
<event>
 4    1  0.3664744E+003  0.3001431E+02  0.7546771E-02  0.1419472E+00
          2   -1    0    0  502    0  0.00000000000E+00  0.00000000000E+00  0.25583853347E+01  0.25583853347E+01  0.00000000000E+00 0. -1.
          1   -1    0    0  501    0 -0.00000000000E+00 -0.00000000000E+00 -0.10206353601E+04  0.10206353601E+04  0.00000000000E+00 0.  1.
          2    1    1    2  501    0 -0.27282425782E+02 -0.12511110862E+02 -0.94992795680E+02  0.99621733987E+02  0.00000000000E+00 0. -1.
          1    1    1    2  502    0  0.27282425782E+02  0.12511110862E+02 -0.92308417907E+03  0.92357201143E+03  0.00000000000E+00 0.  1.
</event>
<event>
 4    1  0.3664744E+003  0.2527914E+02  0.7546771E-02  0.1465705E+00
          2   -1    0    0  502    0  0.00000000000E+00  0.00000000000E+00  0.70601275118E+01  0.70601275118E+01  0.00000000000E+00 0. -1.
          1   -1    0    0  501    0 -0.00000000000E+00 -0.00000000000E+00 -0.19443876955E+03  0.19443876955E+03  0.00000000000E+00 0. -1.
          2    1    1    2  501    0  0.53455328868E+01  0.24707496899E+02 -0.20032607638E+02  0.32254309691E+02  0.00000000000E+00 0. -1.
          1    1    1    2  502    0 -0.53455328868E+01 -0.24707496899E+02 -0.16734603440E+03  0.16924458737E+03  0.00000000000E+00 0. -1.
</event>
<event>
 4    1  0.3664744E+003  0.2052203E+02  0.7546771E-02  0.1526200E+00
          2   -1    0    0  502    0  0.00000000000E+00  0.00000000000E+00  0.21732501008E+01  0.21732501008E+01  0.00000000000E+00 0.  1.
          1   -1    0    0  501    0 -0.00000000000E+00 -0.00000000000E+00 -0.19504562214E+03  0.19504562214E+03  0.00000000000E+00 0.  1.
          2    1    1    2  501    0  0.19314415664E+02  0.69358857013E+01 -0.10434948105E+03  0.10634833031E+03  0.00000000000E+00 0.  1.
          1    1    1    2  502    0 -0.19314415664E+02 -0.69358857013E+01 -0.88522890986E+02  0.90870541935E+02  0.00000000000E+00 0.  1.
</event>
<event>
 4    1  0.3664744E+003  0.3103852E+02  0.7546771E-02  0.1410781E+00
          2   -1    0    0  502    0  0.00000000000E+00  0.00000000000E+00  0.12033632071E+03  0.12033632071E+03  0.00000000000E+00 0. -1.
          1   -1    0    0  501    0 -0.00000000000E+00 -0.00000000000E+00 -0.12688968940E+02  0.12688968940E+02  0.00000000000E+00 0.  1.
          2    1    1    2  501    0  0.49708876654E+01 -0.30637886324E+02  0.94231034981E+02  0.99211278372E+02  0.00000000000E+00 0. -1.
          1    1    1    2  502    0 -0.49708876654E+01  0.30637886324E+02  0.13416316792E+02  0.33814011281E+02  0.00000000000E+00 0.  1.
</event>
<event>
 4    1  0.3664744E+003  0.3261495E+02  0.7546771E-02  0.1398154E+00
          2   -1    0    0  502    0  0.00000000000E+00  0.00000000000E+00  0.10007806321E+04  0.10007806321E+04  0.00000000000E+00 0. -1.
          1   -1    0    0  501    0 -0.00000000000E+00 -0.00000000000E+00 -0.33196428885E+01  0.33196428885E+01  0.00000000000E+00 0. -1.
          2    1    1    2  501    0 -0.13356126309E+02  0.29754809521E+02  0.91267484644E+03  0.91325741723E+03  0.00000000000E+00 0. -1.
          1    1    1    2  502    0  0.13356126309E+02 -0.29754809521E+02  0.84786142754E+02  0.90842857742E+02  0.00000000000E+00 0. -1.
</event>
<event>
 4    1  0.3664744E+003  0.2082371E+02  0.7546771E-02  0.1521797E+00
          2   -1    0    0  502    0  0.00000000000E+00  0.00000000000E+00  0.99007227472E+01  0.99007227472E+01  0.00000000000E+00 0.  1.
          1   -1    0    0  501    0 -0.00000000000E+00 -0.00000000000E+00 -0.97724734748E+02  0.97724734748E+02  0.00000000000E+00 0.  1.
          2    1    1    2  501    0  0.11002599789E+02  0.17679643021E+02 -0.39371590244E+01  0.21192644966E+02  0.00000000000E+00 0.  1.
          1    1    1    2  502    0 -0.11002599789E+02 -0.17679643021E+02 -0.83886852977E+02  0.86432812530E+02  0.00000000000E+00 0.  1.
</event>
<event>
 4    1  0.3664744E+003  0.2059894E+02  0.7546771E-02  0.1525069E+00
          2   -1    0    0  502    0  0.00000000000E+00  0.00000000000E+00  0.10152187374E+04  0.10152187374E+04  0.00000000000E+00 0.  1.
          1   -1    0    0  501    0 -0.00000000000E+00 -0.00000000000E+00 -0.10283434775E+03  0.10283434775E+03  0.00000000000E+00 0.  1.
          2    1    1    2  501    0  0.14822362680E+02 -0.14304332905E+02  0.10140815387E+04  0.10142907293E+04  0.00000000000E+00 0.  1.
          1    1    1    2  502    0 -0.14822362680E+02  0.14304332905E+02 -0.10169714903E+03  0.10376235588E+03  0.00000000000E+00 0.  1.
</event>
