<event>
 4    1  0.1560907E+006  0.2213743E+02  0.7546771E-02  0.1503623E+00
         21   -1    0    0  503  502  0.00000000000E+00  0.00000000000E+00  0.10309190730E+02  0.10309190730E+02  0.00000000000E+00 0. -1.
         -3   -1    0    0    0  501 -0.00000000000E+00 -0.00000000000E+00 -0.33137448343E+03  0.33137448343E+03  0.00000000000E+00 0.  1.
         21    1    1    2  503  501  0.21393258895E+02  0.56915968055E+01 -0.24188603255E+01  0.22269186910E+02  0.00000000000E+00 0. -1.
         -3    1    1    2    0  502 -0.21393258895E+02 -0.56915968055E+01 -0.31864643238E+03  0.31941448726E+03  0.00000000000E+00 0.  1.
</event>
<event>
 4    1  0.1560907E+006  0.2223112E+02  0.7546771E-02  0.1502385E+00
         21   -1    0    0  501  502  0.00000000000E+00  0.00000000000E+00  0.63156895960E+02  0.63156895960E+02  0.00000000000E+00 0.  1.
          4   -1    0    0  503    0 -0.00000000000E+00 -0.00000000000E+00 -0.14900629024E+02  0.14900629024E+02  0.00000000000E+00 0. -1.
         21    1    1    2  503  502 -0.20512856382E+02  0.85700319763E+01  0.51022126108E+02  0.55655009456E+02  0.00000000000E+00 0.  1.
          4    1    1    2  501    0  0.20512856382E+02 -0.85700319763E+01 -0.27658591723E+01  0.22402515528E+02  0.00000000000E+00 0. -1.
</event>
<event>
 4    1  0.1560907E+006  0.5567882E+02  0.7546771E-02  0.1275266E+00
          2   -1    0    0  503    0 -0.00000000000E+00  0.00000000000E+00  0.33409638512E+03  0.33409638512E+03  0.00000000000E+00 0.  1.
         21   -1    0    0  501  502  0.00000000000E+00 -0.00000000000E+00 -0.16559586780E+03  0.16559586780E+03  0.00000000000E+00 0. -1.
         21    1    1    2  503  502 -0.50196862722E+02 -0.24091617245E+02 -0.15849490407E+03  0.16799037372E+03  0.00000000000E+00 0. -1.
          2    1    1    2  501    0  0.50196862722E+02  0.24091617245E+02  0.32699542139E+03  0.33170187919E+03  0.00000000000E+00 0.  1.
</event>
<event>
 4    1  0.1560907E+006  0.3368215E+02  0.7546771E-02  0.1390072E+00
         21   -1    0    0  503  502  0.00000000000E+00  0.00000000000E+00  0.48743376714E+02  0.48743376714E+02  0.00000000000E+00 0.  1.
         -1   -1    0    0    0  501 -0.00000000000E+00 -0.00000000000E+00 -0.91957327905E+02  0.91957327905E+02  0.00000000000E+00 0.  1.
         21    1    1    2  503  501 -0.15972890318E+02  0.29653903417E+02  0.39192043642E+02  0.51676914554E+02  0.00000000000E+00 0.  1.
         -1    1    1    2    0  502  0.15972890318E+02 -0.29653903417E+02 -0.82405994834E+02  0.89023790065E+02  0.00000000000E+00 0.  1.
</event>
<event>
 4    1  0.1560907E+006  0.2270059E+02  0.7546771E-02  0.1496292E+00
         21   -1    0    0  503  502  0.00000000000E+00  0.00000000000E+00  0.69222433609E+01  0.69222433609E+01  0.00000000000E+00 0.  1.
          1   -1    0    0  502    0 -0.00000000000E+00 -0.00000000000E+00 -0.14203908155E+03  0.14203908155E+03  0.00000000000E+00 0.  1.
         21    1    1    2  503  501  0.20433720691E+02  0.98883627340E+01 -0.16177902951E+02  0.27875458790E+02  0.00000000000E+00 0.  1.
          1    1    1    2  501    0 -0.20433720691E+02 -0.98883627340E+01 -0.11893893524E+03  0.12108586612E+03  0.00000000000E+00 0.  1.
</event>
<event>
 4    1  0.1560907E+006  0.2353600E+02  0.7546771E-02  0.1485875E+00
         21   -1    0    0  503  502  0.00000000000E+00  0.00000000000E+00  0.16156121778E+01  0.16156121778E+01  0.00000000000E+00 0.  1.
          2   -1    0    0  502    0 -0.00000000000E+00 -0.00000000000E+00 -0.38670556855E+03  0.38670556855E+03  0.00000000000E+00 0.  1.
         21    1    1    2  503  501 -0.17186565136E+01  0.23473170309E+02 -0.12717345317E+03  0.12933302245E+03  0.00000000000E+00 0.  1.
          2    1    1    2  501    0  0.17186565136E+01 -0.23473170309E+02 -0.25791650321E+03  0.25898815828E+03  0.00000000000E+00 0.  1.
</event>
<event>
 4    1  0.1560907E+006  0.2243236E+02  0.7546771E-02  0.1499752E+00
         21   -1    0    0  503  502  0.00000000000E+00  0.00000000000E+00  0.92511905768E+00  0.92511905768E+00  0.00000000000E+00 0. -1.
         -1   -1    0    0    0  501 -0.00000000000E+00 -0.00000000000E+00 -0.55507417330E+03  0.55507417330E+03  0.00000000000E+00 0. -1.
         21    1    1    2  503  501 -0.78047358364E+01  0.21030856442E+02 -0.23770458751E+03  0.23876072070E+03  0.00000000000E+00 0. -1.
         -1    1    1    2    0  502  0.78047358364E+01 -0.21030856442E+02 -0.31644446673E+03  0.31723857166E+03  0.00000000000E+00 0. -1.
</event>
<event>
 4    1  0.1560907E+006  0.2045907E+02  0.7546771E-02  0.1527130E+00
         21   -1    0    0  501  502  0.00000000000E+00  0.00000000000E+00  0.19119020066E+03  0.19119020066E+03  0.00000000000E+00 0. -1.
          2   -1    0    0  503    0 -0.00000000000E+00 -0.00000000000E+00 -0.36394132048E+01  0.36394132048E+01  0.00000000000E+00 0.  1.
         21    1    1    2  503  502  0.20319751859E+02 -0.23835128391E+01  0.15526612569E+03  0.15660824767E+03  0.00000000000E+00 0. -1.
          2    1    1    2  501    0 -0.20319751859E+02  0.23835128391E+01  0.32284661764E+02  0.38221366201E+02  0.00000000000E+00 0.  1.
</event>
<event>
 4    1  0.1560907E+006  0.2517827E+02  0.7546771E-02  0.1466819E+00
          1   -1    0    0  503    0 -0.00000000000E+00  0.00000000000E+00  0.13698712465E+04  0.13698712465E+04  0.00000000000E+00 0. -1.
         21   -1    0    0  501  502  0.00000000000E+00 -0.00000000000E+00 -0.12387083609E+01  0.12387083609E+01  0.00000000000E+00 0. -1.
         21    1    1    2  503  502  0.20788871523E+02 -0.14204517461E+02  0.14172939172E+03  0.14394848375E+03  0.00000000000E+00 0. -1.
          1    1    1    2  501    0 -0.20788871523E+02  0.14204517461E+02  0.12269031464E+04  0.12271614711E+04  0.00000000000E+00 0. -1.
</event>
<event>
 4    1  0.1560907E+006  0.2440952E+02  0.7546771E-02  0.1475519E+00
         21   -1    0    0  501  502  0.00000000000E+00  0.00000000000E+00  0.24803792702E+01  0.24803792702E+01  0.00000000000E+00 0.  1.
         -3   -1    0    0    0  501 -0.00000000000E+00 -0.00000000000E+00 -0.45137576778E+03  0.45137576778E+03  0.00000000000E+00 0.  1.
         21    1    1    2  503  502 -0.20243505262E+02  0.13639097310E+02 -0.69235567373E+02  0.73412453100E+02  0.00000000000E+00 0.  1.
         -3    1    1    2    0  503  0.20243505262E+02 -0.13639097310E+02 -0.37965982114E+03  0.38044369395E+03  0.00000000000E+00 0.  1.
</event>
<event>
 4    1  0.1560907E+006  0.3230856E+02  0.7546771E-02  0.1400541E+00
          1   -1    0    0  502    0 -0.00000000000E+00  0.00000000000E+00  0.42238150974E+03  0.42238150974E+03  0.00000000000E+00 0. -1.
         21   -1    0    0  503  502  0.00000000000E+00 -0.00000000000E+00 -0.41136908237E+01  0.41136908237E+01  0.00000000000E+00 0. -1.
         21    1    1    2  503  501 -0.31313217441E+02 -0.79577296664E+01  0.74391923103E+02  0.81104878219E+02  0.00000000000E+00 0. -1.
          1    1    1    2  501    0  0.31313217441E+02  0.79577296664E+01  0.34387589582E+03  0.34539032235E+03  0.00000000000E+00 0. -1.
</event>
<event>
 4    1  0.1560907E+006  0.2060563E+02  0.7546771E-02  0.1524971E+00
         21   -1    0    0  503  502  0.00000000000E+00  0.00000000000E+00  0.14022864917E+02  0.14022864917E+02  0.00000000000E+00 0. -1.
         -3   -1    0    0    0  501 -0.00000000000E+00 -0.00000000000E+00 -0.35276845881E+02  0.35276845881E+02  0.00000000000E+00 0. -1.
         21    1    1    2  503  501  0.19975915769E+02 -0.50551545164E+01 -0.13484181062E+01  0.20649698046E+02  0.00000000000E+00 0. -1.
         -3    1    1    2    0  502 -0.19975915769E+02  0.50551545164E+01 -0.19905562858E+02  0.28650012752E+02  0.00000000000E+00 0. -1.
</event>
<event>
 4    1  0.1560907E+006  0.2471988E+02  0.7546771E-02  0.1471962E+00
         21   -1    0    0  503  502  0.00000000000E+00  0.00000000000E+00  0.33232433828E+01  0.33232433828E+01  0.00000000000E+00 0. -1.
          2   -1    0    0  502    0 -0.00000000000E+00 -0.00000000000E+00 -0.96513722199E+03  0.96513722199E+03  0.00000000000E+00 0. -1.
         21    1    1    2  503  501 -0.18417517757E+02  0.16488400777E+02 -0.45239788524E+02  0.51552990080E+02  0.00000000000E+00 0. -1.
          2    1    1    2  501    0  0.18417517757E+02 -0.16488400777E+02 -0.91657419008E+03  0.91690747529E+03  0.00000000000E+00 0. -1.
</event>
<event>
 4    1  0.1560907E+006  0.2440463E+02  0.7546771E-02  0.1475575E+00
          2   -1    0    0  503    0 -0.00000000000E+00  0.00000000000E+00  0.19940312885E+04  0.19940312885E+04  0.00000000000E+00 0.  1.
         21   -1    0    0  501  502  0.00000000000E+00 -0.00000000000E+00 -0.37987291455E+00  0.37987291455E+00  0.00000000000E+00 0.  1.
         21    1    1    2  503  502 -0.11619260727E+02 -0.21461093236E+02  0.53581264531E+03  0.53636813535E+03  0.00000000000E+00 0.  1.
          2    1    1    2  501    0  0.11619260727E+02  0.21461093236E+02  0.14578387703E+04  0.14580430261E+04  0.00000000000E+00 0.  1.
</event>
<event>
 4    1  0.1560907E+006  0.2426768E+02  0.7546771E-02  0.1477165E+00
          4   -1    0    0  503    0 -0.00000000000E+00  0.00000000000E+00  0.12349953975E+04  0.12349953975E+04  0.00000000000E+00 0.  1.
         21   -1    0    0  501  502  0.00000000000E+00 -0.00000000000E+00 -0.75465420791E+00  0.75465420791E+00  0.00000000000E+00 0.  1.
         21    1    1    2  503  502  0.11045375345E+02  0.21608331221E+02  0.24224406776E+03  0.24345658475E+03  0.00000000000E+00 0.  1.
          4    1    1    2  501    0 -0.11045375345E+02 -0.21608331221E+02  0.99199667557E+03  0.99229346700E+03  0.00000000000E+00 0.  1.
</event>
<event>
 4    1  0.1560907E+006  0.2333233E+02  0.7546771E-02  0.1488367E+00
          2   -1    0    0  502    0 -0.00000000000E+00  0.00000000000E+00  0.89189053888E+02  0.89189053888E+02  0.00000000000E+00 0.  1.
         21   -1    0    0  503  502  0.00000000000E+00 -0.00000000000E+00 -0.33461831691E+02  0.33461831691E+02  0.00000000000E+00 0. -1.
         21    1    1    2  503  501 -0.63888635354E+01 -0.22440592900E+02 -0.27587181684E+02  0.36131016872E+02  0.00000000000E+00 0. -1.
          2    1    1    2  501    0  0.63888635354E+01  0.22440592900E+02  0.83314403881E+02  0.86519868707E+02  0.00000000000E+00 0.  1.
</event>
<event>
 4    1  0.1560907E+006  0.2595218E+02  0.7546771E-02  0.1458427E+00
         21   -1    0    0  503  502  0.00000000000E+00  0.00000000000E+00  0.97253838766E+01  0.97253838766E+01  0.00000000000E+00 0.  1.
          2   -1    0    0  502    0 -0.00000000000E+00 -0.00000000000E+00 -0.98163718791E+03  0.98163718791E+03  0.00000000000E+00 0.  1.
         21    1    1    2  503  501  0.44762282119E+01  0.25563235360E+02 -0.80792547345E+01  0.27180691274E+02  0.00000000000E+00 0.  1.
          2    1    1    2  501    0 -0.44762282119E+01 -0.25563235360E+02 -0.96383254929E+03  0.96418188051E+03  0.00000000000E+00 0.  1.
</event>
<event>
 4    1  0.1560907E+006  0.2066928E+02  0.7546771E-02  0.1524039E+00
         21   -1    0    0  503  502  0.00000000000E+00  0.00000000000E+00  0.18684833758E+02  0.18684833758E+02  0.00000000000E+00 0.  1.
          1   -1    0    0  502    0 -0.00000000000E+00 -0.00000000000E+00 -0.33658013069E+03  0.33658013069E+03  0.00000000000E+00 0. -1.
         21    1    1    2  503  501 -0.13623862005E+02 -0.15543793579E+02  0.12545287390E+02  0.24178572547E+02  0.00000000000E+00 0.  1.
          1    1    1    2  501    0  0.13623862005E+02  0.15543793579E+02 -0.33044058432E+03  0.33108639190E+03  0.00000000000E+00 0. -1.
</event>
<event>
 4    1  0.1560907E+006  0.2065535E+02  0.7546771E-02  0.1524243E+00
          1   -1    0    0  503    0 -0.00000000000E+00  0.00000000000E+00  0.64597660808E+00  0.64597660808E+00  0.00000000000E+00 0. -1.
         21   -1    0    0  501  502  0.00000000000E+00 -0.00000000000E+00 -0.68135911438E+03  0.68135911438E+03  0.00000000000E+00 0. -1.
         21    1    1    2  503  502  0.11016891172E+02  0.17472021552E+02 -0.40007465743E+03  0.40060750735E+03  0.00000000000E+00 0. -1.
          1    1    1    2  501    0 -0.11016891172E+02 -0.17472021552E+02 -0.28063848034E+03  0.28139758364E+03  0.00000000000E+00 0. -1.
</event>
<event>
 4    1  0.1560907E+006  0.2819301E+02  0.7546771E-02  0.1435979E+00
         21   -1    0    0  503  502  0.00000000000E+00  0.00000000000E+00  0.30349732667E+02  0.30349732667E+02  0.00000000000E+00 0.  1.
          2   -1    0    0  502    0 -0.00000000000E+00 -0.00000000000E+00 -0.98007156152E+02  0.98007156152E+02  0.00000000000E+00 0. -1.
         21    1    1    2  503  501  0.28112877086E+02 -0.21241160554E+01  0.21109657800E+02  0.35220212656E+02  0.00000000000E+00 0.  1.
          2    1    1    2  501    0 -0.28112877086E+02  0.21241160554E+01 -0.88767081285E+02  0.93136676164E+02  0.00000000000E+00 0. -1.
</event>
<event>
 4    1  0.1560907E+006  0.2168374E+02  0.7546771E-02  0.1509723E+00
         21   -1    0    0  503  502  0.00000000000E+00  0.00000000000E+00  0.48927306254E+00  0.48927306254E+00  0.00000000000E+00 0. -1.
         -2   -1    0    0    0  501 -0.00000000000E+00 -0.00000000000E+00 -0.11692257604E+04  0.11692257604E+04  0.00000000000E+00 0. -1.
         21    1    1    2  503  501  0.13770245060E+02  0.16750068108E+02 -0.83118975017E+03  0.83147254027E+03  0.00000000000E+00 0. -1.
         -2    1    1    2    0  502 -0.13770245060E+02 -0.16750068108E+02 -0.33754673717E+03  0.33824249320E+03  0.00000000000E+00 0. -1.
</event>
<event>
 4    1  0.1560907E+006  0.2634270E+02  0.7546771E-02  0.1454325E+00
         21   -1    0    0  503  502  0.00000000000E+00  0.00000000000E+00  0.60731042870E+03  0.60731042870E+03  0.00000000000E+00 0. -1.
          4   -1    0    0  502    0 -0.00000000000E+00 -0.00000000000E+00 -0.14765512228E+01  0.14765512228E+01  0.00000000000E+00 0.  1.
         21    1    1    2  503  501  0.11291144691E+02  0.23800170387E+02  0.44766930668E+03  0.44844369345E+03  0.00000000000E+00 0. -1.
          4    1    1    2  501    0 -0.11291144691E+02 -0.23800170387E+02  0.15816457080E+03  0.16034328647E+03  0.00000000000E+00 0.  1.
</event>
<event>
 4    1  0.1560907E+006  0.2103740E+02  0.7546771E-02  0.1518731E+00
         -2   -1    0    0    0  501 -0.00000000000E+00  0.00000000000E+00  0.14314346793E+03  0.14314346793E+03  0.00000000000E+00 0.  1.
         21   -1    0    0  503  502  0.00000000000E+00 -0.00000000000E+00 -0.11155488580E+02  0.11155488580E+02  0.00000000000E+00 0.  1.
         21    1    1    2  503  501  0.20283437244E+02  0.55816178277E+01  0.40131772571E+00  0.21041229525E+02  0.00000000000E+00 0.  1.
         -2    1    1    2    0  502 -0.20283437244E+02 -0.55816178277E+01  0.13158666162E+03  0.13325772699E+03  0.00000000000E+00 0.  1.
</event>
<event>
 4    1  0.1560907E+006  0.2421992E+02  0.7546771E-02  0.1477722E+00
         -3   -1    0    0    0  501 -0.00000000000E+00  0.00000000000E+00  0.51700528280E+01  0.51700528280E+01  0.00000000000E+00 0. -1.
         21   -1    0    0  501  502  0.00000000000E+00 -0.00000000000E+00 -0.35110804947E+03  0.35110804947E+03  0.00000000000E+00 0.  1.
         21    1    1    2  503  502 -0.21627473749E+02  0.10902159880E+02 -0.31952513560E+03  0.32044175289E+03  0.00000000000E+00 0.  1.
         -3    1    1    2    0  503  0.21627473749E+02 -0.10902159880E+02 -0.26412861036E+02  0.35836349408E+02  0.00000000000E+00 0. -1.
</event>
<event>
 4    1  0.1560907E+006  0.2183337E+02  0.7546771E-02  0.1507691E+00
          1   -1    0    0  503    0 -0.00000000000E+00  0.00000000000E+00  0.40296899827E+02  0.40296899827E+02  0.00000000000E+00 0.  1.
         21   -1    0    0  501  502  0.00000000000E+00 -0.00000000000E+00 -0.33454442980E+02  0.33454442980E+02  0.00000000000E+00 0. -1.
         21    1    1    2  503  502  0.68918249391E+01 -0.20717116465E+02 -0.26226370457E+02  0.34125044659E+02  0.00000000000E+00 0. -1.
          1    1    1    2  501    0 -0.68918249391E+01  0.20717116465E+02  0.33068827304E+02  0.39626298148E+02  0.00000000000E+00 0.  1.
</event>
<event>
 4    1  0.1560907E+006  0.2131911E+02  0.7546771E-02  0.1514757E+00
         21   -1    0    0  501  502  0.00000000000E+00  0.00000000000E+00  0.21072022203E+02  0.21072022203E+02  0.00000000000E+00 0. -1.
          2   -1    0    0  503    0 -0.00000000000E+00 -0.00000000000E+00 -0.38343772010E+02  0.38343772010E+02  0.00000000000E+00 0. -1.
         21    1    1    2  503  502  0.20704819474E+02 -0.50808442147E+01  0.11013626248E+02  0.23995926540E+02  0.00000000000E+00 0. -1.
          2    1    1    2  501    0 -0.20704819474E+02  0.50808442147E+01 -0.28285376055E+02  0.35419867673E+02  0.00000000000E+00 0. -1.
</event>
<event>
 4    1  0.1560907E+006  0.2175136E+02  0.7546771E-02  0.1508802E+00
         -2   -1    0    0    0  501 -0.00000000000E+00  0.00000000000E+00  0.13177343541E+02  0.13177343541E+02  0.00000000000E+00 0.  1.
         21   -1    0    0  503  502  0.00000000000E+00 -0.00000000000E+00 -0.36137085995E+02  0.36137085995E+02  0.00000000000E+00 0.  1.
         21    1    1    2  503  501 -0.68543912556E+01  0.20643129938E+02 -0.95002894661E+01  0.23735563888E+02  0.00000000000E+00 0.  1.
         -2    1    1    2    0  502  0.68543912556E+01 -0.20643129938E+02 -0.13459452987E+02  0.25578865648E+02  0.00000000000E+00 0.  1.
</event>
<event>
 4    1  0.1560907E+006  0.2582259E+02  0.7546771E-02  0.1459808E+00
         -1   -1    0    0    0  501 -0.00000000000E+00  0.00000000000E+00  0.96393546502E+01  0.96393546502E+01  0.00000000000E+00 0.  1.
         21   -1    0    0  501  502  0.00000000000E+00 -0.00000000000E+00 -0.34884213762E+03  0.34884213762E+03  0.00000000000E+00 0. -1.
         21    1    1    2  503  502 -0.23411796029E+02 -0.10894681226E+02 -0.33008943290E+03  0.33109793111E+03  0.00000000000E+00 0. -1.
         -1    1    1    2    0  503  0.23411796029E+02  0.10894681226E+02 -0.91133500683E+01  0.27383561160E+02  0.00000000000E+00 0.  1.
</event>
<event>
 4    1  0.1560907E+006  0.2212536E+02  0.7546771E-02  0.1503783E+00
         21   -1    0    0  503  502  0.00000000000E+00  0.00000000000E+00  0.37029590430E+02  0.37029590430E+02  0.00000000000E+00 0. -1.
         -2   -1    0    0    0  501 -0.00000000000E+00 -0.00000000000E+00 -0.29739473241E+03  0.29739473241E+03  0.00000000000E+00 0. -1.
         21    1    1    2  503  501 -0.17973360028E+02  0.12903104335E+02  0.33270822893E+02  0.39955968617E+02  0.00000000000E+00 0. -1.
         -2    1    1    2    0  502  0.17973360028E+02 -0.12903104335E+02 -0.29363596487E+03  0.29446835422E+03  0.00000000000E+00 0. -1.
</event>
<event>
 4    1  0.1560907E+006  0.2085861E+02  0.7546771E-02  0.1521293E+00
          3   -1    0    0  502    0 -0.00000000000E+00  0.00000000000E+00  0.23350111392E+02  0.23350111392E+02  0.00000000000E+00 0.  1.
         21   -1    0    0  503  502  0.00000000000E+00 -0.00000000000E+00 -0.42481486251E+02  0.42481486251E+02  0.00000000000E+00 0.  1.
         21    1    1    2  503  501 -0.88554882315E+00  0.20839800199E+02 -0.34228091446E+02  0.40082960383E+02  0.00000000000E+00 0.  1.
          3    1    1    2  501    0  0.88554882315E+00 -0.20839800199E+02  0.15096716587E+02  0.25748637260E+02  0.00000000000E+00 0.  1.
</event>
<event>
 4    1  0.1560907E+006  0.3372740E+02  0.7546771E-02  0.1389738E+00
         21   -1    0    0  503  502  0.00000000000E+00  0.00000000000E+00  0.63724339902E+03  0.63724339902E+03  0.00000000000E+00 0. -1.
          2   -1    0    0  502    0 -0.00000000000E+00 -0.00000000000E+00 -0.33083818548E+01  0.33083818548E+01  0.00000000000E+00 0.  1.
         21    1    1    2  503  501  0.26194159416E+02 -0.21246259697E+02  0.53429157926E+03  0.53535504967E+03  0.00000000000E+00 0. -1.
          2    1    1    2  501    0 -0.26194159416E+02  0.21246259697E+02  0.99643437900E+02  0.10519673120E+03  0.00000000000E+00 0.  1.
</event>
<event>
 4    1  0.1560907E+006  0.2566913E+02  0.7546771E-02  0.1461455E+00
          2   -1    0    0  502    0 -0.00000000000E+00  0.00000000000E+00  0.28122096384E+03  0.28122096384E+03  0.00000000000E+00 0.  1.
         21   -1    0    0  503  502  0.00000000000E+00 -0.00000000000E+00 -0.10406707157E+03  0.10406707157E+03  0.00000000000E+00 0. -1.
         21    1    1    2  503  501  0.23328734834E+02 -0.10708609780E+02 -0.10188608922E+03  0.10506987850E+03  0.00000000000E+00 0. -1.
          2    1    1    2  501    0 -0.23328734834E+02  0.10708609780E+02  0.27903998148E+03  0.28021815690E+03  0.00000000000E+00 0.  1.
</event>
<event>
 4    1  0.1560907E+006  0.2061155E+02  0.7546771E-02  0.1524884E+00
         21   -1    0    0  501  502  0.00000000000E+00  0.00000000000E+00  0.51376867321E+02  0.51376867321E+02  0.00000000000E+00 0.  1.
         -1   -1    0    0    0  501 -0.00000000000E+00 -0.00000000000E+00 -0.12293700507E+03  0.12293700507E+03  0.00000000000E+00 0. -1.
         21    1    1    2  503  502  0.85498193310E+01  0.18754638699E+02  0.48394664291E+02  0.52601135113E+02  0.00000000000E+00 0.  1.
         -1    1    1    2    0  503 -0.85498193310E+01 -0.18754638699E+02 -0.11995480204E+03  0.12171273728E+03  0.00000000000E+00 0. -1.
</event>
<event>
 4    1  0.1560907E+006  0.2510413E+02  0.7546771E-02  0.1467642E+00
         21   -1    0    0  503  502  0.00000000000E+00  0.00000000000E+00  0.18839001203E+03  0.18839001203E+03  0.00000000000E+00 0.  1.
         -2   -1    0    0    0  501 -0.00000000000E+00 -0.00000000000E+00 -0.95994184879E+01  0.95994184879E+01  0.00000000000E+00 0.  1.
         21    1    1    2  503  501  0.24281485816E+02  0.63739150430E+01  0.16930017496E+03  0.17115129736E+03  0.00000000000E+00 0.  1.
         -2    1    1    2    0  502 -0.24281485816E+02 -0.63739150430E+01  0.94904185784E+01  0.26838133155E+02  0.00000000000E+00 0.  1.
</event>
<event>
 4    1  0.1560907E+006  0.2359903E+02  0.7546771E-02  0.1485110E+00
          2   -1    0    0  502    0 -0.00000000000E+00  0.00000000000E+00  0.19580564359E+01  0.19580564359E+01  0.00000000000E+00 0. -1.
         21   -1    0    0  503  502  0.00000000000E+00 -0.00000000000E+00 -0.10877586463E+04  0.10877586463E+04  0.00000000000E+00 0. -1.
         21    1    1    2  503  501  0.23515312320E+02 -0.19860759993E+01 -0.10111377146E+04  0.10114130671E+04  0.00000000000E+00 0. -1.
          2    1    1    2  501    0 -0.23515312320E+02  0.19860759993E+01 -0.74662875270E+02  0.78303635643E+02  0.00000000000E+00 0. -1.
</event>
<event>
 4    1  0.1560907E+006  0.3017730E+02  0.7546771E-02  0.1418062E+00
         21   -1    0    0  503  502  0.00000000000E+00  0.00000000000E+00  0.70720742345E+02  0.70720742345E+02  0.00000000000E+00 0. -1.
         -2   -1    0    0    0  501 -0.00000000000E+00 -0.00000000000E+00 -0.18614114482E+03  0.18614114482E+03  0.00000000000E+00 0. -1.
         21    1    1    2  503  501  0.19661169653E+02 -0.22893405014E+02  0.66198800393E+02  0.72752668397E+02  0.00000000000E+00 0. -1.
         -2    1    1    2    0  502 -0.19661169653E+02  0.22893405014E+02 -0.18161920287E+03  0.18410921877E+03  0.00000000000E+00 0. -1.
</event>
<event>
 4    1  0.1560907E+006  0.2379479E+02  0.7546771E-02  0.1482752E+00
         -4   -1    0    0    0  501 -0.00000000000E+00  0.00000000000E+00  0.11714282834E+03  0.11714282834E+03  0.00000000000E+00 0. -1.
         21   -1    0    0  503  502  0.00000000000E+00 -0.00000000000E+00 -0.15893427785E+03  0.15893427785E+03  0.00000000000E+00 0. -1.
         21    1    1    2  503  501 -0.12749526910E+02 -0.20090828539E+02 -0.15681912940E+03  0.15861409513E+03  0.00000000000E+00 0. -1.
         -4    1    1    2    0  502  0.12749526910E+02  0.20090828539E+02  0.11502767989E+03  0.11746301106E+03  0.00000000000E+00 0. -1.
</event>
<event>
 4    1  0.1560907E+006  0.2421435E+02  0.7546771E-02  0.1477788E+00
         -2   -1    0    0    0  501 -0.00000000000E+00  0.00000000000E+00  0.28979337834E+02  0.28979337834E+02  0.00000000000E+00 0.  1.
         21   -1    0    0  503  502  0.00000000000E+00 -0.00000000000E+00 -0.66385951915E+02  0.66385951915E+02  0.00000000000E+00 0. -1.
         21    1    1    2  503  501 -0.79780711482E+01 -0.22862309070E+02 -0.58461135769E+02  0.63277477752E+02  0.00000000000E+00 0. -1.
         -2    1    1    2    0  502  0.79780711482E+01  0.22862309070E+02  0.21054521688E+02  0.32087811997E+02  0.00000000000E+00 0.  1.
</event>
<event>
 4    1  0.1560907E+006  0.3436701E+02  0.7546771E-02  0.1385069E+00
          2   -1    0    0  502    0 -0.00000000000E+00  0.00000000000E+00  0.21356769270E+04  0.21356769270E+04  0.00000000000E+00 0.  1.
         21   -1    0    0  503  502  0.00000000000E+00 -0.00000000000E+00 -0.87196122044E+01  0.87196122044E+01  0.00000000000E+00 0.  1.
         21    1    1    2  503  501  0.10316014308E+02 -0.32782182362E+02  0.25838650610E+02  0.42996831243E+02  0.00000000000E+00 0.  1.
          2    1    1    2  501    0 -0.10316014308E+02  0.32782182362E+02  0.21011186642E+04  0.21013997080E+04  0.00000000000E+00 0.  1.
</event>
<event>
 4    1  0.1560907E+006  0.3371744E+02  0.7546771E-02  0.1389811E+00
         21   -1    0    0  501  502  0.00000000000E+00  0.00000000000E+00  0.31723298565E+03  0.31723298565E+03  0.00000000000E+00 0. -1.
         -2   -1    0    0    0  501 -0.00000000000E+00 -0.00000000000E+00 -0.38152297599E+01  0.38152297599E+01  0.00000000000E+00 0. -1.
         21    1    1    2  503  502  0.25227447730E+02 -0.22370553430E+02  0.19625368393E+03  0.19912903916E+03  0.00000000000E+00 0. -1.
         -2    1    1    2    0  503 -0.25227447730E+02  0.22370553430E+02  0.11716407196E+03  0.12191917625E+03  0.00000000000E+00 0. -1.
</event>
<event>
 4    1  0.1560907E+006  0.2335062E+02  0.7546771E-02  0.1488142E+00
         -2   -1    0    0    0  501 -0.00000000000E+00  0.00000000000E+00  0.63263028694E+01  0.63263028694E+01  0.00000000000E+00 0.  1.
         21   -1    0    0  503  502  0.00000000000E+00 -0.00000000000E+00 -0.88722826122E+02  0.88722826122E+02  0.00000000000E+00 0.  1.
         21    1    1    2  503  501  0.24652871234E+01 -0.23220114752E+02 -0.49231207617E+02  0.54488192970E+02  0.00000000000E+00 0.  1.
         -2    1    1    2    0  502 -0.24652871234E+01  0.23220114752E+02 -0.33165315636E+02  0.40560936022E+02  0.00000000000E+00 0.  1.
</event>
<event>
 4    1  0.1560907E+006  0.2148569E+02  0.7546771E-02  0.1512442E+00
         21   -1    0    0  503  502  0.00000000000E+00  0.00000000000E+00  0.16768767331E+03  0.16768767331E+03  0.00000000000E+00 0.  1.
         -3   -1    0    0    0  501 -0.00000000000E+00 -0.00000000000E+00 -0.34573233278E+02  0.34573233278E+02  0.00000000000E+00 0. -1.
         21    1    1    2  503  501 -0.21011596082E+02  0.44886093319E+01  0.16357783361E+03  0.16498285497E+03  0.00000000000E+00 0.  1.
         -3    1    1    2    0  502  0.21011596082E+02 -0.44886093319E+01 -0.30463393585E+02  0.37278051617E+02  0.00000000000E+00 0. -1.
</event>
<event>
 4    1  0.1560907E+006  0.2358049E+02  0.7546771E-02  0.1485335E+00
         -1   -1    0    0    0  501 -0.00000000000E+00  0.00000000000E+00  0.56708320941E+01  0.56708320941E+01  0.00000000000E+00 0. -1.
         21   -1    0    0  503  502  0.00000000000E+00 -0.00000000000E+00 -0.48536885613E+03  0.48536885613E+03  0.00000000000E+00 0. -1.
         21    1    1    2  503  501  0.18712527776E+02 -0.14348546220E+02 -0.45917169220E+03  0.45977677452E+03  0.00000000000E+00 0. -1.
         -1    1    1    2    0  502 -0.18712527776E+02  0.14348546220E+02 -0.20526331839E+02  0.31262913702E+02  0.00000000000E+00 0. -1.
</event>
<event>
 4    1  0.1560907E+006  0.2381259E+02  0.7546771E-02  0.1482539E+00
          2   -1    0    0  502    0 -0.00000000000E+00  0.00000000000E+00  0.52785890854E+02  0.52785890854E+02  0.00000000000E+00 0. -1.
         21   -1    0    0  503  502  0.00000000000E+00 -0.00000000000E+00 -0.21448532603E+02  0.21448532603E+02  0.00000000000E+00 0. -1.
         21    1    1    2  503  501 -0.19641329096E+02  0.13463191644E+02 -0.10555135356E+02  0.26047077001E+02  0.00000000000E+00 0. -1.
          2    1    1    2  501    0  0.19641329096E+02 -0.13463191644E+02  0.41892493607E+02  0.48187346456E+02  0.00000000000E+00 0. -1.
</event>
<event>
 4    1  0.1560907E+006  0.2505858E+02  0.7546771E-02  0.1468149E+00
         21   -1    0    0  503  502  0.00000000000E+00  0.00000000000E+00  0.73000067123E+01  0.73000067123E+01  0.00000000000E+00 0. -1.
          2   -1    0    0  502    0 -0.00000000000E+00 -0.00000000000E+00 -0.12461670814E+03  0.12461670814E+03  0.00000000000E+00 0.  1.
         21    1    1    2  503  501  0.14001379336E+02  0.20782055810E+02 -0.21949760839E+02  0.33312527192E+02  0.00000000000E+00 0. -1.
          2    1    1    2  501    0 -0.14001379336E+02 -0.20782055810E+02 -0.95366940591E+02  0.98604187663E+02  0.00000000000E+00 0.  1.
</event>
<event>
 4    1  0.1560907E+006  0.2487535E+02  0.7546771E-02  0.1470203E+00
         21   -1    0    0  503  502  0.00000000000E+00  0.00000000000E+00  0.45160217332E+00  0.45160217332E+00  0.00000000000E+00 0. -1.
          1   -1    0    0  502    0 -0.00000000000E+00 -0.00000000000E+00 -0.16923095808E+04  0.16923095808E+04  0.00000000000E+00 0.  1.
         21    1    1    2  503  501  0.23458603877E+02 -0.82750859027E+01 -0.47667021140E+03  0.47731883849E+03  0.00000000000E+00 0. -1.
          1    1    1    2  501    0 -0.23458603877E+02  0.82750859027E+01 -0.12151877672E+04  0.12154423445E+04  0.00000000000E+00 0.  1.
</event>
<event>
 4    1  0.1560907E+006  0.2021523E+02  0.7546771E-02  0.1530771E+00
          2   -1    0    0  503    0 -0.00000000000E+00  0.00000000000E+00  0.84645936524E+03  0.84645936524E+03  0.00000000000E+00 0. -1.
         21   -1    0    0  501  502  0.00000000000E+00 -0.00000000000E+00 -0.10922889717E+01  0.10922889717E+01  0.00000000000E+00 0. -1.
         21    1    1    2  503  502  0.14841727970E+02  0.13725105441E+02  0.10612304197E+03  0.10803127069E+03  0.00000000000E+00 0. -1.
          2    1    1    2  501    0 -0.14841727970E+02 -0.13725105441E+02  0.73924403429E+03  0.73952038352E+03  0.00000000000E+00 0. -1.
</event>
<event>
 4    1  0.1560907E+006  0.2203924E+02  0.7546771E-02  0.1504928E+00
         21   -1    0    0  501  502  0.00000000000E+00  0.00000000000E+00  0.12724158359E+01  0.12724158359E+01  0.00000000000E+00 0. -1.
          1   -1    0    0  503    0 -0.00000000000E+00 -0.00000000000E+00 -0.15923193997E+04  0.15923193997E+04  0.00000000000E+00 0. -1.
         21    1    1    2  503  502 -0.11013221825E+02 -0.19090231664E+02 -0.10077244750E+03  0.10315432213E+03  0.00000000000E+00 0. -1.
          1    1    1    2  501    0  0.11013221825E+02  0.19090231664E+02 -0.14902745364E+04  0.14904374934E+04  0.00000000000E+00 0. -1.
</event>
<event>
 4    1  0.1560907E+006  0.2019715E+02  0.7546771E-02  0.1531043E+00
         -1   -1    0    0    0  501 -0.00000000000E+00  0.00000000000E+00  0.44806280525E+02  0.44806280525E+02  0.00000000000E+00 0.  1.
         21   -1    0    0  503  502  0.00000000000E+00 -0.00000000000E+00 -0.39435165297E+02  0.39435165297E+02  0.00000000000E+00 0. -1.
         21    1    1    2  503  501 -0.20197114699E+02 -0.35514493572E-01 -0.34254468759E+02  0.39765479168E+02  0.00000000000E+00 0. -1.
         -1    1    1    2    0  502  0.20197114699E+02  0.35514493572E-01  0.39625583987E+02  0.44475966654E+02  0.00000000000E+00 0.  1.
</event>
<event>
 4    1  0.1560907E+006  0.2727309E+02  0.7546771E-02  0.1444884E+00
         21   -1    0    0  501  502  0.00000000000E+00  0.00000000000E+00  0.49758185282E+02  0.49758185282E+02  0.00000000000E+00 0. -1.
          2   -1    0    0  503    0 -0.00000000000E+00 -0.00000000000E+00 -0.17664556991E+03  0.17664556991E+03  0.00000000000E+00 0.  1.
         21    1    1    2  503  502 -0.91020914785E+01 -0.25709402633E+02  0.44862435067E+02  0.52501995517E+02  0.00000000000E+00 0. -1.
          2    1    1    2  501    0  0.91020914785E+01  0.25709402633E+02 -0.17174981969E+03  0.17390175967E+03  0.00000000000E+00 0.  1.
</event>
<event>
 4    1  0.1560907E+006  0.2892767E+02  0.7546771E-02  0.1429149E+00
         -3   -1    0    0    0  501 -0.00000000000E+00  0.00000000000E+00  0.52282418271E+02  0.52282418271E+02  0.00000000000E+00 0.  1.
         21   -1    0    0  503  502  0.00000000000E+00 -0.00000000000E+00 -0.86994709094E+02  0.86994709094E+02  0.00000000000E+00 0.  1.
         21    1    1    2  503  501  0.28687635033E+02  0.37188615183E+01 -0.80263194680E+02  0.85317001559E+02  0.00000000000E+00 0.  1.
         -3    1    1    2    0  502 -0.28687635033E+02 -0.37188615183E+01  0.45550903857E+02  0.53960125806E+02  0.00000000000E+00 0.  1.
</event>
<event>
 4    1  0.1560907E+006  0.2089520E+02  0.7546771E-02  0.1520766E+00
         -4   -1    0    0    0  501 -0.00000000000E+00  0.00000000000E+00  0.72960161652E+01  0.72960161652E+01  0.00000000000E+00 0.  1.
         21   -1    0    0  503  502  0.00000000000E+00 -0.00000000000E+00 -0.21303415969E+03  0.21303415969E+03  0.00000000000E+00 0.  1.
         21    1    1    2  503  501 -0.10216723038E+02 -0.18227116237E+02 -0.19628855003E+03  0.19739757868E+03  0.00000000000E+00 0.  1.
         -4    1    1    2    0  502  0.10216723038E+02  0.18227116237E+02 -0.94495934945E+01  0.22932597174E+02  0.00000000000E+00 0.  1.
</event>
<event>
 4    1  0.1560907E+006  0.3254317E+02  0.7546771E-02  0.1398710E+00
         21   -1    0    0  503  502  0.00000000000E+00  0.00000000000E+00  0.51063442901E+03  0.51063442901E+03  0.00000000000E+00 0. -1.
          2   -1    0    0  502    0 -0.00000000000E+00 -0.00000000000E+00 -0.81747920904E+01  0.81747920904E+01  0.00000000000E+00 0. -1.
         21    1    1    2  503  501 -0.18887201883E+02 -0.26501543807E+02  0.47532487537E+03  0.47643760910E+03  0.00000000000E+00 0. -1.
          2    1    1    2  501    0  0.18887201883E+02  0.26501543807E+02  0.27134761547E+02  0.42371611998E+02  0.00000000000E+00 0. -1.
</event>
<event>
 4    1  0.1560907E+006  0.2322078E+02  0.7546771E-02  0.1489744E+00
          2   -1    0    0  502    0 -0.00000000000E+00  0.00000000000E+00  0.11027677485E+03  0.11027677485E+03  0.00000000000E+00 0. -1.
         21   -1    0    0  503  502  0.00000000000E+00 -0.00000000000E+00 -0.27942834300E+02  0.27942834300E+02  0.00000000000E+00 0. -1.
         21    1    1    2  503  501  0.26105304678E+01  0.23073571635E+02 -0.21605724693E+02  0.31717690913E+02  0.00000000000E+00 0. -1.
          2    1    1    2  501    0 -0.26105304678E+01 -0.23073571635E+02  0.10393966525E+03  0.10650191824E+03  0.00000000000E+00 0. -1.
</event>
<event>
 4    1  0.1560907E+006  0.2242193E+02  0.7546771E-02  0.1499887E+00
         21   -1    0    0  503  502  0.00000000000E+00  0.00000000000E+00  0.63229813086E+00  0.63229813086E+00  0.00000000000E+00 0. -1.
          2   -1    0    0  502    0 -0.00000000000E+00 -0.00000000000E+00 -0.94928589652E+03  0.94928589652E+03  0.00000000000E+00 0. -1.
         21    1    1    2  503  501 -0.21891685067E+02  0.48473620189E+01 -0.28291251569E+03  0.28379963764E+03  0.00000000000E+00 0. -1.
          2    1    1    2  501    0  0.21891685067E+02 -0.48473620189E+01 -0.66574108270E+03  0.66611855701E+03  0.00000000000E+00 0. -1.
</event>
<event>
 4    1  0.1560907E+006  0.2412461E+02  0.7546771E-02  0.1478839E+00
         21   -1    0    0  501  502  0.00000000000E+00  0.00000000000E+00  0.17286302307E+04  0.17286302307E+04  0.00000000000E+00 0.  1.
         -2   -1    0    0    0  501 -0.00000000000E+00 -0.00000000000E+00 -0.53330880352E+01  0.53330880352E+01  0.00000000000E+00 0.  1.
         21    1    1    2  503  502  0.21226823718E+02 -0.11463795228E+02  0.17008176006E+04  0.17009886852E+04  0.00000000000E+00 0.  1.
         -2    1    1    2    0  503 -0.21226823718E+02  0.11463795228E+02  0.22479542086E+02  0.32974633562E+02  0.00000000000E+00 0.  1.
</event>
<event>
 4    1  0.1560907E+006  0.2081520E+02  0.7546771E-02  0.1521920E+00
         21   -1    0    0  501  502  0.00000000000E+00  0.00000000000E+00  0.76793203103E+01  0.76793203103E+01  0.00000000000E+00 0. -1.
          4   -1    0    0  503    0 -0.00000000000E+00 -0.00000000000E+00 -0.15396304573E+03  0.15396304573E+03  0.00000000000E+00 0. -1.
         21    1    1    2  503  502  0.20034638320E+02 -0.56467686373E+01 -0.88118666794E+01  0.22603577660E+02  0.00000000000E+00 0. -1.
          4    1    1    2  501    0 -0.20034638320E+02  0.56467686373E+01 -0.13747185875E+03  0.13903878838E+03  0.00000000000E+00 0. -1.
</event>
<event>
 4    1  0.1560907E+006  0.7211224E+02  0.7546771E-02  0.1223447E+00
          2   -1    0    0  503    0 -0.00000000000E+00  0.00000000000E+00  0.79557204439E+02  0.79557204439E+02  0.00000000000E+00 0.  1.
         21   -1    0    0  501  502  0.00000000000E+00 -0.00000000000E+00 -0.99033103957E+02  0.99033103957E+02  0.00000000000E+00 0. -1.
         21    1    1    2  503  502  0.68908248755E+02  0.21256265232E+02 -0.61803876281E+02  0.94973126101E+02  0.00000000000E+00 0. -1.
          2    1    1    2  501    0 -0.68908248755E+02 -0.21256265232E+02  0.42327976763E+02  0.83617182295E+02  0.00000000000E+00 0.  1.
</event>
<event>
 4    1  0.1560907E+006  0.2443535E+02  0.7546771E-02  0.1475220E+00
          1   -1    0    0  503    0 -0.00000000000E+00  0.00000000000E+00  0.90467998744E+02  0.90467998744E+02  0.00000000000E+00 0.  1.
         21   -1    0    0  501  502  0.00000000000E+00 -0.00000000000E+00 -0.36381315330E+02  0.36381315330E+02  0.00000000000E+00 0. -1.
         21    1    1    2  503  502  0.11544054940E+02 -0.21536505770E+02 -0.30340691450E+02  0.38956948583E+02  0.00000000000E+00 0. -1.
          1    1    1    2  501    0 -0.11544054940E+02  0.21536505770E+02  0.84427374864E+02  0.87892365491E+02  0.00000000000E+00 0.  1.
</event>
<event>
 4    1  0.1560907E+006  0.2153742E+02  0.7546771E-02  0.1511728E+00
          2   -1    0    0  502    0 -0.00000000000E+00  0.00000000000E+00  0.79441809927E+03  0.79441809927E+03  0.00000000000E+00 0.  1.
         21   -1    0    0  503  502  0.00000000000E+00 -0.00000000000E+00 -0.20803385335E+02  0.20803385335E+02  0.00000000000E+00 0.  1.
         21    1    1    2  503  501  0.13067911583E+02 -0.17119880376E+02 -0.15042357651E+02  0.26270385245E+02  0.00000000000E+00 0.  1.
          2    1    1    2  501    0 -0.13067911583E+02  0.17119880376E+02  0.78865707159E+03  0.78895109936E+03  0.00000000000E+00 0.  1.
</event>
<event>
 4    1  0.1560907E+006  0.2344769E+02  0.7546771E-02  0.1486952E+00
          1   -1    0    0  503    0 -0.00000000000E+00  0.00000000000E+00  0.19444717730E+02  0.19444717730E+02  0.00000000000E+00 0. -1.
         21   -1    0    0  501  502  0.00000000000E+00 -0.00000000000E+00 -0.30971573556E+02  0.30971573556E+02  0.00000000000E+00 0. -1.
         21    1    1    2  503  502 -0.17729522994E+02  0.15344642825E+02 -0.13201965009E+02  0.26908844812E+02  0.00000000000E+00 0. -1.
          1    1    1    2  501    0  0.17729522994E+02 -0.15344642825E+02  0.16751091825E+01  0.23507446475E+02  0.00000000000E+00 0. -1.
</event>
<event>
 4    1  0.1560907E+006  0.4040951E+02  0.7546771E-02  0.1346103E+00
          2   -1    0    0  503    0 -0.00000000000E+00  0.00000000000E+00  0.42775321296E+03  0.42775321296E+03  0.00000000000E+00 0.  1.
         21   -1    0    0  501  502  0.00000000000E+00 -0.00000000000E+00 -0.21415359493E+02  0.21415359493E+02  0.00000000000E+00 0. -1.
         21    1    1    2  503  502  0.80136704670E+01  0.39606938467E+02 -0.41672384392E+00  0.40411658563E+02  0.00000000000E+00 0. -1.
          2    1    1    2  501    0 -0.80136704670E+01 -0.39606938467E+02  0.40675457731E+03  0.40875691388E+03  0.00000000000E+00 0.  1.
</event>
<event>
 4    1  0.1560907E+006  0.2304752E+02  0.7546771E-02  0.1491902E+00
          1   -1    0    0  503    0 -0.00000000000E+00  0.00000000000E+00  0.13234844885E+02  0.13234844885E+02  0.00000000000E+00 0.  1.
         21   -1    0    0  501  502  0.00000000000E+00 -0.00000000000E+00 -0.79192153611E+02  0.79192153611E+02  0.00000000000E+00 0.  1.
         21    1    1    2  503  502  0.54600112013E+01 -0.22391433294E+02 -0.65433154036E+02  0.69373522719E+02  0.00000000000E+00 0.  1.
          1    1    1    2  501    0 -0.54600112013E+01  0.22391433294E+02 -0.52415468955E+00  0.23053475778E+02  0.00000000000E+00 0.  1.
</event>
<event>
 4    1  0.1560907E+006  0.2974638E+02  0.7546771E-02  0.1421813E+00
         21   -1    0    0  503  502  0.00000000000E+00  0.00000000000E+00  0.13131680193E+03  0.13131680193E+03  0.00000000000E+00 0. -1.
          2   -1    0    0  502    0 -0.00000000000E+00 -0.00000000000E+00 -0.13169663462E+04  0.13169663462E+04  0.00000000000E+00 0.  1.
         21    1    1    2  503  501  0.80242600772E+01 -0.28643648548E+02  0.12946188933E+03  0.13283534221E+03  0.00000000000E+00 0. -1.
          2    1    1    2  501    0 -0.80242600772E+01  0.28643648548E+02 -0.13151114336E+04  0.13154478060E+04  0.00000000000E+00 0.  1.
</event>
<event>
 4    1  0.1560907E+006  0.3438672E+02  0.7546771E-02  0.1384927E+00
         -1   -1    0    0    0  501 -0.00000000000E+00  0.00000000000E+00  0.15913799339E+03  0.15913799339E+03  0.00000000000E+00 0. -1.
         21   -1    0    0  501  502  0.00000000000E+00 -0.00000000000E+00 -0.47231571708E+02  0.47231571708E+02  0.00000000000E+00 0.  1.
         21    1    1    2  503  502 -0.34248307904E+02 -0.30822126745E+01 -0.38768123086E+02  0.51820980277E+02  0.00000000000E+00 0.  1.
         -1    1    1    2    0  503  0.34248307904E+02  0.30822126745E+01  0.15067454477E+03  0.15454858482E+03  0.00000000000E+00 0. -1.
</event>
<event>
 4    1  0.1560907E+006  0.4063453E+02  0.7546771E-02  0.1344807E+00
         21   -1    0    0  501  502  0.00000000000E+00  0.00000000000E+00  0.56370004164E+02  0.56370004164E+02  0.00000000000E+00 0. -1.
          2   -1    0    0  503    0 -0.00000000000E+00 -0.00000000000E+00 -0.49658105248E+03  0.49658105248E+03  0.00000000000E+00 0. -1.
         21    1    1    2  503  502  0.29283811451E+02  0.28171315554E+02  0.48091922004E+02  0.62960285857E+02  0.00000000000E+00 0. -1.
          2    1    1    2  501    0 -0.29283811451E+02 -0.28171315554E+02 -0.48830297032E+03  0.48999077079E+03  0.00000000000E+00 0. -1.
</event>
<event>
 4    1  0.1560907E+006  0.2374103E+02  0.7546771E-02  0.1483397E+00
         21   -1    0    0  501  502  0.00000000000E+00  0.00000000000E+00  0.26410581470E+02  0.26410581470E+02  0.00000000000E+00 0.  1.
         -3   -1    0    0    0  501 -0.00000000000E+00 -0.00000000000E+00 -0.16058082680E+03  0.16058082680E+03  0.00000000000E+00 0.  1.
         21    1    1    2  503  502 -0.22542554216E+02  0.74477977565E+01  0.19976360915E+02  0.31027269255E+02  0.00000000000E+00 0.  1.
         -3    1    1    2    0  503  0.22542554216E+02 -0.74477977565E+01 -0.15414660625E+03  0.15596413902E+03  0.00000000000E+00 0.  1.
</event>
<event>
 4    1  0.1560907E+006  0.2124931E+02  0.7546771E-02  0.1515735E+00
         -4   -1    0    0    0  501 -0.00000000000E+00  0.00000000000E+00  0.55126675030E+02  0.55126675030E+02  0.00000000000E+00 0. -1.
         21   -1    0    0  501  502  0.00000000000E+00 -0.00000000000E+00 -0.60786145518E+02  0.60786145518E+02  0.00000000000E+00 0.  1.
         21    1    1    2  503  502 -0.83024391270E+01 -0.19560233999E+02 -0.56740154075E+02  0.60588599043E+02  0.00000000000E+00 0.  1.
         -4    1    1    2    0  503  0.83024391270E+01  0.19560233999E+02  0.51080683586E+02  0.55324221506E+02  0.00000000000E+00 0. -1.
</event>
<event>
 4    1  0.1560907E+006  0.3864198E+02  0.7546771E-02  0.1356633E+00
          2   -1    0    0  502    0 -0.00000000000E+00  0.00000000000E+00  0.54457553834E+03  0.54457553834E+03  0.00000000000E+00 0.  1.
         21   -1    0    0  503  502  0.00000000000E+00 -0.00000000000E+00 -0.93336050490E+03  0.93336050490E+03  0.00000000000E+00 0. -1.
         21    1    1    2  503  501  0.16237205620E+02 -0.35065019175E+02 -0.93227426414E+03  0.93307475906E+03  0.00000000000E+00 0. -1.
          2    1    1    2  501    0 -0.16237205620E+02  0.35065019175E+02  0.54348929758E+03  0.54486128418E+03  0.00000000000E+00 0.  1.
</event>
<event>
 4    1  0.1560907E+006  0.2781661E+02  0.7546771E-02  0.1439573E+00
         21   -1    0    0  501  502  0.00000000000E+00  0.00000000000E+00  0.57028080541E+02  0.57028080541E+02  0.00000000000E+00 0.  1.
         -2   -1    0    0    0  501 -0.00000000000E+00 -0.00000000000E+00 -0.21535269819E+03  0.21535269819E+03  0.00000000000E+00 0. -1.
         21    1    1    2  503  502  0.13409222497E+02  0.24371222286E+02  0.52668006428E+02  0.59562426283E+02  0.00000000000E+00 0.  1.
         -2    1    1    2    0  503 -0.13409222497E+02 -0.24371222286E+02 -0.21099262407E+03  0.21281835244E+03  0.00000000000E+00 0. -1.
</event>
<event>
 4    1  0.1560907E+006  0.2162939E+02  0.7546771E-02  0.1510465E+00
         21   -1    0    0  503  502  0.00000000000E+00  0.00000000000E+00  0.33718222278E+03  0.33718222278E+03  0.00000000000E+00 0. -1.
          3   -1    0    0  502    0 -0.00000000000E+00 -0.00000000000E+00 -0.11170728025E+02  0.11170728025E+02  0.00000000000E+00 0. -1.
         21    1    1    2  503  501 -0.21163315432E+02  0.44659191874E+01  0.32600683564E+03  0.32672356394E+03  0.00000000000E+00 0. -1.
          3    1    1    2  501    0  0.21163315432E+02 -0.44659191874E+01  0.46591183840E-02  0.21629386860E+02  0.00000000000E+00 0. -1.
</event>
<event>
 4    1  0.1560907E+006  0.2010036E+02  0.7546771E-02  0.1532507E+00
         21   -1    0    0  501  502  0.00000000000E+00  0.00000000000E+00  0.35176577515E+00  0.35176577515E+00  0.00000000000E+00 0. -1.
          2   -1    0    0  503    0 -0.00000000000E+00 -0.00000000000E+00 -0.13297065342E+04  0.13297065342E+04  0.00000000000E+00 0.  1.
         21    1    1    2  503  502  0.91911595899E+01 -0.17875881986E+02 -0.41921995330E+03  0.41970155327E+03  0.00000000000E+00 0. -1.
          2    1    1    2  501    0 -0.91911595899E+01  0.17875881986E+02 -0.91013481512E+03  0.91035674670E+03  0.00000000000E+00 0.  1.
</event>
<event>
 4    1  0.1560907E+006  0.3919680E+02  0.7546771E-02  0.1353258E+00
         21   -1    0    0  501  502  0.00000000000E+00  0.00000000000E+00  0.81240972875E+02  0.81240972875E+02  0.00000000000E+00 0.  1.
         -1   -1    0    0    0  501 -0.00000000000E+00 -0.00000000000E+00 -0.60127254461E+02  0.60127254461E+02  0.00000000000E+00 0.  1.
         21    1    1    2  503  502  0.32582249959E+02 -0.21789594803E+02  0.69078663213E+02  0.79424499780E+02  0.00000000000E+00 0.  1.
         -1    1    1    2    0  503 -0.32582249959E+02  0.21789594803E+02 -0.47964944798E+02  0.61943727556E+02  0.00000000000E+00 0.  1.
</event>
<event>
 4    1  0.1560907E+006  0.4096880E+02  0.7546771E-02  0.1342900E+00
         21   -1    0    0  501  502  0.00000000000E+00  0.00000000000E+00  0.14530852717E+02  0.14530852717E+02  0.00000000000E+00 0.  1.
         -4   -1    0    0    0  501 -0.00000000000E+00 -0.00000000000E+00 -0.15381819287E+03  0.15381819287E+03  0.00000000000E+00 0.  1.
         21    1    1    2  503  502 -0.24142726022E+02 -0.33099412280E+02 -0.27635953647E+02  0.49418501060E+02  0.00000000000E+00 0.  1.
         -4    1    1    2    0  503  0.24142726022E+02  0.33099412280E+02 -0.11165138651E+03  0.11893054453E+03  0.00000000000E+00 0.  1.
</event>
<event>
 4    1  0.1560907E+006  0.2987039E+02  0.7546771E-02  0.1420726E+00
          2   -1    0    0  502    0 -0.00000000000E+00  0.00000000000E+00  0.11243972955E+04  0.11243972955E+04  0.00000000000E+00 0.  1.
         21   -1    0    0  503  502  0.00000000000E+00 -0.00000000000E+00 -0.97129810042E+01  0.97129810042E+01  0.00000000000E+00 0.  1.
         21    1    1    2  503  501  0.25740525783E+02 -0.15154721149E+02  0.13944024285E+02  0.32964769891E+02  0.00000000000E+00 0.  1.
          2    1    1    2  501    0 -0.25740525783E+02  0.15154721149E+02  0.11007402902E+04  0.11011455066E+04  0.00000000000E+00 0.  1.
</event>
<event>
 4    1  0.1560907E+006  0.2633829E+02  0.7546771E-02  0.1454371E+00
         21   -1    0    0  503  502  0.00000000000E+00  0.00000000000E+00  0.10113244403E+03  0.10113244403E+03  0.00000000000E+00 0. -1.
         -1   -1    0    0    0  501 -0.00000000000E+00 -0.00000000000E+00 -0.12103376185E+03  0.12103376185E+03  0.00000000000E+00 0.  1.
         21    1    1    2  503  501  0.25603570082E+02 -0.61775797506E+01  0.97938816631E+02  0.10141852442E+03  0.00000000000E+00 0. -1.
         -1    1    1    2    0  502 -0.25603570082E+02  0.61775797506E+01 -0.11784013445E+03  0.12074768146E+03  0.00000000000E+00 0.  1.
</event>
<event>
 4    1  0.1560907E+006  0.2925975E+02  0.7546771E-02  0.1426140E+00
         21   -1    0    0  503  502  0.00000000000E+00  0.00000000000E+00  0.56780903760E+01  0.56780903760E+01  0.00000000000E+00 0.  1.
          3   -1    0    0  502    0 -0.00000000000E+00 -0.00000000000E+00 -0.19357317411E+03  0.19357317411E+03  0.00000000000E+00 0.  1.
         21    1    1    2  503  501 -0.28747090563E+02 -0.54532601946E+01 -0.47104619582E+02  0.55452488209E+02  0.00000000000E+00 0.  1.
          3    1    1    2  501    0  0.28747090563E+02  0.54532601946E+01 -0.14079046415E+03  0.14379877628E+03  0.00000000000E+00 0.  1.
</event>
<event>
 4    1  0.1560907E+006  0.2104971E+02  0.7546771E-02  0.1518556E+00
          2   -1    0    0  503    0 -0.00000000000E+00  0.00000000000E+00  0.87399349024E+03  0.87399349024E+03  0.00000000000E+00 0.  1.
         21   -1    0    0  501  502  0.00000000000E+00 -0.00000000000E+00 -0.22665507461E+01  0.22665507461E+01  0.00000000000E+00 0. -1.
         21    1    1    2  503  502 -0.14558360758E+02  0.15203431849E+02  0.49830280372E+02  0.54093872573E+02  0.00000000000E+00 0. -1.
          2    1    1    2  501    0  0.14558360758E+02 -0.15203431849E+02  0.82189665912E+03  0.82216616841E+03  0.00000000000E+00 0.  1.
</event>
<event>
 4    1  0.1560907E+006  0.2751107E+02  0.7546771E-02  0.1442541E+00
         21   -1    0    0  501  502  0.00000000000E+00  0.00000000000E+00  0.40290203087E+01  0.40290203087E+01  0.00000000000E+00 0.  1.
          2   -1    0    0  503    0 -0.00000000000E+00 -0.00000000000E+00 -0.24074797456E+03  0.24074797456E+03  0.00000000000E+00 0.  1.
         21    1    1    2  503  502 -0.24060217897E+02  0.13340352559E+02 -0.60991302299E+02  0.66908878692E+02  0.00000000000E+00 0.  1.
          2    1    1    2  501    0  0.24060217897E+02 -0.13340352559E+02 -0.17572765195E+03  0.17786811617E+03  0.00000000000E+00 0.  1.
</event>
<event>
 4    1  0.1560907E+006  0.2670621E+02  0.7546771E-02  0.1450582E+00
         21   -1    0    0  501  502  0.00000000000E+00  0.00000000000E+00  0.88659419932E+01  0.88659419932E+01  0.00000000000E+00 0. -1.
         -1   -1    0    0    0  501 -0.00000000000E+00 -0.00000000000E+00 -0.15902883620E+03  0.15902883620E+03  0.00000000000E+00 0. -1.
         21    1    1    2  503  502  0.23866482445E+02 -0.11983840535E+02 -0.16070084448E+02  0.31168397977E+02  0.00000000000E+00 0. -1.
         -1    1    1    2    0  503 -0.23866482445E+02  0.11983840535E+02 -0.13409280976E+03  0.13672638022E+03  0.00000000000E+00 0. -1.
</event>
<event>
 4    1  0.1560907E+006  0.2583816E+02  0.7546771E-02  0.1459641E+00
         21   -1    0    0  501  502  0.00000000000E+00  0.00000000000E+00  0.60602134059E+02  0.60602134059E+02  0.00000000000E+00 0. -1.
          1   -1    0    0  503    0 -0.00000000000E+00 -0.00000000000E+00 -0.15722434489E+03  0.15722434489E+03  0.00000000000E+00 0. -1.
         21    1    1    2  503  502 -0.99561162629E+01  0.23842950766E+02  0.56717217738E+02  0.62325382792E+02  0.00000000000E+00 0. -1.
          1    1    1    2  501    0  0.99561162629E+01 -0.23842950766E+02 -0.15333942857E+03  0.15550109616E+03  0.00000000000E+00 0. -1.
</event>
<event>
 4    1  0.1560907E+006  0.2923841E+02  0.7546771E-02  0.1426332E+00
         21   -1    0    0  503  502  0.00000000000E+00  0.00000000000E+00  0.61625722696E+02  0.61625722696E+02  0.00000000000E+00 0. -1.
          1   -1    0    0  502    0 -0.00000000000E+00 -0.00000000000E+00 -0.47312214383E+03  0.47312214383E+03  0.00000000000E+00 0. -1.
         21    1    1    2  503  501  0.23389749299E+02 -0.17544347308E+02  0.57676785457E+02  0.64664488519E+02  0.00000000000E+00 0. -1.
          1    1    1    2  501    0 -0.23389749299E+02  0.17544347308E+02 -0.46917320659E+03  0.47008337800E+03  0.00000000000E+00 0. -1.
</event>
<event>
 4    1  0.1560907E+006  0.4035135E+02  0.7546771E-02  0.1346439E+00
         21   -1    0    0  501  502  0.00000000000E+00  0.00000000000E+00  0.10612831389E+02  0.10612831389E+02  0.00000000000E+00 0. -1.
          4   -1    0    0  503    0 -0.00000000000E+00 -0.00000000000E+00 -0.17011134051E+03  0.17011134051E+03  0.00000000000E+00 0. -1.
         21    1    1    2  503  502 -0.37760110618E+02  0.14226918411E+02 -0.51444964536E+02  0.65382073518E+02  0.00000000000E+00 0. -1.
          4    1    1    2  501    0  0.37760110618E+02 -0.14226918411E+02 -0.10805354458E+03  0.11534209838E+03  0.00000000000E+00 0. -1.
</event>
<event>
 4    1  0.1560907E+006  0.2026654E+02  0.7546771E-02  0.1529999E+00
          2   -1    0    0  502    0 -0.00000000000E+00  0.00000000000E+00  0.12372084139E+03  0.12372084139E+03  0.00000000000E+00 0.  1.
         21   -1    0    0  503  502  0.00000000000E+00 -0.00000000000E+00 -0.18312667762E+02  0.18312667762E+02  0.00000000000E+00 0. -1.
         21    1    1    2  503  501  0.93063712561E+01 -0.18003447478E+02 -0.11553864442E+02  0.23328618703E+02  0.00000000000E+00 0. -1.
          2    1    1    2  501    0 -0.93063712561E+01  0.18003447478E+02  0.11696203807E+03  0.11870489045E+03  0.00000000000E+00 0.  1.
</event>
<event>
 4    1  0.1560907E+006  0.2675585E+02  0.7546771E-02  0.1450076E+00
         21   -1    0    0  501  502  0.00000000000E+00  0.00000000000E+00  0.13205435117E+02  0.13205435117E+02  0.00000000000E+00 0.  1.
         -4   -1    0    0    0  501 -0.00000000000E+00 -0.00000000000E+00 -0.28728597128E+03  0.28728597128E+03  0.00000000000E+00 0. -1.
         21    1    1    2  503  502  0.11658359688E+01  0.26730436203E+02 -0.17106099271E+01  0.26810475181E+02  0.00000000000E+00 0.  1.
         -4    1    1    2    0  503 -0.11658359688E+01 -0.26730436203E+02 -0.27236992623E+03  0.27368093121E+03  0.00000000000E+00 0. -1.
</event>
<event>
 4    1  0.1560907E+006  0.2251811E+02  0.7546771E-02  0.1498640E+00
         -2   -1    0    0    0  501 -0.00000000000E+00  0.00000000000E+00  0.25258130445E+03  0.25258130445E+03  0.00000000000E+00 0. -1.
         21   -1    0    0  503  502  0.00000000000E+00 -0.00000000000E+00 -0.10881404263E+02  0.10881404263E+02  0.00000000000E+00 0. -1.
         21    1    1    2  503  501 -0.16109520447E+02  0.15733673467E+02  0.18893180221E+01  0.22597226652E+02  0.00000000000E+00 0. -1.
         -2    1    1    2    0  502  0.16109520447E+02 -0.15733673467E+02  0.23981058216E+03  0.24086548206E+03  0.00000000000E+00 0. -1.
</event>
<event>
 4    1  0.1560907E+006  0.4842819E+02  0.7546771E-02  0.1305135E+00
          1   -1    0    0  503    0 -0.00000000000E+00  0.00000000000E+00  0.42520130602E+03  0.42520130602E+03  0.00000000000E+00 0. -1.
         21   -1    0    0  501  502  0.00000000000E+00 -0.00000000000E+00 -0.61466969431E+01  0.61466969431E+01  0.00000000000E+00 0.  1.
         21    1    1    2  503  502 -0.47700780338E+02 -0.83621339566E+01  0.14042620622E+03  0.14854228059E+03  0.00000000000E+00 0.  1.
          1    1    1    2  501    0  0.47700780338E+02  0.83621339566E+01  0.27862840286E+03  0.28280572238E+03  0.00000000000E+00 0. -1.
</event>
<event>
 4    1  0.1560907E+006  0.2115298E+02  0.7546771E-02  0.1517092E+00
         21   -1    0    0  501  502  0.00000000000E+00  0.00000000000E+00  0.75987623420E+02  0.75987623420E+02  0.00000000000E+00 0.  1.
         -1   -1    0    0    0  501 -0.00000000000E+00 -0.00000000000E+00 -0.29897093525E+02  0.29897093525E+02  0.00000000000E+00 0. -1.
         21    1    1    2  503  502 -0.11737676234E+02  0.17597598598E+02  0.70488326458E+02  0.73593835928E+02  0.00000000000E+00 0.  1.
         -1    1    1    2    0  503  0.11737676234E+02 -0.17597598598E+02 -0.24397796563E+02  0.32290881018E+02  0.00000000000E+00 0. -1.
</event>
<event>
 4    1  0.1560907E+006  0.2662077E+02  0.7546771E-02  0.1451455E+00
         21   -1    0    0  503  502  0.00000000000E+00  0.00000000000E+00  0.22388164010E+03  0.22388164010E+03  0.00000000000E+00 0. -1.
          1   -1    0    0  502    0 -0.00000000000E+00 -0.00000000000E+00 -0.99411831250E+02  0.99411831250E+02  0.00000000000E+00 0.  1.
         21    1    1    2  503  501  0.14378316661E+01  0.26581913890E+02  0.22128733658E+03  0.22288281862E+03  0.00000000000E+00 0. -1.
          1    1    1    2  501    0 -0.14378316661E+01 -0.26581913890E+02 -0.96817527729E+02  0.10041065273E+03  0.00000000000E+00 0.  1.
</event>
<event>
 4    1  0.1560907E+006  0.4044521E+02  0.7546771E-02  0.1345896E+00
          1   -1    0    0  503    0 -0.00000000000E+00  0.00000000000E+00  0.73520021829E+03  0.73520021829E+03  0.00000000000E+00 0. -1.
         21   -1    0    0  501  502  0.00000000000E+00 -0.00000000000E+00 -0.33896056391E+01  0.33896056391E+01  0.00000000000E+00 0.  1.
         21    1    1    2  503  502  0.40040435993E+02  0.57077369062E+01  0.14943933727E+03  0.15481579474E+03  0.00000000000E+00 0.  1.
          1    1    1    2  501    0 -0.40040435993E+02 -0.57077369062E+01  0.58237127538E+03  0.58377402919E+03  0.00000000000E+00 0. -1.
</event>
<event>
 4    1  0.1560907E+006  0.2388946E+02  0.7546771E-02  0.1481621E+00
         21   -1    0    0  501  502  0.00000000000E+00  0.00000000000E+00  0.12811799604E+01  0.12811799604E+01  0.00000000000E+00 0.  1.
          1   -1    0    0  503    0 -0.00000000000E+00 -0.00000000000E+00 -0.45956284648E+03  0.45956284648E+03  0.00000000000E+00 0.  1.
         21    1    1    2  503  502  0.23874343264E+02  0.84975598104E+00 -0.26951484537E+03  0.27057153994E+03  0.00000000000E+00 0.  1.
          1    1    1    2  501    0 -0.23874343264E+02 -0.84975598104E+00 -0.18876682115E+03  0.19027248650E+03  0.00000000000E+00 0.  1.
</event>
<event>
 4    1  0.1560907E+006  0.2196616E+02  0.7546771E-02  0.1505905E+00
         21   -1    0    0  501  502  0.00000000000E+00  0.00000000000E+00  0.32942776931E+00  0.32942776931E+00  0.00000000000E+00 0. -1.
          1   -1    0    0  503    0 -0.00000000000E+00 -0.00000000000E+00 -0.14680320516E+04  0.14680320516E+04  0.00000000000E+00 0.  1.
         21    1    1    2  503  502 -0.70941747341E+00  0.21954703526E+02 -0.69886448723E+03  0.69920961363E+03  0.00000000000E+00 0. -1.
          1    1    1    2  501    0  0.70941747341E+00 -0.21954703526E+02 -0.76883813657E+03  0.76915186571E+03  0.00000000000E+00 0.  1.
</event>
<event>
 4    1  0.1560907E+006  0.2905412E+02  0.7546771E-02  0.1427998E+00
         21   -1    0    0  501  502  0.00000000000E+00  0.00000000000E+00  0.26374039014E+01  0.26374039014E+01  0.00000000000E+00 0. -1.
          1   -1    0    0  503    0 -0.00000000000E+00 -0.00000000000E+00 -0.21950049215E+04  0.21950049215E+04  0.00000000000E+00 0. -1.
         21    1    1    2  503  502 -0.18163750987E+02  0.22676425189E+02 -0.80630085686E+02  0.85705033848E+02  0.00000000000E+00 0. -1.
          1    1    1    2  501    0  0.18163750987E+02 -0.22676425189E+02 -0.21117374319E+04  0.21119372916E+04  0.00000000000E+00 0. -1.
</event>
<event>
 4    1  0.1560907E+006  0.2101639E+02  0.7546771E-02  0.1519031E+00
          2   -1    0    0  503    0 -0.00000000000E+00  0.00000000000E+00  0.16363660381E+04  0.16363660381E+04  0.00000000000E+00 0.  1.
         21   -1    0    0  501  502  0.00000000000E+00 -0.00000000000E+00 -0.56088315574E+00  0.56088315574E+00  0.00000000000E+00 0. -1.
         21    1    1    2  503  502 -0.15633748182E+02 -0.14045450795E+02  0.22840542900E+03  0.22937028746E+03  0.00000000000E+00 0. -1.
          2    1    1    2  501    0  0.15633748182E+02  0.14045450795E+02  0.14073997259E+04  0.14075566338E+04  0.00000000000E+00 0.  1.
</event>
<event>
 4    1  0.1560907E+006  0.4218038E+02  0.7546771E-02  0.1336162E+00
         -1   -1    0    0    0  501 -0.00000000000E+00  0.00000000000E+00  0.11705919718E+04  0.11705919718E+04  0.00000000000E+00 0.  1.
         21   -1    0    0  503  502  0.00000000000E+00 -0.00000000000E+00 -0.19358333338E+01  0.19358333338E+01  0.00000000000E+00 0.  1.
         21    1    1    2  503  501  0.19933348342E+02 -0.37173191819E+02  0.31257765117E+03  0.31541079972E+03  0.00000000000E+00 0.  1.
         -1    1    1    2    0  502 -0.19933348342E+02  0.37173191819E+02  0.85607848726E+03  0.85711700539E+03  0.00000000000E+00 0.  1.
</event>
<event>
 4    1  0.1560907E+006  0.4089578E+02  0.7546771E-02  0.1343315E+00
         -2   -1    0    0    0  501 -0.00000000000E+00  0.00000000000E+00  0.58976577156E+02  0.58976577156E+02  0.00000000000E+00 0. -1.
         21   -1    0    0  503  502  0.00000000000E+00 -0.00000000000E+00 -0.27492988683E+04  0.27492988683E+04  0.00000000000E+00 0.  1.
         21    1    1    2  503  501 -0.40705839169E+02  0.39368884237E+01 -0.27420384884E+04  0.27423434388E+04  0.00000000000E+00 0.  1.
         -2    1    1    2    0  502  0.40705839169E+02 -0.39368884237E+01  0.51716197302E+02  0.65932006615E+02  0.00000000000E+00 0. -1.
</event>
<event>
 4    1  0.1560907E+006  0.2971192E+02  0.7546771E-02  0.1422117E+00
         21   -1    0    0  503  502  0.00000000000E+00  0.00000000000E+00  0.41969400052E+02  0.41969400052E+02  0.00000000000E+00 0.  1.
          2   -1    0    0  502    0 -0.00000000000E+00 -0.00000000000E+00 -0.18335305611E+03  0.18335305611E+03  0.00000000000E+00 0.  1.
         21    1    1    2  503  501 -0.29628413176E+02  0.22261217985E+01  0.35310330402E+02  0.46147783464E+02  0.00000000000E+00 0.  1.
          2    1    1    2  501    0  0.29628413176E+02 -0.22261217985E+01 -0.17669398646E+03  0.17917467270E+03  0.00000000000E+00 0.  1.
</event>
<event>
 4    1  0.1560907E+006  0.2593224E+02  0.7546771E-02  0.1458639E+00
         21   -1    0    0  503  502  0.00000000000E+00  0.00000000000E+00  0.13923935443E+04  0.13923935443E+04  0.00000000000E+00 0.  1.
         -3   -1    0    0    0  501 -0.00000000000E+00 -0.00000000000E+00 -0.42872452687E+03  0.42872452687E+03  0.00000000000E+00 0. -1.
         21    1    1    2  503  501 -0.23380407277E+02  0.11217739685E+02  0.13918805173E+04  0.13921220692E+04  0.00000000000E+00 0.  1.
         -3    1    1    2    0  502  0.23380407277E+02 -0.11217739685E+02 -0.42821149984E+03  0.42899600199E+03  0.00000000000E+00 0. -1.
</event>
<event>
 4    1  0.1560907E+006  0.4329999E+02  0.7546771E-02  0.1330162E+00
          2   -1    0    0  503    0 -0.00000000000E+00  0.00000000000E+00  0.22175912723E+03  0.22175912723E+03  0.00000000000E+00 0. -1.
         21   -1    0    0  501  502  0.00000000000E+00 -0.00000000000E+00 -0.91448955429E+01  0.91448955429E+01  0.00000000000E+00 0. -1.
         21    1    1    2  503  502 -0.20867667942E+02 -0.37939817880E+02  0.74587852174E+02  0.86245214580E+02  0.00000000000E+00 0. -1.
          2    1    1    2  501    0  0.20867667942E+02  0.37939817880E+02  0.13802637951E+03  0.14465880819E+03  0.00000000000E+00 0. -1.
</event>
<event>
 4    1  0.1560907E+006  0.4176826E+02  0.7546771E-02  0.1338424E+00
         21   -1    0    0  501  502  0.00000000000E+00  0.00000000000E+00  0.13782147245E+01  0.13782147245E+01  0.00000000000E+00 0. -1.
          1   -1    0    0  503    0 -0.00000000000E+00 -0.00000000000E+00 -0.21146334193E+04  0.21146334193E+04  0.00000000000E+00 0.  1.
         21    1    1    2  503  502  0.30980219084E+02  0.28014524473E+02 -0.38632069197E+03  0.38857208418E+03  0.00000000000E+00 0. -1.
          1    1    1    2  501    0 -0.30980219084E+02 -0.28014524473E+02 -0.17269345126E+04  0.17274395499E+04  0.00000000000E+00 0.  1.
</event>
<event>
 4    1  0.1560907E+006  0.2325575E+02  0.7546771E-02  0.1489311E+00
         21   -1    0    0  503  502  0.00000000000E+00  0.00000000000E+00  0.13047052642E+03  0.13047052642E+03  0.00000000000E+00 0. -1.
          2   -1    0    0  502    0 -0.00000000000E+00 -0.00000000000E+00 -0.21135738298E+02  0.21135738298E+02  0.00000000000E+00 0.  1.
         21    1    1    2  503  501  0.21078054105E+02 -0.98257515694E+01  0.12263182476E+03  0.12481744350E+03  0.00000000000E+00 0. -1.
          2    1    1    2  501    0 -0.21078054105E+02  0.98257515694E+01 -0.13297036638E+02  0.26788821215E+02  0.00000000000E+00 0.  1.
</event>
<event>
 4    1  0.1560907E+006  0.2998646E+02  0.7546771E-02  0.1419714E+00
          3   -1    0    0  502    0 -0.00000000000E+00  0.00000000000E+00  0.11314609423E+03  0.11314609423E+03  0.00000000000E+00 0. -1.
         21   -1    0    0  503  502  0.00000000000E+00 -0.00000000000E+00 -0.65691997310E+02  0.65691997310E+02  0.00000000000E+00 0.  1.
         21    1    1    2  503  501 -0.16294468434E+02  0.25172959914E+02 -0.60108934747E+02  0.67173444521E+02  0.00000000000E+00 0.  1.
          3    1    1    2  501    0  0.16294468434E+02 -0.25172959914E+02  0.10756303167E+03  0.11166464702E+03  0.00000000000E+00 0. -1.
</event>
<event>
 4    1  0.1560907E+006  0.2152076E+02  0.7546771E-02  0.1511958E+00
         21   -1    0    0  503  502  0.00000000000E+00  0.00000000000E+00  0.32658664650E+03  0.32658664650E+03  0.00000000000E+00 0. -1.
         -1   -1    0    0    0  501 -0.00000000000E+00 -0.00000000000E+00 -0.25043880216E+01  0.25043880216E+01  0.00000000000E+00 0.  1.
         21    1    1    2  503  501 -0.24697439504E+01  0.21378577559E+02  0.27040916415E+03  0.27126418723E+03  0.00000000000E+00 0. -1.
         -1    1    1    2    0  502  0.24697439504E+01 -0.21378577559E+02  0.53673094325E+02  0.57826847295E+02  0.00000000000E+00 0.  1.
</event>
<event>
 4    1  0.1560907E+006  0.2129815E+02  0.7546771E-02  0.1515050E+00
         -3   -1    0    0    0  501 -0.00000000000E+00  0.00000000000E+00  0.12009674513E+03  0.12009674513E+03  0.00000000000E+00 0. -1.
         21   -1    0    0  503  502  0.00000000000E+00 -0.00000000000E+00 -0.27183873891E+03  0.27183873891E+03  0.00000000000E+00 0.  1.
         21    1    1    2  503  501 -0.29758968212E+01 -0.21089224634E+02 -0.27047254477E+03  0.27130980231E+03  0.00000000000E+00 0.  1.
         -3    1    1    2    0  502  0.29758968212E+01  0.21089224634E+02  0.11873055098E+03  0.12062568174E+03  0.00000000000E+00 0. -1.
</event>
<event>
 4    1  0.1560907E+006  0.2642528E+02  0.7546771E-02  0.1453468E+00
          1   -1    0    0  502    0 -0.00000000000E+00  0.00000000000E+00  0.34479852299E+03  0.34479852299E+03  0.00000000000E+00 0. -1.
         21   -1    0    0  503  502  0.00000000000E+00 -0.00000000000E+00 -0.63394698527E+01  0.63394698527E+01  0.00000000000E+00 0.  1.
         21    1    1    2  503  501  0.90481160235E+01 -0.24827945123E+02  0.24394483559E+02  0.35963677380E+02  0.00000000000E+00 0.  1.
          1    1    1    2  501    0 -0.90481160235E+01  0.24827945123E+02  0.31406456958E+03  0.31517431546E+03  0.00000000000E+00 0. -1.
</event>
<event>
 4    1  0.1560907E+006  0.3015383E+02  0.7546771E-02  0.1418264E+00
         21   -1    0    0  503  502  0.00000000000E+00  0.00000000000E+00  0.65679386308E+02  0.65679386308E+02  0.00000000000E+00 0.  1.
          4   -1    0    0  502    0 -0.00000000000E+00 -0.00000000000E+00 -0.50599706141E+03  0.50599706141E+03  0.00000000000E+00 0. -1.
         21    1    1    2  503  501  0.30140063079E+02 -0.91107497666E+00  0.61742075879E+02  0.68711988720E+02  0.00000000000E+00 0.  1.
          4    1    1    2  501    0 -0.30140063079E+02  0.91107497666E+00 -0.50205975098E+03  0.50296445900E+03  0.00000000000E+00 0. -1.
</event>
<event>
 4    1  0.1560907E+006  0.2211880E+02  0.7546771E-02  0.1503870E+00
         21   -1    0    0  503  502  0.00000000000E+00  0.00000000000E+00  0.61960005671E+01  0.61960005671E+01  0.00000000000E+00 0.  1.
         -2   -1    0    0    0  501 -0.00000000000E+00 -0.00000000000E+00 -0.27842590959E+03  0.27842590959E+03  0.00000000000E+00 0.  1.
         21    1    1    2  503  501 -0.22067654529E+02  0.15033347935E+01 -0.15662143602E+02  0.27102474687E+02  0.00000000000E+00 0.  1.
         -2    1    1    2    0  502  0.22067654529E+02 -0.15033347935E+01 -0.25656776542E+03  0.25751943547E+03  0.00000000000E+00 0.  1.
</event>
<event>
 4    1  0.1560907E+006  0.4256095E+02  0.7546771E-02  0.1334099E+00
          3   -1    0    0  502    0 -0.00000000000E+00  0.00000000000E+00  0.45595336016E+02  0.45595336016E+02  0.00000000000E+00 0. -1.
         21   -1    0    0  503  502  0.00000000000E+00 -0.00000000000E+00 -0.44390399399E+02  0.44390399399E+02  0.00000000000E+00 0. -1.
         21    1    1    2  503  501 -0.40750110927E+02 -0.12282636986E+02 -0.13978292426E+02  0.44797626846E+02  0.00000000000E+00 0. -1.
          3    1    1    2  501    0  0.40750110927E+02  0.12282636986E+02  0.15183229043E+02  0.45188108569E+02  0.00000000000E+00 0. -1.
</event>
<event>
 4    1  0.1560907E+006  0.2259990E+02  0.7546771E-02  0.1497584E+00
         21   -1    0    0  501  502  0.00000000000E+00  0.00000000000E+00  0.31278369088E+02  0.31278369088E+02  0.00000000000E+00 0.  1.
          3   -1    0    0  503    0 -0.00000000000E+00 -0.00000000000E+00 -0.18970902145E+02  0.18970902145E+02  0.00000000000E+00 0.  1.
         21    1    1    2  503  502 -0.12732481581E+02  0.18671886217E+02  0.15529038603E+02  0.27420912859E+02  0.00000000000E+00 0.  1.
          3    1    1    2  501    0  0.12732481581E+02 -0.18671886217E+02 -0.32215716605E+01  0.22828358374E+02  0.00000000000E+00 0.  1.
</event>
<event>
 4    1  0.1560907E+006  0.2221977E+02  0.7546771E-02  0.1502535E+00
         21   -1    0    0  503  502  0.00000000000E+00  0.00000000000E+00  0.54728048535E+02  0.54728048535E+02  0.00000000000E+00 0.  1.
         -2   -1    0    0    0  501 -0.00000000000E+00 -0.00000000000E+00 -0.54557524133E+03  0.54557524133E+03  0.00000000000E+00 0. -1.
         21    1    1    2  503  501 -0.57379899714E+01  0.21466108687E+02  0.52236140963E+02  0.56765594983E+02  0.00000000000E+00 0.  1.
         -2    1    1    2    0  502  0.57379899714E+01 -0.21466108687E+02 -0.54308333376E+03  0.54353769488E+03  0.00000000000E+00 0. -1.
</event>
<event>
 4    1  0.1560907E+006  0.2874668E+02  0.7546771E-02  0.1430810E+00
          3   -1    0    0  503    0 -0.00000000000E+00  0.00000000000E+00  0.64003638635E+02  0.64003638635E+02  0.00000000000E+00 0. -1.
         21   -1    0    0  501  502  0.00000000000E+00 -0.00000000000E+00 -0.34902862263E+02  0.34902862263E+02  0.00000000000E+00 0.  1.
         21    1    1    2  503  502 -0.26604608033E+02 -0.10888823754E+02 -0.24704354461E+02  0.37903519371E+02  0.00000000000E+00 0.  1.
          3    1    1    2  501    0  0.26604608033E+02  0.10888823754E+02  0.53805130833E+02  0.61002981527E+02  0.00000000000E+00 0. -1.
</event>
<event>
 4    1  0.1560907E+006  0.2243096E+02  0.7546771E-02  0.1499770E+00
          2   -1    0    0  503    0 -0.00000000000E+00  0.00000000000E+00  0.30799949935E+03  0.30799949935E+03  0.00000000000E+00 0.  1.
         21   -1    0    0  501  502  0.00000000000E+00 -0.00000000000E+00 -0.16760556678E+01  0.16760556678E+01  0.00000000000E+00 0.  1.
         21    1    1    2  503  502 -0.20180825896E+02 -0.97919532980E+01  0.12851842156E+03  0.13046123088E+03  0.00000000000E+00 0.  1.
          2    1    1    2  501    0  0.20180825896E+02  0.97919532980E+01  0.17780502212E+03  0.17921432413E+03  0.00000000000E+00 0.  1.
</event>
<event>
 4    1  0.1560907E+006  0.2207953E+02  0.7546771E-02  0.1504392E+00
         -3   -1    0    0    0  501 -0.00000000000E+00  0.00000000000E+00  0.66859473710E+02  0.66859473710E+02  0.00000000000E+00 0.  1.
         21   -1    0    0  501  502  0.00000000000E+00 -0.00000000000E+00 -0.52387061397E+02  0.52387061397E+02  0.00000000000E+00 0.  1.
         21    1    1    2  503  502  0.19603480309E+02 -0.10159188265E+02 -0.48082329484E+02  0.52909507228E+02  0.00000000000E+00 0.  1.
         -3    1    1    2    0  503 -0.19603480309E+02  0.10159188265E+02  0.62554741798E+02  0.66337027879E+02  0.00000000000E+00 0.  1.
</event>
<event>
 4    1  0.1560907E+006  0.2672905E+02  0.7546771E-02  0.1450349E+00
         21   -1    0    0  503  502  0.00000000000E+00  0.00000000000E+00  0.69329344672E+01  0.69329344672E+01  0.00000000000E+00 0. -1.
          2   -1    0    0  502    0 -0.00000000000E+00 -0.00000000000E+00 -0.49617869871E+03  0.49617869871E+03  0.00000000000E+00 0. -1.
         21    1    1    2  503  501  0.20707774064E+02 -0.16900599637E+02 -0.20708278458E+02  0.33812349393E+02  0.00000000000E+00 0. -1.
          2    1    1    2  501    0 -0.20707774064E+02  0.16900599637E+02 -0.46853748579E+03  0.46929928378E+03  0.00000000000E+00 0. -1.
</event>
<event>
 4    1  0.1560907E+006  0.2326291E+02  0.7546771E-02  0.1489223E+00
         -2   -1    0    0    0  501 -0.00000000000E+00  0.00000000000E+00  0.12195063072E+03  0.12195063072E+03  0.00000000000E+00 0. -1.
         21   -1    0    0  501  502  0.00000000000E+00 -0.00000000000E+00 -0.72222112229E+01  0.72222112229E+01  0.00000000000E+00 0.  1.
         21    1    1    2  503  502  0.10195844904E+02  0.20909516493E+02  0.17259848957E+02  0.28966627683E+02  0.00000000000E+00 0.  1.
         -2    1    1    2    0  503 -0.10195844904E+02 -0.20909516493E+02  0.97468570537E+02  0.10020621426E+03  0.00000000000E+00 0. -1.
</event>
<event>
 4    1  0.1560907E+006  0.3123941E+02  0.7546771E-02  0.1409123E+00
         -3   -1    0    0    0  501 -0.00000000000E+00  0.00000000000E+00  0.23791598256E+03  0.23791598256E+03  0.00000000000E+00 0. -1.
         21   -1    0    0  501  502  0.00000000000E+00 -0.00000000000E+00 -0.11954208876E+02  0.11954208876E+02  0.00000000000E+00 0. -1.
         21    1    1    2  503  502  0.31134061216E+02 -0.25633762115E+01  0.11724244169E+02  0.33367028137E+02  0.00000000000E+00 0. -1.
         -3    1    1    2    0  503 -0.31134061216E+02  0.25633762115E+01  0.21423752952E+03  0.21650316330E+03  0.00000000000E+00 0. -1.
</event>
<event>
 4    1  0.1560907E+006  0.2087515E+02  0.7546771E-02  0.1521055E+00
         21   -1    0    0  501  502  0.00000000000E+00  0.00000000000E+00  0.30328859291E+01  0.30328859291E+01  0.00000000000E+00 0. -1.
          3   -1    0    0  503    0 -0.00000000000E+00 -0.00000000000E+00 -0.14540525943E+03  0.14540525943E+03  0.00000000000E+00 0. -1.
         21    1    1    2  503  502 -0.16457110015E+02 -0.12842713882E+02 -0.63106888693E+02  0.66469926812E+02  0.00000000000E+00 0. -1.
          3    1    1    2  501    0  0.16457110015E+02  0.12842713882E+02 -0.79265484804E+02  0.81968218543E+02  0.00000000000E+00 0. -1.
</event>
<event>
 4    1  0.1560907E+006  0.1090290E+03  0.7546771E-02  0.1149019E+00
         21   -1    0    0  503  502  0.00000000000E+00  0.00000000000E+00  0.18959820781E+03  0.18959820781E+03  0.00000000000E+00 0. -1.
          4   -1    0    0  502    0 -0.00000000000E+00 -0.00000000000E+00 -0.98916161100E+02  0.98916161100E+02  0.00000000000E+00 0. -1.
         21    1    1    2  503  501  0.57603546634E+02  0.92569767827E+02  0.13263215423E+03  0.17169338611E+03  0.00000000000E+00 0. -1.
          4    1    1    2  501    0 -0.57603546634E+02 -0.92569767827E+02 -0.41950107518E+02  0.11682098279E+03  0.00000000000E+00 0. -1.
</event>
<event>
 4    1  0.1560907E+006  0.2109123E+02  0.7546771E-02  0.1517966E+00
          2   -1    0    0  503    0 -0.00000000000E+00  0.00000000000E+00  0.11338412713E+03  0.11338412713E+03  0.00000000000E+00 0. -1.
         21   -1    0    0  501  502  0.00000000000E+00 -0.00000000000E+00 -0.17123314586E+02  0.17123314586E+02  0.00000000000E+00 0.  1.
         21    1    1    2  503  502  0.20856634647E+02  0.31369813983E+01 -0.91622002518E+01  0.22995342453E+02  0.00000000000E+00 0.  1.
          2    1    1    2  501    0 -0.20856634647E+02 -0.31369813983E+01  0.10542301280E+03  0.10751209926E+03  0.00000000000E+00 0. -1.
</event>
<event>
 4    1  0.1560907E+006  0.3079791E+02  0.7546771E-02  0.1412787E+00
         21   -1    0    0  501  502  0.00000000000E+00  0.00000000000E+00  0.20717916993E+01  0.20717916993E+01  0.00000000000E+00 0.  1.
          2   -1    0    0  503    0 -0.00000000000E+00 -0.00000000000E+00 -0.13193589814E+04  0.13193589814E+04  0.00000000000E+00 0.  1.
         21    1    1    2  503  502  0.30783904200E+02 -0.92871385876E+00 -0.12473125182E+03  0.12847722152E+03  0.00000000000E+00 0.  1.
          2    1    1    2  501    0 -0.30783904200E+02  0.92871385876E+00 -0.11925559379E+04  0.11929535516E+04  0.00000000000E+00 0.  1.
</event>
<event>
 4    1  0.1560907E+006  0.2337775E+02  0.7546771E-02  0.1487808E+00
          4   -1    0    0  503    0 -0.00000000000E+00  0.00000000000E+00  0.14885724655E+03  0.14885724655E+03  0.00000000000E+00 0.  1.
         21   -1    0    0  501  502  0.00000000000E+00 -0.00000000000E+00 -0.77922154832E+02  0.77922154832E+02  0.00000000000E+00 0.  1.
         21    1    1    2  503  502 -0.13478676768E+02  0.19100902602E+02 -0.75218653657E+02  0.78767792058E+02  0.00000000000E+00 0.  1.
          4    1    1    2  501    0  0.13478676768E+02 -0.19100902602E+02  0.14615374537E+03  0.14801160932E+03  0.00000000000E+00 0.  1.
</event>
<event>
 4    1  0.1560907E+006  0.2014768E+02  0.7546771E-02  0.1531790E+00
         21   -1    0    0  503  502  0.00000000000E+00  0.00000000000E+00  0.23463130931E+03  0.23463130931E+03  0.00000000000E+00 0.  1.
         -2   -1    0    0    0  501 -0.00000000000E+00 -0.00000000000E+00 -0.14807321105E+02  0.14807321105E+02  0.00000000000E+00 0.  1.
         21    1    1    2  503  501  0.80294043209E+00 -0.20131669751E+02  0.22711903031E+03  0.22801092686E+03  0.00000000000E+00 0.  1.
         -2    1    1    2    0  502 -0.80294043209E+00  0.20131669751E+02 -0.72950421020E+01  0.21427703554E+02  0.00000000000E+00 0.  1.
</event>
<event>
 4    1  0.1560907E+006  0.2112908E+02  0.7546771E-02  0.1517430E+00
         21   -1    0    0  501  502  0.00000000000E+00  0.00000000000E+00  0.42591360496E+02  0.42591360496E+02  0.00000000000E+00 0. -1.
         -3   -1    0    0    0  501 -0.00000000000E+00 -0.00000000000E+00 -0.13193362044E+02  0.13193362044E+02  0.00000000000E+00 0.  1.
         21    1    1    2  503  502 -0.20464489121E+02 -0.52576454496E+01  0.27343734468E+02  0.34556012000E+02  0.00000000000E+00 0. -1.
         -3    1    1    2    0  503  0.20464489121E+02  0.52576454496E+01  0.20542639841E+01  0.21228710540E+02  0.00000000000E+00 0.  1.
</event>
<event>
 4    1  0.1560907E+006  0.2382488E+02  0.7546771E-02  0.1482392E+00
          1   -1    0    0  502    0 -0.00000000000E+00  0.00000000000E+00  0.23444649906E+03  0.23444649906E+03  0.00000000000E+00 0.  1.
         21   -1    0    0  503  502  0.00000000000E+00 -0.00000000000E+00 -0.69935211925E+02  0.69935211925E+02  0.00000000000E+00 0. -1.
         21    1    1    2  503  501  0.15508946574E+02  0.18085833703E+02 -0.67277616843E+02  0.71371580707E+02  0.00000000000E+00 0. -1.
          1    1    1    2  501    0 -0.15508946574E+02 -0.18085833703E+02  0.23178890397E+03  0.23301013027E+03  0.00000000000E+00 0.  1.
</event>
<event>
 4    1  0.1560907E+006  0.2409118E+02  0.7546771E-02  0.1479233E+00
         21   -1    0    0  503  502  0.00000000000E+00  0.00000000000E+00  0.32239246801E+01  0.32239246801E+01  0.00000000000E+00 0. -1.
          2   -1    0    0  502    0 -0.00000000000E+00 -0.00000000000E+00 -0.68377939706E+03  0.68377939706E+03  0.00000000000E+00 0. -1.
         21    1    1    2  503  501 -0.23977453281E+02 -0.23381364989E+01 -0.45441733994E+02  0.51432833254E+02  0.00000000000E+00 0. -1.
          2    1    1    2  501    0  0.23977453281E+02  0.23381364989E+01 -0.63511373838E+03  0.63557048848E+03  0.00000000000E+00 0. -1.
</event>
<event>
 4    1  0.1560907E+006  0.2078568E+02  0.7546771E-02  0.1522347E+00
         21   -1    0    0  501  502  0.00000000000E+00  0.00000000000E+00  0.23746496672E+02  0.23746496672E+02  0.00000000000E+00 0. -1.
          1   -1    0    0  503    0 -0.00000000000E+00 -0.00000000000E+00 -0.30754044109E+02  0.30754044109E+02  0.00000000000E+00 0. -1.
         21    1    1    2  503  502 -0.11965164466E+02 -0.16996450819E+02  0.13910875964E+02  0.25011136944E+02  0.00000000000E+00 0. -1.
          1    1    1    2  501    0  0.11965164466E+02  0.16996450819E+02 -0.20918423400E+02  0.29489403837E+02  0.00000000000E+00 0. -1.
</event>
<event>
 4    1  0.1560907E+006  0.2341522E+02  0.7546771E-02  0.1487349E+00
         21   -1    0    0  503  502  0.00000000000E+00  0.00000000000E+00  0.11545441302E+01  0.11545441302E+01  0.00000000000E+00 0.  1.
          1   -1    0    0  502    0 -0.00000000000E+00 -0.00000000000E+00 -0.83039295493E+03  0.83039295493E+03  0.00000000000E+00 0.  1.
         21    1    1    2  503  501  0.37001223621E+01 -0.23121020851E+02 -0.14257368364E+03  0.14448365921E+03  0.00000000000E+00 0.  1.
          1    1    1    2  501    0 -0.37001223621E+01  0.23121020851E+02 -0.68666472716E+03  0.68706383985E+03  0.00000000000E+00 0.  1.
</event>
<event>
 4    1  0.1560907E+006  0.2355117E+02  0.7546771E-02  0.1485691E+00
         21   -1    0    0  501  502  0.00000000000E+00  0.00000000000E+00  0.19284471479E+02  0.19284471479E+02  0.00000000000E+00 0.  1.
         -1   -1    0    0    0  501 -0.00000000000E+00 -0.00000000000E+00 -0.32949143855E+02  0.32949143855E+02  0.00000000000E+00 0.  1.
         21    1    1    2  503  502 -0.12256423294E+02  0.20110633266E+02  0.24779632880E+01  0.23681169405E+02  0.00000000000E+00 0.  1.
         -1    1    1    2    0  503  0.12256423294E+02 -0.20110633266E+02 -0.16142635664E+02  0.28552445929E+02  0.00000000000E+00 0.  1.
</event>
<event>
 4    1  0.1560907E+006  0.2264532E+02  0.7546771E-02  0.1497001E+00
         21   -1    0    0  503  502  0.00000000000E+00  0.00000000000E+00  0.44254991650E+02  0.44254991650E+02  0.00000000000E+00 0. -1.
          1   -1    0    0  502    0 -0.00000000000E+00 -0.00000000000E+00 -0.95067089233E+03  0.95067089233E+03  0.00000000000E+00 0.  1.
         21    1    1    2  503  501  0.58045244802E-01 -0.22645241249E+02  0.41213934948E+02  0.47025511740E+02  0.00000000000E+00 0. -1.
          1    1    1    2  501    0 -0.58045244802E-01  0.22645241249E+02 -0.94762983563E+03  0.94790037224E+03  0.00000000000E+00 0.  1.
</event>
<event>
 4    1  0.1560907E+006  0.2123652E+02  0.7546771E-02  0.1515915E+00
         21   -1    0    0  503  502  0.00000000000E+00  0.00000000000E+00  0.10373354240E+02  0.10373354240E+02  0.00000000000E+00 0. -1.
          1   -1    0    0  502    0 -0.00000000000E+00 -0.00000000000E+00 -0.28385916720E+03  0.28385916720E+03  0.00000000000E+00 0. -1.
         21    1    1    2  503  501  0.12487454069E+02  0.17177119419E+02 -0.13607532908E+01  0.21280074957E+02  0.00000000000E+00 0. -1.
          1    1    1    2  501    0 -0.12487454069E+02 -0.17177119419E+02 -0.27212505967E+03  0.27295244649E+03  0.00000000000E+00 0. -1.
</event>
<event>
 4    1  0.1560907E+006  0.2058670E+02  0.7546771E-02  0.1525248E+00
         -2   -1    0    0    0  501 -0.00000000000E+00  0.00000000000E+00  0.39203224643E+03  0.39203224643E+03  0.00000000000E+00 0.  1.
         21   -1    0    0  503  502  0.00000000000E+00 -0.00000000000E+00 -0.58387910611E+01  0.58387910611E+01  0.00000000000E+00 0. -1.
         21    1    1    2  503  501 -0.20516935476E+02 -0.16933644870E+01  0.13519771927E+02  0.24629176957E+02  0.00000000000E+00 0. -1.
         -2    1    1    2    0  502  0.20516935476E+02  0.16933644870E+01  0.37267368344E+03  0.37324186054E+03  0.00000000000E+00 0.  1.
</event>
<event>
 4    1  0.1560907E+006  0.2248751E+02  0.7546771E-02  0.1499036E+00
         21   -1    0    0  501  502  0.00000000000E+00  0.00000000000E+00  0.61769856552E+01  0.61769856552E+01  0.00000000000E+00 0. -1.
          3   -1    0    0  503    0 -0.00000000000E+00 -0.00000000000E+00 -0.94223512427E+02  0.94223512427E+02  0.00000000000E+00 0.  1.
         21    1    1    2  503  502  0.16649887915E+02 -0.15115201328E+02 -0.25843706120E+02  0.34257630169E+02  0.00000000000E+00 0. -1.
          3    1    1    2  501    0 -0.16649887915E+02  0.15115201328E+02 -0.62202820651E+02  0.66142867913E+02  0.00000000000E+00 0.  1.
</event>
<event>
 4    1  0.1560907E+006  0.3686907E+02  0.7546771E-02  0.1367879E+00
         21   -1    0    0  503  502  0.00000000000E+00  0.00000000000E+00  0.29062054846E+02  0.29062054846E+02  0.00000000000E+00 0.  1.
         -1   -1    0    0    0  501 -0.00000000000E+00 -0.00000000000E+00 -0.54874362743E+02  0.54874362743E+02  0.00000000000E+00 0. -1.
         21    1    1    2  503  501 -0.26246468421E+02 -0.25893066238E+02  0.32191123498E+01  0.37009332176E+02  0.00000000000E+00 0.  1.
         -1    1    1    2    0  502  0.26246468421E+02  0.25893066238E+02 -0.29031420247E+02  0.46927085413E+02  0.00000000000E+00 0. -1.
</event>
<event>
 4    1  0.1560907E+006  0.2046882E+02  0.7546771E-02  0.1526986E+00
         21   -1    0    0  503  502  0.00000000000E+00  0.00000000000E+00  0.94996093792E+03  0.94996093792E+03  0.00000000000E+00 0. -1.
          4   -1    0    0  502    0 -0.00000000000E+00 -0.00000000000E+00 -0.25148467292E+01  0.25148467292E+01  0.00000000000E+00 0. -1.
         21    1    1    2  503  501  0.83916272769E+01  0.18669582808E+02  0.90618918616E+03  0.90642032956E+03  0.00000000000E+00 0. -1.
          4    1    1    2  501    0 -0.83916272769E+01 -0.18669582808E+02  0.41256905034E+02  0.46055455090E+02  0.00000000000E+00 0. -1.
</event>
<event>
 4    1  0.1560907E+006  0.2072088E+02  0.7546771E-02  0.1523288E+00
          2   -1    0    0  502    0 -0.00000000000E+00  0.00000000000E+00  0.31817525297E+03  0.31817525297E+03  0.00000000000E+00 0. -1.
         21   -1    0    0  503  502  0.00000000000E+00 -0.00000000000E+00 -0.53137925422E+02  0.53137925422E+02  0.00000000000E+00 0.  1.
         21    1    1    2  503  501  0.66057134903E+01  0.19639737028E+02 -0.50765407708E+02  0.54831390106E+02  0.00000000000E+00 0.  1.
          2    1    1    2  501    0 -0.66057134903E+01 -0.19639737028E+02  0.31580273526E+03  0.31648178829E+03  0.00000000000E+00 0. -1.
</event>
<event>
 4    1  0.1560907E+006  0.2515773E+02  0.7546771E-02  0.1467046E+00
         -3   -1    0    0    0  501 -0.00000000000E+00  0.00000000000E+00  0.47250754268E+01  0.47250754268E+01  0.00000000000E+00 0. -1.
         21   -1    0    0  501  502  0.00000000000E+00 -0.00000000000E+00 -0.93608551955E+03  0.93608551955E+03  0.00000000000E+00 0.  1.
         21    1    1    2  503  502  0.83797580232E+01  0.23721112996E+02 -0.90113094850E+03  0.90148205633E+03  0.00000000000E+00 0.  1.
         -3    1    1    2    0  503 -0.83797580232E+01 -0.23721112996E+02 -0.30229495627E+02  0.39328538647E+02  0.00000000000E+00 0. -1.
</event>
<event>
 4    1  0.1560907E+006  0.2036119E+02  0.7546771E-02  0.1528584E+00
         21   -1    0    0  503  502  0.00000000000E+00  0.00000000000E+00  0.24776552163E+03  0.24776552163E+03  0.00000000000E+00 0.  1.
          3   -1    0    0  502    0 -0.00000000000E+00 -0.00000000000E+00 -0.44864459000E+01  0.44864459000E+01  0.00000000000E+00 0. -1.
         21    1    1    2  503  501  0.73453399221E+01 -0.18990101014E+02  0.22151343546E+03  0.22244725228E+03  0.00000000000E+00 0.  1.
          3    1    1    2  501    0 -0.73453399221E+01  0.18990101014E+02  0.21765640269E+02  0.29804715255E+02  0.00000000000E+00 0. -1.
</event>
<event>
 4    1  0.1560907E+006  0.2041492E+02  0.7546771E-02  0.1527785E+00
          2   -1    0    0  503    0 -0.00000000000E+00  0.00000000000E+00  0.23700416370E+04  0.23700416370E+04  0.00000000000E+00 0.  1.
         21   -1    0    0  501  502  0.00000000000E+00 -0.00000000000E+00 -0.17607529508E+00  0.17607529508E+00  0.00000000000E+00 0. -1.
         21    1    1    2  503  502  0.20292203073E+02  0.22350939887E+01  0.11424347822E+04  0.11426171715E+04  0.00000000000E+00 0. -1.
          2    1    1    2  501    0 -0.20292203073E+02 -0.22350939887E+01  0.12274307796E+04  0.12276005408E+04  0.00000000000E+00 0.  1.
</event>
<event>
 4    1  0.1560907E+006  0.2069648E+02  0.7546771E-02  0.1523643E+00
         21   -1    0    0  501  502  0.00000000000E+00  0.00000000000E+00  0.17756352231E+01  0.17756352231E+01  0.00000000000E+00 0.  1.
         -3   -1    0    0    0  501 -0.00000000000E+00 -0.00000000000E+00 -0.30708879548E+03  0.30708879548E+03  0.00000000000E+00 0. -1.
         21    1    1    2  503  502  0.10960306051E+02  0.17556080685E+02 -0.81141383551E+02  0.83739288284E+02  0.00000000000E+00 0.  1.
         -3    1    1    2    0  503 -0.10960306051E+02 -0.17556080685E+02 -0.22417177670E+03  0.22512514242E+03  0.00000000000E+00 0. -1.
</event>
<event>
 4    1  0.1560907E+006  0.3870438E+02  0.7546771E-02  0.1356250E+00
         21   -1    0    0  501  502  0.00000000000E+00  0.00000000000E+00  0.40908571398E+02  0.40908571398E+02  0.00000000000E+00 0.  1.
         -4   -1    0    0    0  501 -0.00000000000E+00 -0.00000000000E+00 -0.19734516558E+03  0.19734516558E+03  0.00000000000E+00 0. -1.
         21    1    1    2  503  502 -0.38089580567E+02 -0.68711588064E+01  0.29289469023E+02  0.48537634540E+02  0.00000000000E+00 0.  1.
         -4    1    1    2    0  503  0.38089580567E+02  0.68711588064E+01 -0.18572606321E+03  0.18971610244E+03  0.00000000000E+00 0. -1.
</event>
<event>
 4    1  0.1560907E+006  0.2078346E+02  0.7546771E-02  0.1522379E+00
         -1   -1    0    0    0  501 -0.00000000000E+00  0.00000000000E+00  0.31392492605E+03  0.31392492605E+03  0.00000000000E+00 0.  1.
         21   -1    0    0  501  502  0.00000000000E+00 -0.00000000000E+00 -0.13716114956E+04  0.13716114956E+04  0.00000000000E+00 0.  1.
         21    1    1    2  503  502  0.16962222350E+02  0.12009796687E+02 -0.13711886655E+04  0.13713461666E+04  0.00000000000E+00 0.  1.
         -1    1    1    2    0  503 -0.16962222350E+02 -0.12009796687E+02  0.31350209596E+03  0.31419025506E+03  0.00000000000E+00 0.  1.
</event>
<event>
 4    1  0.1560907E+006  0.5811630E+02  0.7546771E-02  0.1266371E+00
         21   -1    0    0  501  502  0.00000000000E+00  0.00000000000E+00  0.22001297918E+03  0.22001297918E+03  0.00000000000E+00 0.  1.
         -4   -1    0    0    0  501 -0.00000000000E+00 -0.00000000000E+00 -0.14294331865E+03  0.14294331865E+03  0.00000000000E+00 0.  1.
         21    1    1    2  503  502 -0.32352869968E+02 -0.48278321313E+02  0.20999135461E+03  0.21788500067E+03  0.00000000000E+00 0.  1.
         -4    1    1    2    0  503  0.32352869968E+02  0.48278321313E+02 -0.13292169408E+03  0.14507129717E+03  0.00000000000E+00 0.  1.
</event>
<event>
 4    1  0.1560907E+006  0.3649596E+02  0.7546771E-02  0.1370340E+00
          2   -1    0    0  503    0 -0.00000000000E+00  0.00000000000E+00  0.97133346731E+03  0.97133346731E+03  0.00000000000E+00 0.  1.
         21   -1    0    0  501  502  0.00000000000E+00 -0.00000000000E+00 -0.16607118377E+01  0.16607118377E+01  0.00000000000E+00 0. -1.
         21    1    1    2  503  502 -0.28424125433E+02  0.22891581429E+02  0.28173276459E+03  0.28408679316E+03  0.00000000000E+00 0. -1.
          2    1    1    2  501    0  0.28424125433E+02 -0.22891581429E+02  0.68793999088E+03  0.68890738598E+03  0.00000000000E+00 0.  1.
</event>
<event>
 4    1  0.1560907E+006  0.2145836E+02  0.7546771E-02  0.1512820E+00
         21   -1    0    0  501  502  0.00000000000E+00  0.00000000000E+00  0.58275923439E+02  0.58275923439E+02  0.00000000000E+00 0. -1.
         -2   -1    0    0    0  501 -0.00000000000E+00 -0.00000000000E+00 -0.48418831766E+02  0.48418831766E+02  0.00000000000E+00 0.  1.
         21    1    1    2  503  502  0.21152533480E+02  0.36099248444E+01  0.53729340153E+02  0.57855883221E+02  0.00000000000E+00 0. -1.
         -2    1    1    2    0  503 -0.21152533480E+02 -0.36099248444E+01 -0.43872248480E+02  0.48838871984E+02  0.00000000000E+00 0.  1.
</event>
<event>
 4    1  0.1560907E+006  0.2902233E+02  0.7546771E-02  0.1428287E+00
         21   -1    0    0  501  502  0.00000000000E+00  0.00000000000E+00  0.53616335292E+01  0.53616335292E+01  0.00000000000E+00 0.  1.
          1   -1    0    0  503    0 -0.00000000000E+00 -0.00000000000E+00 -0.17574090438E+03  0.17574090438E+03  0.00000000000E+00 0.  1.
         21    1    1    2  503  502  0.27561296659E+02 -0.90923477897E+01 -0.55696019238E+02  0.62804000039E+02  0.00000000000E+00 0.  1.
          1    1    1    2  501    0 -0.27561296659E+02  0.90923477897E+01 -0.11468325161E+03  0.11829853787E+03  0.00000000000E+00 0.  1.
</event>
<event>
 4    1  0.1560907E+006  0.1000339E+03  0.7546771E-02  0.1163749E+00
         21   -1    0    0  501  502  0.00000000000E+00  0.00000000000E+00  0.12423616618E+03  0.12423616618E+03  0.00000000000E+00 0.  1.
          1   -1    0    0  503    0 -0.00000000000E+00 -0.00000000000E+00 -0.93694667200E+02  0.93694667200E+02  0.00000000000E+00 0.  1.
         21    1    1    2  503  502 -0.95818582474E+02 -0.28732767797E+02  0.56090085816E+02  0.11468596435E+03  0.00000000000E+00 0.  1.
          1    1    1    2  501    0  0.95818582474E+02  0.28732767797E+02 -0.25548586832E+02  0.10324486903E+03  0.00000000000E+00 0.  1.
</event>
<event>
 4    1  0.1560907E+006  0.2047267E+02  0.7546771E-02  0.1526929E+00
         21   -1    0    0  503  502  0.00000000000E+00  0.00000000000E+00  0.24158245509E+02  0.24158245509E+02  0.00000000000E+00 0. -1.
         -1   -1    0    0    0  501 -0.00000000000E+00 -0.00000000000E+00 -0.28876790015E+02  0.28876790015E+02  0.00000000000E+00 0. -1.
         21    1    1    2  503  501  0.10809299525E+02  0.17386462666E+02  0.14394966632E+02  0.25026887633E+02  0.00000000000E+00 0. -1.
         -1    1    1    2    0  502 -0.10809299525E+02 -0.17386462666E+02 -0.19113511137E+02  0.28008147891E+02  0.00000000000E+00 0. -1.
</event>
<event>
 4    1  0.1560907E+006  0.2300174E+02  0.7546771E-02  0.1492476E+00
         21   -1    0    0  501  502  0.00000000000E+00  0.00000000000E+00  0.41894093348E+01  0.41894093348E+01  0.00000000000E+00 0.  1.
          2   -1    0    0  503    0 -0.00000000000E+00 -0.00000000000E+00 -0.40202628925E+03  0.40202628925E+03  0.00000000000E+00 0. -1.
         21    1    1    2  503  502  0.98825863380E+01  0.20770520754E+02 -0.30710485079E+02  0.38369440169E+02  0.00000000000E+00 0.  1.
          2    1    1    2  501    0 -0.98825863380E+01 -0.20770520754E+02 -0.36712639483E+03  0.36784625841E+03  0.00000000000E+00 0. -1.
</event>
<event>
 4    1  0.1560907E+006  0.3670469E+02  0.7546771E-02  0.1368959E+00
          2   -1    0    0  503    0 -0.00000000000E+00  0.00000000000E+00  0.25337132424E+04  0.25337132424E+04  0.00000000000E+00 0. -1.
         21   -1    0    0  501  502  0.00000000000E+00 -0.00000000000E+00 -0.80736173208E+01  0.80736173208E+01  0.00000000000E+00 0. -1.
         21    1    1    2  503  502  0.36564400308E+02 -0.32060452339E+01  0.34489215504E+02  0.50366060815E+02  0.00000000000E+00 0. -1.
          2    1    1    2  501    0 -0.36564400308E+02  0.32060452339E+01  0.24911504096E+04  0.24914207989E+04  0.00000000000E+00 0. -1.
</event>
<event>
 4    1  0.1560907E+006  0.2355586E+02  0.7546771E-02  0.1485634E+00
          3   -1    0    0  503    0 -0.00000000000E+00  0.00000000000E+00  0.19813519217E+03  0.19813519217E+03  0.00000000000E+00 0.  1.
         21   -1    0    0  501  502  0.00000000000E+00 -0.00000000000E+00 -0.37768755094E+01  0.37768755094E+01  0.00000000000E+00 0. -1.
         21    1    1    2  503  502 -0.12738931127E+00 -0.23555511425E+02  0.45848887872E+02  0.51546084872E+02  0.00000000000E+00 0. -1.
          3    1    1    2  501    0  0.12738931127E+00  0.23555511425E+02  0.14850942879E+03  0.15036598280E+03  0.00000000000E+00 0.  1.
</event>
<event>
 4    1  0.1560907E+006  0.2154797E+02  0.7546771E-02  0.1511583E+00
         -2   -1    0    0    0  501 -0.00000000000E+00  0.00000000000E+00  0.55462214168E+03  0.55462214168E+03  0.00000000000E+00 0. -1.
         21   -1    0    0  503  502  0.00000000000E+00 -0.00000000000E+00 -0.35769563620E+02  0.35769563620E+02  0.00000000000E+00 0.  1.
         21    1    1    2  503  501 -0.20987111374E+02 -0.48842684349E+01 -0.32294635909E+02  0.38823426310E+02  0.00000000000E+00 0.  1.
         -2    1    1    2    0  502  0.20987111374E+02  0.48842684349E+01  0.55114721397E+03  0.55156827899E+03  0.00000000000E+00 0. -1.
</event>
<event>
 4    1  0.1560907E+006  0.2493396E+02  0.7546771E-02  0.1469544E+00
          2   -1    0    0  502    0 -0.00000000000E+00  0.00000000000E+00  0.16329733398E+04  0.16329733398E+04  0.00000000000E+00 0.  1.
         21   -1    0    0  503  502  0.00000000000E+00 -0.00000000000E+00 -0.24786409587E+01  0.24786409587E+01  0.00000000000E+00 0. -1.
         21    1    1    2  503  501  0.10021210441E+02  0.22831505352E+02  0.62939208580E+02  0.67698199917E+02  0.00000000000E+00 0. -1.
          2    1    1    2  501    0 -0.10021210441E+02 -0.22831505352E+02  0.15675554902E+04  0.15677537808E+04  0.00000000000E+00 0.  1.
</event>
<event>
 4    1  0.1560907E+006  0.2420643E+02  0.7546771E-02  0.1477880E+00
         21   -1    0    0  503  502  0.00000000000E+00  0.00000000000E+00  0.17588200276E+03  0.17588200276E+03  0.00000000000E+00 0. -1.
         -1   -1    0    0    0  501 -0.00000000000E+00 -0.00000000000E+00 -0.61462602363E+01  0.61462602363E+01  0.00000000000E+00 0. -1.
         21    1    1    2  503  501 -0.21675415891E+02 -0.10776247353E+02  0.14645981963E+03  0.14844672421E+03  0.00000000000E+00 0. -1.
         -1    1    1    2    0  502  0.21675415891E+02  0.10776247353E+02  0.23275922894E+02  0.33581538792E+02  0.00000000000E+00 0. -1.
</event>
<event>
 4    1  0.1560907E+006  0.4316919E+02  0.7546771E-02  0.1330852E+00
         21   -1    0    0  503  502  0.00000000000E+00  0.00000000000E+00  0.65664263136E+01  0.65664263136E+01  0.00000000000E+00 0.  1.
         -4   -1    0    0    0  501 -0.00000000000E+00 -0.00000000000E+00 -0.28747612294E+03  0.28747612294E+03  0.00000000000E+00 0.  1.
         21    1    1    2  503  501  0.40254960762E+02  0.15592214204E+02 -0.12383874097E+03  0.13114729420E+03  0.00000000000E+00 0.  1.
         -4    1    1    2    0  502 -0.40254960762E+02 -0.15592214204E+02 -0.15707095565E+03  0.16289525505E+03  0.00000000000E+00 0.  1.
</event>
<event>
 4    1  0.1560907E+006  0.3502760E+02  0.7546771E-02  0.1380369E+00
         21   -1    0    0  501  502  0.00000000000E+00  0.00000000000E+00  0.14692238942E+01  0.14692238942E+01  0.00000000000E+00 0.  1.
          2   -1    0    0  503    0 -0.00000000000E+00 -0.00000000000E+00 -0.10047746684E+04  0.10047746684E+04  0.00000000000E+00 0.  1.
         21    1    1    2  503  502 -0.24775238314E+02 -0.24761273702E+02 -0.29489527595E+03  0.29696827589E+03  0.00000000000E+00 0.  1.
          2    1    1    2  501    0  0.24775238314E+02  0.24761273702E+02 -0.70841016853E+03  0.70927561638E+03  0.00000000000E+00 0.  1.
</event>
<event>
 4    1  0.1560907E+006  0.2016565E+02  0.7546771E-02  0.1531518E+00
         21   -1    0    0  503  502  0.00000000000E+00  0.00000000000E+00  0.80966551137E+02  0.80966551137E+02  0.00000000000E+00 0. -1.
          3   -1    0    0  502    0 -0.00000000000E+00 -0.00000000000E+00 -0.17610949312E+02  0.17610949312E+02  0.00000000000E+00 0. -1.
         21    1    1    2  503  501  0.15687580987E+02 -0.12670953299E+02  0.73349653335E+02  0.76071183106E+02  0.00000000000E+00 0. -1.
          3    1    1    2  501    0 -0.15687580987E+02  0.12670953299E+02 -0.99940515098E+01  0.22506317343E+02  0.00000000000E+00 0. -1.
</event>
<event>
 4    1  0.1560907E+006  0.2123802E+02  0.7546771E-02  0.1515894E+00
          2   -1    0    0  502    0 -0.00000000000E+00  0.00000000000E+00  0.65695888880E+03  0.65695888880E+03  0.00000000000E+00 0. -1.
         21   -1    0    0  503  502  0.00000000000E+00 -0.00000000000E+00 -0.48767466391E+01  0.48767466391E+01  0.00000000000E+00 0. -1.
         21    1    1    2  503  501 -0.17844672298E+01  0.21162919887E+02  0.19300792621E+02  0.28697980718E+02  0.00000000000E+00 0. -1.
          2    1    1    2  501    0  0.17844672298E+01 -0.21162919887E+02  0.63278134954E+03  0.63313765472E+03  0.00000000000E+00 0. -1.
</event>
<event>
 4    1  0.1560907E+006  0.2036580E+02  0.7546771E-02  0.1528515E+00
         -4   -1    0    0    0  501 -0.00000000000E+00  0.00000000000E+00  0.36304954662E+03  0.36304954662E+03  0.00000000000E+00 0.  1.
         21   -1    0    0  501  502  0.00000000000E+00 -0.00000000000E+00 -0.28970762338E+02  0.28970762338E+02  0.00000000000E+00 0. -1.
         21    1    1    2  503  502  0.75875174846E+01  0.18899613787E+02 -0.25067102111E+02  0.32297452393E+02  0.00000000000E+00 0. -1.
         -4    1    1    2    0  503 -0.75875174846E+01 -0.18899613787E+02  0.35914588640E+03  0.35972285657E+03  0.00000000000E+00 0.  1.
</event>
<event>
 4    1  0.1560907E+006  0.4902360E+02  0.7546771E-02  0.1302462E+00
         -1   -1    0    0    0  501 -0.00000000000E+00  0.00000000000E+00  0.90537549036E+02  0.90537549036E+02  0.00000000000E+00 0. -1.
         21   -1    0    0  501  502  0.00000000000E+00 -0.00000000000E+00 -0.44252633289E+03  0.44252633289E+03  0.00000000000E+00 0. -1.
         21    1    1    2  503  502  0.20140311890E+02  0.44695425023E+02 -0.43440876083E+03  0.43716619799E+03  0.00000000000E+00 0. -1.
         -1    1    1    2    0  503 -0.20140311890E+02 -0.44695425023E+02  0.82419976971E+02  0.95897683939E+02  0.00000000000E+00 0. -1.
</event>
<event>
 4    1  0.1560907E+006  0.2069689E+02  0.7546771E-02  0.1523637E+00
         21   -1    0    0  501  502  0.00000000000E+00  0.00000000000E+00  0.33012451077E+01  0.33012451077E+01  0.00000000000E+00 0.  1.
          1   -1    0    0  503    0 -0.00000000000E+00 -0.00000000000E+00 -0.84107935970E+03  0.84107935970E+03  0.00000000000E+00 0.  1.
         21    1    1    2  503  502 -0.15328388707E+02 -0.13906892828E+02 -0.30628872731E+02  0.36966052173E+02  0.00000000000E+00 0.  1.
          1    1    1    2  501    0  0.15328388707E+02  0.13906892828E+02 -0.80714924186E+03  0.80741455264E+03  0.00000000000E+00 0.  1.
</event>
<event>
 4    1  0.1560907E+006  0.3444593E+02  0.7546771E-02  0.1384501E+00
         21   -1    0    0  501  502  0.00000000000E+00  0.00000000000E+00  0.99340375746E+02  0.99340375746E+02  0.00000000000E+00 0. -1.
         -1   -1    0    0    0  501 -0.00000000000E+00 -0.00000000000E+00 -0.86412555853E+02  0.86412555853E+02  0.00000000000E+00 0. -1.
         21    1    1    2  503  502 -0.10133152874E+02  0.32921746088E+02  0.92683052773E+02  0.98877047003E+02  0.00000000000E+00 0. -1.
         -1    1    1    2    0  503  0.10133152874E+02 -0.32921746088E+02 -0.79755232880E+02  0.86875884596E+02  0.00000000000E+00 0. -1.
</event>
<event>
 4    1  0.1560907E+006  0.2316152E+02  0.7546771E-02  0.1490480E+00
          3   -1    0    0  502    0 -0.00000000000E+00  0.00000000000E+00  0.46313079640E+01  0.46313079640E+01  0.00000000000E+00 0. -1.
         21   -1    0    0  503  502  0.00000000000E+00 -0.00000000000E+00 -0.13448277191E+03  0.13448277191E+03  0.00000000000E+00 0. -1.
         21    1    1    2  503  501  0.21745426432E+02  0.79744778599E+01 -0.90828765704E+02  0.93735375111E+02  0.00000000000E+00 0. -1.
          3    1    1    2  501    0 -0.21745426432E+02 -0.79744778599E+01 -0.39022698239E+02  0.45378704760E+02  0.00000000000E+00 0. -1.
</event>
<event>
 4    1  0.1560907E+006  0.2487243E+02  0.7546771E-02  0.1470236E+00
         21   -1    0    0  503  502  0.00000000000E+00  0.00000000000E+00  0.15018449803E+03  0.15018449803E+03  0.00000000000E+00 0.  1.
         -3   -1    0    0    0  501 -0.00000000000E+00 -0.00000000000E+00 -0.25987197561E+02  0.25987197561E+02  0.00000000000E+00 0.  1.
         21    1    1    2  503  501  0.19193361740E+02 -0.15819378199E+02  0.14290231596E+03  0.14505071447E+03  0.00000000000E+00 0.  1.
         -3    1    1    2    0  502 -0.19193361740E+02  0.15819378199E+02 -0.18705015490E+02  0.31120981122E+02  0.00000000000E+00 0.  1.
</event>
<event>
 4    1  0.1560907E+006  0.3176889E+02  0.7546771E-02  0.1404823E+00
         21   -1    0    0  503  502  0.00000000000E+00  0.00000000000E+00  0.78186058606E+03  0.78186058606E+03  0.00000000000E+00 0.  1.
         -2   -1    0    0    0  501 -0.00000000000E+00 -0.00000000000E+00 -0.45174414831E+01  0.45174414831E+01  0.00000000000E+00 0. -1.
         21    1    1    2  503  501 -0.15558773617E+02  0.27698135364E+02  0.72096926208E+03  0.72166885688E+03  0.00000000000E+00 0.  1.
         -2    1    1    2    0  502  0.15558773617E+02 -0.27698135364E+02  0.56373882505E+02  0.64709170662E+02  0.00000000000E+00 0. -1.
</event>
<event>
 4    1  0.1560907E+006  0.2645295E+02  0.7546771E-02  0.1453182E+00
          2   -1    0    0  502    0 -0.00000000000E+00  0.00000000000E+00  0.42860452983E+02  0.42860452983E+02  0.00000000000E+00 0.  1.
         21   -1    0    0  503  502  0.00000000000E+00 -0.00000000000E+00 -0.63571366297E+02  0.63571366297E+02  0.00000000000E+00 0. -1.
         21    1    1    2  503  501 -0.23244883873E+02 -0.12626715842E+02 -0.56231748726E+02  0.62143126281E+02  0.00000000000E+00 0. -1.
          2    1    1    2  501    0  0.23244883873E+02  0.12626715842E+02  0.35520835412E+02  0.44288693000E+02  0.00000000000E+00 0.  1.
</event>
<event>
 4    1  0.1560907E+006  0.2228642E+02  0.7546771E-02  0.1501658E+00
         -1   -1    0    0    0  501 -0.00000000000E+00  0.00000000000E+00  0.21500471667E+03  0.21500471667E+03  0.00000000000E+00 0.  1.
         21   -1    0    0  501  502  0.00000000000E+00 -0.00000000000E+00 -0.77384623891E+02  0.77384623891E+02  0.00000000000E+00 0.  1.
         21    1    1    2  503  502  0.22108030413E+02  0.28141378558E+01 -0.75185967038E+02  0.78419474750E+02  0.00000000000E+00 0.  1.
         -1    1    1    2    0  503 -0.22108030413E+02 -0.28141378558E+01  0.21280605982E+03  0.21396986581E+03  0.00000000000E+00 0.  1.
</event>
<event>
 4    1  0.1560907E+006  0.2091700E+02  0.7546771E-02  0.1520453E+00
         -3   -1    0    0    0  501 -0.00000000000E+00  0.00000000000E+00  0.29805538214E+03  0.29805538214E+03  0.00000000000E+00 0. -1.
         21   -1    0    0  503  502  0.00000000000E+00 -0.00000000000E+00 -0.17801244273E+02  0.17801244273E+02  0.00000000000E+00 0.  1.
         21    1    1    2  503  501 -0.25543749949E+00 -0.20915443886E+02 -0.11149660872E+02  0.23703079522E+02  0.00000000000E+00 0.  1.
         -3    1    1    2    0  502  0.25543749949E+00  0.20915443886E+02  0.29140379874E+03  0.29215354689E+03  0.00000000000E+00 0. -1.
</event>
<event>
 4    1  0.1560907E+006  0.2177020E+02  0.7546771E-02  0.1508546E+00
          1   -1    0    0  502    0 -0.00000000000E+00  0.00000000000E+00  0.15811876960E+04  0.15811876960E+04  0.00000000000E+00 0. -1.
         21   -1    0    0  503  502  0.00000000000E+00 -0.00000000000E+00 -0.15536915315E+03  0.15536915315E+03  0.00000000000E+00 0.  1.
         21    1    1    2  503  501  0.81485961053E+01 -0.20187671514E+02 -0.15453120852E+03  0.15605715653E+03  0.00000000000E+00 0.  1.
          1    1    1    2  501    0 -0.81485961053E+01  0.20187671514E+02  0.15803497514E+04  0.15804996926E+04  0.00000000000E+00 0. -1.
</event>
<event>
 4    1  0.1560907E+006  0.3054382E+02  0.7546771E-02  0.1414928E+00
         21   -1    0    0  501  502  0.00000000000E+00  0.00000000000E+00  0.10615410392E+02  0.10615410392E+02  0.00000000000E+00 0.  1.
          2   -1    0    0  503    0 -0.00000000000E+00 -0.00000000000E+00 -0.76912627850E+03  0.76912627850E+03  0.00000000000E+00 0.  1.
         21    1    1    2  503  502  0.25313301587E+02 -0.17092734445E+02 -0.12334299511E+02  0.32940245179E+02  0.00000000000E+00 0.  1.
          2    1    1    2  501    0 -0.25313301587E+02  0.17092734445E+02 -0.74617656860E+03  0.74680144371E+03  0.00000000000E+00 0.  1.
</event>
<event>
 4    1  0.1560907E+006  0.2288900E+02  0.7546771E-02  0.1493897E+00
         21   -1    0    0  501  502  0.00000000000E+00  0.00000000000E+00  0.62816580344E+00  0.62816580344E+00  0.00000000000E+00 0. -1.
          1   -1    0    0  503    0 -0.00000000000E+00 -0.00000000000E+00 -0.98477947412E+03  0.98477947412E+03  0.00000000000E+00 0.  1.
         21    1    1    2  503  502  0.44404352445E+01 -0.22454147739E+02 -0.29930052210E+03  0.30017446385E+03  0.00000000000E+00 0. -1.
          1    1    1    2  501    0 -0.44404352445E+01  0.22454147739E+02 -0.68485078622E+03  0.68523317608E+03  0.00000000000E+00 0.  1.
</event>
<event>
 4    1  0.1560907E+006  0.2049003E+02  0.7546771E-02  0.1526672E+00
          2   -1    0    0  502    0 -0.00000000000E+00  0.00000000000E+00  0.24452333894E+03  0.24452333894E+03  0.00000000000E+00 0.  1.
         21   -1    0    0  503  502  0.00000000000E+00 -0.00000000000E+00 -0.45664931459E+02  0.45664931459E+02  0.00000000000E+00 0. -1.
         21    1    1    2  503  501  0.20480285312E+02  0.63185597628E+00 -0.42911064032E+02  0.47552084548E+02  0.00000000000E+00 0. -1.
          2    1    1    2  501    0 -0.20480285312E+02 -0.63185597628E+00  0.24176947152E+03  0.24263618585E+03  0.00000000000E+00 0.  1.
</event>
<event>
 4    1  0.1560907E+006  0.2239545E+02  0.7546771E-02  0.1500232E+00
          2   -1    0    0  502    0 -0.00000000000E+00  0.00000000000E+00  0.42661298069E+02  0.42661298069E+02  0.00000000000E+00 0. -1.
         21   -1    0    0  503  502  0.00000000000E+00 -0.00000000000E+00 -0.13102583424E+02  0.13102583424E+02  0.00000000000E+00 0.  1.
         21    1    1    2  503  501  0.20921789112E+02  0.79896865845E+01  0.58432733675E+01  0.23145198098E+02  0.00000000000E+00 0.  1.
          2    1    1    2  501    0 -0.20921789112E+02 -0.79896865845E+01  0.23715441278E+02  0.32618683394E+02  0.00000000000E+00 0. -1.
</event>
<event>
 4    1  0.1560907E+006  0.2133143E+02  0.7546771E-02  0.1514585E+00
          1   -1    0    0  502    0 -0.00000000000E+00  0.00000000000E+00  0.21780552766E+03  0.21780552766E+03  0.00000000000E+00 0.  1.
         21   -1    0    0  503  502  0.00000000000E+00 -0.00000000000E+00 -0.55000688605E+02  0.55000688605E+02  0.00000000000E+00 0.  1.
         21    1    1    2  503  501  0.11401482136E+02 -0.18028756523E+02 -0.52385028934E+02  0.56561657624E+02  0.00000000000E+00 0.  1.
          1    1    1    2  501    0 -0.11401482136E+02  0.18028756523E+02  0.21518986799E+03  0.21624455864E+03  0.00000000000E+00 0.  1.
</event>
<event>
 4    1  0.1560907E+006  0.2128422E+02  0.7546771E-02  0.1515245E+00
          4   -1    0    0  503    0 -0.00000000000E+00  0.00000000000E+00  0.17380983243E+03  0.17380983243E+03  0.00000000000E+00 0. -1.
         21   -1    0    0  501  502  0.00000000000E+00 -0.00000000000E+00 -0.49186806767E+01  0.49186806767E+01  0.00000000000E+00 0.  1.
         21    1    1    2  503  502  0.20916702506E+02  0.39382336885E+01  0.23173907018E+02  0.31465029712E+02  0.00000000000E+00 0.  1.
          4    1    1    2  501    0 -0.20916702506E+02 -0.39382336885E+01  0.14571724473E+03  0.14726348339E+03  0.00000000000E+00 0. -1.
</event>
<event>
 4    1  0.1560907E+006  0.3845725E+02  0.7546771E-02  0.1357771E+00
         21   -1    0    0  503  502  0.00000000000E+00  0.00000000000E+00  0.16247698693E+04  0.16247698693E+04  0.00000000000E+00 0. -1.
          4   -1    0    0  502    0 -0.00000000000E+00 -0.00000000000E+00 -0.38430478653E+01  0.38430478653E+01  0.00000000000E+00 0. -1.
         21    1    1    2  503  501  0.99162682637E+01  0.37156797663E+02  0.15218250570E+04  0.15223108960E+04  0.00000000000E+00 0. -1.
          4    1    1    2  501    0 -0.99162682637E+01 -0.37156797663E+02  0.99101764473E+02  0.10630202120E+03  0.00000000000E+00 0. -1.
</event>
<event>
 4    1  0.1560907E+006  0.3373771E+02  0.7546771E-02  0.1389661E+00
          2   -1    0    0  503    0 -0.00000000000E+00  0.00000000000E+00  0.22987796967E+04  0.22987796967E+04  0.00000000000E+00 0.  1.
         21   -1    0    0  501  502  0.00000000000E+00 -0.00000000000E+00 -0.10766180581E+02  0.10766180581E+02  0.00000000000E+00 0. -1.
         21    1    1    2  503  502  0.18254155944E+02  0.28372856720E+02  0.16100909541E+02  0.37382783414E+02  0.00000000000E+00 0. -1.
          2    1    1    2  501    0 -0.18254155944E+02 -0.28372856720E+02  0.22719126065E+04  0.22721630938E+04  0.00000000000E+00 0.  1.
</event>
<event>
 4    1  0.1560907E+006  0.6281200E+02  0.7546771E-02  0.1250566E+00
          1   -1    0    0  503    0 -0.00000000000E+00  0.00000000000E+00  0.17679631070E+04  0.17679631070E+04  0.00000000000E+00 0.  1.
         21   -1    0    0  501  502  0.00000000000E+00 -0.00000000000E+00 -0.13452710752E+02  0.13452710752E+02  0.00000000000E+00 0.  1.
         21    1    1    2  503  502  0.17766061912E+02 -0.60247109673E+02  0.63771675069E+02  0.89510746399E+02  0.00000000000E+00 0.  1.
          1    1    1    2  501    0 -0.17766061912E+02  0.60247109673E+02  0.16907387211E+04  0.16919050713E+04  0.00000000000E+00 0.  1.
</event>
<event>
 4    1  0.1560907E+006  0.2445319E+02  0.7546771E-02  0.1475014E+00
         21   -1    0    0  501  502  0.00000000000E+00  0.00000000000E+00  0.21659017848E+02  0.21659017848E+02  0.00000000000E+00 0.  1.
          2   -1    0    0  503    0 -0.00000000000E+00 -0.00000000000E+00 -0.82927404935E+02  0.82927404935E+02  0.00000000000E+00 0.  1.
         21    1    1    2  503  502  0.40212415257E+00 -0.24449888084E+02  0.12076404036E+02  0.27272665172E+02  0.00000000000E+00 0.  1.
          2    1    1    2  501    0 -0.40212415257E+00  0.24449888084E+02 -0.73344791123E+02  0.77313757611E+02  0.00000000000E+00 0.  1.
</event>
<event>
 4    1  0.1560907E+006  0.2078086E+02  0.7546771E-02  0.1522417E+00
         -4   -1    0    0    0  501 -0.00000000000E+00  0.00000000000E+00  0.11835748287E+02  0.11835748287E+02  0.00000000000E+00 0.  1.
         21   -1    0    0  501  502  0.00000000000E+00 -0.00000000000E+00 -0.59997378299E+02  0.59997378299E+02  0.00000000000E+00 0. -1.
         21    1    1    2  503  502 -0.14919385832E+02  0.14465681714E+02 -0.46564311522E+02  0.50990971049E+02  0.00000000000E+00 0. -1.
         -4    1    1    2    0  503  0.14919385832E+02 -0.14465681714E+02 -0.15973184900E+01  0.20842155537E+02  0.00000000000E+00 0.  1.
</event>
<event>
 4    1  0.1560907E+006  0.2162432E+02  0.7546771E-02  0.1510535E+00
         21   -1    0    0  503  502  0.00000000000E+00  0.00000000000E+00  0.39217062328E+01  0.39217062328E+01  0.00000000000E+00 0.  1.
         -2   -1    0    0    0  501 -0.00000000000E+00 -0.00000000000E+00 -0.13308255847E+03  0.13308255847E+03  0.00000000000E+00 0. -1.
         21    1    1    2  503  501  0.18458553182E+02  0.11264676324E+02 -0.42484906012E+02  0.47671567597E+02  0.00000000000E+00 0.  1.
         -2    1    1    2    0  502 -0.18458553182E+02 -0.11264676324E+02 -0.86675946223E+02  0.89332697104E+02  0.00000000000E+00 0. -1.
</event>
<event>
 4    1  0.1560907E+006  0.4303813E+02  0.7546771E-02  0.1331547E+00
         21   -1    0    0  501  502  0.00000000000E+00  0.00000000000E+00  0.41976974095E+01  0.41976974095E+01  0.00000000000E+00 0. -1.
          1   -1    0    0  503    0 -0.00000000000E+00 -0.00000000000E+00 -0.51685024955E+03  0.51685024955E+03  0.00000000000E+00 0.  1.
         21    1    1    2  503  502  0.27006286174E+02 -0.33510319271E+02 -0.15669521069E+03  0.16249821551E+03  0.00000000000E+00 0. -1.
          1    1    1    2  501    0 -0.27006286174E+02  0.33510319271E+02 -0.35595734145E+03  0.35854973145E+03  0.00000000000E+00 0.  1.
</event>
<event>
 4    1  0.1560907E+006  0.2575179E+02  0.7546771E-02  0.1460566E+00
          2   -1    0    0  503    0 -0.00000000000E+00  0.00000000000E+00  0.34929713008E+02  0.34929713008E+02  0.00000000000E+00 0. -1.
         21   -1    0    0  501  502  0.00000000000E+00 -0.00000000000E+00 -0.39800941637E+03  0.39800941637E+03  0.00000000000E+00 0.  1.
         21    1    1    2  503  502 -0.11864761752E+02 -0.22855684716E+02 -0.39278343688E+03  0.39362670538E+03  0.00000000000E+00 0.  1.
          2    1    1    2  501    0  0.11864761752E+02  0.22855684716E+02  0.29703733525E+02  0.39312423998E+02  0.00000000000E+00 0. -1.
</event>
<event>
 4    1  0.1560907E+006  0.3512467E+02  0.7546771E-02  0.1379689E+00
          2   -1    0    0  503    0 -0.00000000000E+00  0.00000000000E+00  0.20907061459E+04  0.20907061459E+04  0.00000000000E+00 0.  1.
         21   -1    0    0  501  502  0.00000000000E+00 -0.00000000000E+00 -0.93813105627E+00  0.93813105627E+00  0.00000000000E+00 0.  1.
         21    1    1    2  503  502  0.25735020268E+02 -0.23905041349E+02  0.40789765431E+03  0.40940717954E+03  0.00000000000E+00 0.  1.
          2    1    1    2  501    0 -0.25735020268E+02  0.23905041349E+02  0.16818703605E+04  0.16822370974E+04  0.00000000000E+00 0.  1.
</event>
<event>
 4    1  0.1560907E+006  0.2260282E+02  0.7546771E-02  0.1497547E+00
         21   -1    0    0  501  502  0.00000000000E+00  0.00000000000E+00  0.23670614251E+01  0.23670614251E+01  0.00000000000E+00 0. -1.
          2   -1    0    0  503    0 -0.00000000000E+00 -0.00000000000E+00 -0.45492232309E+03  0.45492232309E+03  0.00000000000E+00 0. -1.
         21    1    1    2  503  502  0.69610614829E+00 -0.22592093876E+02 -0.60519963312E+02  0.64603043494E+02  0.00000000000E+00 0. -1.
          2    1    1    2  501    0 -0.69610614829E+00  0.22592093876E+02 -0.39203529835E+03  0.39268634102E+03  0.00000000000E+00 0. -1.
</event>
<event>
 4    1  0.1560907E+006  0.3271603E+02  0.7546771E-02  0.1397373E+00
         21   -1    0    0  503  502  0.00000000000E+00  0.00000000000E+00  0.14631351476E+02  0.14631351476E+02  0.00000000000E+00 0.  1.
         -3   -1    0    0    0  501 -0.00000000000E+00 -0.00000000000E+00 -0.96479822147E+03  0.96479822147E+03  0.00000000000E+00 0. -1.
         21    1    1    2  503  501  0.13324917774E+02 -0.29879506197E+02 -0.43003730702E+01  0.32997447368E+02  0.00000000000E+00 0.  1.
         -3    1    1    2    0  502 -0.13324917774E+02  0.29879506197E+02 -0.94586649692E+03  0.94643212557E+03  0.00000000000E+00 0. -1.
</event>
<event>
 4    1  0.1560907E+006  0.2889020E+02  0.7546771E-02  0.1429492E+00
          2   -1    0    0  503    0 -0.00000000000E+00  0.00000000000E+00  0.75567039760E+03  0.75567039760E+03  0.00000000000E+00 0. -1.
         21   -1    0    0  501  502  0.00000000000E+00 -0.00000000000E+00 -0.71543890368E+01  0.71543890368E+01  0.00000000000E+00 0.  1.
         21    1    1    2  503  502 -0.18819653000E+01  0.28828841318E+02  0.23520710019E+02  0.37254096217E+02  0.00000000000E+00 0.  1.
          2    1    1    2  501    0  0.18819653000E+01 -0.28828841318E+02  0.72499529854E+03  0.72557069042E+03  0.00000000000E+00 0. -1.
</event>
<event>
 4    1  0.1560907E+006  0.2514506E+02  0.7546771E-02  0.1467187E+00
         21   -1    0    0  503  502  0.00000000000E+00  0.00000000000E+00  0.78791190200E+03  0.78791190200E+03  0.00000000000E+00 0. -1.
          2   -1    0    0  502    0 -0.00000000000E+00 -0.00000000000E+00 -0.17565646052E+01  0.17565646052E+01  0.00000000000E+00 0. -1.
         21    1    1    2  503  501 -0.12071933323E+02 -0.22057710922E+02  0.68406821761E+03  0.68453020425E+03  0.00000000000E+00 0. -1.
          2    1    1    2  501    0  0.12071933323E+02  0.22057710922E+02  0.10208711978E+03  0.10513826236E+03  0.00000000000E+00 0. -1.
</event>
<event>
 4    1  0.1560907E+006  0.3018832E+02  0.7546771E-02  0.1417967E+00
         -2   -1    0    0    0  501 -0.00000000000E+00  0.00000000000E+00  0.11881343416E+03  0.11881343416E+03  0.00000000000E+00 0.  1.
         21   -1    0    0  503  502  0.00000000000E+00 -0.00000000000E+00 -0.10342153969E+02  0.10342153969E+02  0.00000000000E+00 0.  1.
         21    1    1    2  503  501 -0.39294718300E+01  0.29931488248E+02  0.21412205085E+02  0.37011042463E+02  0.00000000000E+00 0.  1.
         -2    1    1    2    0  502  0.39294718300E+01 -0.29931488248E+02  0.87059075111E+02  0.92144545671E+02  0.00000000000E+00 0.  1.
</event>
<event>
 4    1  0.1560907E+006  0.2309950E+02  0.7546771E-02  0.1491253E+00
          2   -1    0    0  502    0 -0.00000000000E+00  0.00000000000E+00  0.47716832362E+02  0.47716832362E+02  0.00000000000E+00 0. -1.
         21   -1    0    0  503  502  0.00000000000E+00 -0.00000000000E+00 -0.48839748359E+02  0.48839748359E+02  0.00000000000E+00 0. -1.
         21    1    1    2  503  501 -0.10929291466E+02 -0.20350365736E+02 -0.42954079365E+02  0.48771300286E+02  0.00000000000E+00 0. -1.
          2    1    1    2  501    0  0.10929291466E+02  0.20350365736E+02  0.41831163367E+02  0.47785280435E+02  0.00000000000E+00 0. -1.
</event>
<event>
 4    1  0.1560907E+006  0.2007377E+02  0.7546771E-02  0.1532911E+00
         -3   -1    0    0    0  501 -0.00000000000E+00  0.00000000000E+00  0.30144727019E+03  0.30144727019E+03  0.00000000000E+00 0. -1.
         21   -1    0    0  503  502  0.00000000000E+00 -0.00000000000E+00 -0.27936268335E+02  0.27936268335E+02  0.00000000000E+00 0.  1.
         21    1    1    2  503  501  0.20015144008E+02 -0.15330435742E+01 -0.23947755562E+02  0.31248219289E+02  0.00000000000E+00 0.  1.
         -3    1    1    2    0  502 -0.20015144008E+02  0.15330435742E+01  0.29745875741E+03  0.29813531923E+03  0.00000000000E+00 0. -1.
</event>
<event>
 4    1  0.1560907E+006  0.3182312E+02  0.7546771E-02  0.1404388E+00
          1   -1    0    0  503    0 -0.00000000000E+00  0.00000000000E+00  0.29075114026E+03  0.29075114026E+03  0.00000000000E+00 0. -1.
         21   -1    0    0  501  502  0.00000000000E+00 -0.00000000000E+00 -0.61162658258E+01  0.61162658258E+01  0.00000000000E+00 0.  1.
         21    1    1    2  503  502 -0.30935793769E+02 -0.74623986606E+01  0.44923988139E+02  0.55053387182E+02  0.00000000000E+00 0.  1.
          1    1    1    2  501    0  0.30935793769E+02  0.74623986606E+01  0.23971088630E+03  0.24181401891E+03  0.00000000000E+00 0. -1.
</event>
<event>
 4    1  0.1560907E+006  0.2522648E+02  0.7546771E-02  0.1466286E+00
         -3   -1    0    0    0  501 -0.00000000000E+00  0.00000000000E+00  0.26648283303E+03  0.26648283303E+03  0.00000000000E+00 0.  1.
         21   -1    0    0  501  502  0.00000000000E+00 -0.00000000000E+00 -0.57093106397E+01  0.57093106397E+01  0.00000000000E+00 0.  1.
         21    1    1    2  503  502  0.24781153148E+02  0.47190771782E+01  0.26584931368E+02  0.36648790111E+02  0.00000000000E+00 0.  1.
         -3    1    1    2    0  503 -0.24781153148E+02 -0.47190771782E+01  0.23418859102E+03  0.23554335356E+03  0.00000000000E+00 0.  1.
</event>
<event>
 4    1  0.1560907E+006  0.2169138E+02  0.7546771E-02  0.1509618E+00
         21   -1    0    0  501  502  0.00000000000E+00  0.00000000000E+00  0.10456811112E+03  0.10456811112E+03  0.00000000000E+00 0.  1.
          2   -1    0    0  503    0 -0.00000000000E+00 -0.00000000000E+00 -0.13861174441E+03  0.13861174441E+03  0.00000000000E+00 0.  1.
         21    1    1    2  503  502 -0.15878064695E+02 -0.14778458981E+02  0.10257830518E+03  0.10484667130E+03  0.00000000000E+00 0.  1.
          2    1    1    2  501    0  0.15878064695E+02  0.14778458981E+02 -0.13662193847E+03  0.13833318423E+03  0.00000000000E+00 0.  1.
</event>
<event>
 4    1  0.1560907E+006  0.2073383E+02  0.7546771E-02  0.1523099E+00
         21   -1    0    0  503  502  0.00000000000E+00  0.00000000000E+00  0.20513053547E+02  0.20513053547E+02  0.00000000000E+00 0.  1.
          1   -1    0    0  502    0 -0.00000000000E+00 -0.00000000000E+00 -0.29945518325E+02  0.29945518325E+02  0.00000000000E+00 0.  1.
         21    1    1    2  503  501  0.30669068623E+01  0.20505752767E+02  0.91061654513E+01  0.22645398285E+02  0.00000000000E+00 0.  1.
          1    1    1    2  501    0 -0.30669068623E+01 -0.20505752767E+02 -0.18538630229E+02  0.27813173588E+02  0.00000000000E+00 0.  1.
</event>
<event>
 4    1  0.1560907E+006  0.2427786E+02  0.7546771E-02  0.1477047E+00
         21   -1    0    0  503  502  0.00000000000E+00  0.00000000000E+00  0.28819289516E+02  0.28819289516E+02  0.00000000000E+00 0. -1.
          3   -1    0    0  502    0 -0.00000000000E+00 -0.00000000000E+00 -0.10885625991E+04  0.10885625991E+04  0.00000000000E+00 0. -1.
         21    1    1    2  503  501 -0.64228485627E+01  0.23412844494E+02  0.23546019304E+02  0.33820545473E+02  0.00000000000E+00 0. -1.
          3    1    1    2  501    0  0.64228485627E+01 -0.23412844494E+02 -0.10832893289E+04  0.10835613431E+04  0.00000000000E+00 0. -1.
</event>
<event>
 4    1  0.1560907E+006  0.2326871E+02  0.7546771E-02  0.1489151E+00
         21   -1    0    0  503  502  0.00000000000E+00  0.00000000000E+00  0.38160553882E+03  0.38160553882E+03  0.00000000000E+00 0.  1.
         -4   -1    0    0    0  501 -0.00000000000E+00 -0.00000000000E+00 -0.57964270527E+01  0.57964270527E+01  0.00000000000E+00 0.  1.
         21    1    1    2  503  501 -0.20993024360E+02 -0.10036230733E+02  0.35623767830E+03  0.35699680172E+03  0.00000000000E+00 0.  1.
         -4    1    1    2    0  502  0.20993024360E+02  0.10036230733E+02  0.19571433469E+02  0.30405164153E+02  0.00000000000E+00 0.  1.
</event>
<event>
 4    1  0.1560907E+006  0.2048545E+02  0.7546771E-02  0.1526740E+00
         21   -1    0    0  503  502  0.00000000000E+00  0.00000000000E+00  0.98872365898E+01  0.98872365898E+01  0.00000000000E+00 0. -1.
         -2   -1    0    0    0  501 -0.00000000000E+00 -0.00000000000E+00 -0.55071597923E+03  0.55071597923E+03  0.00000000000E+00 0. -1.
         21    1    1    2  503  501  0.98544335788E+01  0.17959510065E+02 -0.11308149154E+01  0.20516642155E+02  0.00000000000E+00 0. -1.
         -2    1    1    2    0  502 -0.98544335788E+01 -0.17959510065E+02 -0.53969792772E+03  0.54008657366E+03  0.00000000000E+00 0. -1.
</event>
<event>
 4    1  0.1560907E+006  0.2775801E+02  0.7546771E-02  0.1440139E+00
         21   -1    0    0  501  502  0.00000000000E+00  0.00000000000E+00  0.24369390172E+02  0.24369390172E+02  0.00000000000E+00 0.  1.
          3   -1    0    0  503    0 -0.00000000000E+00 -0.00000000000E+00 -0.41131383088E+02  0.41131383088E+02  0.00000000000E+00 0. -1.
         21    1    1    2  503  502  0.21156092527E+02 -0.17970169105E+02  0.73697504908E+01  0.28719687515E+02  0.00000000000E+00 0.  1.
          3    1    1    2  501    0 -0.21156092527E+02  0.17970169105E+02 -0.24131743407E+02  0.36781085744E+02  0.00000000000E+00 0. -1.
</event>
<event>
 4    1  0.1560907E+006  0.2402876E+02  0.7546771E-02  0.1479969E+00
          1   -1    0    0  503    0 -0.00000000000E+00  0.00000000000E+00  0.58831457902E+03  0.58831457902E+03  0.00000000000E+00 0. -1.
         21   -1    0    0  501  502  0.00000000000E+00 -0.00000000000E+00 -0.10634117699E+01  0.10634117699E+01  0.00000000000E+00 0.  1.
         21    1    1    2  503  502 -0.20092365309E+02  0.13178707391E+02  0.21179638095E+03  0.21315508076E+03  0.00000000000E+00 0.  1.
          1    1    1    2  501    0  0.20092365309E+02 -0.13178707391E+02  0.37545478630E+03  0.37622291002E+03  0.00000000000E+00 0. -1.
</event>
<event>
 4    1  0.1560907E+006  0.2087003E+02  0.7546771E-02  0.1521129E+00
         21   -1    0    0  501  502  0.00000000000E+00  0.00000000000E+00  0.30023300569E+03  0.30023300569E+03  0.00000000000E+00 0. -1.
          1   -1    0    0  503    0 -0.00000000000E+00 -0.00000000000E+00 -0.15840075991E+01  0.15840075991E+01  0.00000000000E+00 0. -1.
         21    1    1    2  503  502  0.16497557130E+02 -0.12782361710E+02  0.10555137746E+03  0.10759484861E+03  0.00000000000E+00 0. -1.
          1    1    1    2  501    0 -0.16497557130E+02  0.12782361710E+02  0.19309762063E+03  0.19422216469E+03  0.00000000000E+00 0. -1.
</event>
<event>
 4    1  0.1560907E+006  0.2158421E+02  0.7546771E-02  0.1511085E+00
          3   -1    0    0  502    0 -0.00000000000E+00  0.00000000000E+00  0.14827944687E+02  0.14827944687E+02  0.00000000000E+00 0.  1.
         21   -1    0    0  503  502  0.00000000000E+00 -0.00000000000E+00 -0.42252913061E+03  0.42252913061E+03  0.00000000000E+00 0. -1.
         21    1    1    2  503  501  0.97789784758E+01 -0.19241874411E+02 -0.41424171253E+03  0.41480365783E+03  0.00000000000E+00 0. -1.
          3    1    1    2  501    0 -0.97789784758E+01  0.19241874411E+02  0.65405266098E+01  0.22553417462E+02  0.00000000000E+00 0.  1.
</event>
<event>
 4    1  0.1560907E+006  0.2088566E+02  0.7546771E-02  0.1520904E+00
         21   -1    0    0  501  502  0.00000000000E+00  0.00000000000E+00  0.71447070300E+02  0.71447070300E+02  0.00000000000E+00 0.  1.
         -2   -1    0    0    0  501 -0.00000000000E+00 -0.00000000000E+00 -0.77682410996E+01  0.77682410996E+01  0.00000000000E+00 0.  1.
         21    1    1    2  503  502 -0.44279086424E+01  0.20410890484E+02  0.50164543400E+02  0.54338680880E+02  0.00000000000E+00 0.  1.
         -2    1    1    2    0  503  0.44279086424E+01 -0.20410890484E+02  0.13514285801E+02  0.24876630520E+02  0.00000000000E+00 0.  1.
</event>
<event>
 4    1  0.1560907E+006  0.2609879E+02  0.7546771E-02  0.1456877E+00
         21   -1    0    0  501  502  0.00000000000E+00  0.00000000000E+00  0.27762973596E+02  0.27762973596E+02  0.00000000000E+00 0. -1.
         -4   -1    0    0    0  501 -0.00000000000E+00 -0.00000000000E+00 -0.12660702257E+03  0.12660702257E+03  0.00000000000E+00 0. -1.
         21    1    1    2  503  502  0.12072958035E+02 -0.23138503722E+02  0.19882044033E+02  0.32809180806E+02  0.00000000000E+00 0. -1.
         -4    1    1    2    0  503 -0.12072958035E+02  0.23138503722E+02 -0.11872609301E+03  0.12156081536E+03  0.00000000000E+00 0. -1.
</event>
<event>
 4    1  0.1560907E+006  0.2058512E+02  0.7546771E-02  0.1525271E+00
         21   -1    0    0  503  502  0.00000000000E+00  0.00000000000E+00  0.14449044191E+03  0.14449044191E+03  0.00000000000E+00 0.  1.
          1   -1    0    0  502    0 -0.00000000000E+00 -0.00000000000E+00 -0.11037248704E+02  0.11037248704E+02  0.00000000000E+00 0.  1.
         21    1    1    2  503  501  0.20325950323E+02 -0.32562343188E+01  0.13336302239E+03  0.13494236940E+03  0.00000000000E+00 0.  1.
          1    1    1    2  501    0 -0.20325950323E+02  0.32562343188E+01  0.90170810826E-01  0.20585321208E+02  0.00000000000E+00 0.  1.
</event>
<event>
 4    1  0.1560907E+006  0.2198118E+02  0.7546771E-02  0.1505704E+00
         -2   -1    0    0    0  501 -0.00000000000E+00  0.00000000000E+00  0.26903037101E+02  0.26903037101E+02  0.00000000000E+00 0. -1.
         21   -1    0    0  503  502  0.00000000000E+00 -0.00000000000E+00 -0.22598946981E+02  0.22598946981E+02  0.00000000000E+00 0.  1.
         21    1    1    2  503  501 -0.20935087275E+02  0.67003327835E+01 -0.90621734509E+01  0.23775940071E+02  0.00000000000E+00 0.  1.
         -2    1    1    2    0  502  0.20935087275E+02 -0.67003327835E+01  0.13366263570E+02  0.25726044011E+02  0.00000000000E+00 0. -1.
</event>
<event>
 4    1  0.1560907E+006  0.2410713E+02  0.7546771E-02  0.1479045E+00
         -3   -1    0    0    0  501 -0.00000000000E+00  0.00000000000E+00  0.59236640008E+02  0.59236640008E+02  0.00000000000E+00 0.  1.
         21   -1    0    0  501  502  0.00000000000E+00 -0.00000000000E+00 -0.11627101502E+02  0.11627101502E+02  0.00000000000E+00 0. -1.
         21    1    1    2  503  502  0.15774259854E+02  0.18229818304E+02  0.98004186365E+01  0.26023100407E+02  0.00000000000E+00 0. -1.
         -3    1    1    2    0  503 -0.15774259854E+02 -0.18229818304E+02  0.37809119869E+02  0.44840641103E+02  0.00000000000E+00 0.  1.
</event>
<event>
 4    1  0.1560907E+006  0.2041440E+02  0.7546771E-02  0.1527792E+00
         21   -1    0    0  503  502  0.00000000000E+00  0.00000000000E+00  0.24770328957E+02  0.24770328957E+02  0.00000000000E+00 0.  1.
         -4   -1    0    0    0  501 -0.00000000000E+00 -0.00000000000E+00 -0.22952555389E+02  0.22952555389E+02  0.00000000000E+00 0. -1.
         21    1    1    2  503  501  0.19233988569E+02 -0.68411578477E+01  0.13238328923E+02  0.24331072924E+02  0.00000000000E+00 0.  1.
         -4    1    1    2    0  502 -0.19233988569E+02  0.68411578477E+01 -0.11420555355E+02  0.23391811421E+02  0.00000000000E+00 0. -1.
</event>
<event>
 4    1  0.1560907E+006  0.2400437E+02  0.7546771E-02  0.1480257E+00
          3   -1    0    0  502    0 -0.00000000000E+00  0.00000000000E+00  0.11339692831E+03  0.11339692831E+03  0.00000000000E+00 0. -1.
         21   -1    0    0  503  502  0.00000000000E+00 -0.00000000000E+00 -0.81863212040E+01  0.81863212040E+01  0.00000000000E+00 0. -1.
         21    1    1    2  503  501 -0.18186042902E+02 -0.15667725785E+02  0.15165982879E+02  0.28393957533E+02  0.00000000000E+00 0. -1.
          3    1    1    2  501    0  0.18186042902E+02  0.15667725785E+02  0.90044624226E+02  0.93189291980E+02  0.00000000000E+00 0. -1.
</event>
<event>
 4    1  0.1560907E+006  0.2125019E+02  0.7546771E-02  0.1515723E+00
          1   -1    0    0  502    0 -0.00000000000E+00  0.00000000000E+00  0.20805883009E+01  0.20805883009E+01  0.00000000000E+00 0.  1.
         21   -1    0    0  503  502  0.00000000000E+00 -0.00000000000E+00 -0.29222046732E+03  0.29222046732E+03  0.00000000000E+00 0. -1.
         21    1    1    2  503  501  0.12816958646E+02  0.16949816357E+02 -0.21970781533E+03  0.22073308501E+03  0.00000000000E+00 0. -1.
          1    1    1    2  501    0 -0.12816958646E+02 -0.16949816357E+02 -0.70432063688E+02  0.73567970604E+02  0.00000000000E+00 0.  1.
</event>
<event>
 4    1  0.1560907E+006  0.2083359E+02  0.7546771E-02  0.1521654E+00
         21   -1    0    0  503  502  0.00000000000E+00  0.00000000000E+00  0.73798462694E+02  0.73798462694E+02  0.00000000000E+00 0. -1.
          3   -1    0    0  502    0 -0.00000000000E+00 -0.00000000000E+00 -0.10951006868E+02  0.10951006868E+02  0.00000000000E+00 0. -1.
         21    1    1    2  503  501  0.16787528117E+01 -0.20765839806E+02  0.60255217975E+02  0.63755231998E+02  0.00000000000E+00 0. -1.
          3    1    1    2  501    0 -0.16787528117E+01  0.20765839806E+02  0.25922378503E+01  0.20994237564E+02  0.00000000000E+00 0. -1.
</event>
<event>
 4    1  0.1560907E+006  0.2239811E+02  0.7546771E-02  0.1500198E+00
         21   -1    0    0  503  502  0.00000000000E+00  0.00000000000E+00  0.10677772828E+02  0.10677772828E+02  0.00000000000E+00 0.  1.
          2   -1    0    0  502    0 -0.00000000000E+00 -0.00000000000E+00 -0.48698494045E+03  0.48698494045E+03  0.00000000000E+00 0. -1.
         21    1    1    2  503  501  0.17199390756E+02 -0.14347699640E+02 -0.16299417330E+01  0.22457342617E+02  0.00000000000E+00 0.  1.
          2    1    1    2  501    0 -0.17199390756E+02  0.14347699640E+02 -0.47467722589E+03  0.47520537066E+03  0.00000000000E+00 0. -1.
</event>
<event>
 4    1  0.1560907E+006  0.2346589E+02  0.7546771E-02  0.1486729E+00
          4   -1    0    0  503    0 -0.00000000000E+00  0.00000000000E+00  0.36311931450E+02  0.36311931450E+02  0.00000000000E+00 0.  1.
         21   -1    0    0  501  502  0.00000000000E+00 -0.00000000000E+00 -0.15195273784E+03  0.15195273784E+03  0.00000000000E+00 0. -1.
         21    1    1    2  503  502 -0.83074637629E+01  0.21946166995E+02 -0.14713226058E+03  0.14899177931E+03  0.00000000000E+00 0. -1.
          4    1    1    2  501    0  0.83074637629E+01 -0.21946166995E+02  0.31491454190E+02  0.39272889974E+02  0.00000000000E+00 0.  1.
</event>
<event>
 4    1  0.1560907E+006  0.2519015E+02  0.7546771E-02  0.1466687E+00
          1   -1    0    0  503    0 -0.00000000000E+00  0.00000000000E+00  0.91732351279E+03  0.91732351279E+03  0.00000000000E+00 0.  1.
         21   -1    0    0  501  502  0.00000000000E+00 -0.00000000000E+00 -0.30840712254E+02  0.30840712254E+02  0.00000000000E+00 0. -1.
         21    1    1    2  503  502  0.32312667099E+01  0.24982049744E+02 -0.25493908002E+02  0.35839688046E+02  0.00000000000E+00 0. -1.
          1    1    1    2  501    0 -0.32312667099E+01 -0.24982049744E+02  0.91197670853E+03  0.91232453700E+03  0.00000000000E+00 0.  1.
</event>
<event>
 4    1  0.1560907E+006  0.3125590E+02  0.7546771E-02  0.1408988E+00
          1   -1    0    0  503    0 -0.00000000000E+00  0.00000000000E+00  0.47976389711E+03  0.47976389711E+03  0.00000000000E+00 0. -1.
         21   -1    0    0  501  502  0.00000000000E+00 -0.00000000000E+00 -0.22255307823E+01  0.22255307823E+01  0.00000000000E+00 0. -1.
         21    1    1    2  503  502  0.22606438693E+02  0.21584263899E+02  0.16849195858E+03  0.17136648338E+03  0.00000000000E+00 0. -1.
          1    1    1    2  501    0 -0.22606438693E+02 -0.21584263899E+02  0.30904640775E+03  0.31062294452E+03  0.00000000000E+00 0. -1.
</event>
<event>
 4    1  0.1560907E+006  0.2574698E+02  0.7546771E-02  0.1460618E+00
         -4   -1    0    0    0  501 -0.00000000000E+00  0.00000000000E+00  0.11754629576E+03  0.11754629576E+03  0.00000000000E+00 0. -1.
         21   -1    0    0  501  502  0.00000000000E+00 -0.00000000000E+00 -0.83069614503E+01  0.83069614503E+01  0.00000000000E+00 0. -1.
         21    1    1    2  503  502  0.22725679162E+02 -0.12101677554E+02  0.18961489241E+02  0.31975696509E+02  0.00000000000E+00 0. -1.
         -4    1    1    2    0  503 -0.22725679162E+02  0.12101677554E+02  0.90277845067E+02  0.93877560700E+02  0.00000000000E+00 0. -1.
</event>
<event>
 4    1  0.1560907E+006  0.2502775E+02  0.7546771E-02  0.1468493E+00
         21   -1    0    0  501  502  0.00000000000E+00  0.00000000000E+00  0.31951549859E+02  0.31951549859E+02  0.00000000000E+00 0.  1.
          1   -1    0    0  503    0 -0.00000000000E+00 -0.00000000000E+00 -0.80604370629E+02  0.80604370629E+02  0.00000000000E+00 0.  1.
         21    1    1    2  503  502 -0.24979330294E+02  0.15560802354E+01  0.24631645009E+02  0.35115612817E+02  0.00000000000E+00 0.  1.
          1    1    1    2  501    0  0.24979330294E+02 -0.15560802354E+01 -0.73284465779E+02  0.77440307671E+02  0.00000000000E+00 0.  1.
</event>
<event>
 4    1  0.1560907E+006  0.3310832E+02  0.7546771E-02  0.1394373E+00
         21   -1    0    0  503  502  0.00000000000E+00  0.00000000000E+00  0.93321839060E+03  0.93321839060E+03  0.00000000000E+00 0. -1.
          3   -1    0    0  502    0 -0.00000000000E+00 -0.00000000000E+00 -0.19460634159E+02  0.19460634159E+02  0.00000000000E+00 0. -1.
         21    1    1    2  503  501  0.25520032040E+02  0.21092394865E+02  0.91861924206E+03  0.91921568364E+03  0.00000000000E+00 0. -1.
          3    1    1    2  501    0 -0.25520032040E+02 -0.21092394865E+02 -0.48614856232E+01  0.33463341120E+02  0.00000000000E+00 0. -1.
</event>
<event>
 4    1  0.1560907E+006  0.2306593E+02  0.7546771E-02  0.1491672E+00
         21   -1    0    0  503  502  0.00000000000E+00  0.00000000000E+00  0.21630156456E+02  0.21630156456E+02  0.00000000000E+00 0.  1.
         -4   -1    0    0    0  501 -0.00000000000E+00 -0.00000000000E+00 -0.31056080869E+03  0.31056080869E+03  0.00000000000E+00 0. -1.
         21    1    1    2  503  501  0.14964353783E+02  0.17552922977E+02  0.14916952547E+02  0.27469118341E+02  0.00000000000E+00 0.  1.
         -4    1    1    2    0  502 -0.14964353783E+02 -0.17552922977E+02 -0.30384760478E+03  0.30472184681E+03  0.00000000000E+00 0. -1.
</event>
<event>
 4    1  0.1560907E+006  0.2392472E+02  0.7546771E-02  0.1481202E+00
         21   -1    0    0  503  502  0.00000000000E+00  0.00000000000E+00  0.64130105414E+00  0.64130105414E+00  0.00000000000E+00 0. -1.
         -4   -1    0    0    0  501 -0.00000000000E+00 -0.00000000000E+00 -0.93810405897E+03  0.93810405897E+03  0.00000000000E+00 0. -1.
         21    1    1    2  503  501  0.19590930793E+02  0.13732729426E+02 -0.36529769279E+03  0.36608031466E+03  0.00000000000E+00 0. -1.
         -4    1    1    2    0  502 -0.19590930793E+02 -0.13732729426E+02 -0.57216506513E+03  0.57266504536E+03  0.00000000000E+00 0. -1.
</event>
<event>
 4    1  0.1560907E+006  0.2724754E+02  0.7546771E-02  0.1445137E+00
         -3   -1    0    0    0  501 -0.00000000000E+00  0.00000000000E+00  0.23201933981E+03  0.23201933981E+03  0.00000000000E+00 0.  1.
         21   -1    0    0  503  502  0.00000000000E+00 -0.00000000000E+00 -0.10671462580E+02  0.10671462580E+02  0.00000000000E+00 0. -1.
         21    1    1    2  503  501 -0.20398112978E+02  0.18065039913E+02  0.91383428480E+01  0.28739136907E+02  0.00000000000E+00 0. -1.
         -3    1    1    2    0  502  0.20398112978E+02 -0.18065039913E+02  0.21220953439E+03  0.21395166549E+03  0.00000000000E+00 0.  1.
</event>
<event>
 4    1  0.1560907E+006  0.2278791E+02  0.7546771E-02  0.1495179E+00
         21   -1    0    0  503  502  0.00000000000E+00  0.00000000000E+00  0.72749324280E+03  0.72749324280E+03  0.00000000000E+00 0.  1.
          1   -1    0    0  502    0 -0.00000000000E+00 -0.00000000000E+00 -0.11030573590E+04  0.11030573590E+04  0.00000000000E+00 0.  1.
         21    1    1    2  503  501  0.44959870374E+01  0.22339988442E+02  0.72719705028E+03  0.72755401100E+03  0.00000000000E+00 0.  1.
          1    1    1    2  501    0 -0.44959870374E+01 -0.22339988442E+02 -0.11027611665E+04  0.11029965908E+04  0.00000000000E+00 0.  1.
</event>
<event>
 4    1  0.1560907E+006  0.7555108E+02  0.7546771E-02  0.1214570E+00
          2   -1    0    0  502    0 -0.00000000000E+00  0.00000000000E+00  0.16237217885E+03  0.16237217885E+03  0.00000000000E+00 0.  1.
         21   -1    0    0  503  502  0.00000000000E+00 -0.00000000000E+00 -0.11726840036E+03  0.11726840036E+03  0.00000000000E+00 0.  1.
         21    1    1    2  503  501 -0.23179317135E+02 -0.71907479299E+02 -0.94449339428E+02  0.12094893154E+03  0.00000000000E+00 0.  1.
          2    1    1    2  501    0  0.23179317135E+02  0.71907479299E+02  0.13955311792E+03  0.15869164768E+03  0.00000000000E+00 0.  1.
</event>
<event>
 4    1  0.1560907E+006  0.2808590E+02  0.7546771E-02  0.1436995E+00
         21   -1    0    0  501  502  0.00000000000E+00  0.00000000000E+00  0.95404800866E+02  0.95404800866E+02  0.00000000000E+00 0. -1.
          4   -1    0    0  503    0 -0.00000000000E+00 -0.00000000000E+00 -0.11889183599E+02  0.11889183599E+02  0.00000000000E+00 0.  1.
         21    1    1    2  503  502  0.30612653120E+01 -0.27918564599E+02  0.71364365755E+02  0.76692178834E+02  0.00000000000E+00 0. -1.
          4    1    1    2  501    0 -0.30612653120E+01  0.27918564599E+02  0.12151251511E+02  0.30601805631E+02  0.00000000000E+00 0.  1.
</event>
<event>
 4    1  0.1560907E+006  0.2106864E+02  0.7546771E-02  0.1518287E+00
          1   -1    0    0  502    0 -0.00000000000E+00  0.00000000000E+00  0.19908269605E+03  0.19908269605E+03  0.00000000000E+00 0. -1.
         21   -1    0    0  503  502  0.00000000000E+00 -0.00000000000E+00 -0.12078232734E+03  0.12078232734E+03  0.00000000000E+00 0.  1.
         21    1    1    2  503  501  0.33516974939E+01 -0.20800334109E+02 -0.11929925837E+03  0.12114537062E+03  0.00000000000E+00 0.  1.
          1    1    1    2  501    0 -0.33516974939E+01  0.20800334109E+02  0.19759962708E+03  0.19871965277E+03  0.00000000000E+00 0. -1.
</event>
<event>
 4    1  0.1560907E+006  0.2072098E+02  0.7546771E-02  0.1523286E+00
          1   -1    0    0  503    0 -0.00000000000E+00  0.00000000000E+00  0.19029372475E+03  0.19029372475E+03  0.00000000000E+00 0. -1.
         21   -1    0    0  501  502  0.00000000000E+00 -0.00000000000E+00 -0.91949154287E+01  0.91949154287E+01  0.00000000000E+00 0. -1.
         21    1    1    2  503  502  0.38951470999E+01 -0.20351581085E+02  0.39029434993E+01  0.21085350164E+02  0.00000000000E+00 0. -1.
          1    1    1    2  501    0 -0.38951470999E+01  0.20351581085E+02  0.17719586582E+03  0.17840329001E+03  0.00000000000E+00 0. -1.
</event>
<event>
 4    1  0.1560907E+006  0.6804067E+02  0.7546771E-02  0.1234716E+00
         21   -1    0    0  503  502  0.00000000000E+00  0.00000000000E+00  0.17243495310E+02  0.17243495310E+02  0.00000000000E+00 0. -1.
         -2   -1    0    0    0  501 -0.00000000000E+00 -0.00000000000E+00 -0.45644929447E+03  0.45644929447E+03  0.00000000000E+00 0. -1.
         21    1    1    2  503  501 -0.64445207999E+02  0.21825405387E+02 -0.67613256397E+02  0.95922289354E+02  0.00000000000E+00 0. -1.
         -2    1    1    2    0  502  0.64445207999E+02 -0.21825405387E+02 -0.37159254276E+03  0.37777050042E+03  0.00000000000E+00 0. -1.
</event>
<event>
 4    1  0.1560907E+006  0.2953124E+02  0.7546771E-02  0.1423714E+00
         21   -1    0    0  503  502  0.00000000000E+00  0.00000000000E+00  0.10754017503E+01  0.10754017503E+01  0.00000000000E+00 0. -1.
         -1   -1    0    0    0  501 -0.00000000000E+00 -0.00000000000E+00 -0.82816870664E+03  0.82816870664E+03  0.00000000000E+00 0. -1.
         21    1    1    2  503  501 -0.94072468722E+00 -0.29516249547E+02 -0.35375650910E+03  0.35498698805E+03  0.00000000000E+00 0. -1.
         -1    1    1    2    0  502  0.94072468722E+00  0.29516249547E+02 -0.47333679578E+03  0.47425712034E+03  0.00000000000E+00 0. -1.
</event>
<event>
 4    1  0.1560907E+006  0.2410944E+02  0.7546771E-02  0.1479018E+00
          2   -1    0    0  502    0 -0.00000000000E+00  0.00000000000E+00  0.19982214072E+03  0.19982214072E+03  0.00000000000E+00 0.  1.
         21   -1    0    0  503  502  0.00000000000E+00 -0.00000000000E+00 -0.53299186351E+01  0.53299186351E+01  0.00000000000E+00 0. -1.
         21    1    1    2  503  501  0.21478772566E+02 -0.10951134082E+02  0.28113399400E+02  0.37035499651E+02  0.00000000000E+00 0. -1.
          2    1    1    2  501    0 -0.21478772566E+02  0.10951134082E+02  0.16637882269E+03  0.16811655971E+03  0.00000000000E+00 0.  1.
</event>
<event>
 4    1  0.1560907E+006  0.2168817E+02  0.7546771E-02  0.1509662E+00
         21   -1    0    0  503  502  0.00000000000E+00  0.00000000000E+00  0.96849837966E+03  0.96849837966E+03  0.00000000000E+00 0. -1.
          1   -1    0    0  502    0 -0.00000000000E+00 -0.00000000000E+00 -0.64672375249E+00  0.64672375249E+00  0.00000000000E+00 0. -1.
         21    1    1    2  503  501  0.20393668832E+02  0.73807042254E+01  0.72573712876E+03  0.72606112455E+03  0.00000000000E+00 0. -1.
          1    1    1    2  501    0 -0.20393668832E+02 -0.73807042254E+01  0.24211452714E+03  0.24308397886E+03  0.00000000000E+00 0. -1.
</event>
<event>
 4    1  0.1560907E+006  0.2126921E+02  0.7546771E-02  0.1515456E+00
         21   -1    0    0  501  502  0.00000000000E+00  0.00000000000E+00  0.10637847181E+03  0.10637847181E+03  0.00000000000E+00 0. -1.
         -1   -1    0    0    0  501 -0.00000000000E+00 -0.00000000000E+00 -0.87694471125E+02  0.87694471125E+02  0.00000000000E+00 0.  1.
         21    1    1    2  503  502 -0.51606656145E+01 -0.20633630568E+02  0.10399645354E+03  0.10614914757E+03  0.00000000000E+00 0. -1.
         -1    1    1    2    0  503  0.51606656145E+01  0.20633630568E+02 -0.85312452855E+02  0.87923795369E+02  0.00000000000E+00 0.  1.
</event>
<event>
 4    1  0.1560907E+006  0.2064560E+02  0.7546771E-02  0.1524385E+00
         21   -1    0    0  501  502  0.00000000000E+00  0.00000000000E+00  0.27899130759E+01  0.27899130759E+01  0.00000000000E+00 0.  1.
          1   -1    0    0  503    0 -0.00000000000E+00 -0.00000000000E+00 -0.79144324093E+03  0.79144324093E+03  0.00000000000E+00 0.  1.
         21    1    1    2  503  502 -0.18736300580E+02 -0.86713143956E+01 -0.37592777178E+02  0.42888897733E+02  0.00000000000E+00 0.  1.
          1    1    1    2  501    0  0.18736300580E+02  0.86713143956E+01 -0.75106055068E+03  0.75134425628E+03  0.00000000000E+00 0.  1.
</event>
<event>
 4    1  0.1560907E+006  0.3120391E+02  0.7546771E-02  0.1409415E+00
         21   -1    0    0  503  502  0.00000000000E+00  0.00000000000E+00  0.15323424367E+02  0.15323424367E+02  0.00000000000E+00 0.  1.
          2   -1    0    0  502    0 -0.00000000000E+00 -0.00000000000E+00 -0.79519858405E+03  0.79519858405E+03  0.00000000000E+00 0. -1.
         21    1    1    2  503  501 -0.14715628150E+02 -0.27516077406E+02 -0.12053067635E+01  0.31227183543E+02  0.00000000000E+00 0.  1.
          2    1    1    2  501    0  0.14715628150E+02  0.27516077406E+02 -0.77866985292E+03  0.77929482487E+03  0.00000000000E+00 0. -1.
</event>
<event>
 4    1  0.1560907E+006  0.2841490E+02  0.7546771E-02  0.1433890E+00
          1   -1    0    0  503    0 -0.00000000000E+00  0.00000000000E+00  0.12745779855E+03  0.12745779855E+03  0.00000000000E+00 0.  1.
         21   -1    0    0  501  502  0.00000000000E+00 -0.00000000000E+00 -0.11200939635E+03  0.11200939635E+03  0.00000000000E+00 0.  1.
         21    1    1    2  503  502  0.27658325374E+02 -0.65133417998E+01 -0.10857435226E+03  0.11223099640E+03  0.00000000000E+00 0.  1.
          1    1    1    2  501    0 -0.27658325374E+02  0.65133417998E+01  0.12402275446E+03  0.12723619850E+03  0.00000000000E+00 0.  1.
</event>
<event>
 4    1  0.1560907E+006  0.2404120E+02  0.7546771E-02  0.1479822E+00
         21   -1    0    0  503  502  0.00000000000E+00  0.00000000000E+00  0.99071685542E+00  0.99071685542E+00  0.00000000000E+00 0. -1.
          2   -1    0    0  502    0 -0.00000000000E+00 -0.00000000000E+00 -0.80707361427E+03  0.80707361427E+03  0.00000000000E+00 0.  1.
         21    1    1    2  503  501 -0.18739655129E+02 -0.15060027972E+02 -0.19033936785E+03  0.19185164599E+03  0.00000000000E+00 0. -1.
          2    1    1    2  501    0  0.18739655129E+02  0.15060027972E+02 -0.61574352956E+03  0.61621268513E+03  0.00000000000E+00 0.  1.
</event>
<event>
 4    1  0.1560907E+006  0.2319816E+02  0.7546771E-02  0.1490025E+00
          2   -1    0    0  502    0 -0.00000000000E+00  0.00000000000E+00  0.14798016068E+04  0.14798016068E+04  0.00000000000E+00 0. -1.
         21   -1    0    0  503  502  0.00000000000E+00 -0.00000000000E+00 -0.81641705848E+02  0.81641705848E+02  0.00000000000E+00 0.  1.
         21    1    1    2  503  501  0.21881195355E+01 -0.23094736667E+02 -0.79900932337E+02  0.83200443010E+02  0.00000000000E+00 0.  1.
          2    1    1    2  501    0 -0.21881195355E+01  0.23094736667E+02  0.14780608333E+04  0.14782428696E+04  0.00000000000E+00 0. -1.
</event>
<event>
 4    1  0.1560907E+006  0.2233478E+02  0.7546771E-02  0.1501025E+00
         21   -1    0    0  503  502  0.00000000000E+00  0.00000000000E+00  0.41163840707E+01  0.41163840707E+01  0.00000000000E+00 0. -1.
         -4   -1    0    0    0  501 -0.00000000000E+00 -0.00000000000E+00 -0.13157912256E+03  0.13157912256E+03  0.00000000000E+00 0. -1.
         21    1    1    2  503  501 -0.15480677579E+02  0.16099405263E+02 -0.44661623372E+02  0.49934986036E+02  0.00000000000E+00 0. -1.
         -4    1    1    2    0  502  0.15480677579E+02 -0.16099405263E+02 -0.82801115121E+02  0.85760520599E+02  0.00000000000E+00 0. -1.
</event>
<event>
 4    1  0.1560907E+006  0.3138403E+02  0.7546771E-02  0.1407939E+00
          1   -1    0    0  503    0 -0.00000000000E+00  0.00000000000E+00  0.91680148764E+03  0.91680148764E+03  0.00000000000E+00 0.  1.
         21   -1    0    0  501  502  0.00000000000E+00 -0.00000000000E+00 -0.11825756430E+01  0.11825756430E+01  0.00000000000E+00 0.  1.
         21    1    1    2  503  502  0.80615191255E+00  0.31373669604E+02  0.31895024135E+03  0.32049058252E+03  0.00000000000E+00 0.  1.
          1    1    1    2  501    0 -0.80615191255E+00 -0.31373669604E+02  0.59666867064E+03  0.59749348076E+03  0.00000000000E+00 0.  1.
</event>
<event>
 4    1  0.1560907E+006  0.2179721E+02  0.7546771E-02  0.1508180E+00
         21   -1    0    0  501  502  0.00000000000E+00  0.00000000000E+00  0.15603874549E+03  0.15603874549E+03  0.00000000000E+00 0. -1.
          2   -1    0    0  503    0 -0.00000000000E+00 -0.00000000000E+00 -0.28764174546E+02  0.28764174546E+02  0.00000000000E+00 0.  1.
         21    1    1    2  503  502  0.21795931347E+02 -0.23613711651E+00  0.15101133189E+03  0.15257634398E+03  0.00000000000E+00 0. -1.
          2    1    1    2  501    0 -0.21795931347E+02  0.23613711651E+00 -0.23736760944E+02  0.32226576054E+02  0.00000000000E+00 0.  1.
</event>
<event>
 4    1  0.1560907E+006  0.3149701E+02  0.7546771E-02  0.1407019E+00
          2   -1    0    0  503    0 -0.00000000000E+00  0.00000000000E+00  0.22378033119E+04  0.22378033119E+04  0.00000000000E+00 0.  1.
         21   -1    0    0  501  502  0.00000000000E+00 -0.00000000000E+00 -0.19873136282E+01  0.19873136282E+01  0.00000000000E+00 0.  1.
         21    1    1    2  503  502  0.60697175031E+00 -0.31491161710E+02  0.13079458405E+03  0.13453358279E+03  0.00000000000E+00 0.  1.
          2    1    1    2  501    0 -0.60697175031E+00  0.31491161710E+02  0.21050214142E+04  0.21052570427E+04  0.00000000000E+00 0.  1.
</event>
<event>
 4    1  0.1560907E+006  0.2775137E+02  0.7546771E-02  0.1440203E+00
          1   -1    0    0  503    0 -0.00000000000E+00  0.00000000000E+00  0.12134653213E+03  0.12134653213E+03  0.00000000000E+00 0. -1.
         21   -1    0    0  501  502  0.00000000000E+00 -0.00000000000E+00 -0.36209459142E+02  0.36209459142E+02  0.00000000000E+00 0. -1.
         21    1    1    2  503  502 -0.43523997718E+01 -0.27407939833E+02 -0.28973213924E+02  0.40119642007E+02  0.00000000000E+00 0. -1.
          1    1    1    2  501    0  0.43523997718E+01  0.27407939833E+02  0.11411028692E+03  0.11743634927E+03  0.00000000000E+00 0. -1.
</event>
<event>
 4    1  0.1560907E+006  0.2513463E+02  0.7546771E-02  0.1467303E+00
         -4   -1    0    0    0  501 -0.00000000000E+00  0.00000000000E+00  0.28677259247E+03  0.28677259247E+03  0.00000000000E+00 0.  1.
         21   -1    0    0  501  502  0.00000000000E+00 -0.00000000000E+00 -0.68245849653E+02  0.68245849653E+02  0.00000000000E+00 0.  1.
         21    1    1    2  503  502  0.11791336410E+02  0.22197164776E+02 -0.65357365126E+02  0.70023816768E+02  0.00000000000E+00 0.  1.
         -4    1    1    2    0  503 -0.11791336410E+02 -0.22197164776E+02  0.28388410794E+03  0.28499462535E+03  0.00000000000E+00 0.  1.
</event>
<event>
 4    1  0.1560907E+006  0.2468269E+02  0.7546771E-02  0.1472385E+00
          2   -1    0    0  503    0 -0.00000000000E+00  0.00000000000E+00  0.14101972021E+04  0.14101972021E+04  0.00000000000E+00 0.  1.
         21   -1    0    0  501  502  0.00000000000E+00 -0.00000000000E+00 -0.68869545073E+00  0.68869545073E+00  0.00000000000E+00 0. -1.
         21    1    1    2  503  502 -0.21714155066E+02  0.11735876908E+02  0.27408953766E+03  0.27519867368E+03  0.00000000000E+00 0. -1.
          2    1    1    2  501    0  0.21714155066E+02 -0.11735876908E+02  0.11354189690E+04  0.11356872238E+04  0.00000000000E+00 0.  1.
</event>
<event>
 4    1  0.1560907E+006  0.2022522E+02  0.7546771E-02  0.1530620E+00
         21   -1    0    0  501  502  0.00000000000E+00  0.00000000000E+00  0.11896828049E+04  0.11896828049E+04  0.00000000000E+00 0.  1.
          4   -1    0    0  503    0 -0.00000000000E+00 -0.00000000000E+00 -0.34769669461E+01  0.34769669461E+01  0.00000000000E+00 0. -1.
         21    1    1    2  503  502 -0.17425510334E+02 -0.10266991687E+02  0.11594170261E+04  0.11595934201E+04  0.00000000000E+00 0.  1.
          4    1    1    2  501    0  0.17425510334E+02  0.10266991687E+02  0.26788811832E+02  0.33566351724E+02  0.00000000000E+00 0. -1.
</event>
<event>
 4    1  0.1560907E+006  0.3643787E+02  0.7546771E-02  0.1370727E+00
          3   -1    0    0  503    0 -0.00000000000E+00  0.00000000000E+00  0.53389977433E+02  0.53389977433E+02  0.00000000000E+00 0.  1.
         21   -1    0    0  501  502  0.00000000000E+00 -0.00000000000E+00 -0.17646544494E+03  0.17646544494E+03  0.00000000000E+00 0. -1.
         21    1    1    2  503  502 -0.30032466680E+02  0.20634178484E+02 -0.16806000562E+03  0.17196477507E+03  0.00000000000E+00 0. -1.
          3    1    1    2  501    0  0.30032466680E+02 -0.20634178484E+02  0.44984538108E+02  0.57890647305E+02  0.00000000000E+00 0.  1.
</event>
<event>
 4    1  0.1560907E+006  0.3065337E+02  0.7546771E-02  0.1414002E+00
         21   -1    0    0  501  502  0.00000000000E+00  0.00000000000E+00  0.10623285423E+04  0.10623285423E+04  0.00000000000E+00 0.  1.
         -1   -1    0    0    0  501 -0.00000000000E+00 -0.00000000000E+00 -0.74280718301E+01  0.74280718301E+01  0.00000000000E+00 0.  1.
         21    1    1    2  503  502  0.27561666607E+02  0.13415794033E+02  0.10294741351E+04  0.10299303975E+04  0.00000000000E+00 0.  1.
         -1    1    1    2    0  503 -0.27561666607E+02 -0.13415794033E+02  0.25426335384E+02  0.39826216576E+02  0.00000000000E+00 0.  1.
</event>
<event>
 4    1  0.1560907E+006  0.3633946E+02  0.7546771E-02  0.1371383E+00
         21   -1    0    0  501  502  0.00000000000E+00  0.00000000000E+00  0.45099750105E+02  0.45099750105E+02  0.00000000000E+00 0.  1.
          1   -1    0    0  503    0 -0.00000000000E+00 -0.00000000000E+00 -0.84054615765E+03  0.84054615765E+03  0.00000000000E+00 0. -1.
         21    1    1    2  503  502 -0.32762358671E+02  0.15722096606E+02  0.37318417145E+02  0.52088585367E+02  0.00000000000E+00 0.  1.
          1    1    1    2  501    0  0.32762358671E+02 -0.15722096606E+02 -0.83276482469E+03  0.83355732239E+03  0.00000000000E+00 0. -1.
</event>
<event>
 4    1  0.1560907E+006  0.2145685E+02  0.7546771E-02  0.1512841E+00
         21   -1    0    0  501  502  0.00000000000E+00  0.00000000000E+00  0.33306243159E+02  0.33306243159E+02  0.00000000000E+00 0. -1.
          4   -1    0    0  503    0 -0.00000000000E+00 -0.00000000000E+00 -0.18599970021E+02  0.18599970021E+02  0.00000000000E+00 0.  1.
         21    1    1    2  503  502 -0.21159049413E+02 -0.35624580145E+01  0.20505495267E+02  0.29679484755E+02  0.00000000000E+00 0. -1.
          4    1    1    2  501    0  0.21159049413E+02  0.35624580145E+01 -0.57992221287E+01  0.22226728425E+02  0.00000000000E+00 0.  1.
</event>
<event>
 4    1  0.1560907E+006  0.2387771E+02  0.7546771E-02  0.1481761E+00
         21   -1    0    0  501  502  0.00000000000E+00  0.00000000000E+00  0.13313751490E+02  0.13313751490E+02  0.00000000000E+00 0. -1.
          1   -1    0    0  503    0 -0.00000000000E+00 -0.00000000000E+00 -0.43048371408E+02  0.43048371408E+02  0.00000000000E+00 0.  1.
         21    1    1    2  503  502  0.20210936418E+02  0.12714686122E+02 -0.16902820837E+02  0.29254923454E+02  0.00000000000E+00 0. -1.
          1    1    1    2  501    0 -0.20210936418E+02 -0.12714686122E+02 -0.12831799080E+02  0.27107199444E+02  0.00000000000E+00 0.  1.
</event>
<event>
 4    1  0.1560907E+006  0.3402315E+02  0.7546771E-02  0.1387564E+00
         21   -1    0    0  503  502  0.00000000000E+00  0.00000000000E+00  0.16223697839E+01  0.16223697839E+01  0.00000000000E+00 0. -1.
          1   -1    0    0  502    0 -0.00000000000E+00 -0.00000000000E+00 -0.89781230247E+03  0.89781230247E+03  0.00000000000E+00 0. -1.
         21    1    1    2  503  501 -0.83169540613E+01  0.32990956084E+02 -0.24433737419E+03  0.24669480606E+03  0.00000000000E+00 0. -1.
          1    1    1    2  501    0  0.83169540613E+01 -0.32990956084E+02 -0.65185255850E+03  0.65273986620E+03  0.00000000000E+00 0. -1.
</event>
<event>
 4    1  0.1560907E+006  0.2111854E+02  0.7546771E-02  0.1517579E+00
         21   -1    0    0  501  502  0.00000000000E+00  0.00000000000E+00  0.30794980733E+02  0.30794980733E+02  0.00000000000E+00 0.  1.
         -4   -1    0    0    0  501 -0.00000000000E+00 -0.00000000000E+00 -0.75814288969E+02  0.75814288969E+02  0.00000000000E+00 0. -1.
         21    1    1    2  503  502 -0.16996231023E+02 -0.12534793109E+02  0.25434065752E+02  0.33058805301E+02  0.00000000000E+00 0.  1.
         -4    1    1    2    0  503  0.16996231023E+02  0.12534793109E+02 -0.70453373988E+02  0.73550464401E+02  0.00000000000E+00 0. -1.
</event>
<event>
 4    1  0.1560907E+006  0.2546222E+02  0.7546771E-02  0.1463698E+00
         -3   -1    0    0    0  501 -0.00000000000E+00  0.00000000000E+00  0.56203109215E+03  0.56203109215E+03  0.00000000000E+00 0. -1.
         21   -1    0    0  501  502  0.00000000000E+00 -0.00000000000E+00 -0.48280525650E+01  0.48280525650E+01  0.00000000000E+00 0.  1.
         21    1    1    2  503  502 -0.68629623565E+01  0.24519881750E+02  0.31338546750E+02  0.40378575578E+02  0.00000000000E+00 0.  1.
         -3    1    1    2    0  503  0.68629623565E+01 -0.24519881750E+02  0.52586449284E+03  0.52648056914E+03  0.00000000000E+00 0. -1.
</event>
<event>
 4    1  0.1560907E+006  0.2739513E+02  0.7546771E-02  0.1443679E+00
          2   -1    0    0  502    0 -0.00000000000E+00  0.00000000000E+00  0.10204676955E+04  0.10204676955E+04  0.00000000000E+00 0. -1.
         21   -1    0    0  503  502  0.00000000000E+00 -0.00000000000E+00 -0.47652665666E+01  0.47652665666E+01  0.00000000000E+00 0. -1.
         21    1    1    2  503  501  0.23446702392E+02  0.14168469763E+02  0.36448466565E+02  0.45595878141E+02  0.00000000000E+00 0. -1.
          2    1    1    2  501    0 -0.23446702392E+02 -0.14168469763E+02  0.97925396235E+03  0.97963708390E+03  0.00000000000E+00 0. -1.
</event>
<event>
 4    1  0.1560907E+006  0.2341743E+02  0.7546771E-02  0.1487322E+00
         21   -1    0    0  503  502  0.00000000000E+00  0.00000000000E+00  0.22704032417E+01  0.22704032417E+01  0.00000000000E+00 0.  1.
         -2   -1    0    0    0  501 -0.00000000000E+00 -0.00000000000E+00 -0.10082662918E+04  0.10082662918E+04  0.00000000000E+00 0. -1.
         21    1    1    2  503  501  0.10335596214E+02 -0.21013125156E+02 -0.62385463504E+02  0.66635741419E+02  0.00000000000E+00 0.  1.
         -2    1    1    2    0  502 -0.10335596214E+02  0.21013125156E+02 -0.94361042501E+03  0.94390095358E+03  0.00000000000E+00 0. -1.
</event>
<event>
 4    1  0.1560907E+006  0.5012489E+02  0.7546771E-02  0.1297632E+00
         21   -1    0    0  501  502  0.00000000000E+00  0.00000000000E+00  0.64022797655E+02  0.64022797655E+02  0.00000000000E+00 0.  1.
         -1   -1    0    0    0  501 -0.00000000000E+00 -0.00000000000E+00 -0.25142765542E+03  0.25142765542E+03  0.00000000000E+00 0.  1.
         21    1    1    2  503  502 -0.48430969728E+02 -0.12920748497E+02  0.51191669935E+02  0.71645597501E+02  0.00000000000E+00 0.  1.
         -1    1    1    2    0  503  0.48430969728E+02  0.12920748497E+02 -0.23859652770E+03  0.24380485558E+03  0.00000000000E+00 0.  1.
</event>
<event>
 4    1  0.1560907E+006  0.3779712E+02  0.7546771E-02  0.1361902E+00
         21   -1    0    0  503  502  0.00000000000E+00  0.00000000000E+00  0.28938793847E+02  0.28938793847E+02  0.00000000000E+00 0.  1.
          2   -1    0    0  502    0 -0.00000000000E+00 -0.00000000000E+00 -0.64385074224E+03  0.64385074224E+03  0.00000000000E+00 0. -1.
         21    1    1    2  503  501  0.23961358199E+02  0.29231418170E+02  0.15785151063E+02  0.40960877542E+02  0.00000000000E+00 0.  1.
          2    1    1    2  501    0 -0.23961358199E+02 -0.29231418170E+02 -0.63069709945E+03  0.63182865854E+03  0.00000000000E+00 0. -1.
</event>
<event>
 4    1  0.1560907E+006  0.3803859E+02  0.7546771E-02  0.1360379E+00
         21   -1    0    0  501  502  0.00000000000E+00  0.00000000000E+00  0.23978498517E+01  0.23978498517E+01  0.00000000000E+00 0.  1.
          1   -1    0    0  503    0 -0.00000000000E+00 -0.00000000000E+00 -0.16564626034E+04  0.16564626034E+04  0.00000000000E+00 0. -1.
         21    1    1    2  503  502 -0.27347251023E+02  0.26439789819E+02 -0.16571498893E+03  0.17002468109E+03  0.00000000000E+00 0.  1.
          1    1    1    2  501    0  0.27347251023E+02 -0.26439789819E+02 -0.14883497646E+04  0.14888357722E+04  0.00000000000E+00 0. -1.
</event>
<event>
 4    1  0.1560907E+006  0.2310841E+02  0.7546771E-02  0.1491141E+00
         21   -1    0    0  501  502  0.00000000000E+00  0.00000000000E+00  0.74978234560E+02  0.74978234560E+02  0.00000000000E+00 0.  1.
          1   -1    0    0  503    0 -0.00000000000E+00 -0.00000000000E+00 -0.27190293103E+03  0.27190293103E+03  0.00000000000E+00 0. -1.
         21    1    1    2  503  502  0.17014700105E+02 -0.15636443624E+02  0.72691668098E+02  0.76276320046E+02  0.00000000000E+00 0.  1.
          1    1    1    2  501    0 -0.17014700105E+02  0.15636443624E+02 -0.26961636456E+03  0.27060484554E+03  0.00000000000E+00 0. -1.
</event>
<event>
 4    1  0.1560907E+006  0.2433677E+02  0.7546771E-02  0.1476361E+00
          2   -1    0    0  503    0 -0.00000000000E+00  0.00000000000E+00  0.10109727151E+04  0.10109727151E+04  0.00000000000E+00 0. -1.
         21   -1    0    0  501  502  0.00000000000E+00 -0.00000000000E+00 -0.12102893148E+01  0.12102893148E+01  0.00000000000E+00 0. -1.
         21    1    1    2  503  502 -0.67383128063E+01  0.23385326021E+02  0.14136015292E+03  0.14343978237E+03  0.00000000000E+00 0. -1.
          2    1    1    2  501    0  0.67383128063E+01 -0.23385326021E+02  0.86840227282E+03  0.86874322200E+03  0.00000000000E+00 0. -1.
</event>
<event>
 4    1  0.1560907E+006  0.2388758E+02  0.7546771E-02  0.1481644E+00
          4   -1    0    0  502    0 -0.00000000000E+00  0.00000000000E+00  0.22759309585E+02  0.22759309585E+02  0.00000000000E+00 0.  1.
         21   -1    0    0  503  502  0.00000000000E+00 -0.00000000000E+00 -0.41912376218E+02  0.41912376218E+02  0.00000000000E+00 0.  1.
         21    1    1    2  503  501 -0.18317439669E+02  0.15332577215E+02 -0.30073599783E+02  0.38406222465E+02  0.00000000000E+00 0.  1.
          4    1    1    2  501    0  0.18317439669E+02 -0.15332577215E+02  0.10920533150E+02  0.26265463338E+02  0.00000000000E+00 0.  1.
</event>
<event>
 4    1  0.1560907E+006  0.2870664E+02  0.7546771E-02  0.1431179E+00
         21   -1    0    0  503  502  0.00000000000E+00  0.00000000000E+00  0.12173327674E+03  0.12173327674E+03  0.00000000000E+00 0. -1.
         -4   -1    0    0    0  501 -0.00000000000E+00 -0.00000000000E+00 -0.78023988811E+01  0.78023988811E+01  0.00000000000E+00 0. -1.
         21    1    1    2  503  501 -0.15800503802E+02 -0.23966967192E+02  0.80530992576E+02  0.85494515626E+02  0.00000000000E+00 0. -1.
         -4    1    1    2    0  502  0.15800503802E+02  0.23966967192E+02  0.33399885279E+02  0.44041159992E+02  0.00000000000E+00 0. -1.
</event>
<event>
 4    1  0.1560907E+006  0.2487784E+02  0.7546771E-02  0.1470175E+00
          1   -1    0    0  503    0 -0.00000000000E+00  0.00000000000E+00  0.43134323151E+03  0.43134323151E+03  0.00000000000E+00 0.  1.
         21   -1    0    0  501  502  0.00000000000E+00 -0.00000000000E+00 -0.42053410295E+02  0.42053410295E+02  0.00000000000E+00 0.  1.
         21    1    1    2  503  502 -0.12218206729E+02  0.21670772845E+02 -0.37980366031E+02  0.45402810213E+02  0.00000000000E+00 0.  1.
          1    1    1    2  501    0  0.12218206729E+02 -0.21670772845E+02  0.42727018724E+03  0.42799383159E+03  0.00000000000E+00 0.  1.
</event>
<event>
 4    1  0.1560907E+006  0.2521847E+02  0.7546771E-02  0.1466374E+00
         21   -1    0    0  501  502  0.00000000000E+00  0.00000000000E+00  0.30975446510E+03  0.30975446510E+03  0.00000000000E+00 0.  1.
         -2   -1    0    0    0  501 -0.00000000000E+00 -0.00000000000E+00 -0.23739502232E+03  0.23739502232E+03  0.00000000000E+00 0.  1.
         21    1    1    2  503  502  0.22928117214E+02 -0.10501068694E+02  0.30856887051E+03  0.30959767255E+03  0.00000000000E+00 0.  1.
         -2    1    1    2    0  503 -0.22928117214E+02  0.10501068694E+02 -0.23620942772E+03  0.23755181487E+03  0.00000000000E+00 0.  1.
</event>
<event>
 4    1  0.1560907E+006  0.2219447E+02  0.7546771E-02  0.1502869E+00
          2   -1    0    0  503    0 -0.00000000000E+00  0.00000000000E+00  0.32659794006E+03  0.32659794006E+03  0.00000000000E+00 0.  1.
         21   -1    0    0  501  502  0.00000000000E+00 -0.00000000000E+00 -0.20185568169E+02  0.20185568169E+02  0.00000000000E+00 0. -1.
         21    1    1    2  503  502 -0.19688688545E+02  0.10244518216E+02 -0.13581926333E+02  0.26020440677E+02  0.00000000000E+00 0. -1.
          2    1    1    2  501    0  0.19688688545E+02 -0.10244518216E+02  0.31999429823E+03  0.32076306755E+03  0.00000000000E+00 0.  1.
</event>
<event>
 4    1  0.1560907E+006  0.2437751E+02  0.7546771E-02  0.1475889E+00
         21   -1    0    0  501  502  0.00000000000E+00  0.00000000000E+00  0.37066716028E+00  0.37066716028E+00  0.00000000000E+00 0. -1.
          2   -1    0    0  503    0 -0.00000000000E+00 -0.00000000000E+00 -0.18443078264E+04  0.18443078264E+04  0.00000000000E+00 0. -1.
         21    1    1    2  503  502 -0.11608427534E+02 -0.21436128939E+02 -0.12554381863E+04  0.12556748396E+04  0.00000000000E+00 0. -1.
          2    1    1    2  501    0  0.11608427534E+02  0.21436128939E+02 -0.58849897301E+03  0.58900365402E+03  0.00000000000E+00 0. -1.
</event>
<event>
 4    1  0.1560907E+006  0.2257846E+02  0.7546771E-02  0.1497860E+00
         21   -1    0    0  501  502  0.00000000000E+00  0.00000000000E+00  0.14220757345E+04  0.14220757345E+04  0.00000000000E+00 0. -1.
          3   -1    0    0  503    0 -0.00000000000E+00 -0.00000000000E+00 -0.11237466067E+02  0.11237466067E+02  0.00000000000E+00 0.  1.
         21    1    1    2  503  502  0.91335265889E+01  0.20648620374E+02  0.14105522363E+04  0.14107329294E+04  0.00000000000E+00 0. -1.
          3    1    1    2  501    0 -0.91335265889E+01 -0.20648620374E+02  0.28603215192E+00  0.22580271161E+02  0.00000000000E+00 0.  1.
</event>
<event>
 4    1  0.1560907E+006  0.2427779E+02  0.7546771E-02  0.1477047E+00
          1   -1    0    0  503    0 -0.00000000000E+00  0.00000000000E+00  0.15981696667E+04  0.15981696667E+04  0.00000000000E+00 0.  1.
         21   -1    0    0  501  502  0.00000000000E+00 -0.00000000000E+00 -0.51426038216E+02  0.51426038216E+02  0.00000000000E+00 0. -1.
         21    1    1    2  503  502 -0.11992523431E+02  0.21109019067E+02 -0.48463180626E+02  0.54204162023E+02  0.00000000000E+00 0. -1.
          1    1    1    2  501    0  0.11992523431E+02 -0.21109019067E+02  0.15952068092E+04  0.15953915429E+04  0.00000000000E+00 0.  1.
</event>
<event>
 4    1  0.1560907E+006  0.2425563E+02  0.7546771E-02  0.1477306E+00
         21   -1    0    0  503  502  0.00000000000E+00  0.00000000000E+00  0.73113501173E+00  0.73113501173E+00  0.00000000000E+00 0. -1.
          2   -1    0    0  502    0 -0.00000000000E+00 -0.00000000000E+00 -0.10225154453E+04  0.10225154453E+04  0.00000000000E+00 0. -1.
         21    1    1    2  503  501 -0.20692547141E+02 -0.12655199723E+02 -0.27475102151E+03  0.27581961389E+03  0.00000000000E+00 0. -1.
          2    1    1    2  501    0  0.20692547141E+02  0.12655199723E+02 -0.74703328875E+03  0.74742696639E+03  0.00000000000E+00 0. -1.
</event>
<event>
 4    1  0.1560907E+006  0.2735043E+02  0.7546771E-02  0.1444119E+00
         21   -1    0    0  501  502  0.00000000000E+00  0.00000000000E+00  0.15838408701E+01  0.15838408701E+01  0.00000000000E+00 0.  1.
          2   -1    0    0  503    0 -0.00000000000E+00 -0.00000000000E+00 -0.49259589289E+03  0.49259589289E+03  0.00000000000E+00 0.  1.
         21    1    1    2  503  502 -0.27028455455E+01  0.27216555383E+02 -0.19534970647E+03  0.19725504830E+03  0.00000000000E+00 0.  1.
          2    1    1    2  501    0  0.27028455455E+01 -0.27216555383E+02 -0.29566234555E+03  0.29692468546E+03  0.00000000000E+00 0.  1.
</event>
<event>
 4    1  0.1560907E+006  0.2006236E+02  0.7546771E-02  0.1533085E+00
          2   -1    0    0  502    0 -0.00000000000E+00  0.00000000000E+00  0.99169750390E+02  0.99169750390E+02  0.00000000000E+00 0. -1.
         21   -1    0    0  503  502  0.00000000000E+00 -0.00000000000E+00 -0.50928774272E+02  0.50928774272E+02  0.00000000000E+00 0. -1.
         21    1    1    2  503  501 -0.63192966535E+00  0.20052402213E+02 -0.47876235793E+02  0.51909846112E+02  0.00000000000E+00 0. -1.
          2    1    1    2  501    0  0.63192966535E+00 -0.20052402213E+02  0.96117211912E+02  0.98188678550E+02  0.00000000000E+00 0. -1.
</event>
<event>
 4    1  0.1560907E+006  0.2030121E+02  0.7546771E-02  0.1529480E+00
         -1   -1    0    0    0  501 -0.00000000000E+00  0.00000000000E+00  0.79050546604E+03  0.79050546604E+03  0.00000000000E+00 0.  1.
         21   -1    0    0  501  502  0.00000000000E+00 -0.00000000000E+00 -0.11936751332E+01  0.11936751332E+01  0.00000000000E+00 0.  1.
         21    1    1    2  503  502  0.12588850629E+02  0.15926712300E+02  0.97576194350E+02  0.99665706382E+02  0.00000000000E+00 0.  1.
         -1    1    1    2    0  503 -0.12588850629E+02 -0.15926712300E+02  0.69173559655E+03  0.69203343479E+03  0.00000000000E+00 0.  1.
</event>
<event>
 4    1  0.1560907E+006  0.4538024E+02  0.7546771E-02  0.1319549E+00
          1   -1    0    0  503    0 -0.00000000000E+00  0.00000000000E+00  0.16247551884E+03  0.16247551884E+03  0.00000000000E+00 0. -1.
         21   -1    0    0  501  502  0.00000000000E+00 -0.00000000000E+00 -0.30405823195E+02  0.30405823195E+02  0.00000000000E+00 0.  1.
         21    1    1    2  503  502 -0.11207959443E+01  0.45366392356E+02 -0.76108114225E+01  0.46014021662E+02  0.00000000000E+00 0.  1.
          1    1    1    2  501    0  0.11207959443E+01 -0.45366392356E+02  0.13968050707E+03  0.14686732038E+03  0.00000000000E+00 0. -1.
</event>
<event>
 4    1  0.1560907E+006  0.4445743E+02  0.7546771E-02  0.1324175E+00
         21   -1    0    0  503  502  0.00000000000E+00  0.00000000000E+00  0.52987089015E+01  0.52987089015E+01  0.00000000000E+00 0.  1.
          2   -1    0    0  502    0 -0.00000000000E+00 -0.00000000000E+00 -0.53335287045E+03  0.53335287045E+03  0.00000000000E+00 0.  1.
         21    1    1    2  503  501  0.24645717054E+02  0.37000696559E+02 -0.11635526295E+03  0.12455926353E+03  0.00000000000E+00 0.  1.
          2    1    1    2  501    0 -0.24645717054E+02 -0.37000696559E+02 -0.41169889861E+03  0.41409231583E+03  0.00000000000E+00 0.  1.
</event>
<event>
 4    1  0.1560907E+006  0.2230242E+02  0.7546771E-02  0.1501448E+00
          1   -1    0    0  503    0 -0.00000000000E+00  0.00000000000E+00  0.45095341600E+01  0.45095341600E+01  0.00000000000E+00 0. -1.
         21   -1    0    0  501  502  0.00000000000E+00 -0.00000000000E+00 -0.11240983247E+03  0.11240983247E+03  0.00000000000E+00 0. -1.
         21    1    1    2  503  502 -0.16921960247E+02  0.14527399851E+02 -0.61960635935E+02  0.65852247422E+02  0.00000000000E+00 0. -1.
          1    1    1    2  501    0  0.16921960247E+02 -0.14527399851E+02 -0.45939662371E+02  0.51067119204E+02  0.00000000000E+00 0. -1.
</event>
<event>
 4    1  0.1560907E+006  0.3192836E+02  0.7546771E-02  0.1403547E+00
         21   -1    0    0  503  502  0.00000000000E+00  0.00000000000E+00  0.35099039412E+02  0.35099039412E+02  0.00000000000E+00 0. -1.
          1   -1    0    0  502    0 -0.00000000000E+00 -0.00000000000E+00 -0.55139189790E+03  0.55139189790E+03  0.00000000000E+00 0. -1.
         21    1    1    2  503  501  0.29505305029E+02  0.12200694470E+02  0.27271337937E+02  0.41989830236E+02  0.00000000000E+00 0. -1.
          1    1    1    2  501    0 -0.29505305029E+02 -0.12200694470E+02 -0.54356419643E+03  0.54450110708E+03  0.00000000000E+00 0. -1.
</event>
<event>
 4    1  0.1560907E+006  0.3546198E+02  0.7546771E-02  0.1377344E+00
         21   -1    0    0  503  502  0.00000000000E+00  0.00000000000E+00  0.79166714436E+03  0.79166714436E+03  0.00000000000E+00 0.  1.
         -4   -1    0    0    0  501 -0.00000000000E+00 -0.00000000000E+00 -0.40529208882E+01  0.40529208882E+01  0.00000000000E+00 0. -1.
         21    1    1    2  503  501 -0.35012585541E+02 -0.56277136096E+01  0.70405219689E+03  0.70494471290E+03  0.00000000000E+00 0.  1.
         -4    1    1    2    0  502  0.35012585541E+02  0.56277136096E+01  0.83562026588E+02  0.90775352349E+02  0.00000000000E+00 0. -1.
</event>
<event>
 4    1  0.1560907E+006  0.2099695E+02  0.7546771E-02  0.1519308E+00
         21   -1    0    0  503  502  0.00000000000E+00  0.00000000000E+00  0.91173204470E+00  0.91173204470E+00  0.00000000000E+00 0.  1.
          1   -1    0    0  502    0 -0.00000000000E+00 -0.00000000000E+00 -0.73888387610E+03  0.73888387610E+03  0.00000000000E+00 0. -1.
         21    1    1    2  503  501 -0.14041356422E+02  0.15611285174E+02 -0.15154366158E+03  0.15299135034E+03  0.00000000000E+00 0.  1.
          1    1    1    2  501    0  0.14041356422E+02 -0.15611285174E+02 -0.58642848247E+03  0.58680425780E+03  0.00000000000E+00 0. -1.
</event>
<event>
 4    1  0.1560907E+006  0.2133487E+02  0.7546771E-02  0.1514537E+00
          2   -1    0    0  502    0 -0.00000000000E+00  0.00000000000E+00  0.10886110545E+02  0.10886110545E+02  0.00000000000E+00 0. -1.
         21   -1    0    0  503  502  0.00000000000E+00 -0.00000000000E+00 -0.15511829124E+03  0.15511829124E+03  0.00000000000E+00 0. -1.
         21    1    1    2  503  501 -0.19662282587E+02 -0.82807790752E+01 -0.14305490899E+03  0.14463707562E+03  0.00000000000E+00 0. -1.
          2    1    1    2  501    0  0.19662282587E+02  0.82807790752E+01 -0.11772717052E+01  0.21367326161E+02  0.00000000000E+00 0. -1.
</event>
<event>
 4    1  0.1560907E+006  0.2137188E+02  0.7546771E-02  0.1514021E+00
         21   -1    0    0  501  502  0.00000000000E+00  0.00000000000E+00  0.95237998727E+00  0.95237998727E+00  0.00000000000E+00 0. -1.
          2   -1    0    0  503    0 -0.00000000000E+00 -0.00000000000E+00 -0.13302859500E+04  0.13302859500E+04  0.00000000000E+00 0. -1.
         21    1    1    2  503  502  0.16899746242E+02  0.13082654357E+02 -0.13238811315E+03  0.13410208712E+03  0.00000000000E+00 0. -1.
          2    1    1    2  501    0 -0.16899746242E+02 -0.13082654357E+02 -0.11969454568E+04  0.11971362428E+04  0.00000000000E+00 0. -1.
</event>
<event>
 4    1  0.1560907E+006  0.3893150E+02  0.7546771E-02  0.1354863E+00
         -1   -1    0    0    0  501 -0.00000000000E+00  0.00000000000E+00  0.25949006017E+03  0.25949006017E+03  0.00000000000E+00 0. -1.
         21   -1    0    0  501  502  0.00000000000E+00 -0.00000000000E+00 -0.10378815313E+03  0.10378815313E+03  0.00000000000E+00 0. -1.
         21    1    1    2  503  502 -0.38733050587E+02  0.39259211968E+01 -0.98603059438E+02  0.10601049663E+03  0.00000000000E+00 0. -1.
         -1    1    1    2    0  503  0.38733050587E+02 -0.39259211968E+01  0.25430496648E+03  0.25726771667E+03  0.00000000000E+00 0. -1.
</event>
<event>
 4    1  0.1560907E+006  0.2123677E+02  0.7546771E-02  0.1515911E+00
          1   -1    0    0  503    0 -0.00000000000E+00  0.00000000000E+00  0.51476509959E+02  0.51476509959E+02  0.00000000000E+00 0. -1.
         21   -1    0    0  501  502  0.00000000000E+00 -0.00000000000E+00 -0.13447999698E+02  0.13447999698E+02  0.00000000000E+00 0.  1.
         21    1    1    2  503  502  0.10673630866E+02  0.18359571039E+02 -0.14965884537E+00  0.21237293668E+02  0.00000000000E+00 0.  1.
          1    1    1    2  501    0 -0.10673630866E+02 -0.18359571039E+02  0.38178169106E+02  0.43687215989E+02  0.00000000000E+00 0. -1.
</event>
<event>
 4    1  0.1560907E+006  0.2085452E+02  0.7546771E-02  0.1521352E+00
          3   -1    0    0  503    0 -0.00000000000E+00  0.00000000000E+00  0.55509546530E+02  0.55509546530E+02  0.00000000000E+00 0.  1.
         21   -1    0    0  501  502  0.00000000000E+00 -0.00000000000E+00 -0.11442103977E+04  0.11442103977E+04  0.00000000000E+00 0. -1.
         21    1    1    2  503  502 -0.20854149520E+02  0.12457364340E+00 -0.11421531237E+04  0.11423434987E+04  0.00000000000E+00 0. -1.
          3    1    1    2  501    0  0.20854149520E+02 -0.12457364340E+00  0.53452272489E+02  0.57376445560E+02  0.00000000000E+00 0.  1.
</event>
<event>
 4    1  0.1560907E+006  0.2897185E+02  0.7546771E-02  0.1428746E+00
         21   -1    0    0  503  502  0.00000000000E+00  0.00000000000E+00  0.18450985989E+03  0.18450985989E+03  0.00000000000E+00 0. -1.
          4   -1    0    0  502    0 -0.00000000000E+00 -0.00000000000E+00 -0.39368823809E+02  0.39368823809E+02  0.00000000000E+00 0. -1.
         21    1    1    2  503  501 -0.23123496603E+02 -0.17454854233E+02  0.17784393253E+03  0.18018832473E+03  0.00000000000E+00 0. -1.
          4    1    1    2  501    0  0.23123496603E+02  0.17454854233E+02 -0.32702896444E+02  0.43690358974E+02  0.00000000000E+00 0. -1.
</event>
<event>
 4    1  0.1560907E+006  0.2428846E+02  0.7546771E-02  0.1476923E+00
          3   -1    0    0  503    0 -0.00000000000E+00  0.00000000000E+00  0.49026218440E+02  0.49026218440E+02  0.00000000000E+00 0. -1.
         21   -1    0    0  501  502  0.00000000000E+00 -0.00000000000E+00 -0.35797375614E+03  0.35797375614E+03  0.00000000000E+00 0.  1.
         21    1    1    2  503  502  0.20294165061E+02  0.13344511121E+02 -0.35452429615E+03  0.35535532313E+03  0.00000000000E+00 0.  1.
          3    1    1    2  501    0 -0.20294165061E+02 -0.13344511121E+02  0.45576758453E+02  0.51644651452E+02  0.00000000000E+00 0. -1.
</event>
<event>
 4    1  0.1560907E+006  0.2276675E+02  0.7546771E-02  0.1495448E+00
         -1   -1    0    0    0  501 -0.00000000000E+00  0.00000000000E+00  0.85214459567E+02  0.85214459567E+02  0.00000000000E+00 0. -1.
         21   -1    0    0  501  502  0.00000000000E+00 -0.00000000000E+00 -0.24037002708E+02  0.24037002708E+02  0.00000000000E+00 0.  1.
         21    1    1    2  503  502  0.10382629450E+02  0.20261436698E+02 -0.16622215239E+02  0.28189055514E+02  0.00000000000E+00 0.  1.
         -1    1    1    2    0  503 -0.10382629450E+02 -0.20261436698E+02  0.77799672098E+02  0.81062406761E+02  0.00000000000E+00 0. -1.
</event>
<event>
 4    1  0.1560907E+006  0.2658051E+02  0.7546771E-02  0.1451868E+00
         21   -1    0    0  503  502  0.00000000000E+00  0.00000000000E+00  0.32379751059E+01  0.32379751059E+01  0.00000000000E+00 0. -1.
         -1   -1    0    0    0  501 -0.00000000000E+00 -0.00000000000E+00 -0.59458480417E+03  0.59458480417E+03  0.00000000000E+00 0.  1.
         21    1    1    2  503  501 -0.22643767409E+02 -0.13920613693E+02 -0.57851405662E+02  0.63665601584E+02  0.00000000000E+00 0. -1.
         -1    1    1    2    0  502  0.22643767409E+02  0.13920613693E+02 -0.53349542340E+03  0.53415717769E+03  0.00000000000E+00 0.  1.
</event>
<event>
 4    1  0.1560907E+006  0.2621090E+02  0.7546771E-02  0.1455700E+00
          2   -1    0    0  503    0 -0.00000000000E+00  0.00000000000E+00  0.10962061787E+04  0.10962061787E+04  0.00000000000E+00 0.  1.
         21   -1    0    0  501  502  0.00000000000E+00 -0.00000000000E+00 -0.16579145207E+03  0.16579145207E+03  0.00000000000E+00 0. -1.
         21    1    1    2  503  502 -0.21294406540E+02  0.15282660834E+02 -0.16459768618E+03  0.16667156256E+03  0.00000000000E+00 0. -1.
          2    1    1    2  501    0  0.21294406540E+02 -0.15282660834E+02  0.10950124128E+04  0.10953260682E+04  0.00000000000E+00 0.  1.
</event>
<event>
 4    1  0.1560907E+006  0.2421562E+02  0.7546771E-02  0.1477773E+00
         21   -1    0    0  503  502  0.00000000000E+00  0.00000000000E+00  0.20037385824E+03  0.20037385824E+03  0.00000000000E+00 0. -1.
         -3   -1    0    0    0  501 -0.00000000000E+00 -0.00000000000E+00 -0.14593358753E+02  0.14593358753E+02  0.00000000000E+00 0. -1.
         21    1    1    2  503  501  0.14143595823E+02  0.19655909836E+02  0.18899423408E+03  0.19053927839E+03  0.00000000000E+00 0. -1.
         -3    1    1    2    0  502 -0.14143595823E+02 -0.19655909836E+02 -0.32137345937E+01  0.24427938602E+02  0.00000000000E+00 0. -1.
</event>
<event>
 4    1  0.1560907E+006  0.2873472E+02  0.7546771E-02  0.1430920E+00
         21   -1    0    0  503  502  0.00000000000E+00  0.00000000000E+00  0.11374357472E+03  0.11374357472E+03  0.00000000000E+00 0. -1.
          2   -1    0    0  502    0 -0.00000000000E+00 -0.00000000000E+00 -0.16491901419E+03  0.16491901419E+03  0.00000000000E+00 0. -1.
         21    1    1    2  503  501 -0.18966387433E+02  0.21586111291E+02  0.11064262389E+03  0.11431305382E+03  0.00000000000E+00 0. -1.
          2    1    1    2  501    0  0.18966387433E+02 -0.21586111291E+02 -0.16181806336E+03  0.16434953509E+03  0.00000000000E+00 0. -1.
</event>
<event>
 4    1  0.1560907E+006  0.2154754E+02  0.7546771E-02  0.1511589E+00
          2   -1    0    0  503    0 -0.00000000000E+00  0.00000000000E+00  0.42238041581E+03  0.42238041581E+03  0.00000000000E+00 0.  1.
         21   -1    0    0  501  502  0.00000000000E+00 -0.00000000000E+00 -0.67780409017E+01  0.67780409017E+01  0.00000000000E+00 0.  1.
         21    1    1    2  503  502  0.18893292410E+02  0.10360498966E+02  0.11391004830E+02  0.24373170248E+02  0.00000000000E+00 0.  1.
          2    1    1    2  501    0 -0.18893292410E+02 -0.10360498966E+02  0.40421137008E+03  0.40478528646E+03  0.00000000000E+00 0.  1.
</event>
<event>
 4    1  0.1560907E+006  0.2639270E+02  0.7546771E-02  0.1453806E+00
         -1   -1    0    0    0  501 -0.00000000000E+00  0.00000000000E+00  0.30101968850E+03  0.30101968850E+03  0.00000000000E+00 0.  1.
         21   -1    0    0  503  502  0.00000000000E+00 -0.00000000000E+00 -0.35729906559E+01  0.35729906559E+01  0.00000000000E+00 0.  1.
         21    1    1    2  503  501 -0.81408221128E+01 -0.25105811448E+02  0.23912493966E+03  0.24057703863E+03  0.00000000000E+00 0.  1.
         -1    1    1    2    0  502  0.81408221128E+01  0.25105811448E+02  0.58321758192E+02  0.64015640524E+02  0.00000000000E+00 0.  1.
</event>
<event>
 4    1  0.1560907E+006  0.3556371E+02  0.7546771E-02  0.1376643E+00
         21   -1    0    0  501  502  0.00000000000E+00  0.00000000000E+00  0.16778064715E+02  0.16778064715E+02  0.00000000000E+00 0. -1.
          2   -1    0    0  503    0 -0.00000000000E+00 -0.00000000000E+00 -0.83342520129E+02  0.83342520129E+02  0.00000000000E+00 0.  1.
         21    1    1    2  503  502  0.29697531297E+02  0.19566147320E+02 -0.17811562634E+02  0.39774731294E+02  0.00000000000E+00 0. -1.
          2    1    1    2  501    0 -0.29697531297E+02 -0.19566147320E+02 -0.48752892780E+02  0.60345853549E+02  0.00000000000E+00 0.  1.
</event>
<event>
 4    1  0.1560907E+006  0.2368091E+02  0.7546771E-02  0.1484120E+00
         -2   -1    0    0    0  501 -0.00000000000E+00  0.00000000000E+00  0.30036743455E+03  0.30036743455E+03  0.00000000000E+00 0. -1.
         21   -1    0    0  503  502  0.00000000000E+00 -0.00000000000E+00 -0.45860555693E+01  0.45860555693E+01  0.00000000000E+00 0. -1.
         21    1    1    2  503  501  0.14311427986E+02 -0.18867128445E+02  0.30483922544E+02  0.38601231074E+02  0.00000000000E+00 0. -1.
         -2    1    1    2    0  502 -0.14311427986E+02  0.18867128445E+02  0.26529745644E+03  0.26635225904E+03  0.00000000000E+00 0. -1.
</event>
<event>
 4    1  0.1560907E+006  0.2902363E+02  0.7546771E-02  0.1428275E+00
          2   -1    0    0  502    0 -0.00000000000E+00  0.00000000000E+00  0.29141240692E+03  0.29141240692E+03  0.00000000000E+00 0. -1.
         21   -1    0    0  503  502  0.00000000000E+00 -0.00000000000E+00 -0.18806414809E+02  0.18806414809E+02  0.00000000000E+00 0. -1.
         21    1    1    2  503  501  0.20573128554E+02  0.20472361696E+02 -0.63887663889E+01  0.29718471493E+02  0.00000000000E+00 0. -1.
          2    1    1    2  501    0 -0.20573128554E+02 -0.20472361696E+02  0.27899475850E+03  0.28050035023E+03  0.00000000000E+00 0. -1.
</event>
<event>
 4    1  0.1560907E+006  0.3062249E+02  0.7546771E-02  0.1414263E+00
         21   -1    0    0  501  502  0.00000000000E+00  0.00000000000E+00  0.22502195790E+02  0.22502195790E+02  0.00000000000E+00 0. -1.
         -2   -1    0    0    0  501 -0.00000000000E+00 -0.00000000000E+00 -0.15750800409E+03  0.15750800409E+03  0.00000000000E+00 0. -1.
         21    1    1    2  503  502 -0.18499298508E+02  0.24403130206E+02  0.96825528589E+01  0.32116796836E+02  0.00000000000E+00 0. -1.
         -2    1    1    2    0  503  0.18499298508E+02 -0.24403130206E+02 -0.14468836115E+03  0.14789340304E+03  0.00000000000E+00 0. -1.
</event>
<event>
 4    1  0.1560907E+006  0.2140834E+02  0.7546771E-02  0.1513514E+00
         21   -1    0    0  501  502  0.00000000000E+00  0.00000000000E+00  0.48853567084E+02  0.48853567084E+02  0.00000000000E+00 0. -1.
         -1   -1    0    0    0  501 -0.00000000000E+00 -0.00000000000E+00 -0.11073839474E+02  0.11073839474E+02  0.00000000000E+00 0. -1.
         21    1    1    2  503  502  0.10923396184E+02 -0.18411854046E+02  0.30603653844E+02  0.37348367865E+02  0.00000000000E+00 0. -1.
         -1    1    1    2    0  503 -0.10923396184E+02  0.18411854046E+02  0.71760737656E+01  0.22579038693E+02  0.00000000000E+00 0. -1.
</event>
<event>
 4    1  0.1560907E+006  0.2964845E+02  0.7546771E-02  0.1422676E+00
          1   -1    0    0  502    0 -0.00000000000E+00  0.00000000000E+00  0.66080824587E+03  0.66080824587E+03  0.00000000000E+00 0. -1.
         21   -1    0    0  503  502  0.00000000000E+00 -0.00000000000E+00 -0.50322291551E+02  0.50322291551E+02  0.00000000000E+00 0.  1.
         21    1    1    2  503  501 -0.29487332729E+02 -0.30866789039E+01 -0.45591255006E+02  0.54383755949E+02  0.00000000000E+00 0.  1.
          1    1    1    2  501    0  0.29487332729E+02  0.30866789039E+01  0.65607720932E+03  0.65674678147E+03  0.00000000000E+00 0. -1.
</event>
<event>
 4    1  0.1560907E+006  0.3260046E+02  0.7546771E-02  0.1398266E+00
         21   -1    0    0  503  502  0.00000000000E+00  0.00000000000E+00  0.48507514353E+02  0.48507514353E+02  0.00000000000E+00 0. -1.
         -4   -1    0    0    0  501 -0.00000000000E+00 -0.00000000000E+00 -0.21914117776E+02  0.21914117776E+02  0.00000000000E+00 0. -1.
         21    1    1    2  503  501  0.39561870863E+00 -0.32598055681E+02  0.12802227417E+02  0.35024088499E+02  0.00000000000E+00 0. -1.
         -4    1    1    2    0  502 -0.39561870863E+00  0.32598055681E+02  0.13791169160E+02  0.35397543631E+02  0.00000000000E+00 0. -1.
</event>
<event>
 4    1  0.1560907E+006  0.2076927E+02  0.7546771E-02  0.1522585E+00
          1   -1    0    0  503    0 -0.00000000000E+00  0.00000000000E+00  0.35065360370E+03  0.35065360370E+03  0.00000000000E+00 0.  1.
         21   -1    0    0  501  502  0.00000000000E+00 -0.00000000000E+00 -0.34824450496E+01  0.34824450496E+01  0.00000000000E+00 0.  1.
         21    1    1    2  503  502  0.87459260564E+01  0.18838024726E+02  0.31185892750E+02  0.37468951210E+02  0.00000000000E+00 0.  1.
          1    1    1    2  501    0 -0.87459260564E+01 -0.18838024726E+02  0.31598526590E+03  0.31666709754E+03  0.00000000000E+00 0.  1.
</event>
<event>
 4    1  0.1560907E+006  0.3274249E+02  0.7546771E-02  0.1397169E+00
         -2   -1    0    0    0  501 -0.00000000000E+00  0.00000000000E+00  0.10292838926E+03  0.10292838926E+03  0.00000000000E+00 0.  1.
         21   -1    0    0  501  502  0.00000000000E+00 -0.00000000000E+00 -0.61463683364E+02  0.61463683364E+02  0.00000000000E+00 0.  1.
         21    1    1    2  503  502  0.20793914892E+01 -0.32676397905E+02 -0.54176111482E+02  0.63301831761E+02  0.00000000000E+00 0.  1.
         -2    1    1    2    0  503 -0.20793914892E+01  0.32676397905E+02  0.95640817375E+02  0.10109024086E+03  0.00000000000E+00 0.  1.
</event>
<event>
 4    1  0.1560907E+006  0.2412715E+02  0.7546771E-02  0.1478810E+00
         21   -1    0    0  501  502  0.00000000000E+00  0.00000000000E+00  0.35273368756E+03  0.35273368756E+03  0.00000000000E+00 0. -1.
          2   -1    0    0  503    0 -0.00000000000E+00 -0.00000000000E+00 -0.19078237166E+01  0.19078237166E+01  0.00000000000E+00 0.  1.
         21    1    1    2  503  502 -0.23363554318E+02 -0.60219198367E+01  0.11026623343E+03  0.11287498139E+03  0.00000000000E+00 0. -1.
          2    1    1    2  501    0  0.23363554318E+02  0.60219198367E+01  0.24055963042E+03  0.24176652989E+03  0.00000000000E+00 0.  1.
</event>
<event>
 4    1  0.1560907E+006  0.6067616E+02  0.7546771E-02  0.1257552E+00
         -3   -1    0    0    0  501 -0.00000000000E+00  0.00000000000E+00  0.22189265839E+03  0.22189265839E+03  0.00000000000E+00 0.  1.
         21   -1    0    0  501  502  0.00000000000E+00 -0.00000000000E+00 -0.31049812582E+02  0.31049812582E+02  0.00000000000E+00 0.  1.
         21    1    1    2  503  502  0.15176009541E+02 -0.58747638337E+02  0.91202443204E+01  0.61357763423E+02  0.00000000000E+00 0.  1.
         -3    1    1    2    0  503 -0.15176009541E+02  0.58747638337E+02  0.18172260149E+03  0.19158470755E+03  0.00000000000E+00 0.  1.
</event>
<event>
 4    1  0.1560907E+006  0.2831676E+02  0.7546771E-02  0.1434811E+00
         21   -1    0    0  503  502  0.00000000000E+00  0.00000000000E+00  0.26349725529E+03  0.26349725529E+03  0.00000000000E+00 0.  1.
         -1   -1    0    0    0  501 -0.00000000000E+00 -0.00000000000E+00 -0.31182972091E+01  0.31182972091E+01  0.00000000000E+00 0. -1.
         21    1    1    2  503  501  0.15679525399E+02  0.23579465800E+02  0.15089588260E+03  0.15352982156E+03  0.00000000000E+00 0.  1.
         -1    1    1    2    0  502 -0.15679525399E+02 -0.23579465800E+02  0.10948307549E+03  0.11308573094E+03  0.00000000000E+00 0. -1.
</event>
<event>
 4    1  0.1560907E+006  0.3305230E+02  0.7546771E-02  0.1394799E+00
          1   -1    0    0  503    0 -0.00000000000E+00  0.00000000000E+00  0.41846981181E+03  0.41846981181E+03  0.00000000000E+00 0. -1.
         21   -1    0    0  501  502  0.00000000000E+00 -0.00000000000E+00 -0.17941982801E+02  0.17941982801E+02  0.00000000000E+00 0.  1.
         21    1    1    2  503  502 -0.15119586195E+01  0.33017698683E+02 -0.14435757993E+01  0.33083808068E+02  0.00000000000E+00 0.  1.
          1    1    1    2  501    0  0.15119586195E+01 -0.33017698683E+02  0.40197140481E+03  0.40332798654E+03  0.00000000000E+00 0. -1.
</event>
<event>
 4    1  0.1560907E+006  0.3058989E+02  0.7546771E-02  0.1414538E+00
         21   -1    0    0  501  502  0.00000000000E+00  0.00000000000E+00  0.41932305699E+02  0.41932305699E+02  0.00000000000E+00 0. -1.
          4   -1    0    0  503    0 -0.00000000000E+00 -0.00000000000E+00 -0.37839199358E+02  0.37839199358E+02  0.00000000000E+00 0.  1.
         21    1    1    2  503  502  0.66291235612E+01  0.29862959817E+02  0.27593794210E+02  0.41196591207E+02  0.00000000000E+00 0. -1.
          4    1    1    2  501    0 -0.66291235612E+01 -0.29862959817E+02 -0.23500687868E+02  0.38574913849E+02  0.00000000000E+00 0.  1.
</event>
<event>
 4    1  0.1560907E+006  0.2438500E+02  0.7546771E-02  0.1475802E+00
          1   -1    0    0  503    0 -0.00000000000E+00  0.00000000000E+00  0.98391117391E+01  0.98391117391E+01  0.00000000000E+00 0. -1.
         21   -1    0    0  501  502  0.00000000000E+00 -0.00000000000E+00 -0.11866234267E+04  0.11866234267E+04  0.00000000000E+00 0. -1.
         21    1    1    2  503  502  0.10981850894E+02  0.21772163472E+02 -0.11711902914E+04  0.11714441202E+04  0.00000000000E+00 0. -1.
          1    1    1    2  501    0 -0.10981850894E+02 -0.21772163472E+02 -0.55940235921E+01  0.25018418240E+02  0.00000000000E+00 0. -1.
</event>
<event>
 4    1  0.1560907E+006  0.3604952E+02  0.7546771E-02  0.1373331E+00
         21   -1    0    0  503  502  0.00000000000E+00  0.00000000000E+00  0.17976742155E+02  0.17976742155E+02  0.00000000000E+00 0.  1.
         -2   -1    0    0    0  501 -0.00000000000E+00 -0.00000000000E+00 -0.44212135653E+03  0.44212135653E+03  0.00000000000E+00 0. -1.
         21    1    1    2  503  501  0.20242846583E+02 -0.29829431273E+02 -0.16699455492E+01  0.36088177094E+02  0.00000000000E+00 0.  1.
         -2    1    1    2    0  502 -0.20242846583E+02  0.29829431273E+02 -0.42247466883E+03  0.42400992160E+03  0.00000000000E+00 0. -1.
</event>
<event>
 4    1  0.1560907E+006  0.2100069E+02  0.7546771E-02  0.1519255E+00
         21   -1    0    0  501  502  0.00000000000E+00  0.00000000000E+00  0.23389902344E+02  0.23389902344E+02  0.00000000000E+00 0.  1.
          2   -1    0    0  503    0 -0.00000000000E+00 -0.00000000000E+00 -0.52588006598E+02  0.52588006598E+02  0.00000000000E+00 0. -1.
         21    1    1    2  503  502 -0.42857932612E+01 -0.20558718813E+02  0.15826475458E+02  0.26296506775E+02  0.00000000000E+00 0.  1.
          2    1    1    2  501    0  0.42857932612E+01  0.20558718813E+02 -0.45024579712E+02  0.49681402168E+02  0.00000000000E+00 0. -1.
</event>
<event>
 4    1  0.1560907E+006  0.5920777E+02  0.7546771E-02  0.1262548E+00
         21   -1    0    0  501  502  0.00000000000E+00  0.00000000000E+00  0.10902769214E+03  0.10902769214E+03  0.00000000000E+00 0. -1.
          1   -1    0    0  503    0 -0.00000000000E+00 -0.00000000000E+00 -0.19935137455E+03  0.19935137455E+03  0.00000000000E+00 0.  1.
         21    1    1    2  503  502 -0.58268892759E+02 -0.10502196421E+02  0.96046837841E+02  0.11282976138E+03  0.00000000000E+00 0. -1.
          1    1    1    2  501    0  0.58268892759E+02  0.10502196421E+02 -0.18637052024E+03  0.19554930532E+03  0.00000000000E+00 0.  1.
</event>
<event>
 4    1  0.1560907E+006  0.2976409E+02  0.7546771E-02  0.1421658E+00
          2   -1    0    0  503    0 -0.00000000000E+00  0.00000000000E+00  0.20477741104E+04  0.20477741104E+04  0.00000000000E+00 0. -1.
         21   -1    0    0  501  502  0.00000000000E+00 -0.00000000000E+00 -0.10130124020E+01  0.10130124020E+01  0.00000000000E+00 0. -1.
         21    1    1    2  503  502  0.28736476533E+02 -0.77534599100E+01  0.24798810844E+03  0.24976789856E+03  0.00000000000E+00 0. -1.
          2    1    1    2  501    0 -0.28736476533E+02  0.77534599100E+01  0.17987729896E+04  0.17990192242E+04  0.00000000000E+00 0. -1.
</event>
<event>
 4    1  0.1560907E+006  0.2312159E+02  0.7546771E-02  0.1490977E+00
          2   -1    0    0  503    0 -0.00000000000E+00  0.00000000000E+00  0.66684090859E+01  0.66684090859E+01  0.00000000000E+00 0.  1.
         21   -1    0    0  501  502  0.00000000000E+00 -0.00000000000E+00 -0.31531811347E+03  0.31531811347E+03  0.00000000000E+00 0.  1.
         21    1    1    2  503  502  0.20664661094E+02 -0.10372064233E+02 -0.29335333045E+03  0.29426312107E+03  0.00000000000E+00 0.  1.
          2    1    1    2  501    0 -0.20664661094E+02  0.10372064233E+02 -0.15296373937E+02  0.27723401491E+02  0.00000000000E+00 0.  1.
</event>
<event>
 4    1  0.1560907E+006  0.3183854E+02  0.7546771E-02  0.1404265E+00
          3   -1    0    0  503    0 -0.00000000000E+00  0.00000000000E+00  0.49697803034E+03  0.49697803034E+03  0.00000000000E+00 0. -1.
         21   -1    0    0  501  502  0.00000000000E+00 -0.00000000000E+00 -0.20432327771E+01  0.20432327771E+01  0.00000000000E+00 0.  1.
         21    1    1    2  503  502  0.29489031666E+02 -0.12003739275E+02  0.23711208203E+03  0.23924011409E+03  0.00000000000E+00 0.  1.
          3    1    1    2  501    0 -0.29489031666E+02  0.12003739275E+02  0.25782271554E+03  0.25978114903E+03  0.00000000000E+00 0. -1.
</event>
<event>
 4    1  0.1560907E+006  0.2071796E+02  0.7546771E-02  0.1523330E+00
         -4   -1    0    0    0  501 -0.00000000000E+00  0.00000000000E+00  0.96535508866E+01  0.96535508866E+01  0.00000000000E+00 0. -1.
         21   -1    0    0  503  502  0.00000000000E+00 -0.00000000000E+00 -0.32473679906E+03  0.32473679906E+03  0.00000000000E+00 0. -1.
         21    1    1    2  503  501  0.20717956782E+02  0.86332180736E-02 -0.31286921179E+03  0.31355442509E+03  0.00000000000E+00 0. -1.
         -4    1    1    2    0  502 -0.20717956782E+02 -0.86332180736E-02 -0.22140363904E+01  0.20835924863E+02  0.00000000000E+00 0. -1.
</event>
<event>
 4    1  0.1560907E+006  0.2057232E+02  0.7546771E-02  0.1525459E+00
         21   -1    0    0  501  502  0.00000000000E+00  0.00000000000E+00  0.75319350073E+01  0.75319350073E+01  0.00000000000E+00 0. -1.
          4   -1    0    0  503    0 -0.00000000000E+00 -0.00000000000E+00 -0.30197675615E+03  0.30197675615E+03  0.00000000000E+00 0. -1.
         21    1    1    2  503  502 -0.19064133732E+02  0.77316990318E+01 -0.76063999575E+01  0.21933483198E+02  0.00000000000E+00 0. -1.
          4    1    1    2  501    0  0.19064133732E+02 -0.77316990318E+01 -0.28683842119E+03  0.28757520796E+03  0.00000000000E+00 0. -1.
</event>
<event>
 4    1  0.1560907E+006  0.2986765E+02  0.7546771E-02  0.1420750E+00
         -4   -1    0    0    0  501 -0.00000000000E+00  0.00000000000E+00  0.10772986471E+03  0.10772986471E+03  0.00000000000E+00 0.  1.
         21   -1    0    0  503  502  0.00000000000E+00 -0.00000000000E+00 -0.85316665683E+01  0.85316665683E+01  0.00000000000E+00 0. -1.
         21    1    1    2  503  501  0.25279585984E+02  0.15906570581E+02  0.39628643646E+02  0.49623642071E+02  0.00000000000E+00 0. -1.
         -4    1    1    2    0  502 -0.25279585984E+02 -0.15906570581E+02  0.59569554492E+02  0.66637889204E+02  0.00000000000E+00 0.  1.
</event>
<event>
 4    1  0.1560907E+006  0.2137282E+02  0.7546771E-02  0.1514008E+00
         21   -1    0    0  501  502  0.00000000000E+00  0.00000000000E+00  0.42823845977E+03  0.42823845977E+03  0.00000000000E+00 0.  1.
         -1   -1    0    0    0  501 -0.00000000000E+00 -0.00000000000E+00 -0.10677666578E+03  0.10677666578E+03  0.00000000000E+00 0. -1.
         21    1    1    2  503  502 -0.19538652438E+02  0.86624747507E+01  0.42689891756E+03  0.42743360095E+03  0.00000000000E+00 0.  1.
         -1    1    1    2    0  503  0.19538652438E+02 -0.86624747507E+01 -0.10543712357E+03  0.10758152460E+03  0.00000000000E+00 0. -1.
</event>
<event>
 4    1  0.1560907E+006  0.2619351E+02  0.7546771E-02  0.1455882E+00
         21   -1    0    0  501  502  0.00000000000E+00  0.00000000000E+00  0.13155588842E+03  0.13155588842E+03  0.00000000000E+00 0. -1.
         -1   -1    0    0    0  501 -0.00000000000E+00 -0.00000000000E+00 -0.15961630040E+03  0.15961630040E+03  0.00000000000E+00 0.  1.
         21    1    1    2  503  502 -0.25871879262E+02  0.40921927174E+01  0.12915770891E+03  0.13178700220E+03  0.00000000000E+00 0. -1.
         -1    1    1    2    0  503  0.25871879262E+02 -0.40921927174E+01 -0.15721812089E+03  0.15938518662E+03  0.00000000000E+00 0.  1.
</event>
<event>
 4    1  0.1560907E+006  0.4419470E+02  0.7546771E-02  0.1325516E+00
         21   -1    0    0  501  502  0.00000000000E+00  0.00000000000E+00  0.46236343673E+02  0.46236343673E+02  0.00000000000E+00 0. -1.
          2   -1    0    0  503    0 -0.00000000000E+00 -0.00000000000E+00 -0.18241201771E+03  0.18241201771E+03  0.00000000000E+00 0.  1.
         21    1    1    2  503  502  0.29198848679E+02 -0.33175272728E+02  0.32128163510E+02  0.54638725967E+02  0.00000000000E+00 0. -1.
          2    1    1    2  501    0 -0.29198848679E+02  0.33175272728E+02 -0.16830383755E+03  0.17400963542E+03  0.00000000000E+00 0.  1.
</event>
<event>
 4    1  0.1560907E+006  0.2366526E+02  0.7546771E-02  0.1484309E+00
         21   -1    0    0  501  502  0.00000000000E+00  0.00000000000E+00  0.83004169116E+02  0.83004169116E+02  0.00000000000E+00 0. -1.
          3   -1    0    0  503    0 -0.00000000000E+00 -0.00000000000E+00 -0.16070401424E+03  0.16070401424E+03  0.00000000000E+00 0.  1.
         21    1    1    2  503  502  0.96870161253E+01 -0.21591810699E+02  0.80418707733E+02  0.83828474423E+02  0.00000000000E+00 0. -1.
          3    1    1    2  501    0 -0.96870161253E+01  0.21591810699E+02 -0.15811855286E+03  0.15987970893E+03  0.00000000000E+00 0.  1.
</event>
<event>
 4    1  0.1560907E+006  0.2002332E+02  0.7546771E-02  0.1533679E+00
          4   -1    0    0  502    0 -0.00000000000E+00  0.00000000000E+00  0.17251780781E+02  0.17251780781E+02  0.00000000000E+00 0.  1.
         21   -1    0    0  503  502  0.00000000000E+00 -0.00000000000E+00 -0.34111021385E+03  0.34111021385E+03  0.00000000000E+00 0.  1.
         21    1    1    2  503  501  0.16798257001E+02  0.10897341738E+02 -0.33489867319E+03  0.33549672845E+03  0.00000000000E+00 0.  1.
          4    1    1    2  501    0 -0.16798257001E+02 -0.10897341738E+02  0.11040240127E+02  0.22865266176E+02  0.00000000000E+00 0.  1.
</event>
<event>
 4    1  0.1560907E+006  0.2016850E+02  0.7546771E-02  0.1531475E+00
          1   -1    0    0  503    0 -0.00000000000E+00  0.00000000000E+00  0.21271218260E+02  0.21271218260E+02  0.00000000000E+00 0. -1.
         21   -1    0    0  501  502  0.00000000000E+00 -0.00000000000E+00 -0.30154329362E+02  0.30154329362E+02  0.00000000000E+00 0.  1.
         21    1    1    2  503  502 -0.70515393851E+01 -0.18895616991E+02 -0.19993650688E+02  0.28399200993E+02  0.00000000000E+00 0.  1.
          1    1    1    2  501    0  0.70515393851E+01  0.18895616991E+02  0.11110539587E+02  0.23026346629E+02  0.00000000000E+00 0. -1.
</event>
<event>
 4    1  0.1560907E+006  0.2024392E+02  0.7546771E-02  0.1530339E+00
         21   -1    0    0  501  502  0.00000000000E+00  0.00000000000E+00  0.22853222449E+03  0.22853222449E+03  0.00000000000E+00 0. -1.
          2   -1    0    0  503    0 -0.00000000000E+00 -0.00000000000E+00 -0.53897724020E+03  0.53897724020E+03  0.00000000000E+00 0.  1.
         21    1    1    2  503  502  0.12778049691E+02  0.15701525374E+02  0.22789328908E+03  0.22879066340E+03  0.00000000000E+00 0. -1.
          2    1    1    2  501    0 -0.12778049691E+02 -0.15701525374E+02 -0.53833830480E+03  0.53871880129E+03  0.00000000000E+00 0.  1.
</event>
<event>
 4    1  0.1560907E+006  0.2156821E+02  0.7546771E-02  0.1511305E+00
          4   -1    0    0  502    0 -0.00000000000E+00  0.00000000000E+00  0.13226416979E+03  0.13226416979E+03  0.00000000000E+00 0. -1.
         21   -1    0    0  503  502  0.00000000000E+00 -0.00000000000E+00 -0.90789164834E+01  0.90789164834E+01  0.00000000000E+00 0.  1.
         21    1    1    2  503  501 -0.10741864524E+02 -0.18702939404E+02  0.62785697414E+01  0.22463482228E+02  0.00000000000E+00 0.  1.
          4    1    1    2  501    0  0.10741864524E+02  0.18702939404E+02  0.11690668356E+03  0.11887960404E+03  0.00000000000E+00 0. -1.
</event>
<event>
 4    1  0.1560907E+006  0.3245658E+02  0.7546771E-02  0.1399384E+00
          1   -1    0    0  503    0 -0.00000000000E+00  0.00000000000E+00  0.12587572080E+03  0.12587572080E+03  0.00000000000E+00 0. -1.
         21   -1    0    0  501  502  0.00000000000E+00 -0.00000000000E+00 -0.21909242369E+02  0.21909242369E+02  0.00000000000E+00 0. -1.
         21    1    1    2  503  502 -0.29975215308E+02  0.12446516407E+02 -0.61069680348E+01  0.33026116363E+02  0.00000000000E+00 0. -1.
          1    1    1    2  501    0  0.29975215308E+02 -0.12446516407E+02  0.11007344646E+03  0.11475884681E+03  0.00000000000E+00 0. -1.
</event>
<event>
 4    1  0.1560907E+006  0.2674862E+02  0.7546771E-02  0.1450150E+00
          2   -1    0    0  502    0 -0.00000000000E+00  0.00000000000E+00  0.16034841481E+04  0.16034841481E+04  0.00000000000E+00 0. -1.
         21   -1    0    0  503  502  0.00000000000E+00 -0.00000000000E+00 -0.18978151661E+02  0.18978151661E+02  0.00000000000E+00 0. -1.
         21    1    1    2  503  501  0.26268427520E+02  0.50456367742E+01 -0.93847109312E+01  0.28347160953E+02  0.00000000000E+00 0. -1.
          2    1    1    2  501    0 -0.26268427520E+02 -0.50456367742E+01  0.15938907073E+04  0.15941151388E+04  0.00000000000E+00 0. -1.
</event>
<event>
 4    1  0.1560907E+006  0.2620573E+02  0.7546771E-02  0.1455754E+00
         -2   -1    0    0    0  501 -0.00000000000E+00  0.00000000000E+00  0.10016040846E+02  0.10016040846E+02  0.00000000000E+00 0.  1.
         21   -1    0    0  501  502  0.00000000000E+00 -0.00000000000E+00 -0.15046133538E+03  0.15046133538E+03  0.00000000000E+00 0.  1.
         21    1    1    2  503  502  0.25194910909E+02  0.72081085331E+01 -0.12942052078E+03  0.13204700513E+03  0.00000000000E+00 0.  1.
         -2    1    1    2    0  503 -0.25194910909E+02 -0.72081085331E+01 -0.11024773751E+02  0.28430371095E+02  0.00000000000E+00 0.  1.
</event>
<event>
 4    1  0.1560907E+006  0.2364957E+02  0.7546771E-02  0.1484499E+00
         -3   -1    0    0    0  501 -0.00000000000E+00  0.00000000000E+00  0.13745957887E+03  0.13745957887E+03  0.00000000000E+00 0. -1.
         21   -1    0    0  501  502  0.00000000000E+00 -0.00000000000E+00 -0.22843399797E+02  0.22843399797E+02  0.00000000000E+00 0.  1.
         21    1    1    2  503  502 -0.12483551389E+02  0.20086396360E+02 -0.15355357276E+02  0.28197329148E+02  0.00000000000E+00 0.  1.
         -3    1    1    2    0  503  0.12483551389E+02 -0.20086396360E+02  0.12997153635E+03  0.13210564952E+03  0.00000000000E+00 0. -1.
</event>
<event>
 4    1  0.1560907E+006  0.2176607E+02  0.7546771E-02  0.1508602E+00
         21   -1    0    0  503  502  0.00000000000E+00  0.00000000000E+00  0.23017832531E+02  0.23017832531E+02  0.00000000000E+00 0.  1.
          4   -1    0    0  502    0 -0.00000000000E+00 -0.00000000000E+00 -0.57351966936E+02  0.57351966936E+02  0.00000000000E+00 0.  1.
         21    1    1    2  503  501 -0.16637375275E+02  0.14034234394E+02  0.15009006711E+02  0.26439218474E+02  0.00000000000E+00 0.  1.
          4    1    1    2  501    0  0.16637375275E+02 -0.14034234394E+02 -0.49343141115E+02  0.53930580993E+02  0.00000000000E+00 0.  1.
</event>
<event>
 4    1  0.1560907E+006  0.2580355E+02  0.7546771E-02  0.1460012E+00
         21   -1    0    0  503  502  0.00000000000E+00  0.00000000000E+00  0.52189210982E+03  0.52189210982E+03  0.00000000000E+00 0. -1.
          1   -1    0    0  502    0 -0.00000000000E+00 -0.00000000000E+00 -0.99417084548E+01  0.99417084548E+01  0.00000000000E+00 0.  1.
         21    1    1    2  503  501 -0.13282929407E+01 -0.25769335608E+02  0.50424438876E+03  0.50490417568E+03  0.00000000000E+00 0. -1.
          1    1    1    2  501    0  0.13282929407E+01  0.25769335608E+02  0.77060125956E+01  0.26929642588E+02  0.00000000000E+00 0.  1.
</event>
<event>
 4    1  0.1560907E+006  0.2370181E+02  0.7546771E-02  0.1483869E+00
          2   -1    0    0  502    0 -0.00000000000E+00  0.00000000000E+00  0.69989813905E+01  0.69989813905E+01  0.00000000000E+00 0.  1.
         21   -1    0    0  503  502  0.00000000000E+00 -0.00000000000E+00 -0.62701616056E+03  0.62701616056E+03  0.00000000000E+00 0. -1.
         21    1    1    2  503  501 -0.11298122805E+02  0.20835741921E+02 -0.60603126770E+03  0.60649457800E+03  0.00000000000E+00 0. -1.
          2    1    1    2  501    0  0.11298122805E+02 -0.20835741921E+02 -0.13985911474E+02  0.27520563949E+02  0.00000000000E+00 0.  1.
</event>
<event>
 4    1  0.1560907E+006  0.2208259E+02  0.7546771E-02  0.1504351E+00
          2   -1    0    0  502    0 -0.00000000000E+00  0.00000000000E+00  0.11560046916E+04  0.11560046916E+04  0.00000000000E+00 0.  1.
         21   -1    0    0  503  502  0.00000000000E+00 -0.00000000000E+00 -0.24313820857E+01  0.24313820857E+01  0.00000000000E+00 0. -1.
         21    1    1    2  503  501  0.21957084418E+02 -0.23509990771E+01  0.50206125378E+02  0.54847933217E+02  0.00000000000E+00 0. -1.
          2    1    1    2  501    0 -0.21957084418E+02  0.23509990771E+01  0.11033671841E+04  0.11035881405E+04  0.00000000000E+00 0.  1.
</event>
<event>
 4    1  0.1560907E+006  0.2960055E+02  0.7546771E-02  0.1423100E+00
         21   -1    0    0  503  502  0.00000000000E+00  0.00000000000E+00  0.91736872010E+00  0.91736872010E+00  0.00000000000E+00 0. -1.
          1   -1    0    0  502    0 -0.00000000000E+00 -0.00000000000E+00 -0.14596445330E+04  0.14596445330E+04  0.00000000000E+00 0. -1.
         21    1    1    2  503  501 -0.27265342623E+02  0.11523616802E+02 -0.30001532578E+03  0.30147203577E+03  0.00000000000E+00 0. -1.
          1    1    1    2  501    0  0.27265342623E+02 -0.11523616802E+02 -0.11587118385E+04  0.11590898660E+04  0.00000000000E+00 0. -1.
</event>
<event>
 4    1  0.1560907E+006  0.2965991E+02  0.7546771E-02  0.1422575E+00
         -2   -1    0    0    0  501 -0.00000000000E+00  0.00000000000E+00  0.94376736047E+02  0.94376736047E+02  0.00000000000E+00 0. -1.
         21   -1    0    0  501  502  0.00000000000E+00 -0.00000000000E+00 -0.24704342374E+02  0.24704342374E+02  0.00000000000E+00 0. -1.
         21    1    1    2  503  502  0.13472069418E+02  0.26423733488E+02 -0.12147562131E+02  0.32051109366E+02  0.00000000000E+00 0. -1.
         -2    1    1    2    0  503 -0.13472069418E+02 -0.26423733488E+02  0.81819955805E+02  0.87029969055E+02  0.00000000000E+00 0. -1.
</event>
<event>
 4    1  0.1560907E+006  0.4991259E+02  0.7546771E-02  0.1298552E+00
          2   -1    0    0  502    0 -0.00000000000E+00  0.00000000000E+00  0.63811078348E+03  0.63811078348E+03  0.00000000000E+00 0.  1.
         21   -1    0    0  503  502  0.00000000000E+00 -0.00000000000E+00 -0.39663960815E+01  0.39663960815E+01  0.00000000000E+00 0.  1.
         21    1    1    2  503  501 -0.49478144893E+02 -0.65711100928E+01  0.35729674558E+03  0.36076617179E+03  0.00000000000E+00 0.  1.
          2    1    1    2  501    0  0.49478144893E+02  0.65711100928E+01  0.27684764182E+03  0.28131100777E+03  0.00000000000E+00 0.  1.
</event>
<event>
 4    1  0.1560907E+006  0.2344781E+02  0.7546771E-02  0.1486950E+00
          3   -1    0    0  502    0 -0.00000000000E+00  0.00000000000E+00  0.18542536336E+02  0.18542536336E+02  0.00000000000E+00 0. -1.
         21   -1    0    0  503  502  0.00000000000E+00 -0.00000000000E+00 -0.73172176328E+02  0.73172176328E+02  0.00000000000E+00 0. -1.
         21    1    1    2  503  501 -0.21263912077E+02 -0.98815816994E+01 -0.62680964848E+02  0.66923112360E+02  0.00000000000E+00 0. -1.
          3    1    1    2  501    0  0.21263912077E+02  0.98815816994E+01  0.80513248551E+01  0.24791600304E+02  0.00000000000E+00 0. -1.
</event>
<event>
 4    1  0.1560907E+006  0.2015305E+02  0.7546771E-02  0.1531709E+00
          4   -1    0    0  502    0 -0.00000000000E+00  0.00000000000E+00  0.10020220613E+02  0.10020220613E+02  0.00000000000E+00 0.  1.
         21   -1    0    0  503  502  0.00000000000E+00 -0.00000000000E+00 -0.18872813532E+03  0.18872813532E+03  0.00000000000E+00 0.  1.
         21    1    1    2  503  501 -0.14550281935E+02 -0.13943987010E+02 -0.17741276518E+03  0.17855373065E+03  0.00000000000E+00 0.  1.
          4    1    1    2  501    0  0.14550281935E+02  0.13943987010E+02 -0.12951495238E+01  0.20194625285E+02  0.00000000000E+00 0.  1.
</event>
<event>
 4    1  0.1560907E+006  0.2132679E+02  0.7546771E-02  0.1514650E+00
          1   -1    0    0  503    0 -0.00000000000E+00  0.00000000000E+00  0.17272987174E+03  0.17272987174E+03  0.00000000000E+00 0.  1.
         21   -1    0    0  501  502  0.00000000000E+00 -0.00000000000E+00 -0.53598215527E+01  0.53598215527E+01  0.00000000000E+00 0.  1.
         21    1    1    2  503  502  0.16742388229E+02 -0.13210764052E+02  0.20174418160E+02  0.29357094518E+02  0.00000000000E+00 0.  1.
          1    1    1    2  501    0 -0.16742388229E+02  0.13210764052E+02  0.14719563203E+03  0.14873259878E+03  0.00000000000E+00 0.  1.
</event>
<event>
 4    1  0.1560907E+006  0.2112696E+02  0.7546771E-02  0.1517460E+00
         -3   -1    0    0    0  501 -0.00000000000E+00  0.00000000000E+00  0.53896249543E+03  0.53896249543E+03  0.00000000000E+00 0. -1.
         21   -1    0    0  503  502  0.00000000000E+00 -0.00000000000E+00 -0.15891541619E+02  0.15891541619E+02  0.00000000000E+00 0. -1.
         21    1    1    2  503  501 -0.19774016045E+02 -0.74388544422E+01 -0.85659945324E+01  0.22797467585E+02  0.00000000000E+00 0. -1.
         -3    1    1    2    0  502  0.19774016045E+02  0.74388544422E+01  0.53163694834E+03  0.53205656946E+03  0.00000000000E+00 0. -1.
</event>
<event>
 4    1  0.1560907E+006  0.2213039E+02  0.7546771E-02  0.1503716E+00
         -3   -1    0    0    0  501 -0.00000000000E+00  0.00000000000E+00  0.10602657169E+03  0.10602657169E+03  0.00000000000E+00 0.  1.
         21   -1    0    0  503  502  0.00000000000E+00 -0.00000000000E+00 -0.45881268057E+02  0.45881268057E+02  0.00000000000E+00 0. -1.
         21    1    1    2  503  501 -0.19609186649E+02  0.10258364948E+02 -0.41956477400E+02  0.47435221600E+02  0.00000000000E+00 0. -1.
         -3    1    1    2    0  502  0.19609186649E+02 -0.10258364948E+02  0.10210178103E+03  0.10447261814E+03  0.00000000000E+00 0.  1.
</event>
<event>
 4    1  0.1560907E+006  0.2715294E+02  0.7546771E-02  0.1446078E+00
         21   -1    0    0  503  502  0.00000000000E+00  0.00000000000E+00  0.65473448049E+01  0.65473448049E+01  0.00000000000E+00 0.  1.
         -4   -1    0    0    0  501 -0.00000000000E+00 -0.00000000000E+00 -0.13700545153E+03  0.13700545153E+03  0.00000000000E+00 0.  1.
         21    1    1    2  503  501  0.15804088475E+02  0.22079693091E+02 -0.34939923570E+02  0.44250201340E+02  0.00000000000E+00 0.  1.
         -4    1    1    2    0  502 -0.15804088475E+02 -0.22079693091E+02 -0.95518183160E+02  0.99302595000E+02  0.00000000000E+00 0.  1.
</event>
<event>
 4    1  0.1560907E+006  0.2416605E+02  0.7546771E-02  0.1478353E+00
         21   -1    0    0  503  502  0.00000000000E+00  0.00000000000E+00  0.31519733562E+02  0.31519733562E+02  0.00000000000E+00 0. -1.
         -1   -1    0    0    0  501 -0.00000000000E+00 -0.00000000000E+00 -0.53715681033E+02  0.53715681033E+02  0.00000000000E+00 0. -1.
         21    1    1    2  503  501 -0.10204448166E+02 -0.21905874370E+02  0.23395328218E+02  0.33635390242E+02  0.00000000000E+00 0. -1.
         -1    1    1    2    0  502  0.10204448166E+02  0.21905874370E+02 -0.45591275688E+02  0.51600024353E+02  0.00000000000E+00 0. -1.
</event>
<event>
 4    1  0.1560907E+006  0.2365158E+02  0.7546771E-02  0.1484474E+00
         21   -1    0    0  503  502  0.00000000000E+00  0.00000000000E+00  0.75013602492E+02  0.75013602492E+02  0.00000000000E+00 0. -1.
         -2   -1    0    0    0  501 -0.00000000000E+00 -0.00000000000E+00 -0.75194400738E+01  0.75194400738E+01  0.00000000000E+00 0. -1.
         21    1    1    2  503  501  0.19954003609E+02  0.12697841296E+02  0.29995096537E+02  0.38198210035E+02  0.00000000000E+00 0. -1.
         -2    1    1    2    0  502 -0.19954003609E+02 -0.12697841296E+02  0.37499065881E+02  0.44334832531E+02  0.00000000000E+00 0. -1.
</event>
<event>
 4    1  0.1560907E+006  0.2535848E+02  0.7546771E-02  0.1464833E+00
         21   -1    0    0  503  502  0.00000000000E+00  0.00000000000E+00  0.10055876088E+04  0.10055876088E+04  0.00000000000E+00 0.  1.
         -2   -1    0    0    0  501 -0.00000000000E+00 -0.00000000000E+00 -0.24895500029E+01  0.24895500029E+01  0.00000000000E+00 0.  1.
         21    1    1    2  503  501 -0.21114827919E+02  0.14043384202E+02  0.93605675126E+03  0.93640017843E+03  0.00000000000E+00 0.  1.
         -2    1    1    2    0  502  0.21114827919E+02 -0.14043384202E+02  0.67041307521E+02  0.71676980350E+02  0.00000000000E+00 0.  1.
</event>
<event>
 4    1  0.1560907E+006  0.2282214E+02  0.7546771E-02  0.1494744E+00
         -1   -1    0    0    0  501 -0.00000000000E+00  0.00000000000E+00  0.95544875187E+01  0.95544875187E+01  0.00000000000E+00 0.  1.
         21   -1    0    0  503  502  0.00000000000E+00 -0.00000000000E+00 -0.11334578366E+03  0.11334578366E+03  0.00000000000E+00 0.  1.
         21    1    1    2  503  501 -0.10464886093E+02 -0.20281422649E+02 -0.96167478356E+02  0.98838422887E+02  0.00000000000E+00 0.  1.
         -1    1    1    2    0  502  0.10464886093E+02  0.20281422649E+02 -0.76238177870E+01  0.24061848293E+02  0.00000000000E+00 0.  1.
</event>
<event>
 4    1  0.1560907E+006  0.2227660E+02  0.7546771E-02  0.1501787E+00
         21   -1    0    0  503  502  0.00000000000E+00  0.00000000000E+00  0.84117393214E+03  0.84117393214E+03  0.00000000000E+00 0. -1.
         -1   -1    0    0    0  501 -0.00000000000E+00 -0.00000000000E+00 -0.79370501183E+00  0.79370501183E+00  0.00000000000E+00 0. -1.
         21    1    1    2  503  501 -0.21751934496E+02 -0.48062748394E+01  0.63349194761E+03  0.63388350241E+03  0.00000000000E+00 0. -1.
         -1    1    1    2    0  502  0.21751934496E+02  0.48062748394E+01  0.20688827952E+03  0.20808413475E+03  0.00000000000E+00 0. -1.
</event>
<event>
 4    1  0.1560907E+006  0.2731198E+02  0.7546771E-02  0.1444499E+00
          2   -1    0    0  503    0 -0.00000000000E+00  0.00000000000E+00  0.61758477686E+02  0.61758477686E+02  0.00000000000E+00 0. -1.
         21   -1    0    0  501  502  0.00000000000E+00 -0.00000000000E+00 -0.13009110953E+02  0.13009110953E+02  0.00000000000E+00 0.  1.
         21    1    1    2  503  502 -0.11733230840E+01  0.27286768138E+02  0.14375513676E+02  0.30864215460E+02  0.00000000000E+00 0.  1.
          2    1    1    2  501    0  0.11733230840E+01 -0.27286768138E+02  0.34373853057E+02  0.43903373179E+02  0.00000000000E+00 0. -1.
</event>
<event>
 4    1  0.1560907E+006  0.2241759E+02  0.7546771E-02  0.1499944E+00
         21   -1    0    0  501  502  0.00000000000E+00  0.00000000000E+00  0.43914764235E+01  0.43914764235E+01  0.00000000000E+00 0. -1.
         -3   -1    0    0    0  501 -0.00000000000E+00 -0.00000000000E+00 -0.16866647081E+03  0.16866647081E+03  0.00000000000E+00 0.  1.
         21    1    1    2  503  502  0.20360720438E+02 -0.93802618902E+01 -0.33073370827E+02  0.39954925951E+02  0.00000000000E+00 0. -1.
         -3    1    1    2    0  503 -0.20360720438E+02  0.93802618902E+01 -0.13120162356E+03  0.13310302129E+03  0.00000000000E+00 0.  1.
</event>
<event>
 4    1  0.1560907E+006  0.3378579E+02  0.7546771E-02  0.1389306E+00
          4   -1    0    0  502    0 -0.00000000000E+00  0.00000000000E+00  0.81737566322E+02  0.81737566322E+02  0.00000000000E+00 0.  1.
         21   -1    0    0  503  502  0.00000000000E+00 -0.00000000000E+00 -0.24335670826E+03  0.24335670826E+03  0.00000000000E+00 0.  1.
         21    1    1    2  503  501  0.17351001420E+02 -0.28990037517E+02 -0.23862387159E+03  0.24100380001E+03  0.00000000000E+00 0.  1.
          4    1    1    2  501    0 -0.17351001420E+02  0.28990037517E+02  0.77004729651E+02  0.84090474574E+02  0.00000000000E+00 0.  1.
</event>
<event>
 4    1  0.1560907E+006  0.2187274E+02  0.7546771E-02  0.1507160E+00
         21   -1    0    0  501  502  0.00000000000E+00  0.00000000000E+00  0.93913046479E+02  0.93913046479E+02  0.00000000000E+00 0. -1.
          4   -1    0    0  503    0 -0.00000000000E+00 -0.00000000000E+00 -0.60405623535E+01  0.60405623535E+01  0.00000000000E+00 0. -1.
         21    1    1    2  503  502  0.75161264196E+01  0.20540807317E+02  0.63717145030E+02  0.67366842678E+02  0.00000000000E+00 0. -1.
          4    1    1    2  501    0 -0.75161264196E+01 -0.20540807317E+02  0.24155339096E+02  0.32586766155E+02  0.00000000000E+00 0. -1.
</event>
<event>
 4    1  0.1560907E+006  0.3473146E+02  0.7546771E-02  0.1382461E+00
         21   -1    0    0  503  502  0.00000000000E+00  0.00000000000E+00  0.63396154915E+02  0.63396154915E+02  0.00000000000E+00 0. -1.
         -3   -1    0    0    0  501 -0.00000000000E+00 -0.00000000000E+00 -0.12756961331E+03  0.12756961331E+03  0.00000000000E+00 0. -1.
         21    1    1    2  503  501  0.12175162781E+02 -0.32527522978E+02  0.55987919441E+02  0.65885669634E+02  0.00000000000E+00 0. -1.
         -3    1    1    2    0  502 -0.12175162781E+02  0.32527522978E+02 -0.12016137784E+03  0.12508009859E+03  0.00000000000E+00 0. -1.
</event>
<event>
 4    1  0.1560907E+006  0.2585812E+02  0.7546771E-02  0.1459428E+00
         21   -1    0    0  501  502  0.00000000000E+00  0.00000000000E+00  0.76965508334E+00  0.76965508334E+00  0.00000000000E+00 0.  1.
          2   -1    0    0  503    0 -0.00000000000E+00 -0.00000000000E+00 -0.86877389121E+03  0.86877389121E+03  0.00000000000E+00 0.  1.
         21    1    1    2  503  502 -0.23204773248E+02 -0.11409676957E+02 -0.43201186505E+03  0.43278504338E+03  0.00000000000E+00 0.  1.
          2    1    1    2  501    0  0.23204773248E+02  0.11409676957E+02 -0.43599237108E+03  0.43675850292E+03  0.00000000000E+00 0.  1.
</event>
<event>
 4    1  0.1560907E+006  0.2174069E+02  0.7546771E-02  0.1508947E+00
         21   -1    0    0  503  502  0.00000000000E+00  0.00000000000E+00  0.81593355306E+02  0.81593355306E+02  0.00000000000E+00 0. -1.
          2   -1    0    0  502    0 -0.00000000000E+00 -0.00000000000E+00 -0.17438938575E+02  0.17438938575E+02  0.00000000000E+00 0. -1.
         21    1    1    2  503  501 -0.21730728772E+02 -0.65819037654E+00  0.72541964521E+02  0.75729745834E+02  0.00000000000E+00 0. -1.
          2    1    1    2  501    0  0.21730728772E+02  0.65819037654E+00 -0.83875477898E+01  0.23302548046E+02  0.00000000000E+00 0. -1.
</event>
<event>
 4    1  0.1560907E+006  0.3301484E+02  0.7546771E-02  0.1395084E+00
         21   -1    0    0  501  502  0.00000000000E+00  0.00000000000E+00  0.21112866965E+02  0.21112866965E+02  0.00000000000E+00 0.  1.
          4   -1    0    0  503    0 -0.00000000000E+00 -0.00000000000E+00 -0.63721419762E+02  0.63721419762E+02  0.00000000000E+00 0.  1.
         21    1    1    2  503  502  0.31276263205E+02 -0.10572376862E+02 -0.39784332317E+02  0.51698867401E+02  0.00000000000E+00 0.  1.
          4    1    1    2  501    0 -0.31276263205E+02  0.10572376862E+02 -0.28242204801E+01  0.33135419326E+02  0.00000000000E+00 0.  1.
</event>
<event>
 4    1  0.1560907E+006  0.2335213E+02  0.7546771E-02  0.1488123E+00
         21   -1    0    0  501  502  0.00000000000E+00  0.00000000000E+00  0.13200403020E+03  0.13200403020E+03  0.00000000000E+00 0. -1.
          1   -1    0    0  503    0 -0.00000000000E+00 -0.00000000000E+00 -0.63322562460E+01  0.63322562460E+01  0.00000000000E+00 0. -1.
         21    1    1    2  503  502  0.10129163631E+02 -0.21040956611E+02  0.10361636773E+03  0.10621522241E+03  0.00000000000E+00 0. -1.
          1    1    1    2  501    0 -0.10129163631E+02  0.21040956611E+02  0.22055406231E+02  0.32121064039E+02  0.00000000000E+00 0. -1.
</event>
<event>
 4    1  0.1560907E+006  0.2705750E+02  0.7546771E-02  0.1447031E+00
          3   -1    0    0  503    0 -0.00000000000E+00  0.00000000000E+00  0.15764723980E+03  0.15764723980E+03  0.00000000000E+00 0.  1.
         21   -1    0    0  501  502  0.00000000000E+00 -0.00000000000E+00 -0.68622319796E+01  0.68622319796E+01  0.00000000000E+00 0. -1.
         21    1    1    2  503  502 -0.25626102500E+02  0.86839512822E+01  0.28625968302E+02  0.39389772790E+02  0.00000000000E+00 0. -1.
          3    1    1    2  501    0  0.25626102500E+02 -0.86839512822E+01  0.12215903952E+03  0.12511969899E+03  0.00000000000E+00 0.  1.
</event>
<event>
 4    1  0.1560907E+006  0.3775997E+02  0.7546771E-02  0.1362137E+00
         -2   -1    0    0    0  501 -0.00000000000E+00  0.00000000000E+00  0.99027376775E+03  0.99027376775E+03  0.00000000000E+00 0.  1.
         21   -1    0    0  503  502  0.00000000000E+00 -0.00000000000E+00 -0.18953186428E+01  0.18953186428E+01  0.00000000000E+00 0.  1.
         21    1    1    2  503  501 -0.14342922216E+02 -0.34929871557E+02  0.25099210537E+03  0.25381657216E+03  0.00000000000E+00 0.  1.
         -2    1    1    2    0  502  0.14342922216E+02  0.34929871557E+02  0.73738634374E+03  0.73835251424E+03  0.00000000000E+00 0.  1.
</event>
<event>
 4    1  0.1560907E+006  0.2183111E+02  0.7546771E-02  0.1507722E+00
         21   -1    0    0  503  502  0.00000000000E+00  0.00000000000E+00  0.34508457715E+02  0.34508457715E+02  0.00000000000E+00 0.  1.
          1   -1    0    0  502    0 -0.00000000000E+00 -0.00000000000E+00 -0.15860560330E+03  0.15860560330E+03  0.00000000000E+00 0.  1.
         21    1    1    2  503  501 -0.21185373666E+02  0.52704070511E+01  0.30208736660E+02  0.37271504108E+02  0.00000000000E+00 0.  1.
          1    1    1    2  501    0  0.21185373666E+02 -0.52704070511E+01 -0.15430588225E+03  0.15584255691E+03  0.00000000000E+00 0.  1.
</event>
<event>
 4    1  0.1560907E+006  0.2632599E+02  0.7546771E-02  0.1454499E+00
         21   -1    0    0  501  502  0.00000000000E+00  0.00000000000E+00  0.17626154638E+01  0.17626154638E+01  0.00000000000E+00 0.  1.
         -4   -1    0    0    0  501 -0.00000000000E+00 -0.00000000000E+00 -0.11724762997E+04  0.11724762997E+04  0.00000000000E+00 0.  1.
         21    1    1    2  503  502 -0.24504227094E+01 -0.26211703474E+02 -0.10670409550E+03  0.10990369406E+03  0.00000000000E+00 0.  1.
         -4    1    1    2    0  503  0.24504227094E+01  0.26211703474E+02 -0.10640095887E+04  0.10643352211E+04  0.00000000000E+00 0.  1.
</event>
<event>
 4    1  0.1560907E+006  0.2012661E+02  0.7546771E-02  0.1532109E+00
         21   -1    0    0  503  502  0.00000000000E+00  0.00000000000E+00  0.80162941880E+01  0.80162941880E+01  0.00000000000E+00 0. -1.
         -3   -1    0    0    0  501 -0.00000000000E+00 -0.00000000000E+00 -0.84032396938E+02  0.84032396938E+02  0.00000000000E+00 0. -1.
         21    1    1    2  503  501  0.20050495519E+02 -0.17487027691E+01 -0.89485303922E+01  0.22026269046E+02  0.00000000000E+00 0. -1.
         -3    1    1    2    0  502 -0.20050495519E+02  0.17487027691E+01 -0.67067572358E+02  0.70022422080E+02  0.00000000000E+00 0. -1.
</event>
<event>
 4    1  0.1560907E+006  0.3420401E+02  0.7546771E-02  0.1386247E+00
         -2   -1    0    0    0  501 -0.00000000000E+00  0.00000000000E+00  0.97061337603E+02  0.97061337603E+02  0.00000000000E+00 0.  1.
         21   -1    0    0  501  502  0.00000000000E+00 -0.00000000000E+00 -0.10763436843E+03  0.10763436843E+03  0.00000000000E+00 0.  1.
         21    1    1    2  503  502 -0.30204521491E+02 -0.16049950832E+02 -0.10173359586E+03  0.10732957918E+03  0.00000000000E+00 0.  1.
         -2    1    1    2    0  503  0.30204521491E+02  0.16049950832E+02  0.91160565036E+02  0.97366126851E+02  0.00000000000E+00 0.  1.
</event>
<event>
 4    1  0.1560907E+006  0.2273560E+02  0.7546771E-02  0.1495845E+00
         21   -1    0    0  503  502  0.00000000000E+00  0.00000000000E+00  0.18198757894E+03  0.18198757894E+03  0.00000000000E+00 0. -1.
         -1   -1    0    0    0  501 -0.00000000000E+00 -0.00000000000E+00 -0.18991298241E+02  0.18991298241E+02  0.00000000000E+00 0.  1.
         21    1    1    2  503  501 -0.12921483072E+02 -0.18706762021E+02  0.17416878006E+03  0.17564643924E+03  0.00000000000E+00 0. -1.
         -1    1    1    2    0  502  0.12921483072E+02  0.18706762021E+02 -0.11172499360E+02  0.25332437941E+02  0.00000000000E+00 0.  1.
</event>
<event>
 4    1  0.1560907E+006  0.5491550E+02  0.7546771E-02  0.1278160E+00
         21   -1    0    0  501  502  0.00000000000E+00  0.00000000000E+00  0.41952507651E+02  0.41952507651E+02  0.00000000000E+00 0.  1.
          1   -1    0    0  503    0 -0.00000000000E+00 -0.00000000000E+00 -0.67407014465E+03  0.67407014465E+03  0.00000000000E+00 0. -1.
         21    1    1    2  503  502 -0.40901550340E+02  0.36643892725E+02  0.22325025787E+02  0.59280000596E+02  0.00000000000E+00 0.  1.
          1    1    1    2  501    0  0.40901550340E+02 -0.36643892725E+02 -0.65444266279E+03  0.65674265171E+03  0.00000000000E+00 0. -1.
</event>
<event>
 4    1  0.1560907E+006  0.3980315E+02  0.7546771E-02  0.1349643E+00
         21   -1    0    0  503  502  0.00000000000E+00  0.00000000000E+00  0.54979417461E+03  0.54979417461E+03  0.00000000000E+00 0.  1.
          2   -1    0    0  502    0 -0.00000000000E+00 -0.00000000000E+00 -0.57658389557E+02  0.57658389557E+02  0.00000000000E+00 0.  1.
         21    1    1    2  503  501  0.22029115327E+02  0.33151302898E+02  0.54210719971E+03  0.54356646952E+03  0.00000000000E+00 0.  1.
          2    1    1    2  501    0 -0.22029115327E+02 -0.33151302898E+02 -0.49971414661E+02  0.63886094646E+02  0.00000000000E+00 0.  1.
</event>
<event>
 4    1  0.1560907E+006  0.8752928E+02  0.7546771E-02  0.1187370E+00
         -1   -1    0    0    0  501 -0.00000000000E+00  0.00000000000E+00  0.43737976798E+03  0.43737976798E+03  0.00000000000E+00 0. -1.
         21   -1    0    0  501  502  0.00000000000E+00 -0.00000000000E+00 -0.48114551790E+02  0.48114551790E+02  0.00000000000E+00 0. -1.
         21    1    1    2  503  502  0.66078446294E+02 -0.57402207899E+02  0.10516518236E+01  0.87535595662E+02  0.00000000000E+00 0. -1.
         -1    1    1    2    0  503 -0.66078446294E+02  0.57402207899E+02  0.38821356437E+03  0.39795872411E+03  0.00000000000E+00 0. -1.
</event>
<event>
 4    1  0.1560907E+006  0.2354094E+02  0.7546771E-02  0.1485815E+00
         21   -1    0    0  501  502  0.00000000000E+00  0.00000000000E+00  0.27363913906E+01  0.27363913906E+01  0.00000000000E+00 0.  1.
          1   -1    0    0  503    0 -0.00000000000E+00 -0.00000000000E+00 -0.39194533561E+03  0.39194533561E+03  0.00000000000E+00 0. -1.
         21    1    1    2  503  502 -0.22120755538E+02  0.80528164421E+01 -0.57414427572E+02  0.62053139902E+02  0.00000000000E+00 0.  1.
          1    1    1    2  501    0  0.22120755538E+02 -0.80528164421E+01 -0.33179451665E+03  0.33262858710E+03  0.00000000000E+00 0. -1.
</event>
<event>
 4    1  0.1560907E+006  0.4061617E+02  0.7546771E-02  0.1344912E+00
         21   -1    0    0  501  502  0.00000000000E+00  0.00000000000E+00  0.16863510049E+02  0.16863510049E+02  0.00000000000E+00 0.  1.
         -3   -1    0    0    0  501 -0.00000000000E+00 -0.00000000000E+00 -0.10354182507E+03  0.10354182507E+03  0.00000000000E+00 0. -1.
         21    1    1    2  503  502 -0.25924095300E+02 -0.31266824855E+02 -0.29193118007E+02  0.50019108275E+02  0.00000000000E+00 0.  1.
         -3    1    1    2    0  503  0.25924095300E+02  0.31266824855E+02 -0.57485197011E+02  0.70386226842E+02  0.00000000000E+00 0. -1.
</event>
<event>
 4    1  0.1560907E+006  0.3584268E+02  0.7546771E-02  0.1374734E+00
         21   -1    0    0  501  502  0.00000000000E+00  0.00000000000E+00  0.17556297865E+02  0.17556297865E+02  0.00000000000E+00 0.  1.
          2   -1    0    0  503    0 -0.00000000000E+00 -0.00000000000E+00 -0.29316090230E+03  0.29316090230E+03  0.00000000000E+00 0. -1.
         21    1    1    2  503  502 -0.28023203063E+01 -0.35732963011E+02 -0.32228286266E+01  0.35987279266E+02  0.00000000000E+00 0.  1.
          2    1    1    2  501    0  0.28023203063E+01  0.35732963011E+02 -0.27238177580E+03  0.27472992090E+03  0.00000000000E+00 0. -1.
</event>
<event>
 4    1  0.1560907E+006  0.2835852E+02  0.7546771E-02  0.1434419E+00
         21   -1    0    0  501  502  0.00000000000E+00  0.00000000000E+00  0.35340727271E+02  0.35340727271E+02  0.00000000000E+00 0.  1.
          2   -1    0    0  503    0 -0.00000000000E+00 -0.00000000000E+00 -0.32830645554E+02  0.32830645554E+02  0.00000000000E+00 0. -1.
         21    1    1    2  503  502  0.24495711152E+02  0.14288649855E+02  0.20137224979E+02  0.34780931692E+02  0.00000000000E+00 0.  1.
          2    1    1    2  501    0 -0.24495711152E+02 -0.14288649855E+02 -0.17627143262E+02  0.33390441134E+02  0.00000000000E+00 0. -1.
</event>
<event>
 4    1  0.1560907E+006  0.2013315E+02  0.7546771E-02  0.1532010E+00
         21   -1    0    0  503  502  0.00000000000E+00  0.00000000000E+00  0.32235883922E+03  0.32235883922E+03  0.00000000000E+00 0. -1.
         -1   -1    0    0    0  501 -0.00000000000E+00 -0.00000000000E+00 -0.31061394917E+02  0.31061394917E+02  0.00000000000E+00 0.  1.
         21    1    1    2  503  501  0.48741535739E+00 -0.20127247496E+02  0.31874509157E+03  0.31938030162E+03  0.00000000000E+00 0. -1.
         -1    1    1    2    0  502 -0.48741535739E+00  0.20127247496E+02 -0.27447647263E+02  0.34039932517E+02  0.00000000000E+00 0.  1.
</event>
<event>
 4    1  0.1560907E+006  0.2801912E+02  0.7546771E-02  0.1437631E+00
         21   -1    0    0  501  502  0.00000000000E+00  0.00000000000E+00  0.15399038279E+03  0.15399038279E+03  0.00000000000E+00 0.  1.
         -1   -1    0    0    0  501 -0.00000000000E+00 -0.00000000000E+00 -0.54591255639E+01  0.54591255639E+01  0.00000000000E+00 0.  1.
         21    1    1    2  503  502 -0.22582574061E+02 -0.16586098849E+02  0.94765447050E+02  0.98820854483E+02  0.00000000000E+00 0.  1.
         -1    1    1    2    0  503  0.22582574061E+02  0.16586098849E+02  0.53765810175E+02  0.60628653869E+02  0.00000000000E+00 0.  1.
</event>
<event>
 4    1  0.1560907E+006  0.2322698E+02  0.7546771E-02  0.1489667E+00
         -4   -1    0    0    0  501 -0.00000000000E+00  0.00000000000E+00  0.56059861844E+01  0.56059861844E+01  0.00000000000E+00 0.  1.
         21   -1    0    0  503  502  0.00000000000E+00 -0.00000000000E+00 -0.15918343889E+03  0.15918343889E+03  0.00000000000E+00 0.  1.
         21    1    1    2  503  501 -0.20764301695E+02  0.10408481814E+02 -0.12860217399E+03  0.13068286756E+03  0.00000000000E+00 0.  1.
         -4    1    1    2    0  502  0.20764301695E+02 -0.10408481814E+02 -0.24975278712E+02  0.34106557512E+02  0.00000000000E+00 0.  1.
</event>
<event>
 4    1  0.1560907E+006  0.2033515E+02  0.7546771E-02  0.1528973E+00
         21   -1    0    0  503  502  0.00000000000E+00  0.00000000000E+00  0.40522291474E+00  0.40522291474E+00  0.00000000000E+00 0. -1.
          2   -1    0    0  502    0 -0.00000000000E+00 -0.00000000000E+00 -0.13409669895E+04  0.13409669895E+04  0.00000000000E+00 0.  1.
         21    1    1    2  503  501  0.10533437975E+02 -0.17394393250E+02 -0.34239586951E+03  0.34299919780E+03  0.00000000000E+00 0. -1.
          2    1    1    2  501    0 -0.10533437975E+02  0.17394393250E+02 -0.99816589705E+03  0.99837301459E+03  0.00000000000E+00 0.  1.
</event>
<event>
 4    1  0.1560907E+006  0.2930160E+02  0.7546771E-02  0.1425764E+00
          1   -1    0    0  503    0 -0.00000000000E+00  0.00000000000E+00  0.94189296933E+01  0.94189296933E+01  0.00000000000E+00 0. -1.
         21   -1    0    0  501  502  0.00000000000E+00 -0.00000000000E+00 -0.34880766492E+03  0.34880766492E+03  0.00000000000E+00 0.  1.
         21    1    1    2  503  502 -0.28784876662E+02  0.54785383765E+01 -0.32363456940E+03  0.32495833274E+03  0.00000000000E+00 0.  1.
          1    1    1    2  501    0  0.28784876662E+02 -0.54785383765E+01 -0.15754165829E+02  0.33268261874E+02  0.00000000000E+00 0. -1.
</event>
<event>
 4    1  0.1560907E+006  0.2068753E+02  0.7546771E-02  0.1523773E+00
         21   -1    0    0  501  502  0.00000000000E+00  0.00000000000E+00  0.53346458861E+01  0.53346458861E+01  0.00000000000E+00 0.  1.
         -2   -1    0    0    0  501 -0.00000000000E+00 -0.00000000000E+00 -0.80538254410E+02  0.80538254410E+02  0.00000000000E+00 0.  1.
         21    1    1    2  503  502  0.17105564620E+02  0.11635008190E+02 -0.34925466875E+02  0.40592634713E+02  0.00000000000E+00 0.  1.
         -2    1    1    2    0  503 -0.17105564620E+02 -0.11635008190E+02 -0.40278141649E+02  0.45280265583E+02  0.00000000000E+00 0.  1.
</event>
<event>
 4    1  0.1560907E+006  0.2084252E+02  0.7546771E-02  0.1521525E+00
         -3   -1    0    0    0  501 -0.00000000000E+00  0.00000000000E+00  0.19278709277E+02  0.19278709277E+02  0.00000000000E+00 0.  1.
         21   -1    0    0  503  502  0.00000000000E+00 -0.00000000000E+00 -0.73772879209E+02  0.73772879209E+02  0.00000000000E+00 0.  1.
         21    1    1    2  503  501 -0.17291360356E+02  0.11636984448E+02 -0.66021810432E+02  0.69233590134E+02  0.00000000000E+00 0.  1.
         -3    1    1    2    0  502  0.17291360356E+02 -0.11636984448E+02  0.11527640501E+02  0.23817998353E+02  0.00000000000E+00 0.  1.
</event>
<event>
 4    1  0.1560907E+006  0.3851281E+02  0.7546771E-02  0.1357428E+00
          3   -1    0    0  502    0 -0.00000000000E+00  0.00000000000E+00  0.11111093598E+03  0.11111093598E+03  0.00000000000E+00 0. -1.
         21   -1    0    0  503  502  0.00000000000E+00 -0.00000000000E+00 -0.18509479231E+02  0.18509479231E+02  0.00000000000E+00 0.  1.
         21    1    1    2  503  501 -0.12863894162E+02  0.36300915940E+02  0.12080325039E+02  0.40362984579E+02  0.00000000000E+00 0.  1.
          3    1    1    2  501    0  0.12863894162E+02 -0.36300915940E+02  0.80521131714E+02  0.89257430635E+02  0.00000000000E+00 0. -1.
</event>
<event>
 4    1  0.1560907E+006  0.2092620E+02  0.7546771E-02  0.1520321E+00
         21   -1    0    0  503  502  0.00000000000E+00  0.00000000000E+00  0.23870912677E+02  0.23870912677E+02  0.00000000000E+00 0.  1.
         -2   -1    0    0    0  501 -0.00000000000E+00 -0.00000000000E+00 -0.24627546717E+02  0.24627546717E+02  0.00000000000E+00 0.  1.
         21    1    1    2  503  501  0.27415695312E+01 -0.20745833578E+02  0.11869650791E+02  0.24058146733E+02  0.00000000000E+00 0.  1.
         -2    1    1    2    0  502 -0.27415695312E+01  0.20745833578E+02 -0.12626284831E+02  0.24440312661E+02  0.00000000000E+00 0.  1.
</event>
<event>
 4    1  0.1560907E+006  0.5259545E+02  0.7546771E-02  0.1287295E+00
         21   -1    0    0  503  502  0.00000000000E+00  0.00000000000E+00  0.16086447207E+02  0.16086447207E+02  0.00000000000E+00 0.  1.
          2   -1    0    0  502    0 -0.00000000000E+00 -0.00000000000E+00 -0.34947658225E+03  0.34947658225E+03  0.00000000000E+00 0.  1.
         21    1    1    2  503  501 -0.30690050952E+02  0.42713025381E+02 -0.36426866826E+02  0.63978108688E+02  0.00000000000E+00 0.  1.
          2    1    1    2  501    0  0.30690050952E+02 -0.42713025381E+02 -0.29696326822E+03  0.30158492077E+03  0.00000000000E+00 0.  1.
</event>
<event>
 4    1  0.1560907E+006  0.4005470E+02  0.7546771E-02  0.1348166E+00
         21   -1    0    0  503  502  0.00000000000E+00  0.00000000000E+00  0.13598956944E+02  0.13598956944E+02  0.00000000000E+00 0. -1.
         -1   -1    0    0    0  501 -0.00000000000E+00 -0.00000000000E+00 -0.18883755695E+03  0.18883755695E+03  0.00000000000E+00 0.  1.
         21    1    1    2  503  501  0.38541602019E+02 -0.10905207902E+02 -0.25616160511E+02  0.47545413290E+02  0.00000000000E+00 0. -1.
         -1    1    1    2    0  502 -0.38541602019E+02  0.10905207902E+02 -0.14962243950E+03  0.15489110061E+03  0.00000000000E+00 0.  1.
</event>
<event>
 4    1  0.1560907E+006  0.2329429E+02  0.7546771E-02  0.1488835E+00
         21   -1    0    0  503  502  0.00000000000E+00  0.00000000000E+00  0.55946339293E+01  0.55946339293E+01  0.00000000000E+00 0.  1.
          3   -1    0    0  502    0 -0.00000000000E+00 -0.00000000000E+00 -0.26943958941E+03  0.26943958941E+03  0.00000000000E+00 0.  1.
         21    1    1    2  503  501  0.20954800119E+02  0.10174494926E+02 -0.21906181751E+02  0.31976628870E+02  0.00000000000E+00 0.  1.
          3    1    1    2  501    0 -0.20954800119E+02 -0.10174494926E+02 -0.24193877373E+03  0.24305759447E+03  0.00000000000E+00 0.  1.
</event>
<event>
 4    1  0.1560907E+006  0.2533227E+02  0.7546771E-02  0.1465120E+00
          1   -1    0    0  502    0 -0.00000000000E+00  0.00000000000E+00  0.22258256761E+04  0.22258256761E+04  0.00000000000E+00 0.  1.
         21   -1    0    0  503  502  0.00000000000E+00 -0.00000000000E+00 -0.30209233817E+00  0.30209233817E+00  0.00000000000E+00 0. -1.
         21    1    1    2  503  501 -0.53034676937E+01 -0.24770894553E+02  0.87500185130E+03  0.87536847314E+03  0.00000000000E+00 0. -1.
          1    1    1    2  501    0  0.53034676937E+01  0.24770894553E+02  0.13505217325E+04  0.13507592953E+04  0.00000000000E+00 0.  1.
</event>
<event>
 4    1  0.1560907E+006  0.2187464E+02  0.7546771E-02  0.1507134E+00
          1   -1    0    0  502    0 -0.00000000000E+00  0.00000000000E+00  0.58793218720E+01  0.58793218720E+01  0.00000000000E+00 0.  1.
         21   -1    0    0  503  502  0.00000000000E+00 -0.00000000000E+00 -0.15003230198E+03  0.15003230198E+03  0.00000000000E+00 0.  1.
         21    1    1    2  503  501  0.51769339855E+01 -0.21253216668E+02 -0.12480697852E+03  0.12670943829E+03  0.00000000000E+00 0.  1.
          1    1    1    2  501    0 -0.51769339855E+01  0.21253216668E+02 -0.19346001588E+02  0.29202185563E+02  0.00000000000E+00 0.  1.
</event>
<event>
 4    1  0.1560907E+006  0.5589545E+02  0.7546771E-02  0.1274454E+00
         21   -1    0    0  501  502  0.00000000000E+00  0.00000000000E+00  0.84167952048E+02  0.84167952048E+02  0.00000000000E+00 0.  1.
          1   -1    0    0  503    0 -0.00000000000E+00 -0.00000000000E+00 -0.39785315713E+02  0.39785315713E+02  0.00000000000E+00 0. -1.
         21    1    1    2  503  502  0.52655683628E+02 -0.18753137828E+02  0.38233139344E+02  0.67720559219E+02  0.00000000000E+00 0.  1.
          1    1    1    2  501    0 -0.52655683628E+02  0.18753137828E+02  0.61494969906E+01  0.56232708543E+02  0.00000000000E+00 0. -1.
</event>
<event>
 4    1  0.1560907E+006  0.5201239E+02  0.7546771E-02  0.1289675E+00
         21   -1    0    0  501  502  0.00000000000E+00  0.00000000000E+00  0.67884450019E+02  0.67884450019E+02  0.00000000000E+00 0. -1.
         -4   -1    0    0    0  501 -0.00000000000E+00 -0.00000000000E+00 -0.61691796180E+02  0.61691796180E+02  0.00000000000E+00 0. -1.
         21    1    1    2  503  502  0.52082413951E+01 -0.51750971950E+02  0.41645242569E+02  0.66630436775E+02  0.00000000000E+00 0. -1.
         -4    1    1    2    0  503 -0.52082413951E+01  0.51750971950E+02 -0.35452588730E+02  0.62945809423E+02  0.00000000000E+00 0. -1.
</event>
<event>
 4    1  0.1560907E+006  0.6572299E+02  0.7546771E-02  0.1241537E+00
          2   -1    0    0  502    0 -0.00000000000E+00  0.00000000000E+00  0.10555193044E+04  0.10555193044E+04  0.00000000000E+00 0. -1.
         21   -1    0    0  503  502  0.00000000000E+00 -0.00000000000E+00 -0.90425927340E+01  0.90425927340E+01  0.00000000000E+00 0. -1.
         21    1    1    2  503  501 -0.31375473626E+02  0.57750246278E+02  0.12940773810E+03  0.14514087629E+03  0.00000000000E+00 0. -1.
          2    1    1    2  501    0  0.31375473626E+02 -0.57750246278E+02  0.91706897359E+03  0.91942102086E+03  0.00000000000E+00 0. -1.
</event>
<event>
 4    1  0.1560907E+006  0.2502185E+02  0.7546771E-02  0.1468559E+00
         21   -1    0    0  501  502  0.00000000000E+00  0.00000000000E+00  0.42436803570E+03  0.42436803570E+03  0.00000000000E+00 0. -1.
          3   -1    0    0  503    0 -0.00000000000E+00 -0.00000000000E+00 -0.53869449945E+01  0.53869449945E+01  0.00000000000E+00 0.  1.
         21    1    1    2  503  502 -0.20856248639E+02 -0.13824256521E+02  0.39259392426E+03  0.39339049625E+03  0.00000000000E+00 0. -1.
          3    1    1    2  501    0  0.20856248639E+02  0.13824256521E+02  0.26387166443E+02  0.36364484439E+02  0.00000000000E+00 0.  1.
</event>
<event>
 4    1  0.1560907E+006  0.3214339E+02  0.7546771E-02  0.1401841E+00
         -2   -1    0    0    0  501 -0.00000000000E+00  0.00000000000E+00  0.71494662852E+03  0.71494662852E+03  0.00000000000E+00 0. -1.
         21   -1    0    0  503  502  0.00000000000E+00 -0.00000000000E+00 -0.20607877565E+02  0.20607877565E+02  0.00000000000E+00 0.  1.
         21    1    1    2  503  501  0.27114405914E+02  0.17262862602E+02 -0.74782173805E+01  0.33001835835E+02  0.00000000000E+00 0.  1.
         -2    1    1    2    0  502 -0.27114405914E+02 -0.17262862602E+02  0.70181696833E+03  0.70255267025E+03  0.00000000000E+00 0. -1.
</event>
<event>
 4    1  0.1560907E+006  0.4078077E+02  0.7546771E-02  0.1343970E+00
         21   -1    0    0  503  502  0.00000000000E+00  0.00000000000E+00  0.63432746823E+02  0.63432746823E+02  0.00000000000E+00 0.  1.
         -3   -1    0    0    0  501 -0.00000000000E+00 -0.00000000000E+00 -0.26299840620E+02  0.26299840620E+02  0.00000000000E+00 0.  1.
         21    1    1    2  503  501 -0.13172037414E+02 -0.38594930097E+02  0.16061579945E+02  0.43829733619E+02  0.00000000000E+00 0.  1.
         -3    1    1    2    0  502  0.13172037414E+02  0.38594930097E+02  0.21071326259E+02  0.45902853823E+02  0.00000000000E+00 0.  1.
</event>
<event>
 4    1  0.1560907E+006  0.3925747E+02  0.7546771E-02  0.1352893E+00
          1   -1    0    0  503    0 -0.00000000000E+00  0.00000000000E+00  0.24071296849E+03  0.24071296849E+03  0.00000000000E+00 0. -1.
         21   -1    0    0  501  502  0.00000000000E+00 -0.00000000000E+00 -0.41163266000E+02  0.41163266000E+02  0.00000000000E+00 0.  1.
         21    1    1    2  503  502 -0.39246091799E+02  0.94492415777E+00 -0.29739722853E+02  0.49250377852E+02  0.00000000000E+00 0.  1.
          1    1    1    2  501    0  0.39246091799E+02 -0.94492415777E+00  0.22928942534E+03  0.23262585663E+03  0.00000000000E+00 0. -1.
</event>
<event>
 4    1  0.1560907E+006  0.2221325E+02  0.7546771E-02  0.1502621E+00
         -1   -1    0    0    0  501 -0.00000000000E+00  0.00000000000E+00  0.12618152168E+03  0.12618152168E+03  0.00000000000E+00 0. -1.
         21   -1    0    0  501  502  0.00000000000E+00 -0.00000000000E+00 -0.34228679039E+02  0.34228679039E+02  0.00000000000E+00 0.  1.
         21    1    1    2  503  502 -0.18050229794E+02  0.12946727878E+02 -0.29508241031E+02  0.36934602300E+02  0.00000000000E+00 0.  1.
         -1    1    1    2    0  503  0.18050229794E+02 -0.12946727878E+02  0.12146108367E+03  0.12347559842E+03  0.00000000000E+00 0. -1.
</event>
<event>
 4    1  0.1560907E+006  0.2686332E+02  0.7546771E-02  0.1448986E+00
          3   -1    0    0  502    0 -0.00000000000E+00  0.00000000000E+00  0.10665499380E+04  0.10665499380E+04  0.00000000000E+00 0.  1.
         21   -1    0    0  503  502  0.00000000000E+00 -0.00000000000E+00 -0.13820441726E+01  0.13820441726E+01  0.00000000000E+00 0. -1.
         21    1    1    2  503  501 -0.26646603250E+02 -0.34053473716E+01  0.15109582007E+03  0.15346525567E+03  0.00000000000E+00 0. -1.
          3    1    1    2  501    0  0.26646603250E+02  0.34053473716E+01  0.91407207372E+03  0.91446672646E+03  0.00000000000E+00 0.  1.
</event>
<event>
 4    1  0.1560907E+006  0.2076178E+02  0.7546771E-02  0.1522693E+00
         -1   -1    0    0    0  501 -0.00000000000E+00  0.00000000000E+00  0.27620790157E+02  0.27620790157E+02  0.00000000000E+00 0.  1.
         21   -1    0    0  503  502  0.00000000000E+00 -0.00000000000E+00 -0.41789569725E+02  0.41789569725E+02  0.00000000000E+00 0.  1.
         21    1    1    2  503  501 -0.19409035545E+02 -0.73716169368E+01 -0.34555383807E+02  0.40312850893E+02  0.00000000000E+00 0.  1.
         -1    1    1    2    0  502  0.19409035545E+02  0.73716169368E+01  0.20386604239E+02  0.29097508990E+02  0.00000000000E+00 0.  1.
</event>
<event>
 4    1  0.1560907E+006  0.2744882E+02  0.7546771E-02  0.1443151E+00
         21   -1    0    0  501  502  0.00000000000E+00  0.00000000000E+00  0.51122612216E+02  0.51122612216E+02  0.00000000000E+00 0.  1.
          3   -1    0    0  503    0 -0.00000000000E+00 -0.00000000000E+00 -0.26703601198E+02  0.26703601198E+02  0.00000000000E+00 0.  1.
         21    1    1    2  503  502 -0.18548568612E+02  0.20233342668E+02  0.38257897256E+02  0.47086136554E+02  0.00000000000E+00 0.  1.
          3    1    1    2  501    0  0.18548568612E+02 -0.20233342668E+02 -0.13838886237E+02  0.30740076861E+02  0.00000000000E+00 0.  1.
</event>
<event>
 4    1  0.1560907E+006  0.2939887E+02  0.7546771E-02  0.1424893E+00
          1   -1    0    0  502    0 -0.00000000000E+00  0.00000000000E+00  0.69230226584E+03  0.69230226584E+03  0.00000000000E+00 0.  1.
         21   -1    0    0  503  502  0.00000000000E+00 -0.00000000000E+00 -0.50498172982E+01  0.50498172982E+01  0.00000000000E+00 0. -1.
         21    1    1    2  503  501  0.12315704812E+02 -0.26694882971E+02  0.41105499623E+02  0.50536674417E+02  0.00000000000E+00 0. -1.
          1    1    1    2  501    0 -0.12315704812E+02  0.26694882971E+02  0.64614694891E+03  0.64681540872E+03  0.00000000000E+00 0.  1.
</event>
<event>
 4    1  0.1560907E+006  0.3602469E+02  0.7546771E-02  0.1373499E+00
         21   -1    0    0  503  502  0.00000000000E+00  0.00000000000E+00  0.17197862170E+01  0.17197862170E+01  0.00000000000E+00 0. -1.
         -2   -1    0    0    0  501 -0.00000000000E+00 -0.00000000000E+00 -0.15005937226E+04  0.15005937226E+04  0.00000000000E+00 0. -1.
         21    1    1    2  503  501  0.92314845797E+01 -0.34821808371E+02 -0.21982002900E+03  0.22275238224E+03  0.00000000000E+00 0. -1.
         -2    1    1    2    0  502 -0.92314845797E+01  0.34821808371E+02 -0.12790539074E+04  0.12795611266E+04  0.00000000000E+00 0. -1.
</event>
<event>
 4    1  0.1560907E+006  0.2001999E+02  0.7546771E-02  0.1533730E+00
         21   -1    0    0  503  502  0.00000000000E+00  0.00000000000E+00  0.22703934357E+03  0.22703934357E+03  0.00000000000E+00 0.  1.
         -1   -1    0    0    0  501 -0.00000000000E+00 -0.00000000000E+00 -0.20829996728E+01  0.20829996728E+01  0.00000000000E+00 0.  1.
         21    1    1    2  503  501 -0.16626170749E+02  0.11152142095E+02  0.67739887087E+02  0.70636337176E+02  0.00000000000E+00 0.  1.
         -1    1    1    2    0  502  0.16626170749E+02 -0.11152142095E+02  0.15721645681E+03  0.15848600606E+03  0.00000000000E+00 0.  1.
</event>
<event>
 4    1  0.1560907E+006  0.2456421E+02  0.7546771E-02  0.1473738E+00
         21   -1    0    0  503  502  0.00000000000E+00  0.00000000000E+00  0.70612535922E+01  0.70612535922E+01  0.00000000000E+00 0. -1.
         -4   -1    0    0    0  501 -0.00000000000E+00 -0.00000000000E+00 -0.45184936910E+03  0.45184936910E+03  0.00000000000E+00 0. -1.
         21    1    1    2  503  501  0.16949529514E+02 -0.17779595559E+02 -0.15771728568E+02  0.29191573973E+02  0.00000000000E+00 0. -1.
         -4    1    1    2    0  502 -0.16949529514E+02  0.17779595559E+02 -0.42901638694E+03  0.42971904871E+03  0.00000000000E+00 0. -1.
</event>
<event>
 4    1  0.1560907E+006  0.2555758E+02  0.7546771E-02  0.1462661E+00
         21   -1    0    0  503  502  0.00000000000E+00  0.00000000000E+00  0.31898139280E+01  0.31898139280E+01  0.00000000000E+00 0. -1.
          2   -1    0    0  502    0 -0.00000000000E+00 -0.00000000000E+00 -0.17896958424E+04  0.17896958424E+04  0.00000000000E+00 0.  1.
         21    1    1    2  503  501 -0.97436616195E+01 -0.23627338071E+02 -0.49652284150E+02  0.55843883885E+02  0.00000000000E+00 0. -1.
          2    1    1    2  501    0  0.97436616195E+01  0.23627338071E+02 -0.17368537443E+04  0.17370417724E+04  0.00000000000E+00 0.  1.
</event>
<event>
 4    1  0.1560907E+006  0.2172100E+02  0.7546771E-02  0.1509215E+00
         21   -1    0    0  501  502  0.00000000000E+00  0.00000000000E+00  0.67522940183E+01  0.67522940183E+01  0.00000000000E+00 0.  1.
          2   -1    0    0  503    0 -0.00000000000E+00 -0.00000000000E+00 -0.31977904289E+03  0.31977904289E+03  0.00000000000E+00 0.  1.
         21    1    1    2  503  502  0.33137909376E+01  0.21466735233E+02 -0.12182782395E+02  0.24904259049E+02  0.00000000000E+00 0.  1.
          2    1    1    2  501    0 -0.33137909376E+01 -0.21466735233E+02 -0.30084396648E+03  0.30162707786E+03  0.00000000000E+00 0.  1.
</event>
<event>
 4    1  0.1560907E+006  0.2562820E+02  0.7546771E-02  0.1461897E+00
          2   -1    0    0  503    0 -0.00000000000E+00  0.00000000000E+00  0.10580771919E+02  0.10580771919E+02  0.00000000000E+00 0.  1.
         21   -1    0    0  501  502  0.00000000000E+00 -0.00000000000E+00 -0.24931653247E+03  0.24931653247E+03  0.00000000000E+00 0. -1.
         21    1    1    2  503  502 -0.12653743946E+02  0.22286485136E+02 -0.23198307158E+03  0.23339440901E+03  0.00000000000E+00 0. -1.
          2    1    1    2  501    0  0.12653743946E+02 -0.22286485136E+02 -0.67526889760E+01  0.26502895388E+02  0.00000000000E+00 0.  1.
</event>
<event>
 4    1  0.1560907E+006  0.2544661E+02  0.7546771E-02  0.1463869E+00
         21   -1    0    0  501  502  0.00000000000E+00  0.00000000000E+00  0.16968848873E+02  0.16968848873E+02  0.00000000000E+00 0.  1.
          2   -1    0    0  503    0 -0.00000000000E+00 -0.00000000000E+00 -0.76872545342E+03  0.76872545342E+03  0.00000000000E+00 0. -1.
         21    1    1    2  503  502 -0.19977765356E+02  0.15761314738E+02  0.70941739898E+01  0.26416991795E+02  0.00000000000E+00 0.  1.
          2    1    1    2  501    0  0.19977765356E+02 -0.15761314738E+02 -0.75885077854E+03  0.75927731050E+03  0.00000000000E+00 0. -1.
</event>
<event>
 4    1  0.1560907E+006  0.2192369E+02  0.7546771E-02  0.1506475E+00
         21   -1    0    0  501  502  0.00000000000E+00  0.00000000000E+00  0.28880859599E+02  0.28880859599E+02  0.00000000000E+00 0.  1.
          2   -1    0    0  503    0 -0.00000000000E+00 -0.00000000000E+00 -0.32929786400E+02  0.32929786400E+02  0.00000000000E+00 0.  1.
         21    1    1    2  503  502  0.31999830027E+01 -0.21688894095E+02  0.19710753361E+02  0.29481550440E+02  0.00000000000E+00 0.  1.
          2    1    1    2  501    0 -0.31999830027E+01  0.21688894095E+02 -0.23759680162E+02  0.32329095559E+02  0.00000000000E+00 0.  1.
</event>
<event>
 4    1  0.1560907E+006  0.2035287E+02  0.7546771E-02  0.1528708E+00
          2   -1    0    0  503    0 -0.00000000000E+00  0.00000000000E+00  0.15204167461E+01  0.15204167461E+01  0.00000000000E+00 0. -1.
         21   -1    0    0  501  502  0.00000000000E+00 -0.00000000000E+00 -0.14729314602E+04  0.14729314602E+04  0.00000000000E+00 0.  1.
         21    1    1    2  503  502  0.32869904293E+01  0.20085694295E+02 -0.14012649546E+04  0.14014127559E+04  0.00000000000E+00 0.  1.
          2    1    1    2  501    0 -0.32869904293E+01 -0.20085694295E+02 -0.70146088911E+02  0.73039121099E+02  0.00000000000E+00 0. -1.
</event>
<event>
 4    1  0.1560907E+006  0.2669651E+02  0.7546771E-02  0.1450681E+00
         21   -1    0    0  501  502  0.00000000000E+00  0.00000000000E+00  0.54810961616E+02  0.54810961616E+02  0.00000000000E+00 0.  1.
         -3   -1    0    0    0  501 -0.00000000000E+00 -0.00000000000E+00 -0.21036112543E+03  0.21036112543E+03  0.00000000000E+00 0. -1.
         21    1    1    2  503  502 -0.24803730883E+02  0.98731119900E+01  0.50647868968E+02  0.57253035178E+02  0.00000000000E+00 0.  1.
         -3    1    1    2    0  503  0.24803730883E+02 -0.98731119900E+01 -0.20619803278E+03  0.20791905187E+03  0.00000000000E+00 0. -1.
</event>
<event>
 4    1  0.1560907E+006  0.2881521E+02  0.7546771E-02  0.1430179E+00
          1   -1    0    0  502    0 -0.00000000000E+00  0.00000000000E+00  0.27246804103E+02  0.27246804103E+02  0.00000000000E+00 0. -1.
         21   -1    0    0  503  502  0.00000000000E+00 -0.00000000000E+00 -0.17034835536E+03  0.17034835536E+03  0.00000000000E+00 0. -1.
         21    1    1    2  503  501 -0.15013735738E+02  0.24594793767E+02 -0.16107623358E+03  0.16363333757E+03  0.00000000000E+00 0. -1.
          1    1    1    2  501    0  0.15013735738E+02 -0.24594793767E+02  0.17974682325E+02  0.33961821888E+02  0.00000000000E+00 0. -1.
</event>
<event>
 4    1  0.1560907E+006  0.2798260E+02  0.7546771E-02  0.1437980E+00
         21   -1    0    0  503  502  0.00000000000E+00  0.00000000000E+00  0.32869361766E+02  0.32869361766E+02  0.00000000000E+00 0.  1.
         -1   -1    0    0    0  501 -0.00000000000E+00 -0.00000000000E+00 -0.24321130333E+02  0.24321130333E+02  0.00000000000E+00 0.  1.
         21    1    1    2  503  501 -0.26183155126E+02 -0.98725992617E+01  0.83690928201E+01  0.29207320027E+02  0.00000000000E+00 0.  1.
         -1    1    1    2    0  502  0.26183155126E+02  0.98725992617E+01  0.17913861264E+00  0.27983172071E+02  0.00000000000E+00 0.  1.
</event>
<event>
 4    1  0.1560907E+006  0.2149040E+02  0.7546771E-02  0.1512377E+00
         21   -1    0    0  501  502  0.00000000000E+00  0.00000000000E+00  0.56611381786E+01  0.56611381786E+01  0.00000000000E+00 0. -1.
         -4   -1    0    0    0  501 -0.00000000000E+00 -0.00000000000E+00 -0.63381641577E+03  0.63381641577E+03  0.00000000000E+00 0.  1.
         21    1    1    2  503  502 -0.21342037429E+02  0.25208703718E+01 -0.15624623597E+02  0.26570024682E+02  0.00000000000E+00 0. -1.
         -4    1    1    2    0  503  0.21342037429E+02 -0.25208703718E+01 -0.61253065399E+03  0.61290752926E+03  0.00000000000E+00 0.  1.
</event>
<event>
 4    1  0.1560907E+006  0.2558680E+02  0.7546771E-02  0.1462345E+00
         -4   -1    0    0    0  501 -0.00000000000E+00  0.00000000000E+00  0.10964085541E+03  0.10964085541E+03  0.00000000000E+00 0. -1.
         21   -1    0    0  503  502  0.00000000000E+00 -0.00000000000E+00 -0.81320212003E+03  0.81320212003E+03  0.00000000000E+00 0. -1.
         21    1    1    2  503  501  0.99931338241E+01 -0.23554648177E+02 -0.81150493894E+03  0.81190821532E+03  0.00000000000E+00 0. -1.
         -4    1    1    2    0  502 -0.99931338241E+01  0.23554648177E+02  0.10794367432E+03  0.11093476011E+03  0.00000000000E+00 0. -1.
</event>
<event>
 4    1  0.1560907E+006  0.2507922E+02  0.7546771E-02  0.1467919E+00
          1   -1    0    0  503    0 -0.00000000000E+00  0.00000000000E+00  0.32894899200E+03  0.32894899200E+03  0.00000000000E+00 0.  1.
         21   -1    0    0  501  502  0.00000000000E+00 -0.00000000000E+00 -0.10933203444E+03  0.10933203444E+03  0.00000000000E+00 0.  1.
         21    1    1    2  503  502 -0.23611257382E+01 -0.24967823280E+02 -0.10740736571E+03  0.11029646107E+03  0.00000000000E+00 0.  1.
          1    1    1    2  501    0  0.23611257382E+01  0.24967823280E+02  0.32702432327E+03  0.32798456537E+03  0.00000000000E+00 0.  1.
</event>
<event>
 4    1  0.1560907E+006  0.2268670E+02  0.7546771E-02  0.1496470E+00
          2   -1    0    0  503    0 -0.00000000000E+00  0.00000000000E+00  0.33541170379E+02  0.33541170379E+02  0.00000000000E+00 0.  1.
         21   -1    0    0  501  502  0.00000000000E+00 -0.00000000000E+00 -0.16690047515E+04  0.16690047515E+04  0.00000000000E+00 0.  1.
         21    1    1    2  503  502 -0.22675715815E+02  0.70597292265E+00 -0.16650823909E+04  0.16652369366E+04  0.00000000000E+00 0.  1.
          2    1    1    2  501    0  0.22675715815E+02 -0.70597292265E+00  0.29618809819E+02  0.37308985253E+02  0.00000000000E+00 0.  1.
</event>
<event>
 4    1  0.1560907E+006  0.2137084E+02  0.7546771E-02  0.1514036E+00
         -1   -1    0    0    0  501 -0.00000000000E+00  0.00000000000E+00  0.34660838131E+02  0.34660838131E+02  0.00000000000E+00 0. -1.
         21   -1    0    0  503  502  0.00000000000E+00 -0.00000000000E+00 -0.28196828576E+02  0.28196828576E+02  0.00000000000E+00 0. -1.
         21    1    1    2  503  501  0.17050239490E+02  0.12884176576E+02 -0.19706553500E+02  0.29069931606E+02  0.00000000000E+00 0. -1.
         -1    1    1    2    0  502 -0.17050239490E+02 -0.12884176576E+02  0.26170563054E+02  0.33787735102E+02  0.00000000000E+00 0. -1.
</event>
<event>
 4    1  0.1560907E+006  0.2117568E+02  0.7546771E-02  0.1516771E+00
         21   -1    0    0  501  502  0.00000000000E+00  0.00000000000E+00  0.28003370329E+01  0.28003370329E+01  0.00000000000E+00 0.  1.
         -1   -1    0    0    0  501 -0.00000000000E+00 -0.00000000000E+00 -0.35972563843E+03  0.35972563843E+03  0.00000000000E+00 0. -1.
         21    1    1    2  503  502 -0.19905111952E+02  0.72246702841E+01 -0.43441342046E+02  0.48327627101E+02  0.00000000000E+00 0.  1.
         -1    1    1    2    0  503  0.19905111952E+02 -0.72246702841E+01 -0.31348395935E+03  0.31419834836E+03  0.00000000000E+00 0. -1.
</event>
<event>
 4    1  0.1560907E+006  0.2383094E+02  0.7546771E-02  0.1482320E+00
         -3   -1    0    0    0  501 -0.00000000000E+00  0.00000000000E+00  0.13297418718E+01  0.13297418718E+01  0.00000000000E+00 0. -1.
         21   -1    0    0  501  502  0.00000000000E+00 -0.00000000000E+00 -0.11812909172E+04  0.11812909172E+04  0.00000000000E+00 0. -1.
         21    1    1    2  503  502  0.10009790413E+02  0.21626783744E+02 -0.10624588281E+04  0.10627260584E+04  0.00000000000E+00 0. -1.
         -3    1    1    2    0  503 -0.10009790413E+02 -0.21626783744E+02 -0.11750234724E+03  0.11989460074E+03  0.00000000000E+00 0. -1.
</event>
<event>
 4    1  0.1560907E+006  0.3411624E+02  0.7546771E-02  0.1386885E+00
         21   -1    0    0  501  502  0.00000000000E+00  0.00000000000E+00  0.11189359903E+01  0.11189359903E+01  0.00000000000E+00 0.  1.
          2   -1    0    0  503    0 -0.00000000000E+00 -0.00000000000E+00 -0.11101895663E+04  0.11101895663E+04  0.00000000000E+00 0.  1.
         21    1    1    2  503  502 -0.23730484539E+02  0.24510856358E+02 -0.41502040687E+03  0.41642028780E+03  0.00000000000E+00 0.  1.
          2    1    1    2  501    0  0.23730484539E+02 -0.24510856358E+02 -0.69405022343E+03  0.69488821448E+03  0.00000000000E+00 0.  1.
</event>
<event>
 4    1  0.1560907E+006  0.2208421E+02  0.7546771E-02  0.1504329E+00
         -2   -1    0    0    0  501 -0.00000000000E+00  0.00000000000E+00  0.49988359631E+01  0.49988359631E+01  0.00000000000E+00 0. -1.
         21   -1    0    0  501  502  0.00000000000E+00 -0.00000000000E+00 -0.14155860684E+03  0.14155860684E+03  0.00000000000E+00 0. -1.
         21    1    1    2  503  502 -0.58745309375E+01  0.21288541980E+02 -0.10913099284E+03  0.11134309916E+03  0.00000000000E+00 0. -1.
         -2    1    1    2    0  503  0.58745309375E+01 -0.21288541980E+02 -0.27428778045E+02  0.35214343646E+02  0.00000000000E+00 0. -1.
</event>
<event>
 4    1  0.1560907E+006  0.2107016E+02  0.7546771E-02  0.1518265E+00
         21   -1    0    0  501  502  0.00000000000E+00  0.00000000000E+00  0.13407492451E+03  0.13407492451E+03  0.00000000000E+00 0. -1.
          2   -1    0    0  503    0 -0.00000000000E+00 -0.00000000000E+00 -0.78297057225E+01  0.78297057225E+01  0.00000000000E+00 0.  1.
         21    1    1    2  503  502  0.20761006946E+02  0.35961396312E+01  0.11702279830E+03  0.11890452873E+03  0.00000000000E+00 0. -1.
          2    1    1    2  501    0 -0.20761006946E+02 -0.35961396312E+01  0.92224204885E+01  0.23000101507E+02  0.00000000000E+00 0.  1.
</event>
<event>
 4    1  0.1560907E+006  0.2564239E+02  0.7546771E-02  0.1461744E+00
         -1   -1    0    0    0  501 -0.00000000000E+00  0.00000000000E+00  0.79848034217E+03  0.79848034217E+03  0.00000000000E+00 0.  1.
         21   -1    0    0  503  502  0.00000000000E+00 -0.00000000000E+00 -0.88894840719E+00  0.88894840719E+00  0.00000000000E+00 0. -1.
         21    1    1    2  503  501 -0.20279549810E+02 -0.15693060810E+02  0.29032902987E+03  0.29145922165E+03  0.00000000000E+00 0. -1.
         -1    1    1    2    0  502  0.20279549810E+02  0.15693060810E+02  0.50726236389E+03  0.50791006893E+03  0.00000000000E+00 0.  1.
</event>
<event>
 4    1  0.1560907E+006  0.2737127E+02  0.7546771E-02  0.1443914E+00
         21   -1    0    0  503  502  0.00000000000E+00  0.00000000000E+00  0.22333632588E+01  0.22333632588E+01  0.00000000000E+00 0. -1.
         -4   -1    0    0    0  501 -0.00000000000E+00 -0.00000000000E+00 -0.34174276966E+03  0.34174276966E+03  0.00000000000E+00 0. -1.
         21    1    1    2  503  501  0.17713498095E+02  0.20866679475E+02 -0.14642022254E+03  0.14895659735E+03  0.00000000000E+00 0. -1.
         -4    1    1    2    0  502 -0.17713498095E+02 -0.20866679475E+02 -0.19308918386E+03  0.19501953557E+03  0.00000000000E+00 0. -1.
</event>
<event>
 4    1  0.1560907E+006  0.3515986E+02  0.7546771E-02  0.1379443E+00
         21   -1    0    0  503  502  0.00000000000E+00  0.00000000000E+00  0.27695062349E+03  0.27695062349E+03  0.00000000000E+00 0.  1.
          4   -1    0    0  502    0 -0.00000000000E+00 -0.00000000000E+00 -0.21823371313E+02  0.21823371313E+02  0.00000000000E+00 0.  1.
         21    1    1    2  503  501 -0.34127106666E+02  0.84591161061E+01  0.26080006226E+03  0.26315943557E+03  0.00000000000E+00 0.  1.
          4    1    1    2  501    0  0.34127106666E+02 -0.84591161061E+01 -0.56728100876E+01  0.35614559228E+02  0.00000000000E+00 0.  1.
</event>
<event>
 4    1  0.1560907E+006  0.2000268E+02  0.7546771E-02  0.1533995E+00
         21   -1    0    0  501  502  0.00000000000E+00  0.00000000000E+00  0.33481623603E+01  0.33481623603E+01  0.00000000000E+00 0. -1.
          4   -1    0    0  503    0 -0.00000000000E+00 -0.00000000000E+00 -0.18948372469E+03  0.18948372469E+03  0.00000000000E+00 0. -1.
         21    1    1    2  503  502  0.16608234112E+02  0.11147812235E+02 -0.34472883746E+02  0.39855826070E+02  0.00000000000E+00 0. -1.
          4    1    1    2  501    0 -0.16608234112E+02 -0.11147812235E+02 -0.15166267859E+03  0.15297606098E+03  0.00000000000E+00 0. -1.
</event>
<event>
 4    1  0.1560907E+006  0.3170170E+02  0.7546771E-02  0.1405363E+00
         21   -1    0    0  503  502  0.00000000000E+00  0.00000000000E+00  0.11853820720E+02  0.11853820720E+02  0.00000000000E+00 0. -1.
          2   -1    0    0  502    0 -0.00000000000E+00 -0.00000000000E+00 -0.85516622255E+03  0.85516622255E+03  0.00000000000E+00 0.  1.
         21    1    1    2  503  501  0.72055133269E+01 -0.30871970969E+02 -0.10196423655E+02  0.33301127146E+02  0.00000000000E+00 0. -1.
          2    1    1    2  501    0 -0.72055133269E+01  0.30871970969E+02 -0.83311597817E+03  0.83371891612E+03  0.00000000000E+00 0.  1.
</event>
<event>
 4    1  0.1560907E+006  0.2734794E+02  0.7546771E-02  0.1444144E+00
          2   -1    0    0  502    0 -0.00000000000E+00  0.00000000000E+00  0.14042308626E+03  0.14042308626E+03  0.00000000000E+00 0.  1.
         21   -1    0    0  503  502  0.00000000000E+00 -0.00000000000E+00 -0.49122772802E+02  0.49122772802E+02  0.00000000000E+00 0.  1.
         21    1    1    2  503  501 -0.17422682473E+02  0.21079846148E+02 -0.43837542879E+02  0.51668558561E+02  0.00000000000E+00 0.  1.
          2    1    1    2  501    0  0.17422682473E+02 -0.21079846148E+02  0.13513785633E+03  0.13787730050E+03  0.00000000000E+00 0.  1.
</event>
<event>
 4    1  0.1560907E+006  0.7083050E+02  0.7546771E-02  0.1226901E+00
         -2   -1    0    0    0  501 -0.00000000000E+00  0.00000000000E+00  0.72787714110E+03  0.72787714110E+03  0.00000000000E+00 0. -1.
         21   -1    0    0  501  502  0.00000000000E+00 -0.00000000000E+00 -0.79191430541E+02  0.79191430541E+02  0.00000000000E+00 0. -1.
         21    1    1    2  503  502 -0.28929954418E+01  0.70771391721E+02 -0.61230495452E+02  0.93627628839E+02  0.00000000000E+00 0. -1.
         -2    1    1    2    0  503  0.28929954418E+01 -0.70771391721E+02  0.70991620601E+03  0.71344094280E+03  0.00000000000E+00 0. -1.
</event>
<event>
 4    1  0.1560907E+006  0.2121800E+02  0.7546771E-02  0.1516175E+00
         -4   -1    0    0    0  501 -0.00000000000E+00  0.00000000000E+00  0.39655447696E+01  0.39655447696E+01  0.00000000000E+00 0. -1.
         21   -1    0    0  501  502  0.00000000000E+00 -0.00000000000E+00 -0.38502327392E+03  0.38502327392E+03  0.00000000000E+00 0. -1.
         21    1    1    2  503  502  0.87301715299E+01 -0.19338765009E+02 -0.35385063918E+03  0.35448621775E+03  0.00000000000E+00 0. -1.
         -4    1    1    2    0  503 -0.87301715299E+01  0.19338765009E+02 -0.27207089978E+02  0.34502600947E+02  0.00000000000E+00 0. -1.
</event>
<event>
 4    1  0.1560907E+006  0.2389105E+02  0.7546771E-02  0.1481602E+00
          1   -1    0    0  502    0 -0.00000000000E+00  0.00000000000E+00  0.52966378170E+02  0.52966378170E+02  0.00000000000E+00 0.  1.
         21   -1    0    0  503  502  0.00000000000E+00 -0.00000000000E+00 -0.54719792693E+02  0.54719792693E+02  0.00000000000E+00 0. -1.
         21    1    1    2  503  501 -0.22671710983E+02  0.75349631731E+01 -0.49127555250E+02  0.54628736337E+02  0.00000000000E+00 0. -1.
          1    1    1    2  501    0  0.22671710983E+02 -0.75349631731E+01  0.47374140726E+02  0.53057434526E+02  0.00000000000E+00 0.  1.
</event>
<event>
 4    1  0.1560907E+006  0.5035954E+02  0.7546771E-02  0.1296621E+00
         21   -1    0    0  503  502  0.00000000000E+00  0.00000000000E+00  0.10046932355E+02  0.10046932355E+02  0.00000000000E+00 0.  1.
         -1   -1    0    0    0  501 -0.00000000000E+00 -0.00000000000E+00 -0.25250140808E+03  0.25250140808E+03  0.00000000000E+00 0.  1.
         21    1    1    2  503  501 -0.45822074003E+02 -0.20890698191E+02 -0.11892415923E+03  0.12914735532E+03  0.00000000000E+00 0.  1.
         -1    1    1    2    0  502  0.45822074003E+02  0.20890698191E+02 -0.12353031650E+03  0.13340098512E+03  0.00000000000E+00 0.  1.
</event>
<event>
 4    1  0.1560907E+006  0.2104282E+02  0.7546771E-02  0.1518654E+00
         21   -1    0    0  501  502  0.00000000000E+00  0.00000000000E+00  0.20341307646E+02  0.20341307646E+02  0.00000000000E+00 0. -1.
          2   -1    0    0  503    0 -0.00000000000E+00 -0.00000000000E+00 -0.24230970506E+02  0.24230970506E+02  0.00000000000E+00 0. -1.
         21    1    1    2  503  502  0.29456115877E+01  0.20835638694E+02  0.51596415090E+01  0.21666157202E+02  0.00000000000E+00 0. -1.
          2    1    1    2  501    0 -0.29456115877E+01 -0.20835638694E+02 -0.90493043684E+01  0.22906120950E+02  0.00000000000E+00 0. -1.
</event>
<event>
 4    1  0.1560907E+006  0.2446029E+02  0.7546771E-02  0.1474933E+00
         21   -1    0    0  503  502  0.00000000000E+00  0.00000000000E+00  0.42336559887E+01  0.42336559887E+01  0.00000000000E+00 0.  1.
         -3   -1    0    0    0  501 -0.00000000000E+00 -0.00000000000E+00 -0.28409309640E+03  0.28409309640E+03  0.00000000000E+00 0.  1.
         21    1    1    2  503  501 -0.21445627884E+02  0.11763961633E+02 -0.37730913851E+02  0.44965849360E+02  0.00000000000E+00 0.  1.
         -3    1    1    2    0  502  0.21445627884E+02 -0.11763961633E+02 -0.24212852656E+03  0.24336090303E+03  0.00000000000E+00 0.  1.
</event>
<event>
 4    1  0.1560907E+006  0.2132035E+02  0.7546771E-02  0.1514740E+00
          1   -1    0    0  502    0 -0.00000000000E+00  0.00000000000E+00  0.31294910962E+02  0.31294910962E+02  0.00000000000E+00 0. -1.
         21   -1    0    0  503  502  0.00000000000E+00 -0.00000000000E+00 -0.14530463307E+02  0.14530463307E+02  0.00000000000E+00 0. -1.
         21    1    1    2  503  501 -0.16824037975E+02 -0.13096146087E+02  0.88281785848E+01  0.23075832233E+02  0.00000000000E+00 0. -1.
          1    1    1    2  501    0  0.16824037975E+02  0.13096146087E+02  0.79362690703E+01  0.22749542036E+02  0.00000000000E+00 0. -1.
</event>
<event>
 4    1  0.1560907E+006  0.2268636E+02  0.7546771E-02  0.1496475E+00
         21   -1    0    0  503  502  0.00000000000E+00  0.00000000000E+00  0.13530620485E+03  0.13530620485E+03  0.00000000000E+00 0. -1.
         -2   -1    0    0    0  501 -0.00000000000E+00 -0.00000000000E+00 -0.93361678525E+01  0.93361678525E+01  0.00000000000E+00 0. -1.
         21    1    1    2  503  501 -0.20803890269E+02  0.90481440996E+01  0.11865726743E+03  0.12080653077E+03  0.00000000000E+00 0. -1.
         -2    1    1    2    0  502  0.20803890269E+02 -0.90481440996E+01  0.73127695662E+01  0.23835841934E+02  0.00000000000E+00 0. -1.
</event>
<event>
 4    1  0.1560907E+006  0.2079331E+02  0.7546771E-02  0.1522236E+00
         21   -1    0    0  503  502  0.00000000000E+00  0.00000000000E+00  0.57103748899E+01  0.57103748899E+01  0.00000000000E+00 0.  1.
         -1   -1    0    0    0  501 -0.00000000000E+00 -0.00000000000E+00 -0.76223477525E+02  0.76223477525E+02  0.00000000000E+00 0.  1.
         21    1    1    2  503  501 -0.15119433079E+02  0.14274610250E+02 -0.38602128510E+02  0.43846163800E+02  0.00000000000E+00 0.  1.
         -1    1    1    2    0  502  0.15119433079E+02 -0.14274610250E+02 -0.31910974125E+02  0.38087688615E+02  0.00000000000E+00 0.  1.
</event>
<event>
 4    1  0.1560907E+006  0.2689180E+02  0.7546771E-02  0.1448698E+00
         21   -1    0    0  501  502  0.00000000000E+00  0.00000000000E+00  0.41617849035E+03  0.41617849035E+03  0.00000000000E+00 0.  1.
          2   -1    0    0  503    0 -0.00000000000E+00 -0.00000000000E+00 -0.42350500434E+03  0.42350500434E+03  0.00000000000E+00 0.  1.
         21    1    1    2  503  502 -0.26207331275E+02 -0.60286703589E+01  0.41531629940E+03  0.41618601325E+03  0.00000000000E+00 0.  1.
          2    1    1    2  501    0  0.26207331275E+02  0.60286703589E+01 -0.42264281338E+03  0.42349748144E+03  0.00000000000E+00 0.  1.
</event>
<event>
 4    1  0.1560907E+006  0.2221625E+02  0.7546771E-02  0.1502581E+00
          2   -1    0    0  503    0 -0.00000000000E+00  0.00000000000E+00  0.50714289388E+03  0.50714289388E+03  0.00000000000E+00 0. -1.
         21   -1    0    0  501  502  0.00000000000E+00 -0.00000000000E+00 -0.40874944364E+01  0.40874944364E+01  0.00000000000E+00 0. -1.
         21    1    1    2  503  502 -0.21899163078E+02 -0.37400932572E+01  0.28408720740E+02  0.36064068755E+02  0.00000000000E+00 0. -1.
          2    1    1    2  501    0  0.21899163078E+02  0.37400932572E+01  0.47464667871E+03  0.47516631956E+03  0.00000000000E+00 0. -1.
</event>
<event>
 4    1  0.1560907E+006  0.4083740E+02  0.7546771E-02  0.1343647E+00
          2   -1    0    0  503    0 -0.00000000000E+00  0.00000000000E+00  0.11589810533E+04  0.11589810533E+04  0.00000000000E+00 0. -1.
         21   -1    0    0  501  502  0.00000000000E+00 -0.00000000000E+00 -0.91929943265E+01  0.91929943265E+01  0.00000000000E+00 0.  1.
         21    1    1    2  503  502 -0.33861208500E+02  0.22827879349E+02  0.38463187322E+02  0.56099111362E+02  0.00000000000E+00 0.  1.
          2    1    1    2  501    0  0.33861208500E+02 -0.22827879349E+02  0.11113248716E+04  0.11120749363E+04  0.00000000000E+00 0. -1.
</event>
<event>
 4    1  0.1560907E+006  0.2121570E+02  0.7546771E-02  0.1516207E+00
          2   -1    0    0  502    0 -0.00000000000E+00  0.00000000000E+00  0.42817598889E+03  0.42817598889E+03  0.00000000000E+00 0.  1.
         21   -1    0    0  503  502  0.00000000000E+00 -0.00000000000E+00 -0.21870053069E+01  0.21870053069E+01  0.00000000000E+00 0. -1.
         21    1    1    2  503  501  0.16337001512E+02 -0.13535442529E+02  0.57924155836E+02  0.61687224384E+02  0.00000000000E+00 0. -1.
          2    1    1    2  501    0 -0.16337001512E+02  0.13535442529E+02  0.36806482775E+03  0.36867576982E+03  0.00000000000E+00 0.  1.
</event>
<event>
 4    1  0.1560907E+006  0.2632981E+02  0.7546771E-02  0.1454459E+00
          4   -1    0    0  502    0 -0.00000000000E+00  0.00000000000E+00  0.14274330439E+03  0.14274330439E+03  0.00000000000E+00 0.  1.
         21   -1    0    0  503  502  0.00000000000E+00 -0.00000000000E+00 -0.46920189444E+02  0.46920189444E+02  0.00000000000E+00 0. -1.
         21    1    1    2  503  501  0.19615827625E+02 -0.17563546783E+02 -0.41878161622E+02  0.49467557953E+02  0.00000000000E+00 0. -1.
          4    1    1    2  501    0 -0.19615827625E+02  0.17563546783E+02  0.13770127657E+03  0.14019593588E+03  0.00000000000E+00 0.  1.
</event>
<event>
 4    1  0.1560907E+006  0.2506505E+02  0.7546771E-02  0.1468077E+00
         21   -1    0    0  501  502  0.00000000000E+00  0.00000000000E+00  0.49044595630E+01  0.49044595630E+01  0.00000000000E+00 0.  1.
         -3   -1    0    0    0  501 -0.00000000000E+00 -0.00000000000E+00 -0.18974332720E+03  0.18974332720E+03  0.00000000000E+00 0.  1.
         21    1    1    2  503  502 -0.17343766254E+02  0.18095598583E+02 -0.36946340799E+02  0.44646265402E+02  0.00000000000E+00 0.  1.
         -3    1    1    2    0  503  0.17343766254E+02 -0.18095598583E+02 -0.14789252684E+03  0.15000152136E+03  0.00000000000E+00 0.  1.
</event>
<event>
 4    1  0.1560907E+006  0.2331545E+02  0.7546771E-02  0.1488575E+00
         21   -1    0    0  501  502  0.00000000000E+00  0.00000000000E+00  0.13501340478E+03  0.13501340478E+03  0.00000000000E+00 0. -1.
         -4   -1    0    0    0  501 -0.00000000000E+00 -0.00000000000E+00 -0.32513837019E+03  0.32513837019E+03  0.00000000000E+00 0.  1.
         21    1    1    2  503  502  0.19141416619E+02 -0.13312269218E+02  0.13358439726E+03  0.13560384041E+03  0.00000000000E+00 0. -1.
         -4    1    1    2    0  503 -0.19141416619E+02  0.13312269218E+02 -0.32370936268E+03  0.32454793456E+03  0.00000000000E+00 0.  1.
</event>
<event>
 4    1  0.1560907E+006  0.2369482E+02  0.7546771E-02  0.1483953E+00
          2   -1    0    0  502    0 -0.00000000000E+00  0.00000000000E+00  0.43551039798E+02  0.43551039798E+02  0.00000000000E+00 0. -1.
         21   -1    0    0  503  502  0.00000000000E+00 -0.00000000000E+00 -0.46263005114E+02  0.46263005114E+02  0.00000000000E+00 0.  1.
         21    1    1    2  503  501 -0.21561427386E+02  0.98259480924E+01 -0.39496301092E+02  0.46058682209E+02  0.00000000000E+00 0.  1.
          2    1    1    2  501    0  0.21561427386E+02 -0.98259480924E+01  0.36784335776E+02  0.43755362704E+02  0.00000000000E+00 0. -1.
</event>
<event>
 4    1  0.1560907E+006  0.2488697E+02  0.7546771E-02  0.1470072E+00
         -4   -1    0    0    0  501 -0.00000000000E+00  0.00000000000E+00  0.76288966652E+01  0.76288966652E+01  0.00000000000E+00 0. -1.
         21   -1    0    0  503  502  0.00000000000E+00 -0.00000000000E+00 -0.85012762475E+02  0.85012762475E+02  0.00000000000E+00 0. -1.
         21    1    1    2  503  501 -0.14700571927E+02  0.20081196334E+02 -0.48519311696E+02  0.54529669618E+02  0.00000000000E+00 0. -1.
         -4    1    1    2    0  502  0.14700571927E+02 -0.20081196334E+02 -0.28864554114E+02  0.38111989522E+02  0.00000000000E+00 0. -1.
</event>
<event>
 4    1  0.1560907E+006  0.2124072E+02  0.7546771E-02  0.1515856E+00
         21   -1    0    0  503  502  0.00000000000E+00  0.00000000000E+00  0.58904128022E+02  0.58904128022E+02  0.00000000000E+00 0. -1.
         -3   -1    0    0    0  501 -0.00000000000E+00 -0.00000000000E+00 -0.11747377626E+02  0.11747377626E+02  0.00000000000E+00 0.  1.
         21    1    1    2  503  501 -0.20336368111E+02  0.61319007629E+01  0.44417390950E+02  0.49234872740E+02  0.00000000000E+00 0. -1.
         -3    1    1    2    0  502  0.20336368111E+02 -0.61319007629E+01  0.27393594467E+01  0.21416632908E+02  0.00000000000E+00 0.  1.
</event>
<event>
 4    1  0.1560907E+006  0.2046729E+02  0.7546771E-02  0.1527008E+00
          2   -1    0    0  503    0 -0.00000000000E+00  0.00000000000E+00  0.15136038767E+02  0.15136038767E+02  0.00000000000E+00 0.  1.
         21   -1    0    0  501  502  0.00000000000E+00 -0.00000000000E+00 -0.54447671470E+02  0.54447671470E+02  0.00000000000E+00 0.  1.
         21    1    1    2  503  502  0.69781510746E+01  0.19240985844E+02 -0.44052058221E+02  0.48574622615E+02  0.00000000000E+00 0.  1.
          2    1    1    2  501    0 -0.69781510746E+01 -0.19240985844E+02  0.47404255178E+01  0.21009087623E+02  0.00000000000E+00 0.  1.
</event>
<event>
 4    1  0.1560907E+006  0.2878614E+02  0.7546771E-02  0.1430446E+00
         21   -1    0    0  501  502  0.00000000000E+00  0.00000000000E+00  0.32331630695E+02  0.32331630695E+02  0.00000000000E+00 0. -1.
          2   -1    0    0  503    0 -0.00000000000E+00 -0.00000000000E+00 -0.61581620608E+02  0.61581620608E+02  0.00000000000E+00 0.  1.
         21    1    1    2  503  502  0.27719571185E+02  0.77631844899E+01  0.21253476202E+02  0.35782005405E+02  0.00000000000E+00 0. -1.
          2    1    1    2  501    0 -0.27719571185E+02 -0.77631844899E+01 -0.50503466115E+02  0.58131245899E+02  0.00000000000E+00 0.  1.
</event>
<event>
 4    1  0.1560907E+006  0.4975927E+02  0.7546771E-02  0.1299220E+00
         21   -1    0    0  501  502  0.00000000000E+00  0.00000000000E+00  0.11929579078E+03  0.11929579078E+03  0.00000000000E+00 0. -1.
          2   -1    0    0  503    0 -0.00000000000E+00 -0.00000000000E+00 -0.10401304742E+04  0.10401304742E+04  0.00000000000E+00 0. -1.
         21    1    1    2  503  502  0.49637275369E+02 -0.34821732219E+01  0.11348278112E+03  0.12391257502E+03  0.00000000000E+00 0. -1.
          2    1    1    2  501    0 -0.49637275369E+02  0.34821732219E+01 -0.10343174646E+04  0.10355136900E+04  0.00000000000E+00 0. -1.
</event>
<event>
 4    1  0.1560907E+006  0.3416435E+02  0.7546771E-02  0.1386535E+00
         21   -1    0    0  501  502  0.00000000000E+00  0.00000000000E+00  0.48472475751E+01  0.48472475751E+01  0.00000000000E+00 0.  1.
         -2   -1    0    0    0  501 -0.00000000000E+00 -0.00000000000E+00 -0.29660705870E+03  0.29660705870E+03  0.00000000000E+00 0. -1.
         21    1    1    2  503  502 -0.96690324790E+01  0.32767557714E+02 -0.80498129849E+02  0.87447995613E+02  0.00000000000E+00 0.  1.
         -2    1    1    2    0  503  0.96690324790E+01 -0.32767557714E+02 -0.21126168128E+03  0.21400631066E+03  0.00000000000E+00 0. -1.
</event>
<event>
 4    1  0.1560907E+006  0.2115334E+02  0.7546771E-02  0.1517087E+00
         21   -1    0    0  501  502  0.00000000000E+00  0.00000000000E+00  0.69878620788E+02  0.69878620788E+02  0.00000000000E+00 0.  1.
         -1   -1    0    0    0  501 -0.00000000000E+00 -0.00000000000E+00 -0.96151250257E+01  0.96151250257E+01  0.00000000000E+00 0. -1.
         21    1    1    2  503  502  0.16894725846E+02 -0.12729186494E+02  0.53103366096E+02  0.57161450655E+02  0.00000000000E+00 0.  1.
         -1    1    1    2    0  503 -0.16894725846E+02  0.12729186494E+02  0.71601296658E+01  0.22332295159E+02  0.00000000000E+00 0. -1.
</event>
<event>
 4    1  0.1560907E+006  0.3505681E+02  0.7546771E-02  0.1380164E+00
         -2   -1    0    0    0  501 -0.00000000000E+00  0.00000000000E+00  0.42112289893E+01  0.42112289893E+01  0.00000000000E+00 0. -1.
         21   -1    0    0  501  502  0.00000000000E+00 -0.00000000000E+00 -0.38775218969E+03  0.38775218969E+03  0.00000000000E+00 0.  1.
         21    1    1    2  503  502 -0.27499071299E+02 -0.21743529663E+02 -0.28924448049E+03  0.29136120109E+03  0.00000000000E+00 0.  1.
         -2    1    1    2    0  503  0.27499071299E+02  0.21743529663E+02 -0.94296480210E+02  0.10060221759E+03  0.00000000000E+00 0. -1.
</event>
<event>
 4    1  0.1560907E+006  0.2202900E+02  0.7546771E-02  0.1505065E+00
         21   -1    0    0  503  502  0.00000000000E+00  0.00000000000E+00  0.14644827902E+01  0.14644827902E+01  0.00000000000E+00 0. -1.
         -4   -1    0    0    0  501 -0.00000000000E+00 -0.00000000000E+00 -0.44455792728E+03  0.44455792728E+03  0.00000000000E+00 0. -1.
         21    1    1    2  503  501 -0.77245748483E+01  0.20630258663E+02 -0.10901514876E+03  0.11121861035E+03  0.00000000000E+00 0. -1.
         -4    1    1    2    0  502  0.77245748483E+01 -0.20630258663E+02 -0.33407829573E+03  0.33480379972E+03  0.00000000000E+00 0. -1.
</event>
<event>
 4    1  0.1560907E+006  0.3693447E+02  0.7546771E-02  0.1367451E+00
         21   -1    0    0  503  502  0.00000000000E+00  0.00000000000E+00  0.19833433256E+03  0.19833433256E+03  0.00000000000E+00 0.  1.
         -2   -1    0    0    0  501 -0.00000000000E+00 -0.00000000000E+00 -0.39709369787E+02  0.39709369787E+02  0.00000000000E+00 0. -1.
         21    1    1    2  503  501  0.51810838438E+01 -0.36569265806E+02  0.18753666743E+03  0.19113910239E+03  0.00000000000E+00 0.  1.
         -2    1    1    2    0  502 -0.51810838438E+01  0.36569265806E+02 -0.28911704655E+02  0.46904599960E+02  0.00000000000E+00 0. -1.
</event>
<event>
 4    1  0.1560907E+006  0.2615063E+02  0.7546771E-02  0.1456332E+00
         21   -1    0    0  501  502  0.00000000000E+00  0.00000000000E+00  0.35678238116E+01  0.35678238116E+01  0.00000000000E+00 0. -1.
          2   -1    0    0  503    0 -0.00000000000E+00 -0.00000000000E+00 -0.88563438451E+03  0.88563438451E+03  0.00000000000E+00 0. -1.
         21    1    1    2  503  502  0.23458463345E+01  0.26045195565E+02 -0.47473255183E+02  0.54199309633E+02  0.00000000000E+00 0. -1.
          2    1    1    2  501    0 -0.23458463345E+01 -0.26045195565E+02 -0.83459330552E+03  0.83500289869E+03  0.00000000000E+00 0. -1.
</event>
<event>
 4    1  0.1560907E+006  0.2140794E+02  0.7546771E-02  0.1513520E+00
         -2   -1    0    0    0  501 -0.00000000000E+00  0.00000000000E+00  0.14430622416E+02  0.14430622416E+02  0.00000000000E+00 0.  1.
         21   -1    0    0  503  502  0.00000000000E+00 -0.00000000000E+00 -0.56290124673E+02  0.56290124673E+02  0.00000000000E+00 0. -1.
         21    1    1    2  503  501 -0.21392219714E+02 -0.82015470003E+00 -0.44272981324E+02  0.49177195867E+02  0.00000000000E+00 0. -1.
         -2    1    1    2    0  502  0.21392219714E+02  0.82015470003E+00  0.24134790671E+01  0.21543551221E+02  0.00000000000E+00 0.  1.
</event>
<event>
 4    1  0.1560907E+006  0.2386775E+02  0.7546771E-02  0.1481880E+00
          1   -1    0    0  502    0 -0.00000000000E+00  0.00000000000E+00  0.68553394764E+03  0.68553394764E+03  0.00000000000E+00 0. -1.
         21   -1    0    0  503  502  0.00000000000E+00 -0.00000000000E+00 -0.19618117540E+01  0.19618117540E+01  0.00000000000E+00 0. -1.
         21    1    1    2  503  501  0.23824939678E+02  0.14288573520E+01  0.80804923406E+02  0.84256186898E+02  0.00000000000E+00 0. -1.
          1    1    1    2  501    0 -0.23824939678E+02 -0.14288573520E+01  0.60276721248E+03  0.60323957250E+03  0.00000000000E+00 0. -1.
</event>
<event>
 4    1  0.1560907E+006  0.2383437E+02  0.7546771E-02  0.1482278E+00
         21   -1    0    0  501  502  0.00000000000E+00  0.00000000000E+00  0.46727126616E+03  0.46727126616E+03  0.00000000000E+00 0. -1.
          3   -1    0    0  503    0 -0.00000000000E+00 -0.00000000000E+00 -0.10421991694E+02  0.10421991694E+02  0.00000000000E+00 0.  1.
         21    1    1    2  503  502  0.23690092122E+02  0.26185653969E+01  0.45290860461E+03  0.45353531448E+03  0.00000000000E+00 0. -1.
          3    1    1    2  501    0 -0.23690092122E+02 -0.26185653969E+01  0.39406698623E+01  0.24157943382E+02  0.00000000000E+00 0.  1.
</event>
<event>
 4    1  0.1560907E+006  0.3763872E+02  0.7546771E-02  0.1362907E+00
         21   -1    0    0  503  502  0.00000000000E+00  0.00000000000E+00  0.21474959762E+03  0.21474959762E+03  0.00000000000E+00 0. -1.
         -2   -1    0    0    0  501 -0.00000000000E+00 -0.00000000000E+00 -0.19739868616E+03  0.19739868616E+03  0.00000000000E+00 0. -1.
         21    1    1    2  503  501 -0.23323526834E+02  0.29541267801E+02  0.21127694466E+03  0.21460340341E+03  0.00000000000E+00 0. -1.
         -2    1    1    2    0  502  0.23323526834E+02 -0.29541267801E+02 -0.19392603320E+03  0.19754488037E+03  0.00000000000E+00 0. -1.
</event>
<event>
 4    1  0.1560907E+006  0.2296355E+02  0.7546771E-02  0.1492956E+00
          1   -1    0    0  503    0 -0.00000000000E+00  0.00000000000E+00  0.46634026520E+03  0.46634026520E+03  0.00000000000E+00 0.  1.
         21   -1    0    0  501  502  0.00000000000E+00 -0.00000000000E+00 -0.37703617803E+01  0.37703617803E+01  0.00000000000E+00 0.  1.
         21    1    1    2  503  502 -0.22869326269E+02  0.20781425835E+01  0.34611048702E+02  0.41536122265E+02  0.00000000000E+00 0.  1.
          1    1    1    2  501    0  0.22869326269E+02 -0.20781425835E+01  0.42795885472E+03  0.42857450472E+03  0.00000000000E+00 0.  1.
</event>
<event>
 4    1  0.1560907E+006  0.2585998E+02  0.7546771E-02  0.1459409E+00
         -1   -1    0    0    0  501 -0.00000000000E+00  0.00000000000E+00  0.23821856017E+03  0.23821856017E+03  0.00000000000E+00 0. -1.
         21   -1    0    0  501  502  0.00000000000E+00 -0.00000000000E+00 -0.72949016963E+02  0.72949016963E+02  0.00000000000E+00 0. -1.
         21    1    1    2  503  502 -0.52525091573E+01 -0.25320936378E+02 -0.69926035185E+02  0.74554604608E+02  0.00000000000E+00 0. -1.
         -1    1    1    2    0  503  0.52525091573E+01  0.25320936378E+02  0.23519557839E+03  0.23661297252E+03  0.00000000000E+00 0. -1.
</event>
<event>
 4    1  0.1560907E+006  0.3445023E+02  0.7546771E-02  0.1384470E+00
          1   -1    0    0  502    0 -0.00000000000E+00  0.00000000000E+00  0.89029123880E+03  0.89029123880E+03  0.00000000000E+00 0. -1.
         21   -1    0    0  503  502  0.00000000000E+00 -0.00000000000E+00 -0.45258940775E+02  0.45258940775E+02  0.00000000000E+00 0. -1.
         21    1    1    2  503  501 -0.28492886579E+02  0.19364246452E+02 -0.38318471607E+02  0.51527894315E+02  0.00000000000E+00 0. -1.
          1    1    1    2  501    0  0.28492886579E+02 -0.19364246452E+02  0.88335076963E+03  0.88402228526E+03  0.00000000000E+00 0. -1.
</event>
<event>
 4    1  0.1560907E+006  0.2854081E+02  0.7546771E-02  0.1432715E+00
          2   -1    0    0  503    0 -0.00000000000E+00  0.00000000000E+00  0.10407331840E+03  0.10407331840E+03  0.00000000000E+00 0. -1.
         21   -1    0    0  501  502  0.00000000000E+00 -0.00000000000E+00 -0.36700271472E+02  0.36700271472E+02  0.00000000000E+00 0.  1.
         21    1    1    2  503  502  0.24248097638E+02 -0.15053490181E+02 -0.28745130700E+02  0.40507534418E+02  0.00000000000E+00 0.  1.
          2    1    1    2  501    0 -0.24248097638E+02  0.15053490181E+02  0.96118177631E+02  0.10026605546E+03  0.00000000000E+00 0. -1.
</event>
<event>
 4    1  0.1560907E+006  0.2203798E+02  0.7546771E-02  0.1504945E+00
         21   -1    0    0  503  502  0.00000000000E+00  0.00000000000E+00  0.48619769688E+02  0.48619769688E+02  0.00000000000E+00 0.  1.
         -4   -1    0    0    0  501 -0.00000000000E+00 -0.00000000000E+00 -0.19733135037E+02  0.19733135037E+02  0.00000000000E+00 0.  1.
         21    1    1    2  503  501 -0.42359743727E+01  0.21627040802E+02  0.38459071591E+02  0.44325755046E+02  0.00000000000E+00 0.  1.
         -4    1    1    2    0  502  0.42359743727E+01 -0.21627040802E+02 -0.95724369402E+01  0.24027149680E+02  0.00000000000E+00 0.  1.
</event>
<event>
 4    1  0.1560907E+006  0.3098717E+02  0.7546771E-02  0.1411207E+00
         -1   -1    0    0    0  501 -0.00000000000E+00  0.00000000000E+00  0.17728334698E+02  0.17728334698E+02  0.00000000000E+00 0. -1.
         21   -1    0    0  503  502  0.00000000000E+00 -0.00000000000E+00 -0.36053990959E+03  0.36053990959E+03  0.00000000000E+00 0.  1.
         21    1    1    2  503  501  0.17808074223E+02  0.25358971621E+02 -0.34575573628E+03  0.34714151887E+03  0.00000000000E+00 0.  1.
         -1    1    1    2    0  502 -0.17808074223E+02 -0.25358971621E+02  0.29441613896E+01  0.31126725422E+02  0.00000000000E+00 0. -1.
</event>
<event>
 4    1  0.1560907E+006  0.7044536E+02  0.7546771E-02  0.1227955E+00
          4   -1    0    0  502    0 -0.00000000000E+00  0.00000000000E+00  0.43588584382E+02  0.43588584382E+02  0.00000000000E+00 0. -1.
         21   -1    0    0  503  502  0.00000000000E+00 -0.00000000000E+00 -0.17457059054E+03  0.17457059054E+03  0.00000000000E+00 0.  1.
         21    1    1    2  503  501 -0.98188902103E+01  0.69757708616E+02 -0.12982298170E+03  0.14770428259E+03  0.00000000000E+00 0.  1.
          4    1    1    2  501    0  0.98188902103E+01 -0.69757708616E+02 -0.11590244569E+01  0.70454892336E+02  0.00000000000E+00 0. -1.
</event>
<event>
 4    1  0.1560907E+006  0.2152848E+02  0.7546771E-02  0.1511852E+00
         -1   -1    0    0    0  501 -0.00000000000E+00  0.00000000000E+00  0.35214286599E+01  0.35214286599E+01  0.00000000000E+00 0.  1.
         21   -1    0    0  501  502  0.00000000000E+00 -0.00000000000E+00 -0.18452758379E+03  0.18452758379E+03  0.00000000000E+00 0. -1.
         21    1    1    2  503  502 -0.20122735170E+02  0.76518579905E+01 -0.14085162031E+03  0.14248738311E+03  0.00000000000E+00 0. -1.
         -1    1    1    2    0  503  0.20122735170E+02 -0.76518579905E+01 -0.40154534811E+02  0.45561629332E+02  0.00000000000E+00 0.  1.
</event>
<event>
 4    1  0.1560907E+006  0.6729653E+02  0.7546771E-02  0.1236872E+00
          2   -1    0    0  503    0 -0.00000000000E+00  0.00000000000E+00  0.10099250713E+04  0.10099250713E+04  0.00000000000E+00 0. -1.
         21   -1    0    0  501  502  0.00000000000E+00 -0.00000000000E+00 -0.40499353316E+02  0.40499353316E+02  0.00000000000E+00 0. -1.
         21    1    1    2  503  502  0.15550360039E+02  0.65475261090E+02 -0.10569322586E+02  0.68121465722E+02  0.00000000000E+00 0. -1.
          2    1    1    2  501    0 -0.15550360039E+02 -0.65475261090E+02  0.97999504060E+03  0.98230295892E+03  0.00000000000E+00 0. -1.
</event>
<event>
 4    1  0.1560907E+006  0.2221031E+02  0.7546771E-02  0.1502660E+00
         -1   -1    0    0    0  501 -0.00000000000E+00  0.00000000000E+00  0.80799755194E+02  0.80799755194E+02  0.00000000000E+00 0. -1.
         21   -1    0    0  501  502  0.00000000000E+00 -0.00000000000E+00 -0.60026166322E+02  0.60026166322E+02  0.00000000000E+00 0.  1.
         21    1    1    2  503  502  0.11448340523E+02 -0.19032430658E+02 -0.56349359320E+02  0.60568541449E+02  0.00000000000E+00 0.  1.
         -1    1    1    2    0  503 -0.11448340523E+02  0.19032430658E+02  0.77122948192E+02  0.80257380068E+02  0.00000000000E+00 0. -1.
</event>
<event>
 4    1  0.1560907E+006  0.2100051E+02  0.7546771E-02  0.1519257E+00
         -4   -1    0    0    0  501 -0.00000000000E+00  0.00000000000E+00  0.29547768200E+03  0.29547768200E+03  0.00000000000E+00 0.  1.
         21   -1    0    0  503  502  0.00000000000E+00 -0.00000000000E+00 -0.34928312908E+02  0.34928312908E+02  0.00000000000E+00 0.  1.
         21    1    1    2  503  501  0.18717296018E+01 -0.20916933838E+02 -0.31360014489E+02  0.37742178019E+02  0.00000000000E+00 0.  1.
         -4    1    1    2    0  502 -0.18717296018E+01  0.20916933838E+02  0.29190938358E+03  0.29266381689E+03  0.00000000000E+00 0.  1.
</event>
<event>
 4    1  0.1560907E+006  0.2035390E+02  0.7546771E-02  0.1528693E+00
         21   -1    0    0  503  502  0.00000000000E+00  0.00000000000E+00  0.15056200574E+02  0.15056200574E+02  0.00000000000E+00 0. -1.
          1   -1    0    0  502    0 -0.00000000000E+00 -0.00000000000E+00 -0.28601840870E+02  0.28601840870E+02  0.00000000000E+00 0. -1.
         21    1    1    2  503  501  0.15316803224E+02 -0.13404350999E+02 -0.11026757721E+02  0.23148876270E+02  0.00000000000E+00 0. -1.
          1    1    1    2  501    0 -0.15316803224E+02  0.13404350999E+02 -0.25188825749E+01  0.20509165174E+02  0.00000000000E+00 0. -1.
</event>
<event>
 4    1  0.1560907E+006  0.2858786E+02  0.7546771E-02  0.1432278E+00
         21   -1    0    0  501  502  0.00000000000E+00  0.00000000000E+00  0.34135342154E+03  0.34135342154E+03  0.00000000000E+00 0.  1.
         -4   -1    0    0    0  501 -0.00000000000E+00 -0.00000000000E+00 -0.22065149988E+02  0.22065149988E+02  0.00000000000E+00 0.  1.
         21    1    1    2  503  502 -0.19052581873E+02  0.21313483874E+02  0.33121219556E+03  0.33244365531E+03  0.00000000000E+00 0.  1.
         -4    1    1    2    0  503  0.19052581873E+02 -0.21313483874E+02 -0.11923924005E+02  0.30974916216E+02  0.00000000000E+00 0.  1.
</event>
<event>
 4    1  0.1560907E+006  0.3223902E+02  0.7546771E-02  0.1401087E+00
         21   -1    0    0  503  502  0.00000000000E+00  0.00000000000E+00  0.39202655363E+03  0.39202655363E+03  0.00000000000E+00 0. -1.
         -2   -1    0    0    0  501 -0.00000000000E+00 -0.00000000000E+00 -0.42627696045E+02  0.42627696045E+02  0.00000000000E+00 0.  1.
         21    1    1    2  503  501 -0.11478960662E+02  0.30126197959E+02  0.38515972598E+03  0.38650662201E+03  0.00000000000E+00 0. -1.
         -2    1    1    2    0  502  0.11478960662E+02 -0.30126197959E+02 -0.35760868395E+02  0.48147627664E+02  0.00000000000E+00 0.  1.
</event>
<event>
 4    1  0.1560907E+006  0.2072950E+02  0.7546771E-02  0.1523162E+00
          2   -1    0    0  502    0 -0.00000000000E+00  0.00000000000E+00  0.11476471852E+04  0.11476471852E+04  0.00000000000E+00 0.  1.
         21   -1    0    0  503  502  0.00000000000E+00 -0.00000000000E+00 -0.69599431492E+00  0.69599431492E+00  0.00000000000E+00 0.  1.
         21    1    1    2  503  501  0.47696092797E+01 -0.20173324129E+02  0.18319804052E+03  0.18436711808E+03  0.00000000000E+00 0.  1.
          2    1    1    2  501    0 -0.47696092797E+01  0.20173324129E+02  0.96375315041E+03  0.96397606148E+03  0.00000000000E+00 0.  1.
</event>
<event>
 4    1  0.1560907E+006  0.2501327E+02  0.7546771E-02  0.1468655E+00
          4   -1    0    0  502    0 -0.00000000000E+00  0.00000000000E+00  0.88142166890E+02  0.88142166890E+02  0.00000000000E+00 0. -1.
         21   -1    0    0  503  502  0.00000000000E+00 -0.00000000000E+00 -0.22258168787E+02  0.22258168787E+02  0.00000000000E+00 0. -1.
         21    1    1    2  503  501  0.45864034046E+01  0.24589200565E+02 -0.12613698277E+02  0.28013733505E+02  0.00000000000E+00 0. -1.
          4    1    1    2  501    0 -0.45864034046E+01 -0.24589200565E+02  0.78497696380E+02  0.82386602173E+02  0.00000000000E+00 0. -1.
</event>
<event>
 4    1  0.1560907E+006  0.2610205E+02  0.7546771E-02  0.1456843E+00
          2   -1    0    0  502    0 -0.00000000000E+00  0.00000000000E+00  0.10995227658E+04  0.10995227658E+04  0.00000000000E+00 0.  1.
         21   -1    0    0  503  502  0.00000000000E+00 -0.00000000000E+00 -0.34233281090E+01  0.34233281090E+01  0.00000000000E+00 0.  1.
         21    1    1    2  503  501 -0.14948555321E+02  0.21397608026E+02  0.48976496081E+02  0.55497874768E+02  0.00000000000E+00 0.  1.
          2    1    1    2  501    0  0.14948555321E+02 -0.21397608026E+02  0.10471229416E+04  0.10474482191E+04  0.00000000000E+00 0.  1.
</event>
<event>
 4    1  0.1560907E+006  0.2151070E+02  0.7546771E-02  0.1512097E+00
         -1   -1    0    0    0  501 -0.00000000000E+00  0.00000000000E+00  0.40314009250E+03  0.40314009250E+03  0.00000000000E+00 0.  1.
         21   -1    0    0  503  502  0.00000000000E+00 -0.00000000000E+00 -0.23465545708E+03  0.23465545708E+03  0.00000000000E+00 0.  1.
         21    1    1    2  503  501  0.15630474062E+02  0.14778305441E+02 -0.23387459236E+03  0.23486173588E+03  0.00000000000E+00 0.  1.
         -1    1    1    2    0  502 -0.15630474062E+02 -0.14778305441E+02  0.40235922778E+03  0.40293381369E+03  0.00000000000E+00 0.  1.
</event>
<event>
 4    1  0.1560907E+006  0.2647544E+02  0.7546771E-02  0.1452950E+00
         -1   -1    0    0    0  501 -0.00000000000E+00  0.00000000000E+00  0.45717266037E+03  0.45717266037E+03  0.00000000000E+00 0. -1.
         21   -1    0    0  503  502  0.00000000000E+00 -0.00000000000E+00 -0.68829150550E+01  0.68829150550E+01  0.00000000000E+00 0. -1.
         21    1    1    2  503  501  0.19151924922E+02  0.18279842825E+02  0.20586115870E+02  0.33537099584E+02  0.00000000000E+00 0. -1.
         -1    1    1    2    0  502 -0.19151924922E+02 -0.18279842825E+02  0.42970362945E+03  0.43051847584E+03  0.00000000000E+00 0. -1.
</event>
<event>
 4    1  0.1560907E+006  0.2171067E+02  0.7546771E-02  0.1509356E+00
         21   -1    0    0  501  502  0.00000000000E+00  0.00000000000E+00  0.92671625919E+03  0.92671625919E+03  0.00000000000E+00 0.  1.
         -2   -1    0    0    0  501 -0.00000000000E+00 -0.00000000000E+00 -0.12465563566E+01  0.12465563566E+01  0.00000000000E+00 0. -1.
         21    1    1    2  503  502  0.11657776698E+02  0.18315277761E+02  0.81972146841E+03  0.82000892613E+03  0.00000000000E+00 0.  1.
         -2    1    1    2    0  503 -0.11657776698E+02 -0.18315277761E+02  0.10574823442E+03  0.10795388942E+03  0.00000000000E+00 0. -1.
</event>
<event>
 4    1  0.1560907E+006  0.2089134E+02  0.7546771E-02  0.1520822E+00
         21   -1    0    0  503  502  0.00000000000E+00  0.00000000000E+00  0.64338507885E+00  0.64338507885E+00  0.00000000000E+00 0. -1.
          2   -1    0    0  502    0 -0.00000000000E+00 -0.00000000000E+00 -0.89715950657E+03  0.89715950657E+03  0.00000000000E+00 0.  1.
         21    1    1    2  503  501 -0.19987626975E+02  0.60780464201E+01 -0.22657244012E+03  0.22753355467E+03  0.00000000000E+00 0. -1.
          2    1    1    2  501    0  0.19987626975E+02 -0.60780464201E+01 -0.66994368137E+03  0.67026933698E+03  0.00000000000E+00 0.  1.
</event>
<event>
 4    1  0.1560907E+006  0.2449417E+02  0.7546771E-02  0.1474542E+00
         21   -1    0    0  501  502  0.00000000000E+00  0.00000000000E+00  0.26202002792E+03  0.26202002792E+03  0.00000000000E+00 0. -1.
          3   -1    0    0  503    0 -0.00000000000E+00 -0.00000000000E+00 -0.11985990402E+02  0.11985990402E+02  0.00000000000E+00 0.  1.
         21    1    1    2  503  502 -0.13119610686E+02  0.20684300535E+02  0.24824078514E+03  0.24944629057E+03  0.00000000000E+00 0. -1.
          3    1    1    2  501    0  0.13119610686E+02 -0.20684300535E+02  0.17932523817E+01  0.24559727753E+02  0.00000000000E+00 0.  1.
</event>
<event>
 4    1  0.1560907E+006  0.2357513E+02  0.7546771E-02  0.1485400E+00
         21   -1    0    0  501  502  0.00000000000E+00  0.00000000000E+00  0.78983895435E+01  0.78983895435E+01  0.00000000000E+00 0.  1.
          2   -1    0    0  503    0 -0.00000000000E+00 -0.00000000000E+00 -0.49543243753E+03  0.49543243753E+03  0.00000000000E+00 0.  1.
         21    1    1    2  503  502  0.23545865755E+02 -0.11742716594E+01 -0.10657957624E+02  0.25872355300E+02  0.00000000000E+00 0.  1.
          2    1    1    2  501    0 -0.23545865755E+02  0.11742716594E+01 -0.47687609036E+03  0.47745847177E+03  0.00000000000E+00 0.  1.
</event>
<event>
 4    1  0.1560907E+006  0.2289605E+02  0.7546771E-02  0.1493808E+00
         21   -1    0    0  501  502  0.00000000000E+00  0.00000000000E+00  0.42517458282E+02  0.42517458282E+02  0.00000000000E+00 0. -1.
          2   -1    0    0  503    0 -0.00000000000E+00 -0.00000000000E+00 -0.11583418334E+03  0.11583418334E+03  0.00000000000E+00 0. -1.
         21    1    1    2  503  502 -0.44824759524E+01 -0.22452988626E+02  0.38185069911E+02  0.44523351772E+02  0.00000000000E+00 0. -1.
          2    1    1    2  501    0  0.44824759524E+01  0.22452988626E+02 -0.11150179497E+03  0.11382828985E+03  0.00000000000E+00 0. -1.
</event>
<event>
 4    1  0.1560907E+006  0.2930745E+02  0.7546771E-02  0.1425712E+00
         21   -1    0    0  501  502  0.00000000000E+00  0.00000000000E+00  0.43504242421E+01  0.43504242421E+01  0.00000000000E+00 0.  1.
          1   -1    0    0  503    0 -0.00000000000E+00 -0.00000000000E+00 -0.41758395448E+03  0.41758395448E+03  0.00000000000E+00 0.  1.
         21    1    1    2  503  502  0.23767048953E+02  0.17148005279E+02 -0.53437079927E+02  0.60946273160E+02  0.00000000000E+00 0.  1.
          1    1    1    2  501    0 -0.23767048953E+02 -0.17148005279E+02 -0.35979645031E+03  0.36098810556E+03  0.00000000000E+00 0.  1.
</event>
<event>
 4    1  0.1560907E+006  0.3956560E+02  0.7546771E-02  0.1351050E+00
         -2   -1    0    0    0  501 -0.00000000000E+00  0.00000000000E+00  0.79182604469E+02  0.79182604469E+02  0.00000000000E+00 0.  1.
         21   -1    0    0  503  502  0.00000000000E+00 -0.00000000000E+00 -0.17854799404E+03  0.17854799404E+03  0.00000000000E+00 0. -1.
         21    1    1    2  503  501 -0.10643771261E+02 -0.38107045321E+02 -0.17120435992E+03  0.17571673120E+03  0.00000000000E+00 0. -1.
         -2    1    1    2    0  502  0.10643771261E+02  0.38107045321E+02  0.71838970347E+02  0.82013867305E+02  0.00000000000E+00 0.  1.
</event>
<event>
 4    1  0.1560907E+006  0.3429975E+02  0.7546771E-02  0.1385554E+00
         -2   -1    0    0    0  501 -0.00000000000E+00  0.00000000000E+00  0.39380353945E+03  0.39380353945E+03  0.00000000000E+00 0.  1.
         21   -1    0    0  501  502  0.00000000000E+00 -0.00000000000E+00 -0.66492564023E+01  0.66492564023E+01  0.00000000000E+00 0. -1.
         21    1    1    2  503  502 -0.13480617942E+02 -0.31539593274E+02  0.44989808205E+02  0.56573455315E+02  0.00000000000E+00 0. -1.
         -2    1    1    2    0  503  0.13480617942E+02  0.31539593274E+02  0.34216447485E+03  0.34387934054E+03  0.00000000000E+00 0.  1.
</event>
<event>
 4    1  0.1560907E+006  0.2762757E+02  0.7546771E-02  0.1441404E+00
         -1   -1    0    0    0  501 -0.00000000000E+00  0.00000000000E+00  0.77021750092E+02  0.77021750092E+02  0.00000000000E+00 0.  1.
         21   -1    0    0  501  502  0.00000000000E+00 -0.00000000000E+00 -0.14182628380E+02  0.14182628380E+02  0.00000000000E+00 0. -1.
         21    1    1    2  503  502 -0.22545610740E+02 -0.15968030861E+02  0.63897913077E+01  0.28356868765E+02  0.00000000000E+00 0. -1.
         -1    1    1    2    0  503  0.22545610740E+02  0.15968030861E+02  0.56449330404E+02  0.62847509706E+02  0.00000000000E+00 0.  1.
</event>
<event>
 4    1  0.1560907E+006  0.2569684E+02  0.7546771E-02  0.1461157E+00
         21   -1    0    0  501  502  0.00000000000E+00  0.00000000000E+00  0.66627854660E+01  0.66627854660E+01  0.00000000000E+00 0. -1.
          2   -1    0    0  503    0 -0.00000000000E+00 -0.00000000000E+00 -0.15537054231E+04  0.15537054231E+04  0.00000000000E+00 0. -1.
         21    1    1    2  503  502  0.25546978390E+02  0.27712145044E+01 -0.18630168382E+02  0.31739737060E+02  0.00000000000E+00 0. -1.
          2    1    1    2  501    0 -0.25546978390E+02 -0.27712145044E+01 -0.15284124693E+04  0.15286284715E+04  0.00000000000E+00 0. -1.
</event>
<event>
 4    1  0.1560907E+006  0.2276455E+02  0.7546771E-02  0.1495476E+00
          1   -1    0    0  503    0 -0.00000000000E+00  0.00000000000E+00  0.51153879900E+03  0.51153879900E+03  0.00000000000E+00 0. -1.
         21   -1    0    0  501  502  0.00000000000E+00 -0.00000000000E+00 -0.34227237895E+01  0.34227237895E+01  0.00000000000E+00 0. -1.
         21    1    1    2  503  502 -0.13904322723E+02  0.18024830745E+02  0.38017044747E+02  0.44311628328E+02  0.00000000000E+00 0. -1.
          1    1    1    2  501    0  0.13904322723E+02 -0.18024830745E+02  0.47009903046E+03  0.47064989446E+03  0.00000000000E+00 0. -1.
</event>
<event>
 4    1  0.1560907E+006  0.3434372E+02  0.7546771E-02  0.1385237E+00
         -2   -1    0    0    0  501 -0.00000000000E+00  0.00000000000E+00  0.21295589820E+03  0.21295589820E+03  0.00000000000E+00 0. -1.
         21   -1    0    0  503  502  0.00000000000E+00 -0.00000000000E+00 -0.11238386360E+02  0.11238386360E+02  0.00000000000E+00 0. -1.
         21    1    1    2  503  501 -0.30765865012E+02 -0.15262785593E+02  0.21028149346E+02  0.40270015382E+02  0.00000000000E+00 0. -1.
         -2    1    1    2    0  502  0.30765865012E+02  0.15262785593E+02  0.18068936250E+03  0.18392426918E+03  0.00000000000E+00 0. -1.
</event>
<event>
 4    1  0.1560907E+006  0.2095741E+02  0.7546771E-02  0.1519874E+00
          1   -1    0    0  503    0 -0.00000000000E+00  0.00000000000E+00  0.20445140317E+03  0.20445140317E+03  0.00000000000E+00 0.  1.
         21   -1    0    0  501  502  0.00000000000E+00 -0.00000000000E+00 -0.41077621585E+01  0.41077621585E+01  0.00000000000E+00 0. -1.
         21    1    1    2  503  502  0.27546995745E+01  0.20775576476E+02  0.28148937607E+02  0.35093811934E+02  0.00000000000E+00 0. -1.
          1    1    1    2  501    0 -0.27546995745E+01 -0.20775576476E+02  0.17219470340E+03  0.17346535339E+03  0.00000000000E+00 0.  1.
</event>
<event>
 4    1  0.1560907E+006  0.6753830E+02  0.7546771E-02  0.1236168E+00
          3   -1    0    0  503    0 -0.00000000000E+00  0.00000000000E+00  0.37960689427E+02  0.37960689427E+02  0.00000000000E+00 0.  1.
         21   -1    0    0  501  502  0.00000000000E+00 -0.00000000000E+00 -0.13343748601E+03  0.13343748601E+03  0.00000000000E+00 0.  1.
         21    1    1    2  503  502 -0.36540540522E+02  0.56799739919E+02 -0.20707085105E+02  0.70641382561E+02  0.00000000000E+00 0.  1.
          3    1    1    2  501    0  0.36540540522E+02 -0.56799739919E+02 -0.74769711482E+02  0.10075679288E+03  0.00000000000E+00 0.  1.
</event>
<event>
 4    1  0.1560907E+006  0.2627138E+02  0.7546771E-02  0.1455068E+00
         -2   -1    0    0    0  501 -0.00000000000E+00  0.00000000000E+00  0.11402101076E+02  0.11402101076E+02  0.00000000000E+00 0.  1.
         21   -1    0    0  501  502  0.00000000000E+00 -0.00000000000E+00 -0.13171567386E+04  0.13171567386E+04  0.00000000000E+00 0.  1.
         21    1    1    2  503  502 -0.69004686192E+01  0.25348948202E+02 -0.13017133623E+04  0.13019784419E+04  0.00000000000E+00 0.  1.
         -2    1    1    2    0  503  0.69004686192E+01 -0.25348948202E+02 -0.40412752865E+01  0.26580397816E+02  0.00000000000E+00 0.  1.
</event>
<event>
 4    1  0.1560907E+006  0.4784076E+02  0.7546771E-02  0.1307816E+00
          2   -1    0    0  503    0 -0.00000000000E+00  0.00000000000E+00  0.30052557892E+04  0.30052557892E+04  0.00000000000E+00 0. -1.
         21   -1    0    0  501  502  0.00000000000E+00 -0.00000000000E+00 -0.60532302398E+01  0.60532302398E+01  0.00000000000E+00 0.  1.
         21    1    1    2  503  502 -0.15970782375E+02 -0.45096254074E+02  0.91845359760E+02  0.10355823546E+03  0.00000000000E+00 0.  1.
          2    1    1    2  501    0  0.15970782375E+02  0.45096254074E+02  0.29073571992E+04  0.29077507839E+04  0.00000000000E+00 0. -1.
</event>
<event>
 4    1  0.1560907E+006  0.2116186E+02  0.7546771E-02  0.1516966E+00
         21   -1    0    0  503  502  0.00000000000E+00  0.00000000000E+00  0.31697244366E+01  0.31697244366E+01  0.00000000000E+00 0. -1.
         -4   -1    0    0    0  501 -0.00000000000E+00 -0.00000000000E+00 -0.15673836880E+03  0.15673836880E+03  0.00000000000E+00 0.  1.
         21    1    1    2  503  501  0.18200349848E+02 -0.10796838839E+02 -0.51676506245E+02  0.55841613168E+02  0.00000000000E+00 0. -1.
         -4    1    1    2    0  502 -0.18200349848E+02  0.10796838839E+02 -0.10189213812E+03  0.10406648007E+03  0.00000000000E+00 0.  1.
</event>
<event>
 4    1  0.1560907E+006  0.3620989E+02  0.7546771E-02  0.1372251E+00
         21   -1    0    0  503  502  0.00000000000E+00  0.00000000000E+00  0.13365445204E+03  0.13365445204E+03  0.00000000000E+00 0. -1.
         -2   -1    0    0    0  501 -0.00000000000E+00 -0.00000000000E+00 -0.14769145932E+02  0.14769145932E+02  0.00000000000E+00 0. -1.
         21    1    1    2  503  501 -0.24876173589E+02  0.26312209244E+02  0.10244544806E+03  0.10865645952E+03  0.00000000000E+00 0. -1.
         -2    1    1    2    0  502  0.24876173589E+02 -0.26312209244E+02  0.16439858045E+02  0.39767138447E+02  0.00000000000E+00 0. -1.
</event>
<event>
 4    1  0.1560907E+006  0.2520575E+02  0.7546771E-02  0.1466515E+00
         21   -1    0    0  503  502  0.00000000000E+00  0.00000000000E+00  0.64413836511E+01  0.64413836511E+01  0.00000000000E+00 0.  1.
          2   -1    0    0  502    0 -0.00000000000E+00 -0.00000000000E+00 -0.13916184648E+04  0.13916184648E+04  0.00000000000E+00 0.  1.
         21    1    1    2  503  501 -0.24469545709E+02 -0.60474186598E+01 -0.18786103843E+02  0.31436406240E+02  0.00000000000E+00 0.  1.
          2    1    1    2  501    0  0.24469545709E+02  0.60474186598E+01 -0.13663909773E+04  0.13666234422E+04  0.00000000000E+00 0.  1.
</event>
<event>
 4    1  0.1560907E+006  0.2158692E+02  0.7546771E-02  0.1511048E+00
         21   -1    0    0  501  502  0.00000000000E+00  0.00000000000E+00  0.59880188075E+01  0.59880188075E+01  0.00000000000E+00 0. -1.
          1   -1    0    0  503    0 -0.00000000000E+00 -0.00000000000E+00 -0.16987270549E+03  0.16987270549E+03  0.00000000000E+00 0. -1.
         21    1    1    2  503  502 -0.13122733242E+02 -0.17140272951E+02 -0.17214311859E+02  0.27610281008E+02  0.00000000000E+00 0. -1.
          1    1    1    2  501    0  0.13122733242E+02  0.17140272951E+02 -0.14667037482E+03  0.14825044329E+03  0.00000000000E+00 0. -1.
</event>
<event>
 4    1  0.1560907E+006  0.2940443E+02  0.7546771E-02  0.1424844E+00
         21   -1    0    0  501  502  0.00000000000E+00  0.00000000000E+00  0.24175617140E+01  0.24175617140E+01  0.00000000000E+00 0.  1.
          1   -1    0    0  503    0 -0.00000000000E+00 -0.00000000000E+00 -0.40172258526E+03  0.40172258526E+03  0.00000000000E+00 0. -1.
         21    1    1    2  503  502  0.27965216678E+02 -0.90866380637E+01 -0.13271568172E+03  0.13593407413E+03  0.00000000000E+00 0.  1.
          1    1    1    2  501    0 -0.27965216678E+02  0.90866380637E+01 -0.26658934183E+03  0.26820607285E+03  0.00000000000E+00 0. -1.
</event>
<event>
 4    1  0.1560907E+006  0.2188646E+02  0.7546771E-02  0.1506975E+00
         21   -1    0    0  503  502  0.00000000000E+00  0.00000000000E+00  0.36111726486E+02  0.36111726486E+02  0.00000000000E+00 0. -1.
          1   -1    0    0  502    0 -0.00000000000E+00 -0.00000000000E+00 -0.14420359962E+02  0.14420359962E+02  0.00000000000E+00 0. -1.
         21    1    1    2  503  501  0.20251169427E+02 -0.83010493161E+01  0.17997768137E+02  0.28336141954E+02  0.00000000000E+00 0. -1.
          1    1    1    2  501    0 -0.20251169427E+02  0.83010493161E+01  0.36935983861E+01  0.22195944494E+02  0.00000000000E+00 0. -1.
</event>
<event>
 4    1  0.1560907E+006  0.2023995E+02  0.7546771E-02  0.1530399E+00
         21   -1    0    0  503  502  0.00000000000E+00  0.00000000000E+00  0.15247183145E+03  0.15247183145E+03  0.00000000000E+00 0.  1.
         -3   -1    0    0    0  501 -0.00000000000E+00 -0.00000000000E+00 -0.28650822545E+01  0.28650822545E+01  0.00000000000E+00 0. -1.
         21    1    1    2  503  501 -0.12219521517E+02  0.16135020725E+02  0.94179897731E+02  0.96330206771E+02  0.00000000000E+00 0.  1.
         -3    1    1    2    0  502  0.12219521517E+02 -0.16135020725E+02  0.55426851463E+02  0.59006706932E+02  0.00000000000E+00 0. -1.
</event>
<event>
 4    1  0.1560907E+006  0.2595299E+02  0.7546771E-02  0.1458419E+00
         -2   -1    0    0    0  501 -0.00000000000E+00  0.00000000000E+00  0.14449630463E+03  0.14449630463E+03  0.00000000000E+00 0.  1.
         21   -1    0    0  501  502  0.00000000000E+00 -0.00000000000E+00 -0.59320691913E+01  0.59320691913E+01  0.00000000000E+00 0. -1.
         21    1    1    2  503  502  0.20699611174E+02  0.15655150383E+02  0.34471648185E+02  0.43149184985E+02  0.00000000000E+00 0. -1.
         -2    1    1    2    0  503 -0.20699611174E+02 -0.15655150383E+02  0.10409258725E+03  0.10727918883E+03  0.00000000000E+00 0.  1.
</event>
<event>
 4    1  0.1560907E+006  0.2387757E+02  0.7546771E-02  0.1481763E+00
          1   -1    0    0  503    0 -0.00000000000E+00  0.00000000000E+00  0.40717530312E+01  0.40717530312E+01  0.00000000000E+00 0. -1.
         21   -1    0    0  501  502  0.00000000000E+00 -0.00000000000E+00 -0.44560696438E+03  0.44560696438E+03  0.00000000000E+00 0.  1.
         21    1    1    2  503  502 -0.23210522346E+02  0.56044611051E+01 -0.40695992553E+03  0.40765980832E+03  0.00000000000E+00 0.  1.
          1    1    1    2  501    0  0.23210522346E+02 -0.56044611051E+01 -0.34575285823E+02  0.42018909096E+02  0.00000000000E+00 0. -1.
</event>
<event>
 4    1  0.1560907E+006  0.3474962E+02  0.7546771E-02  0.1382332E+00
         21   -1    0    0  503  502  0.00000000000E+00  0.00000000000E+00  0.11176067261E+01  0.11176067261E+01  0.00000000000E+00 0.  1.
          1   -1    0    0  502    0 -0.00000000000E+00 -0.00000000000E+00 -0.22268943442E+04  0.22268943442E+04  0.00000000000E+00 0. -1.
         21    1    1    2  503  501  0.21394442008E+02 -0.27382733442E+02 -0.31358592122E+03  0.31550541395E+03  0.00000000000E+00 0.  1.
          1    1    1    2  501    0 -0.21394442008E+02  0.27382733442E+02 -0.19121908163E+04  0.19125065370E+04  0.00000000000E+00 0. -1.
</event>
<event>
 4    1  0.1560907E+006  0.2048293E+02  0.7546771E-02  0.1526777E+00
          2   -1    0    0  503    0 -0.00000000000E+00  0.00000000000E+00  0.72291667448E+03  0.72291667448E+03  0.00000000000E+00 0.  1.
         21   -1    0    0  501  502  0.00000000000E+00 -0.00000000000E+00 -0.32675841759E+02  0.32675841759E+02  0.00000000000E+00 0. -1.
         21    1    1    2  503  502  0.50534193468E+01 -0.19849770633E+02 -0.29305777606E+02  0.35754426892E+02  0.00000000000E+00 0. -1.
          2    1    1    2  501    0 -0.50534193468E+01  0.19849770633E+02  0.71954661033E+03  0.71983808935E+03  0.00000000000E+00 0.  1.
</event>
<event>
 4    1  0.1560907E+006  0.3534125E+02  0.7546771E-02  0.1378180E+00
          1   -1    0    0  503    0 -0.00000000000E+00  0.00000000000E+00  0.13639612570E+04  0.13639612570E+04  0.00000000000E+00 0. -1.
         21   -1    0    0  501  502  0.00000000000E+00 -0.00000000000E+00 -0.22879977619E+01  0.22879977619E+01  0.00000000000E+00 0. -1.
         21    1    1    2  503  502 -0.35290343020E+02 -0.18962892122E+01  0.15179063157E+03  0.15585056964E+03  0.00000000000E+00 0. -1.
          1    1    1    2  501    0  0.35290343020E+02  0.18962892122E+01  0.12098826276E+04  0.12103986851E+04  0.00000000000E+00 0. -1.
</event>
<event>
 4    1  0.1560907E+006  0.3805860E+02  0.7546771E-02  0.1360254E+00
         -1   -1    0    0    0  501 -0.00000000000E+00  0.00000000000E+00  0.69176978209E+03  0.69176978209E+03  0.00000000000E+00 0. -1.
         21   -1    0    0  501  502  0.00000000000E+00 -0.00000000000E+00 -0.26295962822E+02  0.26295962822E+02  0.00000000000E+00 0. -1.
         21    1    1    2  503  502 -0.37962312588E+02 -0.27055060137E+01 -0.11705313319E+02  0.39817977093E+02  0.00000000000E+00 0. -1.
         -1    1    1    2    0  503  0.37962312588E+02  0.27055060137E+01  0.67717913258E+03  0.67824776782E+03  0.00000000000E+00 0. -1.
</event>
<event>
 4    1  0.1560907E+006  0.2002884E+02  0.7546771E-02  0.1533595E+00
          2   -1    0    0  502    0 -0.00000000000E+00  0.00000000000E+00  0.16621559930E+02  0.16621559930E+02  0.00000000000E+00 0. -1.
         21   -1    0    0  503  502  0.00000000000E+00 -0.00000000000E+00 -0.49037613903E+02  0.49037613903E+02  0.00000000000E+00 0.  1.
         21    1    1    2  503  501  0.55046164186E+01  0.19257556325E+02 -0.39603236053E+02  0.44379844337E+02  0.00000000000E+00 0.  1.
          2    1    1    2  501    0 -0.55046164186E+01 -0.19257556325E+02  0.71871820806E+01  0.21279329495E+02  0.00000000000E+00 0. -1.
</event>
<event>
 4    1  0.1560907E+006  0.2098682E+02  0.7546771E-02  0.1519453E+00
         -2   -1    0    0    0  501 -0.00000000000E+00  0.00000000000E+00  0.68002641472E+02  0.68002641472E+02  0.00000000000E+00 0. -1.
         21   -1    0    0  503  502  0.00000000000E+00 -0.00000000000E+00 -0.27802373791E+02  0.27802373791E+02  0.00000000000E+00 0.  1.
         21    1    1    2  503  501  0.48450891687E+01  0.20419885830E+02 -0.21853212422E+02  0.30298671911E+02  0.00000000000E+00 0.  1.
         -2    1    1    2    0  502 -0.48450891687E+01 -0.20419885830E+02  0.62053480104E+02  0.65506343352E+02  0.00000000000E+00 0. -1.
</event>
<event>
 4    1  0.1560907E+006  0.3233942E+02  0.7546771E-02  0.1400299E+00
          4   -1    0    0  503    0 -0.00000000000E+00  0.00000000000E+00  0.13003174372E+02  0.13003174372E+02  0.00000000000E+00 0. -1.
         21   -1    0    0  501  502  0.00000000000E+00 -0.00000000000E+00 -0.81540445472E+02  0.81540445472E+02  0.00000000000E+00 0. -1.
         21    1    1    2  503  502 -0.29680850294E+02  0.12840762291E+02 -0.28750739333E+02  0.43271735147E+02  0.00000000000E+00 0. -1.
          4    1    1    2  501    0  0.29680850294E+02 -0.12840762291E+02 -0.39786531766E+02  0.51271884697E+02  0.00000000000E+00 0. -1.
</event>
<event>
 4    1  0.1560907E+006  0.2081544E+02  0.7546771E-02  0.1521916E+00
         -2   -1    0    0    0  501 -0.00000000000E+00  0.00000000000E+00  0.15828124542E+02  0.15828124542E+02  0.00000000000E+00 0.  1.
         21   -1    0    0  501  502  0.00000000000E+00 -0.00000000000E+00 -0.36528857830E+03  0.36528857830E+03  0.00000000000E+00 0.  1.
         21    1    1    2  503  502 -0.35125877830E+01  0.20516928521E+02 -0.35800946068E+03  0.35861407748E+03  0.00000000000E+00 0.  1.
         -2    1    1    2    0  503  0.35125877830E+01 -0.20516928521E+02  0.85490069226E+01  0.22502625363E+02  0.00000000000E+00 0.  1.
</event>
<event>
 4    1  0.1560907E+006  0.2476555E+02  0.7546771E-02  0.1471443E+00
         21   -1    0    0  503  502  0.00000000000E+00  0.00000000000E+00  0.25718158279E+03  0.25718158279E+03  0.00000000000E+00 0.  1.
          1   -1    0    0  502    0 -0.00000000000E+00 -0.00000000000E+00 -0.13787222771E+03  0.13787222771E+03  0.00000000000E+00 0. -1.
         21    1    1    2  503  501 -0.18338054674E+02 -0.16644762983E+02  0.25546578606E+03  0.25666339870E+03  0.00000000000E+00 0.  1.
          1    1    1    2  501    0  0.18338054674E+02  0.16644762983E+02 -0.13615643098E+03  0.13839041181E+03  0.00000000000E+00 0. -1.
</event>
<event>
 4    1  0.1560907E+006  0.2439450E+02  0.7546771E-02  0.1475692E+00
          1   -1    0    0  503    0 -0.00000000000E+00  0.00000000000E+00  0.26806806191E+02  0.26806806191E+02  0.00000000000E+00 0. -1.
         21   -1    0    0  501  502  0.00000000000E+00 -0.00000000000E+00 -0.22290884218E+02  0.22290884218E+02  0.00000000000E+00 0. -1.
         21    1    1    2  503  502 -0.90589339023E+01 -0.22650104792E+02  0.38317578544E+01  0.24693600361E+02  0.00000000000E+00 0. -1.
          1    1    1    2  501    0  0.90589339023E+01  0.22650104792E+02  0.68416411922E+00  0.24404090048E+02  0.00000000000E+00 0. -1.
</event>
<event>
 4    1  0.1560907E+006  0.2104569E+02  0.7546771E-02  0.1518613E+00
         21   -1    0    0  501  502  0.00000000000E+00  0.00000000000E+00  0.32805809127E+02  0.32805809127E+02  0.00000000000E+00 0.  1.
         -4   -1    0    0    0  501 -0.00000000000E+00 -0.00000000000E+00 -0.19615769844E+02  0.19615769844E+02  0.00000000000E+00 0.  1.
         21    1    1    2  503  502 -0.16445286245E+02  0.13132915545E+02  0.21228815795E+02  0.29892867552E+02  0.00000000000E+00 0.  1.
         -4    1    1    2    0  503  0.16445286245E+02 -0.13132915545E+02 -0.80387765124E+01  0.22528711420E+02  0.00000000000E+00 0.  1.
</event>
<event>
 4    1  0.1560907E+006  0.2779549E+02  0.7546771E-02  0.1439777E+00
          4   -1    0    0  502    0 -0.00000000000E+00  0.00000000000E+00  0.94439312883E+02  0.94439312883E+02  0.00000000000E+00 0. -1.
         21   -1    0    0  503  502  0.00000000000E+00 -0.00000000000E+00 -0.16326443035E+02  0.16326443035E+02  0.00000000000E+00 0.  1.
         21    1    1    2  503  501 -0.24591500504E+01 -0.27686495145E+02 -0.62978424348E-01  0.27795564371E+02  0.00000000000E+00 0.  1.
          4    1    1    2  501    0  0.24591500504E+01  0.27686495145E+02  0.78175848272E+02  0.82970191548E+02  0.00000000000E+00 0. -1.
</event>
<event>
 4    1  0.1560907E+006  0.2980265E+02  0.7546771E-02  0.1421319E+00
         21   -1    0    0  501  502  0.00000000000E+00  0.00000000000E+00  0.45093593526E+03  0.45093593526E+03  0.00000000000E+00 0. -1.
          3   -1    0    0  503    0 -0.00000000000E+00 -0.00000000000E+00 -0.32486370358E+01  0.32486370358E+01  0.00000000000E+00 0. -1.
         21    1    1    2  503  502 -0.11526133101E+02  0.27483563341E+02  0.36633231734E+03  0.36754260260E+03  0.00000000000E+00 0. -1.
          3    1    1    2  501    0  0.11526133101E+02 -0.27483563341E+02  0.81354980886E+02  0.86641969698E+02  0.00000000000E+00 0. -1.
</event>
<event>
 4    1  0.1560907E+006  0.2183752E+02  0.7546771E-02  0.1507635E+00
         21   -1    0    0  501  502  0.00000000000E+00  0.00000000000E+00  0.33806022717E+00  0.33806022717E+00  0.00000000000E+00 0. -1.
          2   -1    0    0  503    0 -0.00000000000E+00 -0.00000000000E+00 -0.14222085618E+04  0.14222085618E+04  0.00000000000E+00 0. -1.
         21    1    1    2  503  502  0.18325411758E+02 -0.11876730196E+02 -0.77511644684E+03  0.77542400246E+03  0.00000000000E+00 0. -1.
          2    1    1    2  501    0 -0.18325411758E+02  0.11876730196E+02 -0.64675405471E+03  0.64712261954E+03  0.00000000000E+00 0. -1.
</event>
<event>
 4    1  0.1560907E+006  0.2319099E+02  0.7546771E-02  0.1490114E+00
          2   -1    0    0  502    0 -0.00000000000E+00  0.00000000000E+00  0.10571714474E+04  0.10571714474E+04  0.00000000000E+00 0.  1.
         21   -1    0    0  503  502  0.00000000000E+00 -0.00000000000E+00 -0.10484024697E+03  0.10484024697E+03  0.00000000000E+00 0. -1.
         21    1    1    2  503  501  0.19850968023E+02 -0.11990033048E+02 -0.10342886917E+03  0.10599694713E+03  0.00000000000E+00 0. -1.
          2    1    1    2  501    0 -0.19850968023E+02  0.11990033048E+02  0.10557600696E+04  0.10560147472E+04  0.00000000000E+00 0.  1.
</event>
<event>
 4    1  0.1560907E+006  0.2317090E+02  0.7546771E-02  0.1490363E+00
         21   -1    0    0  501  502  0.00000000000E+00  0.00000000000E+00  0.66435801450E+03  0.66435801450E+03  0.00000000000E+00 0. -1.
          2   -1    0    0  503    0 -0.00000000000E+00 -0.00000000000E+00 -0.82279125935E+03  0.82279125935E+03  0.00000000000E+00 0. -1.
         21    1    1    2  503  502  0.26677555011E+01 -0.23016813068E+02  0.66399276031E+03  0.66439692681E+03  0.00000000000E+00 0. -1.
          2    1    1    2  501    0 -0.26677555011E+01  0.23016813068E+02 -0.82242600516E+03  0.82275234704E+03  0.00000000000E+00 0. -1.
</event>
<event>
 4    1  0.1560907E+006  0.3158132E+02  0.7546771E-02  0.1406335E+00
          3   -1    0    0  503    0 -0.00000000000E+00  0.00000000000E+00  0.55367211281E+02  0.55367211281E+02  0.00000000000E+00 0.  1.
         21   -1    0    0  501  502  0.00000000000E+00 -0.00000000000E+00 -0.33306965709E+03  0.33306965709E+03  0.00000000000E+00 0. -1.
         21    1    1    2  503  502  0.31580661346E+02  0.20343713565E+00 -0.32774455237E+03  0.32926261733E+03  0.00000000000E+00 0. -1.
          3    1    1    2  501    0 -0.31580661346E+02 -0.20343713565E+00  0.50042106563E+02  0.59174251047E+02  0.00000000000E+00 0.  1.
</event>
<event>
 4    1  0.1560907E+006  0.2255025E+02  0.7546771E-02  0.1498224E+00
          2   -1    0    0  502    0 -0.00000000000E+00  0.00000000000E+00  0.26816302104E+02  0.26816302104E+02  0.00000000000E+00 0.  1.
         21   -1    0    0  503  502  0.00000000000E+00 -0.00000000000E+00 -0.83118042697E+02  0.83118042697E+02  0.00000000000E+00 0. -1.
         21    1    1    2  503  501  0.21800224324E+02 -0.57674859064E+01 -0.76442474175E+02  0.79699219145E+02  0.00000000000E+00 0. -1.
          2    1    1    2  501    0 -0.21800224324E+02  0.57674859064E+01  0.20140733582E+02  0.30235125657E+02  0.00000000000E+00 0.  1.
</event>
<event>
 4    1  0.1560907E+006  0.2071529E+02  0.7546771E-02  0.1523369E+00
         21   -1    0    0  503  502  0.00000000000E+00  0.00000000000E+00  0.10192006316E+03  0.10192006316E+03  0.00000000000E+00 0. -1.
          1   -1    0    0  502    0 -0.00000000000E+00 -0.00000000000E+00 -0.71599614034E+02  0.71599614034E+02  0.00000000000E+00 0. -1.
         21    1    1    2  503  501 -0.20110391372E+02  0.49694299890E+01  0.99330476486E+02  0.10146756445E+03  0.00000000000E+00 0. -1.
          1    1    1    2  501    0  0.20110391372E+02 -0.49694299890E+01 -0.69010027359E+02  0.72052112750E+02  0.00000000000E+00 0. -1.
</event>
<event>
 4    1  0.1560907E+006  0.2105110E+02  0.7546771E-02  0.1518536E+00
         21   -1    0    0  503  502  0.00000000000E+00  0.00000000000E+00  0.13934249802E+03  0.13934249802E+03  0.00000000000E+00 0. -1.
          1   -1    0    0  502    0 -0.00000000000E+00 -0.00000000000E+00 -0.11734120067E+02  0.11734120067E+02  0.00000000000E+00 0.  1.
         21    1    1    2  503  501  0.21018733278E+02  0.11668635006E+01  0.12829865567E+03  0.13001420602E+03  0.00000000000E+00 0. -1.
          1    1    1    2  501    0 -0.21018733278E+02 -0.11668635006E+01 -0.69027771575E+00  0.21062412074E+02  0.00000000000E+00 0.  1.
</event>
<event>
 4    1  0.1560907E+006  0.2554903E+02  0.7546771E-02  0.1462754E+00
         -4   -1    0    0    0  501 -0.00000000000E+00  0.00000000000E+00  0.12678332610E+03  0.12678332610E+03  0.00000000000E+00 0.  1.
         21   -1    0    0  503  502  0.00000000000E+00 -0.00000000000E+00 -0.12590350304E+03  0.12590350304E+03  0.00000000000E+00 0.  1.
         21    1    1    2  503  501  0.58480440132E+01  0.24870730567E+02 -0.12329325958E+03  0.12591259157E+03  0.00000000000E+00 0.  1.
         -4    1    1    2    0  502 -0.58480440132E+01 -0.24870730567E+02  0.12417308264E+03  0.12677423757E+03  0.00000000000E+00 0.  1.
</event>
<event>
 4    1  0.1560907E+006  0.2749638E+02  0.7546771E-02  0.1442685E+00
          2   -1    0    0  503    0 -0.00000000000E+00  0.00000000000E+00  0.82005679526E+03  0.82005679526E+03  0.00000000000E+00 0. -1.
         21   -1    0    0  501  502  0.00000000000E+00 -0.00000000000E+00 -0.16853615540E+01  0.16853615540E+01  0.00000000000E+00 0.  1.
         21    1    1    2  503  502 -0.27255811105E+02 -0.36292491572E+01  0.13265802499E+03  0.13547768187E+03  0.00000000000E+00 0.  1.
          2    1    1    2  501    0  0.27255811105E+02  0.36292491572E+01  0.68571340872E+03  0.68626447495E+03  0.00000000000E+00 0. -1.
</event>
<event>
 4    1  0.1560907E+006  0.2747140E+02  0.7546771E-02  0.1442929E+00
         -2   -1    0    0    0  501 -0.00000000000E+00  0.00000000000E+00  0.39136931495E+03  0.39136931495E+03  0.00000000000E+00 0.  1.
         21   -1    0    0  501  502  0.00000000000E+00 -0.00000000000E+00 -0.89400301524E+03  0.89400301524E+03  0.00000000000E+00 0.  1.
         21    1    1    2  503  502  0.15964951440E+01  0.27424974131E+02 -0.89330952673E+03  0.89373183257E+03  0.00000000000E+00 0.  1.
         -2    1    1    2    0  503 -0.15964951440E+01 -0.27424974131E+02  0.39067582644E+03  0.39164049761E+03  0.00000000000E+00 0.  1.
</event>
<event>
 4    1  0.1560907E+006  0.2490158E+02  0.7546771E-02  0.1469907E+00
         -1   -1    0    0    0  501 -0.00000000000E+00  0.00000000000E+00  0.60170398871E+02  0.60170398871E+02  0.00000000000E+00 0.  1.
         21   -1    0    0  501  502  0.00000000000E+00 -0.00000000000E+00 -0.35981490178E+03  0.35981490178E+03  0.00000000000E+00 0. -1.
         21    1    1    2  503  502 -0.76764738920E+01 -0.23688822306E+02 -0.35678583114E+03  0.35765376813E+03  0.00000000000E+00 0. -1.
         -1    1    1    2    0  503  0.76764738920E+01  0.23688822306E+02  0.57141328235E+02  0.62331532519E+02  0.00000000000E+00 0.  1.
</event>
<event>
 4    1  0.1560907E+006  0.2033013E+02  0.7546771E-02  0.1529048E+00
         21   -1    0    0  501  502  0.00000000000E+00  0.00000000000E+00  0.26697712739E+02  0.26697712739E+02  0.00000000000E+00 0.  1.
          3   -1    0    0  503    0 -0.00000000000E+00 -0.00000000000E+00 -0.86765421399E+02  0.86765421399E+02  0.00000000000E+00 0. -1.
         21    1    1    2  503  502 -0.15280530182E+02  0.13409676567E+02  0.21388029816E+02  0.29508674109E+02  0.00000000000E+00 0.  1.
          3    1    1    2  501    0  0.15280530182E+02 -0.13409676567E+02 -0.81455738475E+02  0.83954460029E+02  0.00000000000E+00 0. -1.
</event>
<event>
 4    1  0.1560907E+006  0.2549126E+02  0.7546771E-02  0.1463382E+00
         -1   -1    0    0    0  501 -0.00000000000E+00  0.00000000000E+00  0.13369257103E+02  0.13369257103E+02  0.00000000000E+00 0.  1.
         21   -1    0    0  503  502  0.00000000000E+00 -0.00000000000E+00 -0.17225847586E+03  0.17225847586E+03  0.00000000000E+00 0.  1.
         21    1    1    2  503  501 -0.31541209473E+01 -0.25295368065E+02 -0.15808159568E+03  0.16012368662E+03  0.00000000000E+00 0.  1.
         -1    1    1    2    0  502  0.31541209473E+01  0.25295368065E+02 -0.80762307106E+00  0.25504046336E+02  0.00000000000E+00 0.  1.
</event>
<event>
 4    1  0.1560907E+006  0.4026609E+02  0.7546771E-02  0.1346934E+00
         21   -1    0    0  503  502  0.00000000000E+00  0.00000000000E+00  0.31330126470E+02  0.31330126470E+02  0.00000000000E+00 0. -1.
         -4   -1    0    0    0  501 -0.00000000000E+00 -0.00000000000E+00 -0.51750986522E+02  0.51750986522E+02  0.00000000000E+00 0.  1.
         21    1    1    2  503  501  0.38970210419E+02 -0.10133149676E+02 -0.10124547231E+02  0.41519446999E+02  0.00000000000E+00 0. -1.
         -4    1    1    2    0  502 -0.38970210419E+02  0.10133149676E+02 -0.10296312821E+02  0.41561665993E+02  0.00000000000E+00 0.  1.
</event>
<event>
 4    1  0.1560907E+006  0.2622610E+02  0.7546771E-02  0.1455541E+00
         -2   -1    0    0    0  501 -0.00000000000E+00  0.00000000000E+00  0.19585208720E+03  0.19585208720E+03  0.00000000000E+00 0. -1.
         21   -1    0    0  501  502  0.00000000000E+00 -0.00000000000E+00 -0.21025863742E+02  0.21025863742E+02  0.00000000000E+00 0.  1.
         21    1    1    2  503  502  0.29567747597E+01  0.26058890647E+02 -0.11556302583E+02  0.28659316603E+02  0.00000000000E+00 0.  1.
         -2    1    1    2    0  503 -0.29567747597E+01 -0.26058890647E+02  0.18638252605E+03  0.18821863434E+03  0.00000000000E+00 0. -1.
</event>
<event>
 4    1  0.1560907E+006  0.2258149E+02  0.7546771E-02  0.1497821E+00
         21   -1    0    0  503  502  0.00000000000E+00  0.00000000000E+00  0.16866875990E+01  0.16866875990E+01  0.00000000000E+00 0. -1.
          3   -1    0    0  502    0 -0.00000000000E+00 -0.00000000000E+00 -0.60813725374E+03  0.60813725374E+03  0.00000000000E+00 0. -1.
         21    1    1    2  503  501  0.55312067642E+01 -0.21893598125E+02 -0.87001843577E+02  0.89884618667E+02  0.00000000000E+00 0. -1.
          3    1    1    2  501    0 -0.55312067642E+01  0.21893598125E+02 -0.51944872257E+03  0.51993932267E+03  0.00000000000E+00 0. -1.
</event>
<event>
 4    1  0.1560907E+006  0.2261652E+02  0.7546771E-02  0.1497370E+00
         21   -1    0    0  501  502  0.00000000000E+00  0.00000000000E+00  0.14398128348E+01  0.14398128348E+01  0.00000000000E+00 0.  1.
          2   -1    0    0  503    0 -0.00000000000E+00 -0.00000000000E+00 -0.56010039001E+03  0.56010039001E+03  0.00000000000E+00 0.  1.
         21    1    1    2  503  502 -0.10502873936E+02 -0.20029895369E+02 -0.10953472628E+03  0.11184526513E+03  0.00000000000E+00 0.  1.
          2    1    1    2  501    0  0.10502873936E+02  0.20029895369E+02 -0.44912585089E+03  0.44969493772E+03  0.00000000000E+00 0.  1.
</event>
<event>
 4    1  0.1560907E+006  0.2550787E+02  0.7546771E-02  0.1463201E+00
         -1   -1    0    0    0  501 -0.00000000000E+00  0.00000000000E+00  0.12012391461E+01  0.12012391461E+01  0.00000000000E+00 0. -1.
         21   -1    0    0  501  502  0.00000000000E+00 -0.00000000000E+00 -0.58719083732E+03  0.58719083732E+03  0.00000000000E+00 0. -1.
         21    1    1    2  503  502 -0.11127225265E+01  0.25483587662E+02 -0.37492553668E+03  0.37579224240E+03  0.00000000000E+00 0. -1.
         -1    1    1    2    0  503  0.11127225265E+01 -0.25483587662E+02 -0.21106406150E+03  0.21259983407E+03  0.00000000000E+00 0. -1.
</event>
<event>
 4    1  0.1560907E+006  0.2321787E+02  0.7546771E-02  0.1489780E+00
         21   -1    0    0  501  502  0.00000000000E+00  0.00000000000E+00  0.41854255389E+02  0.41854255389E+02  0.00000000000E+00 0. -1.
         -4   -1    0    0    0  501 -0.00000000000E+00 -0.00000000000E+00 -0.18821395623E+02  0.18821395623E+02  0.00000000000E+00 0. -1.
         21    1    1    2  503  502 -0.88731667068E+01  0.21455456586E+02  0.28562105376E+02  0.36808471419E+02  0.00000000000E+00 0. -1.
         -4    1    1    2    0  503  0.88731667068E+01 -0.21455456586E+02 -0.55292456089E+01  0.23867179593E+02  0.00000000000E+00 0. -1.
</event>
<event>
 4    1  0.1560907E+006  0.2106608E+02  0.7546771E-02  0.1518323E+00
         21   -1    0    0  503  502  0.00000000000E+00  0.00000000000E+00  0.53266343703E+01  0.53266343703E+01  0.00000000000E+00 0.  1.
          2   -1    0    0  502    0 -0.00000000000E+00 -0.00000000000E+00 -0.65214769989E+03  0.65214769989E+03  0.00000000000E+00 0.  1.
         21    1    1    2  503  501 -0.62889315783E+01  0.20105445690E+02 -0.16389065806E+02  0.26690468051E+02  0.00000000000E+00 0.  1.
          2    1    1    2  501    0  0.62889315783E+01 -0.20105445690E+02 -0.63043199971E+03  0.63078386620E+03  0.00000000000E+00 0.  1.
</event>
<event>
 4    1  0.1560907E+006  0.3576556E+02  0.7546771E-02  0.1375260E+00
         21   -1    0    0  503  502  0.00000000000E+00  0.00000000000E+00  0.14847398402E+02  0.14847398402E+02  0.00000000000E+00 0.  1.
          2   -1    0    0  502    0 -0.00000000000E+00 -0.00000000000E+00 -0.55063302610E+03  0.55063302610E+03  0.00000000000E+00 0.  1.
         21    1    1    2  503  501  0.34223797098E+02 -0.10387827556E+02 -0.82124491791E+01  0.36696315492E+02  0.00000000000E+00 0.  1.
          2    1    1    2  501    0 -0.34223797098E+02  0.10387827556E+02 -0.52757317852E+03  0.52878410901E+03  0.00000000000E+00 0.  1.
</event>
<event>
 4    1  0.1560907E+006  0.2452882E+02  0.7546771E-02  0.1474144E+00
         21   -1    0    0  501  502  0.00000000000E+00  0.00000000000E+00  0.21461278039E+03  0.21461278039E+03  0.00000000000E+00 0.  1.
         -3   -1    0    0    0  501 -0.00000000000E+00 -0.00000000000E+00 -0.14080595729E+02  0.14080595729E+02  0.00000000000E+00 0.  1.
         21    1    1    2  503  502 -0.20585819189E+02 -0.13337437417E+02  0.20259822958E+03  0.20407769554E+03  0.00000000000E+00 0.  1.
         -3    1    1    2    0  503  0.20585819189E+02  0.13337437417E+02 -0.20660449223E+01  0.24615680575E+02  0.00000000000E+00 0.  1.
</event>
<event>
 4    1  0.1560907E+006  0.2361151E+02  0.7546771E-02  0.1484959E+00
          2   -1    0    0  503    0 -0.00000000000E+00  0.00000000000E+00  0.51107418884E+03  0.51107418884E+03  0.00000000000E+00 0. -1.
         21   -1    0    0  501  502  0.00000000000E+00 -0.00000000000E+00 -0.12867262782E+02  0.12867262782E+02  0.00000000000E+00 0.  1.
         21    1    1    2  503  502 -0.16288931830E+01 -0.23555255766E+02 -0.15168436490E+01  0.23660181358E+02  0.00000000000E+00 0.  1.
          2    1    1    2  501    0  0.16288931830E+01  0.23555255766E+02  0.49972376971E+03  0.50028127027E+03  0.00000000000E+00 0. -1.
</event>
<event>
 4    1  0.1560907E+006  0.2693891E+02  0.7546771E-02  0.1448223E+00
          2   -1    0    0  503    0 -0.00000000000E+00  0.00000000000E+00  0.27405143745E+02  0.27405143745E+02  0.00000000000E+00 0.  1.
         21   -1    0    0  501  502  0.00000000000E+00 -0.00000000000E+00 -0.26823055595E+02  0.26823055595E+02  0.00000000000E+00 0. -1.
         21    1    1    2  503  502  0.25393885295E+02 -0.89919756338E+01 -0.27725713551E+01  0.27081214672E+02  0.00000000000E+00 0. -1.
          2    1    1    2  501    0 -0.25393885295E+02  0.89919756338E+01  0.33546595052E+01  0.27146984668E+02  0.00000000000E+00 0.  1.
</event>
<event>
 4    1  0.1560907E+006  0.2880194E+02  0.7546771E-02  0.1430301E+00
          2   -1    0    0  503    0 -0.00000000000E+00  0.00000000000E+00  0.10221080139E+04  0.10221080139E+04  0.00000000000E+00 0. -1.
         21   -1    0    0  501  502  0.00000000000E+00 -0.00000000000E+00 -0.25831992456E+02  0.25831992456E+02  0.00000000000E+00 0. -1.
         21    1    1    2  503  502 -0.19425667921E+01  0.28736359065E+02 -0.17535062061E+02  0.33719879886E+02  0.00000000000E+00 0. -1.
          2    1    1    2  501    0  0.19425667921E+01 -0.28736359065E+02  0.10138110835E+04  0.10142201265E+04  0.00000000000E+00 0. -1.
</event>
<event>
 4    1  0.1560907E+006  0.2471326E+02  0.7546771E-02  0.1472037E+00
          2   -1    0    0  503    0 -0.00000000000E+00  0.00000000000E+00  0.12935701352E+04  0.12935701352E+04  0.00000000000E+00 0. -1.
         21   -1    0    0  501  502  0.00000000000E+00 -0.00000000000E+00 -0.24336483574E+01  0.24336483574E+01  0.00000000000E+00 0. -1.
         21    1    1    2  503  502 -0.13214898526E+02 -0.20883292086E+02  0.63810050630E+02  0.68428561236E+02  0.00000000000E+00 0. -1.
          2    1    1    2  501    0  0.13214898526E+02  0.20883292086E+02  0.12273264362E+04  0.12275752223E+04  0.00000000000E+00 0. -1.
</event>
<event>
 4    1  0.1560907E+006  0.3979108E+02  0.7546771E-02  0.1349714E+00
         21   -1    0    0  503  502  0.00000000000E+00  0.00000000000E+00  0.64025113231E+01  0.64025113231E+01  0.00000000000E+00 0.  1.
         -1   -1    0    0    0  501 -0.00000000000E+00 -0.00000000000E+00 -0.41364473490E+03  0.41364473490E+03  0.00000000000E+00 0.  1.
         21    1    1    2  503  501  0.56345256856E+01  0.39390130058E+02 -0.70434327755E+02  0.80897000884E+02  0.00000000000E+00 0.  1.
         -1    1    1    2    0  502 -0.56345256856E+01 -0.39390130058E+02 -0.33680789582E+03  0.33915024533E+03  0.00000000000E+00 0.  1.
</event>
<event>
 4    1  0.1560907E+006  0.2236139E+02  0.7546771E-02  0.1500677E+00
         -2   -1    0    0    0  501 -0.00000000000E+00  0.00000000000E+00  0.52285720934E+03  0.52285720934E+03  0.00000000000E+00 0.  1.
         21   -1    0    0  501  502  0.00000000000E+00 -0.00000000000E+00 -0.17683565937E+02  0.17683565937E+02  0.00000000000E+00 0.  1.
         21    1    1    2  503  502 -0.20003156566E+02 -0.99952771054E+01 -0.10273744533E+02  0.24608568909E+02  0.00000000000E+00 0.  1.
         -2    1    1    2    0  503  0.20003156566E+02  0.99952771054E+01  0.51544738793E+03  0.51593220637E+03  0.00000000000E+00 0.  1.
</event>
<event>
 4    1  0.1560907E+006  0.3040601E+02  0.7546771E-02  0.1416100E+00
          2   -1    0    0  503    0 -0.00000000000E+00  0.00000000000E+00  0.76351253682E+03  0.76351253682E+03  0.00000000000E+00 0. -1.
         21   -1    0    0  501  502  0.00000000000E+00 -0.00000000000E+00 -0.11104381892E+03  0.11104381892E+03  0.00000000000E+00 0. -1.
         21    1    1    2  503  502  0.66659230499E+01 -0.29666322015E+02 -0.10865312038E+03  0.11282741582E+03  0.00000000000E+00 0. -1.
          2    1    1    2  501    0 -0.66659230499E+01  0.29666322015E+02  0.76112183829E+03  0.76172893992E+03  0.00000000000E+00 0. -1.
</event>
<event>
 4    1  0.1560907E+006  0.2280054E+02  0.7546771E-02  0.1495018E+00
         21   -1    0    0  501  502  0.00000000000E+00  0.00000000000E+00  0.99792749946E+00  0.99792749946E+00  0.00000000000E+00 0.  1.
          4   -1    0    0  503    0 -0.00000000000E+00 -0.00000000000E+00 -0.14370997467E+04  0.14370997467E+04  0.00000000000E+00 0. -1.
         21    1    1    2  503  502  0.60157977969E+01 -0.21992604100E+02 -0.14393502960E+03  0.14572974029E+03  0.00000000000E+00 0.  1.
          4    1    1    2  501    0 -0.60157977969E+01  0.21992604100E+02 -0.12921667896E+04  0.12923679339E+04  0.00000000000E+00 0. -1.
</event>
<event>
 4    1  0.1560907E+006  0.2109970E+02  0.7546771E-02  0.1517846E+00
         21   -1    0    0  503  502  0.00000000000E+00  0.00000000000E+00  0.13133611160E+04  0.13133611160E+04  0.00000000000E+00 0.  1.
          4   -1    0    0  502    0 -0.00000000000E+00 -0.00000000000E+00 -0.46394144647E+00  0.46394144647E+00  0.00000000000E+00 0. -1.
         21    1    1    2  503  501  0.20535552801E+02  0.48464863899E+01  0.99738363131E+03  0.99760678895E+03  0.00000000000E+00 0.  1.
          4    1    1    2  501    0 -0.20535552801E+02 -0.48464863899E+01  0.31551354322E+03  0.31621826847E+03  0.00000000000E+00 0. -1.
</event>
<event>
 4    1  0.1560907E+006  0.2116711E+02  0.7546771E-02  0.1516892E+00
         -4   -1    0    0    0  501 -0.00000000000E+00  0.00000000000E+00  0.24699350331E+02  0.24699350331E+02  0.00000000000E+00 0.  1.
         21   -1    0    0  503  502  0.00000000000E+00 -0.00000000000E+00 -0.49966995327E+02  0.49966995327E+02  0.00000000000E+00 0.  1.
         21    1    1    2  503  501  0.19238167977E+02 -0.88283337013E+01 -0.42429344742E+02  0.47416198480E+02  0.00000000000E+00 0.  1.
         -4    1    1    2    0  502 -0.19238167977E+02  0.88283337013E+01  0.17161699746E+02  0.27250147178E+02  0.00000000000E+00 0.  1.
</event>
<event>
 4    1  0.1560907E+006  0.3321237E+02  0.7546771E-02  0.1393586E+00
         -4   -1    0    0    0  501 -0.00000000000E+00  0.00000000000E+00  0.19319685289E+03  0.19319685289E+03  0.00000000000E+00 0. -1.
         21   -1    0    0  501  502  0.00000000000E+00 -0.00000000000E+00 -0.33167167901E+02  0.33167167901E+02  0.00000000000E+00 0. -1.
         21    1    1    2  503  502 -0.18758285804E+02  0.27407810969E+02 -0.22965627879E+02  0.40379220551E+02  0.00000000000E+00 0. -1.
         -4    1    1    2    0  503  0.18758285804E+02 -0.27407810969E+02  0.18299531286E+03  0.18598480024E+03  0.00000000000E+00 0. -1.
</event>
<event>
 4    1  0.1560907E+006  0.2718199E+02  0.7546771E-02  0.1445788E+00
         21   -1    0    0  501  502  0.00000000000E+00  0.00000000000E+00  0.17391462738E+02  0.17391462738E+02  0.00000000000E+00 0. -1.
          2   -1    0    0  503    0 -0.00000000000E+00 -0.00000000000E+00 -0.23783577759E+03  0.23783577759E+03  0.00000000000E+00 0.  1.
         21    1    1    2  503  502  0.27097926674E+02 -0.21361525553E+01  0.54335314821E+01  0.27719741018E+02  0.00000000000E+00 0. -1.
          2    1    1    2  501    0 -0.27097926674E+02  0.21361525553E+01 -0.22587784633E+03  0.22750749931E+03  0.00000000000E+00 0.  1.
</event>
<event>
 4    1  0.1560907E+006  0.2442082E+02  0.7546771E-02  0.1475388E+00
         21   -1    0    0  503  502  0.00000000000E+00  0.00000000000E+00  0.27469176845E+01  0.27469176845E+01  0.00000000000E+00 0.  1.
         -3   -1    0    0    0  501 -0.00000000000E+00 -0.00000000000E+00 -0.33275496663E+03  0.33275496663E+03  0.00000000000E+00 0. -1.
         21    1    1    2  503  501 -0.21775635995E+02  0.11054321085E+02 -0.66109824707E+02  0.70476132559E+02  0.00000000000E+00 0.  1.
         -3    1    1    2    0  502  0.21775635995E+02 -0.11054321085E+02 -0.26389822424E+03  0.26502575176E+03  0.00000000000E+00 0. -1.
</event>
<event>
 4    1  0.1560907E+006  0.2104124E+02  0.7546771E-02  0.1518677E+00
          3   -1    0    0  503    0 -0.00000000000E+00  0.00000000000E+00  0.40375840097E+03  0.40375840097E+03  0.00000000000E+00 0.  1.
         21   -1    0    0  501  502  0.00000000000E+00 -0.00000000000E+00 -0.16184673359E+01  0.16184673359E+01  0.00000000000E+00 0.  1.
         21    1    1    2  503  502 -0.16434034330E+02  0.13139870003E+02  0.85967217409E+02  0.88504780306E+02  0.00000000000E+00 0.  1.
          3    1    1    2  501    0  0.16434034330E+02 -0.13139870003E+02  0.31617271623E+03  0.31687208800E+03  0.00000000000E+00 0.  1.
</event>
<event>
 4    1  0.1560907E+006  0.2386539E+02  0.7546771E-02  0.1481908E+00
         21   -1    0    0  501  502  0.00000000000E+00  0.00000000000E+00  0.27897353555E+01  0.27897353555E+01  0.00000000000E+00 0. -1.
          2   -1    0    0  503    0 -0.00000000000E+00 -0.00000000000E+00 -0.24708744862E+03  0.24708744862E+03  0.00000000000E+00 0. -1.
         21    1    1    2  503  502 -0.11908634812E+02 -0.20681904350E+02 -0.70073666969E+02  0.74026181538E+02  0.00000000000E+00 0. -1.
          2    1    1    2  501    0  0.11908634812E+02  0.20681904350E+02 -0.17422404630E+03  0.17585100244E+03  0.00000000000E+00 0. -1.
</event>
<event>
 4    1  0.1560907E+006  0.4202391E+02  0.7546771E-02  0.1337017E+00
         21   -1    0    0  503  502  0.00000000000E+00  0.00000000000E+00  0.10500248090E+03  0.10500248090E+03  0.00000000000E+00 0. -1.
         -2   -1    0    0    0  501 -0.00000000000E+00 -0.00000000000E+00 -0.29845559331E+02  0.29845559331E+02  0.00000000000E+00 0.  1.
         21    1    1    2  503  501 -0.17284963984E+02 -0.38304561586E+02  0.82122949503E+02  0.92250681587E+02  0.00000000000E+00 0. -1.
         -2    1    1    2    0  502  0.17284963984E+02  0.38304561586E+02 -0.69660279355E+01  0.42597358643E+02  0.00000000000E+00 0.  1.
</event>
<event>
 4    1  0.1560907E+006  0.2206381E+02  0.7546771E-02  0.1504601E+00
          2   -1    0    0  502    0 -0.00000000000E+00  0.00000000000E+00  0.76248509901E+03  0.76248509901E+03  0.00000000000E+00 0. -1.
         21   -1    0    0  503  502  0.00000000000E+00 -0.00000000000E+00 -0.17675328780E+01  0.17675328780E+01  0.00000000000E+00 0. -1.
         21    1    1    2  503  501  0.43490699798E+01 -0.21630932300E+02  0.74947313081E+02  0.78127532790E+02  0.00000000000E+00 0. -1.
          2    1    1    2  501    0 -0.43490699798E+01  0.21630932300E+02  0.68577025305E+03  0.68612509910E+03  0.00000000000E+00 0. -1.
</event>
<event>
 4    1  0.1560907E+006  0.2126660E+02  0.7546771E-02  0.1515492E+00
          1   -1    0    0  503    0 -0.00000000000E+00  0.00000000000E+00  0.14737226270E+04  0.14737226270E+04  0.00000000000E+00 0.  1.
         21   -1    0    0  501  502  0.00000000000E+00 -0.00000000000E+00 -0.27395796151E+01  0.27395796151E+01  0.00000000000E+00 0.  1.
         21    1    1    2  503  502 -0.74829660117E+00  0.21253431148E+02  0.39836580915E+02  0.45157739784E+02  0.00000000000E+00 0.  1.
          1    1    1    2  501    0  0.74829660117E+00 -0.21253431148E+02  0.14311464665E+04  0.14313044668E+04  0.00000000000E+00 0.  1.
</event>
<event>
 4    1  0.1560907E+006  0.2361950E+02  0.7546771E-02  0.1484862E+00
         21   -1    0    0  501  502  0.00000000000E+00  0.00000000000E+00  0.95843454157E+01  0.95843454157E+01  0.00000000000E+00 0.  1.
          3   -1    0    0  503    0 -0.00000000000E+00 -0.00000000000E+00 -0.16273833777E+03  0.16273833777E+03  0.00000000000E+00 0.  1.
         21    1    1    2  503  502 -0.44954287068E+01 -0.23187750105E+02 -0.75228494650E+01  0.24788584031E+02  0.00000000000E+00 0.  1.
          3    1    1    2  501    0  0.44954287068E+01  0.23187750105E+02 -0.14563114289E+03  0.14753409916E+03  0.00000000000E+00 0.  1.
</event>
<event>
 4    1  0.1560907E+006  0.2392147E+02  0.7546771E-02  0.1481240E+00
          1   -1    0    0  503    0 -0.00000000000E+00  0.00000000000E+00  0.59030344841E+03  0.59030344841E+03  0.00000000000E+00 0.  1.
         21   -1    0    0  501  502  0.00000000000E+00 -0.00000000000E+00 -0.13295269265E+01  0.13295269265E+01  0.00000000000E+00 0.  1.
         21    1    1    2  503  502  0.14038864484E+02  0.19368718213E+02  0.14052803391E+03  0.14254951868E+03  0.00000000000E+00 0.  1.
          1    1    1    2  501    0 -0.14038864484E+02 -0.19368718213E+02  0.44844588758E+03  0.44908345666E+03  0.00000000000E+00 0.  1.
</event>
<event>
 4    1  0.1560907E+006  0.2543737E+02  0.7546771E-02  0.1463970E+00
          2   -1    0    0  503    0 -0.00000000000E+00  0.00000000000E+00  0.60667598658E+02  0.60667598658E+02  0.00000000000E+00 0.  1.
         21   -1    0    0  501  502  0.00000000000E+00 -0.00000000000E+00 -0.19627774556E+02  0.19627774556E+02  0.00000000000E+00 0.  1.
         21    1    1    2  503  502  0.14419642386E+02 -0.20955513258E+02 -0.66088754174E+01  0.26281873158E+02  0.00000000000E+00 0.  1.
          2    1    1    2  501    0 -0.14419642386E+02  0.20955513258E+02  0.47648699519E+02  0.54013500056E+02  0.00000000000E+00 0.  1.
</event>
<event>
 4    1  0.1560907E+006  0.2789317E+02  0.7546771E-02  0.1438837E+00
         -4   -1    0    0    0  501 -0.00000000000E+00  0.00000000000E+00  0.43473298075E+03  0.43473298075E+03  0.00000000000E+00 0.  1.
         21   -1    0    0  503  502  0.00000000000E+00 -0.00000000000E+00 -0.38227218858E+01  0.38227218858E+01  0.00000000000E+00 0.  1.
         21    1    1    2  503  501  0.13103022344E+02  0.24623965905E+02  0.55542572094E+02  0.62153086860E+02  0.00000000000E+00 0.  1.
         -4    1    1    2    0  502 -0.13103022344E+02 -0.24623965905E+02  0.37536768677E+03  0.37640261577E+03  0.00000000000E+00 0.  1.
</event>
<event>
 4    1  0.1560907E+006  0.2454228E+02  0.7546771E-02  0.1473989E+00
         21   -1    0    0  503  502  0.00000000000E+00  0.00000000000E+00  0.14387288637E+02  0.14387288637E+02  0.00000000000E+00 0.  1.
         -3   -1    0    0    0  501 -0.00000000000E+00 -0.00000000000E+00 -0.24756861761E+03  0.24756861761E+03  0.00000000000E+00 0.  1.
         21    1    1    2  503  501 -0.16526746354E+02  0.18143605102E+02  0.28002763285E+01  0.24701524217E+02  0.00000000000E+00 0.  1.
         -3    1    1    2    0  502  0.16526746354E+02 -0.18143605102E+02 -0.23598160530E+03  0.23725438203E+03  0.00000000000E+00 0.  1.
</event>
<event>
 4    1  0.1560907E+006  0.3916163E+02  0.7546771E-02  0.1353470E+00
         21   -1    0    0  501  502  0.00000000000E+00  0.00000000000E+00  0.26566608006E+03  0.26566608006E+03  0.00000000000E+00 0.  1.
         -2   -1    0    0    0  501 -0.00000000000E+00 -0.00000000000E+00 -0.58121767732E+01  0.58121767732E+01  0.00000000000E+00 0. -1.
         21    1    1    2  503  502 -0.38213017942E+02  0.85672839617E+01  0.14110175295E+03  0.14643543895E+03  0.00000000000E+00 0.  1.
         -2    1    1    2    0  503  0.38213017942E+02 -0.85672839617E+01  0.11875215034E+03  0.12504281789E+03  0.00000000000E+00 0. -1.
</event>
<event>
 4    1  0.1560907E+006  0.2483460E+02  0.7546771E-02  0.1470662E+00
         -3   -1    0    0    0  501 -0.00000000000E+00  0.00000000000E+00  0.16896077212E+02  0.16896077212E+02  0.00000000000E+00 0. -1.
         21   -1    0    0  501  502  0.00000000000E+00 -0.00000000000E+00 -0.11095543447E+03  0.11095543447E+03  0.00000000000E+00 0.  1.
         21    1    1    2  503  502  0.21025619177E+02  0.13216676420E+02 -0.99394676157E+02  0.10245027499E+03  0.00000000000E+00 0.  1.
         -3    1    1    2    0  503 -0.21025619177E+02 -0.13216676420E+02  0.53353189037E+01  0.25401236686E+02  0.00000000000E+00 0. -1.
</event>
<event>
 4    1  0.1560907E+006  0.2297463E+02  0.7546771E-02  0.1492817E+00
         -2   -1    0    0    0  501 -0.00000000000E+00  0.00000000000E+00  0.13410808414E+02  0.13410808414E+02  0.00000000000E+00 0.  1.
         21   -1    0    0  503  502  0.00000000000E+00 -0.00000000000E+00 -0.55445411777E+02  0.55445411777E+02  0.00000000000E+00 0.  1.
         21    1    1    2  503  501 -0.18699914790E+01 -0.22898403639E+02 -0.39561678053E+02  0.45748881164E+02  0.00000000000E+00 0.  1.
         -2    1    1    2    0  502  0.18699914790E+01  0.22898403639E+02 -0.24729253102E+01  0.23107339027E+02  0.00000000000E+00 0.  1.
</event>
<event>
 4    1  0.1560907E+006  0.3208995E+02  0.7546771E-02  0.1402264E+00
         -1   -1    0    0    0  501 -0.00000000000E+00  0.00000000000E+00  0.10808135681E+04  0.10808135681E+04  0.00000000000E+00 0.  1.
         21   -1    0    0  501  502  0.00000000000E+00 -0.00000000000E+00 -0.30311408093E+01  0.30311408093E+01  0.00000000000E+00 0. -1.
         21    1    1    2  503  502  0.30300389764E+02 -0.10566504389E+02  0.90150234530E+02  0.95691323643E+02  0.00000000000E+00 0. -1.
         -1    1    1    2    0  503 -0.30300389764E+02  0.10566504389E+02  0.98763219277E+03  0.98815338528E+03  0.00000000000E+00 0.  1.
</event>
<event>
 4    1  0.1560907E+006  0.2451135E+02  0.7546771E-02  0.1474345E+00
          2   -1    0    0  502    0 -0.00000000000E+00  0.00000000000E+00  0.49831297270E+03  0.49831297270E+03  0.00000000000E+00 0.  1.
         21   -1    0    0  503  502  0.00000000000E+00 -0.00000000000E+00 -0.54321175726E+01  0.54321175726E+01  0.00000000000E+00 0.  1.
         21    1    1    2  503  501 -0.19392795272E+02 -0.14990861661E+02  0.24271441899E+02  0.34495062453E+02  0.00000000000E+00 0.  1.
          2    1    1    2  501    0  0.19392795272E+02  0.14990861661E+02  0.46860941323E+03  0.46925002782E+03  0.00000000000E+00 0.  1.
</event>
<event>
 4    1  0.1560907E+006  0.2290842E+02  0.7546771E-02  0.1493651E+00
         -2   -1    0    0    0  501 -0.00000000000E+00  0.00000000000E+00  0.77442283060E+01  0.77442283060E+01  0.00000000000E+00 0.  1.
         21   -1    0    0  501  502  0.00000000000E+00 -0.00000000000E+00 -0.76479818360E+02  0.76479818360E+02  0.00000000000E+00 0. -1.
         21    1    1    2  503  502 -0.17611721131E+02 -0.14650018033E+02 -0.48582430653E+02  0.53712645789E+02  0.00000000000E+00 0. -1.
         -2    1    1    2    0  503  0.17611721131E+02  0.14650018033E+02 -0.20153159401E+02  0.30511400877E+02  0.00000000000E+00 0.  1.
</event>
<event>
 4    1  0.1560907E+006  0.2596720E+02  0.7546771E-02  0.1458268E+00
          4   -1    0    0  502    0 -0.00000000000E+00  0.00000000000E+00  0.29043201568E+03  0.29043201568E+03  0.00000000000E+00 0. -1.
         21   -1    0    0  503  502  0.00000000000E+00 -0.00000000000E+00 -0.13817703496E+02  0.13817703496E+02  0.00000000000E+00 0.  1.
         21    1    1    2  503  501  0.75838775803E+01 -0.24835064813E+02 -0.45010642787E+00  0.25971103928E+02  0.00000000000E+00 0.  1.
          4    1    1    2  501    0 -0.75838775803E+01  0.24835064813E+02  0.27706441861E+03  0.27827861524E+03  0.00000000000E+00 0. -1.
</event>
<event>
 4    1  0.1560907E+006  0.3632214E+02  0.7546771E-02  0.1371499E+00
         -2   -1    0    0    0  501 -0.00000000000E+00  0.00000000000E+00  0.10283808335E+03  0.10283808335E+03  0.00000000000E+00 0. -1.
         21   -1    0    0  503  502  0.00000000000E+00 -0.00000000000E+00 -0.80126229412E+02  0.80126229412E+02  0.00000000000E+00 0.  1.
         21    1    1    2  503  501  0.31369207970E+02 -0.18310403837E+02 -0.72483441593E+02  0.81074949291E+02  0.00000000000E+00 0.  1.
         -2    1    1    2    0  502 -0.31369207970E+02  0.18310403837E+02  0.95195295527E+02  0.10188936347E+03  0.00000000000E+00 0. -1.
</event>
<event>
 4    1  0.1560907E+006  0.2523266E+02  0.7546771E-02  0.1466217E+00
          2   -1    0    0  503    0 -0.00000000000E+00  0.00000000000E+00  0.16322634440E+03  0.16322634440E+03  0.00000000000E+00 0. -1.
         21   -1    0    0  501  502  0.00000000000E+00 -0.00000000000E+00 -0.11826787437E+03  0.11826787437E+03  0.00000000000E+00 0. -1.
         21    1    1    2  503  502  0.16683067700E+02  0.18930465576E+02 -0.11592739595E+03  0.11864168073E+03  0.00000000000E+00 0. -1.
          2    1    1    2  501    0 -0.16683067700E+02 -0.18930465576E+02  0.16088586598E+03  0.16285253804E+03  0.00000000000E+00 0. -1.
</event>
<event>
 4    1  0.1560907E+006  0.2365623E+02  0.7546771E-02  0.1484418E+00
         21   -1    0    0  503  502  0.00000000000E+00  0.00000000000E+00  0.16019100116E+03  0.16019100116E+03  0.00000000000E+00 0.  1.
          1   -1    0    0  502    0 -0.00000000000E+00 -0.00000000000E+00 -0.20074055232E+03  0.20074055232E+03  0.00000000000E+00 0. -1.
         21    1    1    2  503  501  0.23206582096E+02 -0.45904170898E+01  0.15861380847E+03  0.16036819392E+03  0.00000000000E+00 0.  1.
          1    1    1    2  501    0 -0.23206582096E+02  0.45904170898E+01 -0.19916335963E+03  0.20056335957E+03  0.00000000000E+00 0. -1.
</event>
<event>
 4    1  0.1560907E+006  0.3290457E+02  0.7546771E-02  0.1395925E+00
          3   -1    0    0  502    0 -0.00000000000E+00  0.00000000000E+00  0.12054799033E+03  0.12054799033E+03  0.00000000000E+00 0.  1.
         21   -1    0    0  503  502  0.00000000000E+00 -0.00000000000E+00 -0.12763555172E+02  0.12763555172E+02  0.00000000000E+00 0. -1.
         21    1    1    2  503  501  0.12150934045E+02  0.30578841492E+02  0.17608515255E+02  0.37319841300E+02  0.00000000000E+00 0. -1.
          3    1    1    2  501    0 -0.12150934045E+02 -0.30578841492E+02  0.90175919903E+02  0.95991704201E+02  0.00000000000E+00 0.  1.
</event>
<event>
 4    1  0.1560907E+006  0.2237224E+02  0.7546771E-02  0.1500535E+00
         21   -1    0    0  501  502  0.00000000000E+00  0.00000000000E+00  0.40253981914E+01  0.40253981914E+01  0.00000000000E+00 0. -1.
         -1   -1    0    0    0  501 -0.00000000000E+00 -0.00000000000E+00 -0.49400955352E+03  0.49400955352E+03  0.00000000000E+00 0. -1.
         21    1    1    2  503  502  0.21188825545E+02 -0.71798977317E+01 -0.29580469025E+02  0.37088022422E+02  0.00000000000E+00 0. -1.
         -1    1    1    2    0  503 -0.21188825545E+02  0.71798977317E+01 -0.46040368631E+03  0.46094692929E+03  0.00000000000E+00 0. -1.
</event>
<event>
 4    1  0.1560907E+006  0.2277578E+02  0.7546771E-02  0.1495333E+00
         -3   -1    0    0    0  501 -0.00000000000E+00  0.00000000000E+00  0.77805590457E+01  0.77805590457E+01  0.00000000000E+00 0.  1.
         21   -1    0    0  503  502  0.00000000000E+00 -0.00000000000E+00 -0.98470854229E+02  0.98470854229E+02  0.00000000000E+00 0.  1.
         21    1    1    2  503  501  0.11849729333E+02 -0.19450453998E+02 -0.75535255528E+02  0.78894303176E+02  0.00000000000E+00 0.  1.
         -3    1    1    2    0  502 -0.11849729333E+02  0.19450453998E+02 -0.15155039655E+02  0.27357110099E+02  0.00000000000E+00 0.  1.
</event>
<event>
 4    1  0.1560907E+006  0.4043518E+02  0.7546771E-02  0.1345954E+00
         -4   -1    0    0    0  501 -0.00000000000E+00  0.00000000000E+00  0.41367324483E+02  0.41367324483E+02  0.00000000000E+00 0. -1.
         21   -1    0    0  503  502  0.00000000000E+00 -0.00000000000E+00 -0.57830053145E+02  0.57830053145E+02  0.00000000000E+00 0. -1.
         21    1    1    2  503  501  0.20602384372E+02  0.34792892371E+02 -0.36136898377E+02  0.54229872079E+02  0.00000000000E+00 0. -1.
         -4    1    1    2    0  502 -0.20602384372E+02 -0.34792892371E+02  0.19674169715E+02  0.44967505549E+02  0.00000000000E+00 0. -1.
</event>
<event>
 4    1  0.1560907E+006  0.2162400E+02  0.7546771E-02  0.1510539E+00
         21   -1    0    0  501  502  0.00000000000E+00  0.00000000000E+00  0.13509587174E+02  0.13509587174E+02  0.00000000000E+00 0. -1.
          2   -1    0    0  503    0 -0.00000000000E+00 -0.00000000000E+00 -0.72771819931E+02  0.72771819931E+02  0.00000000000E+00 0. -1.
         21    1    1    2  503  502  0.12764698990E+02  0.17454512907E+02  0.16086079311E+01  0.21683753840E+02  0.00000000000E+00 0. -1.
          2    1    1    2  501    0 -0.12764698990E+02 -0.17454512907E+02 -0.60870840689E+02  0.64597653265E+02  0.00000000000E+00 0. -1.
</event>
<event>
 4    1  0.1560907E+006  0.2247305E+02  0.7546771E-02  0.1499223E+00
         -4   -1    0    0    0  501 -0.00000000000E+00  0.00000000000E+00  0.34998375484E+02  0.34998375484E+02  0.00000000000E+00 0. -1.
         21   -1    0    0  503  502  0.00000000000E+00 -0.00000000000E+00 -0.13320028420E+03  0.13320028420E+03  0.00000000000E+00 0.  1.
         21    1    1    2  503  501  0.22473010347E+02  0.40847275713E-01 -0.12851425861E+03  0.13046437264E+03  0.00000000000E+00 0.  1.
         -4    1    1    2    0  502 -0.22473010347E+02 -0.40847275713E-01  0.30312349893E+02  0.37734287043E+02  0.00000000000E+00 0. -1.
</event>
<event>
 4    1  0.1560907E+006  0.2144380E+02  0.7546771E-02  0.1513022E+00
          2   -1    0    0  503    0 -0.00000000000E+00  0.00000000000E+00  0.80216886922E+01  0.80216886922E+01  0.00000000000E+00 0. -1.
         21   -1    0    0  501  502  0.00000000000E+00 -0.00000000000E+00 -0.87902944203E+03  0.87902944203E+03  0.00000000000E+00 0. -1.
         21    1    1    2  503  502 -0.37554792606E+01  0.21112384500E+02 -0.86432383680E+03  0.86458980521E+03  0.00000000000E+00 0. -1.
          2    1    1    2  501    0  0.37554792606E+01 -0.21112384500E+02 -0.66839165386E+01  0.22461325518E+02  0.00000000000E+00 0. -1.
</event>
<event>
 4    1  0.1560907E+006  0.2141916E+02  0.7546771E-02  0.1513364E+00
          2   -1    0    0  503    0 -0.00000000000E+00  0.00000000000E+00  0.33230463021E+01  0.33230463021E+01  0.00000000000E+00 0. -1.
         21   -1    0    0  501  502  0.00000000000E+00 -0.00000000000E+00 -0.13974470126E+03  0.13974470126E+03  0.00000000000E+00 0. -1.
         21    1    1    2  503  502  0.50979300392E+01 -0.20803646635E+02 -0.60357146359E+02  0.64045028852E+02  0.00000000000E+00 0. -1.
          2    1    1    2  501    0 -0.50979300392E+01  0.20803646635E+02 -0.76064508597E+02  0.79022718709E+02  0.00000000000E+00 0. -1.
</event>
<event>
 4    1  0.1560907E+006  0.2726345E+02  0.7546771E-02  0.1444980E+00
         21   -1    0    0  503  502  0.00000000000E+00  0.00000000000E+00  0.39510337493E+02  0.39510337493E+02  0.00000000000E+00 0. -1.
          4   -1    0    0  502    0 -0.00000000000E+00 -0.00000000000E+00 -0.76907345025E+02  0.76907345025E+02  0.00000000000E+00 0.  1.
         21    1    1    2  503  501  0.21643726065E+02  0.16578438497E+02  0.31892483531E+02  0.41957430888E+02  0.00000000000E+00 0. -1.
          4    1    1    2  501    0 -0.21643726065E+02 -0.16578438497E+02 -0.69289491063E+02  0.74460251629E+02  0.00000000000E+00 0.  1.
</event>
<event>
 4    1  0.1560907E+006  0.2014791E+02  0.7546771E-02  0.1531787E+00
         -2   -1    0    0    0  501 -0.00000000000E+00  0.00000000000E+00  0.31380952990E+02  0.31380952990E+02  0.00000000000E+00 0.  1.
         21   -1    0    0  501  502  0.00000000000E+00 -0.00000000000E+00 -0.37527977972E+03  0.37527977972E+03  0.00000000000E+00 0.  1.
         21    1    1    2  503  502 -0.22466593708E+01 -0.20022254773E+02 -0.37174467184E+03  0.37229026204E+03  0.00000000000E+00 0.  1.
         -2    1    1    2    0  503  0.22466593708E+01  0.20022254773E+02  0.27845845110E+02  0.34370470675E+02  0.00000000000E+00 0.  1.
</event>
<event>
 4    1  0.1560907E+006  0.2361179E+02  0.7546771E-02  0.1484955E+00
         21   -1    0    0  501  502  0.00000000000E+00  0.00000000000E+00  0.15728258757E+01  0.15728258757E+01  0.00000000000E+00 0. -1.
          1   -1    0    0  503    0 -0.00000000000E+00 -0.00000000000E+00 -0.36340890201E+03  0.36340890201E+03  0.00000000000E+00 0. -1.
         21    1    1    2  503  502 -0.73766327335E+01  0.22429935953E+02 -0.20954198126E+03  0.21086810723E+03  0.00000000000E+00 0. -1.
          1    1    1    2  501    0  0.73766327335E+01 -0.22429935953E+02 -0.15229409487E+03  0.15411362065E+03  0.00000000000E+00 0. -1.
</event>
<event>
 4    1  0.1560907E+006  0.2038767E+02  0.7546771E-02  0.1528190E+00
         -4   -1    0    0    0  501 -0.00000000000E+00  0.00000000000E+00  0.11470017815E+04  0.11470017815E+04  0.00000000000E+00 0. -1.
         21   -1    0    0  503  502  0.00000000000E+00 -0.00000000000E+00 -0.16850678250E+01  0.16850678250E+01  0.00000000000E+00 0. -1.
         21    1    1    2  503  501  0.18475339630E+02  0.86208380933E+01  0.63807271256E+02  0.66985258744E+02  0.00000000000E+00 0. -1.
         -4    1    1    2    0  502 -0.18475339630E+02 -0.86208380933E+01  0.10815094424E+04  0.10817015906E+04  0.00000000000E+00 0. -1.
</event>
<event>
 4    1  0.1560907E+006  0.3513204E+02  0.7546771E-02  0.1379637E+00
         21   -1    0    0  501  502  0.00000000000E+00  0.00000000000E+00  0.15044655898E+02  0.15044655898E+02  0.00000000000E+00 0.  1.
         -1   -1    0    0    0  501 -0.00000000000E+00 -0.00000000000E+00 -0.98406141631E+02  0.98406141631E+02  0.00000000000E+00 0.  1.
         21    1    1    2  503  502 -0.34351176183E+02 -0.73659530439E+01 -0.18547194413E+02  0.39727307862E+02  0.00000000000E+00 0.  1.
         -1    1    1    2    0  503  0.34351176183E+02  0.73659530439E+01 -0.64814291320E+02  0.73723489667E+02  0.00000000000E+00 0.  1.
</event>
<event>
 4    1  0.1560907E+006  0.2124367E+02  0.7546771E-02  0.1515814E+00
         21   -1    0    0  503  502  0.00000000000E+00  0.00000000000E+00  0.30629087679E+01  0.30629087679E+01  0.00000000000E+00 0.  1.
          1   -1    0    0  502    0 -0.00000000000E+00 -0.00000000000E+00 -0.77853453043E+03  0.77853453043E+03  0.00000000000E+00 0.  1.
         21    1    1    2  503  501  0.18884018214E+02 -0.97307526820E+01 -0.35855249341E+02  0.41676043442E+02  0.00000000000E+00 0.  1.
          1    1    1    2  501    0 -0.18884018214E+02  0.97307526820E+01 -0.73961637232E+03  0.73992139575E+03  0.00000000000E+00 0.  1.
</event>
<event>
 4    1  0.1560907E+006  0.2623175E+02  0.7546771E-02  0.1455482E+00
         21   -1    0    0  501  502  0.00000000000E+00  0.00000000000E+00  0.82970011318E+01  0.82970011318E+01  0.00000000000E+00 0. -1.
          2   -1    0    0  503    0 -0.00000000000E+00 -0.00000000000E+00 -0.16825475350E+03  0.16825475350E+03  0.00000000000E+00 0. -1.
         21    1    1    2  503  502 -0.12795173015E+02  0.22899520500E+02 -0.17117279843E+02  0.31322607823E+02  0.00000000000E+00 0. -1.
          2    1    1    2  501    0  0.12795173015E+02 -0.22899520500E+02 -0.14284047252E+03  0.14522914681E+03  0.00000000000E+00 0. -1.
</event>
<event>
 4    1  0.1560907E+006  0.3164753E+02  0.7546771E-02  0.1405800E+00
          1   -1    0    0  503    0 -0.00000000000E+00  0.00000000000E+00  0.19962892431E+04  0.19962892431E+04  0.00000000000E+00 0.  1.
         21   -1    0    0  501  502  0.00000000000E+00 -0.00000000000E+00 -0.80646230381E+00  0.80646230381E+00  0.00000000000E+00 0.  1.
         21    1    1    2  503  502  0.75429351872E+01 -0.30735489499E+02  0.38391222238E+03  0.38521443467E+03  0.00000000000E+00 0.  1.
          1    1    1    2  501    0 -0.75429351872E+01  0.30735489499E+02  0.16115705584E+04  0.16118812708E+04  0.00000000000E+00 0.  1.
</event>
<event>
 4    1  0.1560907E+006  0.2795644E+02  0.7546771E-02  0.1438230E+00
          4   -1    0    0  502    0 -0.00000000000E+00  0.00000000000E+00  0.14740033538E+03  0.14740033538E+03  0.00000000000E+00 0.  1.
         21   -1    0    0  503  502  0.00000000000E+00 -0.00000000000E+00 -0.77176119721E+01  0.77176119721E+01  0.00000000000E+00 0. -1.
         21    1    1    2  503  501  0.23755963566E+02 -0.14738271912E+02  0.26452706974E+02  0.38487766500E+02  0.00000000000E+00 0. -1.
          4    1    1    2  501    0 -0.23755963566E+02  0.14738271912E+02  0.11323001643E+03  0.11663018085E+03  0.00000000000E+00 0.  1.
</event>
<event>
 4    1  0.1560907E+006  0.2077847E+02  0.7546771E-02  0.1522451E+00
          2   -1    0    0  503    0 -0.00000000000E+00  0.00000000000E+00  0.21413490600E+03  0.21413490600E+03  0.00000000000E+00 0.  1.
         21   -1    0    0  501  502  0.00000000000E+00 -0.00000000000E+00 -0.24648726021E+02  0.24648726021E+02  0.00000000000E+00 0. -1.
         21    1    1    2  503  502  0.14670877035E+02 -0.14714286610E+02 -0.19661529696E+02  0.28606303735E+02  0.00000000000E+00 0. -1.
          2    1    1    2  501    0 -0.14670877035E+02  0.14714286610E+02  0.20914770968E+03  0.21017732829E+03  0.00000000000E+00 0.  1.
</event>
<event>
 4    1  0.1560907E+006  0.2083481E+02  0.7546771E-02  0.1521636E+00
         -1   -1    0    0    0  501 -0.00000000000E+00  0.00000000000E+00  0.88642312307E+01  0.88642312307E+01  0.00000000000E+00 0.  1.
         21   -1    0    0  501  502  0.00000000000E+00 -0.00000000000E+00 -0.21348378511E+03  0.21348378511E+03  0.00000000000E+00 0. -1.
         21    1    1    2  503  502  0.13760101147E+02  0.15644453919E+02 -0.19990325250E+03  0.20098606838E+03  0.00000000000E+00 0. -1.
         -1    1    1    2    0  503 -0.13760101147E+02 -0.15644453919E+02 -0.47163013775E+01  0.21361947961E+02  0.00000000000E+00 0.  1.
</event>
<event>
 4    1  0.1560907E+006  0.2267614E+02  0.7546771E-02  0.1496605E+00
         21   -1    0    0  501  502  0.00000000000E+00  0.00000000000E+00  0.47069517600E+02  0.47069517600E+02  0.00000000000E+00 0. -1.
          2   -1    0    0  503    0 -0.00000000000E+00 -0.00000000000E+00 -0.31373633277E+03  0.31373633277E+03  0.00000000000E+00 0.  1.
         21    1    1    2  503  502 -0.14157877901E+02 -0.17713318707E+02  0.43900839960E+02  0.49411445187E+02  0.00000000000E+00 0. -1.
          2    1    1    2  501    0  0.14157877901E+02  0.17713318707E+02 -0.31056765513E+03  0.31139440518E+03  0.00000000000E+00 0.  1.
</event>
<event>
 4    1  0.1560907E+006  0.2558692E+02  0.7546771E-02  0.1462343E+00
         21   -1    0    0  503  502  0.00000000000E+00  0.00000000000E+00  0.48787463176E+03  0.48787463176E+03  0.00000000000E+00 0.  1.
         -2   -1    0    0    0  501 -0.00000000000E+00 -0.00000000000E+00 -0.17743793458E+01  0.17743793458E+01  0.00000000000E+00 0. -1.
         21    1    1    2  503  501 -0.22209658817E+02  0.12705185960E+02  0.36391560203E+03  0.36481400205E+03  0.00000000000E+00 0.  1.
         -2    1    1    2    0  502  0.22209658817E+02 -0.12705185960E+02  0.12218465039E+03  0.12483500906E+03  0.00000000000E+00 0. -1.
</event>
<event>
 4    1  0.1560907E+006  0.2533309E+02  0.7546771E-02  0.1465111E+00
          4   -1    0    0  502    0 -0.00000000000E+00  0.00000000000E+00  0.77322060674E+02  0.77322060674E+02  0.00000000000E+00 0.  1.
         21   -1    0    0  503  502  0.00000000000E+00 -0.00000000000E+00 -0.20734839980E+02  0.20734839980E+02  0.00000000000E+00 0.  1.
         21    1    1    2  503  501 -0.18694495296E+02 -0.17096229815E+02 -0.96745628030E+01  0.27117566146E+02  0.00000000000E+00 0.  1.
          4    1    1    2  501    0  0.18694495296E+02  0.17096229815E+02  0.66261783497E+02  0.70939334508E+02  0.00000000000E+00 0.  1.
</event>
<event>
 4    1  0.1560907E+006  0.2408490E+02  0.7546771E-02  0.1479307E+00
         21   -1    0    0  501  502  0.00000000000E+00  0.00000000000E+00  0.19600649467E+03  0.19600649467E+03  0.00000000000E+00 0.  1.
         -1   -1    0    0    0  501 -0.00000000000E+00 -0.00000000000E+00 -0.54172275392E+02  0.54172275392E+02  0.00000000000E+00 0.  1.
         21    1    1    2  503  502  0.18081277301E+02  0.15910678351E+02  0.19254160519E+03  0.19404213976E+03  0.00000000000E+00 0.  1.
         -1    1    1    2    0  503 -0.18081277301E+02 -0.15910678351E+02 -0.50707385917E+02  0.56136630295E+02  0.00000000000E+00 0.  1.
</event>
<event>
 4    1  0.1560907E+006  0.8269088E+02  0.7546771E-02  0.1197735E+00
          2   -1    0    0  503    0 -0.00000000000E+00  0.00000000000E+00  0.26712711268E+04  0.26712711268E+04  0.00000000000E+00 0. -1.
         21   -1    0    0  501  502  0.00000000000E+00 -0.00000000000E+00 -0.35905843085E+01  0.35905843085E+01  0.00000000000E+00 0. -1.
         21    1    1    2  503  502  0.10907636839E+01  0.82683690476E+02  0.61722920829E+03  0.62274366958E+03  0.00000000000E+00 0. -1.
          2    1    1    2  501    0 -0.10907636839E+01 -0.82683690476E+02  0.20504513342E+04  0.20521180416E+04  0.00000000000E+00 0. -1.
</event>
<event>
 4    1  0.1560907E+006  0.2167364E+02  0.7546771E-02  0.1509861E+00
         21   -1    0    0  503  502  0.00000000000E+00  0.00000000000E+00  0.60526050116E+02  0.60526050116E+02  0.00000000000E+00 0.  1.
          1   -1    0    0  502    0 -0.00000000000E+00 -0.00000000000E+00 -0.14636666960E+03  0.14636666960E+03  0.00000000000E+00 0.  1.
         21    1    1    2  503  501 -0.90996218695E+01  0.19670876337E+02  0.57746085265E+02  0.61679468686E+02  0.00000000000E+00 0.  1.
          1    1    1    2  501    0  0.90996218695E+01 -0.19670876337E+02 -0.14358670475E+03  0.14521325103E+03  0.00000000000E+00 0.  1.
</event>
<event>
 4    1  0.1560907E+006  0.2495568E+02  0.7546771E-02  0.1469300E+00
         -1   -1    0    0    0  501 -0.00000000000E+00  0.00000000000E+00  0.94870251966E+01  0.94870251966E+01  0.00000000000E+00 0. -1.
         21   -1    0    0  503  502  0.00000000000E+00 -0.00000000000E+00 -0.15721333465E+03  0.15721333465E+03  0.00000000000E+00 0.  1.
         21    1    1    2  503  501  0.16551980997E+02  0.18676672397E+02 -0.13747410898E+03  0.13972085316E+03  0.00000000000E+00 0.  1.
         -1    1    1    2    0  502 -0.16551980997E+02 -0.18676672397E+02 -0.10252200474E+02  0.26979506691E+02  0.00000000000E+00 0. -1.
</event>
<event>
 4    1  0.1560907E+006  0.2092586E+02  0.7546771E-02  0.1520326E+00
         -1   -1    0    0    0  501 -0.00000000000E+00  0.00000000000E+00  0.11345499203E+03  0.11345499203E+03  0.00000000000E+00 0.  1.
         21   -1    0    0  501  502  0.00000000000E+00 -0.00000000000E+00 -0.85513267159E+02  0.85513267159E+02  0.00000000000E+00 0. -1.
         21    1    1    2  503  502 -0.17397120133E+02  0.11628926515E+02 -0.83242257682E+02  0.85832192008E+02  0.00000000000E+00 0. -1.
         -1    1    1    2    0  503  0.17397120133E+02 -0.11628926515E+02  0.11118398255E+03  0.11313606718E+03  0.00000000000E+00 0.  1.
</event>
<event>
 4    1  0.1560907E+006  0.2003766E+02  0.7546771E-02  0.1533461E+00
         21   -1    0    0  503  502  0.00000000000E+00  0.00000000000E+00  0.34406998573E+03  0.34406998573E+03  0.00000000000E+00 0.  1.
          3   -1    0    0  502    0 -0.00000000000E+00 -0.00000000000E+00 -0.14553775647E+01  0.14553775647E+01  0.00000000000E+00 0.  1.
         21    1    1    2  503  501 -0.80829964041E+01 -0.18335017120E+02  0.24821874586E+03  0.24902621043E+03  0.00000000000E+00 0.  1.
          3    1    1    2  501    0  0.80829964041E+01  0.18335017120E+02  0.94395862304E+02  0.96499152866E+02  0.00000000000E+00 0.  1.
</event>
<event>
 4    1  0.1560907E+006  0.2135355E+02  0.7546771E-02  0.1514277E+00
          1   -1    0    0  503    0 -0.00000000000E+00  0.00000000000E+00  0.19622353931E+03  0.19622353931E+03  0.00000000000E+00 0. -1.
         21   -1    0    0  501  502  0.00000000000E+00 -0.00000000000E+00 -0.24161356017E+02  0.24161356017E+02  0.00000000000E+00 0. -1.
         21    1    1    2  503  502 -0.10095868495E+02  0.18816149649E+02 -0.18728479326E+02  0.28402992557E+02  0.00000000000E+00 0. -1.
          1    1    1    2  501    0  0.10095868495E+02 -0.18816149649E+02  0.19079066262E+03  0.19198190277E+03  0.00000000000E+00 0. -1.
</event>
<event>
 4    1  0.1560907E+006  0.2456586E+02  0.7546771E-02  0.1473719E+00
         21   -1    0    0  503  502  0.00000000000E+00  0.00000000000E+00  0.21620512812E+02  0.21620512812E+02  0.00000000000E+00 0. -1.
          2   -1    0    0  502    0 -0.00000000000E+00 -0.00000000000E+00 -0.17093211287E+03  0.17093211287E+03  0.00000000000E+00 0. -1.
         21    1    1    2  503  501 -0.19197204680E+02  0.15328036902E+02  0.13409638290E+02  0.27987493312E+02  0.00000000000E+00 0. -1.
          2    1    1    2  501    0  0.19197204680E+02 -0.15328036902E+02 -0.16272123835E+03  0.16456513237E+03  0.00000000000E+00 0. -1.
</event>
<event>
 4    1  0.1560907E+006  0.3433220E+02  0.7546771E-02  0.1385320E+00
         21   -1    0    0  501  502  0.00000000000E+00  0.00000000000E+00  0.14230588196E+02  0.14230588196E+02  0.00000000000E+00 0. -1.
         -2   -1    0    0    0  501 -0.00000000000E+00 -0.00000000000E+00 -0.36763292162E+03  0.36763292162E+03  0.00000000000E+00 0. -1.
         21    1    1    2  503  502  0.33046051842E+02 -0.93090559552E+01 -0.86489543248E+01  0.35404865147E+02  0.00000000000E+00 0. -1.
         -2    1    1    2    0  503 -0.33046051842E+02  0.93090559552E+01 -0.34475337910E+03  0.34645864467E+03  0.00000000000E+00 0. -1.
</event>
<event>
 4    1  0.1560907E+006  0.2434864E+02  0.7546771E-02  0.1476224E+00
         21   -1    0    0  501  502  0.00000000000E+00  0.00000000000E+00  0.41234726627E+02  0.41234726627E+02  0.00000000000E+00 0. -1.
          1   -1    0    0  503    0 -0.00000000000E+00 -0.00000000000E+00 -0.80824830337E+03  0.80824830337E+03  0.00000000000E+00 0. -1.
         21    1    1    2  503  502 -0.23107328773E+02 -0.76751251215E+01  0.37439999637E+02  0.44661054191E+02  0.00000000000E+00 0. -1.
          1    1    1    2  501    0  0.23107328773E+02  0.76751251215E+01 -0.80445357638E+03  0.80482197581E+03  0.00000000000E+00 0. -1.
</event>
<event>
 4    1  0.1560907E+006  0.3332319E+02  0.7546771E-02  0.1392751E+00
          2   -1    0    0  502    0 -0.00000000000E+00  0.00000000000E+00  0.17267609809E+04  0.17267609809E+04  0.00000000000E+00 0.  1.
         21   -1    0    0  503  502  0.00000000000E+00 -0.00000000000E+00 -0.29295784203E+02  0.29295784203E+02  0.00000000000E+00 0. -1.
         21    1    1    2  503  501 -0.32978342684E+02  0.47816050950E+01 -0.19605479122E+02  0.38662768202E+02  0.00000000000E+00 0. -1.
          2    1    1    2  501    0  0.32978342684E+02 -0.47816050950E+01  0.17170706758E+04  0.17173939969E+04  0.00000000000E+00 0.  1.
</event>
<event>
 4    1  0.1560907E+006  0.2548467E+02  0.7546771E-02  0.1463454E+00
         21   -1    0    0  501  502  0.00000000000E+00  0.00000000000E+00  0.58885024905E+01  0.58885024905E+01  0.00000000000E+00 0.  1.
          2   -1    0    0  503    0 -0.00000000000E+00 -0.00000000000E+00 -0.11906695902E+03  0.11906695902E+03  0.00000000000E+00 0.  1.
         21    1    1    2  503  502 -0.24208608990E+02 -0.79631371327E+01 -0.73548026148E+02  0.77838168353E+02  0.00000000000E+00 0.  1.
          2    1    1    2  501    0  0.24208608990E+02  0.79631371327E+01 -0.39630430377E+02  0.47117293153E+02  0.00000000000E+00 0.  1.
</event>
<event>
 4    1  0.1560907E+006  0.2286258E+02  0.7546771E-02  0.1494231E+00
         21   -1    0    0  503  502  0.00000000000E+00  0.00000000000E+00  0.40286602799E+02  0.40286602799E+02  0.00000000000E+00 0.  1.
          1   -1    0    0  502    0 -0.00000000000E+00 -0.00000000000E+00 -0.17490595666E+02  0.17490595666E+02  0.00000000000E+00 0.  1.
         21    1    1    2  503  501 -0.10988755335E+02  0.20048559821E+02  0.26077358916E+02  0.34680342310E+02  0.00000000000E+00 0.  1.
          1    1    1    2  501    0  0.10988755335E+02 -0.20048559821E+02 -0.32813517832E+01  0.23096856155E+02  0.00000000000E+00 0.  1.
</event>
<event>
 4    1  0.1560907E+006  0.2001420E+02  0.7546771E-02  0.1533819E+00
         -3   -1    0    0    0  501 -0.00000000000E+00  0.00000000000E+00  0.60041137611E+02  0.60041137611E+02  0.00000000000E+00 0. -1.
         21   -1    0    0  501  502  0.00000000000E+00 -0.00000000000E+00 -0.32685186498E+02  0.32685186498E+02  0.00000000000E+00 0. -1.
         21    1    1    2  503  502  0.15757106861E+02 -0.12340246073E+02 -0.27683689106E+02  0.34160719142E+02  0.00000000000E+00 0. -1.
         -3    1    1    2    0  503 -0.15757106861E+02  0.12340246073E+02  0.55039640219E+02  0.58565604967E+02  0.00000000000E+00 0. -1.
</event>
<event>
 4    1  0.1560907E+006  0.3775696E+02  0.7546771E-02  0.1362156E+00
          2   -1    0    0  502    0 -0.00000000000E+00  0.00000000000E+00  0.14253602449E+04  0.14253602449E+04  0.00000000000E+00 0.  1.
         21   -1    0    0  503  502  0.00000000000E+00 -0.00000000000E+00 -0.23126582012E+02  0.23126582012E+02  0.00000000000E+00 0. -1.
         21    1    1    2  503  501  0.14755711669E+02 -0.34754233503E+02 -0.72927524783E+01  0.38454804797E+02  0.00000000000E+00 0. -1.
          2    1    1    2  501    0 -0.14755711669E+02  0.34754233503E+02  0.14095264154E+04  0.14100320221E+04  0.00000000000E+00 0.  1.
</event>
<event>
 4    1  0.1560907E+006  0.3961614E+02  0.7546771E-02  0.1350750E+00
          3   -1    0    0  503    0 -0.00000000000E+00  0.00000000000E+00  0.33639674568E+02  0.33639674568E+02  0.00000000000E+00 0.  1.
         21   -1    0    0  501  502  0.00000000000E+00 -0.00000000000E+00 -0.49078514538E+02  0.49078514538E+02  0.00000000000E+00 0.  1.
         21    1    1    2  503  502 -0.31332864185E+02  0.24242315157E+02 -0.16911282348E+02  0.43074698988E+02  0.00000000000E+00 0.  1.
          3    1    1    2  501    0  0.31332864185E+02 -0.24242315157E+02  0.14724423784E+01  0.39643490119E+02  0.00000000000E+00 0.  1.
</event>
<event>
 4    1  0.1560907E+006  0.2751596E+02  0.7546771E-02  0.1442493E+00
         21   -1    0    0  501  502  0.00000000000E+00  0.00000000000E+00  0.68401130261E+01  0.68401130261E+01  0.00000000000E+00 0.  1.
          1   -1    0    0  503    0 -0.00000000000E+00 -0.00000000000E+00 -0.15231448161E+03  0.15231448161E+03  0.00000000000E+00 0. -1.
         21    1    1    2  503  502 -0.26581775541E+02  0.71089428256E+01 -0.31136904799E+02  0.41552794124E+02  0.00000000000E+00 0.  1.
          1    1    1    2  501    0  0.26581775541E+02 -0.71089428256E+01 -0.11433746379E+03  0.11760180052E+03  0.00000000000E+00 0. -1.
</event>
<event>
 4    1  0.1560907E+006  0.2244320E+02  0.7546771E-02  0.1499611E+00
         21   -1    0    0  503  502  0.00000000000E+00  0.00000000000E+00  0.40805550069E+02  0.40805550069E+02  0.00000000000E+00 0.  1.
          2   -1    0    0  502    0 -0.00000000000E+00 -0.00000000000E+00 -0.29471664978E+03  0.29471664978E+03  0.00000000000E+00 0. -1.
         21    1    1    2  503  501  0.20114793426E+00  0.22442299503E+02  0.37254739033E+02  0.43492675796E+02  0.00000000000E+00 0.  1.
          2    1    1    2  501    0 -0.20114793426E+00 -0.22442299503E+02 -0.29116583874E+03  0.29202952405E+03  0.00000000000E+00 0. -1.
</event>
<event>
 4    1  0.1560907E+006  0.2065280E+02  0.7546771E-02  0.1524280E+00
         21   -1    0    0  501  502  0.00000000000E+00  0.00000000000E+00  0.69563035887E+01  0.69563035887E+01  0.00000000000E+00 0.  1.
          2   -1    0    0  503    0 -0.00000000000E+00 -0.00000000000E+00 -0.91508520967E+02  0.91508520967E+02  0.00000000000E+00 0.  1.
         21    1    1    2  503  502  0.18666054578E+02  0.88383580817E+01 -0.13997086103E+02  0.24949079872E+02  0.00000000000E+00 0.  1.
          2    1    1    2  501    0 -0.18666054578E+02 -0.88383580817E+01 -0.70555131275E+02  0.73515744684E+02  0.00000000000E+00 0.  1.
</event>
<event>
 4    1  0.1560907E+006  0.2004099E+02  0.7546771E-02  0.1533410E+00
          2   -1    0    0  503    0 -0.00000000000E+00  0.00000000000E+00  0.16584109704E+03  0.16584109704E+03  0.00000000000E+00 0. -1.
         21   -1    0    0  501  502  0.00000000000E+00 -0.00000000000E+00 -0.26284127513E+01  0.26284127513E+01  0.00000000000E+00 0. -1.
         21    1    1    2  503  502  0.19315531283E+01  0.19947691739E+02  0.57991958801E+02  0.61357221163E+02  0.00000000000E+00 0. -1.
          2    1    1    2  501    0 -0.19315531283E+01 -0.19947691739E+02  0.10522072549E+03  0.10711228863E+03  0.00000000000E+00 0. -1.
</event>
<event>
 4    1  0.1560907E+006  0.2275094E+02  0.7546771E-02  0.1495650E+00
          2   -1    0    0  503    0 -0.00000000000E+00  0.00000000000E+00  0.15258258453E+03  0.15258258453E+03  0.00000000000E+00 0. -1.
         21   -1    0    0  501  502  0.00000000000E+00 -0.00000000000E+00 -0.10821488983E+03  0.10821488983E+03  0.00000000000E+00 0.  1.
         21    1    1    2  503  502 -0.11383736646E+02 -0.19698114366E+02 -0.10615476153E+03  0.10856536540E+03  0.00000000000E+00 0.  1.
          2    1    1    2  501    0  0.11383736646E+02  0.19698114366E+02  0.15052245622E+03  0.15223210896E+03  0.00000000000E+00 0. -1.
</event>
<event>
 4    1  0.1560907E+006  0.2018535E+02  0.7546771E-02  0.1531221E+00
          2   -1    0    0  503    0 -0.00000000000E+00  0.00000000000E+00  0.11698176597E+04  0.11698176597E+04  0.00000000000E+00 0.  1.
         21   -1    0    0  501  502  0.00000000000E+00 -0.00000000000E+00 -0.45603333542E+01  0.45603333542E+01  0.00000000000E+00 0. -1.
         21    1    1    2  503  502  0.14307005892E+00 -0.20184844621E+02  0.18308622853E+02  0.27251680539E+02  0.00000000000E+00 0. -1.
          2    1    1    2  501    0 -0.14307005892E+00  0.20184844621E+02  0.11469487035E+04  0.11471263125E+04  0.00000000000E+00 0.  1.
</event>
<event>
 4    1  0.1560907E+006  0.2242267E+02  0.7546771E-02  0.1499878E+00
         21   -1    0    0  501  502  0.00000000000E+00  0.00000000000E+00  0.39879186109E+02  0.39879186109E+02  0.00000000000E+00 0. -1.
          1   -1    0    0  503    0 -0.00000000000E+00 -0.00000000000E+00 -0.31639325083E+03  0.31639325083E+03  0.00000000000E+00 0.  1.
         21    1    1    2  503  502 -0.20101453092E+02  0.99351684927E+01  0.36293966440E+02  0.42661786054E+02  0.00000000000E+00 0. -1.
          1    1    1    2  501    0  0.20101453092E+02 -0.99351684927E+01 -0.31280803116E+03  0.31361065088E+03  0.00000000000E+00 0.  1.
</event>
<event>
 4    1  0.1560907E+006  0.2765239E+02  0.7546771E-02  0.1441163E+00
         21   -1    0    0  501  502  0.00000000000E+00  0.00000000000E+00  0.92705681850E+00  0.92705681850E+00  0.00000000000E+00 0.  1.
          1   -1    0    0  503    0 -0.00000000000E+00 -0.00000000000E+00 -0.92712973165E+03  0.92712973165E+03  0.00000000000E+00 0.  1.
         21    1    1    2  503  502  0.66695446883E+01  0.26836015445E+02 -0.30895478588E+03  0.31018980362E+03  0.00000000000E+00 0.  1.
          1    1    1    2  501    0 -0.66695446883E+01 -0.26836015445E+02 -0.61724788895E+03  0.61786698485E+03  0.00000000000E+00 0.  1.
</event>
<event>
 4    1  0.1560907E+006  0.3262267E+02  0.7546771E-02  0.1398094E+00
         21   -1    0    0  503  502  0.00000000000E+00  0.00000000000E+00  0.71325116377E+02  0.71325116377E+02  0.00000000000E+00 0. -1.
         -4   -1    0    0    0  501 -0.00000000000E+00 -0.00000000000E+00 -0.15418588059E+02  0.15418588059E+02  0.00000000000E+00 0. -1.
         21    1    1    2  503  501  0.71322447988E+01 -0.31833463454E+02  0.35745168011E+02  0.48393753187E+02  0.00000000000E+00 0. -1.
         -4    1    1    2    0  502 -0.71322447988E+01  0.31833463454E+02  0.20161360306E+02  0.38349951249E+02  0.00000000000E+00 0. -1.
</event>
<event>
 4    1  0.1560907E+006  0.2799754E+02  0.7546771E-02  0.1437837E+00
         21   -1    0    0  501  502  0.00000000000E+00  0.00000000000E+00  0.16008600227E+01  0.16008600227E+01  0.00000000000E+00 0.  1.
          2   -1    0    0  503    0 -0.00000000000E+00 -0.00000000000E+00 -0.51325605530E+03  0.51325605530E+03  0.00000000000E+00 0.  1.
         21    1    1    2  503  502 -0.26700307674E+02  0.84235332730E+01 -0.20062059851E+03  0.20256477208E+03  0.00000000000E+00 0.  1.
          2    1    1    2  501    0  0.26700307674E+02 -0.84235332730E+01 -0.31103459676E+03  0.31229214323E+03  0.00000000000E+00 0.  1.
</event>
<event>
 4    1  0.1560907E+006  0.2130736E+02  0.7546771E-02  0.1514922E+00
         21   -1    0    0  501  502  0.00000000000E+00  0.00000000000E+00  0.61958054240E+02  0.61958054240E+02  0.00000000000E+00 0.  1.
          1   -1    0    0  503    0 -0.00000000000E+00 -0.00000000000E+00 -0.12107896248E+02  0.12107896248E+02  0.00000000000E+00 0.  1.
         21    1    1    2  503  502  0.39242469844E+01 -0.20942870717E+02  0.16558561957E+01  0.21371602841E+02  0.00000000000E+00 0.  1.
          1    1    1    2  501    0 -0.39242469844E+01  0.20942870717E+02  0.48194301796E+02  0.52694347646E+02  0.00000000000E+00 0.  1.
</event>
<event>
 4    1  0.1560907E+006  0.3016783E+02  0.7546771E-02  0.1418143E+00
         -1   -1    0    0    0  501 -0.00000000000E+00  0.00000000000E+00  0.33974048309E+02  0.33974048309E+02  0.00000000000E+00 0.  1.
         21   -1    0    0  501  502  0.00000000000E+00 -0.00000000000E+00 -0.29081405300E+03  0.29081405300E+03  0.00000000000E+00 0.  1.
         21    1    1    2  503  502  0.27509601249E+02 -0.12382229474E+02 -0.28315401518E+03  0.28475655231E+03  0.00000000000E+00 0.  1.
         -1    1    1    2    0  503 -0.27509601249E+02  0.12382229474E+02  0.26314010489E+02  0.40031549004E+02  0.00000000000E+00 0.  1.
</event>
<event>
 4    1  0.1560907E+006  0.2079823E+02  0.7546771E-02  0.1522165E+00
         21   -1    0    0  501  502  0.00000000000E+00  0.00000000000E+00  0.44498265973E+02  0.44498265973E+02  0.00000000000E+00 0.  1.
          2   -1    0    0  503    0 -0.00000000000E+00 -0.00000000000E+00 -0.16850738102E+03  0.16850738102E+03  0.00000000000E+00 0. -1.
         21    1    1    2  503  502 -0.13365321878E+02  0.15935321051E+02  0.41380631031E+02  0.46313312454E+02  0.00000000000E+00 0.  1.
          2    1    1    2  501    0  0.13365321878E+02 -0.15935321051E+02 -0.16538974608E+03  0.16669233454E+03  0.00000000000E+00 0. -1.
</event>
<event>
 4    1  0.1560907E+006  0.2917617E+02  0.7546771E-02  0.1426893E+00
         21   -1    0    0  503  502  0.00000000000E+00  0.00000000000E+00  0.68279314366E+03  0.68279314366E+03  0.00000000000E+00 0.  1.
         -2   -1    0    0    0  501 -0.00000000000E+00 -0.00000000000E+00 -0.17777392205E+02  0.17777392205E+02  0.00000000000E+00 0. -1.
         21    1    1    2  503  501 -0.11370233722E+02 -0.26869442816E+02  0.67028727143E+03  0.67092195926E+03  0.00000000000E+00 0.  1.
         -2    1    1    2    0  502  0.11370233722E+02  0.26869442816E+02 -0.52715199739E+01  0.29648576609E+02  0.00000000000E+00 0. -1.
</event>
<event>
 4    1  0.1560907E+006  0.5020988E+02  0.7546771E-02  0.1297265E+00
         21   -1    0    0  503  502  0.00000000000E+00  0.00000000000E+00  0.11563635942E+03  0.11563635942E+03  0.00000000000E+00 0.  1.
         -1   -1    0    0    0  501 -0.00000000000E+00 -0.00000000000E+00 -0.34130618897E+02  0.34130618897E+02  0.00000000000E+00 0.  1.
         21    1    1    2  503  501  0.48070356751E+02 -0.14500771377E+02  0.85760093781E+02  0.99377186788E+02  0.00000000000E+00 0.  1.
         -1    1    1    2    0  502 -0.48070356751E+02  0.14500771377E+02 -0.42543532574E+01  0.50389791529E+02  0.00000000000E+00 0.  1.
</event>
<event>
 4    1  0.1560907E+006  0.2118447E+02  0.7546771E-02  0.1516647E+00
         21   -1    0    0  501  502  0.00000000000E+00  0.00000000000E+00  0.77700338041E+01  0.77700338041E+01  0.00000000000E+00 0. -1.
         -4   -1    0    0    0  501 -0.00000000000E+00 -0.00000000000E+00 -0.11669981763E+03  0.11669981763E+03  0.00000000000E+00 0. -1.
         21    1    1    2  503  502 -0.15239266593E+02  0.14715513768E+02 -0.10235511169E+02  0.23527585525E+02  0.00000000000E+00 0. -1.
         -4    1    1    2    0  503  0.15239266593E+02 -0.14715513768E+02 -0.98694272656E+02  0.10094226591E+03  0.00000000000E+00 0. -1.
</event>
<event>
 4    1  0.1560907E+006  0.4430004E+02  0.7546771E-02  0.1324977E+00
          2   -1    0    0  503    0 -0.00000000000E+00  0.00000000000E+00  0.14486202475E+04  0.14486202475E+04  0.00000000000E+00 0. -1.
         21   -1    0    0  501  502  0.00000000000E+00 -0.00000000000E+00 -0.14759964778E+01  0.14759964778E+01  0.00000000000E+00 0. -1.
         21    1    1    2  503  502 -0.36465932917E+02  0.25154106827E+02  0.93139318379E+03  0.93244611435E+03  0.00000000000E+00 0. -1.
          2    1    1    2  501    0  0.36465932917E+02 -0.25154106827E+02  0.51575106725E+03  0.51765012965E+03  0.00000000000E+00 0. -1.
</event>
<event>
 4    1  0.1560907E+006  0.2253840E+02  0.7546771E-02  0.1498377E+00
         21   -1    0    0  501  502  0.00000000000E+00  0.00000000000E+00  0.61682872109E+03  0.61682872109E+03  0.00000000000E+00 0. -1.
         -4   -1    0    0    0  501 -0.00000000000E+00 -0.00000000000E+00 -0.13762006857E+01  0.13762006857E+01  0.00000000000E+00 0.  1.
         21    1    1    2  503  502  0.20106073683E+02 -0.10184569191E+02  0.50360760544E+03  0.50411169388E+03  0.00000000000E+00 0. -1.
         -4    1    1    2    0  503 -0.20106073683E+02  0.10184569191E+02  0.11184491497E+03  0.11409322790E+03  0.00000000000E+00 0.  1.
</event>
<event>
 4    1  0.1560907E+006  0.2143110E+02  0.7546771E-02  0.1513198E+00
         21   -1    0    0  503  502  0.00000000000E+00  0.00000000000E+00  0.14226082897E+02  0.14226082897E+02  0.00000000000E+00 0.  1.
          1   -1    0    0  502    0 -0.00000000000E+00 -0.00000000000E+00 -0.32959457918E+03  0.32959457918E+03  0.00000000000E+00 0. -1.
         21    1    1    2  503  501 -0.12397739825E+02  0.17481077917E+02  0.55894561791E+01  0.22148003483E+02  0.00000000000E+00 0.  1.
          1    1    1    2  501    0  0.12397739825E+02 -0.17481077917E+02 -0.32095795246E+03  0.32167265859E+03  0.00000000000E+00 0. -1.
</event>
<event>
 4    1  0.1560907E+006  0.2094477E+02  0.7546771E-02  0.1520055E+00
         21   -1    0    0  503  502  0.00000000000E+00  0.00000000000E+00  0.40030597663E+02  0.40030597663E+02  0.00000000000E+00 0. -1.
         -3   -1    0    0    0  501 -0.00000000000E+00 -0.00000000000E+00 -0.88525750989E+02  0.88525750989E+02  0.00000000000E+00 0. -1.
         21    1    1    2  503  501  0.18964508849E+02  0.88899213356E+01  0.35920671153E+02  0.41580980187E+02  0.00000000000E+00 0. -1.
         -3    1    1    2    0  502 -0.18964508849E+02 -0.88899213356E+01 -0.84415824479E+02  0.86975368466E+02  0.00000000000E+00 0. -1.
</event>
<event>
 4    1  0.1560907E+006  0.3350566E+02  0.7546771E-02  0.1391384E+00
         21   -1    0    0  503  502  0.00000000000E+00  0.00000000000E+00  0.71716719279E+02  0.71716719279E+02  0.00000000000E+00 0.  1.
          1   -1    0    0  502    0 -0.00000000000E+00 -0.00000000000E+00 -0.12090028110E+03  0.12090028110E+03  0.00000000000E+00 0. -1.
         21    1    1    2  503  501 -0.49253503884E+01 -0.33141663273E+02  0.65265868066E+02  0.73363904308E+02  0.00000000000E+00 0.  1.
          1    1    1    2  501    0  0.49253503884E+01  0.33141663273E+02 -0.11444942989E+03  0.11925309607E+03  0.00000000000E+00 0. -1.
</event>
<event>
 4    1  0.1560907E+006  0.2036817E+02  0.7546771E-02  0.1528480E+00
         21   -1    0    0  501  502  0.00000000000E+00  0.00000000000E+00  0.11007190488E+03  0.11007190488E+03  0.00000000000E+00 0.  1.
          4   -1    0    0  503    0 -0.00000000000E+00 -0.00000000000E+00 -0.39397335304E+01  0.39397335304E+01  0.00000000000E+00 0. -1.
         21    1    1    2  503  502  0.17835622308E+02 -0.98362973126E+01  0.41199335727E+02  0.45959193121E+02  0.00000000000E+00 0.  1.
          4    1    1    2  501    0 -0.17835622308E+02  0.98362973126E+01  0.64932835622E+02  0.68052445290E+02  0.00000000000E+00 0. -1.
</event>
<event>
 4    1  0.1560907E+006  0.3519514E+02  0.7546771E-02  0.1379196E+00
         21   -1    0    0  501  502  0.00000000000E+00  0.00000000000E+00  0.10042018508E+01  0.10042018508E+01  0.00000000000E+00 0.  1.
          2   -1    0    0  503    0 -0.00000000000E+00 -0.00000000000E+00 -0.20158081388E+04  0.20158081388E+04  0.00000000000E+00 0.  1.
         21    1    1    2  503  502 -0.32294609237E+02  0.13991291731E+02 -0.37920525171E+03  0.38083503116E+03  0.00000000000E+00 0.  1.
          2    1    1    2  501    0  0.32294609237E+02 -0.13991291731E+02 -0.16355986852E+04  0.16359773095E+04  0.00000000000E+00 0.  1.
</event>
<event>
 4    1  0.1560907E+006  0.3236751E+02  0.7546771E-02  0.1400079E+00
          3   -1    0    0  502    0 -0.00000000000E+00  0.00000000000E+00  0.11047072426E+03  0.11047072426E+03  0.00000000000E+00 0.  1.
         21   -1    0    0  503  502  0.00000000000E+00 -0.00000000000E+00 -0.18679714072E+02  0.18679714072E+02  0.00000000000E+00 0. -1.
         21    1    1    2  503  501  0.30615065190E+02  0.10505876514E+02  0.58656383942E+00  0.32372823711E+02  0.00000000000E+00 0. -1.
          3    1    1    2  501    0 -0.30615065190E+02 -0.10505876514E+02  0.91204446350E+02  0.96777614622E+02  0.00000000000E+00 0.  1.
</event>
<event>
 4    1  0.1560907E+006  0.7071245E+02  0.7546771E-02  0.1227224E+00
          2   -1    0    0  502    0 -0.00000000000E+00  0.00000000000E+00  0.64736460862E+03  0.64736460862E+03  0.00000000000E+00 0. -1.
         21   -1    0    0  503  502  0.00000000000E+00 -0.00000000000E+00 -0.70333593946E+02  0.70333593946E+02  0.00000000000E+00 0. -1.
         21    1    1    2  503  501 -0.68410358060E+02  0.17896184585E+02 -0.50056359344E+02  0.86636537461E+02  0.00000000000E+00 0. -1.
          2    1    1    2  501    0  0.68410358060E+02 -0.17896184585E+02  0.62708737401E+03  0.63106166510E+03  0.00000000000E+00 0. -1.
</event>
<event>
 4    1  0.1560907E+006  0.2148682E+02  0.7546771E-02  0.1512426E+00
         -2   -1    0    0    0  501 -0.00000000000E+00  0.00000000000E+00  0.54944776006E+03  0.54944776006E+03  0.00000000000E+00 0.  1.
         21   -1    0    0  503  502  0.00000000000E+00 -0.00000000000E+00 -0.20841903216E+01  0.20841903216E+01  0.00000000000E+00 0. -1.
         21    1    1    2  503  501  0.27653864790E+01  0.21308126201E+02  0.60638156810E+02  0.64332493080E+02  0.00000000000E+00 0. -1.
         -2    1    1    2    0  502 -0.27653864790E+01 -0.21308126201E+02  0.48672541292E+03  0.48719945730E+03  0.00000000000E+00 0.  1.
</event>
<event>
 4    1  0.1560907E+006  0.3525521E+02  0.7546771E-02  0.1378778E+00
          2   -1    0    0  503    0 -0.00000000000E+00  0.00000000000E+00  0.10851115639E+03  0.10851115639E+03  0.00000000000E+00 0. -1.
         21   -1    0    0  501  502  0.00000000000E+00 -0.00000000000E+00 -0.32731975244E+02  0.32731975244E+02  0.00000000000E+00 0.  1.
         21    1    1    2  503  502  0.18350601611E+02 -0.30102911128E+02 -0.19049737265E+02  0.40072713007E+02  0.00000000000E+00 0.  1.
          2    1    1    2  501    0 -0.18350601611E+02  0.30102911128E+02  0.94828918408E+02  0.10117041862E+03  0.00000000000E+00 0. -1.
</event>
<event>
 4    1  0.1560907E+006  0.2142301E+02  0.7546771E-02  0.1513310E+00
         21   -1    0    0  503  502  0.00000000000E+00  0.00000000000E+00  0.47223307690E+00  0.47223307690E+00  0.00000000000E+00 0. -1.
          2   -1    0    0  502    0 -0.00000000000E+00 -0.00000000000E+00 -0.10369394067E+04  0.10369394067E+04  0.00000000000E+00 0. -1.
         21    1    1    2  503  501 -0.53273988668E+01 -0.20750039334E+02 -0.38828844247E+03  0.38887897844E+03  0.00000000000E+00 0. -1.
          2    1    1    2  501    0  0.53273988668E+01  0.20750039334E+02 -0.64817873120E+03  0.64853266139E+03  0.00000000000E+00 0. -1.
</event>
<event>
 4    1  0.1560907E+006  0.3071674E+02  0.7546771E-02  0.1413468E+00
         21   -1    0    0  501  502  0.00000000000E+00  0.00000000000E+00  0.80005886339E+03  0.80005886339E+03  0.00000000000E+00 0.  1.
         -3   -1    0    0    0  501 -0.00000000000E+00 -0.00000000000E+00 -0.11800128087E+01  0.11800128087E+01  0.00000000000E+00 0. -1.
         21    1    1    2  503  502 -0.30703793246E+02 -0.89190894771E+00  0.40920773689E+03  0.41035897743E+03  0.00000000000E+00 0.  1.
         -3    1    1    2    0  503  0.30703793246E+02  0.89190894771E+00  0.38967111369E+03  0.39087989877E+03  0.00000000000E+00 0. -1.
</event>
<event>
 4    1  0.1560907E+006  0.4239719E+02  0.7546771E-02  0.1334983E+00
         21   -1    0    0  501  502  0.00000000000E+00  0.00000000000E+00  0.60378621792E+02  0.60378621792E+02  0.00000000000E+00 0. -1.
          2   -1    0    0  503    0 -0.00000000000E+00 -0.00000000000E+00 -0.29791299801E+02  0.29791299801E+02  0.00000000000E+00 0.  1.
         21    1    1    2  503  502 -0.34257596975E+02  0.24978772472E+02  0.14112023986E+02  0.44684127447E+02  0.00000000000E+00 0. -1.
          2    1    1    2  501    0  0.34257596975E+02 -0.24978772472E+02  0.16475298006E+02  0.45485794146E+02  0.00000000000E+00 0.  1.
</event>
<event>
 4    1  0.1560907E+006  0.2419924E+02  0.7546771E-02  0.1477964E+00
         -2   -1    0    0    0  501 -0.00000000000E+00  0.00000000000E+00  0.24101735071E+03  0.24101735071E+03  0.00000000000E+00 0.  1.
         21   -1    0    0  503  502  0.00000000000E+00 -0.00000000000E+00 -0.61679520143E+01  0.61679520143E+01  0.00000000000E+00 0.  1.
         21    1    1    2  503  501 -0.13967048826E+02  0.19761697104E+02  0.21206847611E+02  0.32176598809E+02  0.00000000000E+00 0.  1.
         -2    1    1    2    0  502  0.13967048826E+02 -0.19761697104E+02  0.21364255108E+03  0.21500870391E+03  0.00000000000E+00 0.  1.
</event>
<event>
 4    1  0.1560907E+006  0.2042166E+02  0.7546771E-02  0.1527685E+00
         21   -1    0    0  501  502  0.00000000000E+00  0.00000000000E+00  0.83765821955E+00  0.83765821955E+00  0.00000000000E+00 0. -1.
          1   -1    0    0  503    0 -0.00000000000E+00 -0.00000000000E+00 -0.12034678315E+04  0.12034678315E+04  0.00000000000E+00 0. -1.
         21    1    1    2  503  502 -0.87927473789E+01 -0.18431809875E+02 -0.14024349145E+03  0.14172254907E+03  0.00000000000E+00 0. -1.
          1    1    1    2  501    0  0.87927473789E+01  0.18431809875E+02 -0.10623866818E+04  0.10625829406E+04  0.00000000000E+00 0. -1.
</event>
<event>
 4    1  0.1560907E+006  0.2194723E+02  0.7546771E-02  0.1506158E+00
         21   -1    0    0  501  502  0.00000000000E+00  0.00000000000E+00  0.14475300568E+03  0.14475300568E+03  0.00000000000E+00 0.  1.
          2   -1    0    0  503    0 -0.00000000000E+00 -0.00000000000E+00 -0.53141037619E+01  0.53141037619E+01  0.00000000000E+00 0.  1.
         21    1    1    2  503  502  0.14371113081E+02 -0.16587712782E+02  0.11559533472E+03  0.11766036935E+03  0.00000000000E+00 0.  1.
          2    1    1    2  501    0 -0.14371113081E+02  0.16587712782E+02  0.23843567190E+02  0.32406740084E+02  0.00000000000E+00 0.  1.
</event>
<event>
 4    1  0.1560907E+006  0.4853281E+02  0.7546771E-02  0.1304662E+00
         21   -1    0    0  501  502  0.00000000000E+00  0.00000000000E+00  0.50632339768E+01  0.50632339768E+01  0.00000000000E+00 0. -1.
          2   -1    0    0  503    0 -0.00000000000E+00 -0.00000000000E+00 -0.51099876479E+03  0.51099876479E+03  0.00000000000E+00 0. -1.
         21    1    1    2  503  502  0.25941400834E+02  0.41018015489E+02 -0.17572238377E+03  0.18230137144E+03  0.00000000000E+00 0. -1.
          2    1    1    2  501    0 -0.25941400834E+02 -0.41018015489E+02 -0.33021314704E+03  0.33376062732E+03  0.00000000000E+00 0. -1.
</event>
<event>
 4    1  0.1560907E+006  0.2513335E+02  0.7546771E-02  0.1467317E+00
         21   -1    0    0  503  502  0.00000000000E+00  0.00000000000E+00  0.12119405433E+03  0.12119405433E+03  0.00000000000E+00 0.  1.
          2   -1    0    0  502    0 -0.00000000000E+00 -0.00000000000E+00 -0.53849966939E+02  0.53849966939E+02  0.00000000000E+00 0. -1.
         21    1    1    2  503  501  0.16154156237E+02  0.19254311565E+02  0.11685061694E+03  0.11952301853E+03  0.00000000000E+00 0.  1.
          2    1    1    2  501    0 -0.16154156237E+02 -0.19254311565E+02 -0.49506529550E+02  0.55521002744E+02  0.00000000000E+00 0. -1.
</event>
<event>
 4    1  0.1560907E+006  0.2357252E+02  0.7546771E-02  0.1485431E+00
         21   -1    0    0  501  502  0.00000000000E+00  0.00000000000E+00  0.69177167188E+03  0.69177167188E+03  0.00000000000E+00 0.  1.
         -4   -1    0    0    0  501 -0.00000000000E+00 -0.00000000000E+00 -0.11113716642E+03  0.11113716642E+03  0.00000000000E+00 0.  1.
         21    1    1    2  503  502 -0.13655467674E+02  0.19214363906E+02  0.69031827930E+03  0.69072063116E+03  0.00000000000E+00 0.  1.
         -4    1    1    2    0  503  0.13655467674E+02 -0.19214363906E+02 -0.10968377384E+03  0.11218820714E+03  0.00000000000E+00 0.  1.
</event>
<event>
 4    1  0.1560907E+006  0.3293012E+02  0.7546771E-02  0.1395730E+00
         21   -1    0    0  503  502  0.00000000000E+00  0.00000000000E+00  0.36833805443E+03  0.36833805443E+03  0.00000000000E+00 0. -1.
         -3   -1    0    0    0  501 -0.00000000000E+00 -0.00000000000E+00 -0.40706436815E+01  0.40706436815E+01  0.00000000000E+00 0.  1.
         21    1    1    2  503  501  0.27850713074E+02  0.17570735120E+02  0.28009366018E+03  0.28202278529E+03  0.00000000000E+00 0. -1.
         -3    1    1    2    0  502 -0.27850713074E+02 -0.17570735120E+02  0.84173750576E+02  0.90385912826E+02  0.00000000000E+00 0.  1.
</event>
<event>
 4    1  0.1560907E+006  0.2648658E+02  0.7546771E-02  0.1452835E+00
          2   -1    0    0  502    0 -0.00000000000E+00  0.00000000000E+00  0.37384798852E+02  0.37384798852E+02  0.00000000000E+00 0.  1.
         21   -1    0    0  503  502  0.00000000000E+00 -0.00000000000E+00 -0.19107707097E+02  0.19107707097E+02  0.00000000000E+00 0. -1.
         21    1    1    2  503  501 -0.17416310983E+02 -0.19955229034E+02  0.12919422537E+02  0.29469484772E+02  0.00000000000E+00 0. -1.
          2    1    1    2  501    0  0.17416310983E+02  0.19955229034E+02  0.53576692184E+01  0.27023021176E+02  0.00000000000E+00 0.  1.
</event>
<event>
 4    1  0.1560907E+006  0.2392657E+02  0.7546771E-02  0.1481180E+00
         21   -1    0    0  501  502  0.00000000000E+00  0.00000000000E+00  0.25906566663E+03  0.25906566663E+03  0.00000000000E+00 0.  1.
          2   -1    0    0  503    0 -0.00000000000E+00 -0.00000000000E+00 -0.21295861899E+02  0.21295861899E+02  0.00000000000E+00 0.  1.
         21    1    1    2  503  502  0.33688417244E+01  0.23688213045E+02  0.25159351181E+03  0.25272866026E+03  0.00000000000E+00 0.  1.
          2    1    1    2  501    0 -0.33688417244E+01 -0.23688213045E+02 -0.13823707074E+02  0.27632868275E+02  0.00000000000E+00 0.  1.
</event>
<event>
 4    1  0.1560907E+006  0.2036389E+02  0.7546771E-02  0.1528544E+00
         21   -1    0    0  503  502  0.00000000000E+00  0.00000000000E+00  0.14434209494E+03  0.14434209494E+03  0.00000000000E+00 0.  1.
         -3   -1    0    0    0  501 -0.00000000000E+00 -0.00000000000E+00 -0.87591855196E+01  0.87591855196E+01  0.00000000000E+00 0.  1.
         21    1    1    2  503  501  0.62632606640E+01 -0.19376784055E+02  0.13054461990E+03  0.13212337409E+03  0.00000000000E+00 0.  1.
         -3    1    1    2    0  502 -0.62632606640E+01  0.19376784055E+02  0.50382895147E+01  0.20977906370E+02  0.00000000000E+00 0.  1.
</event>
<event>
 4    1  0.1560907E+006  0.2463320E+02  0.7546771E-02  0.1472949E+00
          2   -1    0    0  503    0 -0.00000000000E+00  0.00000000000E+00  0.38812427402E+02  0.38812427402E+02  0.00000000000E+00 0.  1.
         21   -1    0    0  501  502  0.00000000000E+00 -0.00000000000E+00 -0.26426785540E+02  0.26426785540E+02  0.00000000000E+00 0.  1.
         21    1    1    2  503  502 -0.24468789817E+02 -0.28412628183E+01 -0.14653183392E+02  0.28661999809E+02  0.00000000000E+00 0.  1.
          2    1    1    2  501    0  0.24468789817E+02  0.28412628183E+01  0.27038825254E+02  0.36577213134E+02  0.00000000000E+00 0.  1.
</event>
<event>
 4    1  0.1560907E+006  0.2527863E+02  0.7546771E-02  0.1465710E+00
          2   -1    0    0  503    0 -0.00000000000E+00  0.00000000000E+00  0.27450845481E+02  0.27450845481E+02  0.00000000000E+00 0. -1.
         21   -1    0    0  501  502  0.00000000000E+00 -0.00000000000E+00 -0.23368758874E+02  0.23368758874E+02  0.00000000000E+00 0. -1.
         21    1    1    2  503  502 -0.25064234613E+02  0.32853283611E+01  0.46019730274E+00  0.25282820664E+02  0.00000000000E+00 0. -1.
          2    1    1    2  501    0  0.25064234613E+02 -0.32853283611E+01  0.36218893035E+01  0.25536783691E+02  0.00000000000E+00 0. -1.
</event>
<event>
 4    1  0.1560907E+006  0.2655412E+02  0.7546771E-02  0.1452139E+00
         21   -1    0    0  501  502  0.00000000000E+00  0.00000000000E+00  0.68815311640E+02  0.68815311640E+02  0.00000000000E+00 0.  1.
         -1   -1    0    0    0  501 -0.00000000000E+00 -0.00000000000E+00 -0.10253148797E+02  0.10253148797E+02  0.00000000000E+00 0.  1.
         21    1    1    2  503  502 -0.25467933401E+02 -0.75170310094E+01  0.28280187722E+02  0.38792916937E+02  0.00000000000E+00 0.  1.
         -1    1    1    2    0  503  0.25467933401E+02  0.75170310094E+01  0.30281975121E+02  0.40275543499E+02  0.00000000000E+00 0.  1.
</event>
<event>
 4    1  0.1560907E+006  0.2008958E+02  0.7546771E-02  0.1532671E+00
         21   -1    0    0  503  502  0.00000000000E+00  0.00000000000E+00  0.46638062147E+02  0.46638062147E+02  0.00000000000E+00 0.  1.
          2   -1    0    0  502    0 -0.00000000000E+00 -0.00000000000E+00 -0.12148123802E+04  0.12148123802E+04  0.00000000000E+00 0.  1.
         21    1    1    2  503  501  0.74096303919E+01  0.18673203887E+02  0.44387569267E+02  0.48722145595E+02  0.00000000000E+00 0.  1.
          2    1    1    2  501    0 -0.74096303919E+01 -0.18673203887E+02 -0.12125618873E+04  0.12127282968E+04  0.00000000000E+00 0.  1.
</event>
<event>
 4    1  0.1560907E+006  0.3212655E+02  0.7546771E-02  0.1401974E+00
          2   -1    0    0  503    0 -0.00000000000E+00  0.00000000000E+00  0.13869954594E+04  0.13869954594E+04  0.00000000000E+00 0.  1.
         21   -1    0    0  501  502  0.00000000000E+00 -0.00000000000E+00 -0.63298210769E+02  0.63298210769E+02  0.00000000000E+00 0.  1.
         21    1    1    2  503  502 -0.15345491167E+02 -0.28224658408E+02 -0.59023174296E+02  0.67200078463E+02  0.00000000000E+00 0.  1.
          2    1    1    2  501    0  0.15345491167E+02  0.28224658408E+02  0.13827204229E+04  0.13830935917E+04  0.00000000000E+00 0.  1.
</event>
<event>
 4    1  0.1560907E+006  0.2257427E+02  0.7546771E-02  0.1497914E+00
         21   -1    0    0  503  502  0.00000000000E+00  0.00000000000E+00  0.30606727002E+01  0.30606727002E+01  0.00000000000E+00 0.  1.
         -4   -1    0    0    0  501 -0.00000000000E+00 -0.00000000000E+00 -0.17653822536E+03  0.17653822536E+03  0.00000000000E+00 0.  1.
         21    1    1    2  503  501  0.21702851325E+02 -0.62115887581E+01 -0.10815357321E+03  0.11048435631E+03  0.00000000000E+00 0.  1.
         -4    1    1    2    0  502 -0.21702851325E+02  0.62115887581E+01 -0.65323979447E+02  0.69114541750E+02  0.00000000000E+00 0.  1.
</event>
<event>
 4    1  0.1560907E+006  0.2435486E+02  0.7546771E-02  0.1476152E+00
         -2   -1    0    0    0  501 -0.00000000000E+00  0.00000000000E+00  0.31788555962E+01  0.31788555962E+01  0.00000000000E+00 0.  1.
         21   -1    0    0  503  502  0.00000000000E+00 -0.00000000000E+00 -0.21067101655E+03  0.21067101655E+03  0.00000000000E+00 0.  1.
         21    1    1    2  503  501 -0.13162961022E+02  0.20491350410E+02 -0.13989270234E+03  0.14199692656E+03  0.00000000000E+00 0.  1.
         -2    1    1    2    0  502  0.13162961022E+02 -0.20491350410E+02 -0.67599458609E+02  0.71852945582E+02  0.00000000000E+00 0.  1.
</event>
<event>
 4    1  0.1560907E+006  0.2658090E+02  0.7546771E-02  0.1451864E+00
         21   -1    0    0  503  502  0.00000000000E+00  0.00000000000E+00  0.32711027448E+03  0.32711027448E+03  0.00000000000E+00 0. -1.
         -3   -1    0    0    0  501 -0.00000000000E+00 -0.00000000000E+00 -0.91140316971E+01  0.91140316971E+01  0.00000000000E+00 0.  1.
         21    1    1    2  503  501 -0.37133575664E+01 -0.26320248261E+02  0.30584458216E+03  0.30699748033E+03  0.00000000000E+00 0. -1.
         -3    1    1    2    0  502  0.37133575664E+01  0.26320248261E+02  0.12151660617E+02  0.29226825840E+02  0.00000000000E+00 0.  1.
</event>
<event>
 4    1  0.1560907E+006  0.3505876E+02  0.7546771E-02  0.1380151E+00
         21   -1    0    0  501  502  0.00000000000E+00  0.00000000000E+00  0.23457750279E+03  0.23457750279E+03  0.00000000000E+00 0.  1.
          1   -1    0    0  503    0 -0.00000000000E+00 -0.00000000000E+00 -0.74189868191E+01  0.74189868191E+01  0.00000000000E+00 0. -1.
         21    1    1    2  503  502  0.34679602683E+02  0.51421752123E+01  0.17915806528E+03  0.18255609867E+03  0.00000000000E+00 0.  1.
          1    1    1    2  501    0 -0.34679602683E+02 -0.51421752123E+01  0.48000450697E+02  0.59440390942E+02  0.00000000000E+00 0. -1.
</event>
<event>
 4    1  0.1560907E+006  0.2140528E+02  0.7546771E-02  0.1513557E+00
          2   -1    0    0  503    0 -0.00000000000E+00  0.00000000000E+00  0.25928367108E+03  0.25928367108E+03  0.00000000000E+00 0.  1.
         21   -1    0    0  501  502  0.00000000000E+00 -0.00000000000E+00 -0.19031136726E+02  0.19031136726E+02  0.00000000000E+00 0.  1.
         21    1    1    2  503  502 -0.18915733349E+02  0.10019024710E+02 -0.12413088473E+02  0.24744102120E+02  0.00000000000E+00 0.  1.
          2    1    1    2  501    0  0.18915733349E+02 -0.10019024710E+02  0.25266562283E+03  0.25357070569E+03  0.00000000000E+00 0.  1.
</event>
<event>
 4    1  0.1560907E+006  0.2153211E+02  0.7546771E-02  0.1511802E+00
          1   -1    0    0  502    0 -0.00000000000E+00  0.00000000000E+00  0.18938597094E+02  0.18938597094E+02  0.00000000000E+00 0. -1.
         21   -1    0    0  503  502  0.00000000000E+00 -0.00000000000E+00 -0.34382036592E+02  0.34382036592E+02  0.00000000000E+00 0.  1.
         21    1    1    2  503  501 -0.97551903636E+01  0.19195523226E+02 -0.22028582406E+02  0.30804062942E+02  0.00000000000E+00 0.  1.
          1    1    1    2  501    0  0.97551903636E+01 -0.19195523226E+02  0.65851429069E+01  0.22516570744E+02  0.00000000000E+00 0. -1.
</event>
<event>
 4    1  0.1560907E+006  0.2102352E+02  0.7546771E-02  0.1518929E+00
         21   -1    0    0  503  502  0.00000000000E+00  0.00000000000E+00  0.39280820934E+03  0.39280820934E+03  0.00000000000E+00 0. -1.
          2   -1    0    0  502    0 -0.00000000000E+00 -0.00000000000E+00 -0.47702965520E+03  0.47702965520E+03  0.00000000000E+00 0.  1.
         21    1    1    2  503  501 -0.17598874547E+02  0.11500776085E+02  0.39229497061E+03  0.39285790333E+03  0.00000000000E+00 0. -1.
          2    1    1    2  501    0  0.17598874547E+02 -0.11500776085E+02 -0.47651641647E+03  0.47697996122E+03  0.00000000000E+00 0.  1.
</event>
<event>
 4    1  0.1560907E+006  0.3609719E+02  0.7546771E-02  0.1373010E+00
          2   -1    0    0  503    0 -0.00000000000E+00  0.00000000000E+00  0.80335667457E+02  0.80335667457E+02  0.00000000000E+00 0. -1.
         21   -1    0    0  501  502  0.00000000000E+00 -0.00000000000E+00 -0.33296438809E+02  0.33296438809E+02  0.00000000000E+00 0.  1.
         21    1    1    2  503  502  0.35784115502E+02  0.47438321854E+01 -0.17169363716E+02  0.39972414444E+02  0.00000000000E+00 0.  1.
          2    1    1    2  501    0 -0.35784115502E+02 -0.47438321854E+01  0.64208592364E+02  0.73659691822E+02  0.00000000000E+00 0. -1.
</event>
<event>
 4    1  0.1560907E+006  0.2779072E+02  0.7546771E-02  0.1439823E+00
         21   -1    0    0  501  502  0.00000000000E+00  0.00000000000E+00  0.87410479331E+02  0.87410479331E+02  0.00000000000E+00 0. -1.
          4   -1    0    0  503    0 -0.00000000000E+00 -0.00000000000E+00 -0.39592741363E+02  0.39592741363E+02  0.00000000000E+00 0.  1.
         21    1    1    2  503  502  0.15264638505E+01 -0.27748765491E+02  0.79878176406E+02  0.84574506467E+02  0.00000000000E+00 0. -1.
          4    1    1    2  501    0 -0.15264638505E+01  0.27748765491E+02 -0.32060438437E+02  0.42428714227E+02  0.00000000000E+00 0.  1.
</event>
<event>
 4    1  0.1560907E+006  0.2032459E+02  0.7546771E-02  0.1529130E+00
         21   -1    0    0  501  502  0.00000000000E+00  0.00000000000E+00  0.59099106818E+01  0.59099106818E+01  0.00000000000E+00 0.  1.
          2   -1    0    0  503    0 -0.00000000000E+00 -0.00000000000E+00 -0.12492393685E+03  0.12492393685E+03  0.00000000000E+00 0.  1.
         21    1    1    2  503  502  0.12148732339E+02 -0.16294087445E+02 -0.16090762642E+02  0.25922994146E+02  0.00000000000E+00 0.  1.
          2    1    1    2  501    0 -0.12148732339E+02  0.16294087445E+02 -0.10292326353E+03  0.10491085339E+03  0.00000000000E+00 0.  1.
</event>
<event>
 4    1  0.1560907E+006  0.2348427E+02  0.7546771E-02  0.1486505E+00
          3   -1    0    0  503    0 -0.00000000000E+00  0.00000000000E+00  0.10558827204E+01  0.10558827204E+01  0.00000000000E+00 0. -1.
         21   -1    0    0  501  502  0.00000000000E+00 -0.00000000000E+00 -0.13579733596E+04  0.13579733596E+04  0.00000000000E+00 0. -1.
         21    1    1    2  503  502 -0.23474783617E+02 -0.66734408823E+00 -0.12115060203E+04  0.12117336127E+04  0.00000000000E+00 0. -1.
          3    1    1    2  501    0  0.23474783617E+02  0.66734408823E+00 -0.14541145657E+03  0.14729562966E+03  0.00000000000E+00 0. -1.
</event>
<event>
 4    1  0.1560907E+006  0.2065687E+02  0.7546771E-02  0.1524221E+00
         21   -1    0    0  503  502  0.00000000000E+00  0.00000000000E+00  0.82723076125E+01  0.82723076125E+01  0.00000000000E+00 0. -1.
         -4   -1    0    0    0  501 -0.00000000000E+00 -0.00000000000E+00 -0.59394473715E+02  0.59394473715E+02  0.00000000000E+00 0. -1.
         21    1    1    2  503  501  0.20558832613E+02 -0.20101140120E+01 -0.37831332649E+02  0.43103548425E+02  0.00000000000E+00 0. -1.
         -4    1    1    2    0  502 -0.20558832613E+02  0.20101140120E+01 -0.13290833453E+02  0.24563232903E+02  0.00000000000E+00 0. -1.
</event>
<event>
 4    1  0.1560907E+006  0.2183569E+02  0.7546771E-02  0.1507660E+00
          2   -1    0    0  502    0 -0.00000000000E+00  0.00000000000E+00  0.14617929498E+04  0.14617929498E+04  0.00000000000E+00 0. -1.
         21   -1    0    0  503  502  0.00000000000E+00 -0.00000000000E+00 -0.44476761756E+00  0.44476761756E+00  0.00000000000E+00 0. -1.
         21    1    1    2  503  501 -0.16854033515E+02  0.13883039493E+02  0.35314180575E+03  0.35381624073E+03  0.00000000000E+00 0. -1.
          2    1    1    2  501    0  0.16854033515E+02 -0.13883039493E+02  0.11082063764E+04  0.11084214767E+04  0.00000000000E+00 0. -1.
</event>
<event>
 4    1  0.1560907E+006  0.2059285E+02  0.7546771E-02  0.1525158E+00
         -1   -1    0    0    0  501 -0.00000000000E+00  0.00000000000E+00  0.12525258458E+03  0.12525258458E+03  0.00000000000E+00 0.  1.
         21   -1    0    0  501  502  0.00000000000E+00 -0.00000000000E+00 -0.80880943398E+01  0.80880943398E+01  0.00000000000E+00 0.  1.
         21    1    1    2  503  502 -0.11981964951E+02 -0.16748068302E+02  0.77464091185E+01  0.22001639261E+02  0.00000000000E+00 0.  1.
         -1    1    1    2    0  503  0.11981964951E+02  0.16748068302E+02  0.10941808113E+03  0.11133903966E+03  0.00000000000E+00 0.  1.
</event>
<event>
 4    1  0.1560907E+006  0.2577248E+02  0.7546771E-02  0.1460344E+00
         21   -1    0    0  503  502  0.00000000000E+00  0.00000000000E+00  0.13655586672E+02  0.13655586672E+02  0.00000000000E+00 0. -1.
         -4   -1    0    0    0  501 -0.00000000000E+00 -0.00000000000E+00 -0.74892652824E+02  0.74892652824E+02  0.00000000000E+00 0.  1.
         21    1    1    2  503  501  0.13654358599E+02 -0.21858163575E+02 -0.44059995993E+01  0.26146388969E+02  0.00000000000E+00 0. -1.
         -4    1    1    2    0  502 -0.13654358599E+02  0.21858163575E+02 -0.56831066553E+02  0.62401850527E+02  0.00000000000E+00 0.  1.
</event>
<event>
 4    1  0.1560907E+006  0.2643849E+02  0.7546771E-02  0.1453332E+00
         21   -1    0    0  501  502  0.00000000000E+00  0.00000000000E+00  0.88699744104E+01  0.88699744104E+01  0.00000000000E+00 0. -1.
          2   -1    0    0  503    0 -0.00000000000E+00 -0.00000000000E+00 -0.54419167476E+03  0.54419167476E+03  0.00000000000E+00 0. -1.
         21    1    1    2  503  502 -0.20752132855E+02 -0.16381178113E+02 -0.11934899863E+02  0.29007513667E+02  0.00000000000E+00 0. -1.
          2    1    1    2  501    0  0.20752132855E+02  0.16381178113E+02 -0.52338680049E+03  0.52405413551E+03  0.00000000000E+00 0. -1.
</event>
<event>
 4    1  0.1560907E+006  0.2095309E+02  0.7546771E-02  0.1519936E+00
         21   -1    0    0  503  502  0.00000000000E+00  0.00000000000E+00  0.50261650801E+02  0.50261650801E+02  0.00000000000E+00 0. -1.
         -3   -1    0    0    0  501 -0.00000000000E+00 -0.00000000000E+00 -0.38003613065E+02  0.38003613065E+02  0.00000000000E+00 0. -1.
         21    1    1    2  503  501 -0.14322956386E+02  0.15293300180E+02  0.44859149276E+02  0.49511366208E+02  0.00000000000E+00 0. -1.
         -3    1    1    2    0  502  0.14322956386E+02 -0.15293300180E+02 -0.32601111540E+02  0.38753897658E+02  0.00000000000E+00 0. -1.
</event>
<event>
 4    1  0.1560907E+006  0.3815647E+02  0.7546771E-02  0.1359641E+00
         21   -1    0    0  503  502  0.00000000000E+00  0.00000000000E+00  0.17333070097E+03  0.17333070097E+03  0.00000000000E+00 0.  1.
          2   -1    0    0  502    0 -0.00000000000E+00 -0.00000000000E+00 -0.12075050077E+02  0.12075050077E+02  0.00000000000E+00 0.  1.
         21    1    1    2  503  501  0.14902453295E+01  0.38127359657E+02  0.13177260731E+03  0.13718577340E+03  0.00000000000E+00 0.  1.
          2    1    1    2  501    0 -0.14902453295E+01 -0.38127359657E+02  0.29483043581E+02  0.48219977647E+02  0.00000000000E+00 0.  1.
</event>
<event>
 4    1  0.1560907E+006  0.2462773E+02  0.7546771E-02  0.1473011E+00
         21   -1    0    0  503  502  0.00000000000E+00  0.00000000000E+00  0.64894592105E+02  0.64894592105E+02  0.00000000000E+00 0. -1.
         -3   -1    0    0    0  501 -0.00000000000E+00 -0.00000000000E+00 -0.16116247269E+02  0.16116247269E+02  0.00000000000E+00 0. -1.
         21    1    1    2  503  501  0.24578722482E+02 -0.15529064277E+01  0.50641839269E+02  0.56312707285E+02  0.00000000000E+00 0. -1.
         -3    1    1    2    0  502 -0.24578722482E+02  0.15529064277E+01 -0.18634944334E+01  0.24698132090E+02  0.00000000000E+00 0. -1.
</event>
<event>
 4    1  0.1560907E+006  0.2052618E+02  0.7546771E-02  0.1526138E+00
         21   -1    0    0  503  502  0.00000000000E+00  0.00000000000E+00  0.51999166811E+01  0.51999166811E+01  0.00000000000E+00 0.  1.
          1   -1    0    0  502    0 -0.00000000000E+00 -0.00000000000E+00 -0.24866318313E+03  0.24866318313E+03  0.00000000000E+00 0.  1.
         21    1    1    2  503  501  0.66185032137E+01  0.19429859944E+02 -0.17511862419E+02  0.26981278094E+02  0.00000000000E+00 0.  1.
          1    1    1    2  501    0 -0.66185032137E+01 -0.19429859944E+02 -0.22595140403E+03  0.22688182172E+03  0.00000000000E+00 0.  1.
</event>
<event>
 4    1  0.1560907E+006  0.2296737E+02  0.7546771E-02  0.1492908E+00
         21   -1    0    0  503  502  0.00000000000E+00  0.00000000000E+00  0.50646234993E+02  0.50646234993E+02  0.00000000000E+00 0.  1.
         -4   -1    0    0    0  501 -0.00000000000E+00 -0.00000000000E+00 -0.25059293928E+03  0.25059293928E+03  0.00000000000E+00 0.  1.
         21    1    1    2  503  501  0.22703848502E+02  0.34692107127E+01  0.47482918079E+02  0.52745878219E+02  0.00000000000E+00 0.  1.
         -4    1    1    2    0  502 -0.22703848502E+02 -0.34692107127E+01 -0.24742962236E+03  0.24849329605E+03  0.00000000000E+00 0.  1.
</event>
<event>
 4    1  0.1560907E+006  0.2118721E+02  0.7546771E-02  0.1516609E+00
          1   -1    0    0  503    0 -0.00000000000E+00  0.00000000000E+00  0.92398035132E+03  0.92398035132E+03  0.00000000000E+00 0.  1.
         21   -1    0    0  501  502  0.00000000000E+00 -0.00000000000E+00 -0.14012082581E+01  0.14012082581E+01  0.00000000000E+00 0.  1.
         21    1    1    2  503  502 -0.20469845325E+02  0.54665596379E+01  0.87317063014E+02  0.89850805980E+02  0.00000000000E+00 0.  1.
          1    1    1    2  501    0  0.20469845325E+02 -0.54665596379E+01  0.83526208005E+03  0.83553075360E+03  0.00000000000E+00 0.  1.
</event>
<event>
 4    1  0.1560907E+006  0.2220791E+02  0.7546771E-02  0.1502691E+00
         21   -1    0    0  501  502  0.00000000000E+00  0.00000000000E+00  0.66239309875E+02  0.66239309875E+02  0.00000000000E+00 0. -1.
          1   -1    0    0  503    0 -0.00000000000E+00 -0.00000000000E+00 -0.32705052201E+02  0.32705052201E+02  0.00000000000E+00 0. -1.
         21    1    1    2  503  502  0.12599281542E+02  0.18287958051E+02  0.60244733657E+02  0.64207626014E+02  0.00000000000E+00 0. -1.
          1    1    1    2  501    0 -0.12599281542E+02 -0.18287958051E+02 -0.26710475983E+02  0.34736736062E+02  0.00000000000E+00 0. -1.
</event>
<event>
 4    1  0.1560907E+006  0.3579280E+02  0.7546771E-02  0.1375074E+00
         -3   -1    0    0    0  501 -0.00000000000E+00  0.00000000000E+00  0.19518899848E+03  0.19518899848E+03  0.00000000000E+00 0. -1.
         21   -1    0    0  501  502  0.00000000000E+00 -0.00000000000E+00 -0.27798992000E+02  0.27798992000E+02  0.00000000000E+00 0. -1.
         21    1    1    2  503  502 -0.35547720292E+02  0.41813655210E+01 -0.13751902280E+02  0.38343696377E+02  0.00000000000E+00 0. -1.
         -3    1    1    2    0  503  0.35547720292E+02 -0.41813655210E+01  0.18114190876E+03  0.18464429411E+03  0.00000000000E+00 0. -1.
</event>
<event>
 4    1  0.1560907E+006  0.3021895E+02  0.7546771E-02  0.1417703E+00
         -3   -1    0    0    0  501 -0.00000000000E+00  0.00000000000E+00  0.10100322913E+03  0.10100322913E+03  0.00000000000E+00 0. -1.
         21   -1    0    0  503  502  0.00000000000E+00 -0.00000000000E+00 -0.12592052743E+03  0.12592052743E+03  0.00000000000E+00 0.  1.
         21    1    1    2  503  501  0.27446474321E+02 -0.12644198977E+02 -0.12177135836E+03  0.12546492911E+03  0.00000000000E+00 0.  1.
         -3    1    1    2    0  502 -0.27446474321E+02  0.12644198977E+02  0.96854060052E+02  0.10145882746E+03  0.00000000000E+00 0. -1.
</event>
<event>
 4    1  0.1560907E+006  0.2737039E+02  0.7546771E-02  0.1443923E+00
         21   -1    0    0  501  502  0.00000000000E+00  0.00000000000E+00  0.10916729698E+02  0.10916729698E+02  0.00000000000E+00 0. -1.
          1   -1    0    0  503    0 -0.00000000000E+00 -0.00000000000E+00 -0.76269031411E+02  0.76269031411E+02  0.00000000000E+00 0.  1.
         21    1    1    2  503  502  0.14285930078E+02  0.23346317830E+02 -0.18873563664E+02  0.33246800745E+02  0.00000000000E+00 0. -1.
          1    1    1    2  501    0 -0.14285930078E+02 -0.23346317830E+02 -0.46478738050E+02  0.53938960364E+02  0.00000000000E+00 0.  1.
</event>
<event>
 4    1  0.1560907E+006  0.2104985E+02  0.7546771E-02  0.1518554E+00
          2   -1    0    0  503    0 -0.00000000000E+00  0.00000000000E+00  0.58787035532E+03  0.58787035532E+03  0.00000000000E+00 0.  1.
         21   -1    0    0  501  502  0.00000000000E+00 -0.00000000000E+00 -0.23149572642E+01  0.23149572642E+01  0.00000000000E+00 0.  1.
         21    1    1    2  503  502  0.12001059144E+02 -0.17293657336E+02  0.50440623735E+02  0.54656678708E+02  0.00000000000E+00 0.  1.
          2    1    1    2  501    0 -0.12001059144E+02  0.17293657336E+02  0.53511477432E+03  0.53552863387E+03  0.00000000000E+00 0.  1.
</event>
<event>
 4    1  0.1560907E+006  0.2043913E+02  0.7546771E-02  0.1527425E+00
          1   -1    0    0  503    0 -0.00000000000E+00  0.00000000000E+00  0.29898261976E+03  0.29898261976E+03  0.00000000000E+00 0.  1.
         21   -1    0    0  501  502  0.00000000000E+00 -0.00000000000E+00 -0.53348380838E+01  0.53348380838E+01  0.00000000000E+00 0.  1.
         21    1    1    2  503  502 -0.20202071071E+02  0.31039109361E+01  0.16101324228E+02  0.26019426984E+02  0.00000000000E+00 0.  1.
          1    1    1    2  501    0  0.20202071071E+02 -0.31039109361E+01  0.27754645745E+03  0.27829803086E+03  0.00000000000E+00 0.  1.
</event>
<event>
 4    1  0.1560907E+006  0.2871199E+02  0.7546771E-02  0.1431129E+00
         21   -1    0    0  503  502  0.00000000000E+00  0.00000000000E+00  0.11101245969E+03  0.11101245969E+03  0.00000000000E+00 0. -1.
          2   -1    0    0  502    0 -0.00000000000E+00 -0.00000000000E+00 -0.60306923796E+02  0.60306923796E+02  0.00000000000E+00 0.  1.
         21    1    1    2  503  501 -0.28456197650E+02 -0.38240398451E+01  0.10556533921E+03  0.10940027106E+03  0.00000000000E+00 0. -1.
          2    1    1    2  501    0  0.28456197650E+02  0.38240398451E+01 -0.54859803309E+02  0.61919112433E+02  0.00000000000E+00 0.  1.
</event>
<event>
 4    1  0.1560907E+006  0.2358094E+02  0.7546771E-02  0.1485329E+00
          2   -1    0    0  502    0 -0.00000000000E+00  0.00000000000E+00  0.96867573108E+03  0.96867573108E+03  0.00000000000E+00 0.  1.
         21   -1    0    0  503  502  0.00000000000E+00 -0.00000000000E+00 -0.20776284840E+01  0.20776284840E+01  0.00000000000E+00 0. -1.
         21    1    1    2  503  501  0.13361221859E+02  0.19430353863E+02  0.70385519099E+02  0.74230601504E+02  0.00000000000E+00 0. -1.
          2    1    1    2  501    0 -0.13361221859E+02 -0.19430353863E+02  0.89621258349E+03  0.89652275806E+03  0.00000000000E+00 0.  1.
</event>
<event>
 4    1  0.1560907E+006  0.2173920E+02  0.7546771E-02  0.1508967E+00
          3   -1    0    0  502    0 -0.00000000000E+00  0.00000000000E+00  0.99713196556E+02  0.99713196556E+02  0.00000000000E+00 0. -1.
         21   -1    0    0  503  502  0.00000000000E+00 -0.00000000000E+00 -0.22451322344E+02  0.22451322344E+02  0.00000000000E+00 0.  1.
         21    1    1    2  503  501  0.19195656547E+02  0.10203893283E+02 -0.15622281965E+02  0.26770288796E+02  0.00000000000E+00 0.  1.
          3    1    1    2  501    0 -0.19195656547E+02 -0.10203893283E+02  0.92884156177E+02  0.95394230104E+02  0.00000000000E+00 0. -1.
</event>
<event>
 4    1  0.1560907E+006  0.2019971E+02  0.7546771E-02  0.1531004E+00
          2   -1    0    0  503    0 -0.00000000000E+00  0.00000000000E+00  0.23312557630E+02  0.23312557630E+02  0.00000000000E+00 0.  1.
         21   -1    0    0  501  502  0.00000000000E+00 -0.00000000000E+00 -0.49576674311E+02  0.49576674311E+02  0.00000000000E+00 0.  1.
         21    1    1    2  503  502 -0.19832070346E+02 -0.38362983944E+01 -0.42445875816E+02  0.47007239585E+02  0.00000000000E+00 0.  1.
          2    1    1    2  501    0  0.19832070346E+02  0.38362983944E+01  0.16181759136E+02  0.25881992356E+02  0.00000000000E+00 0.  1.
</event>
<event>
 4    1  0.1560907E+006  0.2174302E+02  0.7546771E-02  0.1508915E+00
         21   -1    0    0  501  502  0.00000000000E+00  0.00000000000E+00  0.12276048806E+03  0.12276048806E+03  0.00000000000E+00 0. -1.
         -1   -1    0    0    0  501 -0.00000000000E+00 -0.00000000000E+00 -0.76132606379E+02  0.76132606379E+02  0.00000000000E+00 0. -1.
         21    1    1    2  503  502 -0.21734581154E+02  0.60574838048E+00  0.12021266404E+03  0.12216318408E+03  0.00000000000E+00 0. -1.
         -1    1    1    2    0  503  0.21734581154E+02 -0.60574838048E+00 -0.73584782358E+02  0.76729910359E+02  0.00000000000E+00 0. -1.
</event>
<event>
 4    1  0.1560907E+006  0.2141591E+02  0.7546771E-02  0.1513409E+00
         21   -1    0    0  503  502  0.00000000000E+00  0.00000000000E+00  0.42753685257E+02  0.42753685257E+02  0.00000000000E+00 0.  1.
         -1   -1    0    0    0  501 -0.00000000000E+00 -0.00000000000E+00 -0.69422348282E+02  0.69422348282E+02  0.00000000000E+00 0. -1.
         21    1    1    2  503  501 -0.15957468626E+02  0.14282874980E+02  0.38238422715E+02  0.43827141070E+02  0.00000000000E+00 0.  1.
         -1    1    1    2    0  502  0.15957468626E+02 -0.14282874980E+02 -0.64907085740E+02  0.68348892470E+02  0.00000000000E+00 0. -1.
</event>
<event>
 4    1  0.1560907E+006  0.2033555E+02  0.7546771E-02  0.1528967E+00
         21   -1    0    0  503  502  0.00000000000E+00  0.00000000000E+00  0.33216001273E+02  0.33216001273E+02  0.00000000000E+00 0. -1.
          1   -1    0    0  502    0 -0.00000000000E+00 -0.00000000000E+00 -0.48921092236E+03  0.48921092236E+03  0.00000000000E+00 0. -1.
         21    1    1    2  503  501  0.18858018151E+02 -0.76098462995E+01  0.29870788463E+02  0.36135835575E+02  0.00000000000E+00 0. -1.
          1    1    1    2  501    0 -0.18858018151E+02  0.76098462995E+01 -0.48586570955E+03  0.48629108806E+03  0.00000000000E+00 0. -1.
</event>
<event>
 4    1  0.1560907E+006  0.2708551E+02  0.7546771E-02  0.1446751E+00
          1   -1    0    0  503    0 -0.00000000000E+00  0.00000000000E+00  0.51673849699E+03  0.51673849699E+03  0.00000000000E+00 0.  1.
         21   -1    0    0  501  502  0.00000000000E+00 -0.00000000000E+00 -0.15521233605E+01  0.15521233605E+01  0.00000000000E+00 0.  1.
         21    1    1    2  503  502  0.13400852579E+02 -0.23538093551E+02  0.18190511210E+03  0.18391056116E+03  0.00000000000E+00 0.  1.
          1    1    1    2  501    0 -0.13400852579E+02  0.23538093551E+02  0.33328126154E+03  0.33438005920E+03  0.00000000000E+00 0.  1.
</event>
<event>
 4    1  0.1560907E+006  0.2213841E+02  0.7546771E-02  0.1503610E+00
          2   -1    0    0  503    0 -0.00000000000E+00  0.00000000000E+00  0.25784133137E+01  0.25784133137E+01  0.00000000000E+00 0. -1.
         21   -1    0    0  501  502  0.00000000000E+00 -0.00000000000E+00 -0.20425834729E+03  0.20425834729E+03  0.00000000000E+00 0.  1.
         21    1    1    2  503  502  0.13959530813E+02  0.17182564839E+02 -0.12808551134E+03  0.12998464236E+03  0.00000000000E+00 0.  1.
          2    1    1    2  501    0 -0.13959530813E+02 -0.17182564839E+02 -0.73594422638E+02  0.76852118243E+02  0.00000000000E+00 0. -1.
</event>
<event>
 4    1  0.1560907E+006  0.2548043E+02  0.7546771E-02  0.1463500E+00
         21   -1    0    0  503  502  0.00000000000E+00  0.00000000000E+00  0.61770843135E+03  0.61770843135E+03  0.00000000000E+00 0.  1.
         -1   -1    0    0    0  501 -0.00000000000E+00 -0.00000000000E+00 -0.52001866807E+01  0.52001866807E+01  0.00000000000E+00 0. -1.
         21    1    1    2  503  501 -0.97555271872E+01 -0.23538943947E+02  0.58445783508E+03  0.58501300257E+03  0.00000000000E+00 0.  1.
         -1    1    1    2    0  502  0.97555271872E+01  0.23538943947E+02  0.28050409591E+02  0.37895615460E+02  0.00000000000E+00 0. -1.
</event>
<event>
 4    1  0.1560907E+006  0.2223352E+02  0.7546771E-02  0.1502354E+00
          1   -1    0    0  502    0 -0.00000000000E+00  0.00000000000E+00  0.91704351012E+01  0.91704351012E+01  0.00000000000E+00 0. -1.
         21   -1    0    0  503  502  0.00000000000E+00 -0.00000000000E+00 -0.91118106309E+02  0.91118106309E+02  0.00000000000E+00 0. -1.
         21    1    1    2  503  501 -0.20566905163E+02 -0.84458128812E+01 -0.73019466235E+02  0.76329363894E+02  0.00000000000E+00 0. -1.
          1    1    1    2  501    0  0.20566905163E+02  0.84458128812E+01 -0.89282049726E+01  0.23959177516E+02  0.00000000000E+00 0. -1.
</event>
<event>
 4    1  0.1560907E+006  0.2712580E+02  0.7546771E-02  0.1446348E+00
         -4   -1    0    0    0  501 -0.00000000000E+00  0.00000000000E+00  0.69418146645E+02  0.69418146645E+02  0.00000000000E+00 0.  1.
         21   -1    0    0  503  502  0.00000000000E+00 -0.00000000000E+00 -0.11649458227E+02  0.11649458227E+02  0.00000000000E+00 0. -1.
         21    1    1    2  503  501  0.16457473905E+02  0.21562945636E+02  0.16716421360E+02  0.31862953644E+02  0.00000000000E+00 0. -1.
         -4    1    1    2    0  502 -0.16457473905E+02 -0.21562945636E+02  0.41052267058E+02  0.49204651227E+02  0.00000000000E+00 0.  1.
</event>
<event>
 4    1  0.1560907E+006  0.2669654E+02  0.7546771E-02  0.1450680E+00
         -3   -1    0    0    0  501 -0.00000000000E+00  0.00000000000E+00  0.15285233830E+02  0.15285233830E+02  0.00000000000E+00 0.  1.
         21   -1    0    0  501  502  0.00000000000E+00 -0.00000000000E+00 -0.20773910951E+03  0.20773910951E+03  0.00000000000E+00 0.  1.
         21    1    1    2  503  502 -0.16217302060E+02 -0.21206231804E+02 -0.19443048702E+03  0.19625473099E+03  0.00000000000E+00 0.  1.
         -3    1    1    2    0  503  0.16217302060E+02  0.21206231804E+02  0.19766113320E+01  0.26769612358E+02  0.00000000000E+00 0.  1.
</event>
<event>
 4    1  0.1560907E+006  0.8296959E+02  0.7546771E-02  0.1197116E+00
         21   -1    0    0  501  502  0.00000000000E+00  0.00000000000E+00  0.14185453286E+04  0.14185453286E+04  0.00000000000E+00 0. -1.
          3   -1    0    0  503    0 -0.00000000000E+00 -0.00000000000E+00 -0.26283063934E+02  0.26283063934E+02  0.00000000000E+00 0.  1.
         21    1    1    2  503  502  0.76294862892E+02 -0.32604405168E+02  0.13484527554E+04  0.13510028819E+04  0.00000000000E+00 0. -1.
          3    1    1    2  501    0 -0.76294862892E+02  0.32604405168E+02  0.43809509219E+02  0.93825510593E+02  0.00000000000E+00 0.  1.
</event>
<event>
 4    1  0.1560907E+006  0.3149551E+02  0.7546771E-02  0.1407031E+00
          2   -1    0    0  503    0 -0.00000000000E+00  0.00000000000E+00  0.39870755406E+03  0.39870755406E+03  0.00000000000E+00 0.  1.
         21   -1    0    0  501  502  0.00000000000E+00 -0.00000000000E+00 -0.32774033933E+01  0.32774033933E+01  0.00000000000E+00 0. -1.
         21    1    1    2  503  502  0.26548663122E+02 -0.16945085858E+02  0.99069856103E+02  0.10395577827E+03  0.00000000000E+00 0. -1.
          2    1    1    2  501    0 -0.26548663122E+02  0.16945085858E+02  0.29636029456E+03  0.29802917918E+03  0.00000000000E+00 0.  1.
</event>
<event>
 4    1  0.1560907E+006  0.3152498E+02  0.7546771E-02  0.1406792E+00
          2   -1    0    0  503    0 -0.00000000000E+00  0.00000000000E+00  0.14901240515E+04  0.14901240515E+04  0.00000000000E+00 0.  1.
         21   -1    0    0  501  502  0.00000000000E+00 -0.00000000000E+00 -0.78075642263E+00  0.78075642263E+00  0.00000000000E+00 0.  1.
         21    1    1    2  503  502 -0.22318529896E+02  0.22264486782E+02  0.46005286220E+03  0.46113171672E+03  0.00000000000E+00 0.  1.
          2    1    1    2  501    0  0.22318529896E+02 -0.22264486782E+02  0.10292904329E+04  0.10297730912E+04  0.00000000000E+00 0.  1.
</event>
<event>
 4    1  0.1560907E+006  0.2257239E+02  0.7546771E-02  0.1497939E+00
         21   -1    0    0  503  502  0.00000000000E+00  0.00000000000E+00  0.10028718343E+02  0.10028718343E+02  0.00000000000E+00 0. -1.
          1   -1    0    0  502    0 -0.00000000000E+00 -0.00000000000E+00 -0.49771332216E+03  0.49771332216E+03  0.00000000000E+00 0.  1.
         21    1    1    2  503  501 -0.22522884450E+02  0.14941650450E+01 -0.32772521228E+01  0.22809060362E+02  0.00000000000E+00 0. -1.
          1    1    1    2  501    0  0.22522884450E+02 -0.14941650450E+01 -0.48440735169E+03  0.48493298014E+03  0.00000000000E+00 0.  1.
</event>
<event>
 4    1  0.1560907E+006  0.2201775E+02  0.7546771E-02  0.1505215E+00
         21   -1    0    0  503  502  0.00000000000E+00  0.00000000000E+00  0.13451690561E+04  0.13451690561E+04  0.00000000000E+00 0. -1.
         -1   -1    0    0    0  501 -0.00000000000E+00 -0.00000000000E+00 -0.55183892268E+03  0.55183892268E+03  0.00000000000E+00 0. -1.
         21    1    1    2  503  501  0.21722950738E+02  0.35909406444E+01  0.13448592879E+04  0.13450395108E+04  0.00000000000E+00 0. -1.
         -1    1    1    2    0  502 -0.21722950738E+02 -0.35909406444E+01 -0.55152915445E+03  0.55196846798E+03  0.00000000000E+00 0. -1.
</event>
<event>
 4    1  0.1560907E+006  0.4915571E+02  0.7546771E-02  0.1301875E+00
          4   -1    0    0  502    0 -0.00000000000E+00  0.00000000000E+00  0.45762771329E+03  0.45762771329E+03  0.00000000000E+00 0.  1.
         21   -1    0    0  503  502  0.00000000000E+00 -0.00000000000E+00 -0.84508437279E+02  0.84508437279E+02  0.00000000000E+00 0. -1.
         21    1    1    2  503  501 -0.47559069013E+02 -0.12426528931E+02 -0.75903807439E+02  0.90430479654E+02  0.00000000000E+00 0. -1.
          4    1    1    2  501    0  0.47559069013E+02  0.12426528931E+02  0.44902308345E+03  0.45170567091E+03  0.00000000000E+00 0.  1.
</event>
<event>
 4    1  0.1560907E+006  0.2486820E+02  0.7546771E-02  0.1470283E+00
          4   -1    0    0  502    0 -0.00000000000E+00  0.00000000000E+00  0.85234074065E+02  0.85234074065E+02  0.00000000000E+00 0. -1.
         21   -1    0    0  503  502  0.00000000000E+00 -0.00000000000E+00 -0.36553572135E+02  0.36553572135E+02  0.00000000000E+00 0. -1.
         21    1    1    2  503  501 -0.89311932983E+01 -0.23209080017E+02 -0.30176105985E+02  0.39102749026E+02  0.00000000000E+00 0. -1.
          4    1    1    2  501    0  0.89311932983E+01  0.23209080017E+02  0.78856607915E+02  0.82684897174E+02  0.00000000000E+00 0. -1.
</event>
<event>
 4    1  0.1560907E+006  0.2397794E+02  0.7546771E-02  0.1480570E+00
         -3   -1    0    0    0  501 -0.00000000000E+00  0.00000000000E+00  0.46552483543E+01  0.46552483543E+01  0.00000000000E+00 0. -1.
         21   -1    0    0  503  502  0.00000000000E+00 -0.00000000000E+00 -0.16945448438E+03  0.16945448438E+03  0.00000000000E+00 0. -1.
         21    1    1    2  503  501 -0.23873934499E+02  0.22309213255E+01 -0.12773231963E+03  0.12996340730E+03  0.00000000000E+00 0. -1.
         -3    1    1    2    0  502  0.23873934499E+02 -0.22309213255E+01 -0.37066916395E+02  0.44146325435E+02  0.00000000000E+00 0. -1.
</event>
<event>
 4    1  0.1560907E+006  0.2020566E+02  0.7546771E-02  0.1530915E+00
          1   -1    0    0  502    0 -0.00000000000E+00  0.00000000000E+00  0.22303879122E+03  0.22303879122E+03  0.00000000000E+00 0. -1.
         21   -1    0    0  503  502  0.00000000000E+00 -0.00000000000E+00 -0.28132131781E+02  0.28132131781E+02  0.00000000000E+00 0.  1.
         21    1    1    2  503  501  0.15551593516E+02  0.12900261055E+02 -0.23977658223E+02  0.31355970565E+02  0.00000000000E+00 0.  1.
          1    1    1    2  501    0 -0.15551593516E+02 -0.12900261055E+02  0.21888431766E+03  0.21981495244E+03  0.00000000000E+00 0. -1.
</event>
<event>
 4    1  0.1560907E+006  0.2063708E+02  0.7546771E-02  0.1524510E+00
          1   -1    0    0  503    0 -0.00000000000E+00  0.00000000000E+00  0.89351722608E+03  0.89351722608E+03  0.00000000000E+00 0. -1.
         21   -1    0    0  501  502  0.00000000000E+00 -0.00000000000E+00 -0.40793027559E+02  0.40793027559E+02  0.00000000000E+00 0. -1.
         21    1    1    2  503  502  0.12348009040E+02  0.16535287408E+02 -0.38055787088E+02  0.43291246087E+02  0.00000000000E+00 0. -1.
          1    1    1    2  501    0 -0.12348009040E+02 -0.16535287408E+02  0.89077998560E+03  0.89101900755E+03  0.00000000000E+00 0. -1.
</event>
<event>
 4    1  0.1560907E+006  0.2004986E+02  0.7546771E-02  0.1533275E+00
         21   -1    0    0  501  502  0.00000000000E+00  0.00000000000E+00  0.11198212721E+03  0.11198212721E+03  0.00000000000E+00 0.  1.
          4   -1    0    0  503    0 -0.00000000000E+00 -0.00000000000E+00 -0.17244886131E+03  0.17244886131E+03  0.00000000000E+00 0.  1.
         21    1    1    2  503  502 -0.15257360512E+02  0.13008066739E+02  0.11049410803E+03  0.11229846285E+03  0.00000000000E+00 0.  1.
          4    1    1    2  501    0  0.15257360512E+02 -0.13008066739E+02 -0.17096084213E+03  0.17213252566E+03  0.00000000000E+00 0.  1.
</event>
<event>
 4    1  0.1560907E+006  0.7024191E+02  0.7546771E-02  0.1228515E+00
         21   -1    0    0  503  502  0.00000000000E+00  0.00000000000E+00  0.10997161612E+03  0.10997161612E+03  0.00000000000E+00 0. -1.
          2   -1    0    0  502    0 -0.00000000000E+00 -0.00000000000E+00 -0.28133799008E+03  0.28133799008E+03  0.00000000000E+00 0.  1.
         21    1    1    2  503  501 -0.68459380577E+01  0.69907502723E+02  0.93693783030E+02  0.11710017414E+03  0.00000000000E+00 0. -1.
          2    1    1    2  501    0  0.68459380577E+01 -0.69907502723E+02 -0.26506015700E+03  0.27420943206E+03  0.00000000000E+00 0.  1.
</event>
<event>
 4    1  0.1560907E+006  0.3633804E+02  0.7546771E-02  0.1371393E+00
         21   -1    0    0  501  502  0.00000000000E+00  0.00000000000E+00  0.28253677246E+02  0.28253677246E+02  0.00000000000E+00 0. -1.
         -2   -1    0    0    0  501 -0.00000000000E+00 -0.00000000000E+00 -0.59908219209E+03  0.59908219209E+03  0.00000000000E+00 0.  1.
         21    1    1    2  503  502  0.28123124325E+02  0.23011795086E+02  0.15770337573E+02  0.39612578584E+02  0.00000000000E+00 0. -1.
         -2    1    1    2    0  503 -0.28123124325E+02 -0.23011795086E+02 -0.58659885242E+03  0.58772329075E+03  0.00000000000E+00 0.  1.
</event>
<event>
 4    1  0.1560907E+006  0.2747461E+02  0.7546771E-02  0.1442898E+00
         21   -1    0    0  501  502  0.00000000000E+00  0.00000000000E+00  0.66652160363E+03  0.66652160363E+03  0.00000000000E+00 0.  1.
         -4   -1    0    0    0  501 -0.00000000000E+00 -0.00000000000E+00 -0.38864900835E+01  0.38864900835E+01  0.00000000000E+00 0.  1.
         21    1    1    2  503  502  0.13602173690E+02  0.23871223014E+02  0.61348665156E+03  0.61410156005E+03  0.00000000000E+00 0.  1.
         -4    1    1    2    0  503 -0.13602173690E+02 -0.23871223014E+02  0.49148461991E+02  0.56306533665E+02  0.00000000000E+00 0.  1.
</event>
<event>
 4    1  0.1560907E+006  0.2403542E+02  0.7546771E-02  0.1479890E+00
          1   -1    0    0  502    0 -0.00000000000E+00  0.00000000000E+00  0.25439796532E+03  0.25439796532E+03  0.00000000000E+00 0.  1.
         21   -1    0    0  503  502  0.00000000000E+00 -0.00000000000E+00 -0.11163603094E+02  0.11163603094E+02  0.00000000000E+00 0.  1.
         21    1    1    2  503  501 -0.75513091529E+01 -0.22818393725E+02  0.31082760674E+01  0.24235567710E+02  0.00000000000E+00 0.  1.
          1    1    1    2  501    0  0.75513091529E+01  0.22818393725E+02  0.24012608616E+03  0.24132600071E+03  0.00000000000E+00 0.  1.
</event>
<event>
 4    1  0.1560907E+006  0.2435339E+02  0.7546771E-02  0.1476169E+00
         21   -1    0    0  501  502  0.00000000000E+00  0.00000000000E+00  0.53431576570E+02  0.53431576570E+02  0.00000000000E+00 0. -1.
         -2   -1    0    0    0  501 -0.00000000000E+00 -0.00000000000E+00 -0.36340022321E+02  0.36340022321E+02  0.00000000000E+00 0. -1.
         21    1    1    2  503  502 -0.16889934687E+00 -0.24352807613E+02  0.45953534904E+02  0.52007837254E+02  0.00000000000E+00 0. -1.
         -2    1    1    2    0  503  0.16889934687E+00  0.24352807613E+02 -0.28861980655E+02  0.37763761637E+02  0.00000000000E+00 0. -1.
</event>
<event>
 4    1  0.1560907E+006  0.2333086E+02  0.7546771E-02  0.1488385E+00
         21   -1    0    0  501  502  0.00000000000E+00  0.00000000000E+00  0.16455493908E+03  0.16455493908E+03  0.00000000000E+00 0. -1.
          2   -1    0    0  503    0 -0.00000000000E+00 -0.00000000000E+00 -0.11946984846E+02  0.11946984846E+02  0.00000000000E+00 0.  1.
         21    1    1    2  503  502 -0.20151689428E+02  0.11757479625E+02  0.15134945425E+03  0.15313714839E+03  0.00000000000E+00 0. -1.
          2    1    1    2  501    0  0.20151689428E+02 -0.11757479625E+02  0.12584999873E+01  0.23364775543E+02  0.00000000000E+00 0.  1.
</event>
<event>
 4    1  0.1560907E+006  0.2071704E+02  0.7546771E-02  0.1523343E+00
         21   -1    0    0  501  502  0.00000000000E+00  0.00000000000E+00  0.29677771229E+01  0.29677771229E+01  0.00000000000E+00 0.  1.
          2   -1    0    0  503    0 -0.00000000000E+00 -0.00000000000E+00 -0.44693148881E+03  0.44693148881E+03  0.00000000000E+00 0. -1.
         21    1    1    2  503  502  0.16734845084E+02  0.12212315355E+02 -0.36972724379E+02  0.42381340639E+02  0.00000000000E+00 0.  1.
          2    1    1    2  501    0 -0.16734845084E+02 -0.12212315355E+02 -0.40699098731E+03  0.40751792530E+03  0.00000000000E+00 0. -1.
</event>
<event>
 4    1  0.1560907E+006  0.2905147E+02  0.7546771E-02  0.1428022E+00
         21   -1    0    0  501  502  0.00000000000E+00  0.00000000000E+00  0.18647100341E+02  0.18647100341E+02  0.00000000000E+00 0. -1.
          1   -1    0    0  503    0 -0.00000000000E+00 -0.00000000000E+00 -0.90194255746E+02  0.90194255746E+02  0.00000000000E+00 0. -1.
         21    1    1    2  503  502 -0.51232682413E+01  0.28596158977E+02  0.26376326388E+01  0.29170966588E+02  0.00000000000E+00 0. -1.
          1    1    1    2  501    0  0.51232682413E+01 -0.28596158977E+02 -0.74184788044E+02  0.79670389499E+02  0.00000000000E+00 0. -1.
</event>
<event>
 4    1  0.1560907E+006  0.4187625E+02  0.7546771E-02  0.1337828E+00
          1   -1    0    0  503    0 -0.00000000000E+00  0.00000000000E+00  0.70231718990E+03  0.70231718990E+03  0.00000000000E+00 0.  1.
         21   -1    0    0  501  502  0.00000000000E+00 -0.00000000000E+00 -0.51253514871E+02  0.51253514871E+02  0.00000000000E+00 0. -1.
         21    1    1    2  503  502 -0.27967508280E+02  0.31167911713E+02 -0.41961041991E+02  0.59281947378E+02  0.00000000000E+00 0. -1.
          1    1    1    2  501    0  0.27967508280E+02 -0.31167911713E+02  0.69302471702E+03  0.69428875739E+03  0.00000000000E+00 0.  1.
</event>
<event>
 4    1  0.1560907E+006  0.2801366E+02  0.7546771E-02  0.1437683E+00
         21   -1    0    0  501  502  0.00000000000E+00  0.00000000000E+00  0.28332028417E+02  0.28332028417E+02  0.00000000000E+00 0.  1.
          1   -1    0    0  503    0 -0.00000000000E+00 -0.00000000000E+00 -0.89701650454E+02  0.89701650454E+02  0.00000000000E+00 0.  1.
         21    1    1    2  503  502 -0.24475313043E+02  0.13628069322E+02  0.18381262741E+02  0.33505761324E+02  0.00000000000E+00 0.  1.
          1    1    1    2  501    0  0.24475313043E+02 -0.13628069322E+02 -0.79750884777E+02  0.84527917547E+02  0.00000000000E+00 0.  1.
</event>
<event>
 4    1  0.1560907E+006  0.3168968E+02  0.7546771E-02  0.1405460E+00
         21   -1    0    0  503  502  0.00000000000E+00  0.00000000000E+00  0.84585022716E+01  0.84585022716E+01  0.00000000000E+00 0.  1.
          2   -1    0    0  502    0 -0.00000000000E+00 -0.00000000000E+00 -0.20370248657E+04  0.20370248657E+04  0.00000000000E+00 0. -1.
         21    1    1    2  503  501 -0.30156932967E+02 -0.97362827903E+01 -0.21793413573E+02  0.38460222096E+02  0.00000000000E+00 0.  1.
          2    1    1    2  501    0  0.30156932967E+02  0.97362827903E+01 -0.20067729499E+04  0.20070231459E+04  0.00000000000E+00 0. -1.
</event>
<event>
 4    1  0.1560907E+006  0.2696001E+02  0.7546771E-02  0.1448010E+00
         -2   -1    0    0    0  501 -0.00000000000E+00  0.00000000000E+00  0.20268111367E+03  0.20268111367E+03  0.00000000000E+00 0. -1.
         21   -1    0    0  503  502  0.00000000000E+00 -0.00000000000E+00 -0.98261554982E+01  0.98261554982E+01  0.00000000000E+00 0. -1.
         21    1    1    2  503  501 -0.60914094789E+01  0.26262845915E+02  0.11754488464E+02  0.29411058193E+02  0.00000000000E+00 0. -1.
         -2    1    1    2    0  502  0.60914094789E+01 -0.26262845915E+02  0.18110046970E+03  0.18309621097E+03  0.00000000000E+00 0. -1.
</event>
<event>
 4    1  0.1560907E+006  0.2022064E+02  0.7546771E-02  0.1530689E+00
          3   -1    0    0  503    0 -0.00000000000E+00  0.00000000000E+00  0.91092492545E+00  0.91092492545E+00  0.00000000000E+00 0.  1.
         21   -1    0    0  501  502  0.00000000000E+00 -0.00000000000E+00 -0.72830459318E+03  0.72830459318E+03  0.00000000000E+00 0.  1.
         21    1    1    2  503  502 -0.19287724260E+02  0.60710905309E+01 -0.58954681863E+03  0.58989348683E+03  0.00000000000E+00 0.  1.
          3    1    1    2  501    0  0.19287724260E+02 -0.60710905309E+01 -0.13784684962E+03  0.13932203128E+03  0.00000000000E+00 0.  1.
</event>
<event>
 4    1  0.1560907E+006  0.2132078E+02  0.7546771E-02  0.1514734E+00
          1   -1    0    0  503    0 -0.00000000000E+00  0.00000000000E+00  0.70144033423E+01  0.70144033423E+01  0.00000000000E+00 0.  1.
         21   -1    0    0  501  502  0.00000000000E+00 -0.00000000000E+00 -0.24033148550E+03  0.24033148550E+03  0.00000000000E+00 0. -1.
         21    1    1    2  503  502 -0.12239686510E+01  0.21285615522E+02 -0.22234988939E+03  0.22336975812E+03  0.00000000000E+00 0. -1.
          1    1    1    2  501    0  0.12239686510E+01 -0.21285615522E+02 -0.10967192762E+02  0.23976130724E+02  0.00000000000E+00 0.  1.
</event>
<event>
 4    1  0.1560907E+006  0.3056795E+02  0.7546771E-02  0.1414724E+00
         -1   -1    0    0    0  501 -0.00000000000E+00  0.00000000000E+00  0.24002086715E+01  0.24002086715E+01  0.00000000000E+00 0. -1.
         21   -1    0    0  501  502  0.00000000000E+00 -0.00000000000E+00 -0.80243833056E+03  0.80243833056E+03  0.00000000000E+00 0.  1.
         21    1    1    2  503  502 -0.78424418068E+01  0.29544804029E+02 -0.68876846477E+03  0.68944644273E+03  0.00000000000E+00 0.  1.
         -1    1    1    2    0  503  0.78424418068E+01 -0.29544804029E+02 -0.11126965712E+03  0.11539209650E+03  0.00000000000E+00 0. -1.
</event>
<event>
 4    1  0.1560907E+006  0.5130045E+02  0.7546771E-02  0.1292630E+00
         21   -1    0    0  503  502  0.00000000000E+00  0.00000000000E+00  0.10323807378E+03  0.10323807378E+03  0.00000000000E+00 0.  1.
         -1   -1    0    0    0  501 -0.00000000000E+00 -0.00000000000E+00 -0.32692965182E+02  0.32692965182E+02  0.00000000000E+00 0. -1.
         21    1    1    2  503  501 -0.45862839898E+01  0.51095031866E+02  0.67170255083E+02  0.84519698592E+02  0.00000000000E+00 0.  1.
         -1    1    1    2    0  502  0.45862839898E+01 -0.51095031866E+02  0.33748535133E+01  0.51411340368E+02  0.00000000000E+00 0. -1.
</event>
<event>
 4    1  0.1560907E+006  0.2182027E+02  0.7546771E-02  0.1507868E+00
         21   -1    0    0  501  502  0.00000000000E+00  0.00000000000E+00  0.84017546697E+02  0.84017546697E+02  0.00000000000E+00 0. -1.
          1   -1    0    0  503    0 -0.00000000000E+00 -0.00000000000E+00 -0.94411509946E+01  0.94411509946E+01  0.00000000000E+00 0. -1.
         21    1    1    2  503  502 -0.19660436452E+02  0.94652831109E+01  0.66833539080E+02  0.70305378826E+02  0.00000000000E+00 0. -1.
          1    1    1    2  501    0  0.19660436452E+02 -0.94652831109E+01  0.77428566225E+01  0.23153318866E+02  0.00000000000E+00 0. -1.
</event>
<event>
 4    1  0.1560907E+006  0.2973910E+02  0.7546771E-02  0.1421877E+00
         21   -1    0    0  503  502  0.00000000000E+00  0.00000000000E+00  0.14376886149E+01  0.14376886149E+01  0.00000000000E+00 0.  1.
          2   -1    0    0  502    0 -0.00000000000E+00 -0.00000000000E+00 -0.22076263306E+04  0.22076263306E+04  0.00000000000E+00 0.  1.
         21    1    1    2  503  501  0.29034500336E+02 -0.64352081340E+01 -0.16499218809E+03  0.16765093571E+03  0.00000000000E+00 0.  1.
          2    1    1    2  501    0 -0.29034500336E+02  0.64352081340E+01 -0.20411964539E+04  0.20414130835E+04  0.00000000000E+00 0.  1.
</event>
<event>
 4    1  0.1560907E+006  0.2210715E+02  0.7546771E-02  0.1504025E+00
          1   -1    0    0  502    0 -0.00000000000E+00  0.00000000000E+00  0.22456772712E+02  0.22456772712E+02  0.00000000000E+00 0. -1.
         21   -1    0    0  503  502  0.00000000000E+00 -0.00000000000E+00 -0.21769379826E+02  0.21769379826E+02  0.00000000000E+00 0. -1.
         21    1    1    2  503  501  0.17639480225E+02 -0.13325715272E+02 -0.35907988680E-01  0.22107176199E+02  0.00000000000E+00 0. -1.
          1    1    1    2  501    0 -0.17639480225E+02  0.13325715272E+02  0.72330087525E+00  0.22118976339E+02  0.00000000000E+00 0. -1.
</event>
<event>
 4    1  0.1560907E+006  0.3070514E+02  0.7546771E-02  0.1413566E+00
          3   -1    0    0  502    0 -0.00000000000E+00  0.00000000000E+00  0.95386382073E+02  0.95386382073E+02  0.00000000000E+00 0.  1.
         21   -1    0    0  503  502  0.00000000000E+00 -0.00000000000E+00 -0.13960853507E+02  0.13960853507E+02  0.00000000000E+00 0.  1.
         21    1    1    2  503  501 -0.11329714988E+02  0.28538451250E+02  0.11167990288E+02  0.32673072223E+02  0.00000000000E+00 0.  1.
          3    1    1    2  501    0  0.11329714988E+02 -0.28538451250E+02  0.70257538279E+02  0.76674163357E+02  0.00000000000E+00 0.  1.
</event>
<event>
 4    1  0.1560907E+006  0.2463242E+02  0.7546771E-02  0.1472958E+00
         21   -1    0    0  501  502  0.00000000000E+00  0.00000000000E+00  0.78986062587E+03  0.78986062587E+03  0.00000000000E+00 0.  1.
         -1   -1    0    0    0  501 -0.00000000000E+00 -0.00000000000E+00 -0.82793444161E+02  0.82793444161E+02  0.00000000000E+00 0. -1.
         21    1    1    2  503  502 -0.93286387655E+01 -0.22797650089E+02  0.78783172446E+03  0.78821671031E+03  0.00000000000E+00 0.  1.
         -1    1    1    2    0  503  0.93286387655E+01  0.22797650089E+02 -0.80764542750E+02  0.84437359719E+02  0.00000000000E+00 0. -1.
</event>
<event>
 4    1  0.1560907E+006  0.4896837E+02  0.7546771E-02  0.1302708E+00
         21   -1    0    0  501  502  0.00000000000E+00  0.00000000000E+00  0.22552287759E+01  0.22552287759E+01  0.00000000000E+00 0.  1.
          1   -1    0    0  503    0 -0.00000000000E+00 -0.00000000000E+00 -0.11079842450E+04  0.11079842450E+04  0.00000000000E+00 0.  1.
         21    1    1    2  503  502  0.29083376324E+02 -0.39396168990E+02 -0.66439090975E+03  0.66619305150E+03  0.00000000000E+00 0.  1.
          1    1    1    2  501    0 -0.29083376324E+02  0.39396168990E+02 -0.44133810652E+03  0.44404642232E+03  0.00000000000E+00 0.  1.
</event>
<event>
 4    1  0.1560907E+006  0.3219119E+02  0.7546771E-02  0.1401464E+00
          1   -1    0    0  502    0 -0.00000000000E+00  0.00000000000E+00  0.19893690001E+02  0.19893690001E+02  0.00000000000E+00 0.  1.
         21   -1    0    0  503  502  0.00000000000E+00 -0.00000000000E+00 -0.68035330747E+02  0.68035330747E+02  0.00000000000E+00 0.  1.
         21    1    1    2  503  501 -0.32114825638E+02  0.22159532421E+01 -0.45354406241E+02  0.55617395121E+02  0.00000000000E+00 0.  1.
          1    1    1    2  501    0  0.32114825638E+02 -0.22159532421E+01 -0.27872345047E+01  0.32311625628E+02  0.00000000000E+00 0.  1.
</event>
<event>
 4    1  0.1560907E+006  0.2128797E+02  0.7546771E-02  0.1515193E+00
         21   -1    0    0  503  502  0.00000000000E+00  0.00000000000E+00  0.17212402183E+02  0.17212402183E+02  0.00000000000E+00 0.  1.
          4   -1    0    0  502    0 -0.00000000000E+00 -0.00000000000E+00 -0.18414836574E+03  0.18414836574E+03  0.00000000000E+00 0.  1.
         21    1    1    2  503  501 -0.21256073539E+02 -0.11649632219E+01  0.97375476844E+01  0.23409349339E+02  0.00000000000E+00 0.  1.
          4    1    1    2  501    0  0.21256073539E+02  0.11649632219E+01 -0.17667351124E+03  0.17795141859E+03  0.00000000000E+00 0.  1.
</event>
<event>
 4    1  0.1560907E+006  0.2448929E+02  0.7546771E-02  0.1474598E+00
         21   -1    0    0  503  502  0.00000000000E+00  0.00000000000E+00  0.17378919890E+01  0.17378919890E+01  0.00000000000E+00 0. -1.
         -2   -1    0    0    0  501 -0.00000000000E+00 -0.00000000000E+00 -0.52401860936E+03  0.52401860936E+03  0.00000000000E+00 0. -1.
         21    1    1    2  503  501  0.24398821712E+02 -0.21030178210E+01 -0.10752877710E+03  0.11028219752E+03  0.00000000000E+00 0. -1.
         -2    1    1    2    0  502 -0.24398821712E+02  0.21030178210E+01 -0.41475194027E+03  0.41547430383E+03  0.00000000000E+00 0. -1.
</event>
<event>
 4    1  0.1560907E+006  0.2110774E+02  0.7546771E-02  0.1517732E+00
          3   -1    0    0  503    0 -0.00000000000E+00  0.00000000000E+00  0.23285623918E+01  0.23285623918E+01  0.00000000000E+00 0.  1.
         21   -1    0    0  501  502  0.00000000000E+00 -0.00000000000E+00 -0.19276341726E+03  0.19276341726E+03  0.00000000000E+00 0.  1.
         21    1    1    2  503  502  0.98191554595E+01  0.18684781175E+02 -0.86822155136E+02  0.89351124693E+02  0.00000000000E+00 0.  1.
          3    1    1    2  501    0 -0.98191554595E+01 -0.18684781175E+02 -0.10361269973E+03  0.10574085495E+03  0.00000000000E+00 0.  1.
</event>
<event>
 4    1  0.1560907E+006  0.6967431E+02  0.7546771E-02  0.1230089E+00
         21   -1    0    0  503  502  0.00000000000E+00  0.00000000000E+00  0.24135880918E+03  0.24135880918E+03  0.00000000000E+00 0.  1.
          4   -1    0    0  502    0 -0.00000000000E+00 -0.00000000000E+00 -0.67531458560E+02  0.67531458560E+02  0.00000000000E+00 0. -1.
         21    1    1    2  503  501 -0.26020543773E+02  0.64633128427E+02  0.21633139319E+03  0.22727468330E+03  0.00000000000E+00 0.  1.
          4    1    1    2  501    0  0.26020543773E+02 -0.64633128427E+02 -0.42504042572E+02  0.81615584440E+02  0.00000000000E+00 0. -1.
</event>
<event>
 4    1  0.1560907E+006  0.2579986E+02  0.7546771E-02  0.1460051E+00
         21   -1    0    0  503  502  0.00000000000E+00  0.00000000000E+00  0.16810370903E+01  0.16810370903E+01  0.00000000000E+00 0. -1.
          2   -1    0    0  502    0 -0.00000000000E+00 -0.00000000000E+00 -0.75326404324E+03  0.75326404324E+03  0.00000000000E+00 0.  1.
         21    1    1    2  503  501  0.22079013335E+02  0.13347282581E+02 -0.11581904810E+03  0.11865784713E+03  0.00000000000E+00 0. -1.
          2    1    1    2  501    0 -0.22079013335E+02 -0.13347282581E+02 -0.63576395805E+03  0.63628723320E+03  0.00000000000E+00 0.  1.
</event>
<event>
 4    1  0.1560907E+006  0.2010128E+02  0.7546771E-02  0.1532493E+00
         21   -1    0    0  501  502  0.00000000000E+00  0.00000000000E+00  0.39924187720E+01  0.39924187720E+01  0.00000000000E+00 0. -1.
         -3   -1    0    0    0  501 -0.00000000000E+00 -0.00000000000E+00 -0.50501997633E+03  0.50501997633E+03  0.00000000000E+00 0. -1.
         21    1    1    2  503  502 -0.19903432826E+02  0.28133182030E+01 -0.22933760067E+02  0.30496208754E+02  0.00000000000E+00 0. -1.
         -3    1    1    2    0  503  0.19903432826E+02 -0.28133182030E+01 -0.47809379749E+03  0.47851618635E+03  0.00000000000E+00 0. -1.
</event>
<event>
 4    1  0.1560907E+006  0.2649475E+02  0.7546771E-02  0.1452751E+00
         21   -1    0    0  503  502  0.00000000000E+00  0.00000000000E+00  0.72713512603E+00  0.72713512603E+00  0.00000000000E+00 0.  1.
          2   -1    0    0  502    0 -0.00000000000E+00 -0.00000000000E+00 -0.17861711965E+04  0.17861711965E+04  0.00000000000E+00 0. -1.
         21    1    1    2  503  501  0.21119065783E+02  0.15998645171E+02 -0.28707295696E+03  0.28829300062E+03  0.00000000000E+00 0.  1.
          2    1    1    2  501    0 -0.21119065783E+02 -0.15998645171E+02 -0.14983711045E+04  0.14986053310E+04  0.00000000000E+00 0. -1.
</event>
<event>
 4    1  0.1560907E+006  0.2090514E+02  0.7546771E-02  0.1520624E+00
         21   -1    0    0  501  502  0.00000000000E+00  0.00000000000E+00  0.36862585017E+03  0.36862585017E+03  0.00000000000E+00 0.  1.
          4   -1    0    0  503    0 -0.00000000000E+00 -0.00000000000E+00 -0.19038237324E+01  0.19038237324E+01  0.00000000000E+00 0.  1.
         21    1    1    2  503  502  0.39120641598E+01 -0.20535835188E+02  0.29715630603E+03  0.29789074337E+03  0.00000000000E+00 0.  1.
          4    1    1    2  501    0 -0.39120641598E+01  0.20535835188E+02  0.69565720405E+02  0.72638930529E+02  0.00000000000E+00 0.  1.
</event>
<event>
 4    1  0.1560907E+006  0.3181825E+02  0.7546771E-02  0.1404427E+00
         21   -1    0    0  503  502  0.00000000000E+00  0.00000000000E+00  0.37745397655E+02  0.37745397655E+02  0.00000000000E+00 0. -1.
         -4   -1    0    0    0  501 -0.00000000000E+00 -0.00000000000E+00 -0.74532474394E+02  0.74532474394E+02  0.00000000000E+00 0.  1.
         21    1    1    2  503  501  0.18780528811E+02  0.25684487915E+02  0.26522245494E+02  0.41422586688E+02  0.00000000000E+00 0. -1.
         -4    1    1    2    0  502 -0.18780528811E+02 -0.25684487915E+02 -0.63309322233E+02  0.70855285360E+02  0.00000000000E+00 0.  1.
</event>
<event>
 4    1  0.1560907E+006  0.2637489E+02  0.7546771E-02  0.1453991E+00
          1   -1    0    0  503    0 -0.00000000000E+00  0.00000000000E+00  0.47629008231E+02  0.47629008231E+02  0.00000000000E+00 0.  1.
         21   -1    0    0  501  502  0.00000000000E+00 -0.00000000000E+00 -0.20209908414E+03  0.20209908414E+03  0.00000000000E+00 0.  1.
         21    1    1    2  503  502  0.82433539086E+01  0.25053577506E+02 -0.19750265353E+03  0.19925594792E+03  0.00000000000E+00 0.  1.
          1    1    1    2  501    0 -0.82433539086E+01 -0.25053577506E+02  0.43032577618E+02  0.50472144456E+02  0.00000000000E+00 0.  1.
</event>
<event>
 4    1  0.1560907E+006  0.2602867E+02  0.7546771E-02  0.1457617E+00
          2   -1    0    0  503    0 -0.00000000000E+00  0.00000000000E+00  0.12892983581E+04  0.12892983581E+04  0.00000000000E+00 0. -1.
         21   -1    0    0  501  502  0.00000000000E+00 -0.00000000000E+00 -0.11716260300E+01  0.11716260300E+01  0.00000000000E+00 0. -1.
         21    1    1    2  503  502 -0.23912051366E+02  0.10281306996E+02  0.16489173398E+03  0.16693344605E+03  0.00000000000E+00 0. -1.
          2    1    1    2  501    0  0.23912051366E+02 -0.10281306996E+02  0.11232349981E+04  0.11235365381E+04  0.00000000000E+00 0. -1.
</event>
<event>
 4    1  0.1560907E+006  0.2143558E+02  0.7546771E-02  0.1513136E+00
          3   -1    0    0  503    0 -0.00000000000E+00  0.00000000000E+00  0.57552174427E+02  0.57552174427E+02  0.00000000000E+00 0. -1.
         21   -1    0    0  501  502  0.00000000000E+00 -0.00000000000E+00 -0.94330077923E+01  0.94330077923E+01  0.00000000000E+00 0. -1.
         21    1    1    2  503  502 -0.16457602891E+02 -0.13734309704E+02  0.10931786997E+02  0.24062167877E+02  0.00000000000E+00 0. -1.
          3    1    1    2  501    0  0.16457602891E+02  0.13734309704E+02  0.37187379637E+02  0.42923014342E+02  0.00000000000E+00 0. -1.
</event>
<event>
 4    1  0.1560907E+006  0.2334157E+02  0.7546771E-02  0.1488253E+00
         21   -1    0    0  503  502  0.00000000000E+00  0.00000000000E+00  0.28983987112E+02  0.28983987112E+02  0.00000000000E+00 0. -1.
          1   -1    0    0  502    0 -0.00000000000E+00 -0.00000000000E+00 -0.10498951994E+03  0.10498951994E+03  0.00000000000E+00 0.  1.
         21    1    1    2  503  501 -0.23321873989E+02 -0.95860367363E+00  0.22691727014E+02  0.32553697213E+02  0.00000000000E+00 0. -1.
          1    1    1    2  501    0  0.23321873989E+02  0.95860367363E+00 -0.98697259842E+02  0.10141980984E+03  0.00000000000E+00 0.  1.
</event>
<event>
 4    1  0.1560907E+006  0.2220319E+02  0.7546771E-02  0.1502754E+00
         21   -1    0    0  503  502  0.00000000000E+00  0.00000000000E+00  0.64510773910E+01  0.64510773910E+01  0.00000000000E+00 0. -1.
          3   -1    0    0  502    0 -0.00000000000E+00 -0.00000000000E+00 -0.84806531303E+02  0.84806531303E+02  0.00000000000E+00 0.  1.
         21    1    1    2  503  501 -0.38800978320E+01 -0.21861528366E+02 -0.24827632345E+02  0.33307550338E+02  0.00000000000E+00 0. -1.
          3    1    1    2  501    0  0.38800978320E+01  0.21861528366E+02 -0.53527821568E+02  0.57950058356E+02  0.00000000000E+00 0.  1.
</event>
<event>
 4    1  0.1560907E+006  0.2150650E+02  0.7546771E-02  0.1512155E+00
         21   -1    0    0  501  502  0.00000000000E+00  0.00000000000E+00  0.16424709526E+02  0.16424709526E+02  0.00000000000E+00 0.  1.
          3   -1    0    0  503    0 -0.00000000000E+00 -0.00000000000E+00 -0.57091476727E+02  0.57091476727E+02  0.00000000000E+00 0. -1.
         21    1    1    2  503  502  0.46476530699E+01  0.20998309130E+02  0.58332671123E+01  0.22283551571E+02  0.00000000000E+00 0.  1.
          3    1    1    2  501    0 -0.46476530699E+01 -0.20998309130E+02 -0.46500034313E+02  0.51232634683E+02  0.00000000000E+00 0. -1.
</event>
<event>
 4    1  0.1560907E+006  0.2358416E+02  0.7546771E-02  0.1485290E+00
         21   -1    0    0  503  502  0.00000000000E+00  0.00000000000E+00  0.26745214704E+01  0.26745214704E+01  0.00000000000E+00 0. -1.
          2   -1    0    0  502    0 -0.00000000000E+00 -0.00000000000E+00 -0.42448529437E+03  0.42448529437E+03  0.00000000000E+00 0.  1.
         21    1    1    2  503  501  0.22517813567E+02  0.70114662202E+01 -0.58368026173E+02  0.62952673221E+02  0.00000000000E+00 0. -1.
          2    1    1    2  501    0 -0.22517813567E+02 -0.70114662202E+01 -0.36344274673E+03  0.36420714262E+03  0.00000000000E+00 0.  1.
</event>
<event>
 4    1  0.1560907E+006  0.2095083E+02  0.7546771E-02  0.1519968E+00
         21   -1    0    0  501  502  0.00000000000E+00  0.00000000000E+00  0.21270484271E+03  0.21270484271E+03  0.00000000000E+00 0. -1.
          2   -1    0    0  503    0 -0.00000000000E+00 -0.00000000000E+00 -0.24737813513E+01  0.24737813513E+01  0.00000000000E+00 0. -1.
         21    1    1    2  503  502 -0.20042634592E+02  0.61016314311E+01  0.14892600333E+03  0.15039245851E+03  0.00000000000E+00 0. -1.
          2    1    1    2  501    0  0.20042634592E+02 -0.61016314311E+01  0.61305058026E+02  0.64786165553E+02  0.00000000000E+00 0. -1.
</event>
<event>
 4    1  0.1560907E+006  0.2234466E+02  0.7546771E-02  0.1500895E+00
         21   -1    0    0  501  502  0.00000000000E+00  0.00000000000E+00  0.70500024488E+03  0.70500024488E+03  0.00000000000E+00 0.  1.
          2   -1    0    0  503    0 -0.00000000000E+00 -0.00000000000E+00 -0.37688203188E+01  0.37688203188E+01  0.00000000000E+00 0. -1.
         21    1    1    2  503  502 -0.46365428737E+01 -0.21858326323E+02  0.66997274937E+03  0.67034526093E+03  0.00000000000E+00 0.  1.
          2    1    1    2  501    0  0.46365428737E+01  0.21858326323E+02  0.31258675196E+02  0.38423804269E+02  0.00000000000E+00 0. -1.
</event>
<event>
 4    1  0.1560907E+006  0.2025038E+02  0.7546771E-02  0.1530242E+00
         21   -1    0    0  501  502  0.00000000000E+00  0.00000000000E+00  0.66385446813E+02  0.66385446813E+02  0.00000000000E+00 0.  1.
          2   -1    0    0  503    0 -0.00000000000E+00 -0.00000000000E+00 -0.16567516765E+03  0.16567516765E+03  0.00000000000E+00 0.  1.
         21    1    1    2  503  502  0.20142688231E+02  0.20857034284E+01  0.64201793661E+02  0.67319747157E+02  0.00000000000E+00 0.  1.
          2    1    1    2  501    0 -0.20142688231E+02 -0.20857034284E+01 -0.16349151449E+03  0.16474086730E+03  0.00000000000E+00 0.  1.
</event>
<event>
 4    1  0.1560907E+006  0.2286225E+02  0.7546771E-02  0.1494235E+00
          2   -1    0    0  502    0 -0.00000000000E+00  0.00000000000E+00  0.48928346568E+03  0.48928346568E+03  0.00000000000E+00 0.  1.
         21   -1    0    0  503  502  0.00000000000E+00 -0.00000000000E+00 -0.92046785929E+01  0.92046785929E+01  0.00000000000E+00 0. -1.
         21    1    1    2  503  501 -0.53693185023E+01  0.22222798398E+02  0.57044016567E+01  0.23563160826E+02  0.00000000000E+00 0. -1.
          2    1    1    2  501    0  0.53693185023E+01 -0.22222798398E+02  0.47437438543E+03  0.47492498344E+03  0.00000000000E+00 0.  1.
</event>
<event>
 4    1  0.1560907E+006  0.4448888E+02  0.7546771E-02  0.1324015E+00
          3   -1    0    0  503    0 -0.00000000000E+00  0.00000000000E+00  0.33811109256E+02  0.33811109256E+02  0.00000000000E+00 0.  1.
         21   -1    0    0  501  502  0.00000000000E+00 -0.00000000000E+00 -0.23713684097E+03  0.23713684097E+03  0.00000000000E+00 0.  1.
         21    1    1    2  503  502  0.15322084403E+02  0.41767138345E+02 -0.21923239091E+03  0.22370091940E+03  0.00000000000E+00 0.  1.
          3    1    1    2  501    0 -0.15322084403E+02 -0.41767138345E+02  0.15906659190E+02  0.47247030833E+02  0.00000000000E+00 0.  1.
</event>
<event>
 4    1  0.1560907E+006  0.2216506E+02  0.7546771E-02  0.1503257E+00
         21   -1    0    0  503  502  0.00000000000E+00  0.00000000000E+00  0.11665588078E+03  0.11665588078E+03  0.00000000000E+00 0. -1.
         -2   -1    0    0    0  501 -0.00000000000E+00 -0.00000000000E+00 -0.23752586014E+03  0.23752586014E+03  0.00000000000E+00 0.  1.
         21    1    1    2  503  501  0.21998955611E+02  0.27084602166E+01  0.11507890734E+03  0.11719404728E+03  0.00000000000E+00 0. -1.
         -2    1    1    2    0  502 -0.21998955611E+02 -0.27084602166E+01 -0.23594888669E+03  0.23698769364E+03  0.00000000000E+00 0.  1.
</event>
<event>
 4    1  0.1560907E+006  0.2508541E+02  0.7546771E-02  0.1467850E+00
         21   -1    0    0  501  502  0.00000000000E+00  0.00000000000E+00  0.15314094959E+03  0.15314094959E+03  0.00000000000E+00 0. -1.
          2   -1    0    0  503    0 -0.00000000000E+00 -0.00000000000E+00 -0.39983849490E+02  0.39983849490E+02  0.00000000000E+00 0.  1.
         21    1    1    2  503  502 -0.15915728449E-01 -0.25085403159E+02  0.14804460328E+03  0.15015486095E+03  0.00000000000E+00 0. -1.
          2    1    1    2  501    0  0.15915728449E-01  0.25085403159E+02 -0.34887503182E+02  0.42969938134E+02  0.00000000000E+00 0.  1.
</event>
<event>
 4    1  0.1560907E+006  0.2031712E+02  0.7546771E-02  0.1529242E+00
         -3   -1    0    0    0  501 -0.00000000000E+00  0.00000000000E+00  0.15159705296E+03  0.15159705296E+03  0.00000000000E+00 0. -1.
         21   -1    0    0  503  502  0.00000000000E+00 -0.00000000000E+00 -0.27735504601E+01  0.27735504601E+01  0.00000000000E+00 0. -1.
         21    1    1    2  503  501 -0.99172509184E+01  0.17732270300E+02  0.63982303571E+02  0.67130622267E+02  0.00000000000E+00 0. -1.
         -3    1    1    2    0  502  0.99172509184E+01 -0.17732270300E+02  0.84841198925E+02  0.87239981149E+02  0.00000000000E+00 0. -1.
</event>
<event>
 4    1  0.1560907E+006  0.3247701E+02  0.7546771E-02  0.1399225E+00
         21   -1    0    0  501  502  0.00000000000E+00  0.00000000000E+00  0.15849422379E+03  0.15849422379E+03  0.00000000000E+00 0.  1.
          2   -1    0    0  503    0 -0.00000000000E+00 -0.00000000000E+00 -0.94616108637E+01  0.94616108637E+01  0.00000000000E+00 0. -1.
         21    1    1    2  503  502  0.26901566151E+02  0.18195101731E+02  0.12025512281E+03  0.12456343986E+03  0.00000000000E+00 0.  1.
          2    1    1    2  501    0 -0.26901566151E+02 -0.18195101731E+02  0.28777490120E+02  0.43392394794E+02  0.00000000000E+00 0. -1.
</event>
<event>
 4    1  0.1560907E+006  0.2721347E+02  0.7546771E-02  0.1445475E+00
         21   -1    0    0  503  502  0.00000000000E+00  0.00000000000E+00  0.15872514584E+01  0.15872514584E+01  0.00000000000E+00 0.  1.
          1   -1    0    0  502    0 -0.00000000000E+00 -0.00000000000E+00 -0.48739623771E+03  0.48739623771E+03  0.00000000000E+00 0.  1.
         21    1    1    2  503  501  0.60733380451E+01  0.26527112579E+02 -0.19237232597E+03  0.19428763455E+03  0.00000000000E+00 0.  1.
          1    1    1    2  501    0 -0.60733380451E+01 -0.26527112579E+02 -0.29343666028E+03  0.29469585462E+03  0.00000000000E+00 0.  1.
</event>
<event>
 4    1  0.1560907E+006  0.2682425E+02  0.7546771E-02  0.1449382E+00
         -3   -1    0    0    0  501 -0.00000000000E+00  0.00000000000E+00  0.11090394947E+03  0.11090394947E+03  0.00000000000E+00 0. -1.
         21   -1    0    0  503  502  0.00000000000E+00 -0.00000000000E+00 -0.85078383431E+02  0.85078383431E+02  0.00000000000E+00 0. -1.
         21    1    1    2  503  501  0.26380486859E+02  0.48590460238E+01 -0.81267963035E+02  0.85580501465E+02  0.00000000000E+00 0. -1.
         -3    1    1    2    0  502 -0.26380486859E+02 -0.48590460238E+01  0.10709352907E+03  0.11040183143E+03  0.00000000000E+00 0. -1.
</event>
<event>
 4    1  0.1560907E+006  0.2053998E+02  0.7546771E-02  0.1525935E+00
         21   -1    0    0  501  502  0.00000000000E+00  0.00000000000E+00  0.13295884026E+03  0.13295884026E+03  0.00000000000E+00 0. -1.
         -2   -1    0    0    0  501 -0.00000000000E+00 -0.00000000000E+00 -0.54670606010E+01  0.54670606010E+01  0.00000000000E+00 0. -1.
         21    1    1    2  503  502 -0.12379387100E+02 -0.16390282850E+02  0.10857954826E+03  0.11050524375E+03  0.00000000000E+00 0. -1.
         -2    1    1    2    0  503  0.12379387100E+02  0.16390282850E+02  0.18912231405E+02  0.27920657113E+02  0.00000000000E+00 0. -1.
</event>
<event>
 4    1  0.1560907E+006  0.2569651E+02  0.7546771E-02  0.1461160E+00
          2   -1    0    0  503    0 -0.00000000000E+00  0.00000000000E+00  0.15886233760E+03  0.15886233760E+03  0.00000000000E+00 0.  1.
         21   -1    0    0  501  502  0.00000000000E+00 -0.00000000000E+00 -0.68665557906E+02  0.68665557906E+02  0.00000000000E+00 0. -1.
         21    1    1    2  503  502  0.18987192547E+02  0.17314648699E+02 -0.65168606254E+02  0.70051822114E+02  0.00000000000E+00 0. -1.
          2    1    1    2  501    0 -0.18987192547E+02 -0.17314648699E+02  0.15536538595E+03  0.15747607339E+03  0.00000000000E+00 0.  1.
</event>
<event>
 4    1  0.1560907E+006  0.2163654E+02  0.7546771E-02  0.1510368E+00
         21   -1    0    0  503  502  0.00000000000E+00  0.00000000000E+00  0.28576172736E+03  0.28576172736E+03  0.00000000000E+00 0.  1.
         -1   -1    0    0    0  501 -0.00000000000E+00 -0.00000000000E+00 -0.55705687465E+02  0.55705687465E+02  0.00000000000E+00 0.  1.
         21    1    1    2  503  501  0.15259564649E+02 -0.15339020853E+02  0.28323248708E+03  0.28405770824E+03  0.00000000000E+00 0.  1.
         -1    1    1    2    0  502 -0.15259564649E+02  0.15339020853E+02 -0.53176447189E+02  0.57409706580E+02  0.00000000000E+00 0.  1.
</event>
<event>
 4    1  0.1560907E+006  0.3426458E+02  0.7546771E-02  0.1385808E+00
         -2   -1    0    0    0  501 -0.00000000000E+00  0.00000000000E+00  0.10555872690E+03  0.10555872690E+03  0.00000000000E+00 0.  1.
         21   -1    0    0  501  502  0.00000000000E+00 -0.00000000000E+00 -0.28048641749E+02  0.28048641749E+02  0.00000000000E+00 0. -1.
         21    1    1    2  503  502  0.16598700070E+02 -0.29975736513E+02 -0.13139937038E+02  0.36697677977E+02  0.00000000000E+00 0. -1.
         -2    1    1    2    0  503 -0.16598700070E+02  0.29975736513E+02  0.90650022192E+02  0.96909690676E+02  0.00000000000E+00 0.  1.
</event>
<event>
 4    1  0.1560907E+006  0.2112573E+02  0.7546771E-02  0.1517477E+00
         21   -1    0    0  501  502  0.00000000000E+00  0.00000000000E+00  0.13415653212E+02  0.13415653212E+02  0.00000000000E+00 0.  1.
         -2   -1    0    0    0  501 -0.00000000000E+00 -0.00000000000E+00 -0.15162170419E+03  0.15162170419E+03  0.00000000000E+00 0. -1.
         21    1    1    2  503  502  0.17209913411E+02  0.12252151330E+02  0.38032046307E+01  0.21465337111E+02  0.00000000000E+00 0.  1.
         -2    1    1    2    0  503 -0.17209913411E+02 -0.12252151330E+02 -0.14200925560E+03  0.14357202029E+03  0.00000000000E+00 0. -1.
</event>
<event>
 4    1  0.1560907E+006  0.2433750E+02  0.7546771E-02  0.1476353E+00
         21   -1    0    0  503  502  0.00000000000E+00  0.00000000000E+00  0.13487028210E+03  0.13487028210E+03  0.00000000000E+00 0. -1.
          2   -1    0    0  502    0 -0.00000000000E+00 -0.00000000000E+00 -0.16902967207E+04  0.16902967207E+04  0.00000000000E+00 0. -1.
         21    1    1    2  503  501 -0.41931473736E+01  0.23973553574E+02  0.13368397373E+03  0.13588126651E+03  0.00000000000E+00 0. -1.
          2    1    1    2  501    0  0.41931473736E+01 -0.23973553574E+02 -0.16891104124E+04  0.16892857363E+04  0.00000000000E+00 0. -1.
</event>
<event>
 4    1  0.1560907E+006  0.2162550E+02  0.7546771E-02  0.1510519E+00
         -1   -1    0    0    0  501 -0.00000000000E+00  0.00000000000E+00  0.34490977574E+01  0.34490977574E+01  0.00000000000E+00 0. -1.
         21   -1    0    0  503  502  0.00000000000E+00 -0.00000000000E+00 -0.17289492572E+03  0.17289492572E+03  0.00000000000E+00 0.  1.
         21    1    1    2  503  501 -0.79762304509E+01 -0.20100800566E+02 -0.12567951870E+03  0.12752648296E+03  0.00000000000E+00 0.  1.
         -1    1    1    2    0  502  0.79762304509E+01  0.20100800566E+02 -0.43766309259E+02  0.48817540513E+02  0.00000000000E+00 0. -1.
</event>
<event>
 4    1  0.1560907E+006  0.2100822E+02  0.7546771E-02  0.1519147E+00
          2   -1    0    0  502    0 -0.00000000000E+00  0.00000000000E+00  0.50482111308E+03  0.50482111308E+03  0.00000000000E+00 0. -1.
         21   -1    0    0  503  502  0.00000000000E+00 -0.00000000000E+00 -0.17792449258E+03  0.17792449258E+03  0.00000000000E+00 0.  1.
         21    1    1    2  503  501  0.21006259118E+02 -0.28735965017E+00 -0.17708476415E+03  0.17832655212E+03  0.00000000000E+00 0.  1.
          2    1    1    2  501    0 -0.21006259118E+02  0.28735965017E+00  0.50398138465E+03  0.50441905353E+03  0.00000000000E+00 0. -1.
</event>
<event>
 4    1  0.1560907E+006  0.3502905E+02  0.7546771E-02  0.1380359E+00
         21   -1    0    0  501  502  0.00000000000E+00  0.00000000000E+00  0.22229217553E+02  0.22229217553E+02  0.00000000000E+00 0.  1.
          1   -1    0    0  503    0 -0.00000000000E+00 -0.00000000000E+00 -0.41152185584E+03  0.41152185584E+03  0.00000000000E+00 0. -1.
         21    1    1    2  503  502  0.30995219607E+02 -0.16319645592E+02  0.71605049044E+01  0.35753423629E+02  0.00000000000E+00 0.  1.
          1    1    1    2  501    0 -0.30995219607E+02  0.16319645592E+02 -0.39645314319E+03  0.39799764977E+03  0.00000000000E+00 0. -1.
</event>
<event>
 4    1  0.1560907E+006  0.3294700E+02  0.7546771E-02  0.1395601E+00
         21   -1    0    0  501  502  0.00000000000E+00  0.00000000000E+00  0.87779678550E+01  0.87779678550E+01  0.00000000000E+00 0.  1.
          2   -1    0    0  503    0 -0.00000000000E+00 -0.00000000000E+00 -0.10564799428E+04  0.10564799428E+04  0.00000000000E+00 0. -1.
         21    1    1    2  503  502 -0.91172775191E+01  0.31660386438E+02 -0.23364346172E+02  0.40390561902E+02  0.00000000000E+00 0.  1.
          2    1    1    2  501    0  0.91172775191E+01 -0.31660386438E+02 -0.10243376287E+04  0.10248673487E+04  0.00000000000E+00 0. -1.
</event>
<event>
 4    1  0.1560907E+006  0.2553289E+02  0.7546771E-02  0.1462929E+00
         -1   -1    0    0    0  501 -0.00000000000E+00  0.00000000000E+00  0.36497373813E+03  0.36497373813E+03  0.00000000000E+00 0. -1.
         21   -1    0    0  501  502  0.00000000000E+00 -0.00000000000E+00 -0.72813803009E+01  0.72813803009E+01  0.00000000000E+00 0.  1.
         21    1    1    2  503  502 -0.12235948193E+02  0.22410038602E+02  0.17152336733E+02  0.30759241111E+02  0.00000000000E+00 0.  1.
         -1    1    1    2    0  503  0.12235948193E+02 -0.22410038602E+02  0.34054002110E+03  0.34149587732E+03  0.00000000000E+00 0. -1.
</event>
<event>
 4    1  0.1560907E+006  0.2569833E+02  0.7546771E-02  0.1461141E+00
          1   -1    0    0  503    0 -0.00000000000E+00  0.00000000000E+00  0.22501753028E+02  0.22501753028E+02  0.00000000000E+00 0.  1.
         21   -1    0    0  501  502  0.00000000000E+00 -0.00000000000E+00 -0.10766765096E+03  0.10766765096E+03  0.00000000000E+00 0.  1.
         21    1    1    2  503  502 -0.10281007297E+02  0.23552172961E+02 -0.98092651392E+02  0.10140301879E+03  0.00000000000E+00 0.  1.
          1    1    1    2  501    0  0.10281007297E+02 -0.23552172961E+02  0.12926753463E+02  0.28766385197E+02  0.00000000000E+00 0.  1.
</event>
<event>
 4    1  0.1560907E+006  0.2820190E+02  0.7546771E-02  0.1435894E+00
         21   -1    0    0  503  502  0.00000000000E+00  0.00000000000E+00  0.40189889834E+02  0.40189889834E+02  0.00000000000E+00 0.  1.
         -2   -1    0    0    0  501 -0.00000000000E+00 -0.00000000000E+00 -0.47903490820E+03  0.47903490820E+03  0.00000000000E+00 0. -1.
         21    1    1    2  503  501 -0.16007866644E+02 -0.23218431813E+02  0.34770819461E+02  0.44770048653E+02  0.00000000000E+00 0.  1.
         -2    1    1    2    0  502  0.16007866644E+02  0.23218431813E+02 -0.47361583782E+03  0.47445474938E+03  0.00000000000E+00 0. -1.
</event>
<event>
 4    1  0.1560907E+006  0.2516691E+02  0.7546771E-02  0.1466945E+00
          2   -1    0    0  503    0 -0.00000000000E+00  0.00000000000E+00  0.46463136035E+02  0.46463136035E+02  0.00000000000E+00 0.  1.
         21   -1    0    0  501  502  0.00000000000E+00 -0.00000000000E+00 -0.13846516309E+02  0.13846516309E+02  0.00000000000E+00 0.  1.
         21    1    1    2  503  502 -0.16491610422E+02 -0.19010527483E+02  0.20063917398E+02  0.32185930946E+02  0.00000000000E+00 0.  1.
          2    1    1    2  501    0  0.16491610422E+02  0.19010527483E+02  0.12552702328E+02  0.28123721398E+02  0.00000000000E+00 0.  1.
</event>
<event>
 4    1  0.1560907E+006  0.3656062E+02  0.7546771E-02  0.1369911E+00
         21   -1    0    0  501  502  0.00000000000E+00  0.00000000000E+00  0.48461599753E+01  0.48461599753E+01  0.00000000000E+00 0. -1.
          1   -1    0    0  503    0 -0.00000000000E+00 -0.00000000000E+00 -0.88229638574E+03  0.88229638574E+03  0.00000000000E+00 0.  1.
         21    1    1    2  503  502 -0.16562508497E+02  0.32593893851E+02 -0.70966955513E+02  0.79830992595E+02  0.00000000000E+00 0. -1.
          1    1    1    2  501    0  0.16562508497E+02 -0.32593893851E+02 -0.80648327025E+03  0.80731155312E+03  0.00000000000E+00 0.  1.
</event>
<event>
 4    1  0.1560907E+006  0.6768076E+02  0.7546771E-02  0.1235755E+00
         21   -1    0    0  501  502  0.00000000000E+00  0.00000000000E+00  0.65013633058E+02  0.65013633058E+02  0.00000000000E+00 0.  1.
          1   -1    0    0  503    0 -0.00000000000E+00 -0.00000000000E+00 -0.92943258919E+02  0.92943258919E+02  0.00000000000E+00 0.  1.
         21    1    1    2  503  502 -0.43498859674E+02 -0.51851080947E+02  0.24881990851E+02  0.72109630820E+02  0.00000000000E+00 0.  1.
          1    1    1    2  501    0  0.43498859674E+02  0.51851080947E+02 -0.52811616712E+02  0.85847261156E+02  0.00000000000E+00 0.  1.
</event>
<event>
 4    1  0.1560907E+006  0.2529886E+02  0.7546771E-02  0.1465488E+00
         -1   -1    0    0    0  501 -0.00000000000E+00  0.00000000000E+00  0.71783243501E+02  0.71783243501E+02  0.00000000000E+00 0.  1.
         21   -1    0    0  503  502  0.00000000000E+00 -0.00000000000E+00 -0.32711803346E+02  0.32711803346E+02  0.00000000000E+00 0.  1.
         21    1    1    2  503  501  0.24999118282E+02 -0.38828320072E+01 -0.25026006713E+02  0.35585577293E+02  0.00000000000E+00 0.  1.
         -1    1    1    2    0  502 -0.24999118282E+02  0.38828320072E+01  0.64097446868E+02  0.68909469555E+02  0.00000000000E+00 0.  1.
</event>
<event>
 4    1  0.1560907E+006  0.3272689E+02  0.7546771E-02  0.1397289E+00
         -2   -1    0    0    0  501 -0.00000000000E+00  0.00000000000E+00  0.95410854556E+03  0.95410854556E+03  0.00000000000E+00 0.  1.
         21   -1    0    0  501  502  0.00000000000E+00 -0.00000000000E+00 -0.75773272390E+01  0.75773272390E+01  0.00000000000E+00 0. -1.
         21    1    1    2  503  502  0.31931688474E+02  0.71705268099E+01  0.29467617714E+02  0.44038502214E+02  0.00000000000E+00 0. -1.
         -2    1    1    2    0  503 -0.31931688474E+02 -0.71705268099E+01  0.91706360061E+03  0.91764737059E+03  0.00000000000E+00 0.  1.
</event>
<event>
 4    1  0.1560907E+006  0.2524248E+02  0.7546771E-02  0.1466109E+00
         21   -1    0    0  503  502  0.00000000000E+00  0.00000000000E+00  0.36379801375E+02  0.36379801375E+02  0.00000000000E+00 0.  1.
          2   -1    0    0  502    0 -0.00000000000E+00 -0.00000000000E+00 -0.50346672805E+03  0.50346672805E+03  0.00000000000E+00 0.  1.
         21    1    1    2  503  501  0.18564026544E+02  0.17104379418E+02  0.31643158313E+02  0.40478047691E+02  0.00000000000E+00 0.  1.
          2    1    1    2  501    0 -0.18564026544E+02 -0.17104379418E+02 -0.49873008499E+03  0.49936848173E+03  0.00000000000E+00 0.  1.
</event>
<event>
 4    1  0.1560907E+006  0.2288965E+02  0.7546771E-02  0.1493888E+00
         21   -1    0    0  503  502  0.00000000000E+00  0.00000000000E+00  0.19662589832E+03  0.19662589832E+03  0.00000000000E+00 0.  1.
          2   -1    0    0  502    0 -0.00000000000E+00 -0.00000000000E+00 -0.40604711069E+02  0.40604711069E+02  0.00000000000E+00 0. -1.
         21    1    1    2  503  501  0.18622872444E+02 -0.13308825802E+02  0.19266786865E+03  0.19402279205E+03  0.00000000000E+00 0.  1.
          2    1    1    2  501    0 -0.18622872444E+02  0.13308825802E+02 -0.36646681398E+02  0.43207817346E+02  0.00000000000E+00 0. -1.
</event>
<event>
 4    1  0.1560907E+006  0.2178665E+02  0.7546771E-02  0.1508323E+00
         -4   -1    0    0    0  501 -0.00000000000E+00  0.00000000000E+00  0.12145209654E+02  0.12145209654E+02  0.00000000000E+00 0. -1.
         21   -1    0    0  501  502  0.00000000000E+00 -0.00000000000E+00 -0.82222621925E+02  0.82222621925E+02  0.00000000000E+00 0. -1.
         21    1    1    2  503  502 -0.17145035141E+02  0.13442691315E+02 -0.69216332275E+02  0.72564170453E+02  0.00000000000E+00 0. -1.
         -4    1    1    2    0  503  0.17145035141E+02 -0.13442691315E+02 -0.86107999565E+00  0.21803661127E+02  0.00000000000E+00 0. -1.
</event>
<event>
 4    1  0.1560907E+006  0.2433769E+02  0.7546771E-02  0.1476351E+00
         21   -1    0    0  501  502  0.00000000000E+00  0.00000000000E+00  0.38571270774E+00  0.38571270774E+00  0.00000000000E+00 0. -1.
          2   -1    0    0  503    0 -0.00000000000E+00 -0.00000000000E+00 -0.16483443634E+04  0.16483443634E+04  0.00000000000E+00 0.  1.
         21    1    1    2  503  502  0.24133615132E+02 -0.31451446070E+01 -0.60843890175E+03  0.60892546381E+03  0.00000000000E+00 0. -1.
          2    1    1    2  501    0 -0.24133615132E+02  0.31451446070E+01 -0.10395197489E+04  0.10398046123E+04  0.00000000000E+00 0.  1.
</event>
<event>
 4    1  0.1560907E+006  0.2496657E+02  0.7546771E-02  0.1469178E+00
          2   -1    0    0  503    0 -0.00000000000E+00  0.00000000000E+00  0.78306698094E+03  0.78306698094E+03  0.00000000000E+00 0. -1.
         21   -1    0    0  501  502  0.00000000000E+00 -0.00000000000E+00 -0.51862144466E+01  0.51862144466E+01  0.00000000000E+00 0.  1.
         21    1    1    2  503  502 -0.18867254727E+02 -0.16351037287E+02  0.26319471614E+02  0.36277324975E+02  0.00000000000E+00 0.  1.
          2    1    1    2  501    0  0.18867254727E+02  0.16351037287E+02  0.75156129488E+03  0.75197587041E+03  0.00000000000E+00 0. -1.
</event>
<event>
 4    1  0.1560907E+006  0.2045186E+02  0.7546771E-02  0.1527237E+00
         -4   -1    0    0    0  501 -0.00000000000E+00  0.00000000000E+00  0.34039527433E+03  0.34039527433E+03  0.00000000000E+00 0.  1.
         21   -1    0    0  503  502  0.00000000000E+00 -0.00000000000E+00 -0.26861089272E+01  0.26861089272E+01  0.00000000000E+00 0. -1.
         21    1    1    2  503  501 -0.76755304711E+01 -0.18956916977E+02  0.42502958697E+02  0.47167573260E+02  0.00000000000E+00 0. -1.
         -4    1    1    2    0  502  0.76755304711E+01  0.18956916977E+02  0.29520620671E+03  0.29591381000E+03  0.00000000000E+00 0.  1.
</event>
<event>
 4    1  0.1560907E+006  0.2260922E+02  0.7546771E-02  0.1497464E+00
         21   -1    0    0  503  502  0.00000000000E+00  0.00000000000E+00  0.47316783510E+01  0.47316783510E+01  0.00000000000E+00 0. -1.
          2   -1    0    0  502    0 -0.00000000000E+00 -0.00000000000E+00 -0.79196133603E+03  0.79196133603E+03  0.00000000000E+00 0. -1.
         21    1    1    2  503  501 -0.86191038040E+01 -0.20901859449E+02 -0.23433618272E+02  0.32562419199E+02  0.00000000000E+00 0. -1.
          2    1    1    2  501    0  0.86191038040E+01  0.20901859449E+02 -0.76379603941E+03  0.76413059519E+03  0.00000000000E+00 0. -1.
</event>
<event>
 4    1  0.1560907E+006  0.2196747E+02  0.7546771E-02  0.1505887E+00
         21   -1    0    0  501  502  0.00000000000E+00  0.00000000000E+00  0.14894131594E+01  0.14894131594E+01  0.00000000000E+00 0.  1.
          2   -1    0    0  503    0 -0.00000000000E+00 -0.00000000000E+00 -0.50565542553E+03  0.50565542553E+03  0.00000000000E+00 0. -1.
         21    1    1    2  503  502  0.12229985648E+02  0.18248211427E+02 -0.10009863146E+03  0.10248075814E+03  0.00000000000E+00 0.  1.
          2    1    1    2  501    0 -0.12229985648E+02 -0.18248211427E+02 -0.40406738091E+03  0.40466408055E+03  0.00000000000E+00 0. -1.
</event>
<event>
 4    1  0.1560907E+006  0.2497559E+02  0.7546771E-02  0.1469077E+00
         -2   -1    0    0    0  501 -0.00000000000E+00  0.00000000000E+00  0.60725025388E+01  0.60725025388E+01  0.00000000000E+00 0.  1.
         21   -1    0    0  503  502  0.00000000000E+00 -0.00000000000E+00 -0.26604929419E+03  0.26604929419E+03  0.00000000000E+00 0.  1.
         21    1    1    2  503  501  0.11669636617E+02  0.22081654444E+02 -0.23659438440E+03  0.23790897968E+03  0.00000000000E+00 0.  1.
         -2    1    1    2    0  502 -0.11669636617E+02 -0.22081654444E+02 -0.23382407254E+02  0.34212817054E+02  0.00000000000E+00 0.  1.
</event>
<event>
 4    1  0.1560907E+006  0.2369657E+02  0.7546771E-02  0.1483932E+00
         21   -1    0    0  501  502  0.00000000000E+00  0.00000000000E+00  0.14006592467E+04  0.14006592467E+04  0.00000000000E+00 0.  1.
          1   -1    0    0  503    0 -0.00000000000E+00 -0.00000000000E+00 -0.13502282607E+01  0.13502282607E+01  0.00000000000E+00 0. -1.
         21    1    1    2  503  502 -0.89617789522E+01 -0.21936593317E+02  0.12874483343E+04  0.12876663936E+04  0.00000000000E+00 0.  1.
          1    1    1    2  501    0  0.89617789522E+01  0.21936593317E+02  0.11186068412E+03  0.11434308138E+03  0.00000000000E+00 0. -1.
</event>
<event>
 4    1  0.1560907E+006  0.2591481E+02  0.7546771E-02  0.1458824E+00
         21   -1    0    0  503  502  0.00000000000E+00  0.00000000000E+00  0.25875757397E+02  0.25875757397E+02  0.00000000000E+00 0.  1.
          3   -1    0    0  502    0 -0.00000000000E+00 -0.00000000000E+00 -0.61696017049E+02  0.61696017049E+02  0.00000000000E+00 0.  1.
         21    1    1    2  503  501  0.24965048278E+02 -0.69515311447E+01  0.15416821366E+02  0.30153868771E+02  0.00000000000E+00 0.  1.
          3    1    1    2  501    0 -0.24965048278E+02  0.69515311447E+01 -0.51237081019E+02  0.57417905675E+02  0.00000000000E+00 0.  1.
</event>
<event>
 4    1  0.1560907E+006  0.3378597E+02  0.7546771E-02  0.1389305E+00
         21   -1    0    0  503  502  0.00000000000E+00  0.00000000000E+00  0.90848216696E+03  0.90848216696E+03  0.00000000000E+00 0.  1.
         -2   -1    0    0    0  501 -0.00000000000E+00 -0.00000000000E+00 -0.36783115101E+01  0.36783115101E+01  0.00000000000E+00 0.  1.
         21    1    1    2  503  501 -0.26051208315E+02 -0.21513393647E+02  0.82247610229E+03  0.82316974580E+03  0.00000000000E+00 0.  1.
         -2    1    1    2    0  502  0.26051208315E+02  0.21513393647E+02  0.82327753152E+02  0.88990732664E+02  0.00000000000E+00 0.  1.
</event>
<event>
 4    1  0.1560907E+006  0.3370308E+02  0.7546771E-02  0.1389917E+00
         21   -1    0    0  503  502  0.00000000000E+00  0.00000000000E+00  0.10854697730E+02  0.10854697730E+02  0.00000000000E+00 0. -1.
          1   -1    0    0  502    0 -0.00000000000E+00 -0.00000000000E+00 -0.17019366717E+03  0.17019366717E+03  0.00000000000E+00 0. -1.
         21    1    1    2  503  501  0.20086454068E+02  0.27063479221E+02 -0.23490679875E+02  0.41081742728E+02  0.00000000000E+00 0. -1.
          1    1    1    2  501    0 -0.20086454068E+02 -0.27063479221E+02 -0.13584828957E+03  0.13996662217E+03  0.00000000000E+00 0. -1.
</event>
<event>
 4    1  0.1560907E+006  0.2008970E+02  0.7546771E-02  0.1532669E+00
         21   -1    0    0  501  502  0.00000000000E+00  0.00000000000E+00  0.68075539158E+02  0.68075539158E+02  0.00000000000E+00 0. -1.
          3   -1    0    0  503    0 -0.00000000000E+00 -0.00000000000E+00 -0.16557328435E+02  0.16557328435E+02  0.00000000000E+00 0. -1.
         21    1    1    2  503  502  0.19420466903E+02 -0.51421161333E+01  0.59663313721E+02  0.62954800431E+02  0.00000000000E+00 0. -1.
          3    1    1    2  501    0 -0.19420466903E+02  0.51421161333E+01 -0.81451029984E+01  0.21678067163E+02  0.00000000000E+00 0. -1.
</event>
<event>
 4    1  0.1560907E+006  0.3771826E+02  0.7546771E-02  0.1362402E+00
         21   -1    0    0  501  502  0.00000000000E+00  0.00000000000E+00  0.83066952651E+01  0.83066952651E+01  0.00000000000E+00 0.  1.
          2   -1    0    0  503    0 -0.00000000000E+00 -0.00000000000E+00 -0.34177102973E+03  0.34177102973E+03  0.00000000000E+00 0.  1.
         21    1    1    2  503  502 -0.32984346396E+02 -0.18294807015E+02 -0.43099418635E+02  0.57273265644E+02  0.00000000000E+00 0.  1.
          2    1    1    2  501    0  0.32984346396E+02  0.18294807015E+02 -0.29036491583E+03  0.29280445935E+03  0.00000000000E+00 0.  1.
</event>
<event>
 4    1  0.1560907E+006  0.2577671E+02  0.7546771E-02  0.1460299E+00
         21   -1    0    0  501  502  0.00000000000E+00  0.00000000000E+00  0.31961498171E+01  0.31961498171E+01  0.00000000000E+00 0. -1.
          2   -1    0    0  503    0 -0.00000000000E+00 -0.00000000000E+00 -0.19615042306E+04  0.19615042306E+04  0.00000000000E+00 0.  1.
         21    1    1    2  503  502 -0.18720539154E+02 -0.17719488845E+02 -0.50317959865E+02  0.56536147341E+02  0.00000000000E+00 0. -1.
          2    1    1    2  501    0  0.18720539154E+02  0.17719488845E+02 -0.19079901209E+04  0.19081642330E+04  0.00000000000E+00 0.  1.
</event>
<event>
 4    1  0.1560907E+006  0.2214134E+02  0.7546771E-02  0.1503571E+00
         21   -1    0    0  503  502  0.00000000000E+00  0.00000000000E+00  0.33872353722E+02  0.33872353722E+02  0.00000000000E+00 0.  1.
          3   -1    0    0  502    0 -0.00000000000E+00 -0.00000000000E+00 -0.14849679226E+02  0.14849679226E+02  0.00000000000E+00 0. -1.
         21    1    1    2  503  501 -0.21921122517E+02 -0.31150360935E+01  0.13390574380E+02  0.25875597471E+02  0.00000000000E+00 0.  1.
          3    1    1    2  501    0  0.21921122517E+02  0.31150360935E+01  0.56321001156E+01  0.22846435476E+02  0.00000000000E+00 0. -1.
</event>
<event>
 4    1  0.1560907E+006  0.2323683E+02  0.7546771E-02  0.1489546E+00
          4   -1    0    0  502    0 -0.00000000000E+00  0.00000000000E+00  0.15327191847E+02  0.15327191847E+02  0.00000000000E+00 0.  1.
         21   -1    0    0  503  502  0.00000000000E+00 -0.00000000000E+00 -0.20945637571E+03  0.20945637571E+03  0.00000000000E+00 0. -1.
         21    1    1    2  503  501 -0.22905867061E+02  0.39078656212E+01 -0.19957002929E+03  0.20091825888E+03  0.00000000000E+00 0. -1.
          4    1    1    2  501    0  0.22905867061E+02 -0.39078656212E+01  0.54408454253E+01  0.23865308682E+02  0.00000000000E+00 0.  1.
</event>
<event>
 4    1  0.1560907E+006  0.2022699E+02  0.7546771E-02  0.1530594E+00
          2   -1    0    0  503    0 -0.00000000000E+00  0.00000000000E+00  0.77165705314E+03  0.77165705314E+03  0.00000000000E+00 0.  1.
         21   -1    0    0  501  502  0.00000000000E+00 -0.00000000000E+00 -0.22024314033E+03  0.22024314033E+03  0.00000000000E+00 0.  1.
         21    1    1    2  503  502  0.20222047855E+02 -0.44722904231E+00 -0.21964582246E+03  0.22057519932E+03  0.00000000000E+00 0.  1.
          2    1    1    2  501    0 -0.20222047855E+02  0.44722904231E+00  0.77105973527E+03  0.77132499414E+03  0.00000000000E+00 0.  1.
</event>
<event>
 4    1  0.1560907E+006  0.3268020E+02  0.7546771E-02  0.1397649E+00
          4   -1    0    0  503    0 -0.00000000000E+00  0.00000000000E+00  0.38321227576E+02  0.38321227576E+02  0.00000000000E+00 0.  1.
         21   -1    0    0  501  502  0.00000000000E+00 -0.00000000000E+00 -0.45515290018E+03  0.45515290018E+03  0.00000000000E+00 0. -1.
         21    1    1    2  503  502  0.15026494319E+02  0.29020685421E+02 -0.44747957973E+03  0.44867133850E+03  0.00000000000E+00 0. -1.
          4    1    1    2  501    0 -0.15026494319E+02 -0.29020685421E+02  0.30647907128E+02  0.44802789256E+02  0.00000000000E+00 0.  1.
</event>
<event>
 4    1  0.1560907E+006  0.2009885E+02  0.7546771E-02  0.1532530E+00
         -4   -1    0    0    0  501 -0.00000000000E+00  0.00000000000E+00  0.48795868838E+01  0.48795868838E+01  0.00000000000E+00 0. -1.
         21   -1    0    0  503  502  0.00000000000E+00 -0.00000000000E+00 -0.10893825311E+03  0.10893825311E+03  0.00000000000E+00 0. -1.
         21    1    1    2  503  501  0.18611732010E+02 -0.75872947275E+01 -0.79912434082E+02  0.82401218016E+02  0.00000000000E+00 0. -1.
         -4    1    1    2    0  502 -0.18611732010E+02  0.75872947275E+01 -0.24146232143E+02  0.31416621976E+02  0.00000000000E+00 0. -1.
</event>
<event>
 4    1  0.1560907E+006  0.2021014E+02  0.7546771E-02  0.1530847E+00
          2   -1    0    0  502    0 -0.00000000000E+00  0.00000000000E+00  0.10050060106E+04  0.10050060106E+04  0.00000000000E+00 0. -1.
         21   -1    0    0  503  502  0.00000000000E+00 -0.00000000000E+00 -0.58036744605E+02  0.58036744605E+02  0.00000000000E+00 0.  1.
         21    1    1    2  503  501  0.28453296893E+01  0.20008847943E+02 -0.56172425955E+02  0.59697498563E+02  0.00000000000E+00 0.  1.
          2    1    1    2  501    0 -0.28453296893E+01 -0.20008847943E+02  0.10031416920E+04  0.10033452567E+04  0.00000000000E+00 0. -1.
</event>
<event>
 4    1  0.1560907E+006  0.3127749E+02  0.7546771E-02  0.1408811E+00
          4   -1    0    0  502    0 -0.00000000000E+00  0.00000000000E+00  0.18775977634E+02  0.18775977634E+02  0.00000000000E+00 0. -1.
         21   -1    0    0  503  502  0.00000000000E+00 -0.00000000000E+00 -0.11452005345E+03  0.11452005345E+03  0.00000000000E+00 0. -1.
         21    1    1    2  503  501  0.12720175355E+01 -0.31251609823E+02 -0.97075850248E+02  0.10199020466E+03  0.00000000000E+00 0. -1.
          4    1    1    2  501    0 -0.12720175355E+01  0.31251609823E+02  0.13317744291E+01  0.31305826427E+02  0.00000000000E+00 0. -1.
</event>
<event>
 4    1  0.1560907E+006  0.2067807E+02  0.7546771E-02  0.1523911E+00
         21   -1    0    0  501  502  0.00000000000E+00  0.00000000000E+00  0.23588256823E+02  0.23588256823E+02  0.00000000000E+00 0. -1.
          3   -1    0    0  503    0 -0.00000000000E+00 -0.00000000000E+00 -0.66551173646E+02  0.66551173646E+02  0.00000000000E+00 0. -1.
         21    1    1    2  503  502  0.20532574566E+02  0.24486329660E+01  0.16963414259E+02  0.26745837901E+02  0.00000000000E+00 0. -1.
          3    1    1    2  501    0 -0.20532574566E+02 -0.24486329660E+01 -0.59926331082E+02  0.63393592568E+02  0.00000000000E+00 0. -1.
</event>
<event>
 4    1  0.1560907E+006  0.3152684E+02  0.7546771E-02  0.1406776E+00
          1   -1    0    0  503    0 -0.00000000000E+00  0.00000000000E+00  0.13706615765E+03  0.13706615765E+03  0.00000000000E+00 0. -1.
         21   -1    0    0  501  502  0.00000000000E+00 -0.00000000000E+00 -0.87432127956E+03  0.87432127956E+03  0.00000000000E+00 0.  1.
         21    1    1    2  503  502 -0.25803910258E+01  0.31421062750E+02 -0.87221982280E+03  0.87278941382E+03  0.00000000000E+00 0.  1.
          1    1    1    2  501    0  0.25803910258E+01 -0.31421062750E+02  0.13496470088E+03  0.13859802339E+03  0.00000000000E+00 0. -1.
</event>
<event>
 4    1  0.1560907E+006  0.2243451E+02  0.7546771E-02  0.1499724E+00
         21   -1    0    0  501  502  0.00000000000E+00  0.00000000000E+00  0.94730991274E+02  0.94730991274E+02  0.00000000000E+00 0. -1.
         -2   -1    0    0    0  501 -0.00000000000E+00 -0.00000000000E+00 -0.78319829363E+02  0.78319829363E+02  0.00000000000E+00 0. -1.
         21    1    1    2  503  502 -0.15074657293E+02  0.16615109453E+02  0.91744624984E+02  0.94447781171E+02  0.00000000000E+00 0. -1.
         -2    1    1    2    0  503  0.15074657293E+02 -0.16615109453E+02 -0.75333463074E+02  0.78603039466E+02  0.00000000000E+00 0. -1.
</event>
<event>
 4    1  0.1560907E+006  0.2428830E+02  0.7546771E-02  0.1476925E+00
         -1   -1    0    0    0  501 -0.00000000000E+00  0.00000000000E+00  0.90994834994E+02  0.90994834994E+02  0.00000000000E+00 0. -1.
         21   -1    0    0  501  502  0.00000000000E+00 -0.00000000000E+00 -0.17844685116E+02  0.17844685116E+02  0.00000000000E+00 0. -1.
         21    1    1    2  503  502  0.11146923226E+01  0.24262705545E+02 -0.68482578144E+01  0.25235293825E+02  0.00000000000E+00 0. -1.
         -1    1    1    2    0  503 -0.11146923226E+01 -0.24262705545E+02  0.79998407693E+02  0.83604226285E+02  0.00000000000E+00 0. -1.
</event>
<event>
 4    1  0.1560907E+006  0.2032955E+02  0.7546771E-02  0.1529056E+00
         21   -1    0    0  503  502  0.00000000000E+00  0.00000000000E+00  0.41875517381E+02  0.41875517381E+02  0.00000000000E+00 0.  1.
          3   -1    0    0  502    0 -0.00000000000E+00 -0.00000000000E+00 -0.28277010688E+02  0.28277010688E+02  0.00000000000E+00 0. -1.
         21    1    1    2  503  501  0.17709591576E+02 -0.99830442282E+01  0.35099746548E+02  0.40562088378E+02  0.00000000000E+00 0.  1.
          3    1    1    2  501    0 -0.17709591576E+02  0.99830442282E+01 -0.21501239855E+02  0.29590439691E+02  0.00000000000E+00 0. -1.
</event>
<event>
 4    1  0.1560907E+006  0.2098927E+02  0.7546771E-02  0.1519418E+00
         -3   -1    0    0    0  501 -0.00000000000E+00  0.00000000000E+00  0.14211426842E+02  0.14211426842E+02  0.00000000000E+00 0. -1.
         21   -1    0    0  503  502  0.00000000000E+00 -0.00000000000E+00 -0.27884855991E+03  0.27884855991E+03  0.00000000000E+00 0.  1.
         21    1    1    2  503  501 -0.20104069697E+02 -0.60312455757E+01 -0.27046377181E+03  0.27127698281E+03  0.00000000000E+00 0.  1.
         -3    1    1    2    0  502  0.20104069697E+02  0.60312455757E+01  0.58266387441E+01  0.21783003939E+02  0.00000000000E+00 0. -1.
</event>
<event>
 4    1  0.1560907E+006  0.2054933E+02  0.7546771E-02  0.1525797E+00
         21   -1    0    0  503  502  0.00000000000E+00  0.00000000000E+00  0.23334970874E+03  0.23334970874E+03  0.00000000000E+00 0.  1.
         -1   -1    0    0    0  501 -0.00000000000E+00 -0.00000000000E+00 -0.22070295476E+01  0.22070295476E+01  0.00000000000E+00 0.  1.
         21    1    1    2  503  501  0.26438759744E+01  0.20378543682E+02  0.16554931790E+03  0.16681981831E+03  0.00000000000E+00 0.  1.
         -1    1    1    2    0  502 -0.26438759744E+01 -0.20378543682E+02  0.65593361286E+02  0.68736919975E+02  0.00000000000E+00 0.  1.
</event>
<event>
 4    1  0.1560907E+006  0.2924899E+02  0.7546771E-02  0.1426237E+00
         -3   -1    0    0    0  501 -0.00000000000E+00  0.00000000000E+00  0.25663524240E+03  0.25663524240E+03  0.00000000000E+00 0.  1.
         21   -1    0    0  501  502  0.00000000000E+00 -0.00000000000E+00 -0.25394228280E+03  0.25394228280E+03  0.00000000000E+00 0. -1.
         21    1    1    2  503  502  0.13498957316E+02  0.25947672129E+02 -0.25226114030E+03  0.25395114972E+03  0.00000000000E+00 0. -1.
         -3    1    1    2    0  503 -0.13498957316E+02 -0.25947672129E+02  0.25495409990E+03  0.25662637548E+03  0.00000000000E+00 0.  1.
</event>
<event>
 4    1  0.1560907E+006  0.2180660E+02  0.7546771E-02  0.1508053E+00
         21   -1    0    0  501  502  0.00000000000E+00  0.00000000000E+00  0.39477974212E+02  0.39477974212E+02  0.00000000000E+00 0. -1.
         -2   -1    0    0    0  501 -0.00000000000E+00 -0.00000000000E+00 -0.11286187522E+03  0.11286187522E+03  0.00000000000E+00 0.  1.
         21    1    1    2  503  502  0.94082456182E+01 -0.19672641267E+02  0.35298626602E+02  0.41491215215E+02  0.00000000000E+00 0. -1.
         -2    1    1    2    0  503 -0.94082456182E+01  0.19672641267E+02 -0.10868252761E+03  0.11084863422E+03  0.00000000000E+00 0.  1.
</event>
<event>
 4    1  0.1560907E+006  0.2913392E+02  0.7546771E-02  0.1427275E+00
         21   -1    0    0  501  502  0.00000000000E+00  0.00000000000E+00  0.84281424244E+01  0.84281424244E+01  0.00000000000E+00 0.  1.
          2   -1    0    0  503    0 -0.00000000000E+00 -0.00000000000E+00 -0.37314686332E+03  0.37314686332E+03  0.00000000000E+00 0.  1.
         21    1    1    2  503  502  0.35511731198E+00  0.29131759409E+02 -0.19338131142E+02  0.34967825649E+02  0.00000000000E+00 0.  1.
          2    1    1    2  501    0 -0.35511731198E+00 -0.29131759409E+02 -0.34538058975E+03  0.34660718009E+03  0.00000000000E+00 0.  1.
</event>
<event>
 4    1  0.1560907E+006  0.3694401E+02  0.7546771E-02  0.1367388E+00
          1   -1    0    0  502    0 -0.00000000000E+00  0.00000000000E+00  0.79720815732E+02  0.79720815732E+02  0.00000000000E+00 0.  1.
         21   -1    0    0  503  502  0.00000000000E+00 -0.00000000000E+00 -0.17297277578E+02  0.17297277578E+02  0.00000000000E+00 0. -1.
         21    1    1    2  503  501 -0.16066602736E+02  0.33267461450E+02  0.36115823985E+02  0.51664421577E+02  0.00000000000E+00 0. -1.
          1    1    1    2  501    0  0.16066602736E+02 -0.33267461450E+02  0.26307714170E+02  0.45353671733E+02  0.00000000000E+00 0.  1.
</event>
<event>
 4    1  0.1560907E+006  0.4563360E+02  0.7546771E-02  0.1318301E+00
          4   -1    0    0  503    0 -0.00000000000E+00  0.00000000000E+00  0.34059016943E+01  0.34059016943E+01  0.00000000000E+00 0.  1.
         21   -1    0    0  501  502  0.00000000000E+00 -0.00000000000E+00 -0.67480978601E+03  0.67480978601E+03  0.00000000000E+00 0. -1.
         21    1    1    2  503  502 -0.30818803167E+02  0.33654523621E+02 -0.43963834441E+03  0.44200033876E+03  0.00000000000E+00 0. -1.
          4    1    1    2  501    0  0.30818803167E+02 -0.33654523621E+02 -0.23176553990E+03  0.23621534894E+03  0.00000000000E+00 0.  1.
</event>
<event>
 4    1  0.1560907E+006  0.2770811E+02  0.7546771E-02  0.1440622E+00
         -2   -1    0    0    0  501 -0.00000000000E+00  0.00000000000E+00  0.17105232991E+02  0.17105232991E+02  0.00000000000E+00 0. -1.
         21   -1    0    0  501  502  0.00000000000E+00 -0.00000000000E+00 -0.70881537784E+02  0.70881537784E+02  0.00000000000E+00 0. -1.
         21    1    1    2  503  502  0.17572453134E+02  0.21423079998E+02 -0.53531739479E+02  0.60277579558E+02  0.00000000000E+00 0. -1.
         -2    1    1    2    0  503 -0.17572453134E+02 -0.21423079998E+02 -0.24456531436E+00  0.27709191217E+02  0.00000000000E+00 0. -1.
</event>
<event>
 4    1  0.1560907E+006  0.3960329E+02  0.7546771E-02  0.1350826E+00
          2   -1    0    0  503    0 -0.00000000000E+00  0.00000000000E+00  0.45584963630E+03  0.45584963630E+03  0.00000000000E+00 0. -1.
         21   -1    0    0  501  502  0.00000000000E+00 -0.00000000000E+00 -0.60724436845E+01  0.60724436845E+01  0.00000000000E+00 0. -1.
         21    1    1    2  503  502  0.38279733396E+02 -0.10152972289E+02  0.72839943753E+02  0.82910061157E+02  0.00000000000E+00 0. -1.
          2    1    1    2  501    0 -0.38279733396E+02  0.10152972289E+02  0.37693724886E+03  0.37901201883E+03  0.00000000000E+00 0. -1.
</event>
<event>
 4    1  0.1560907E+006  0.3102869E+02  0.7546771E-02  0.1410863E+00
         -3   -1    0    0    0  501 -0.00000000000E+00  0.00000000000E+00  0.16303643461E+03  0.16303643461E+03  0.00000000000E+00 0. -1.
         21   -1    0    0  501  502  0.00000000000E+00 -0.00000000000E+00 -0.13522539162E+02  0.13522539162E+02  0.00000000000E+00 0. -1.
         21    1    1    2  503  502 -0.90807650582E+01 -0.29670175882E+02  0.85003132837E+01  0.32171959170E+02  0.00000000000E+00 0. -1.
         -3    1    1    2    0  503  0.90807650582E+01  0.29670175882E+02  0.14101358217E+03  0.14438701460E+03  0.00000000000E+00 0. -1.
</event>
<event>
 4    1  0.1560907E+006  0.2191138E+02  0.7546771E-02  0.1506640E+00
          1   -1    0    0  503    0 -0.00000000000E+00  0.00000000000E+00  0.25941031587E+02  0.25941031587E+02  0.00000000000E+00 0.  1.
         21   -1    0    0  501  502  0.00000000000E+00 -0.00000000000E+00 -0.59977853174E+03  0.59977853174E+03  0.00000000000E+00 0. -1.
         21    1    1    2  503  502 -0.16998250130E+02  0.13826351460E+02 -0.59491366732E+03  0.59531704164E+03  0.00000000000E+00 0. -1.
          1    1    1    2  501    0  0.16998250130E+02 -0.13826351460E+02  0.21076167170E+02  0.30402521684E+02  0.00000000000E+00 0.  1.
</event>
<event>
 4    1  0.1560907E+006  0.2747734E+02  0.7546771E-02  0.1442871E+00
          2   -1    0    0  503    0 -0.00000000000E+00  0.00000000000E+00  0.10906875207E+04  0.10906875207E+04  0.00000000000E+00 0. -1.
         21   -1    0    0  501  502  0.00000000000E+00 -0.00000000000E+00 -0.48054079615E+02  0.48054079615E+02  0.00000000000E+00 0. -1.
         21    1    1    2  503  502 -0.43905997051E+01 -0.27124286485E+02 -0.43938258007E+02  0.51822531777E+02  0.00000000000E+00 0. -1.
          2    1    1    2  501    0  0.43905997051E+01  0.27124286485E+02  0.10865716991E+04  0.10869190685E+04  0.00000000000E+00 0. -1.
</event>
<event>
 4    1  0.1560907E+006  0.6544740E+02  0.7546771E-02  0.1242369E+00
          2   -1    0    0  502    0 -0.00000000000E+00  0.00000000000E+00  0.33936711716E+02  0.33936711716E+02  0.00000000000E+00 0.  1.
         21   -1    0    0  503  502  0.00000000000E+00 -0.00000000000E+00 -0.14676304054E+03  0.14676304054E+03  0.00000000000E+00 0. -1.
         21    1    1    2  503  501 -0.26406689885E+02 -0.59883633229E+02 -0.90219004635E+02  0.11145775701E+03  0.00000000000E+00 0. -1.
          2    1    1    2  501    0  0.26406689885E+02  0.59883633229E+02 -0.22607324191E+02  0.69241995252E+02  0.00000000000E+00 0.  1.
</event>
<event>
 4    1  0.1560907E+006  0.2327346E+02  0.7546771E-02  0.1489093E+00
         21   -1    0    0  503  502  0.00000000000E+00  0.00000000000E+00  0.12119655937E+03  0.12119655937E+03  0.00000000000E+00 0.  1.
         -1   -1    0    0    0  501 -0.00000000000E+00 -0.00000000000E+00 -0.36113963599E+02  0.36113963599E+02  0.00000000000E+00 0.  1.
         21    1    1    2  503  501  0.26812644274E+01 -0.23118495210E+02  0.11616895765E+03  0.11847734265E+03  0.00000000000E+00 0.  1.
         -1    1    1    2    0  502 -0.26812644274E+01  0.23118495210E+02 -0.31086361873E+02  0.38833180326E+02  0.00000000000E+00 0.  1.
</event>
<event>
 4    1  0.1560907E+006  0.2583087E+02  0.7546771E-02  0.1459719E+00
         21   -1    0    0  501  502  0.00000000000E+00  0.00000000000E+00  0.11165333480E+03  0.11165333480E+03  0.00000000000E+00 0. -1.
          1   -1    0    0  503    0 -0.00000000000E+00 -0.00000000000E+00 -0.22820180441E+02  0.22820180441E+02  0.00000000000E+00 0.  1.
         21    1    1    2  503  502 -0.20618226438E+02  0.15560290044E+02  0.10218265904E+03  0.10539700990E+03  0.00000000000E+00 0. -1.
          1    1    1    2  501    0  0.20618226438E+02 -0.15560290044E+02 -0.13349504678E+02  0.29076505342E+02  0.00000000000E+00 0.  1.
</event>
<event>
 4    1  0.1560907E+006  0.2726353E+02  0.7546771E-02  0.1444979E+00
         21   -1    0    0  501  502  0.00000000000E+00  0.00000000000E+00  0.14357565752E+01  0.14357565752E+01  0.00000000000E+00 0.  1.
          1   -1    0    0  503    0 -0.00000000000E+00 -0.00000000000E+00 -0.55947647569E+03  0.55947647569E+03  0.00000000000E+00 0. -1.
         21    1    1    2  503  502 -0.25563916315E+02 -0.94755700914E+01 -0.20238890436E+03  0.20421696515E+03  0.00000000000E+00 0.  1.
          1    1    1    2  501    0  0.25563916315E+02  0.94755700914E+01 -0.35565181475E+03  0.35669526712E+03  0.00000000000E+00 0. -1.
</event>
<event>
 4    1  0.1560907E+006  0.2258102E+02  0.7546771E-02  0.1497827E+00
         -3   -1    0    0    0  501 -0.00000000000E+00  0.00000000000E+00  0.29255183942E+03  0.29255183942E+03  0.00000000000E+00 0. -1.
         21   -1    0    0  501  502  0.00000000000E+00 -0.00000000000E+00 -0.24137649007E+02  0.24137649007E+02  0.00000000000E+00 0. -1.
         21    1    1    2  503  502  0.17036624911E+01  0.22516660838E+02 -0.18313611379E+02  0.29073885927E+02  0.00000000000E+00 0. -1.
         -3    1    1    2    0  503 -0.17036624911E+01 -0.22516660838E+02  0.28672780180E+03  0.28761560250E+03  0.00000000000E+00 0. -1.
</event>
<event>
 4    1  0.1560907E+006  0.2954131E+02  0.7546771E-02  0.1423625E+00
          2   -1    0    0  502    0 -0.00000000000E+00  0.00000000000E+00  0.19602755768E+04  0.19602755768E+04  0.00000000000E+00 0. -1.
         21   -1    0    0  503  502  0.00000000000E+00 -0.00000000000E+00 -0.23269913359E+03  0.23269913359E+03  0.00000000000E+00 0.  1.
         21    1    1    2  503  501  0.24462993617E+02 -0.16560528522E+02 -0.23164976228E+03  0.23352580484E+03  0.00000000000E+00 0.  1.
          2    1    1    2  501    0 -0.24462993617E+02  0.16560528522E+02  0.19592262055E+04  0.19594489055E+04  0.00000000000E+00 0. -1.
</event>
<event>
 4    1  0.1560907E+006  0.2371069E+02  0.7546771E-02  0.1483762E+00
         -3   -1    0    0    0  501 -0.00000000000E+00  0.00000000000E+00  0.10540924524E+03  0.10540924524E+03  0.00000000000E+00 0.  1.
         21   -1    0    0  503  502  0.00000000000E+00 -0.00000000000E+00 -0.68715933466E+01  0.68715933466E+01  0.00000000000E+00 0.  1.
         21    1    1    2  503  501 -0.21150405968E+02  0.10717147539E+02  0.22707932857E+02  0.32830582368E+02  0.00000000000E+00 0.  1.
         -3    1    1    2    0  502  0.21150405968E+02 -0.10717147539E+02  0.75829719034E+02  0.79450256216E+02  0.00000000000E+00 0.  1.
</event>
<event>
 4    1  0.1560907E+006  0.3020660E+02  0.7546771E-02  0.1417809E+00
         21   -1    0    0  501  502  0.00000000000E+00  0.00000000000E+00  0.23751655102E+02  0.23751655102E+02  0.00000000000E+00 0. -1.
          1   -1    0    0  503    0 -0.00000000000E+00 -0.00000000000E+00 -0.17437983351E+04  0.17437983351E+04  0.00000000000E+00 0. -1.
         21    1    1    2  503  502  0.22237776842E+02 -0.20443088971E+02  0.13962682658E+02  0.33277546672E+02  0.00000000000E+00 0. -1.
          1    1    1    2  501    0 -0.22237776842E+02  0.20443088971E+02 -0.17340093626E+04  0.17342724435E+04  0.00000000000E+00 0. -1.
</event>
<event>
 4    1  0.1560907E+006  0.2144164E+02  0.7546771E-02  0.1513052E+00
         21   -1    0    0  503  502  0.00000000000E+00  0.00000000000E+00  0.11348189542E+03  0.11348189542E+03  0.00000000000E+00 0.  1.
          1   -1    0    0  502    0 -0.00000000000E+00 -0.00000000000E+00 -0.24072398660E+02  0.24072398660E+02  0.00000000000E+00 0.  1.
         21    1    1    2  503  501 -0.20679797144E+02  0.56647904175E+01  0.10742805377E+03  0.10954693331E+03  0.00000000000E+00 0.  1.
          1    1    1    2  501    0  0.20679797144E+02 -0.56647904175E+01 -0.18018557013E+02  0.28007360768E+02  0.00000000000E+00 0.  1.
</event>
<event>
 4    1  0.1560907E+006  0.2129510E+02  0.7546771E-02  0.1515093E+00
          4   -1    0    0  502    0 -0.00000000000E+00  0.00000000000E+00  0.77627961943E+01  0.77627961943E+01  0.00000000000E+00 0. -1.
         21   -1    0    0  503  502  0.00000000000E+00 -0.00000000000E+00 -0.60239743961E+02  0.60239743961E+02  0.00000000000E+00 0. -1.
         21    1    1    2  503  501  0.12509611603E+02  0.17233425439E+02 -0.20324428504E+02  0.29437454524E+02  0.00000000000E+00 0. -1.
          4    1    1    2  501    0 -0.12509611603E+02 -0.17233425439E+02 -0.32152519263E+02  0.38565085632E+02  0.00000000000E+00 0. -1.
</event>
<event>
 4    1  0.1560907E+006  0.2009520E+02  0.7546771E-02  0.1532585E+00
          3   -1    0    0  503    0 -0.00000000000E+00  0.00000000000E+00  0.38650061993E+03  0.38650061993E+03  0.00000000000E+00 0.  1.
         21   -1    0    0  501  502  0.00000000000E+00 -0.00000000000E+00 -0.25631878650E+01  0.25631878650E+01  0.00000000000E+00 0.  1.
         21    1    1    2  503  502 -0.10628552734E+02  0.17054356059E+02  0.42244694998E+02  0.46780673886E+02  0.00000000000E+00 0.  1.
          3    1    1    2  501    0  0.10628552734E+02 -0.17054356059E+02  0.34169273707E+03  0.34228313391E+03  0.00000000000E+00 0.  1.
</event>
<event>
 4    1  0.1560907E+006  0.2264568E+02  0.7546771E-02  0.1496996E+00
         21   -1    0    0  503  502  0.00000000000E+00  0.00000000000E+00  0.16550356941E+02  0.16550356941E+02  0.00000000000E+00 0. -1.
         -1   -1    0    0    0  501 -0.00000000000E+00 -0.00000000000E+00 -0.34743603484E+03  0.34743603484E+03  0.00000000000E+00 0. -1.
         21    1    1    2  503  501  0.18168224459E+02 -0.13518232755E+02  0.82453926430E+01  0.24100072545E+02  0.00000000000E+00 0. -1.
         -1    1    1    2    0  502 -0.18168224459E+02  0.13518232755E+02 -0.33913107055E+03  0.33988631924E+03  0.00000000000E+00 0. -1.
</event>
<event>
 4    1  0.1560907E+006  0.2211903E+02  0.7546771E-02  0.1503867E+00
          1   -1    0    0  503    0 -0.00000000000E+00  0.00000000000E+00  0.50572480240E+03  0.50572480240E+03  0.00000000000E+00 0. -1.
         21   -1    0    0  501  502  0.00000000000E+00 -0.00000000000E+00 -0.32552898499E+01  0.32552898499E+01  0.00000000000E+00 0. -1.
         21    1    1    2  503  502 -0.73348658724E+01  0.20867467768E+02  0.37885551155E+02  0.43869880952E+02  0.00000000000E+00 0. -1.
          1    1    1    2  501    0  0.73348658724E+01 -0.20867467768E+02  0.46458396139E+03  0.46511021129E+03  0.00000000000E+00 0. -1.
</event>
<event>
 4    1  0.1560907E+006  0.2326204E+02  0.7546771E-02  0.1489234E+00
          1   -1    0    0  503    0 -0.00000000000E+00  0.00000000000E+00  0.18452770991E+01  0.18452770991E+01  0.00000000000E+00 0. -1.
         21   -1    0    0  501  502  0.00000000000E+00 -0.00000000000E+00 -0.36534178814E+03  0.36534178814E+03  0.00000000000E+00 0. -1.
         21    1    1    2  503  502 -0.15028719953E+02 -0.17755563405E+02 -0.26330480663E+03  0.26433036839E+03  0.00000000000E+00 0. -1.
          1    1    1    2  501    0  0.15028719953E+02  0.17755563405E+02 -0.10019170440E+03  0.10285669685E+03  0.00000000000E+00 0. -1.
</event>
<event>
 4    1  0.1560907E+006  0.4988020E+02  0.7546771E-02  0.1298693E+00
         21   -1    0    0  503  502  0.00000000000E+00  0.00000000000E+00  0.12163746486E+04  0.12163746486E+04  0.00000000000E+00 0.  1.
         -4   -1    0    0    0  501 -0.00000000000E+00 -0.00000000000E+00 -0.30651822175E+02  0.30651822175E+02  0.00000000000E+00 0. -1.
         21    1    1    2  503  501  0.23316871349E+02 -0.44094869477E+02  0.11952114169E+04  0.11962517984E+04  0.00000000000E+00 0.  1.
         -4    1    1    2    0  502 -0.23316871349E+02  0.44094869477E+02 -0.94885905197E+01  0.50774672365E+02  0.00000000000E+00 0. -1.
</event>
<event>
 4    1  0.1560907E+006  0.2727488E+02  0.7546771E-02  0.1444866E+00
          3   -1    0    0  502    0 -0.00000000000E+00  0.00000000000E+00  0.15683778028E+02  0.15683778028E+02  0.00000000000E+00 0. -1.
         21   -1    0    0  503  502  0.00000000000E+00 -0.00000000000E+00 -0.34714231637E+03  0.34714231637E+03  0.00000000000E+00 0. -1.
         21    1    1    2  503  501  0.26044527667E+02  0.80994907194E+01 -0.33429345173E+03  0.33540428000E+03  0.00000000000E+00 0. -1.
          3    1    1    2  501    0 -0.26044527667E+02 -0.80994907194E+01  0.28349133851E+01  0.27421814404E+02  0.00000000000E+00 0. -1.
</event>
<event>
 4    1  0.1560907E+006  0.2001873E+02  0.7546771E-02  0.1533750E+00
         -1   -1    0    0    0  501 -0.00000000000E+00  0.00000000000E+00  0.93600281625E+03  0.93600281625E+03  0.00000000000E+00 0. -1.
         21   -1    0    0  503  502  0.00000000000E+00 -0.00000000000E+00 -0.12977793777E+01  0.12977793777E+01  0.00000000000E+00 0. -1.
         21    1    1    2  503  501 -0.19266621229E+02  0.54356922848E+01  0.83719828145E+02  0.86079957417E+02  0.00000000000E+00 0. -1.
         -1    1    1    2    0  502  0.19266621229E+02 -0.54356922848E+01  0.85098520873E+03  0.85122063822E+03  0.00000000000E+00 0. -1.
</event>
<event>
 4    1  0.1560907E+006  0.2546679E+02  0.7546771E-02  0.1463649E+00
         21   -1    0    0  503  502  0.00000000000E+00  0.00000000000E+00  0.28954034911E+02  0.28954034911E+02  0.00000000000E+00 0. -1.
          3   -1    0    0  502    0 -0.00000000000E+00 -0.00000000000E+00 -0.47280408810E+02  0.47280408810E+02  0.00000000000E+00 0. -1.
         21    1    1    2  503  501 -0.23825654009E+02 -0.89941987215E+01 -0.36814343287E+02  0.44764419702E+02  0.00000000000E+00 0. -1.
          3    1    1    2  501    0  0.23825654009E+02  0.89941987215E+01  0.18487969388E+02  0.31470024018E+02  0.00000000000E+00 0. -1.
</event>
<event>
 4    1  0.1560907E+006  0.2621814E+02  0.7546771E-02  0.1455624E+00
          2   -1    0    0  502    0 -0.00000000000E+00  0.00000000000E+00  0.39331407702E+03  0.39331407702E+03  0.00000000000E+00 0.  1.
         21   -1    0    0  503  502  0.00000000000E+00 -0.00000000000E+00 -0.25444338562E+01  0.25444338562E+01  0.00000000000E+00 0.  1.
         21    1    1    2  503  501  0.35447079145E+01  0.25977407233E+02  0.84627084593E+02  0.88595338971E+02  0.00000000000E+00 0.  1.
          2    1    1    2  501    0 -0.35447079145E+01 -0.25977407233E+02  0.30614255857E+03  0.30726317190E+03  0.00000000000E+00 0.  1.
</event>
<event>
 4    1  0.1560907E+006  0.2040296E+02  0.7546771E-02  0.1527962E+00
         -3   -1    0    0    0  501 -0.00000000000E+00  0.00000000000E+00  0.14526087752E+02  0.14526087752E+02  0.00000000000E+00 0. -1.
         21   -1    0    0  501  502  0.00000000000E+00 -0.00000000000E+00 -0.43356503188E+02  0.43356503188E+02  0.00000000000E+00 0. -1.
         21    1    1    2  503  502 -0.16223218919E+02 -0.12372864294E+02 -0.31266590928E+02  0.37334706524E+02  0.00000000000E+00 0. -1.
         -3    1    1    2    0  503  0.16223218919E+02  0.12372864294E+02  0.24361754928E+01  0.20547884416E+02  0.00000000000E+00 0. -1.
</event>
<event>
 4    1  0.1560907E+006  0.3717868E+02  0.7546771E-02  0.1365862E+00
         -2   -1    0    0    0  501 -0.00000000000E+00  0.00000000000E+00  0.33913841321E+01  0.33913841321E+01  0.00000000000E+00 0.  1.
         21   -1    0    0  503  502  0.00000000000E+00 -0.00000000000E+00 -0.67491988844E+03  0.67491988844E+03  0.00000000000E+00 0.  1.
         21    1    1    2  503  501 -0.36526260718E+02  0.69344552486E+01 -0.54921920327E+03  0.55047614629E+03  0.00000000000E+00 0.  1.
         -2    1    1    2    0  502  0.36526260718E+02 -0.69344552486E+01 -0.12230930104E+03  0.12783512628E+03  0.00000000000E+00 0.  1.
</event>
<event>
 4    1  0.1560907E+006  0.2239297E+02  0.7546771E-02  0.1500265E+00
         21   -1    0    0  503  502  0.00000000000E+00  0.00000000000E+00  0.17300976554E+02  0.17300976554E+02  0.00000000000E+00 0. -1.
          1   -1    0    0  502    0 -0.00000000000E+00 -0.00000000000E+00 -0.10489199665E+04  0.10489199665E+04  0.00000000000E+00 0.  1.
         21    1    1    2  503  501  0.14268631209E+02  0.17258374486E+02  0.98839556517E+01  0.24477293678E+02  0.00000000000E+00 0. -1.
          1    1    1    2  501    0 -0.14268631209E+02 -0.17258374486E+02 -0.10415029456E+04  0.10417436493E+04  0.00000000000E+00 0.  1.
</event>
<event>
 4    1  0.1560907E+006  0.2172030E+02  0.7546771E-02  0.1509224E+00
         21   -1    0    0  501  502  0.00000000000E+00  0.00000000000E+00  0.75409301301E+01  0.75409301301E+01  0.00000000000E+00 0.  1.
         -1   -1    0    0    0  501 -0.00000000000E+00 -0.00000000000E+00 -0.26106048712E+03  0.26106048712E+03  0.00000000000E+00 0.  1.
         21    1    1    2  503  502  0.66262809590E+01 -0.20684868326E+02 -0.96516729115E+01  0.23768175508E+02  0.00000000000E+00 0.  1.
         -1    1    1    2    0  503 -0.66262809590E+01  0.20684868326E+02 -0.24386788408E+03  0.24483324175E+03  0.00000000000E+00 0.  1.
</event>
<event>
 4    1  0.1560907E+006  0.2308546E+02  0.7546771E-02  0.1491428E+00
         -1   -1    0    0    0  501 -0.00000000000E+00  0.00000000000E+00  0.53236143399E+02  0.53236143399E+02  0.00000000000E+00 0. -1.
         21   -1    0    0  501  502  0.00000000000E+00 -0.00000000000E+00 -0.11739358538E+02  0.11739358538E+02  0.00000000000E+00 0. -1.
         21    1    1    2  503  502 -0.14824963489E+02  0.17696298240E+02  0.82821811041E+01  0.24526170465E+02  0.00000000000E+00 0. -1.
         -1    1    1    2    0  503  0.14824963489E+02 -0.17696298240E+02  0.33214603757E+02  0.40449331473E+02  0.00000000000E+00 0. -1.
</event>
<event>
 4    1  0.1560907E+006  0.2181997E+02  0.7546771E-02  0.1507872E+00
         -3   -1    0    0    0  501 -0.00000000000E+00  0.00000000000E+00  0.96917813748E+02  0.96917813748E+02  0.00000000000E+00 0.  1.
         21   -1    0    0  501  502  0.00000000000E+00 -0.00000000000E+00 -0.50370431300E+02  0.50370431300E+02  0.00000000000E+00 0.  1.
         21    1    1    2  503  502 -0.10429306757E+02 -0.19166135934E+02 -0.46687141565E+02  0.51534458313E+02  0.00000000000E+00 0.  1.
         -3    1    1    2    0  503  0.10429306757E+02  0.19166135934E+02  0.93234524013E+02  0.95753786735E+02  0.00000000000E+00 0.  1.
</event>
<event>
 4    1  0.1560907E+006  0.2737119E+02  0.7546771E-02  0.1443915E+00
         21   -1    0    0  501  502  0.00000000000E+00  0.00000000000E+00  0.25352403065E+01  0.25352403065E+01  0.00000000000E+00 0.  1.
          1   -1    0    0  503    0 -0.00000000000E+00 -0.00000000000E+00 -0.62697513936E+03  0.62697513936E+03  0.00000000000E+00 0.  1.
         21    1    1    2  503  502  0.26922511322E+02  0.49356321378E+01 -0.83360725083E+02  0.87739344464E+02  0.00000000000E+00 0.  1.
          1    1    1    2  501    0 -0.26922511322E+02 -0.49356321378E+01 -0.54107917397E+03  0.54177103520E+03  0.00000000000E+00 0.  1.
</event>
<event>
 4    1  0.1560907E+006  0.2226199E+02  0.7546771E-02  0.1501979E+00
         21   -1    0    0  501  502  0.00000000000E+00  0.00000000000E+00  0.76077812830E+03  0.76077812830E+03  0.00000000000E+00 0.  1.
          1   -1    0    0  503    0 -0.00000000000E+00 -0.00000000000E+00 -0.74935871301E+00  0.74935871301E+00  0.00000000000E+00 0. -1.
         21    1    1    2  503  502 -0.12700009436E+02  0.18284029853E+02  0.51765894504E+03  0.51813741359E+03  0.00000000000E+00 0.  1.
          1    1    1    2  501    0  0.12700009436E+02 -0.18284029853E+02  0.24236982455E+03  0.24339007342E+03  0.00000000000E+00 0. -1.
</event>
<event>
 4    1  0.1560907E+006  0.2306525E+02  0.7546771E-02  0.1491680E+00
         21   -1    0    0  501  502  0.00000000000E+00  0.00000000000E+00  0.23266081289E+03  0.23266081289E+03  0.00000000000E+00 0.  1.
          2   -1    0    0  503    0 -0.00000000000E+00 -0.00000000000E+00 -0.54622171155E+01  0.54622171155E+01  0.00000000000E+00 0.  1.
         21    1    1    2  503  502 -0.17548265793E+01  0.22998395099E+02  0.20438135070E+03  0.20567873519E+03  0.00000000000E+00 0.  1.
          2    1    1    2  501    0  0.17548265793E+01 -0.22998395099E+02  0.22817245066E+02  0.32444294812E+02  0.00000000000E+00 0.  1.
</event>
<event>
 4    1  0.1560907E+006  0.4034958E+02  0.7546771E-02  0.1346449E+00
         21   -1    0    0  503  502  0.00000000000E+00  0.00000000000E+00  0.80590600890E+01  0.80590600890E+01  0.00000000000E+00 0. -1.
          1   -1    0    0  502    0 -0.00000000000E+00 -0.00000000000E+00 -0.15392733845E+04  0.15392733845E+04  0.00000000000E+00 0. -1.
         21    1    1    2  503  501 -0.39465485602E+02 -0.84002465640E+01 -0.44495263037E+02  0.60065939840E+02  0.00000000000E+00 0. -1.
          1    1    1    2  501    0  0.39465485602E+02  0.84002465640E+01 -0.14867190613E+04  0.14872665047E+04  0.00000000000E+00 0. -1.
</event>
<event>
 4    1  0.1560907E+006  0.2015033E+02  0.7546771E-02  0.1531750E+00
          1   -1    0    0  503    0 -0.00000000000E+00  0.00000000000E+00  0.32776962769E+03  0.32776962769E+03  0.00000000000E+00 0. -1.
         21   -1    0    0  501  502  0.00000000000E+00 -0.00000000000E+00 -0.93063121319E+02  0.93063121319E+02  0.00000000000E+00 0.  1.
         21    1    1    2  503  502  0.13473495773E+02  0.14983353064E+02 -0.91657979281E+02  0.93846796020E+02  0.00000000000E+00 0.  1.
          1    1    1    2  501    0 -0.13473495773E+02 -0.14983353064E+02  0.32636448565E+03  0.32698595299E+03  0.00000000000E+00 0. -1.
</event>
<event>
 4    1  0.1560907E+006  0.2623426E+02  0.7546771E-02  0.1455455E+00
          4   -1    0    0  503    0 -0.00000000000E+00  0.00000000000E+00  0.23462222711E+03  0.23462222711E+03  0.00000000000E+00 0.  1.
         21   -1    0    0  501  502  0.00000000000E+00 -0.00000000000E+00 -0.13847130548E+03  0.13847130548E+03  0.00000000000E+00 0.  1.
         21    1    1    2  503  502 -0.25365878839E+02 -0.66939323059E+01 -0.13648482165E+03  0.13898324748E+03  0.00000000000E+00 0.  1.
          4    1    1    2  501    0  0.25365878839E+02  0.66939323059E+01  0.23263574328E+03  0.23411028511E+03  0.00000000000E+00 0.  1.
</event>
<event>
 4    1  0.1560907E+006  0.6153797E+02  0.7546771E-02  0.1254695E+00
         21   -1    0    0  503  502  0.00000000000E+00  0.00000000000E+00  0.22361493060E+03  0.22361493060E+03  0.00000000000E+00 0. -1.
          1   -1    0    0  502    0 -0.00000000000E+00 -0.00000000000E+00 -0.55538515341E+02  0.55538515341E+02  0.00000000000E+00 0. -1.
         21    1    1    2  503  501 -0.42811629337E+02  0.44205040235E+02  0.20040504549E+03  0.20964041463E+03  0.00000000000E+00 0. -1.
          1    1    1    2  501    0  0.42811629337E+02 -0.44205040235E+02 -0.32328630234E+02  0.69513031307E+02  0.00000000000E+00 0. -1.
</event>
<event>
 4    1  0.1560907E+006  0.2097955E+02  0.7546771E-02  0.1519557E+00
         -4   -1    0    0    0  501 -0.00000000000E+00  0.00000000000E+00  0.82319554443E+02  0.82319554443E+02  0.00000000000E+00 0.  1.
         21   -1    0    0  503  502  0.00000000000E+00 -0.00000000000E+00 -0.30820982388E+03  0.30820982388E+03  0.00000000000E+00 0.  1.
         21    1    1    2  503  501  0.16366026719E+02  0.13126114270E+02 -0.30650871296E+03  0.30722586614E+03  0.00000000000E+00 0.  1.
         -4    1    1    2    0  502 -0.16366026719E+02 -0.13126114270E+02  0.80618443521E+02  0.83303512183E+02  0.00000000000E+00 0.  1.
</event>
<event>
 4    1  0.1560907E+006  0.3627827E+02  0.7546771E-02  0.1371793E+00
          1   -1    0    0  503    0 -0.00000000000E+00  0.00000000000E+00  0.14101397375E+03  0.14101397375E+03  0.00000000000E+00 0.  1.
         21   -1    0    0  501  502  0.00000000000E+00 -0.00000000000E+00 -0.25524091734E+02  0.25524091734E+02  0.00000000000E+00 0.  1.
         21    1    1    2  503  502 -0.28863314972E+02  0.21977766504E+02 -0.85749201377E+01  0.37277908029E+02  0.00000000000E+00 0.  1.
          1    1    1    2  501    0  0.28863314972E+02 -0.21977766504E+02  0.12406480216E+03  0.12926015746E+03  0.00000000000E+00 0.  1.
</event>
<event>
 4    1  0.1560907E+006  0.2300838E+02  0.7546771E-02  0.1492393E+00
         -2   -1    0    0    0  501 -0.00000000000E+00  0.00000000000E+00  0.45184521271E+03  0.45184521271E+03  0.00000000000E+00 0.  1.
         21   -1    0    0  503  502  0.00000000000E+00 -0.00000000000E+00 -0.80636563176E+01  0.80636563176E+01  0.00000000000E+00 0. -1.
         21    1    1    2  503  501 -0.14556168504E+02 -0.17818623478E+02  0.92972953833E+01  0.24815823291E+02  0.00000000000E+00 0. -1.
         -2    1    1    2    0  502  0.14556168504E+02  0.17818623478E+02  0.43448426101E+03  0.43509304574E+03  0.00000000000E+00 0.  1.
</event>
<event>
 4    1  0.1560907E+006  0.2346181E+02  0.7546771E-02  0.1486779E+00
         -3   -1    0    0    0  501 -0.00000000000E+00  0.00000000000E+00  0.13377138899E+03  0.13377138899E+03  0.00000000000E+00 0. -1.
         21   -1    0    0  503  502  0.00000000000E+00 -0.00000000000E+00 -0.43290653952E+01  0.43290653952E+01  0.00000000000E+00 0. -1.
         21    1    1    2  503  501  0.22156057405E+02  0.77178923080E+01  0.49363106614E+02  0.54655036694E+02  0.00000000000E+00 0. -1.
         -3    1    1    2    0  502 -0.22156057405E+02 -0.77178923080E+01  0.80079216977E+02  0.83445417688E+02  0.00000000000E+00 0. -1.
</event>
<event>
 4    1  0.1560907E+006  0.2197739E+02  0.7546771E-02  0.1505754E+00
          1   -1    0    0  502    0 -0.00000000000E+00  0.00000000000E+00  0.71342407701E+01  0.71342407701E+01  0.00000000000E+00 0. -1.
         21   -1    0    0  503  502  0.00000000000E+00 -0.00000000000E+00 -0.88610958595E+02  0.88610958595E+02  0.00000000000E+00 0.  1.
         21    1    1    2  503  501 -0.22780509926E+01  0.21859009807E+02 -0.63992722738E+02  0.67661469017E+02  0.00000000000E+00 0.  1.
          1    1    1    2  501    0  0.22780509926E+01 -0.21859009807E+02 -0.17483995088E+02  0.28083730349E+02  0.00000000000E+00 0. -1.
</event>
<event>
 4    1  0.1560907E+006  0.2021459E+02  0.7546771E-02  0.1530780E+00
         -1   -1    0    0    0  501 -0.00000000000E+00  0.00000000000E+00  0.26894641569E+03  0.26894641569E+03  0.00000000000E+00 0. -1.
         21   -1    0    0  503  502  0.00000000000E+00 -0.00000000000E+00 -0.14257999381E+03  0.14257999381E+03  0.00000000000E+00 0.  1.
         21    1    1    2  503  501 -0.20214106555E+02  0.14038014920E+00 -0.14148072209E+03  0.14291754452E+03  0.00000000000E+00 0.  1.
         -1    1    1    2    0  502  0.20214106555E+02 -0.14038014920E+00  0.26784714397E+03  0.26860886497E+03  0.00000000000E+00 0. -1.
</event>
<event>
 4    1  0.1560907E+006  0.3194365E+02  0.7546771E-02  0.1403426E+00
          1   -1    0    0  503    0 -0.00000000000E+00  0.00000000000E+00  0.86153853780E+02  0.86153853780E+02  0.00000000000E+00 0. -1.
         21   -1    0    0  501  502  0.00000000000E+00 -0.00000000000E+00 -0.12110569076E+02  0.12110569076E+02  0.00000000000E+00 0. -1.
         21    1    1    2  503  502  0.87011807026E+01  0.30735752520E+02  0.44312456662E+02  0.54625917329E+02  0.00000000000E+00 0. -1.
          1    1    1    2  501    0 -0.87011807026E+01 -0.30735752520E+02  0.29730828043E+02  0.43638505528E+02  0.00000000000E+00 0. -1.
</event>
<event>
 4    1  0.1560907E+006  0.2425231E+02  0.7546771E-02  0.1477344E+00
         21   -1    0    0  501  502  0.00000000000E+00  0.00000000000E+00  0.81229251409E+02  0.81229251409E+02  0.00000000000E+00 0.  1.
          3   -1    0    0  503    0 -0.00000000000E+00 -0.00000000000E+00 -0.11495198360E+02  0.11495198360E+02  0.00000000000E+00 0.  1.
         21    1    1    2  503  502  0.57744176598E+01 -0.23554839286E+02  0.63071570674E+02  0.67573644126E+02  0.00000000000E+00 0.  1.
          3    1    1    2  501    0 -0.57744176598E+01  0.23554839286E+02  0.66624823742E+01  0.25150805643E+02  0.00000000000E+00 0.  1.
</event>
<event>
 4    1  0.1560907E+006  0.2991407E+02  0.7546771E-02  0.1420345E+00
         -3   -1    0    0    0  501 -0.00000000000E+00  0.00000000000E+00  0.15972888929E+03  0.15972888929E+03  0.00000000000E+00 0.  1.
         21   -1    0    0  503  502  0.00000000000E+00 -0.00000000000E+00 -0.57703907948E+01  0.57703907948E+01  0.00000000000E+00 0.  1.
         21    1    1    2  503  501 -0.15879016374E+02  0.25351689083E+02  0.62856536506E+02  0.69611748160E+02  0.00000000000E+00 0.  1.
         -3    1    1    2    0  502  0.15879016374E+02 -0.25351689083E+02  0.91101961991E+02  0.95887531926E+02  0.00000000000E+00 0.  1.
</event>
<event>
 4    1  0.1560907E+006  0.2137086E+02  0.7546771E-02  0.1514035E+00
         -1   -1    0    0    0  501 -0.00000000000E+00  0.00000000000E+00  0.83897049758E+03  0.83897049758E+03  0.00000000000E+00 0. -1.
         21   -1    0    0  503  502  0.00000000000E+00 -0.00000000000E+00 -0.17139208460E+02  0.17139208460E+02  0.00000000000E+00 0.  1.
         21    1    1    2  503  501 -0.91276728097E+01  0.19323544639E+02 -0.10286434242E+02  0.23717599325E+02  0.00000000000E+00 0.  1.
         -1    1    1    2    0  502  0.91276728097E+01 -0.19323544639E+02  0.83211772336E+03  0.83239210671E+03  0.00000000000E+00 0. -1.
</event>
<event>
 4    1  0.1560907E+006  0.2840874E+02  0.7546771E-02  0.1433948E+00
         -1   -1    0    0    0  501 -0.00000000000E+00  0.00000000000E+00  0.21945205765E+03  0.21945205765E+03  0.00000000000E+00 0.  1.
         21   -1    0    0  503  502  0.00000000000E+00 -0.00000000000E+00 -0.38732010080E+01  0.38732010080E+01  0.00000000000E+00 0.  1.
         21    1    1    2  503  501 -0.26521419750E+02 -0.10181887797E+02  0.82695993693E+02  0.87439601540E+02  0.00000000000E+00 0.  1.
         -1    1    1    2    0  502  0.26521419750E+02  0.10181887797E+02  0.13288286295E+03  0.13588565712E+03  0.00000000000E+00 0.  1.
</event>
<event>
 4    1  0.1560907E+006  0.2172607E+02  0.7546771E-02  0.1509146E+00
         -4   -1    0    0    0  501 -0.00000000000E+00  0.00000000000E+00  0.36293138067E+01  0.36293138067E+01  0.00000000000E+00 0. -1.
         21   -1    0    0  501  502  0.00000000000E+00 -0.00000000000E+00 -0.13339433352E+03  0.13339433352E+03  0.00000000000E+00 0. -1.
         21    1    1    2  503  502 -0.76339768916E+01  0.20340707039E+02 -0.75717275782E+02  0.78772633686E+02  0.00000000000E+00 0. -1.
         -4    1    1    2    0  503  0.76339768916E+01 -0.20340707039E+02 -0.54047743928E+02  0.58251013637E+02  0.00000000000E+00 0. -1.
</event>
<event>
 4    1  0.1560907E+006  0.2061693E+02  0.7546771E-02  0.1524805E+00
          1   -1    0    0  502    0 -0.00000000000E+00  0.00000000000E+00  0.56852634264E+01  0.56852634264E+01  0.00000000000E+00 0.  1.
         21   -1    0    0  503  502  0.00000000000E+00 -0.00000000000E+00 -0.14589907097E+04  0.14589907097E+04  0.00000000000E+00 0.  1.
         21    1    1    2  503  501  0.13193860577E+02  0.15842341920E+02 -0.14399799169E+04  0.14401275009E+04  0.00000000000E+00 0.  1.
          1    1    1    2  501    0 -0.13193860577E+02 -0.15842341920E+02 -0.13325529309E+02  0.24548472168E+02  0.00000000000E+00 0.  1.
</event>
<event>
 4    1  0.1560907E+006  0.4242709E+02  0.7546771E-02  0.1334821E+00
         21   -1    0    0  503  502  0.00000000000E+00  0.00000000000E+00  0.36305420481E+01  0.36305420481E+01  0.00000000000E+00 0.  1.
         -1   -1    0    0    0  501 -0.00000000000E+00 -0.00000000000E+00 -0.50530390171E+03  0.50530390171E+03  0.00000000000E+00 0.  1.
         21    1    1    2  503  501 -0.18201633125E+01  0.42388028111E+02 -0.21595599402E+03  0.22008418679E+03  0.00000000000E+00 0.  1.
         -1    1    1    2    0  502  0.18201633125E+01 -0.42388028111E+02 -0.28571736564E+03  0.28885025696E+03  0.00000000000E+00 0.  1.
</event>
<event>
 4    1  0.1560907E+006  0.3309076E+02  0.7546771E-02  0.1394506E+00
         -2   -1    0    0    0  501 -0.00000000000E+00  0.00000000000E+00  0.14310412461E+03  0.14310412461E+03  0.00000000000E+00 0.  1.
         21   -1    0    0  503  502  0.00000000000E+00 -0.00000000000E+00 -0.97083721092E+01  0.97083721092E+01  0.00000000000E+00 0.  1.
         21    1    1    2  503  501 -0.20485163321E+02 -0.25987620172E+02  0.31531150426E+02  0.45707896098E+02  0.00000000000E+00 0.  1.
         -2    1    1    2    0  502  0.20485163321E+02  0.25987620172E+02  0.10186460208E+03  0.10710460062E+03  0.00000000000E+00 0.  1.
</event>
<event>
 4    1  0.1560907E+006  0.2785510E+02  0.7546771E-02  0.1439203E+00
         -4   -1    0    0    0  501 -0.00000000000E+00  0.00000000000E+00  0.20690956530E+02  0.20690956530E+02  0.00000000000E+00 0. -1.
         21   -1    0    0  503  502  0.00000000000E+00 -0.00000000000E+00 -0.84398091643E+02  0.84398091643E+02  0.00000000000E+00 0. -1.
         21    1    1    2  503  501 -0.20944495273E+01 -0.27776247576E+02 -0.71022314635E+02  0.76289421444E+02  0.00000000000E+00 0. -1.
         -4    1    1    2    0  502  0.20944495273E+01  0.27776247576E+02  0.73151795220E+01  0.28799626728E+02  0.00000000000E+00 0. -1.
</event>
<event>
 4    1  0.1560907E+006  0.3511639E+02  0.7546771E-02  0.1379747E+00
         21   -1    0    0  501  502  0.00000000000E+00  0.00000000000E+00  0.10214952960E+03  0.10214952960E+03  0.00000000000E+00 0. -1.
          2   -1    0    0  503    0 -0.00000000000E+00 -0.00000000000E+00 -0.62987486061E+02  0.62987486061E+02  0.00000000000E+00 0.  1.
         21    1    1    2  503  502 -0.19118076098E+02 -0.29456068061E+02  0.93816542421E+02  0.10017337177E+03  0.00000000000E+00 0. -1.
          2    1    1    2  501    0  0.19118076098E+02  0.29456068061E+02 -0.54654498885E+02  0.64963643892E+02  0.00000000000E+00 0.  1.
</event>
<event>
 4    1  0.1560907E+006  0.2577441E+02  0.7546771E-02  0.1460324E+00
         21   -1    0    0  503  502  0.00000000000E+00  0.00000000000E+00  0.77224145971E+02  0.77224145971E+02  0.00000000000E+00 0.  1.
          3   -1    0    0  502    0 -0.00000000000E+00 -0.00000000000E+00 -0.94326519020E+01  0.94326519020E+01  0.00000000000E+00 0.  1.
         21    1    1    2  503  501  0.20485722960E+02 -0.15641464104E+02  0.46749682560E+02  0.53384015060E+02  0.00000000000E+00 0.  1.
          3    1    1    2  501    0 -0.20485722960E+02  0.15641464104E+02  0.21041811510E+02  0.33272782813E+02  0.00000000000E+00 0.  1.
</event>
<event>
 4    1  0.1560907E+006  0.3318581E+02  0.7546771E-02  0.1393787E+00
         -1   -1    0    0    0  501 -0.00000000000E+00  0.00000000000E+00  0.71215134078E+02  0.71215134078E+02  0.00000000000E+00 0. -1.
         21   -1    0    0  503  502  0.00000000000E+00 -0.00000000000E+00 -0.38064441961E+02  0.38064441961E+02  0.00000000000E+00 0. -1.
         21    1    1    2  503  501 -0.23331211746E+02 -0.23599835672E+02 -0.25526788544E+02  0.41867823190E+02  0.00000000000E+00 0. -1.
         -1    1    1    2    0  502  0.23331211746E+02  0.23599835672E+02  0.58677480662E+02  0.67411752849E+02  0.00000000000E+00 0. -1.
</event>
<event>
 4    1  0.1560907E+006  0.2116860E+02  0.7546771E-02  0.1516871E+00
          2   -1    0    0  502    0 -0.00000000000E+00  0.00000000000E+00  0.79293006698E+02  0.79293006698E+02  0.00000000000E+00 0.  1.
         21   -1    0    0  503  502  0.00000000000E+00 -0.00000000000E+00 -0.16629787595E+03  0.16629787595E+03  0.00000000000E+00 0.  1.
         21    1    1    2  503  501 -0.11080144503E+02 -0.18037178613E+02 -0.16419335952E+03  0.16555231416E+03  0.00000000000E+00 0.  1.
          2    1    1    2  501    0  0.11080144503E+02  0.18037178613E+02  0.77188490270E+02  0.80038568482E+02  0.00000000000E+00 0.  1.
</event>
<event>
 4    1  0.1560907E+006  0.2518586E+02  0.7546771E-02  0.1466735E+00
         21   -1    0    0  501  502  0.00000000000E+00  0.00000000000E+00  0.18420822514E+02  0.18420822514E+02  0.00000000000E+00 0. -1.
         -4   -1    0    0    0  501 -0.00000000000E+00 -0.00000000000E+00 -0.11032474325E+03  0.11032474325E+03  0.00000000000E+00 0.  1.
         21    1    1    2  503  502  0.20994964520E+02 -0.13911836440E+02  0.74375972007E+01  0.26261103946E+02  0.00000000000E+00 0. -1.
         -4    1    1    2    0  503 -0.20994964520E+02  0.13911836440E+02 -0.99341517939E+02  0.10248446182E+03  0.00000000000E+00 0.  1.
</event>
<event>
 4    1  0.1560907E+006  0.2058870E+02  0.7546771E-02  0.1525219E+00
          2   -1    0    0  502    0 -0.00000000000E+00  0.00000000000E+00  0.85851052101E+03  0.85851052101E+03  0.00000000000E+00 0. -1.
         21   -1    0    0  503  502  0.00000000000E+00 -0.00000000000E+00 -0.29736677370E+02  0.29736677370E+02  0.00000000000E+00 0. -1.
         21    1    1    2  503  501 -0.20553927689E+02 -0.11960798429E+01 -0.26034069319E+02  0.33191374116E+02  0.00000000000E+00 0. -1.
          2    1    1    2  501    0  0.20553927689E+02  0.11960798429E+01  0.85480791296E+03  0.85505582427E+03  0.00000000000E+00 0. -1.
</event>
<event>
 4    1  0.1560907E+006  0.3018807E+02  0.7546771E-02  0.1417969E+00
          3   -1    0    0  502    0 -0.00000000000E+00  0.00000000000E+00  0.32361931552E+01  0.32361931552E+01  0.00000000000E+00 0.  1.
         21   -1    0    0  503  502  0.00000000000E+00 -0.00000000000E+00 -0.10028449085E+04  0.10028449085E+04  0.00000000000E+00 0.  1.
         21    1    1    2  503  501 -0.28915764817E+02  0.86717020813E+01 -0.92641015772E+03  0.92690188273E+03  0.00000000000E+00 0.  1.
          3    1    1    2  501    0  0.28915764817E+02 -0.86717020813E+01 -0.73198557615E+02  0.79179218920E+02  0.00000000000E+00 0.  1.
</event>
<event>
 4    1  0.1560907E+006  0.5591053E+02  0.7546771E-02  0.1274398E+00
         21   -1    0    0  503  502  0.00000000000E+00  0.00000000000E+00  0.44932892924E+02  0.44932892924E+02  0.00000000000E+00 0. -1.
         -4   -1    0    0    0  501 -0.00000000000E+00 -0.00000000000E+00 -0.14621306584E+03  0.14621306584E+03  0.00000000000E+00 0. -1.
         21    1    1    2  503  501  0.99119751256E+01 -0.55024900264E+02  0.18555455983E+02  0.58909183042E+02  0.00000000000E+00 0. -1.
         -4    1    1    2    0  502 -0.99119751256E+01  0.55024900264E+02 -0.11983562890E+03  0.13223677572E+03  0.00000000000E+00 0. -1.
</event>
<event>
 4    1  0.1560907E+006  0.2076869E+02  0.7546771E-02  0.1522593E+00
          2   -1    0    0  502    0 -0.00000000000E+00  0.00000000000E+00  0.87839828529E+03  0.87839828529E+03  0.00000000000E+00 0. -1.
         21   -1    0    0  503  502  0.00000000000E+00 -0.00000000000E+00 -0.21162219866E+02  0.21162219866E+02  0.00000000000E+00 0. -1.
         21    1    1    2  503  501 -0.15645796345E+01  0.20709672421E+02 -0.15913209650E+02  0.26164263463E+02  0.00000000000E+00 0. -1.
          2    1    1    2  501    0  0.15645796345E+01 -0.20709672421E+02  0.87314927507E+03  0.87339624169E+03  0.00000000000E+00 0. -1.
</event>
<event>
 4    1  0.1560907E+006  0.2128319E+02  0.7546771E-02  0.1515260E+00
         21   -1    0    0  503  502  0.00000000000E+00  0.00000000000E+00  0.40174191136E+00  0.40174191136E+00  0.00000000000E+00 0. -1.
          2   -1    0    0  502    0 -0.00000000000E+00 -0.00000000000E+00 -0.16478861279E+04  0.16478861279E+04  0.00000000000E+00 0.  1.
         21    1    1    2  503  501 -0.14407400233E+02 -0.15665278903E+02 -0.36062405389E+03  0.36125155002E+03  0.00000000000E+00 0. -1.
          2    1    1    2  501    0  0.14407400233E+02  0.15665278903E+02 -0.12868603321E+04  0.12870363198E+04  0.00000000000E+00 0.  1.
</event>
<event>
 4    1  0.1560907E+006  0.2149099E+02  0.7546771E-02  0.1512369E+00
         -1   -1    0    0    0  501 -0.00000000000E+00  0.00000000000E+00  0.87846360904E+02  0.87846360904E+02  0.00000000000E+00 0. -1.
         21   -1    0    0  503  502  0.00000000000E+00 -0.00000000000E+00 -0.74024042412E+01  0.74024042412E+01  0.00000000000E+00 0. -1.
         21    1    1    2  503  501  0.15402010910E+02  0.14988025010E+02  0.14586896569E+02  0.25973840404E+02  0.00000000000E+00 0. -1.
         -1    1    1    2    0  502 -0.15402010910E+02 -0.14988025010E+02  0.65857060093E+02  0.69274924741E+02  0.00000000000E+00 0. -1.
</event>
<event>
 4    1  0.1560907E+006  0.2038568E+02  0.7546771E-02  0.1528219E+00
         21   -1    0    0  503  502  0.00000000000E+00  0.00000000000E+00  0.13350910677E+03  0.13350910677E+03  0.00000000000E+00 0. -1.
         -2   -1    0    0    0  501 -0.00000000000E+00 -0.00000000000E+00 -0.15851210702E+03  0.15851210702E+03  0.00000000000E+00 0. -1.
         21    1    1    2  503  501 -0.46219071604E+01  0.19854824411E+02  0.13206838684E+03  0.13363246192E+03  0.00000000000E+00 0. -1.
         -2    1    1    2    0  502  0.46219071604E+01 -0.19854824411E+02 -0.15707138708E+03  0.15838875187E+03  0.00000000000E+00 0. -1.
</event>
<event>
 4    1  0.1560907E+006  0.2611463E+02  0.7546771E-02  0.1456710E+00
         21   -1    0    0  501  502  0.00000000000E+00  0.00000000000E+00  0.84308521381E+00  0.84308521381E+00  0.00000000000E+00 0. -1.
         -3   -1    0    0    0  501 -0.00000000000E+00 -0.00000000000E+00 -0.87385116775E+03  0.87385116775E+03  0.00000000000E+00 0. -1.
         21    1    1    2  503  502  0.24422463232E+02 -0.92475600740E+01 -0.31727245679E+03  0.31834538777E+03  0.00000000000E+00 0. -1.
         -3    1    1    2    0  503 -0.24422463232E+02  0.92475600740E+01 -0.55573562575E+03  0.55634886520E+03  0.00000000000E+00 0. -1.
</event>
<event>
 4    1  0.1560907E+006  0.2180097E+02  0.7546771E-02  0.1508129E+00
          2   -1    0    0  502    0 -0.00000000000E+00  0.00000000000E+00  0.31693650294E+02  0.31693650294E+02  0.00000000000E+00 0.  1.
         21   -1    0    0  503  502  0.00000000000E+00 -0.00000000000E+00 -0.52082585191E+02  0.52082585191E+02  0.00000000000E+00 0.  1.
         21    1    1    2  503  501 -0.13737620680E+02 -0.16928087374E+02 -0.45541437555E+02  0.50490641693E+02  0.00000000000E+00 0.  1.
          2    1    1    2  501    0  0.13737620680E+02  0.16928087374E+02  0.25152502658E+02  0.33285593792E+02  0.00000000000E+00 0.  1.
</event>
<event>
 4    1  0.1560907E+006  0.2028622E+02  0.7546771E-02  0.1529704E+00
         21   -1    0    0  501  502  0.00000000000E+00  0.00000000000E+00  0.14849214280E+03  0.14849214280E+03  0.00000000000E+00 0. -1.
          3   -1    0    0  503    0 -0.00000000000E+00 -0.00000000000E+00 -0.46617129816E+01  0.46617129816E+01  0.00000000000E+00 0.  1.
         21    1    1    2  503  502 -0.72843781122E+01  0.18933265223E+02  0.12067843353E+03  0.12237162668E+03  0.00000000000E+00 0. -1.
          3    1    1    2  501    0  0.72843781122E+01 -0.18933265223E+02  0.23151996288E+02  0.30782229104E+02  0.00000000000E+00 0.  1.
</event>
<event>
 4    1  0.1560907E+006  0.2132805E+02  0.7546771E-02  0.1514632E+00
         21   -1    0    0  501  502  0.00000000000E+00  0.00000000000E+00  0.37677353686E+02  0.37677353686E+02  0.00000000000E+00 0.  1.
         -4   -1    0    0    0  501 -0.00000000000E+00 -0.00000000000E+00 -0.44304264106E+02  0.44304264106E+02  0.00000000000E+00 0.  1.
         21    1    1    2  503  502  0.13599742668E+02  0.16429633166E+02  0.31648934939E+02  0.38164655499E+02  0.00000000000E+00 0.  1.
         -4    1    1    2    0  503 -0.13599742668E+02 -0.16429633166E+02 -0.38275845359E+02  0.43816962293E+02  0.00000000000E+00 0.  1.
</event>
<event>
 4    1  0.1560907E+006  0.3555177E+02  0.7546771E-02  0.1376725E+00
         21   -1    0    0  501  502  0.00000000000E+00  0.00000000000E+00  0.20033281436E+01  0.20033281436E+01  0.00000000000E+00 0. -1.
          2   -1    0    0  503    0 -0.00000000000E+00 -0.00000000000E+00 -0.15710992231E+04  0.15710992231E+04  0.00000000000E+00 0. -1.
         21    1    1    2  503  502  0.30962975159E+02 -0.17470626528E+02 -0.17608821047E+03  0.17964127167E+03  0.00000000000E+00 0. -1.
          2    1    1    2  501    0 -0.30962975159E+02  0.17470626528E+02 -0.13930076844E+04  0.13934612795E+04  0.00000000000E+00 0. -1.
</event>
<event>
 4    1  0.1560907E+006  0.5118082E+02  0.7546771E-02  0.1293132E+00
         21   -1    0    0  501  502  0.00000000000E+00  0.00000000000E+00  0.11161975592E+04  0.11161975592E+04  0.00000000000E+00 0.  1.
         -4   -1    0    0    0  501 -0.00000000000E+00 -0.00000000000E+00 -0.69391797625E+02  0.69391797625E+02  0.00000000000E+00 0.  1.
         21    1    1    2  503  502  0.21935624654E+02  0.46241805967E+02  0.11060873787E+04  0.11072708637E+04  0.00000000000E+00 0.  1.
         -4    1    1    2    0  503 -0.21935624654E+02 -0.46241805967E+02 -0.59281617091E+02  0.78318493174E+02  0.00000000000E+00 0.  1.
</event>
<event>
 4    1  0.1560907E+006  0.2442869E+02  0.7546771E-02  0.1475297E+00
          1   -1    0    0  502    0 -0.00000000000E+00  0.00000000000E+00  0.15979740323E+04  0.15979740323E+04  0.00000000000E+00 0. -1.
         21   -1    0    0  503  502  0.00000000000E+00 -0.00000000000E+00 -0.49501412931E+01  0.49501412931E+01  0.00000000000E+00 0.  1.
         21    1    1    2  503  501  0.61913751745E+00  0.24420846407E+02  0.25874577267E+02  0.35584474413E+02  0.00000000000E+00 0.  1.
          1    1    1    2  501    0 -0.61913751745E+00 -0.24420846407E+02  0.15671493138E+04  0.15673396992E+04  0.00000000000E+00 0. -1.
</event>
<event>
 4    1  0.1560907E+006  0.2097704E+02  0.7546771E-02  0.1519593E+00
         21   -1    0    0  503  502  0.00000000000E+00  0.00000000000E+00  0.16405530414E+03  0.16405530414E+03  0.00000000000E+00 0.  1.
          3   -1    0    0  502    0 -0.00000000000E+00 -0.00000000000E+00 -0.20559867269E+02  0.20559867269E+02  0.00000000000E+00 0. -1.
         21    1    1    2  503  501 -0.86097729315E+01 -0.19128725947E+02  0.15782372900E+03  0.15921170115E+03  0.00000000000E+00 0.  1.
          3    1    1    2  501    0  0.86097729315E+01  0.19128725947E+02 -0.14328292127E+02  0.25403470266E+02  0.00000000000E+00 0. -1.
</event>
<event>
 4    1  0.1560907E+006  0.6292669E+02  0.7546771E-02  0.1250200E+00
         -1   -1    0    0    0  501 -0.00000000000E+00  0.00000000000E+00  0.20767988610E+03  0.20767988610E+03  0.00000000000E+00 0. -1.
         21   -1    0    0  501  502  0.00000000000E+00 -0.00000000000E+00 -0.28517997740E+03  0.28517997740E+03  0.00000000000E+00 0.  1.
         21    1    1    2  503  502 -0.56731165829E+02 -0.27227624876E+02 -0.27679951559E+03  0.28386218587E+03  0.00000000000E+00 0.  1.
         -1    1    1    2    0  503  0.56731165829E+02  0.27227624876E+02  0.19929942430E+03  0.20899767764E+03  0.00000000000E+00 0. -1.
</event>
<event>
 4    1  0.1560907E+006  0.2312180E+02  0.7546771E-02  0.1490974E+00
         21   -1    0    0  503  502  0.00000000000E+00  0.00000000000E+00  0.47414343586E+01  0.47414343586E+01  0.00000000000E+00 0. -1.
          1   -1    0    0  502    0 -0.00000000000E+00 -0.00000000000E+00 -0.15974009492E+03  0.15974009492E+03  0.00000000000E+00 0. -1.
         21    1    1    2  503  501 -0.12349488241E+02 -0.19547572756E+02 -0.32896427852E+02  0.40209357442E+02  0.00000000000E+00 0. -1.
          1    1    1    2  501    0  0.12349488241E+02  0.19547572756E+02 -0.12210223271E+03  0.12427217183E+03  0.00000000000E+00 0. -1.
</event>
<event>
 4    1  0.1560907E+006  0.2318069E+02  0.7546771E-02  0.1490242E+00
          2   -1    0    0  502    0 -0.00000000000E+00  0.00000000000E+00  0.32146045213E+03  0.32146045213E+03  0.00000000000E+00 0.  1.
         21   -1    0    0  503  502  0.00000000000E+00 -0.00000000000E+00 -0.25394045157E+01  0.25394045157E+01  0.00000000000E+00 0. -1.
         21    1    1    2  503  501  0.10341555174E+02 -0.20746007893E+02  0.64756901268E+02  0.68780817593E+02  0.00000000000E+00 0. -1.
          2    1    1    2  501    0 -0.10341555174E+02  0.20746007893E+02  0.25416414635E+03  0.25521903905E+03  0.00000000000E+00 0.  1.
</event>
<event>
 4    1  0.1560907E+006  0.2387516E+02  0.7546771E-02  0.1481792E+00
          1   -1    0    0  503    0 -0.00000000000E+00  0.00000000000E+00  0.13247218807E+02  0.13247218807E+02  0.00000000000E+00 0. -1.
         21   -1    0    0  501  502  0.00000000000E+00 -0.00000000000E+00 -0.10179995795E+03  0.10179995795E+03  0.00000000000E+00 0. -1.
         21    1    1    2  503  502 -0.23875041255E+02 -0.75049686391E-01 -0.87983384164E+02  0.91165229756E+02  0.00000000000E+00 0. -1.
          1    1    1    2  501    0  0.23875041255E+02  0.75049686391E-01 -0.56935497545E+00  0.23881946999E+02  0.00000000000E+00 0. -1.
</event>
<event>
 4    1  0.1560907E+006  0.2025963E+02  0.7546771E-02  0.1530103E+00
         -2   -1    0    0    0  501 -0.00000000000E+00  0.00000000000E+00  0.27547727313E+03  0.27547727313E+03  0.00000000000E+00 0. -1.
         21   -1    0    0  503  502  0.00000000000E+00 -0.00000000000E+00 -0.22122538835E+01  0.22122538835E+01  0.00000000000E+00 0. -1.
         21    1    1    2  503  501  0.12841864387E+01  0.20218891825E+02  0.57297267910E+02  0.60773593208E+02  0.00000000000E+00 0. -1.
         -2    1    1    2    0  502 -0.12841864387E+01 -0.20218891825E+02  0.21596775134E+03  0.21691593381E+03  0.00000000000E+00 0. -1.
</event>
<event>
 4    1  0.1560907E+006  0.2360250E+02  0.7546771E-02  0.1485068E+00
         21   -1    0    0  501  502  0.00000000000E+00  0.00000000000E+00  0.62851539028E+00  0.62851539028E+00  0.00000000000E+00 0. -1.
          2   -1    0    0  503    0 -0.00000000000E+00 -0.00000000000E+00 -0.13594791060E+04  0.13594791060E+04  0.00000000000E+00 0. -1.
         21    1    1    2  503  502 -0.93189997820E+01 -0.21684890117E+02 -0.27823398650E+03  0.27923328860E+03  0.00000000000E+00 0. -1.
          2    1    1    2  501    0  0.93189997820E+01  0.21684890117E+02 -0.10806166041E+04  0.10808743328E+04  0.00000000000E+00 0. -1.
</event>
<event>
 4    1  0.1560907E+006  0.3019513E+02  0.7546771E-02  0.1417908E+00
         21   -1    0    0  503  502  0.00000000000E+00  0.00000000000E+00  0.40021547300E+02  0.40021547300E+02  0.00000000000E+00 0. -1.
         -3   -1    0    0    0  501 -0.00000000000E+00 -0.00000000000E+00 -0.30196473650E+02  0.30196473650E+02  0.00000000000E+00 0.  1.
         21    1    1    2  503  501  0.10820435795E+02 -0.28189787034E+02  0.22310520033E+02  0.37543377950E+02  0.00000000000E+00 0. -1.
         -3    1    1    2    0  502 -0.10820435795E+02  0.28189787034E+02 -0.12485446383E+02  0.32674643000E+02  0.00000000000E+00 0.  1.
</event>
<event>
 4    1  0.1560907E+006  0.3796528E+02  0.7546771E-02  0.1360840E+00
         -4   -1    0    0    0  501 -0.00000000000E+00  0.00000000000E+00  0.89773843693E+03  0.89773843693E+03  0.00000000000E+00 0.  1.
         21   -1    0    0  503  502  0.00000000000E+00 -0.00000000000E+00 -0.57951254784E+01  0.57951254784E+01  0.00000000000E+00 0. -1.
         21    1    1    2  503  501  0.33386818283E+02  0.18074371487E+02  0.61850733822E+02  0.72573244478E+02  0.00000000000E+00 0. -1.
         -4    1    1    2    0  502 -0.33386818283E+02 -0.18074371487E+02  0.83009257763E+03  0.83096031793E+03  0.00000000000E+00 0.  1.
</event>
<event>
 4    1  0.1560907E+006  0.2790513E+02  0.7546771E-02  0.1438722E+00
         -2   -1    0    0    0  501 -0.00000000000E+00  0.00000000000E+00  0.10673388120E+02  0.10673388120E+02  0.00000000000E+00 0.  1.
         21   -1    0    0  503  502  0.00000000000E+00 -0.00000000000E+00 -0.73030225833E+02  0.73030225833E+02  0.00000000000E+00 0.  1.
         21    1    1    2  503  501 -0.15160665295E+02 -0.23427557946E+02 -0.29851369644E+02  0.40863192645E+02  0.00000000000E+00 0.  1.
         -2    1    1    2    0  502  0.15160665295E+02  0.23427557946E+02 -0.32505468069E+02  0.42840421308E+02  0.00000000000E+00 0.  1.
</event>
<event>
 4    1  0.1560907E+006  0.2309023E+02  0.7546771E-02  0.1491368E+00
         -1   -1    0    0    0  501 -0.00000000000E+00  0.00000000000E+00  0.88637308412E+01  0.88637308412E+01  0.00000000000E+00 0. -1.
         21   -1    0    0  501  502  0.00000000000E+00 -0.00000000000E+00 -0.27841348166E+03  0.27841348166E+03  0.00000000000E+00 0.  1.
         21    1    1    2  503  502 -0.19252962946E+02 -0.12746841897E+02 -0.26195405321E+03  0.26296974076E+03  0.00000000000E+00 0.  1.
         -1    1    1    2    0  503  0.19252962946E+02  0.12746841897E+02 -0.75956976121E+01  0.24307471748E+02  0.00000000000E+00 0. -1.
</event>
<event>
 4    1  0.1560907E+006  0.2194575E+02  0.7546771E-02  0.1506178E+00
         21   -1    0    0  503  502  0.00000000000E+00  0.00000000000E+00  0.14824323294E+01  0.14824323294E+01  0.00000000000E+00 0.  1.
          1   -1    0    0  502    0 -0.00000000000E+00 -0.00000000000E+00 -0.16855862971E+04  0.16855862971E+04  0.00000000000E+00 0.  1.
         21    1    1    2  503  501 -0.21546151213E+02 -0.41688412792E+01 -0.84156777075E+02  0.86971138876E+02  0.00000000000E+00 0.  1.
          1    1    1    2  501    0  0.21546151213E+02  0.41688412792E+01 -0.15999470877E+04  0.16000975905E+04  0.00000000000E+00 0.  1.
</event>
<event>
 4    1  0.1560907E+006  0.3784690E+02  0.7546771E-02  0.1361587E+00
          3   -1    0    0  503    0 -0.00000000000E+00  0.00000000000E+00  0.62780661258E+03  0.62780661258E+03  0.00000000000E+00 0.  1.
         21   -1    0    0  501  502  0.00000000000E+00 -0.00000000000E+00 -0.27022474539E+01  0.27022474539E+01  0.00000000000E+00 0.  1.
         21    1    1    2  503  502  0.30705821382E+02  0.22125567422E+02  0.18816649608E+03  0.19193493285E+03  0.00000000000E+00 0.  1.
          3    1    1    2  501    0 -0.30705821382E+02 -0.22125567422E+02  0.43693786904E+03  0.43857392718E+03  0.00000000000E+00 0.  1.
</event>
<event>
 4    1  0.1560907E+006  0.2022007E+02  0.7546771E-02  0.1530698E+00
         -3   -1    0    0    0  501 -0.00000000000E+00  0.00000000000E+00  0.11401826582E+03  0.11401826582E+03  0.00000000000E+00 0. -1.
         21   -1    0    0  503  502  0.00000000000E+00 -0.00000000000E+00 -0.86750086391E+01  0.86750086391E+01  0.00000000000E+00 0.  1.
         21    1    1    2  503  501 -0.18452949436E+02 -0.82667938111E+01  0.56844640732E+01  0.21003912840E+02  0.00000000000E+00 0.  1.
         -3    1    1    2    0  502  0.18452949436E+02  0.82667938111E+01  0.99658793108E+02  0.10168936162E+03  0.00000000000E+00 0. -1.
</event>
<event>
 4    1  0.1560907E+006  0.2039457E+02  0.7546771E-02  0.1528087E+00
         -3   -1    0    0    0  501 -0.00000000000E+00  0.00000000000E+00  0.60674634252E+01  0.60674634252E+01  0.00000000000E+00 0.  1.
         21   -1    0    0  503  502  0.00000000000E+00 -0.00000000000E+00 -0.47333619787E+03  0.47333619787E+03  0.00000000000E+00 0. -1.
         21    1    1    2  503  501  0.13638918042E+02  0.15163066144E+02 -0.45529986385E+03  0.45575640937E+03  0.00000000000E+00 0. -1.
         -3    1    1    2    0  502 -0.13638918042E+02 -0.15163066144E+02 -0.11968870593E+02  0.23647251923E+02  0.00000000000E+00 0.  1.
</event>
<event>
 4    1  0.1560907E+006  0.2745173E+02  0.7546771E-02  0.1443122E+00
          2   -1    0    0  502    0 -0.00000000000E+00  0.00000000000E+00  0.37278703547E+01  0.37278703547E+01  0.00000000000E+00 0. -1.
         21   -1    0    0  503  502  0.00000000000E+00 -0.00000000000E+00 -0.24966644466E+03  0.24966644466E+03  0.00000000000E+00 0. -1.
         21    1    1    2  503  501  0.25016958748E+02 -0.11302622367E+02 -0.17824041483E+03  0.18034201667E+03  0.00000000000E+00 0. -1.
          2    1    1    2  501    0 -0.25016958748E+02  0.11302622367E+02 -0.67698159478E+02  0.73052298349E+02  0.00000000000E+00 0. -1.
</event>
<event>
 4    1  0.1560907E+006  0.2151661E+02  0.7546771E-02  0.1512015E+00
         21   -1    0    0  503  502  0.00000000000E+00  0.00000000000E+00  0.93248493526E+02  0.93248493526E+02  0.00000000000E+00 0. -1.
         -2   -1    0    0    0  501 -0.00000000000E+00 -0.00000000000E+00 -0.23145193485E+02  0.23145193485E+02  0.00000000000E+00 0.  1.
         21    1    1    2  503  501 -0.21268905729E+02  0.32554942411E+01  0.86630313981E+02  0.89262399105E+02  0.00000000000E+00 0. -1.
         -2    1    1    2    0  502  0.21268905729E+02 -0.32554942411E+01 -0.16527013939E+02  0.27131287905E+02  0.00000000000E+00 0.  1.
</event>
<event>
 4    1  0.1560907E+006  0.3123341E+02  0.7546771E-02  0.1409172E+00
          2   -1    0    0  503    0 -0.00000000000E+00  0.00000000000E+00  0.27040950643E+03  0.27040950643E+03  0.00000000000E+00 0.  1.
         21   -1    0    0  501  502  0.00000000000E+00 -0.00000000000E+00 -0.23569241795E+02  0.23569241795E+02  0.00000000000E+00 0.  1.
         21    1    1    2  503  502  0.17949726934E+02 -0.25560388082E+02 -0.11852952045E+02  0.33406864685E+02  0.00000000000E+00 0.  1.
          2    1    1    2  501    0 -0.17949726934E+02  0.25560388082E+02  0.25869321668E+03  0.26057188354E+03  0.00000000000E+00 0.  1.
</event>
<event>
 4    1  0.1560907E+006  0.2850440E+02  0.7546771E-02  0.1433055E+00
         21   -1    0    0  503  502  0.00000000000E+00  0.00000000000E+00  0.13744591328E+03  0.13744591328E+03  0.00000000000E+00 0.  1.
          1   -1    0    0  502    0 -0.00000000000E+00 -0.00000000000E+00 -0.72944283374E+02  0.72944283374E+02  0.00000000000E+00 0.  1.
         21    1    1    2  503  501  0.18836722595E+02 -0.21393424790E+02  0.13309334965E+03  0.13611150011E+03  0.00000000000E+00 0.  1.
          1    1    1    2  501    0 -0.18836722595E+02  0.21393424790E+02 -0.68591719743E+02  0.74278696540E+02  0.00000000000E+00 0.  1.
</event>
<event>
 4    1  0.1560907E+006  0.2159200E+02  0.7546771E-02  0.1510978E+00
         21   -1    0    0  503  502  0.00000000000E+00  0.00000000000E+00  0.33399704538E+02  0.33399704538E+02  0.00000000000E+00 0. -1.
         -3   -1    0    0    0  501 -0.00000000000E+00 -0.00000000000E+00 -0.36826012883E+02  0.36826012883E+02  0.00000000000E+00 0. -1.
         21    1    1    2  503  501 -0.11889196438E+02 -0.18023919749E+02  0.25956065534E+02  0.33762879218E+02  0.00000000000E+00 0. -1.
         -3    1    1    2    0  502  0.11889196438E+02  0.18023919749E+02 -0.29382373879E+02  0.36462838203E+02  0.00000000000E+00 0. -1.
</event>
<event>
 4    1  0.1560907E+006  0.3411473E+02  0.7546771E-02  0.1386896E+00
          2   -1    0    0  503    0 -0.00000000000E+00  0.00000000000E+00  0.99667404769E+03  0.99667404769E+03  0.00000000000E+00 0. -1.
         21   -1    0    0  501  502  0.00000000000E+00 -0.00000000000E+00 -0.17380314332E+01  0.17380314332E+01  0.00000000000E+00 0. -1.
         21    1    1    2  503  502 -0.24604151014E+02 -0.23631554486E+02  0.21150140941E+03  0.21423505968E+03  0.00000000000E+00 0. -1.
          2    1    1    2  501    0  0.24604151014E+02  0.23631554486E+02  0.78343460684E+03  0.78417701944E+03  0.00000000000E+00 0. -1.
</event>
<event>
 4    1  0.1560907E+006  0.4693224E+02  0.7546771E-02  0.1312051E+00
          1   -1    0    0  503    0 -0.00000000000E+00  0.00000000000E+00  0.24120189836E+01  0.24120189836E+01  0.00000000000E+00 0. -1.
         21   -1    0    0  501  502  0.00000000000E+00 -0.00000000000E+00 -0.13486561229E+04  0.13486561229E+04  0.00000000000E+00 0. -1.
         21    1    1    2  503  502  0.28144956498E+02 -0.37556577327E+02 -0.10569822786E+04  0.10580237107E+04  0.00000000000E+00 0. -1.
          1    1    1    2  501    0 -0.28144956498E+02  0.37556577327E+02 -0.28926182531E+03  0.29304443120E+03  0.00000000000E+00 0. -1.
</event>
<event>
 4    1  0.1560907E+006  0.2118261E+02  0.7546771E-02  0.1516673E+00
          2   -1    0    0  502    0 -0.00000000000E+00  0.00000000000E+00  0.23404223514E+02  0.23404223514E+02  0.00000000000E+00 0.  1.
         21   -1    0    0  503  502  0.00000000000E+00 -0.00000000000E+00 -0.27608642633E+02  0.27608642633E+02  0.00000000000E+00 0. -1.
         21    1    1    2  503  501  0.19256601462E+02  0.88253262033E+01 -0.16202075628E+02  0.26668527089E+02  0.00000000000E+00 0. -1.
          2    1    1    2  501    0 -0.19256601462E+02 -0.88253262033E+01  0.11997656509E+02  0.24344339058E+02  0.00000000000E+00 0.  1.
</event>
<event>
 4    1  0.1560907E+006  0.2581122E+02  0.7546771E-02  0.1459929E+00
          2   -1    0    0  502    0 -0.00000000000E+00  0.00000000000E+00  0.10223225100E+04  0.10223225100E+04  0.00000000000E+00 0. -1.
         21   -1    0    0  503  502  0.00000000000E+00 -0.00000000000E+00 -0.14511031490E+01  0.14511031490E+01  0.00000000000E+00 0.  1.
         21    1    1    2  503  501  0.22751621779E+02 -0.12189463431E+02  0.13049551664E+03  0.13302367900E+03  0.00000000000E+00 0.  1.
          2    1    1    2  501    0 -0.22751621779E+02  0.12189463431E+02  0.89037589023E+03  0.89074993417E+03  0.00000000000E+00 0. -1.
</event>
<event>
 4    1  0.1560907E+006  0.2011030E+02  0.7546771E-02  0.1532356E+00
          2   -1    0    0  502    0 -0.00000000000E+00  0.00000000000E+00  0.78744831262E+02  0.78744831262E+02  0.00000000000E+00 0. -1.
         21   -1    0    0  503  502  0.00000000000E+00 -0.00000000000E+00 -0.66152067945E+02  0.66152067945E+02  0.00000000000E+00 0. -1.
         21    1    1    2  503  501  0.12025347119E+02 -0.16118783197E+02 -0.63282895505E+02  0.66401423242E+02  0.00000000000E+00 0. -1.
          2    1    1    2  501    0 -0.12025347119E+02  0.16118783197E+02  0.75875658822E+02  0.78495475964E+02  0.00000000000E+00 0. -1.
</event>
<event>
 4    1  0.1560907E+006  0.2594928E+02  0.7546771E-02  0.1458458E+00
         21   -1    0    0  501  502  0.00000000000E+00  0.00000000000E+00  0.37094910686E+01  0.37094910686E+01  0.00000000000E+00 0. -1.
          1   -1    0    0  503    0 -0.00000000000E+00 -0.00000000000E+00 -0.18450969574E+03  0.18450969574E+03  0.00000000000E+00 0. -1.
         21    1    1    2  503  502  0.17959229470E+02 -0.18730492039E+02 -0.78430588489E+02  0.82611878480E+02  0.00000000000E+00 0. -1.
          1    1    1    2  501    0 -0.17959229470E+02  0.18730492039E+02 -0.10236961618E+03  0.10560730833E+03  0.00000000000E+00 0. -1.
</event>
<event>
 4    1  0.1560907E+006  0.3696970E+02  0.7546771E-02  0.1367221E+00
         21   -1    0    0  503  502  0.00000000000E+00  0.00000000000E+00  0.21104301655E+02  0.21104301655E+02  0.00000000000E+00 0. -1.
         -1   -1    0    0    0  501 -0.00000000000E+00 -0.00000000000E+00 -0.70095112521E+03  0.70095112521E+03  0.00000000000E+00 0. -1.
         21    1    1    2  503  501 -0.42380264058E+01  0.36725985610E+02  0.40221887779E+01  0.37187859436E+02  0.00000000000E+00 0. -1.
         -1    1    1    2    0  502  0.42380264058E+01 -0.36725985610E+02 -0.68386901234E+03  0.68486756743E+03  0.00000000000E+00 0. -1.
</event>
<event>
 4    1  0.1560907E+006  0.3727041E+02  0.7546771E-02  0.1365269E+00
          1   -1    0    0  502    0 -0.00000000000E+00  0.00000000000E+00  0.13133765756E+03  0.13133765756E+03  0.00000000000E+00 0.  1.
         21   -1    0    0  503  502  0.00000000000E+00 -0.00000000000E+00 -0.44640763004E+02  0.44640763004E+02  0.00000000000E+00 0.  1.
         21    1    1    2  503  501 -0.37074808930E+02  0.38133522656E+01 -0.33513889004E+02  0.50122488654E+02  0.00000000000E+00 0.  1.
          1    1    1    2  501    0  0.37074808930E+02 -0.38133522656E+01  0.12021078356E+03  0.12585593191E+03  0.00000000000E+00 0.  1.
</event>
<event>
 4    1  0.1560907E+006  0.2006644E+02  0.7546771E-02  0.1533022E+00
         21   -1    0    0  501  502  0.00000000000E+00  0.00000000000E+00  0.15037737409E+03  0.15037737409E+03  0.00000000000E+00 0.  1.
          3   -1    0    0  503    0 -0.00000000000E+00 -0.00000000000E+00 -0.26355353475E+02  0.26355353475E+02  0.00000000000E+00 0.  1.
         21    1    1    2  503  502 -0.19817615561E+02 -0.31502528994E+01  0.14576820179E+03  0.14714289189E+03  0.00000000000E+00 0.  1.
          3    1    1    2  501    0  0.19817615561E+02  0.31502528994E+01 -0.21746181175E+02  0.29589835679E+02  0.00000000000E+00 0.  1.
</event>
<event>
 4    1  0.1560907E+006  0.2521653E+02  0.7546771E-02  0.1466396E+00
          2   -1    0    0  503    0 -0.00000000000E+00  0.00000000000E+00  0.23608587515E+02  0.23608587515E+02  0.00000000000E+00 0. -1.
         21   -1    0    0  501  502  0.00000000000E+00 -0.00000000000E+00 -0.12863612216E+03  0.12863612216E+03  0.00000000000E+00 0. -1.
         21    1    1    2  503  502 -0.14416656448E+02  0.20688967831E+02 -0.12019928920E+03  0.12281588862E+03  0.00000000000E+00 0. -1.
          2    1    1    2  501    0  0.14416656448E+02 -0.20688967831E+02  0.15171754549E+02  0.29428821062E+02  0.00000000000E+00 0. -1.
</event>
<event>
 4    1  0.1560907E+006  0.2263793E+02  0.7546771E-02  0.1497095E+00
          2   -1    0    0  503    0 -0.00000000000E+00  0.00000000000E+00  0.37694298724E+03  0.37694298724E+03  0.00000000000E+00 0. -1.
         21   -1    0    0  501  502  0.00000000000E+00 -0.00000000000E+00 -0.15558383714E+01  0.15558383714E+01  0.00000000000E+00 0. -1.
         21    1    1    2  503  502 -0.36937130066E+01  0.22334550451E+02  0.25491245987E+03  0.25591568506E+03  0.00000000000E+00 0. -1.
          2    1    1    2  501    0  0.36937130066E+01 -0.22334550451E+02  0.12047468900E+03  0.12258314056E+03  0.00000000000E+00 0. -1.
</event>
<event>
 4    1  0.1560907E+006  0.2612139E+02  0.7546771E-02  0.1456639E+00
         21   -1    0    0  503  502  0.00000000000E+00  0.00000000000E+00  0.80763831543E+03  0.80763831543E+03  0.00000000000E+00 0.  1.
          2   -1    0    0  502    0 -0.00000000000E+00 -0.00000000000E+00 -0.11957461608E+01  0.11957461608E+01  0.00000000000E+00 0. -1.
         21    1    1    2  503  501 -0.16373587585E+02  0.20352700388E+02  0.62230201851E+03  0.62285000524E+03  0.00000000000E+00 0.  1.
          2    1    1    2  501    0  0.16373587585E+02 -0.20352700388E+02  0.18414055076E+03  0.18598405635E+03  0.00000000000E+00 0. -1.
</event>
<event>
 4    1  0.1560907E+006  0.2762931E+02  0.7546771E-02  0.1441387E+00
         21   -1    0    0  501  502  0.00000000000E+00  0.00000000000E+00  0.50723990378E+00  0.50723990378E+00  0.00000000000E+00 0. -1.
          1   -1    0    0  503    0 -0.00000000000E+00 -0.00000000000E+00 -0.15152442591E+04  0.15152442591E+04  0.00000000000E+00 0. -1.
         21    1    1    2  503  502 -0.96979434728E+01  0.25871382274E+02 -0.69494787820E+03  0.69549689571E+03  0.00000000000E+00 0. -1.
          1    1    1    2  501    0  0.96979434728E+01 -0.25871382274E+02 -0.81978914098E+03  0.82025460328E+03  0.00000000000E+00 0. -1.
</event>
<event>
 4    1  0.1560907E+006  0.2249419E+02  0.7546771E-02  0.1498949E+00
          1   -1    0    0  502    0 -0.00000000000E+00  0.00000000000E+00  0.51415512486E+02  0.51415512486E+02  0.00000000000E+00 0. -1.
         21   -1    0    0  503  502  0.00000000000E+00 -0.00000000000E+00 -0.11431427428E+04  0.11431427428E+04  0.00000000000E+00 0. -1.
         21    1    1    2  503  501 -0.14524502657E+02  0.17176359928E+02 -0.11405662371E+04  0.11407880302E+04  0.00000000000E+00 0. -1.
          1    1    1    2  501    0  0.14524502657E+02 -0.17176359928E+02  0.48839006833E+02  0.53770225090E+02  0.00000000000E+00 0. -1.
</event>
<event>
 4    1  0.1560907E+006  0.2698237E+02  0.7546771E-02  0.1447785E+00
          2   -1    0    0  502    0 -0.00000000000E+00  0.00000000000E+00  0.18343997803E+04  0.18343997803E+04  0.00000000000E+00 0. -1.
         21   -1    0    0  503  502  0.00000000000E+00 -0.00000000000E+00 -0.47887453795E+00  0.47887453795E+00  0.00000000000E+00 0. -1.
         21    1    1    2  503  501 -0.29379666554E+01  0.26821941834E+02  0.53734651038E+03  0.53802353149E+03  0.00000000000E+00 0. -1.
          2    1    1    2  501    0  0.29379666554E+01 -0.26821941834E+02  0.12965743954E+04  0.12968551234E+04  0.00000000000E+00 0. -1.
</event>
<event>
 4    1  0.1560907E+006  0.2195379E+02  0.7546771E-02  0.1506071E+00
         -1   -1    0    0    0  501 -0.00000000000E+00  0.00000000000E+00  0.68045203404E+01  0.68045203404E+01  0.00000000000E+00 0. -1.
         21   -1    0    0  501  502  0.00000000000E+00 -0.00000000000E+00 -0.10362829455E+03  0.10362829455E+03  0.00000000000E+00 0. -1.
         21    1    1    2  503  502  0.10286812389E+02  0.19394598502E+02 -0.79475355615E+02  0.82451810837E+02  0.00000000000E+00 0. -1.
         -1    1    1    2    0  503 -0.10286812389E+02 -0.19394598502E+02 -0.17348418599E+02  0.27981004058E+02  0.00000000000E+00 0. -1.
</event>
<event>
 4    1  0.1560907E+006  0.3515414E+02  0.7546771E-02  0.1379483E+00
          2   -1    0    0  503    0 -0.00000000000E+00  0.00000000000E+00  0.22393607273E+04  0.22393607273E+04  0.00000000000E+00 0. -1.
         21   -1    0    0  501  502  0.00000000000E+00 -0.00000000000E+00 -0.95816796755E+00  0.95816796755E+00  0.00000000000E+00 0.  1.
         21    1    1    2  503  502 -0.14335840019E+02 -0.32098243779E+02  0.38976610306E+03  0.39134821918E+03  0.00000000000E+00 0.  1.
          2    1    1    2  501    0  0.14335840019E+02  0.32098243779E+02  0.18486364563E+04  0.18489706761E+04  0.00000000000E+00 0. -1.
</event>
<event>
 4    1  0.1560907E+006  0.2111575E+02  0.7546771E-02  0.1517619E+00
         21   -1    0    0  501  502  0.00000000000E+00  0.00000000000E+00  0.40785925838E+03  0.40785925838E+03  0.00000000000E+00 0. -1.
          3   -1    0    0  503    0 -0.00000000000E+00 -0.00000000000E+00 -0.19470160788E+01  0.19470160788E+01  0.00000000000E+00 0.  1.
         21    1    1    2  503  502 -0.16783672718E+02  0.12813392806E+02  0.33864496912E+03  0.33930265224E+03  0.00000000000E+00 0. -1.
          3    1    1    2  501    0  0.16783672718E+02 -0.12813392806E+02  0.67267273186E+02  0.70503622226E+02  0.00000000000E+00 0.  1.
</event>
<event>
 4    1  0.1560907E+006  0.2313570E+02  0.7546771E-02  0.1490801E+00
          4   -1    0    0  503    0 -0.00000000000E+00  0.00000000000E+00  0.89125073095E+01  0.89125073095E+01  0.00000000000E+00 0.  1.
         21   -1    0    0  501  502  0.00000000000E+00 -0.00000000000E+00 -0.79184641448E+03  0.79184641448E+03  0.00000000000E+00 0.  1.
         21    1    1    2  503  502 -0.42956924865E+01  0.22733407338E+02 -0.77636375061E+03  0.77670839705E+03  0.00000000000E+00 0.  1.
          4    1    1    2  501    0  0.42956924865E+01 -0.22733407338E+02 -0.65701565611E+01  0.24050524742E+02  0.00000000000E+00 0.  1.
</event>
<event>
 4    1  0.1560907E+006  0.2177116E+02  0.7546771E-02  0.1508533E+00
         -3   -1    0    0    0  501 -0.00000000000E+00  0.00000000000E+00  0.42877175511E+02  0.42877175511E+02  0.00000000000E+00 0.  1.
         21   -1    0    0  501  502  0.00000000000E+00 -0.00000000000E+00 -0.27549220602E+02  0.27549220602E+02  0.00000000000E+00 0.  1.
         21    1    1    2  503  502  0.96360509724E+01 -0.19522550230E+02 -0.19583355343E+02  0.29282951564E+02  0.00000000000E+00 0.  1.
         -3    1    1    2    0  503 -0.96360509724E+01  0.19522550230E+02  0.34911310252E+02  0.41143444549E+02  0.00000000000E+00 0.  1.
</event>
<event>
 4    1  0.1560907E+006  0.3189873E+02  0.7546771E-02  0.1403784E+00
         21   -1    0    0  501  502  0.00000000000E+00  0.00000000000E+00  0.86173152095E+01  0.86173152095E+01  0.00000000000E+00 0.  1.
         -1   -1    0    0    0  501 -0.00000000000E+00 -0.00000000000E+00 -0.17834284407E+03  0.17834284407E+03  0.00000000000E+00 0. -1.
         21    1    1    2  503  502 -0.29864708950E+01  0.31758617235E+02 -0.30523014954E+02  0.44149555139E+02  0.00000000000E+00 0.  1.
         -1    1    1    2    0  503  0.29864708950E+01 -0.31758617235E+02 -0.13920251390E+03  0.14281060414E+03  0.00000000000E+00 0. -1.
</event>
<event>
 4    1  0.1560907E+006  0.2791894E+02  0.7546771E-02  0.1438589E+00
          1   -1    0    0  503    0 -0.00000000000E+00  0.00000000000E+00  0.19110550006E+04  0.19110550006E+04  0.00000000000E+00 0.  1.
         21   -1    0    0  501  502  0.00000000000E+00 -0.00000000000E+00 -0.91038005494E+00  0.91038005494E+00  0.00000000000E+00 0.  1.
         21    1    1    2  503  502  0.23197909937E+02  0.15534605526E+02  0.24482448767E+03  0.24641123505E+03  0.00000000000E+00 0.  1.
          1    1    1    2  501    0 -0.23197909937E+02 -0.15534605526E+02  0.16653201329E+04  0.16655541456E+04  0.00000000000E+00 0.  1.
</event>
<event>
 4    1  0.1560907E+006  0.4221763E+02  0.7546771E-02  0.1335959E+00
          2   -1    0    0  503    0 -0.00000000000E+00  0.00000000000E+00  0.89737925196E+02  0.89737925196E+02  0.00000000000E+00 0. -1.
         21   -1    0    0  501  502  0.00000000000E+00 -0.00000000000E+00 -0.23716432750E+02  0.23716432750E+02  0.00000000000E+00 0.  1.
         21    1    1    2  503  502  0.40101868879E+02 -0.13197300669E+02  0.10140247228E+02  0.43418351494E+02  0.00000000000E+00 0.  1.
          2    1    1    2  501    0 -0.40101868879E+02  0.13197300669E+02  0.55881245219E+02  0.70036006452E+02  0.00000000000E+00 0. -1.
</event>
<event>
 4    1  0.1560907E+006  0.2113925E+02  0.7546771E-02  0.1517286E+00
         21   -1    0    0  501  502  0.00000000000E+00  0.00000000000E+00  0.58010806651E+02  0.58010806651E+02  0.00000000000E+00 0.  1.
         -2   -1    0    0    0  501 -0.00000000000E+00 -0.00000000000E+00 -0.13152954382E+02  0.13152954382E+02  0.00000000000E+00 0. -1.
         21    1    1    2  503  502  0.34942756328E+01  0.20848450426E+02  0.45332665368E+02  0.50019180289E+02  0.00000000000E+00 0.  1.
         -2    1    1    2    0  503 -0.34942756328E+01 -0.20848450426E+02 -0.47481309874E+00  0.21144580744E+02  0.00000000000E+00 0. -1.
</event>
<event>
 4    1  0.1560907E+006  0.3249045E+02  0.7546771E-02  0.1399120E+00
         21   -1    0    0  503  502  0.00000000000E+00  0.00000000000E+00  0.77361227807E+01  0.77361227807E+01  0.00000000000E+00 0. -1.
          2   -1    0    0  502    0 -0.00000000000E+00 -0.00000000000E+00 -0.12538771081E+04  0.12538771081E+04  0.00000000000E+00 0. -1.
         21    1    1    2  503  501  0.29759455502E+02  0.13038567142E+02 -0.27576392803E+02  0.42615570687E+02  0.00000000000E+00 0. -1.
          2    1    1    2  501    0 -0.29759455502E+02 -0.13038567142E+02 -0.12185645925E+04  0.12189976602E+04  0.00000000000E+00 0. -1.
</event>
<event>
 4    1  0.1560907E+006  0.3812576E+02  0.7546771E-02  0.1359833E+00
         21   -1    0    0  501  502  0.00000000000E+00  0.00000000000E+00  0.34980135918E+02  0.34980135918E+02  0.00000000000E+00 0. -1.
          1   -1    0    0  503    0 -0.00000000000E+00 -0.00000000000E+00 -0.22075857422E+04  0.22075857422E+04  0.00000000000E+00 0. -1.
         21    1    1    2  503  502 -0.23527664300E+02  0.30000380559E+02  0.24376823897E+02  0.45252661407E+02  0.00000000000E+00 0. -1.
          1    1    1    2  501    0  0.23527664300E+02 -0.30000380559E+02 -0.21969824302E+04  0.21973132167E+04  0.00000000000E+00 0. -1.
</event>
<event>
 4    1  0.1560907E+006  0.2516754E+02  0.7546771E-02  0.1466938E+00
         -2   -1    0    0    0  501 -0.00000000000E+00  0.00000000000E+00  0.30854613754E+01  0.30854613754E+01  0.00000000000E+00 0.  1.
         21   -1    0    0  501  502  0.00000000000E+00 -0.00000000000E+00 -0.40810417235E+03  0.40810417235E+03  0.00000000000E+00 0.  1.
         21    1    1    2  503  502  0.24714434922E+02  0.47541096999E+01 -0.34744629788E+03  0.34835662009E+03  0.00000000000E+00 0.  1.
         -2    1    1    2    0  503 -0.24714434922E+02 -0.47541096999E+01 -0.57572413099E+02  0.62833013636E+02  0.00000000000E+00 0.  1.
</event>
<event>
 4    1  0.1560907E+006  0.4447885E+02  0.7546771E-02  0.1324066E+00
         21   -1    0    0  501  502  0.00000000000E+00  0.00000000000E+00  0.43100744552E+01  0.43100744552E+01  0.00000000000E+00 0.  1.
          1   -1    0    0  503    0 -0.00000000000E+00 -0.00000000000E+00 -0.11843406717E+04  0.11843406717E+04  0.00000000000E+00 0.  1.
         21    1    1    2  503  502  0.29120185233E+02 -0.33621163074E+02 -0.12490716422E+03  0.13259022387E+03  0.00000000000E+00 0.  1.
          1    1    1    2  501    0 -0.29120185233E+02  0.33621163074E+02 -0.10551234330E+04  0.10560605223E+04  0.00000000000E+00 0.  1.
</event>
<event>
 4    1  0.1560907E+006  0.6433249E+02  0.7546771E-02  0.1245783E+00
         21   -1    0    0  503  502  0.00000000000E+00  0.00000000000E+00  0.19451500577E+03  0.19451500577E+03  0.00000000000E+00 0.  1.
          4   -1    0    0  502    0 -0.00000000000E+00 -0.00000000000E+00 -0.11211707243E+03  0.11211707243E+03  0.00000000000E+00 0. -1.
         21    1    1    2  503  501 -0.58819373827E+02 -0.26056687283E+02  0.17920268015E+03  0.19040028955E+03  0.00000000000E+00 0.  1.
          4    1    1    2  501    0  0.58819373827E+02  0.26056687283E+02 -0.96804746806E+02  0.11623178865E+03  0.00000000000E+00 0. -1.
</event>
<event>
 4    1  0.1560907E+006  0.2283625E+02  0.7546771E-02  0.1494565E+00
          4   -1    0    0  502    0 -0.00000000000E+00  0.00000000000E+00  0.12795584200E+01  0.12795584200E+01  0.00000000000E+00 0.  1.
         21   -1    0    0  503  502  0.00000000000E+00 -0.00000000000E+00 -0.59784535842E+03  0.59784535842E+03  0.00000000000E+00 0.  1.
         21    1    1    2  503  501 -0.18013891318E+02 -0.14035450898E+02 -0.46728730340E+03  0.46784497228E+03  0.00000000000E+00 0.  1.
          4    1    1    2  501    0  0.18013891318E+02  0.14035450898E+02 -0.12927849660E+03  0.13127994456E+03  0.00000000000E+00 0.  1.
</event>
<event>
 4    1  0.1560907E+006  0.2440135E+02  0.7546771E-02  0.1475613E+00
         21   -1    0    0  501  502  0.00000000000E+00  0.00000000000E+00  0.23406406029E+02  0.23406406029E+02  0.00000000000E+00 0. -1.
         -1   -1    0    0    0  501 -0.00000000000E+00 -0.00000000000E+00 -0.42348260678E+02  0.42348260678E+02  0.00000000000E+00 0.  1.
         21    1    1    2  503  502 -0.20564739500E+02 -0.13134581876E+02  0.11304333688E+02  0.26892633041E+02  0.00000000000E+00 0. -1.
         -1    1    1    2    0  503  0.20564739500E+02  0.13134581876E+02 -0.30246188337E+02  0.38862033666E+02  0.00000000000E+00 0.  1.
</event>
<event>
 4    1  0.1560907E+006  0.2254960E+02  0.7546771E-02  0.1498233E+00
          1   -1    0    0  503    0 -0.00000000000E+00  0.00000000000E+00  0.22746659436E+02  0.22746659436E+02  0.00000000000E+00 0. -1.
         21   -1    0    0  501  502  0.00000000000E+00 -0.00000000000E+00 -0.39876207731E+02  0.39876207731E+02  0.00000000000E+00 0. -1.
         21    1    1    2  503  502 -0.69529902839E+01 -0.21450881805E+02 -0.29320474872E+02  0.36988844951E+02  0.00000000000E+00 0. -1.
          1    1    1    2  501    0  0.69529902839E+01  0.21450881805E+02  0.12190926577E+02  0.25634022215E+02  0.00000000000E+00 0. -1.
</event>
<event>
 4    1  0.1560907E+006  0.2115645E+02  0.7546771E-02  0.1517043E+00
         21   -1    0    0  501  502  0.00000000000E+00  0.00000000000E+00  0.37341776693E+00  0.37341776693E+00  0.00000000000E+00 0.  1.
          4   -1    0    0  503    0 -0.00000000000E+00 -0.00000000000E+00 -0.14174979081E+04  0.14174979081E+04  0.00000000000E+00 0.  1.
         21    1    1    2  503  502 -0.15339287280E+01  0.21100771091E+02 -0.43000054594E+03  0.43052069054E+03  0.00000000000E+00 0.  1.
          4    1    1    2  501    0  0.15339287280E+01 -0.21100771091E+02 -0.98712394443E+03  0.98735063536E+03  0.00000000000E+00 0.  1.
</event>
<event>
 4    1  0.1560907E+006  0.2180036E+02  0.7546771E-02  0.1508138E+00
          1   -1    0    0  502    0 -0.00000000000E+00  0.00000000000E+00  0.22347310197E+03  0.22347310197E+03  0.00000000000E+00 0.  1.
         21   -1    0    0  503  502  0.00000000000E+00 -0.00000000000E+00 -0.22336628104E+01  0.22336628104E+01  0.00000000000E+00 0. -1.
         21    1    1    2  503  501 -0.20941874623E+02  0.60575354329E+01  0.85921700423E+02  0.88644201456E+02  0.00000000000E+00 0. -1.
          1    1    1    2  501    0  0.20941874623E+02 -0.60575354329E+01  0.13531773874E+03  0.13706256333E+03  0.00000000000E+00 0.  1.
</event>
<event>
 4    1  0.1560907E+006  0.3363468E+02  0.7546771E-02  0.1390424E+00
          2   -1    0    0  502    0 -0.00000000000E+00  0.00000000000E+00  0.15936938237E+04  0.15936938237E+04  0.00000000000E+00 0.  1.
         21   -1    0    0  503  502  0.00000000000E+00 -0.00000000000E+00 -0.19296180099E+01  0.19296180099E+01  0.00000000000E+00 0.  1.
         21    1    1    2  503  501 -0.23888705936E+02  0.23677447088E+02  0.16157081086E+03  0.16503459847E+03  0.00000000000E+00 0.  1.
          2    1    1    2  501    0  0.23888705936E+02 -0.23677447088E+02  0.14301933948E+04  0.14305888432E+04  0.00000000000E+00 0.  1.
</event>
<event>
 4    1  0.1560907E+006  0.2183686E+02  0.7546771E-02  0.1507644E+00
          2   -1    0    0  503    0 -0.00000000000E+00  0.00000000000E+00  0.37308171912E+03  0.37308171912E+03  0.00000000000E+00 0. -1.
         21   -1    0    0  501  502  0.00000000000E+00 -0.00000000000E+00 -0.12884198426E+01  0.12884198426E+01  0.00000000000E+00 0. -1.
         21    1    1    2  503  502  0.15105897269E+02 -0.15768967477E+02  0.20262142572E+03  0.20379472670E+03  0.00000000000E+00 0. -1.
          2    1    1    2  501    0 -0.15105897269E+02  0.15768967477E+02  0.16917187355E+03  0.17057541226E+03  0.00000000000E+00 0. -1.
</event>
<event>
 4    1  0.1560907E+006  0.2058070E+02  0.7546771E-02  0.1525336E+00
          2   -1    0    0  503    0 -0.00000000000E+00  0.00000000000E+00  0.69658338135E+03  0.69658338135E+03  0.00000000000E+00 0.  1.
         21   -1    0    0  501  502  0.00000000000E+00 -0.00000000000E+00 -0.13188379879E+02  0.13188379879E+02  0.00000000000E+00 0. -1.
         21    1    1    2  503  502  0.20579999074E+02  0.17039050030E+00 -0.49106861570E+01  0.21158455363E+02  0.00000000000E+00 0. -1.
          2    1    1    2  501    0 -0.20579999074E+02 -0.17039050030E+00  0.68830568763E+03  0.68861330586E+03  0.00000000000E+00 0.  1.
</event>
<event>
 4    1  0.1560907E+006  0.2092508E+02  0.7546771E-02  0.1520337E+00
          1   -1    0    0  503    0 -0.00000000000E+00  0.00000000000E+00  0.24879007031E+03  0.24879007031E+03  0.00000000000E+00 0.  1.
         21   -1    0    0  501  502  0.00000000000E+00 -0.00000000000E+00 -0.17636033386E+01  0.17636033386E+01  0.00000000000E+00 0.  1.
         21    1    1    2  503  502  0.29141109072E+01 -0.20721172295E+02  0.11781433749E+03  0.11965816789E+03  0.00000000000E+00 0.  1.
          1    1    1    2  501    0 -0.29141109072E+01  0.20721172295E+02  0.12921212948E+03  0.13089550576E+03  0.00000000000E+00 0.  1.
</event>
<event>
 4    1  0.1560907E+006  0.3111634E+02  0.7546771E-02  0.1410137E+00
         21   -1    0    0  501  502  0.00000000000E+00  0.00000000000E+00  0.82198123614E+00  0.82198123614E+00  0.00000000000E+00 0.  1.
          2   -1    0    0  503    0 -0.00000000000E+00 -0.00000000000E+00 -0.14849884345E+04  0.14849884345E+04  0.00000000000E+00 0.  1.
         21    1    1    2  503  502  0.23109687585E+02 -0.20836726939E+02 -0.40425917784E+03  0.40545494166E+03  0.00000000000E+00 0.  1.
          2    1    1    2  501    0 -0.23109687585E+02  0.20836726939E+02 -0.10799072754E+04  0.10803554741E+04  0.00000000000E+00 0.  1.
</event>
<event>
 4    1  0.1560907E+006  0.3470741E+02  0.7546771E-02  0.1382632E+00
          2   -1    0    0  503    0 -0.00000000000E+00  0.00000000000E+00  0.10348118334E+03  0.10348118334E+03  0.00000000000E+00 0.  1.
         21   -1    0    0  501  502  0.00000000000E+00 -0.00000000000E+00 -0.14361047601E+02  0.14361047601E+02  0.00000000000E+00 0. -1.
         21    1    1    2  503  502 -0.15744451927E+02 -0.30930832694E+02  0.18916302515E+02  0.39527593887E+02  0.00000000000E+00 0. -1.
          2    1    1    2  501    0  0.15744451927E+02  0.30930832694E+02  0.70203833226E+02  0.78314637056E+02  0.00000000000E+00 0.  1.
</event>
<event>
 4    1  0.1560907E+006  0.2019730E+02  0.7546771E-02  0.1531041E+00
          3   -1    0    0  503    0 -0.00000000000E+00  0.00000000000E+00  0.11750263039E+03  0.11750263039E+03  0.00000000000E+00 0.  1.
         21   -1    0    0  501  502  0.00000000000E+00 -0.00000000000E+00 -0.34475752966E+02  0.34475752966E+02  0.00000000000E+00 0.  1.
         21    1    1    2  503  502  0.55498617238E+01  0.19419835857E+02 -0.30548236214E+02  0.36621383449E+02  0.00000000000E+00 0.  1.
          3    1    1    2  501    0 -0.55498617238E+01 -0.19419835857E+02  0.11357511364E+03  0.11535699991E+03  0.00000000000E+00 0.  1.
</event>
<event>
 4    1  0.1560907E+006  0.2172602E+02  0.7546771E-02  0.1509147E+00
          3   -1    0    0  503    0 -0.00000000000E+00  0.00000000000E+00  0.91539190435E+03  0.91539190435E+03  0.00000000000E+00 0.  1.
         21   -1    0    0  501  502  0.00000000000E+00 -0.00000000000E+00 -0.31424945593E+02  0.31424945593E+02  0.00000000000E+00 0.  1.
         21    1    1    2  503  502 -0.21631349183E+02  0.20259832250E+01 -0.27524831561E+02  0.35066169279E+02  0.00000000000E+00 0.  1.
          3    1    1    2  501    0  0.21631349183E+02 -0.20259832250E+01  0.91149179032E+03  0.91175068067E+03  0.00000000000E+00 0.  1.
</event>
<event>
 4    1  0.1560907E+006  0.2467358E+02  0.7546771E-02  0.1472488E+00
         21   -1    0    0  503  502  0.00000000000E+00  0.00000000000E+00  0.21532820505E+03  0.21532820505E+03  0.00000000000E+00 0.  1.
          1   -1    0    0  502    0 -0.00000000000E+00 -0.00000000000E+00 -0.52150442358E+02  0.52150442358E+02  0.00000000000E+00 0.  1.
         21    1    1    2  503  501 -0.14700929136E+02 -0.19815857763E+02  0.21165247112E+03  0.21308579039E+03  0.00000000000E+00 0.  1.
          1    1    1    2  501    0  0.14700929136E+02  0.19815857763E+02 -0.48474708432E+02  0.54392857012E+02  0.00000000000E+00 0.  1.
</event>
<event>
 4    1  0.1560907E+006  0.2835465E+02  0.7546771E-02  0.1434455E+00
          1   -1    0    0  502    0 -0.00000000000E+00  0.00000000000E+00  0.23297598589E+03  0.23297598589E+03  0.00000000000E+00 0.  1.
         21   -1    0    0  503  502  0.00000000000E+00 -0.00000000000E+00 -0.73431013502E+02  0.73431013502E+02  0.00000000000E+00 0. -1.
         21    1    1    2  503  501 -0.10169449299E+02  0.26468255393E+02 -0.69787742608E+02  0.75328050957E+02  0.00000000000E+00 0. -1.
          1    1    1    2  501    0  0.10169449299E+02 -0.26468255393E+02  0.22933271500E+03  0.23107894844E+03  0.00000000000E+00 0.  1.
</event>
<event>
 4    1  0.1560907E+006  0.2361522E+02  0.7546771E-02  0.1484914E+00
         21   -1    0    0  503  502  0.00000000000E+00  0.00000000000E+00  0.30256139443E+01  0.30256139443E+01  0.00000000000E+00 0. -1.
          3   -1    0    0  502    0 -0.00000000000E+00 -0.00000000000E+00 -0.47753060968E+03  0.47753060968E+03  0.00000000000E+00 0. -1.
         21    1    1    2  503  501 -0.18248657958E+01  0.23544606091E+02 -0.48972550672E+02  0.54369010755E+02  0.00000000000E+00 0. -1.
          3    1    1    2  501    0  0.18248657958E+01 -0.23544606091E+02 -0.42553244507E+03  0.42618721287E+03  0.00000000000E+00 0. -1.
</event>
<event>
 4    1  0.1560907E+006  0.2723672E+02  0.7546771E-02  0.1445245E+00
         21   -1    0    0  503  502  0.00000000000E+00  0.00000000000E+00  0.30461431069E+02  0.30461431069E+02  0.00000000000E+00 0. -1.
          2   -1    0    0  502    0 -0.00000000000E+00 -0.00000000000E+00 -0.22739701816E+03  0.22739701816E+03  0.00000000000E+00 0. -1.
         21    1    1    2  503  501  0.26470120943E+02  0.64164899242E+01  0.23362050134E+02  0.35883478540E+02  0.00000000000E+00 0. -1.
          2    1    1    2  501    0 -0.26470120943E+02 -0.64164899242E+01 -0.22029763723E+03  0.22197497069E+03  0.00000000000E+00 0. -1.
</event>
<event>
 4    1  0.1560907E+006  0.2421302E+02  0.7546771E-02  0.1477803E+00
          2   -1    0    0  503    0 -0.00000000000E+00  0.00000000000E+00  0.22690812376E+02  0.22690812376E+02  0.00000000000E+00 0. -1.
         21   -1    0    0  501  502  0.00000000000E+00 -0.00000000000E+00 -0.29176299840E+02  0.29176299840E+02  0.00000000000E+00 0. -1.
         21    1    1    2  503  502  0.24099236111E+02 -0.23446445437E+01 -0.12015815659E+02  0.27030545039E+02  0.00000000000E+00 0. -1.
          2    1    1    2  501    0 -0.24099236111E+02  0.23446445437E+01  0.55303281950E+01  0.24836567176E+02  0.00000000000E+00 0. -1.
</event>
<event>
 4    1  0.1560907E+006  0.2815053E+02  0.7546771E-02  0.1436381E+00
         21   -1    0    0  501  502  0.00000000000E+00  0.00000000000E+00  0.35492180317E+01  0.35492180317E+01  0.00000000000E+00 0.  1.
         -3   -1    0    0    0  501 -0.00000000000E+00 -0.00000000000E+00 -0.22330865029E+03  0.22330865029E+03  0.00000000000E+00 0.  1.
         21    1    1    2  503  502  0.26933529198E+02  0.81876258099E+01 -0.10849055291E+03  0.11208323819E+03  0.00000000000E+00 0.  1.
         -3    1    1    2    0  503 -0.26933529198E+02 -0.81876258099E+01 -0.11126887934E+03  0.11477463013E+03  0.00000000000E+00 0.  1.
</event>
<event>
 4    1  0.1560907E+006  0.2210565E+02  0.7546771E-02  0.1504045E+00
         21   -1    0    0  501  502  0.00000000000E+00  0.00000000000E+00  0.17574646941E+02  0.17574646941E+02  0.00000000000E+00 0. -1.
          3   -1    0    0  503    0 -0.00000000000E+00 -0.00000000000E+00 -0.37680538953E+02  0.37680538953E+02  0.00000000000E+00 0. -1.
         21    1    1    2  503  502  0.22105089559E+02 -0.15752796452E+00  0.40909474419E+01  0.22481006437E+02  0.00000000000E+00 0. -1.
          3    1    1    2  501    0 -0.22105089559E+02  0.15752796452E+00 -0.24196839454E+02  0.32774179456E+02  0.00000000000E+00 0. -1.
</event>
<event>
 4    1  0.1560907E+006  0.2705595E+02  0.7546771E-02  0.1447047E+00
          1   -1    0    0  502    0 -0.00000000000E+00  0.00000000000E+00  0.13079545738E+03  0.13079545738E+03  0.00000000000E+00 0. -1.
         21   -1    0    0  503  502  0.00000000000E+00 -0.00000000000E+00 -0.83830311533E+01  0.83830311533E+01  0.00000000000E+00 0.  1.
         21    1    1    2  503  501  0.24158617822E+02 -0.12181368288E+02  0.21086577041E+02  0.34302598732E+02  0.00000000000E+00 0.  1.
          1    1    1    2  501    0 -0.24158617822E+02  0.12181368288E+02  0.10132584918E+03  0.10487588980E+03  0.00000000000E+00 0. -1.
</event>
<event>
 4    1  0.1560907E+006  0.3221570E+02  0.7546771E-02  0.1401271E+00
         -3   -1    0    0    0  501 -0.00000000000E+00  0.00000000000E+00  0.14082347108E+02  0.14082347108E+02  0.00000000000E+00 0.  1.
         21   -1    0    0  501  502  0.00000000000E+00 -0.00000000000E+00 -0.43540921579E+03  0.43540921579E+03  0.00000000000E+00 0.  1.
         21    1    1    2  503  502 -0.14166701287E+02  0.28933646094E+02 -0.41550744998E+03  0.41675447483E+03  0.00000000000E+00 0.  1.
         -3    1    1    2    0  503  0.14166701287E+02 -0.28933646094E+02 -0.58194187102E+01  0.32737088077E+02  0.00000000000E+00 0.  1.
</event>
<event>
 4    1  0.1560907E+006  0.2054836E+02  0.7546771E-02  0.1525812E+00
          3   -1    0    0  502    0 -0.00000000000E+00  0.00000000000E+00  0.38549869922E+03  0.38549869922E+03  0.00000000000E+00 0.  1.
         21   -1    0    0  503  502  0.00000000000E+00 -0.00000000000E+00 -0.30426310328E+01  0.30426310328E+01  0.00000000000E+00 0.  1.
         21    1    1    2  503  501  0.19172831188E+02 -0.73917227482E+01  0.35809443141E+02  0.41286211246E+02  0.00000000000E+00 0.  1.
          3    1    1    2  501    0 -0.19172831188E+02  0.73917227482E+01  0.34664662505E+03  0.34725511901E+03  0.00000000000E+00 0.  1.
</event>
<event>
 4    1  0.1560907E+006  0.2790802E+02  0.7546771E-02  0.1438694E+00
          1   -1    0    0  503    0 -0.00000000000E+00  0.00000000000E+00  0.51596977001E+03  0.51596977001E+03  0.00000000000E+00 0. -1.
         21   -1    0    0  501  502  0.00000000000E+00 -0.00000000000E+00 -0.25846622942E+01  0.25846622942E+01  0.00000000000E+00 0. -1.
         21    1    1    2  503  502 -0.21896736344E+02  0.17302898771E+02  0.89468374859E+02  0.93720048380E+02  0.00000000000E+00 0. -1.
          1    1    1    2  501    0  0.21896736344E+02 -0.17302898771E+02  0.42391673286E+03  0.42483438393E+03  0.00000000000E+00 0. -1.
</event>
<event>
 4    1  0.1560907E+006  0.2501416E+02  0.7546771E-02  0.1468645E+00
          1   -1    0    0  503    0 -0.00000000000E+00  0.00000000000E+00  0.54146328208E+03  0.54146328208E+03  0.00000000000E+00 0. -1.
         21   -1    0    0  501  502  0.00000000000E+00 -0.00000000000E+00 -0.12013119527E+01  0.12013119527E+01  0.00000000000E+00 0. -1.
         21    1    1    2  503  502  0.47917750219E+01 -0.24550903538E+02  0.21719513994E+03  0.21863082305E+03  0.00000000000E+00 0. -1.
          1    1    1    2  501    0 -0.47917750219E+01  0.24550903538E+02  0.32306683018E+03  0.32403377098E+03  0.00000000000E+00 0. -1.
</event>
<event>
 4    1  0.1560907E+006  0.2165994E+02  0.7546771E-02  0.1510048E+00
          4   -1    0    0  503    0 -0.00000000000E+00  0.00000000000E+00  0.24872875639E+03  0.24872875639E+03  0.00000000000E+00 0.  1.
         21   -1    0    0  501  502  0.00000000000E+00 -0.00000000000E+00 -0.96565688762E+01  0.96565688762E+01  0.00000000000E+00 0. -1.
         21    1    1    2  503  502  0.17958998478E+02  0.12108974273E+02  0.36457724896E+01  0.21964620218E+02  0.00000000000E+00 0. -1.
          4    1    1    2  501    0 -0.17958998478E+02 -0.12108974273E+02  0.23542641503E+03  0.23642070505E+03  0.00000000000E+00 0.  1.
</event>
<event>
 4    1  0.1560907E+006  0.5713687E+02  0.7546771E-02  0.1269884E+00
         21   -1    0    0  503  502  0.00000000000E+00  0.00000000000E+00  0.24471261379E+02  0.24471261379E+02  0.00000000000E+00 0.  1.
         -1   -1    0    0    0  501 -0.00000000000E+00 -0.00000000000E+00 -0.18959076804E+03  0.18959076804E+03  0.00000000000E+00 0.  1.
         21    1    1    2  503  501 -0.55294241622E+02 -0.14393341807E+02 -0.24294582078E+02  0.62087423551E+02  0.00000000000E+00 0.  1.
         -1    1    1    2    0  502  0.55294241622E+02  0.14393341807E+02 -0.14082492458E+03  0.15197460587E+03  0.00000000000E+00 0.  1.
</event>
<event>
 4    1  0.1560907E+006  0.2611936E+02  0.7546771E-02  0.1456661E+00
         21   -1    0    0  503  502  0.00000000000E+00  0.00000000000E+00  0.56734748311E+01  0.56734748311E+01  0.00000000000E+00 0. -1.
          2   -1    0    0  502    0 -0.00000000000E+00 -0.00000000000E+00 -0.40801758080E+03  0.40801758080E+03  0.00000000000E+00 0.  1.
         21    1    1    2  503  501  0.25805935666E+02 -0.40341771329E+01 -0.27460160487E+02  0.37898302267E+02  0.00000000000E+00 0. -1.
          2    1    1    2  501    0 -0.25805935666E+02  0.40341771329E+01 -0.37488394548E+03  0.37579275336E+03  0.00000000000E+00 0.  1.
</event>
<event>
 4    1  0.1560907E+006  0.3537165E+02  0.7546771E-02  0.1377969E+00
         21   -1    0    0  503  502  0.00000000000E+00  0.00000000000E+00  0.11368440120E+02  0.11368440120E+02  0.00000000000E+00 0. -1.
          2   -1    0    0  502    0 -0.00000000000E+00 -0.00000000000E+00 -0.36237733653E+03  0.36237733653E+03  0.00000000000E+00 0. -1.
         21    1    1    2  503  501 -0.17828827119E+02 -0.30549744488E+02 -0.19569445949E+02  0.40424215261E+02  0.00000000000E+00 0. -1.
          2    1    1    2  501    0  0.17828827119E+02  0.30549744488E+02 -0.33143945046E+03  0.33332156139E+03  0.00000000000E+00 0. -1.
</event>
<event>
 4    1  0.1560907E+006  0.2620853E+02  0.7546771E-02  0.1455725E+00
         21   -1    0    0  501  502  0.00000000000E+00  0.00000000000E+00  0.19953523239E+01  0.19953523239E+01  0.00000000000E+00 0. -1.
          2   -1    0    0  503    0 -0.00000000000E+00 -0.00000000000E+00 -0.16392319295E+04  0.16392319295E+04  0.00000000000E+00 0.  1.
         21    1    1    2  503  502  0.17367689219E+02  0.19627796389E+02 -0.89242273933E+02  0.93011130928E+02  0.00000000000E+00 0. -1.
          2    1    1    2  501    0 -0.17367689219E+02 -0.19627796389E+02 -0.15479943032E+04  0.15482161509E+04  0.00000000000E+00 0.  1.
</event>
<event>
 4    1  0.1560907E+006  0.2746115E+02  0.7546771E-02  0.1443030E+00
         -3   -1    0    0    0  501 -0.00000000000E+00  0.00000000000E+00  0.20518941306E+03  0.20518941306E+03  0.00000000000E+00 0. -1.
         21   -1    0    0  503  502  0.00000000000E+00 -0.00000000000E+00 -0.93734424261E+01  0.93734424261E+01  0.00000000000E+00 0. -1.
         21    1    1    2  503  501 -0.94112174037E+01  0.25798137079E+02  0.14262032013E+02  0.30943827283E+02  0.00000000000E+00 0. -1.
         -3    1    1    2    0  502  0.94112174037E+01 -0.25798137079E+02  0.18155393862E+03  0.18361902820E+03  0.00000000000E+00 0. -1.
</event>
<event>
 4    1  0.1560907E+006  0.2225024E+02  0.7546771E-02  0.1502134E+00
          3   -1    0    0  503    0 -0.00000000000E+00  0.00000000000E+00  0.19668571771E+03  0.19668571771E+03  0.00000000000E+00 0. -1.
         21   -1    0    0  501  502  0.00000000000E+00 -0.00000000000E+00 -0.43076125051E+01  0.43076125051E+01  0.00000000000E+00 0. -1.
         21    1    1    2  503  502 -0.20281315898E+02 -0.91510335187E+01  0.31396551138E+02  0.38481380073E+02  0.00000000000E+00 0. -1.
          3    1    1    2  501    0  0.20281315898E+02  0.91510335187E+01  0.16098155407E+03  0.16251195014E+03  0.00000000000E+00 0. -1.
</event>
<event>
 4    1  0.1560907E+006  0.2638337E+02  0.7546771E-02  0.1453903E+00
         21   -1    0    0  503  502  0.00000000000E+00  0.00000000000E+00  0.19435865943E+01  0.19435865943E+01  0.00000000000E+00 0. -1.
          2   -1    0    0  502    0 -0.00000000000E+00 -0.00000000000E+00 -0.11114818297E+04  0.11114818297E+04  0.00000000000E+00 0.  1.
         21    1    1    2  503  501 -0.32430219364E+00  0.26381375565E+02 -0.96442486862E+02  0.99986176148E+02  0.00000000000E+00 0. -1.
          2    1    1    2  501    0  0.32430219364E+00 -0.26381375565E+02 -0.10130957563E+04  0.10134392402E+04  0.00000000000E+00 0.  1.
</event>
<event>
 4    1  0.1560907E+006  0.3610534E+02  0.7546771E-02  0.1372955E+00
         -3   -1    0    0    0  501 -0.00000000000E+00  0.00000000000E+00  0.44632400899E+02  0.44632400899E+02  0.00000000000E+00 0.  1.
         21   -1    0    0  501  502  0.00000000000E+00 -0.00000000000E+00 -0.92199986526E+02  0.92199986526E+02  0.00000000000E+00 0.  1.
         21    1    1    2  503  502 -0.11799917664E+02 -0.34122687746E+02 -0.80334526010E+02  0.88075149419E+02  0.00000000000E+00 0.  1.
         -3    1    1    2    0  503  0.11799917664E+02  0.34122687746E+02  0.32766940383E+02  0.48757238006E+02  0.00000000000E+00 0.  1.
</event>
<event>
 4    1  0.1560907E+006  0.2365613E+02  0.7546771E-02  0.1484419E+00
         21   -1    0    0  503  502  0.00000000000E+00  0.00000000000E+00  0.42341792890E+03  0.42341792890E+03  0.00000000000E+00 0.  1.
          1   -1    0    0  502    0 -0.00000000000E+00 -0.00000000000E+00 -0.29108855188E+01  0.29108855188E+01  0.00000000000E+00 0.  1.
         21    1    1    2  503  501  0.22933739798E+02  0.58013716935E+01  0.36775897853E+03  0.36851903427E+03  0.00000000000E+00 0.  1.
          1    1    1    2  501    0 -0.22933739798E+02 -0.58013716935E+01  0.52748064859E+02  0.57809780150E+02  0.00000000000E+00 0.  1.
</event>
<event>
 4    1  0.1560907E+006  0.2076070E+02  0.7546771E-02  0.1522709E+00
          1   -1    0    0  503    0 -0.00000000000E+00  0.00000000000E+00  0.11499731590E+03  0.11499731590E+03  0.00000000000E+00 0.  1.
         21   -1    0    0  501  502  0.00000000000E+00 -0.00000000000E+00 -0.14070498986E+02  0.14070498986E+02  0.00000000000E+00 0. -1.
         21    1    1    2  503  502 -0.10867157732E+02  0.17689311802E+02 -0.48112666340E+01  0.21310916353E+02  0.00000000000E+00 0. -1.
          1    1    1    2  501    0  0.10867157732E+02 -0.17689311802E+02  0.10573808354E+03  0.10775689853E+03  0.00000000000E+00 0.  1.
</event>
<event>
 4    1  0.1560907E+006  0.2095035E+02  0.7546771E-02  0.1519975E+00
         21   -1    0    0  501  502  0.00000000000E+00  0.00000000000E+00  0.27198041760E+03  0.27198041760E+03  0.00000000000E+00 0. -1.
         -2   -1    0    0    0  501 -0.00000000000E+00 -0.00000000000E+00 -0.48646213191E+02  0.48646213191E+02  0.00000000000E+00 0.  1.
         21    1    1    2  503  502 -0.32254328858E+01  0.20700572805E+02  0.26929888603E+03  0.27011258236E+03  0.00000000000E+00 0. -1.
         -2    1    1    2    0  503  0.32254328858E+01 -0.20700572805E+02 -0.45964681625E+02  0.50514048428E+02  0.00000000000E+00 0.  1.
</event>
<event>
 4    1  0.1560907E+006  0.2481389E+02  0.7546771E-02  0.1470896E+00
          2   -1    0    0  503    0 -0.00000000000E+00  0.00000000000E+00  0.26426273286E+03  0.26426273286E+03  0.00000000000E+00 0. -1.
         21   -1    0    0  501  502  0.00000000000E+00 -0.00000000000E+00 -0.25318369086E+01  0.25318369086E+01  0.00000000000E+00 0.  1.
         21    1    1    2  503  502  0.18167940857E+02 -0.16901330885E+02  0.93200092718E+02  0.96446805770E+02  0.00000000000E+00 0.  1.
          2    1    1    2  501    0 -0.18167940857E+02  0.16901330885E+02  0.16853080324E+03  0.17034776400E+03  0.00000000000E+00 0. -1.
</event>
<event>
 4    1  0.1560907E+006  0.2230433E+02  0.7546771E-02  0.1501423E+00
         21   -1    0    0  501  502  0.00000000000E+00  0.00000000000E+00  0.11237379182E+02  0.11237379182E+02  0.00000000000E+00 0.  1.
         -3   -1    0    0    0  501 -0.00000000000E+00 -0.00000000000E+00 -0.74750755341E+02  0.74750755341E+02  0.00000000000E+00 0. -1.
         21    1    1    2  503  502 -0.17879750976E+02 -0.13334072890E+02 -0.43023531850E+01  0.22715484536E+02  0.00000000000E+00 0.  1.
         -3    1    1    2    0  503  0.17879750976E+02  0.13334072890E+02 -0.59211022974E+02  0.63272649987E+02  0.00000000000E+00 0. -1.
</event>
<event>
 4    1  0.1560907E+006  0.2068721E+02  0.7546771E-02  0.1523778E+00
          2   -1    0    0  502    0 -0.00000000000E+00  0.00000000000E+00  0.17684193387E+03  0.17684193387E+03  0.00000000000E+00 0. -1.
         21   -1    0    0  503  502  0.00000000000E+00 -0.00000000000E+00 -0.40552539552E+01  0.40552539552E+01  0.00000000000E+00 0. -1.
         21    1    1    2  503  501  0.20650033364E+02 -0.12397066091E+01  0.28957504869E+02  0.35587888932E+02  0.00000000000E+00 0. -1.
          2    1    1    2  501    0 -0.20650033364E+02  0.12397066091E+01  0.14382917505E+03  0.14530929890E+03  0.00000000000E+00 0. -1.
</event>
<event>
 4    1  0.1560907E+006  0.2312703E+02  0.7546771E-02  0.1490909E+00
         21   -1    0    0  501  502  0.00000000000E+00  0.00000000000E+00  0.30225672051E+02  0.30225672051E+02  0.00000000000E+00 0. -1.
          3   -1    0    0  503    0 -0.00000000000E+00 -0.00000000000E+00 -0.24849433471E+02  0.24849433471E+02  0.00000000000E+00 0. -1.
         21    1    1    2  503  502  0.19523374115E+02  0.12397478948E+02  0.17463487013E+02  0.28979872321E+02  0.00000000000E+00 0. -1.
          3    1    1    2  501    0 -0.19523374115E+02 -0.12397478948E+02 -0.12087248433E+02  0.26095233200E+02  0.00000000000E+00 0. -1.
</event>
<event>
 4    1  0.1560907E+006  0.2707443E+02  0.7546771E-02  0.1446862E+00
         21   -1    0    0  501  502  0.00000000000E+00  0.00000000000E+00  0.26275990830E+03  0.26275990830E+03  0.00000000000E+00 0.  1.
          1   -1    0    0  503    0 -0.00000000000E+00 -0.00000000000E+00 -0.19870226624E+02  0.19870226624E+02  0.00000000000E+00 0.  1.
         21    1    1    2  503  502 -0.10529639332E+02  0.24942963848E+02  0.25246481884E+03  0.25391240517E+03  0.00000000000E+00 0.  1.
          1    1    1    2  501    0  0.10529639332E+02 -0.24942963848E+02 -0.95751371664E+01  0.28717729746E+02  0.00000000000E+00 0.  1.
</event>
<event>
 4    1  0.1560907E+006  0.2828394E+02  0.7546771E-02  0.1435120E+00
         -2   -1    0    0    0  501 -0.00000000000E+00  0.00000000000E+00  0.25441248077E+03  0.25441248077E+03  0.00000000000E+00 0. -1.
         21   -1    0    0  501  502  0.00000000000E+00 -0.00000000000E+00 -0.71218638031E+01  0.71218638031E+01  0.00000000000E+00 0.  1.
         21    1    1    2  503  502  0.68674936251E+01 -0.27437547479E+02  0.25920789117E+02  0.38364942184E+02  0.00000000000E+00 0.  1.
         -2    1    1    2    0  503 -0.68674936251E+01  0.27437547479E+02  0.22136982785E+03  0.22316940239E+03  0.00000000000E+00 0. -1.
</event>
<event>
 4    1  0.1560907E+006  0.2384545E+02  0.7546771E-02  0.1482146E+00
         -2   -1    0    0    0  501 -0.00000000000E+00  0.00000000000E+00  0.92555923455E+02  0.92555923455E+02  0.00000000000E+00 0. -1.
         21   -1    0    0  503  502  0.00000000000E+00 -0.00000000000E+00 -0.10484667851E+02  0.10484667851E+02  0.00000000000E+00 0. -1.
         21    1    1    2  503  501  0.21394368141E+02  0.10530272801E+02  0.78835608561E+01  0.25114859450E+02  0.00000000000E+00 0. -1.
         -2    1    1    2    0  502 -0.21394368141E+02 -0.10530272801E+02  0.74187694748E+02  0.77925731857E+02  0.00000000000E+00 0. -1.
</event>
<event>
 4    1  0.1560907E+006  0.2308254E+02  0.7546771E-02  0.1491464E+00
          2   -1    0    0  502    0 -0.00000000000E+00  0.00000000000E+00  0.23094016316E+03  0.23094016316E+03  0.00000000000E+00 0.  1.
         21   -1    0    0  503  502  0.00000000000E+00 -0.00000000000E+00 -0.37716610543E+02  0.37716610543E+02  0.00000000000E+00 0.  1.
         21    1    1    2  503  501  0.12788679494E+02 -0.19215961799E+02 -0.33543384691E+02  0.40718081580E+02  0.00000000000E+00 0.  1.
          2    1    1    2  501    0 -0.12788679494E+02  0.19215961799E+02  0.22676693731E+03  0.22793869212E+03  0.00000000000E+00 0.  1.
</event>
<event>
 4    1  0.1560907E+006  0.2024427E+02  0.7546771E-02  0.1530334E+00
         21   -1    0    0  503  502  0.00000000000E+00  0.00000000000E+00  0.19728866570E+01  0.19728866570E+01  0.00000000000E+00 0. -1.
          1   -1    0    0  502    0 -0.00000000000E+00 -0.00000000000E+00 -0.70655138482E+03  0.70655138482E+03  0.00000000000E+00 0. -1.
         21    1    1    2  503  501  0.17934113198E+02 -0.93913806015E+01 -0.54626288794E+02  0.58256861168E+02  0.00000000000E+00 0. -1.
          1    1    1    2  501    0 -0.17934113198E+02  0.93913806015E+01 -0.64995220937E+03  0.65026741031E+03  0.00000000000E+00 0. -1.
</event>
<event>
 4    1  0.1560907E+006  0.2000313E+02  0.7546771E-02  0.1533988E+00
         21   -1    0    0  501  502  0.00000000000E+00  0.00000000000E+00  0.11658680526E+03  0.11658680526E+03  0.00000000000E+00 0.  1.
          4   -1    0    0  503    0 -0.00000000000E+00 -0.00000000000E+00 -0.87789313866E+01  0.87789313866E+01  0.00000000000E+00 0. -1.
         21    1    1    2  503  502  0.24787414870E+01  0.19848959279E+02  0.10282327126E+03  0.10475089716E+03  0.00000000000E+00 0.  1.
          4    1    1    2  501    0 -0.24787414870E+01 -0.19848959279E+02  0.49846026158E+01  0.20614839486E+02  0.00000000000E+00 0. -1.
</event>
<event>
 4    1  0.1560907E+006  0.2892819E+02  0.7546771E-02  0.1429145E+00
         21   -1    0    0  503  502  0.00000000000E+00  0.00000000000E+00  0.12002418314E+04  0.12002418314E+04  0.00000000000E+00 0. -1.
         -2   -1    0    0    0  501 -0.00000000000E+00 -0.00000000000E+00 -0.16561652988E+01  0.16561652988E+01  0.00000000000E+00 0.  1.
         21    1    1    2  503  501 -0.27411830835E+02 -0.92429408084E+01  0.10565717917E+04  0.10569677343E+04  0.00000000000E+00 0. -1.
         -2    1    1    2    0  502  0.27411830835E+02  0.92429408084E+01  0.14201387444E+03  0.14493026240E+03  0.00000000000E+00 0.  1.
</event>
<event>
 4    1  0.1560907E+006  0.2477709E+02  0.7546771E-02  0.1471313E+00
          4   -1    0    0  502    0 -0.00000000000E+00  0.00000000000E+00  0.13822383769E+04  0.13822383769E+04  0.00000000000E+00 0. -1.
         21   -1    0    0  503  502  0.00000000000E+00 -0.00000000000E+00 -0.16545415373E+02  0.16545415373E+02  0.00000000000E+00 0.  1.
         21    1    1    2  503  501 -0.24026296407E+02  0.60531960908E+01 -0.70944798780E+01  0.25772771420E+02  0.00000000000E+00 0.  1.
          4    1    1    2  501    0  0.24026296407E+02 -0.60531960908E+01  0.13727874414E+04  0.13730110209E+04  0.00000000000E+00 0. -1.
</event>
<event>
 4    1  0.1560907E+006  0.2541652E+02  0.7546771E-02  0.1464197E+00
         21   -1    0    0  501  502  0.00000000000E+00  0.00000000000E+00  0.29267922838E+02  0.29267922838E+02  0.00000000000E+00 0. -1.
         -1   -1    0    0    0  501 -0.00000000000E+00 -0.00000000000E+00 -0.16489136064E+03  0.16489136064E+03  0.00000000000E+00 0. -1.
         21    1    1    2  503  502  0.64283243724E+01  0.24590158564E+02  0.22537182881E+02  0.33969454877E+02  0.00000000000E+00 0. -1.
         -1    1    1    2    0  503 -0.64283243724E+01 -0.24590158564E+02 -0.15816062068E+03  0.16018982860E+03  0.00000000000E+00 0. -1.
</event>
<event>
 4    1  0.1560907E+006  0.3803211E+02  0.7546771E-02  0.1360420E+00
          2   -1    0    0  503    0 -0.00000000000E+00  0.00000000000E+00  0.29136904732E+02  0.29136904732E+02  0.00000000000E+00 0. -1.
         21   -1    0    0  501  502  0.00000000000E+00 -0.00000000000E+00 -0.70713634161E+02  0.70713634161E+02  0.00000000000E+00 0. -1.
         21    1    1    2  503  502 -0.53050310294E+01 -0.37660295426E+02 -0.48040993751E+02  0.61272981700E+02  0.00000000000E+00 0. -1.
          2    1    1    2  501    0  0.53050310294E+01  0.37660295426E+02  0.64642643223E+01  0.38577557193E+02  0.00000000000E+00 0. -1.
</event>
<event>
 4    1  0.1560907E+006  0.3244986E+02  0.7546771E-02  0.1399436E+00
         21   -1    0    0  503  502  0.00000000000E+00  0.00000000000E+00  0.19504487823E+02  0.19504487823E+02  0.00000000000E+00 0. -1.
          2   -1    0    0  502    0 -0.00000000000E+00 -0.00000000000E+00 -0.38412939706E+03  0.38412939706E+03  0.00000000000E+00 0. -1.
         21    1    1    2  503  501 -0.78389647471E+01  0.31488787842E+02  0.47856352050E+01  0.32800844995E+02  0.00000000000E+00 0. -1.
          2    1    1    2  501    0  0.78389647471E+01 -0.31488787842E+02 -0.36941054444E+03  0.37083303989E+03  0.00000000000E+00 0. -1.
</event>
<event>
 4    1  0.1560907E+006  0.5154308E+02  0.7546771E-02  0.1291617E+00
          1   -1    0    0  502    0 -0.00000000000E+00  0.00000000000E+00  0.21983365730E+04  0.21983365730E+04  0.00000000000E+00 0. -1.
         21   -1    0    0  503  502  0.00000000000E+00 -0.00000000000E+00 -0.18461697001E+01  0.18461697001E+01  0.00000000000E+00 0.  1.
         21    1    1    2  503  501  0.15976693269E+02 -0.49004432320E+02  0.45171184318E+03  0.45464302302E+03  0.00000000000E+00 0.  1.
          1    1    1    2  501    0 -0.15976693269E+02  0.49004432320E+02  0.17447785601E+04  0.17455397197E+04  0.00000000000E+00 0. -1.
</event>
<event>
 4    1  0.1560907E+006  0.3585296E+02  0.7546771E-02  0.1374664E+00
         21   -1    0    0  501  502  0.00000000000E+00  0.00000000000E+00  0.10632271073E+04  0.10632271073E+04  0.00000000000E+00 0. -1.
          4   -1    0    0  503    0 -0.00000000000E+00 -0.00000000000E+00 -0.21213471132E+01  0.21213471132E+01  0.00000000000E+00 0.  1.
         21    1    1    2  503  502  0.23862095992E+02 -0.26758827491E+02  0.87988414467E+03  0.88061429838E+03  0.00000000000E+00 0. -1.
          4    1    1    2  501    0 -0.23862095992E+02  0.26758827491E+02  0.18122161551E+03  0.18473415602E+03  0.00000000000E+00 0.  1.
</event>
<event>
 4    1  0.1560907E+006  0.2262730E+02  0.7546771E-02  0.1497232E+00
         -2   -1    0    0    0  501 -0.00000000000E+00  0.00000000000E+00  0.50857661005E+02  0.50857661005E+02  0.00000000000E+00 0.  1.
         21   -1    0    0  503  502  0.00000000000E+00 -0.00000000000E+00 -0.12835406138E+02  0.12835406138E+02  0.00000000000E+00 0. -1.
         21    1    1    2  503  501  0.17470291261E+02  0.14379968898E+02  0.42215402166E+01  0.23017731949E+02  0.00000000000E+00 0. -1.
         -2    1    1    2    0  502 -0.17470291261E+02 -0.14379968898E+02  0.33800714651E+02  0.40675335194E+02  0.00000000000E+00 0.  1.
</event>
<event>
 4    1  0.1560907E+006  0.3068061E+02  0.7546771E-02  0.1413772E+00
         -3   -1    0    0    0  501 -0.00000000000E+00  0.00000000000E+00  0.35808441067E+03  0.35808441067E+03  0.00000000000E+00 0.  1.
         21   -1    0    0  503  502  0.00000000000E+00 -0.00000000000E+00 -0.41057089696E+01  0.41057089696E+01  0.00000000000E+00 0.  1.
         21    1    1    2  503  501 -0.25163595622E+02  0.17552582931E+02  0.68371109706E+02  0.74939364519E+02  0.00000000000E+00 0.  1.
         -3    1    1    2    0  502  0.25163595622E+02 -0.17552582931E+02  0.28560759200E+03  0.28725075512E+03  0.00000000000E+00 0.  1.
</event>
<event>
 4    1  0.1560907E+006  0.6563864E+02  0.7546771E-02  0.1241791E+00
         21   -1    0    0  503  502  0.00000000000E+00  0.00000000000E+00  0.31221715139E+03  0.31221715139E+03  0.00000000000E+00 0. -1.
          2   -1    0    0  502    0 -0.00000000000E+00 -0.00000000000E+00 -0.41333902873E+03  0.41333902873E+03  0.00000000000E+00 0.  1.
         21    1    1    2  503  501  0.14945743237E+01 -0.65621621865E+02  0.30611000914E+03  0.31306831316E+03  0.00000000000E+00 0. -1.
          2    1    1    2  501    0 -0.14945743237E+01  0.65621621865E+02 -0.40723188649E+03  0.41248786695E+03  0.00000000000E+00 0.  1.
</event>
<event>
 4    1  0.1560907E+006  0.3967670E+02  0.7546771E-02  0.1350391E+00
          2   -1    0    0  502    0 -0.00000000000E+00  0.00000000000E+00  0.20365892418E+04  0.20365892418E+04  0.00000000000E+00 0.  1.
         21   -1    0    0  503  502  0.00000000000E+00 -0.00000000000E+00 -0.15911723604E+03  0.15911723604E+03  0.00000000000E+00 0.  1.
         21    1    1    2  503  501  0.70629986998E+01  0.39042979139E+02 -0.15644734821E+03  0.16140016398E+03  0.00000000000E+00 0.  1.
          2    1    1    2  501    0 -0.70629986998E+01 -0.39042979139E+02  0.20339193540E+04  0.20343063139E+04  0.00000000000E+00 0.  1.
</event>
<event>
 4    1  0.1560907E+006  0.2989692E+02  0.7546771E-02  0.1420494E+00
         21   -1    0    0  501  502  0.00000000000E+00  0.00000000000E+00  0.57991939809E+03  0.57991939809E+03  0.00000000000E+00 0.  1.
         -3   -1    0    0    0  501 -0.00000000000E+00 -0.00000000000E+00 -0.48213070758E+01  0.48213070758E+01  0.00000000000E+00 0. -1.
         21    1    1    2  503  502  0.38486360333E+01  0.29648167212E+02  0.52869988388E+03  0.52954451468E+03  0.00000000000E+00 0.  1.
         -3    1    1    2    0  503 -0.38486360333E+01 -0.29648167212E+02  0.46398207134E+02  0.55196190480E+02  0.00000000000E+00 0. -1.
</event>
<event>
 4    1  0.1560907E+006  0.2060271E+02  0.7546771E-02  0.1525013E+00
          2   -1    0    0  503    0 -0.00000000000E+00  0.00000000000E+00  0.34881457919E+02  0.34881457919E+02  0.00000000000E+00 0.  1.
         21   -1    0    0  501  502  0.00000000000E+00 -0.00000000000E+00 -0.13534367112E+02  0.13534367112E+02  0.00000000000E+00 0. -1.
         21    1    1    2  503  502  0.17903443722E+02 -0.10195021068E+02  0.29846080931E+01  0.20817772146E+02  0.00000000000E+00 0. -1.
          2    1    1    2  501    0 -0.17903443722E+02  0.10195021068E+02  0.18362482714E+02  0.27598052886E+02  0.00000000000E+00 0.  1.
</event>
<event>
 4    1  0.1560907E+006  0.2355254E+02  0.7546771E-02  0.1485674E+00
         21   -1    0    0  503  502  0.00000000000E+00  0.00000000000E+00  0.14097189777E+03  0.14097189777E+03  0.00000000000E+00 0. -1.
          1   -1    0    0  502    0 -0.00000000000E+00 -0.00000000000E+00 -0.12579169259E+04  0.12579169259E+04  0.00000000000E+00 0.  1.
         21    1    1    2  503  501 -0.10407850619E+02 -0.21128147712E+02  0.13987704906E+03  0.14184608149E+03  0.00000000000E+00 0. -1.
          1    1    1    2  501    0  0.10407850619E+02  0.21128147712E+02 -0.12568220772E+04  0.12570427422E+04  0.00000000000E+00 0.  1.
</event>
<event>
 4    1  0.1560907E+006  0.3600063E+02  0.7546771E-02  0.1373662E+00
         -2   -1    0    0    0  501 -0.00000000000E+00  0.00000000000E+00  0.35943896642E+03  0.35943896642E+03  0.00000000000E+00 0.  1.
         21   -1    0    0  501  502  0.00000000000E+00 -0.00000000000E+00 -0.87955697314E+01  0.87955697314E+01  0.00000000000E+00 0. -1.
         21    1    1    2  503  502 -0.54073413710E+01  0.35592217703E+02  0.33892566816E+02  0.49444427260E+02  0.00000000000E+00 0. -1.
         -2    1    1    2    0  503  0.54073413710E+01 -0.35592217703E+02  0.31675082987E+03  0.31879010889E+03  0.00000000000E+00 0.  1.
</event>
<event>
 4    1  0.1560907E+006  0.3636171E+02  0.7546771E-02  0.1371235E+00
          4   -1    0    0  502    0 -0.00000000000E+00  0.00000000000E+00  0.90655607434E+03  0.90655607434E+03  0.00000000000E+00 0. -1.
         21   -1    0    0  503  502  0.00000000000E+00 -0.00000000000E+00 -0.39329535362E+01  0.39329535362E+01  0.00000000000E+00 0.  1.
         21    1    1    2  503  501 -0.22404731807E+02 -0.28639167545E+02  0.90210591513E+02  0.97263172610E+02  0.00000000000E+00 0.  1.
          4    1    1    2  501    0  0.22404731807E+02  0.28639167545E+02  0.81241252929E+03  0.81322585527E+03  0.00000000000E+00 0. -1.
</event>
<event>
 4    1  0.1560907E+006  0.2545509E+02  0.7546771E-02  0.1463776E+00
          2   -1    0    0  502    0 -0.00000000000E+00  0.00000000000E+00  0.38203615987E+01  0.38203615987E+01  0.00000000000E+00 0. -1.
         21   -1    0    0  503  502  0.00000000000E+00 -0.00000000000E+00 -0.34376532015E+03  0.34376532015E+03  0.00000000000E+00 0. -1.
         21    1    1    2  503  501 -0.48172966022E+01 -0.24995100549E+02 -0.29367328586E+03  0.29477442261E+03  0.00000000000E+00 0. -1.
          2    1    1    2  501    0  0.48172966022E+01  0.24995100549E+02 -0.46271672690E+02  0.52811259136E+02  0.00000000000E+00 0. -1.
</event>
<event>
 4    1  0.1560907E+006  0.3087344E+02  0.7546771E-02  0.1412155E+00
         -3   -1    0    0    0  501 -0.00000000000E+00  0.00000000000E+00  0.51151503982E+03  0.51151503982E+03  0.00000000000E+00 0. -1.
         21   -1    0    0  503  502  0.00000000000E+00 -0.00000000000E+00 -0.60919806281E+02  0.60919806281E+02  0.00000000000E+00 0. -1.
         21    1    1    2  503  501  0.30840753499E+02  0.14202899627E+01 -0.56508380094E+02  0.64392284637E+02  0.00000000000E+00 0. -1.
         -3    1    1    2    0  502 -0.30840753499E+02 -0.14202899627E+01  0.50710361363E+03  0.50804256146E+03  0.00000000000E+00 0. -1.
</event>
<event>
 4    1  0.1560907E+006  0.2265747E+02  0.7546771E-02  0.1496845E+00
         21   -1    0    0  501  502  0.00000000000E+00  0.00000000000E+00  0.53803880973E+00  0.53803880973E+00  0.00000000000E+00 0.  1.
          2   -1    0    0  503    0 -0.00000000000E+00 -0.00000000000E+00 -0.19120053689E+04  0.19120053689E+04  0.00000000000E+00 0. -1.
         21    1    1    2  503  502 -0.10847646822E+02 -0.19891946176E+02 -0.27888681219E+03  0.27980567359E+03  0.00000000000E+00 0.  1.
          2    1    1    2  501    0  0.10847646822E+02  0.19891946176E+02 -0.16325805179E+04  0.16327377342E+04  0.00000000000E+00 0. -1.
</event>
<event>
 4    1  0.1560907E+006  0.2090695E+02  0.7546771E-02  0.1520597E+00
          1   -1    0    0  502    0 -0.00000000000E+00  0.00000000000E+00  0.40773679594E+03  0.40773679594E+03  0.00000000000E+00 0.  1.
         21   -1    0    0  503  502  0.00000000000E+00 -0.00000000000E+00 -0.11075872422E+02  0.11075872422E+02  0.00000000000E+00 0. -1.
         21    1    1    2  503  501 -0.18587243187E+02  0.95715739824E+01 -0.68396159025E+00  0.20918136658E+02  0.00000000000E+00 0. -1.
          1    1    1    2  501    0  0.18587243187E+02 -0.95715739824E+01  0.39734488510E+03  0.39789453170E+03  0.00000000000E+00 0.  1.
</event>
<event>
 4    1  0.1560907E+006  0.2759637E+02  0.7546771E-02  0.1441708E+00
         21   -1    0    0  501  502  0.00000000000E+00  0.00000000000E+00  0.15096038236E+01  0.15096038236E+01  0.00000000000E+00 0. -1.
          2   -1    0    0  503    0 -0.00000000000E+00 -0.00000000000E+00 -0.82675346514E+03  0.82675346514E+03  0.00000000000E+00 0.  1.
         21    1    1    2  503  502 -0.25271363325E+02  0.11086834151E+02 -0.15405980866E+03  0.15651193034E+03  0.00000000000E+00 0. -1.
          2    1    1    2  501    0  0.25271363325E+02 -0.11086834151E+02 -0.67118405266E+03  0.67175113862E+03  0.00000000000E+00 0.  1.
</event>
<event>
 4    1  0.1560907E+006  0.2275280E+02  0.7546771E-02  0.1495626E+00
          1   -1    0    0  503    0 -0.00000000000E+00  0.00000000000E+00  0.11363397647E+04  0.11363397647E+04  0.00000000000E+00 0.  1.
         21   -1    0    0  501  502  0.00000000000E+00 -0.00000000000E+00 -0.56859674983E+01  0.56859674983E+01  0.00000000000E+00 0.  1.
         21    1    1    2  503  502  0.21525884320E+02  0.73706347214E+01  0.17667209043E+02  0.28806600413E+02  0.00000000000E+00 0.  1.
          1    1    1    2  501    0 -0.21525884320E+02 -0.73706347214E+01  0.11129865881E+04  0.11132191318E+04  0.00000000000E+00 0.  1.
</event>
<event>
 4    1  0.1560907E+006  0.2374101E+02  0.7546771E-02  0.1483397E+00
         -1   -1    0    0    0  501 -0.00000000000E+00  0.00000000000E+00  0.39756198173E+01  0.39756198173E+01  0.00000000000E+00 0. -1.
         21   -1    0    0  501  502  0.00000000000E+00 -0.00000000000E+00 -0.50981985770E+03  0.50981985770E+03  0.00000000000E+00 0.  1.
         21    1    1    2  503  502 -0.19912140231E+02 -0.12928343969E+02 -0.47119686218E+03  0.47179457218E+03  0.00000000000E+00 0.  1.
         -1    1    1    2    0  503  0.19912140231E+02  0.12928343969E+02 -0.34647375699E+02  0.42000905338E+02  0.00000000000E+00 0. -1.
</event>
<event>
 4    1  0.1560907E+006  0.2745004E+02  0.7546771E-02  0.1443139E+00
         -3   -1    0    0    0  501 -0.00000000000E+00  0.00000000000E+00  0.73073600994E+02  0.73073600994E+02  0.00000000000E+00 0.  1.
         21   -1    0    0  503  502  0.00000000000E+00 -0.00000000000E+00 -0.12310757318E+02  0.12310757318E+02  0.00000000000E+00 0.  1.
         21    1    1    2  503  501 -0.27377508523E+02  0.19941838934E+01  0.13177363259E+02  0.30449099245E+02  0.00000000000E+00 0.  1.
         -3    1    1    2    0  502  0.27377508523E+02 -0.19941838934E+01  0.47585480417E+02  0.54935259068E+02  0.00000000000E+00 0.  1.
</event>
<event>
 4    1  0.1560907E+006  0.2422536E+02  0.7546771E-02  0.1477659E+00
         21   -1    0    0  501  502  0.00000000000E+00  0.00000000000E+00  0.34590392325E+01  0.34590392325E+01  0.00000000000E+00 0. -1.
          1   -1    0    0  503    0 -0.00000000000E+00 -0.00000000000E+00 -0.29622045646E+03  0.29622045646E+03  0.00000000000E+00 0. -1.
         21    1    1    2  503  502 -0.69460331576E+01 -0.23208197940E+02 -0.48439617250E+02  0.54159619160E+02  0.00000000000E+00 0. -1.
          1    1    1    2  501    0  0.69460331576E+01  0.23208197940E+02 -0.24432179998E+03  0.24551987653E+03  0.00000000000E+00 0. -1.
</event>
<event>
 4    1  0.1560907E+006  0.2052849E+02  0.7546771E-02  0.1526104E+00
         -2   -1    0    0    0  501 -0.00000000000E+00  0.00000000000E+00  0.76071551837E+01  0.76071551837E+01  0.00000000000E+00 0. -1.
         21   -1    0    0  501  502  0.00000000000E+00 -0.00000000000E+00 -0.11593959865E+03  0.11593959865E+03  0.00000000000E+00 0. -1.
         21    1    1    2  503  502  0.81181319323E+01  0.18855104001E+02 -0.98805114358E+02  0.10091516059E+03  0.00000000000E+00 0. -1.
         -2    1    1    2    0  503 -0.81181319323E+01 -0.18855104001E+02 -0.95273291085E+01  0.22631593247E+02  0.00000000000E+00 0. -1.
</event>
<event>
 4    1  0.1560907E+006  0.3198569E+02  0.7546771E-02  0.1403091E+00
         21   -1    0    0  501  502  0.00000000000E+00  0.00000000000E+00  0.12594503407E+03  0.12594503407E+03  0.00000000000E+00 0.  1.
          1   -1    0    0  503    0 -0.00000000000E+00 -0.00000000000E+00 -0.19723975801E+02  0.19723975801E+02  0.00000000000E+00 0.  1.
         21    1    1    2  503  502  0.24618545031E+02 -0.20420856238E+02  0.10896813984E+03  0.11356557414E+03  0.00000000000E+00 0.  1.
          1    1    1    2  501    0 -0.24618545031E+02  0.20420856238E+02 -0.27470815675E+01  0.32103435737E+02  0.00000000000E+00 0.  1.
</event>
<event>
 4    1  0.1560907E+006  0.2070883E+02  0.7546771E-02  0.1523463E+00
         21   -1    0    0  501  502  0.00000000000E+00  0.00000000000E+00  0.55749305137E+02  0.55749305137E+02  0.00000000000E+00 0. -1.
          2   -1    0    0  503    0 -0.00000000000E+00 -0.00000000000E+00 -0.77218154583E+01  0.77218154583E+01  0.00000000000E+00 0. -1.
         21    1    1    2  503  502  0.17270236738E+02  0.11427792846E+02  0.22060740804E+02  0.30257756215E+02  0.00000000000E+00 0. -1.
          2    1    1    2  501    0 -0.17270236738E+02 -0.11427792846E+02  0.25966748874E+02  0.33213364380E+02  0.00000000000E+00 0. -1.
</event>
<event>
 4    1  0.1560907E+006  0.2311001E+02  0.7546771E-02  0.1491121E+00
         21   -1    0    0  501  502  0.00000000000E+00  0.00000000000E+00  0.20428329017E+03  0.20428329017E+03  0.00000000000E+00 0.  1.
          3   -1    0    0  503    0 -0.00000000000E+00 -0.00000000000E+00 -0.42005094043E+02  0.42005094043E+02  0.00000000000E+00 0. -1.
         21    1    1    2  503  502 -0.19979418641E+02 -0.11614438383E+02  0.20038952113E+03  0.20171770505E+03  0.00000000000E+00 0.  1.
          3    1    1    2  501    0  0.19979418641E+02  0.11614438383E+02 -0.38111325004E+02  0.44570679171E+02  0.00000000000E+00 0. -1.
</event>
