<event>
 4    1  0.2402120E+005  0.2141929E+02  0.7546771E-02  0.1513362E+00
          2   -1    0    0  502    0  0.00000000000E+00  0.00000000000E+00  0.77702062272E+03  0.77702062272E+03  0.00000000000E+00 0.  1.
         21   -1    0    0  503  502 -0.00000000000E+00 -0.00000000000E+00 -0.16213236332E+02  0.16213236332E+02  0.00000000000E+00 0.  1.
          2    1    1    2  501    0 -0.76691611584E+00  0.21405551645E+02  0.76973178910E+03  0.77002974810E+03  0.00000000000E+00 0.  1.
         21    1    1    2  503  501  0.76691611584E+00 -0.21405551645E+02 -0.89244027110E+01  0.23204110957E+02  0.00000000000E+00 0.  1.
</event>
<event>
 4    1  0.2402120E+005  0.2171863E+02  0.7546771E-02  0.1509247E+00
          2   -1    0    0  503    0  0.00000000000E+00  0.00000000000E+00  0.77205723595E+01  0.77205723595E+01  0.00000000000E+00 0. -1.
         21   -1    0    0  501  502 -0.00000000000E+00 -0.00000000000E+00 -0.73395738956E+02  0.73395738956E+02  0.00000000000E+00 0.  1.
          2    1    1    2  501    0 -0.19972298199E+02 -0.85326620815E+01 -0.16234680549E+02  0.27115749483E+02  0.00000000000E+00 0. -1.
         21    1    1    2  503  502  0.19972298199E+02  0.85326620815E+01 -0.49440486048E+02  0.54000561832E+02  0.00000000000E+00 0.  1.
</event>
<event>
 4    1  0.2402120E+005  0.2219503E+02  0.7546771E-02  0.1502861E+00
          2   -1    0    0  502    0  0.00000000000E+00  0.00000000000E+00  0.30239419902E+02  0.30239419902E+02  0.00000000000E+00 0. -1.
         21   -1    0    0  503  502 -0.00000000000E+00 -0.00000000000E+00 -0.10009739955E+03  0.10009739955E+03  0.00000000000E+00 0. -1.
          2    1    1    2  501    0 -0.58031588464E+01  0.21422943515E+02  0.24701074713E+02  0.33207864331E+02  0.00000000000E+00 0. -1.
         21    1    1    2  503  501  0.58031588464E+01 -0.21422943515E+02 -0.94559054363E+02  0.97128955124E+02  0.00000000000E+00 0. -1.
</event>
<event>
 4    1  0.2402120E+005  0.2187366E+02  0.7546771E-02  0.1507148E+00
          2   -1    0    0  502    0  0.00000000000E+00  0.00000000000E+00  0.19868381957E+03  0.19868381957E+03  0.00000000000E+00 0. -1.
         21   -1    0    0  503  502 -0.00000000000E+00 -0.00000000000E+00 -0.33544107202E+01  0.33544107202E+01  0.00000000000E+00 0. -1.
          2    1    1    2  501    0 -0.40172952794E+01 -0.21501585348E+02  0.15131906369E+03  0.15289184370E+03  0.00000000000E+00 0. -1.
         21    1    1    2  503  501  0.40172952794E+01  0.21501585348E+02  0.44010345162E+02  0.49146386593E+02  0.00000000000E+00 0. -1.
</event>
<event>
 4    1  0.2402120E+005  0.2022830E+02  0.7546771E-02  0.1530574E+00
          2   -1    0    0  503    0  0.00000000000E+00  0.00000000000E+00  0.26418938582E+03  0.26418938582E+03  0.00000000000E+00 0. -1.
         21   -1    0    0  501  502 -0.00000000000E+00 -0.00000000000E+00 -0.16835937204E+01  0.16835937204E+01  0.00000000000E+00 0. -1.
          2    1    1    2  501    0 -0.11605948172E+02  0.16567617770E+02  0.93641900543E+02  0.95801824246E+02  0.00000000000E+00 0. -1.
         21    1    1    2  503  502  0.11605948172E+02 -0.16567617770E+02  0.16886389156E+03  0.17007115530E+03  0.00000000000E+00 0. -1.
</event>
<event>
 4    1  0.2402120E+005  0.2250921E+02  0.7546771E-02  0.1498755E+00
          2   -1    0    0  503    0  0.00000000000E+00  0.00000000000E+00  0.78182762928E+03  0.78182762928E+03  0.00000000000E+00 0.  1.
         21   -1    0    0  501  502 -0.00000000000E+00 -0.00000000000E+00 -0.66058252569E+02  0.66058252569E+02  0.00000000000E+00 0. -1.
          2    1    1    2  501    0 -0.12887355169E+02 -0.18454828963E+02  0.77974299925E+03  0.78006782367E+03  0.00000000000E+00 0.  1.
         21    1    1    2  503  502  0.12887355169E+02  0.18454828963E+02 -0.63973622539E+02  0.67818058186E+02  0.00000000000E+00 0. -1.
</event>
<event>
 4    1  0.2402120E+005  0.3810758E+02  0.7546771E-02  0.1359947E+00
          2   -1    0    0  503    0  0.00000000000E+00  0.00000000000E+00  0.26607708968E+04  0.26607708968E+04  0.00000000000E+00 0.  1.
         21   -1    0    0  501  502 -0.00000000000E+00 -0.00000000000E+00 -0.20175242103E+03  0.20175242103E+03  0.00000000000E+00 0.  1.
          2    1    1    2  501    0 -0.12035621949E+02  0.36157037696E+02  0.26588336741E+04  0.26591067474E+04  0.00000000000E+00 0.  1.
         21    1    1    2  503  502  0.12035621949E+02 -0.36157037696E+02 -0.19981519841E+03  0.20341657034E+03  0.00000000000E+00 0.  1.
</event>
<event>
 4    1  0.2402120E+005  0.2266234E+02  0.7546771E-02  0.1496782E+00
          2   -1    0    0  502    0  0.00000000000E+00  0.00000000000E+00  0.48771985959E+03  0.48771985959E+03  0.00000000000E+00 0.  1.
         21   -1    0    0  503  502 -0.00000000000E+00 -0.00000000000E+00 -0.80311844361E+02  0.80311844361E+02  0.00000000000E+00 0. -1.
          2    1    1    2  501    0 -0.49596822966E+01  0.22112968188E+02  0.48585174799E+03  0.48637999839E+03  0.00000000000E+00 0.  1.
         21    1    1    2  503  501  0.49596822966E+01 -0.22112968188E+02 -0.78443732763E+02  0.81651705557E+02  0.00000000000E+00 0. -1.
</event>
<event>
 4    1  0.2402120E+005  0.2594741E+02  0.7546771E-02  0.1458478E+00
          2   -1    0    0  503    0  0.00000000000E+00  0.00000000000E+00  0.38091425118E+03  0.38091425118E+03  0.00000000000E+00 0.  1.
         21   -1    0    0  501  502 -0.00000000000E+00 -0.00000000000E+00 -0.16251479338E+02  0.16251479338E+02  0.00000000000E+00 0.  1.
          2    1    1    2  501    0 -0.25936291323E+02  0.75959084818E+00  0.36980458161E+03  0.37071376662E+03  0.00000000000E+00 0.  1.
         21    1    1    2  503  502  0.25936291323E+02 -0.75959084818E+00 -0.51418097719E+01  0.26451963889E+02  0.00000000000E+00 0.  1.
</event>
<event>
 4    1  0.2402120E+005  0.4303301E+02  0.7546771E-02  0.1331574E+00
          2   -1    0    0  502    0  0.00000000000E+00  0.00000000000E+00  0.12680784565E+03  0.12680784565E+03  0.00000000000E+00 0.  1.
         21   -1    0    0  503  502 -0.00000000000E+00 -0.00000000000E+00 -0.15286386733E+02  0.15286386733E+02  0.00000000000E+00 0.  1.
          2    1    1    2  501    0 -0.10135705558E+01  0.43021074884E+02  0.70777058236E+02  0.82832555086E+02  0.00000000000E+00 0.  1.
         21    1    1    2  503  501  0.10135705558E+01 -0.43021074884E+02  0.40744400683E+02  0.59261677300E+02  0.00000000000E+00 0.  1.
</event>
<event>
 4    1  0.2402120E+005  0.6349551E+02  0.7546771E-02  0.1248397E+00
          2   -1    0    0  502    0  0.00000000000E+00  0.00000000000E+00  0.51687760729E+03  0.51687760729E+03  0.00000000000E+00 0.  1.
         21   -1    0    0  503  502 -0.00000000000E+00 -0.00000000000E+00 -0.10191965102E+02  0.10191965102E+02  0.00000000000E+00 0. -1.
          2    1    1    2  501    0 -0.51497131023E+02 -0.37144652643E+02  0.38101032448E+03  0.38626486649E+03  0.00000000000E+00 0.  1.
         21    1    1    2  503  501  0.51497131023E+02  0.37144652643E+02  0.12567531772E+03  0.14080470591E+03  0.00000000000E+00 0. -1.
</event>
<event>
 4    1  0.2402120E+005  0.2686333E+02  0.7546771E-02  0.1448986E+00
          2   -1    0    0  502    0  0.00000000000E+00  0.00000000000E+00  0.10780162933E+03  0.10780162933E+03  0.00000000000E+00 0.  1.
         21   -1    0    0  503  502 -0.00000000000E+00 -0.00000000000E+00 -0.14837676931E+03  0.14837676931E+03  0.00000000000E+00 0.  1.
          2    1    1    2  501    0 -0.22593709511E+00  0.26862375096E+02  0.10487886220E+03  0.10826455551E+03  0.00000000000E+00 0.  1.
         21    1    1    2  503  501  0.22593709511E+00 -0.26862375096E+02 -0.14545400217E+03  0.14791384314E+03  0.00000000000E+00 0.  1.
</event>
<event>
 4    1  0.2402120E+005  0.2343856E+02  0.7546771E-02  0.1487063E+00
          2   -1    0    0  502    0  0.00000000000E+00  0.00000000000E+00  0.12752714723E+02  0.12752714723E+02  0.00000000000E+00 0. -1.
         21   -1    0    0  503  502 -0.00000000000E+00 -0.00000000000E+00 -0.10674910424E+03  0.10674910424E+03  0.00000000000E+00 0. -1.
          2    1    1    2  501    0  0.19137666218E+02 -0.13532034741E+02 -0.85238078200E+00  0.23454056909E+02  0.00000000000E+00 0. -1.
         21    1    1    2  503  501 -0.19137666218E+02  0.13532034741E+02 -0.93144008731E+02  0.96047762050E+02  0.00000000000E+00 0. -1.
</event>
<event>
 4    1  0.2402120E+005  0.2529449E+02  0.7546771E-02  0.1465536E+00
          2   -1    0    0  503    0  0.00000000000E+00  0.00000000000E+00  0.28592708062E+03  0.28592708062E+03  0.00000000000E+00 0. -1.
         21   -1    0    0  501  502 -0.00000000000E+00 -0.00000000000E+00 -0.97844116633E+01  0.97844116633E+01  0.00000000000E+00 0. -1.
          2    1    1    2  501    0  0.20868825791E+02  0.14293474247E+02  0.26792389138E+03  0.26911525945E+03  0.00000000000E+00 0. -1.
         21    1    1    2  503  502 -0.20868825791E+02 -0.14293474247E+02  0.82187775714E+01  0.26596232829E+02  0.00000000000E+00 0. -1.
</event>
<event>
 4    1  0.2402120E+005  0.3849908E+02  0.7546771E-02  0.1357513E+00
          2   -1    0    0  502    0  0.00000000000E+00  0.00000000000E+00  0.51210527596E+03  0.51210527596E+03  0.00000000000E+00 0. -1.
         21   -1    0    0  503  502 -0.00000000000E+00 -0.00000000000E+00 -0.15763841619E+02  0.15763841619E+02  0.00000000000E+00 0. -1.
          2    1    1    2  501    0 -0.30321912116E+02  0.23722579955E+02  0.48664799328E+03  0.48816846325E+03  0.00000000000E+00 0. -1.
         21    1    1    2  503  501  0.30321912116E+02 -0.23722579955E+02  0.96934410619E+01  0.39700654323E+02  0.00000000000E+00 0. -1.
</event>
<event>
 4    1  0.2402120E+005  0.2336446E+02  0.7546771E-02  0.1487972E+00
          2   -1    0    0  502    0  0.00000000000E+00  0.00000000000E+00  0.20876274083E+03  0.20876274083E+03  0.00000000000E+00 0.  1.
         21   -1    0    0  503  502 -0.00000000000E+00 -0.00000000000E+00 -0.12816226979E+02  0.12816226979E+02  0.00000000000E+00 0.  1.
          2    1    1    2  501    0  0.82691255074E+01  0.21852223416E+02  0.19681635020E+03  0.19819831939E+03  0.00000000000E+00 0.  1.
         21    1    1    2  503  501 -0.82691255074E+01 -0.21852223416E+02 -0.86983635209E+00  0.23380648411E+02  0.00000000000E+00 0.  1.
</event>
<event>
 4    1  0.2402120E+005  0.2288898E+02  0.7546771E-02  0.1493897E+00
          2   -1    0    0  503    0  0.00000000000E+00  0.00000000000E+00  0.23902869298E+02  0.23902869298E+02  0.00000000000E+00 0.  1.
         21   -1    0    0  501  502 -0.00000000000E+00 -0.00000000000E+00 -0.29653843893E+02  0.29653843893E+02  0.00000000000E+00 0.  1.
          2    1    1    2  501    0 -0.67786157112E+01  0.21862194843E+02  0.10801637153E+02  0.25309692995E+02  0.00000000000E+00 0.  1.
         21    1    1    2  503  502  0.67786157112E+01 -0.21862194843E+02 -0.16552611749E+02  0.28247020197E+02  0.00000000000E+00 0.  1.
</event>
<event>
 4    1  0.2402120E+005  0.2989789E+02  0.7546771E-02  0.1420486E+00
          2   -1    0    0  502    0  0.00000000000E+00  0.00000000000E+00  0.19110172005E+04  0.19110172005E+04  0.00000000000E+00 0.  1.
         21   -1    0    0  503  502 -0.00000000000E+00 -0.00000000000E+00 -0.11751645868E+01  0.11751645868E+01  0.00000000000E+00 0.  1.
          2    1    1    2  501    0 -0.90195907551E+00 -0.29884282602E+02  0.16967236076E+04  0.16969870019E+04  0.00000000000E+00 0.  1.
         21    1    1    2  503  501  0.90195907551E+00  0.29884282602E+02  0.21311842823E+03  0.21520536315E+03  0.00000000000E+00 0.  1.
</event>
<event>
 4    1  0.2402120E+005  0.2042441E+02  0.7546771E-02  0.1527644E+00
          2   -1    0    0  502    0  0.00000000000E+00  0.00000000000E+00  0.33956307607E+03  0.33956307607E+03  0.00000000000E+00 0. -1.
         21   -1    0    0  503  502 -0.00000000000E+00 -0.00000000000E+00 -0.30440838778E+01  0.30440838778E+01  0.00000000000E+00 0. -1.
          2    1    1    2  501    0 -0.11562237187E+02  0.16836597450E+02  0.30055503426E+03  0.30124821155E+03  0.00000000000E+00 0. -1.
         21    1    1    2  503  501  0.11562237187E+02 -0.16836597450E+02  0.35963957928E+02  0.41358948394E+02  0.00000000000E+00 0. -1.
</event>
<event>
 4    1  0.2402120E+005  0.3318776E+02  0.7546771E-02  0.1393772E+00
          2   -1    0    0  502    0  0.00000000000E+00  0.00000000000E+00  0.13844952469E+02  0.13844952469E+02  0.00000000000E+00 0. -1.
         21   -1    0    0  503  502 -0.00000000000E+00 -0.00000000000E+00 -0.35197158523E+03  0.35197158523E+03  0.00000000000E+00 0.  1.
          2    1    1    2  501    0 -0.29676521591E+02  0.14857034636E+02 -0.81482318797E+01  0.34173397470E+02  0.00000000000E+00 0. -1.
         21    1    1    2  503  501  0.29676521591E+02 -0.14857034636E+02 -0.32997840088E+03  0.33164314023E+03  0.00000000000E+00 0.  1.
</event>
<event>
 4    1  0.2402120E+005  0.2260348E+02  0.7546771E-02  0.1497538E+00
          2   -1    0    0  503    0  0.00000000000E+00  0.00000000000E+00  0.20984257801E+03  0.20984257801E+03  0.00000000000E+00 0.  1.
         21   -1    0    0  501  502 -0.00000000000E+00 -0.00000000000E+00 -0.49336391192E+02  0.49336391192E+02  0.00000000000E+00 0. -1.
          2    1    1    2  501    0 -0.13341814733E+02 -0.18245911841E+02  0.20660448359E+03  0.20783726797E+03  0.00000000000E+00 0.  1.
         21    1    1    2  503  502  0.13341814733E+02  0.18245911841E+02 -0.46098296774E+02  0.51341701226E+02  0.00000000000E+00 0. -1.
</event>
<event>
 4    1  0.2402120E+005  0.3261826E+02  0.7546771E-02  0.1398128E+00
          2   -1    0    0  502    0  0.00000000000E+00  0.00000000000E+00  0.55894003395E+03  0.55894003395E+03  0.00000000000E+00 0. -1.
         21   -1    0    0  503  502 -0.00000000000E+00 -0.00000000000E+00 -0.10888085247E+03  0.10888085247E+03  0.00000000000E+00 0.  1.
          2    1    1    2  501    0  0.15643214198E+02 -0.28622386940E+02  0.55600835985E+03  0.55696431431E+03  0.00000000000E+00 0. -1.
         21    1    1    2  503  501 -0.15643214198E+02  0.28622386940E+02 -0.10594917837E+03  0.11085657212E+03  0.00000000000E+00 0.  1.
</event>
<event>
 4    1  0.2402120E+005  0.3577099E+02  0.7546771E-02  0.1375222E+00
          2   -1    0    0  502    0  0.00000000000E+00  0.00000000000E+00  0.94490861222E+01  0.94490861222E+01  0.00000000000E+00 0. -1.
         21   -1    0    0  503  502 -0.00000000000E+00 -0.00000000000E+00 -0.16010703667E+03  0.16010703667E+03  0.00000000000E+00 0. -1.
          2    1    1    2  501    0  0.62213435210E+01  0.35225823279E+02 -0.42036807450E+02  0.55196529977E+02  0.00000000000E+00 0. -1.
         21    1    1    2  503  501 -0.62213435210E+01 -0.35225823279E+02 -0.10862114309E+03  0.11435959281E+03  0.00000000000E+00 0. -1.
</event>
<event>
 4    1  0.2402120E+005  0.2690274E+02  0.7546771E-02  0.1448588E+00
          2   -1    0    0  502    0  0.00000000000E+00  0.00000000000E+00  0.17366434456E+03  0.17366434456E+03  0.00000000000E+00 0.  1.
         21   -1    0    0  503  502 -0.00000000000E+00 -0.00000000000E+00 -0.15132686174E+03  0.15132686174E+03  0.00000000000E+00 0. -1.
          2    1    1    2  501    0  0.19745852187E+02  0.18271796054E+02  0.17141114671E+03  0.17350947647E+03  0.00000000000E+00 0.  1.
         21    1    1    2  503  501 -0.19745852187E+02 -0.18271796054E+02 -0.14907366388E+03  0.15148172983E+03  0.00000000000E+00 0. -1.
</event>
<event>
 4    1  0.2402120E+005  0.3173884E+02  0.7546771E-02  0.1405064E+00
          2   -1    0    0  502    0  0.00000000000E+00  0.00000000000E+00  0.65706475257E+03  0.65706475257E+03  0.00000000000E+00 0. -1.
         21   -1    0    0  503  502 -0.00000000000E+00 -0.00000000000E+00 -0.21467906058E+02  0.21467906058E+02  0.00000000000E+00 0. -1.
          2    1    1    2  501    0  0.21548488129E+02  0.23302720134E+02  0.64472617619E+03  0.64550692976E+03  0.00000000000E+00 0. -1.
         21    1    1    2  503  501 -0.21548488129E+02 -0.23302720134E+02 -0.91293296837E+01  0.33025728861E+02  0.00000000000E+00 0. -1.
</event>
<event>
 4    1  0.2402120E+005  0.2150881E+02  0.7546771E-02  0.1512123E+00
          2   -1    0    0  502    0  0.00000000000E+00  0.00000000000E+00  0.32599706706E+03  0.32599706706E+03  0.00000000000E+00 0. -1.
         21   -1    0    0  503  502 -0.00000000000E+00 -0.00000000000E+00 -0.11760900239E+02  0.11760900239E+02  0.00000000000E+00 0. -1.
          2    1    1    2  501    0  0.16932924427E+02 -0.13262923102E+02  0.31548080961E+03  0.31621317223E+03  0.00000000000E+00 0. -1.
         21    1    1    2  503  501 -0.16932924427E+02  0.13262923102E+02 -0.12446427907E+01  0.21544795068E+02  0.00000000000E+00 0. -1.
</event>
<event>
 4    1  0.2402120E+005  0.2440829E+02  0.7546771E-02  0.1475533E+00
          2   -1    0    0  502    0  0.00000000000E+00  0.00000000000E+00  0.19050876251E+04  0.19050876251E+04  0.00000000000E+00 0.  1.
         21   -1    0    0  503  502 -0.00000000000E+00 -0.00000000000E+00 -0.68228556520E+00  0.68228556520E+00  0.00000000000E+00 0.  1.
          2    1    1    2  501    0 -0.10143787097E+02  0.22200630096E+02  0.16534988363E+04  0.16536789792E+04  0.00000000000E+00 0.  1.
         21    1    1    2  503  501  0.10143787097E+02 -0.22200630096E+02  0.25090650321E+03  0.25209093150E+03  0.00000000000E+00 0.  1.
</event>
<event>
 4    1  0.2402120E+005  0.2047882E+02  0.7546771E-02  0.1526838E+00
          2   -1    0    0  503    0  0.00000000000E+00  0.00000000000E+00  0.32141321520E+02  0.32141321520E+02  0.00000000000E+00 0. -1.
         21   -1    0    0  501  502 -0.00000000000E+00 -0.00000000000E+00 -0.37214389586E+02  0.37214389586E+02  0.00000000000E+00 0.  1.
          2    1    1    2  501    0 -0.18640626774E+02 -0.84799259819E+01  0.25408334389E+02  0.32633810191E+02  0.00000000000E+00 0. -1.
         21    1    1    2  503  502  0.18640626774E+02  0.84799259819E+01 -0.30481402454E+02  0.36721900915E+02  0.00000000000E+00 0.  1.
</event>
<event>
 4    1  0.2402120E+005  0.4387289E+02  0.7546771E-02  0.1327172E+00
          2   -1    0    0  503    0  0.00000000000E+00  0.00000000000E+00  0.37175070848E+03  0.37175070848E+03  0.00000000000E+00 0. -1.
         21   -1    0    0  501  502 -0.00000000000E+00 -0.00000000000E+00 -0.88807225266E+01  0.88807225266E+01  0.00000000000E+00 0. -1.
          2    1    1    2  501    0 -0.10221127133E+02  0.42665663574E+02  0.30432768365E+03  0.30747385144E+03  0.00000000000E+00 0. -1.
         21    1    1    2  503  502  0.10221127133E+02 -0.42665663574E+02  0.58542302306E+02  0.73157579562E+02  0.00000000000E+00 0. -1.
</event>
<event>
 4    1  0.2402120E+005  0.2018582E+02  0.7546771E-02  0.1531214E+00
          2   -1    0    0  502    0  0.00000000000E+00  0.00000000000E+00  0.10689636448E+03  0.10689636448E+03  0.00000000000E+00 0. -1.
         21   -1    0    0  503  502 -0.00000000000E+00 -0.00000000000E+00 -0.14636242269E+02  0.14636242269E+02  0.00000000000E+00 0. -1.
          2    1    1    2  501    0  0.19445238096E+02 -0.54175564395E+01  0.98387828867E+02  0.10043720462E+03  0.00000000000E+00 0. -1.
         21    1    1    2  503  501 -0.19445238096E+02  0.54175564395E+01 -0.61277066533E+01  0.21095402134E+02  0.00000000000E+00 0. -1.
</event>
<event>
 4    1  0.2402120E+005  0.2470017E+02  0.7546771E-02  0.1472186E+00
          2   -1    0    0  503    0  0.00000000000E+00  0.00000000000E+00  0.22393692999E+03  0.22393692999E+03  0.00000000000E+00 0.  1.
         21   -1    0    0  501  502 -0.00000000000E+00 -0.00000000000E+00 -0.81866560355E+02  0.81866560355E+02  0.00000000000E+00 0. -1.
          2    1    1    2  501    0 -0.24488162282E+02  0.32292657728E+01  0.22137121091E+03  0.22274494667E+03  0.00000000000E+00 0.  1.
         21    1    1    2  503  502  0.24488162282E+02 -0.32292657728E+01 -0.79300841276E+02  0.83058543669E+02  0.00000000000E+00 0. -1.
</event>
<event>
 4    1  0.2402120E+005  0.3914526E+02  0.7546771E-02  0.1353569E+00
          2   -1    0    0  502    0  0.00000000000E+00  0.00000000000E+00  0.17654497896E+04  0.17654497896E+04  0.00000000000E+00 0. -1.
         21   -1    0    0  503  502 -0.00000000000E+00 -0.00000000000E+00 -0.12960204368E+01  0.12960204368E+01  0.00000000000E+00 0. -1.
          2    1    1    2  501    0 -0.37144427263E+02  0.12354889132E+02  0.13897536143E+04  0.13903048083E+04  0.00000000000E+00 0. -1.
         21    1    1    2  503  501  0.37144427263E+02 -0.12354889132E+02  0.37440015491E+03  0.37644100169E+03  0.00000000000E+00 0. -1.
</event>
<event>
 4    1  0.2402120E+005  0.2182553E+02  0.7546771E-02  0.1507797E+00
          2   -1    0    0  502    0  0.00000000000E+00  0.00000000000E+00  0.79134664738E+03  0.79134664738E+03  0.00000000000E+00 0. -1.
         21   -1    0    0  503  502 -0.00000000000E+00 -0.00000000000E+00 -0.25254400993E+02  0.25254400993E+02  0.00000000000E+00 0.  1.
          2    1    1    2  501    0  0.16220015291E+02 -0.14603594104E+02  0.78645125905E+03  0.78675405097E+03  0.00000000000E+00 0. -1.
         21    1    1    2  503  501 -0.16220015291E+02  0.14603594104E+02 -0.20359012668E+02  0.29846997397E+02  0.00000000000E+00 0.  1.
</event>
<event>
 4    1  0.2402120E+005  0.2296310E+02  0.7546771E-02  0.1492962E+00
          2   -1    0    0  502    0  0.00000000000E+00  0.00000000000E+00  0.26884606432E+02  0.26884606432E+02  0.00000000000E+00 0.  1.
         21   -1    0    0  503  502 -0.00000000000E+00 -0.00000000000E+00 -0.22531163150E+03  0.22531163150E+03  0.00000000000E+00 0. -1.
          2    1    1    2  501    0 -0.20247718136E+02 -0.10832077094E+02  0.21271178174E+02  0.31301230084E+02  0.00000000000E+00 0.  1.
         21    1    1    2  503  501  0.20247718136E+02  0.10832077094E+02 -0.21969820324E+03  0.22089500784E+03  0.00000000000E+00 0. -1.
</event>
<event>
 4    1  0.2402120E+005  0.2288701E+02  0.7546771E-02  0.1493922E+00
          2   -1    0    0  502    0  0.00000000000E+00  0.00000000000E+00  0.95579616770E+02  0.95579616770E+02  0.00000000000E+00 0. -1.
         21   -1    0    0  503  502 -0.00000000000E+00 -0.00000000000E+00 -0.29025853971E+02  0.29025853971E+02  0.00000000000E+00 0.  1.
          2    1    1    2  501    0  0.18559081842E+02 -0.13393118277E+02  0.89390475639E+02  0.92273898102E+02  0.00000000000E+00 0. -1.
         21    1    1    2  503  501 -0.18559081842E+02  0.13393118277E+02 -0.22836712840E+02  0.32331572639E+02  0.00000000000E+00 0.  1.
</event>
<event>
 4    1  0.2402120E+005  0.4397551E+02  0.7546771E-02  0.1326642E+00
          2   -1    0    0  502    0  0.00000000000E+00  0.00000000000E+00  0.14364872798E+04  0.14364872798E+04  0.00000000000E+00 0. -1.
         21   -1    0    0  503  502 -0.00000000000E+00 -0.00000000000E+00 -0.40456411411E+02  0.40456411411E+02  0.00000000000E+00 0.  1.
          2    1    1    2  501    0  0.41222157655E+02  0.15315966036E+02  0.14240965943E+04  0.14247754051E+04  0.00000000000E+00 0. -1.
         21    1    1    2  503  501 -0.41222157655E+02 -0.15315966036E+02 -0.28065725954E+02  0.52168286062E+02  0.00000000000E+00 0.  1.
</event>
<event>
 4    1  0.2402120E+005  0.2874623E+02  0.7546771E-02  0.1430814E+00
          2   -1    0    0  503    0  0.00000000000E+00  0.00000000000E+00  0.43404430983E+03  0.43404430983E+03  0.00000000000E+00 0. -1.
         21   -1    0    0  501  502 -0.00000000000E+00 -0.00000000000E+00 -0.32952756720E+01  0.32952756720E+01  0.00000000000E+00 0.  1.
          2    1    1    2  501    0 -0.19559335585E+02  0.21066040637E+02  0.35746872277E+03  0.35862268951E+03  0.00000000000E+00 0. -1.
         21    1    1    2  503  502  0.19559335585E+02 -0.21066040637E+02  0.73280311396E+02  0.78716895994E+02  0.00000000000E+00 0.  1.
</event>
<event>
 4    1  0.2402120E+005  0.2610353E+02  0.7546771E-02  0.1456827E+00
          2   -1    0    0  503    0  0.00000000000E+00  0.00000000000E+00  0.54676473492E+01  0.54676473492E+01  0.00000000000E+00 0.  1.
         21   -1    0    0  501  502 -0.00000000000E+00 -0.00000000000E+00 -0.18322326852E+03  0.18322326852E+03  0.00000000000E+00 0.  1.
          2    1    1    2  501    0  0.23951627476E+02 -0.10378531506E+02 -0.35522131741E+02  0.44081926210E+02  0.00000000000E+00 0.  1.
         21    1    1    2  503  502 -0.23951627476E+02  0.10378531506E+02 -0.14223348943E+03  0.14460898966E+03  0.00000000000E+00 0.  1.
</event>
<event>
 4    1  0.2402120E+005  0.2918379E+02  0.7546771E-02  0.1426824E+00
          2   -1    0    0  503    0  0.00000000000E+00  0.00000000000E+00  0.43575703930E+03  0.43575703930E+03  0.00000000000E+00 0.  1.
         21   -1    0    0  501  502 -0.00000000000E+00 -0.00000000000E+00 -0.23482920551E+01  0.23482920551E+01  0.00000000000E+00 0. -1.
          2    1    1    2  501    0 -0.24155363997E+02  0.16377182418E+02  0.30640544612E+03  0.30779212323E+03  0.00000000000E+00 0.  1.
         21    1    1    2  503  502  0.24155363997E+02 -0.16377182418E+02  0.12700330112E+03  0.13031320812E+03  0.00000000000E+00 0. -1.
</event>
<event>
 4    1  0.5344993E+005  0.2009763E+02  0.7546771E-02  0.1532549E+00
          2   -1    0    0  503    0  0.00000000000E+00  0.00000000000E+00  0.86421446292E+03  0.86421446292E+03  0.00000000000E+00 0.  1.
         21   -1    0    0  501  502 -0.00000000000E+00 -0.00000000000E+00 -0.41391463250E+02  0.41391463250E+02  0.00000000000E+00 0. -1.
          2    1    1    2  501    0 -0.10496862332E+02 -0.17138569093E+02  0.86165075951E+03  0.86188511185E+03  0.00000000000E+00 0.  1.
         21    1    1    2  503  502  0.10496862332E+02  0.17138569093E+02 -0.38827759847E+02  0.43720814312E+02  0.00000000000E+00 0. -1.
</event>
<event>
 4    1  0.2402120E+005  0.2281307E+02  0.7546771E-02  0.1494859E+00
          2   -1    0    0  502    0  0.00000000000E+00  0.00000000000E+00  0.10960614096E+04  0.10960614096E+04  0.00000000000E+00 0. -1.
         21   -1    0    0  503  502 -0.00000000000E+00 -0.00000000000E+00 -0.11007810180E+01  0.11007810180E+01  0.00000000000E+00 0. -1.
          2    1    1    2  501    0 -0.17612673622E+02 -0.14499313550E+02  0.96115847637E+03  0.96142917215E+03  0.00000000000E+00 0. -1.
         21    1    1    2  503  501  0.17612673622E+02  0.14499313550E+02  0.13380215221E+03  0.13573301847E+03  0.00000000000E+00 0. -1.
</event>
<event>
 4    1  0.2402120E+005  0.2943342E+02  0.7546771E-02  0.1424585E+00
          2   -1    0    0  503    0  0.00000000000E+00  0.00000000000E+00  0.59309309305E+03  0.59309309305E+03  0.00000000000E+00 0.  1.
         21   -1    0    0  501  502 -0.00000000000E+00 -0.00000000000E+00 -0.10336754282E+02  0.10336754282E+02  0.00000000000E+00 0.  1.
          2    1    1    2  501    0 -0.16375635616E+02 -0.24457402529E+02  0.57096382189E+03  0.57172197079E+03  0.00000000000E+00 0.  1.
         21    1    1    2  503  502  0.16375635616E+02  0.24457402529E+02  0.11792516878E+02  0.31707876539E+02  0.00000000000E+00 0.  1.
</event>
<event>
 4    1  0.2402120E+005  0.2202757E+02  0.7546771E-02  0.1505084E+00
          2   -1    0    0  503    0  0.00000000000E+00  0.00000000000E+00  0.11182761946E+04  0.11182761946E+04  0.00000000000E+00 0. -1.
         21   -1    0    0  501  502 -0.00000000000E+00 -0.00000000000E+00 -0.61657128388E+00  0.61657128388E+00  0.00000000000E+00 0. -1.
          2    1    1    2  501    0 -0.18205419010E+02 -0.12400663788E+02  0.86334478876E+03  0.86362575113E+03  0.00000000000E+00 0. -1.
         21    1    1    2  503  502  0.18205419010E+02  0.12400663788E+02  0.25431483456E+03  0.25526701475E+03  0.00000000000E+00 0. -1.
</event>
<event>
 4    1  0.2402120E+005  0.5750802E+02  0.7546771E-02  0.1268543E+00
          2   -1    0    0  503    0  0.00000000000E+00  0.00000000000E+00  0.54568858982E+03  0.54568858982E+03  0.00000000000E+00 0. -1.
         21   -1    0    0  501  502 -0.00000000000E+00 -0.00000000000E+00 -0.83141447553E+01  0.83141447553E+01  0.00000000000E+00 0. -1.
          2    1    1    2  501    0  0.32993847718E+02  0.47101787193E+02  0.41290245900E+03  0.41688801013E+03  0.00000000000E+00 0. -1.
         21    1    1    2  503  502 -0.32993847718E+02 -0.47101787193E+02  0.12447198606E+03  0.13711472444E+03  0.00000000000E+00 0. -1.
</event>
<event>
 4    1  0.2402120E+005  0.2006415E+02  0.7546771E-02  0.1533057E+00
          2   -1    0    0  502    0  0.00000000000E+00  0.00000000000E+00  0.32833199851E+01  0.32833199851E+01  0.00000000000E+00 0. -1.
         21   -1    0    0  503  502 -0.00000000000E+00 -0.00000000000E+00 -0.27874722509E+03  0.27874722509E+03  0.00000000000E+00 0. -1.
          2    1    1    2  501    0  0.12272930653E+02 -0.15872781957E+02 -0.32192901794E+02  0.37933533447E+02  0.00000000000E+00 0. -1.
         21    1    1    2  503  501 -0.12272930653E+02  0.15872781957E+02 -0.24327100331E+03  0.24409701163E+03  0.00000000000E+00 0. -1.
</event>
<event>
 4    1  0.2402120E+005  0.2065612E+02  0.7546771E-02  0.1524232E+00
          2   -1    0    0  503    0  0.00000000000E+00  0.00000000000E+00  0.11409234481E+02  0.11409234481E+02  0.00000000000E+00 0.  1.
         21   -1    0    0  501  502 -0.00000000000E+00 -0.00000000000E+00 -0.60655326469E+03  0.60655326469E+03  0.00000000000E+00 0. -1.
          2    1    1    2  501    0 -0.13448951809E+02  0.15678039745E+02  0.17325054636E+01  0.20728647090E+02  0.00000000000E+00 0.  1.
         21    1    1    2  503  502  0.13448951809E+02 -0.15678039745E+02 -0.59687653568E+03  0.59723385209E+03  0.00000000000E+00 0. -1.
</event>
<event>
 4    1  0.2402120E+005  0.2058064E+02  0.7546771E-02  0.1525337E+00
          2   -1    0    0  503    0  0.00000000000E+00  0.00000000000E+00  0.18082652827E+03  0.18082652827E+03  0.00000000000E+00 0.  1.
         21   -1    0    0  501  502 -0.00000000000E+00 -0.00000000000E+00 -0.60204943329E+01  0.60204943329E+01  0.00000000000E+00 0. -1.
          2    1    1    2  501    0 -0.37854417514E+01 -0.20229512817E+02  0.16042494117E+03  0.16173968130E+03  0.00000000000E+00 0.  1.
         21    1    1    2  503  502  0.37854417514E+01  0.20229512817E+02  0.14381092769E+02  0.25107341303E+02  0.00000000000E+00 0. -1.
</event>
<event>
 4    1  0.2402120E+005  0.2026402E+02  0.7546771E-02  0.1530037E+00
          2   -1    0    0  503    0  0.00000000000E+00  0.00000000000E+00  0.91509853408E+02  0.91509853408E+02  0.00000000000E+00 0.  1.
         21   -1    0    0  501  502 -0.00000000000E+00 -0.00000000000E+00 -0.82460429876E+02  0.82460429876E+02  0.00000000000E+00 0.  1.
          2    1    1    2  501    0  0.15475511586E+02 -0.13082012241E+02  0.89109995800E+02  0.91385019859E+02  0.00000000000E+00 0.  1.
         21    1    1    2  503  502 -0.15475511586E+02  0.13082012241E+02 -0.80060572268E+02  0.82585263425E+02  0.00000000000E+00 0.  1.
</event>
<event>
 4    1  0.2402120E+005  0.2023966E+02  0.7546771E-02  0.1530403E+00
          2   -1    0    0  503    0  0.00000000000E+00  0.00000000000E+00  0.67250341621E+02  0.67250341621E+02  0.00000000000E+00 0.  1.
         21   -1    0    0  501  502 -0.00000000000E+00 -0.00000000000E+00 -0.65417667440E+01  0.65417667440E+01  0.00000000000E+00 0. -1.
          2    1    1    2  501    0 -0.87356769477E+01  0.18257372828E+02  0.40035985118E+02  0.44861161584E+02  0.00000000000E+00 0.  1.
         21    1    1    2  503  502  0.87356769477E+01 -0.18257372828E+02  0.20672589759E+02  0.28930946781E+02  0.00000000000E+00 0. -1.
</event>
<event>
 4    1  0.2402120E+005  0.2474883E+02  0.7546771E-02  0.1471633E+00
          2   -1    0    0  502    0  0.00000000000E+00  0.00000000000E+00  0.11323524556E+04  0.11323524556E+04  0.00000000000E+00 0.  1.
         21   -1    0    0  503  502 -0.00000000000E+00 -0.00000000000E+00 -0.39169116170E+01  0.39169116170E+01  0.00000000000E+00 0.  1.
          2    1    1    2  501    0  0.99032918238E+01 -0.22681038603E+02  0.10916668245E+04  0.10919473249E+04  0.00000000000E+00 0.  1.
         21    1    1    2  503  501 -0.99032918238E+01  0.22681038603E+02  0.36768719530E+02  0.44322042337E+02  0.00000000000E+00 0.  1.
</event>
<event>
 4    1  0.2402120E+005  0.2110302E+02  0.7546771E-02  0.1517799E+00
          2   -1    0    0  503    0  0.00000000000E+00  0.00000000000E+00  0.13790073927E+04  0.13790073927E+04  0.00000000000E+00 0. -1.
         21   -1    0    0  501  502 -0.00000000000E+00 -0.00000000000E+00 -0.11258302316E+01  0.11258302316E+01  0.00000000000E+00 0.  1.
          2    1    1    2  501    0 -0.16008111101E+02  0.13750553402E+02  0.12716910906E+04  0.12718661751E+04  0.00000000000E+00 0. -1.
         21    1    1    2  503  502  0.16008111101E+02 -0.13750553402E+02  0.10619047182E+03  0.10826704782E+03  0.00000000000E+00 0.  1.
</event>
<event>
 4    1  0.2402120E+005  0.3059017E+02  0.7546771E-02  0.1414536E+00
          2   -1    0    0  502    0  0.00000000000E+00  0.00000000000E+00  0.76193301785E+02  0.76193301785E+02  0.00000000000E+00 0. -1.
         21   -1    0    0  503  502 -0.00000000000E+00 -0.00000000000E+00 -0.64360622436E+02  0.64360622436E+02  0.00000000000E+00 0. -1.
          2    1    1    2  501    0  0.27411641714E+01  0.30467105091E+02  0.69133533533E+02  0.75598967800E+02  0.00000000000E+00 0. -1.
         21    1    1    2  503  501 -0.27411641714E+01 -0.30467105091E+02 -0.57300854183E+02  0.64954956422E+02  0.00000000000E+00 0. -1.
</event>
<event>
 4    1  0.2402120E+005  0.2088841E+02  0.7546771E-02  0.1520864E+00
          2   -1    0    0  503    0  0.00000000000E+00  0.00000000000E+00  0.13641850720E+02  0.13641850720E+02  0.00000000000E+00 0. -1.
         21   -1    0    0  501  502 -0.00000000000E+00 -0.00000000000E+00 -0.35379226519E+02  0.35379226519E+02  0.00000000000E+00 0. -1.
          2    1    1    2  501    0  0.20541657381E+02 -0.37902689620E+01 -0.32760932172E+01  0.21143760629E+02  0.00000000000E+00 0. -1.
         21    1    1    2  503  502 -0.20541657381E+02  0.37902689620E+01 -0.18461282582E+02  0.27877316610E+02  0.00000000000E+00 0. -1.
</event>
<event>
 4    1  0.2402120E+005  0.2072822E+02  0.7546771E-02  0.1523181E+00
          2   -1    0    0  503    0  0.00000000000E+00  0.00000000000E+00  0.20042029278E+04  0.20042029278E+04  0.00000000000E+00 0. -1.
         21   -1    0    0  501  502 -0.00000000000E+00 -0.00000000000E+00 -0.21450483437E+00  0.21450483437E+00  0.00000000000E+00 0. -1.
          2    1    1    2  501    0  0.16411779594E+02 -0.12661461189E+02  0.97772463067E+03  0.97794432997E+03  0.00000000000E+00 0. -1.
         21    1    1    2  503  502 -0.16411779594E+02  0.12661461189E+02  0.10262637923E+04  0.10264731027E+04  0.00000000000E+00 0. -1.
</event>
<event>
 4    1  0.2402120E+005  0.2046795E+02  0.7546771E-02  0.1526999E+00
          2   -1    0    0  503    0  0.00000000000E+00  0.00000000000E+00  0.14590250550E+02  0.14590250550E+02  0.00000000000E+00 0.  1.
         21   -1    0    0  501  502 -0.00000000000E+00 -0.00000000000E+00 -0.54792187826E+02  0.54792187826E+02  0.00000000000E+00 0.  1.
          2    1    1    2  501    0 -0.20318494952E+02  0.24689144616E+01  0.38323723607E+01  0.20823636898E+02  0.00000000000E+00 0.  1.
         21    1    1    2  503  502  0.20318494952E+02 -0.24689144616E+01 -0.44034309637E+02  0.48558801478E+02  0.00000000000E+00 0.  1.
</event>
<event>
 4    1  0.2402120E+005  0.2254115E+02  0.7546771E-02  0.1498342E+00
          2   -1    0    0  502    0  0.00000000000E+00  0.00000000000E+00  0.36682474897E+03  0.36682474897E+03  0.00000000000E+00 0.  1.
         21   -1    0    0  503  502 -0.00000000000E+00 -0.00000000000E+00 -0.30173446212E+02  0.30173446212E+02  0.00000000000E+00 0.  1.
          2    1    1    2  501    0 -0.87728409290E+01 -0.20763927219E+02  0.36221508428E+03  0.36291579009E+03  0.00000000000E+00 0.  1.
         21    1    1    2  503  501  0.87728409290E+01  0.20763927219E+02 -0.25563781523E+02  0.34082405098E+02  0.00000000000E+00 0.  1.
</event>
<event>
 4    1  0.2402120E+005  0.2112793E+02  0.7546771E-02  0.1517446E+00
          2   -1    0    0  502    0  0.00000000000E+00  0.00000000000E+00  0.86950891272E+03  0.86950891272E+03  0.00000000000E+00 0.  1.
         21   -1    0    0  503  502 -0.00000000000E+00 -0.00000000000E+00 -0.98245827048E+01  0.98245827048E+01  0.00000000000E+00 0. -1.
          2    1    1    2  501    0  0.14241088630E+02  0.15607074406E+02  0.85786745597E+03  0.85812759040E+03  0.00000000000E+00 0.  1.
         21    1    1    2  503  501 -0.14241088630E+02 -0.15607074406E+02  0.18168740420E+01  0.21205905031E+02  0.00000000000E+00 0. -1.
</event>
<event>
 4    1  0.2402120E+005  0.4967706E+02  0.7546771E-02  0.1299579E+00
          2   -1    0    0  502    0  0.00000000000E+00  0.00000000000E+00  0.69010967689E+03  0.69010967689E+03  0.00000000000E+00 0.  1.
         21   -1    0    0  503  502 -0.00000000000E+00 -0.00000000000E+00 -0.45526720564E+01  0.45526720564E+01  0.00000000000E+00 0.  1.
          2    1    1    2  501    0 -0.34520305270E+02 -0.35723363907E+02  0.50365479514E+03  0.50609876791E+03  0.00000000000E+00 0.  1.
         21    1    1    2  503  501  0.34520305270E+02  0.35723363907E+02  0.18190220969E+03  0.18856358104E+03  0.00000000000E+00 0.  1.
</event>
<event>
 4    1  0.2402120E+005  0.2126277E+02  0.7546771E-02  0.1515546E+00
          2   -1    0    0  503    0  0.00000000000E+00  0.00000000000E+00  0.16429351797E+04  0.16429351797E+04  0.00000000000E+00 0.  1.
         21   -1    0    0  501  502 -0.00000000000E+00 -0.00000000000E+00 -0.16294130791E+01  0.16294130791E+01  0.00000000000E+00 0.  1.
          2    1    1    2  501    0  0.70545267585E+01  0.20058389763E+02  0.15702912597E+04  0.15704352090E+04  0.00000000000E+00 0.  1.
         21    1    1    2  503  502 -0.70545267585E+01 -0.20058389763E+02  0.71014506928E+02  0.74129383796E+02  0.00000000000E+00 0.  1.
</event>
<event>
 4    1  0.2402120E+005  0.6150482E+02  0.7546771E-02  0.1254804E+00
          2   -1    0    0  502    0  0.00000000000E+00  0.00000000000E+00  0.19153131827E+04  0.19153131827E+04  0.00000000000E+00 0.  1.
         21   -1    0    0  503  502 -0.00000000000E+00 -0.00000000000E+00 -0.31227825130E+02  0.31227825130E+02  0.00000000000E+00 0. -1.
          2    1    1    2  501    0 -0.54672609909E+02  0.28173555238E+02  0.18840325055E+04  0.18850361602E+04  0.00000000000E+00 0.  1.
         21    1    1    2  503  501  0.54672609909E+02 -0.28173555238E+02  0.52852074600E-01  0.61504847633E+02  0.00000000000E+00 0. -1.
</event>
<event>
 4    1  0.2402120E+005  0.3833488E+02  0.7546771E-02  0.1358530E+00
          2   -1    0    0  503    0  0.00000000000E+00  0.00000000000E+00  0.10374019255E+04  0.10374019255E+04  0.00000000000E+00 0.  1.
         21   -1    0    0  501  502 -0.00000000000E+00 -0.00000000000E+00 -0.41515530266E+02  0.41515530266E+02  0.00000000000E+00 0.  1.
          2    1    1    2  501    0 -0.30971262827E+02 -0.22590793128E+02  0.10281184232E+04  0.10288328606E+04  0.00000000000E+00 0.  1.
         21    1    1    2  503  502  0.30971262827E+02  0.22590793128E+02 -0.32232027873E+02  0.50084595197E+02  0.00000000000E+00 0.  1.
</event>
<event>
 4    1  0.2402120E+005  0.2460391E+02  0.7546771E-02  0.1473283E+00
          2   -1    0    0  503    0  0.00000000000E+00  0.00000000000E+00  0.17012236936E+03  0.17012236936E+03  0.00000000000E+00 0.  1.
         21   -1    0    0  501  502 -0.00000000000E+00 -0.00000000000E+00 -0.45176649135E+01  0.45176649135E+01  0.00000000000E+00 0.  1.
          2    1    1    2  501    0 -0.45556737000E+00 -0.24599695632E+02  0.12304073810E+03  0.12547659462E+03  0.00000000000E+00 0.  1.
         21    1    1    2  503  502  0.45556737000E+00  0.24599695632E+02  0.42563966347E+02  0.49163439647E+02  0.00000000000E+00 0.  1.
</event>
<event>
 4    1  0.2402120E+005  0.2433962E+02  0.7546771E-02  0.1476328E+00
          2   -1    0    0  502    0  0.00000000000E+00  0.00000000000E+00  0.15063356155E+03  0.15063356155E+03  0.00000000000E+00 0.  1.
         21   -1    0    0  503  502 -0.00000000000E+00 -0.00000000000E+00 -0.88290792836E+01  0.88290792836E+01  0.00000000000E+00 0. -1.
          2    1    1    2  501    0  0.17822277691E+02 -0.16576588368E+02  0.13027713004E+03  0.13253130753E+03  0.00000000000E+00 0.  1.
         21    1    1    2  503  501 -0.17822277691E+02  0.16576588368E+02  0.11527352220E+02  0.26931333298E+02  0.00000000000E+00 0. -1.
</event>
<event>
 4    1  0.2402120E+005  0.3314407E+02  0.7546771E-02  0.1394102E+00
          2   -1    0    0  503    0  0.00000000000E+00  0.00000000000E+00  0.12900033885E+04  0.12900033885E+04  0.00000000000E+00 0. -1.
         21   -1    0    0  501  502 -0.00000000000E+00 -0.00000000000E+00 -0.12436014113E+02  0.12436014113E+02  0.00000000000E+00 0.  1.
          2    1    1    2  501    0 -0.12865301261E+02  0.30545267806E+02  0.12673115139E+04  0.12677448492E+04  0.00000000000E+00 0. -1.
         21    1    1    2  503  502  0.12865301261E+02 -0.30545267806E+02  0.10255860453E+02  0.34694553399E+02  0.00000000000E+00 0.  1.
</event>
<event>
 4    1  0.2402120E+005  0.3614345E+02  0.7546771E-02  0.1372698E+00
          2   -1    0    0  502    0  0.00000000000E+00  0.00000000000E+00  0.59600940822E+03  0.59600940822E+03  0.00000000000E+00 0.  1.
         21   -1    0    0  503  502 -0.00000000000E+00 -0.00000000000E+00 -0.14441739578E+02  0.14441739578E+02  0.00000000000E+00 0. -1.
          2    1    1    2  501    0  0.26778851826E+02  0.24274315220E+02  0.57189472153E+03  0.57303570727E+03  0.00000000000E+00 0.  1.
         21    1    1    2  503  501 -0.26778851826E+02 -0.24274315220E+02  0.96729471108E+01  0.37415440534E+02  0.00000000000E+00 0. -1.
</event>
<event>
 4    1  0.2402120E+005  0.3171912E+02  0.7546771E-02  0.1405223E+00
          2   -1    0    0  503    0  0.00000000000E+00  0.00000000000E+00  0.20800317990E+04  0.20800317990E+04  0.00000000000E+00 0. -1.
         21   -1    0    0  501  502 -0.00000000000E+00 -0.00000000000E+00 -0.25716811616E+01  0.25716811616E+01  0.00000000000E+00 0. -1.
          2    1    1    2  501    0  0.30026277527E+02  0.10223756666E+02  0.19770085533E+04  0.19772629877E+04  0.00000000000E+00 0. -1.
         21    1    1    2  503  502 -0.30026277527E+02 -0.10223756666E+02  0.10045156453E+03  0.10534049249E+03  0.00000000000E+00 0. -1.
</event>
<event>
 4    1  0.2402120E+005  0.4425879E+02  0.7546771E-02  0.1325188E+00
          2   -1    0    0  502    0  0.00000000000E+00  0.00000000000E+00  0.20623954270E+04  0.20623954270E+04  0.00000000000E+00 0.  1.
         21   -1    0    0  503  502 -0.00000000000E+00 -0.00000000000E+00 -0.12165578063E+02  0.12165578063E+02  0.00000000000E+00 0. -1.
          2    1    1    2  501    0 -0.22555107511E+02 -0.38080274872E+02  0.20210814885E+04  0.20215660324E+04  0.00000000000E+00 0.  1.
         21    1    1    2  503  501  0.22555107511E+02  0.38080274872E+02  0.29148360399E+02  0.52994972621E+02  0.00000000000E+00 0. -1.
</event>
<event>
 4    1  0.2402120E+005  0.3647903E+02  0.7546771E-02  0.1370453E+00
          2   -1    0    0  503    0  0.00000000000E+00  0.00000000000E+00  0.65005557773E+03  0.65005557773E+03  0.00000000000E+00 0. -1.
         21   -1    0    0  501  502 -0.00000000000E+00 -0.00000000000E+00 -0.67902838452E+01  0.67902838452E+01  0.00000000000E+00 0.  1.
          2    1    1    2  501    0  0.73863509499E+01 -0.35723397695E+02  0.59612177808E+03  0.59723688234E+03  0.00000000000E+00 0. -1.
         21    1    1    2  503  502 -0.73863509499E+01  0.35723397695E+02  0.47143515804E+02  0.59608979237E+02  0.00000000000E+00 0.  1.
</event>
<event>
 4    1  0.2402120E+005  0.2003143E+02  0.7546771E-02  0.1533556E+00
          2   -1    0    0  503    0  0.00000000000E+00  0.00000000000E+00  0.12241732186E+04  0.12241732186E+04  0.00000000000E+00 0.  1.
         21   -1    0    0  501  502 -0.00000000000E+00 -0.00000000000E+00 -0.56491285847E+00  0.56491285847E+00  0.00000000000E+00 0. -1.
          2    1    1    2  501    0 -0.12309552286E+01  0.19993569154E+02  0.10085564580E+04  0.10087553653E+04  0.00000000000E+00 0.  1.
         21    1    1    2  503  502  0.12309552286E+01 -0.19993569154E+02  0.21505184778E+03  0.21598276619E+03  0.00000000000E+00 0. -1.
</event>
<event>
 4    1  0.2402120E+005  0.2768298E+02  0.7546771E-02  0.1440866E+00
          2   -1    0    0  502    0  0.00000000000E+00  0.00000000000E+00  0.14409881145E+04  0.14409881145E+04  0.00000000000E+00 0. -1.
         21   -1    0    0  503  502 -0.00000000000E+00 -0.00000000000E+00 -0.66036219515E+01  0.66036219515E+01  0.00000000000E+00 0. -1.
          2    1    1    2  501    0 -0.15300769368E+02 -0.23070190874E+02  0.14112310835E+04  0.14115025746E+04  0.00000000000E+00 0. -1.
         21    1    1    2  503  501  0.15300769368E+02  0.23070190874E+02  0.23153409140E+02  0.36089161877E+02  0.00000000000E+00 0. -1.
</event>
<event>
 4    1  0.2402120E+005  0.2633729E+02  0.7546771E-02  0.1454381E+00
          2   -1    0    0  503    0  0.00000000000E+00  0.00000000000E+00  0.19858022588E+03  0.19858022588E+03  0.00000000000E+00 0. -1.
         21   -1    0    0  501  502 -0.00000000000E+00 -0.00000000000E+00 -0.90085345097E+01  0.90085345097E+01  0.00000000000E+00 0. -1.
          2    1    1    2  501    0 -0.51474040027E+01 -0.25829384270E+02  0.17600120399E+03  0.17796088522E+03  0.00000000000E+00 0. -1.
         21    1    1    2  503  502  0.51474040027E+01  0.25829384270E+02  0.13570487379E+02  0.29627875176E+02  0.00000000000E+00 0. -1.
</event>
<event>
 4    1  0.5477595E+005  0.2028992E+02  0.7546771E-02  0.1529649E+00
          2   -1    0    0  502    0  0.00000000000E+00  0.00000000000E+00  0.53071517036E+03  0.53071517036E+03  0.00000000000E+00 0.  1.
         21   -1    0    0  503  502 -0.00000000000E+00 -0.00000000000E+00 -0.16593662927E+03  0.16593662927E+03  0.00000000000E+00 0.  1.
          2    1    1    2  501    0 -0.77366039545E+01  0.18757024660E+02  0.52990005085E+03  0.53028836014E+03  0.00000000000E+00 0.  1.
         21    1    1    2  503  501  0.77366039545E+01 -0.18757024660E+02 -0.16512150976E+03  0.16636343949E+03  0.00000000000E+00 0.  1.
</event>
<event>
 4    1  0.2402120E+005  0.2739937E+02  0.7546771E-02  0.1443637E+00
          2   -1    0    0  503    0  0.00000000000E+00  0.00000000000E+00  0.18485921289E+02  0.18485921289E+02  0.00000000000E+00 0. -1.
         21   -1    0    0  501  502 -0.00000000000E+00 -0.00000000000E+00 -0.55517366478E+02  0.55517366478E+02  0.00000000000E+00 0. -1.
          2    1    1    2  501    0  0.13538695082E+02 -0.23820768895E+02  0.65760858401E+00  0.27407257147E+02  0.00000000000E+00 0. -1.
         21    1    1    2  503  502 -0.13538695082E+02  0.23820768895E+02 -0.37689053773E+02  0.46596030620E+02  0.00000000000E+00 0. -1.
</event>
<event>
 4    1  0.2402120E+005  0.2086152E+02  0.7546771E-02  0.1521251E+00
          2   -1    0    0  503    0  0.00000000000E+00  0.00000000000E+00  0.43883244670E+03  0.43883244670E+03  0.00000000000E+00 0.  1.
         21   -1    0    0  501  502 -0.00000000000E+00 -0.00000000000E+00 -0.19056278402E+02  0.19056278402E+02  0.00000000000E+00 0. -1.
          2    1    1    2  501    0  0.18201328646E+02 -0.10193851578E+02  0.43279547739E+03  0.43329796702E+03  0.00000000000E+00 0.  1.
         21    1    1    2  503  502 -0.18201328646E+02  0.10193851578E+02 -0.13019309084E+02  0.24590758091E+02  0.00000000000E+00 0. -1.
</event>
<event>
 4    1  0.2402120E+005  0.2905096E+02  0.7546771E-02  0.1428027E+00
          2   -1    0    0  503    0  0.00000000000E+00  0.00000000000E+00  0.17972200192E+04  0.17972200192E+04  0.00000000000E+00 0. -1.
         21   -1    0    0  501  502 -0.00000000000E+00 -0.00000000000E+00 -0.50839555943E+01  0.50839555943E+01  0.00000000000E+00 0.  1.
          2    1    1    2  501    0  0.28973211702E+02  0.21239316885E+01  0.17545933964E+04  0.17548338796E+04  0.00000000000E+00 0. -1.
         21    1    1    2  503  502 -0.28973211702E+02 -0.21239316885E+01  0.37542667174E+02  0.47470095225E+02  0.00000000000E+00 0.  1.
</event>
<event>
 4    1  0.2402120E+005  0.2648385E+02  0.7546771E-02  0.1452863E+00
          2   -1    0    0  502    0  0.00000000000E+00  0.00000000000E+00  0.12247087533E+03  0.12247087533E+03  0.00000000000E+00 0.  1.
         21   -1    0    0  503  502 -0.00000000000E+00 -0.00000000000E+00 -0.74407488443E+02  0.74407488443E+02  0.00000000000E+00 0. -1.
          2    1    1    2  501    0  0.26388080917E+02 -0.22502249502E+01  0.11860667535E+03  0.12152751855E+03  0.00000000000E+00 0.  1.
         21    1    1    2  503  501 -0.26388080917E+02  0.22502249502E+01 -0.70543288470E+02  0.75350845218E+02  0.00000000000E+00 0. -1.
</event>
<event>
 4    1  0.2402120E+005  0.2929364E+02  0.7546771E-02  0.1425836E+00
          2   -1    0    0  502    0  0.00000000000E+00  0.00000000000E+00  0.10451894425E+03  0.10451894425E+03  0.00000000000E+00 0.  1.
         21   -1    0    0  503  502 -0.00000000000E+00 -0.00000000000E+00 -0.15703624416E+02  0.15703624416E+02  0.00000000000E+00 0.  1.
          2    1    1    2  501    0  0.28184584855E+02 -0.79841404956E+01  0.85931485983E+02  0.90787320735E+02  0.00000000000E+00 0.  1.
         21    1    1    2  503  501 -0.28184584855E+02  0.79841404956E+01  0.28838338467E+01  0.29435247928E+02  0.00000000000E+00 0.  1.
</event>
<event>
 4    1  0.2402120E+005  0.3760363E+02  0.7546771E-02  0.1363131E+00
          2   -1    0    0  502    0  0.00000000000E+00  0.00000000000E+00  0.14122103999E+04  0.14122103999E+04  0.00000000000E+00 0. -1.
         21   -1    0    0  503  502 -0.00000000000E+00 -0.00000000000E+00 -0.17249145128E+02  0.17249145128E+02  0.00000000000E+00 0.  1.
          2    1    1    2  501    0  0.34275608158E+02 -0.15466601973E+02  0.13911557112E+04  0.13916638409E+04  0.00000000000E+00 0. -1.
         21    1    1    2  503  501 -0.34275608158E+02  0.15466601973E+02  0.38055435396E+01  0.37795704158E+02  0.00000000000E+00 0.  1.
</event>
<event>
 4    1  0.2402120E+005  0.5881061E+02  0.7546771E-02  0.1263928E+00
          2   -1    0    0  502    0  0.00000000000E+00  0.00000000000E+00  0.23736271600E+04  0.23736271600E+04  0.00000000000E+00 0.  1.
         21   -1    0    0  503  502 -0.00000000000E+00 -0.00000000000E+00 -0.87045714964E+02  0.87045714964E+02  0.00000000000E+00 0. -1.
          2    1    1    2  501    0  0.20461330006E+00 -0.58810256633E+02  0.23632858771E+04  0.23640175179E+04  0.00000000000E+00 0.  1.
         21    1    1    2  503  501 -0.20461330006E+00  0.58810256633E+02 -0.76704432048E+02  0.96655357057E+02  0.00000000000E+00 0. -1.
</event>
<event>
 4    1  0.2402120E+005  0.2539976E+02  0.7546771E-02  0.1464381E+00
          2   -1    0    0  503    0  0.00000000000E+00  0.00000000000E+00  0.29630339758E+03  0.29630339758E+03  0.00000000000E+00 0. -1.
         21   -1    0    0  501  502 -0.00000000000E+00 -0.00000000000E+00 -0.51511167862E+01  0.51511167862E+01  0.00000000000E+00 0.  1.
          2    1    1    2  501    0  0.19574125606E+02  0.16186460711E+02  0.26010016368E+03  0.26133741227E+03  0.00000000000E+00 0. -1.
         21    1    1    2  503  502 -0.19574125606E+02 -0.16186460711E+02  0.31052117111E+02  0.40117102097E+02  0.00000000000E+00 0.  1.
</event>
<event>
 4    1  0.2402120E+005  0.2305299E+02  0.7546771E-02  0.1491834E+00
          2   -1    0    0  503    0  0.00000000000E+00  0.00000000000E+00  0.44621211440E+02  0.44621211440E+02  0.00000000000E+00 0.  1.
         21   -1    0    0  501  502 -0.00000000000E+00 -0.00000000000E+00 -0.28664551578E+03  0.28664551578E+03  0.00000000000E+00 0. -1.
          2    1    1    2  501    0  0.22620308896E+02 -0.44454405788E+01  0.41143696737E+02  0.47161892431E+02  0.00000000000E+00 0.  1.
         21    1    1    2  503  502 -0.22620308896E+02  0.44454405788E+01 -0.28316800108E+03  0.28410483479E+03  0.00000000000E+00 0. -1.
</event>
<event>
 4    1  0.2402120E+005  0.2227083E+02  0.7546771E-02  0.1501863E+00
          2   -1    0    0  502    0  0.00000000000E+00  0.00000000000E+00  0.91940300621E+03  0.91940300621E+03  0.00000000000E+00 0. -1.
         21   -1    0    0  503  502 -0.00000000000E+00 -0.00000000000E+00 -0.21808114650E+01  0.21808114650E+01  0.00000000000E+00 0.  1.
          2    1    1    2  501    0  0.16229088368E+02  0.15251446613E+02  0.85836739377E+03  0.85865625987E+03  0.00000000000E+00 0. -1.
         21    1    1    2  503  501 -0.16229088368E+02 -0.15251446613E+02  0.58854800979E+02  0.62927557805E+02  0.00000000000E+00 0.  1.
</event>
<event>
 4    1  0.2402120E+005  0.2220422E+02  0.7546771E-02  0.1502740E+00
          2   -1    0    0  502    0  0.00000000000E+00  0.00000000000E+00  0.18932160164E+02  0.18932160164E+02  0.00000000000E+00 0. -1.
         21   -1    0    0  503  502 -0.00000000000E+00 -0.00000000000E+00 -0.58812023200E+02  0.58812023200E+02  0.00000000000E+00 0.  1.
          2    1    1    2  501    0  0.22170766012E+02 -0.12184464483E+01  0.90765378714E+01  0.23987726384E+02  0.00000000000E+00 0. -1.
         21    1    1    2  503  501 -0.22170766012E+02  0.12184464483E+01 -0.48956400907E+02  0.53756456980E+02  0.00000000000E+00 0.  1.
</event>
<event>
 4    1  0.2402120E+005  0.2572299E+02  0.7546771E-02  0.1460876E+00
          2   -1    0    0  502    0  0.00000000000E+00  0.00000000000E+00  0.90943688875E+03  0.90943688875E+03  0.00000000000E+00 0.  1.
         21   -1    0    0  503  502 -0.00000000000E+00 -0.00000000000E+00 -0.12732293138E+01  0.12732293138E+01  0.00000000000E+00 0.  1.
          2    1    1    2  501    0  0.15043973913E+01 -0.25678957540E+02  0.75218093200E+03  0.75262063919E+03  0.00000000000E+00 0.  1.
         21    1    1    2  503  501 -0.15043973913E+01  0.25678957540E+02  0.15598272744E+03  0.15808947888E+03  0.00000000000E+00 0.  1.
</event>
<event>
 4    1  0.2402120E+005  0.2763252E+02  0.7546771E-02  0.1441356E+00
          2   -1    0    0  502    0  0.00000000000E+00  0.00000000000E+00  0.77258581577E+03  0.77258581577E+03  0.00000000000E+00 0. -1.
         21   -1    0    0  503  502 -0.00000000000E+00 -0.00000000000E+00 -0.65117897587E+01  0.65117897587E+01  0.00000000000E+00 0.  1.
          2    1    1    2  501    0 -0.95781056546E+01 -0.25919418286E+02  0.74180853840E+03  0.74232301863E+03  0.00000000000E+00 0. -1.
         21    1    1    2  503  501  0.95781056546E+01  0.25919418286E+02  0.24265487612E+02  0.36774586894E+02  0.00000000000E+00 0.  1.
</event>
<event>
 4    1  0.2402120E+005  0.3432258E+02  0.7546771E-02  0.1385389E+00
          2   -1    0    0  503    0  0.00000000000E+00  0.00000000000E+00  0.28621460039E+04  0.28621460039E+04  0.00000000000E+00 0.  1.
         21   -1    0    0  501  502 -0.00000000000E+00 -0.00000000000E+00 -0.41658832026E+00  0.41658832026E+00  0.00000000000E+00 0.  1.
          2    1    1    2  501    0 -0.14114333225E+02 -0.31286180851E+02  0.15875936688E+04  0.15879646396E+04  0.00000000000E+00 0.  1.
         21    1    1    2  503  502  0.14114333225E+02  0.31286180851E+02  0.12741357468E+04  0.12745979526E+04  0.00000000000E+00 0.  1.
</event>
<event>
 4    1  0.2402120E+005  0.2465806E+02  0.7546771E-02  0.1472665E+00
          2   -1    0    0  502    0  0.00000000000E+00  0.00000000000E+00  0.11962687233E+04  0.11962687233E+04  0.00000000000E+00 0. -1.
         21   -1    0    0  503  502 -0.00000000000E+00 -0.00000000000E+00 -0.42925779453E+01  0.42925779453E+01  0.00000000000E+00 0.  1.
          2    1    1    2  501    0  0.24424109750E+02 -0.33886511684E+01  0.11596112448E+04  0.11598733806E+04  0.00000000000E+00 0. -1.
         21    1    1    2  503  501 -0.24424109750E+02  0.33886511684E+01  0.32364900558E+02  0.40687920590E+02  0.00000000000E+00 0.  1.
</event>
<event>
 4    1  0.2402120E+005  0.2135096E+02  0.7546771E-02  0.1514313E+00
          2   -1    0    0  502    0  0.00000000000E+00  0.00000000000E+00  0.64974483231E+03  0.64974483231E+03  0.00000000000E+00 0. -1.
         21   -1    0    0  503  502 -0.00000000000E+00 -0.00000000000E+00 -0.11155773499E+02  0.11155773499E+02  0.00000000000E+00 0. -1.
          2    1    1    2  501    0  0.18643963553E+02  0.10405093009E+02  0.63918484064E+03  0.63954133865E+03  0.00000000000E+00 0. -1.
         21    1    1    2  503  501 -0.18643963553E+02 -0.10405093009E+02 -0.59578183229E+00  0.21359267157E+02  0.00000000000E+00 0. -1.
</event>
<event>
 4    1  0.2402120E+005  0.2064230E+02  0.7546771E-02  0.1524434E+00
          2   -1    0    0  502    0  0.00000000000E+00  0.00000000000E+00  0.12106286270E+04  0.12106286270E+04  0.00000000000E+00 0.  1.
         21   -1    0    0  503  502 -0.00000000000E+00 -0.00000000000E+00 -0.87612427183E+01  0.87612427183E+01  0.00000000000E+00 0.  1.
          2    1    1    2  501    0  0.18244115386E+02  0.96569462320E+01  0.11982563137E+04  0.11984341023E+04  0.00000000000E+00 0.  1.
         21    1    1    2  503  501 -0.18244115386E+02 -0.96569462320E+01  0.36110706263E+01  0.20955767412E+02  0.00000000000E+00 0.  1.
</event>
<event>
 4    1  0.2402120E+005  0.2178923E+02  0.7546771E-02  0.1508288E+00
          2   -1    0    0  503    0  0.00000000000E+00  0.00000000000E+00  0.88167278081E+02  0.88167278081E+02  0.00000000000E+00 0.  1.
         21   -1    0    0  501  502 -0.00000000000E+00 -0.00000000000E+00 -0.80472412216E+01  0.80472412216E+01  0.00000000000E+00 0.  1.
          2    1    1    2  501    0 -0.20403952184E+02 -0.76452148723E+01  0.67730725877E+02  0.71149292357E+02  0.00000000000E+00 0.  1.
         21    1    1    2  503  502  0.20403952184E+02  0.76452148723E+01  0.12389310982E+02  0.25065226945E+02  0.00000000000E+00 0.  1.
</event>
<event>
 4    1  0.2402120E+005  0.2854442E+02  0.7546771E-02  0.1432682E+00
          2   -1    0    0  502    0  0.00000000000E+00  0.00000000000E+00  0.62698929630E+03  0.62698929630E+03  0.00000000000E+00 0. -1.
         21   -1    0    0  503  502 -0.00000000000E+00 -0.00000000000E+00 -0.15730309263E+02  0.15730309263E+02  0.00000000000E+00 0. -1.
          2    1    1    2  501    0  0.14762517605E+02 -0.24430551727E+02  0.61342905466E+03  0.61409281781E+03  0.00000000000E+00 0. -1.
         21    1    1    2  503  501 -0.14762517605E+02  0.24430551727E+02 -0.21700676220E+01  0.28626787756E+02  0.00000000000E+00 0. -1.
</event>
<event>
 4    1  0.2402120E+005  0.5509816E+02  0.7546771E-02  0.1277463E+00
          2   -1    0    0  503    0  0.00000000000E+00  0.00000000000E+00  0.86730402076E+02  0.86730402076E+02  0.00000000000E+00 0. -1.
         21   -1    0    0  501  502 -0.00000000000E+00 -0.00000000000E+00 -0.42377759397E+02  0.42377759397E+02  0.00000000000E+00 0. -1.
          2    1    1    2  501    0 -0.31215421297E+02 -0.45402694617E+02  0.49106201753E+02  0.73805326744E+02  0.00000000000E+00 0. -1.
         21    1    1    2  503  502  0.31215421297E+02  0.45402694617E+02 -0.47535590733E+01  0.55302834729E+02  0.00000000000E+00 0. -1.
</event>
<event>
 4    1  0.2402120E+005  0.2695592E+02  0.7546771E-02  0.1448051E+00
          2   -1    0    0  503    0  0.00000000000E+00  0.00000000000E+00  0.67051893582E+03  0.67051893582E+03  0.00000000000E+00 0.  1.
         21   -1    0    0  501  502 -0.00000000000E+00 -0.00000000000E+00 -0.18377514931E+01  0.18377514931E+01  0.00000000000E+00 0. -1.
          2    1    1    2  501    0  0.19508703450E+02  0.18601937671E+02  0.54968586165E+03  0.55034640736E+03  0.00000000000E+00 0.  1.
         21    1    1    2  503  502 -0.19508703450E+02 -0.18601937671E+02  0.11899532268E+03  0.12201027995E+03  0.00000000000E+00 0. -1.
</event>
<event>
 4    1  0.2402120E+005  0.2051632E+02  0.7546771E-02  0.1526284E+00
          2   -1    0    0  503    0  0.00000000000E+00  0.00000000000E+00  0.49803639812E+03  0.49803639812E+03  0.00000000000E+00 0. -1.
         21   -1    0    0  501  502 -0.00000000000E+00 -0.00000000000E+00 -0.19911221052E+02  0.19911221052E+02  0.00000000000E+00 0. -1.
          2    1    1    2  501    0  0.30975718219E+01 -0.20281133451E+02  0.49248056206E+03  0.49290772293E+03  0.00000000000E+00 0. -1.
         21    1    1    2  503  502 -0.30975718219E+01  0.20281133451E+02 -0.14355384991E+02  0.25039896235E+02  0.00000000000E+00 0. -1.
</event>
<event>
 4    1  0.2402120E+005  0.2777028E+02  0.7546771E-02  0.1440020E+00
          2   -1    0    0  502    0  0.00000000000E+00  0.00000000000E+00  0.10516449899E+04  0.10516449899E+04  0.00000000000E+00 0. -1.
         21   -1    0    0  503  502 -0.00000000000E+00 -0.00000000000E+00 -0.79192955836E+00  0.79192955836E+00  0.00000000000E+00 0. -1.
          2    1    1    2  501    0  0.27588875319E+02 -0.31689939718E+01  0.66858603984E+03  0.66916252229E+03  0.00000000000E+00 0. -1.
         21    1    1    2  503  501 -0.27588875319E+02  0.31689939718E+01  0.38226702051E+03  0.38327439718E+03  0.00000000000E+00 0. -1.
</event>
<event>
 4    1  0.2402120E+005  0.7425109E+02  0.7546771E-02  0.1217862E+00
          2   -1    0    0  503    0  0.00000000000E+00  0.00000000000E+00  0.34546431542E+04  0.34546431542E+04  0.00000000000E+00 0.  1.
         21   -1    0    0  501  502 -0.00000000000E+00 -0.00000000000E+00 -0.26755164344E+02  0.26755164344E+02  0.00000000000E+00 0.  1.
          2    1    1    2  501    0 -0.51465116117E+02  0.53521647878E+02  0.34019305271E+04  0.34027407389E+04  0.00000000000E+00 0.  1.
         21    1    1    2  503  502  0.51465116117E+02 -0.53521647878E+02  0.25957462813E+02  0.78657579700E+02  0.00000000000E+00 0.  1.
</event>
<event>
 4    1  0.2402120E+005  0.3109334E+02  0.7546771E-02  0.1410327E+00
          2   -1    0    0  503    0  0.00000000000E+00  0.00000000000E+00  0.36858136301E+03  0.36858136301E+03  0.00000000000E+00 0. -1.
         21   -1    0    0  501  502 -0.00000000000E+00 -0.00000000000E+00 -0.30503321779E+01  0.30503321779E+01  0.00000000000E+00 0. -1.
          2    1    1    2  501    0 -0.26395984283E+02  0.16433123509E+02  0.25231322866E+03  0.25422187335E+03  0.00000000000E+00 0. -1.
         21    1    1    2  503  502  0.26395984283E+02 -0.16433123509E+02  0.11321780217E+03  0.11740982184E+03  0.00000000000E+00 0. -1.
</event>
<event>
 4    1  0.2402120E+005  0.2624825E+02  0.7546771E-02  0.1455309E+00
          2   -1    0    0  503    0  0.00000000000E+00  0.00000000000E+00  0.42676439804E+03  0.42676439804E+03  0.00000000000E+00 0.  1.
         21   -1    0    0  501  502 -0.00000000000E+00 -0.00000000000E+00 -0.13016688506E+02  0.13016688506E+02  0.00000000000E+00 0.  1.
          2    1    1    2  501    0 -0.22681141563E+02 -0.13211216950E+02  0.41267710065E+03  0.41351101537E+03  0.00000000000E+00 0.  1.
         21    1    1    2  503  502  0.22681141563E+02  0.13211216950E+02  0.10706088826E+01  0.26270071170E+02  0.00000000000E+00 0.  1.
</event>
<event>
 4    1  0.2402120E+005  0.3342557E+02  0.7546771E-02  0.1391983E+00
          2   -1    0    0  502    0  0.00000000000E+00  0.00000000000E+00  0.21942013824E+03  0.21942013824E+03  0.00000000000E+00 0.  1.
         21   -1    0    0  503  502 -0.00000000000E+00 -0.00000000000E+00 -0.53587593765E+01  0.53587593765E+01  0.00000000000E+00 0.  1.
          2    1    1    2  501    0 -0.10216767250E+02  0.31825878156E+02  0.13211036108E+03  0.13627331492E+03  0.00000000000E+00 0.  1.
         21    1    1    2  503  501  0.10216767250E+02 -0.31825878156E+02  0.81951017783E+02  0.88505582701E+02  0.00000000000E+00 0.  1.
</event>
<event>
 4    1  0.3931425E+005  0.2018969E+02  0.7546771E-02  0.1531155E+00
          2   -1    0    0  503    0  0.00000000000E+00  0.00000000000E+00  0.26136993553E+03  0.26136993553E+03  0.00000000000E+00 0. -1.
         21   -1    0    0  501  502 -0.00000000000E+00 -0.00000000000E+00 -0.21002496737E+03  0.21002496737E+03  0.00000000000E+00 0. -1.
          2    1    1    2  501    0 -0.20180672053E+02 -0.60337052681E+00  0.26049320503E+03  0.26127444087E+03  0.00000000000E+00 0. -1.
         21    1    1    2  503  502  0.20180672053E+02  0.60337052681E+00 -0.20914823688E+03  0.21012046204E+03  0.00000000000E+00 0. -1.
</event>
<event>
 4    1  0.2402120E+005  0.3112185E+02  0.7546771E-02  0.1410092E+00
          2   -1    0    0  503    0  0.00000000000E+00  0.00000000000E+00  0.11140516109E+03  0.11140516109E+03  0.00000000000E+00 0. -1.
         21   -1    0    0  501  502 -0.00000000000E+00 -0.00000000000E+00 -0.99264015506E+01  0.99264015506E+01  0.00000000000E+00 0. -1.
          2    1    1    2  501    0  0.31121757962E+02  0.74870063495E-01  0.72114250905E+02  0.78543202174E+02  0.00000000000E+00 0. -1.
         21    1    1    2  503  502 -0.31121757962E+02 -0.74870063495E-01  0.29364508638E+02  0.42788360470E+02  0.00000000000E+00 0. -1.
</event>
<event>
 4    1  0.2402120E+005  0.2291234E+02  0.7546771E-02  0.1493602E+00
          2   -1    0    0  503    0  0.00000000000E+00  0.00000000000E+00  0.10190230480E+02  0.10190230480E+02  0.00000000000E+00 0. -1.
         21   -1    0    0  501  502 -0.00000000000E+00 -0.00000000000E+00 -0.93183502725E+02  0.93183502725E+02  0.00000000000E+00 0. -1.
          2    1    1    2  501    0 -0.21209210034E+02  0.86686136540E+01 -0.69344282318E+01  0.23938708149E+02  0.00000000000E+00 0. -1.
         21    1    1    2  503  502  0.21209210034E+02 -0.86686136540E+01 -0.76058844014E+02  0.79435025056E+02  0.00000000000E+00 0. -1.
</event>
<event>
 4    1  0.2402120E+005  0.5854470E+02  0.7546771E-02  0.1264859E+00
          2   -1    0    0  503    0  0.00000000000E+00  0.00000000000E+00  0.72177071277E+01  0.72177071277E+01  0.00000000000E+00 0.  1.
         21   -1    0    0  501  502 -0.00000000000E+00 -0.00000000000E+00 -0.10786675143E+04  0.10786675143E+04  0.00000000000E+00 0. -1.
          2    1    1    2  501    0  0.16369141834E+02 -0.56209722484E+02 -0.12951048653E+03  0.14212827947E+03  0.00000000000E+00 0.  1.
         21    1    1    2  503  502 -0.16369141834E+02  0.56209722484E+02 -0.94193932069E+03  0.94375694199E+03  0.00000000000E+00 0. -1.
</event>
<event>
 4    1  0.2402120E+005  0.2554752E+02  0.7546771E-02  0.1462771E+00
          2   -1    0    0  503    0  0.00000000000E+00  0.00000000000E+00  0.30806023348E+03  0.30806023348E+03  0.00000000000E+00 0.  1.
         21   -1    0    0  501  502 -0.00000000000E+00 -0.00000000000E+00 -0.18765734440E+02  0.18765734440E+02  0.00000000000E+00 0. -1.
          2    1    1    2  501    0 -0.16572166619E+02  0.19443229731E+02  0.29855932547E+03  0.29965037413E+03  0.00000000000E+00 0.  1.
         21    1    1    2  503  502  0.16572166619E+02 -0.19443229731E+02 -0.92648264366E+01  0.27175593788E+02  0.00000000000E+00 0. -1.
</event>
<event>
 4    1  0.2402120E+005  0.2212100E+02  0.7546771E-02  0.1503841E+00
          2   -1    0    0  502    0  0.00000000000E+00  0.00000000000E+00  0.28662173911E+03  0.28662173911E+03  0.00000000000E+00 0.  1.
         21   -1    0    0  503  502 -0.00000000000E+00 -0.00000000000E+00 -0.11355416359E+03  0.11355416359E+03  0.00000000000E+00 0. -1.
          2    1    1    2  501    0 -0.20774581427E+02 -0.75996950512E+01  0.28511190272E+03  0.28596876695E+03  0.00000000000E+00 0.  1.
         21    1    1    2  503  501  0.20774581427E+02  0.75996950512E+01 -0.11204432720E+03  0.11420713575E+03  0.00000000000E+00 0. -1.
</event>
<event>
 4    1  0.2402120E+005  0.2052613E+02  0.7546771E-02  0.1526139E+00
          2   -1    0    0  502    0  0.00000000000E+00  0.00000000000E+00  0.20746218883E+03  0.20746218883E+03  0.00000000000E+00 0. -1.
         21   -1    0    0  503  502 -0.00000000000E+00 -0.00000000000E+00 -0.33972034452E+01  0.33972034452E+01  0.00000000000E+00 0. -1.
          2    1    1    2  501    0 -0.10274614081E+02  0.17769476402E+02  0.16889546779E+03  0.17013818215E+03  0.00000000000E+00 0. -1.
         21    1    1    2  503  501  0.10274614081E+02 -0.17769476402E+02  0.35169517603E+02  0.40721210131E+02  0.00000000000E+00 0. -1.
</event>
<event>
 4    1  0.2402120E+005  0.2047623E+02  0.7546771E-02  0.1526876E+00
          2   -1    0    0  503    0  0.00000000000E+00  0.00000000000E+00  0.54623096456E+03  0.54623096456E+03  0.00000000000E+00 0.  1.
         21   -1    0    0  501  502 -0.00000000000E+00 -0.00000000000E+00 -0.12426474175E+01  0.12426474175E+01  0.00000000000E+00 0.  1.
          2    1    1    2  501    0 -0.69368328458E+00 -0.20464480643E+02  0.44174728101E+03  0.44222159201E+03  0.00000000000E+00 0.  1.
         21    1    1    2  503  502  0.69368328458E+00  0.20464480643E+02  0.10324103613E+03  0.10525201996E+03  0.00000000000E+00 0.  1.
</event>
<event>
 4    1  0.2402120E+005  0.3259287E+02  0.7546771E-02  0.1398325E+00
          2   -1    0    0  502    0  0.00000000000E+00  0.00000000000E+00  0.13869646628E+04  0.13869646628E+04  0.00000000000E+00 0.  1.
         21   -1    0    0  503  502 -0.00000000000E+00 -0.00000000000E+00 -0.16682618444E+01  0.16682618444E+01  0.00000000000E+00 0.  1.
          2    1    1    2  501    0 -0.12950088489E+01  0.32567136226E+02  0.12032853285E+04  0.12037266622E+04  0.00000000000E+00 0.  1.
         21    1    1    2  503  501  0.12950088489E+01 -0.32567136226E+02  0.18201107248E+03  0.18490626251E+03  0.00000000000E+00 0.  1.
</event>
<event>
 4    1  0.2402120E+005  0.2263900E+02  0.7546771E-02  0.1497082E+00
          2   -1    0    0  503    0  0.00000000000E+00  0.00000000000E+00  0.55611784485E+02  0.55611784485E+02  0.00000000000E+00 0.  1.
         21   -1    0    0  501  502 -0.00000000000E+00 -0.00000000000E+00 -0.92822551452E+01  0.92822551452E+01  0.00000000000E+00 0. -1.
          2    1    1    2  501    0  0.21324534936E+02 -0.76018784022E+01  0.20425741347E+02  0.30491560390E+02  0.00000000000E+00 0.  1.
         21    1    1    2  503  502 -0.21324534936E+02  0.76018784022E+01  0.25903787993E+02  0.34402479240E+02  0.00000000000E+00 0. -1.
</event>
<event>
 4    1  0.2402120E+005  0.2264165E+02  0.7546771E-02  0.1497048E+00
          2   -1    0    0  503    0  0.00000000000E+00  0.00000000000E+00  0.95981825502E+02  0.95981825502E+02  0.00000000000E+00 0.  1.
         21   -1    0    0  501  502 -0.00000000000E+00 -0.00000000000E+00 -0.54763562797E+01  0.54763562797E+01  0.00000000000E+00 0.  1.
          2    1    1    2  501    0  0.99199430395E+01  0.20352860925E+02  0.53226474024E+02  0.57842041413E+02  0.00000000000E+00 0.  1.
         21    1    1    2  503  502 -0.99199430395E+01 -0.20352860925E+02  0.37278995197E+02  0.43616140369E+02  0.00000000000E+00 0.  1.
</event>
<event>
 4    1  0.2402120E+005  0.2684989E+02  0.7546771E-02  0.1449122E+00
          2   -1    0    0  502    0  0.00000000000E+00  0.00000000000E+00  0.10780451136E+03  0.10780451136E+03  0.00000000000E+00 0. -1.
         21   -1    0    0  503  502 -0.00000000000E+00 -0.00000000000E+00 -0.12554794130E+02  0.12554794130E+02  0.00000000000E+00 0.  1.
          2    1    1    2  501    0  0.26737742269E+02 -0.24515218865E+01  0.88765653957E+02  0.92737576761E+02  0.00000000000E+00 0. -1.
         21    1    1    2  503  501 -0.26737742269E+02  0.24515218865E+01  0.64840632687E+01  0.27621728724E+02  0.00000000000E+00 0.  1.
</event>
<event>
 4    1  0.2402120E+005  0.2599174E+02  0.7546771E-02  0.1458008E+00
          2   -1    0    0  503    0  0.00000000000E+00  0.00000000000E+00  0.52629088303E+02  0.52629088303E+02  0.00000000000E+00 0.  1.
         21   -1    0    0  501  502 -0.00000000000E+00 -0.00000000000E+00 -0.19174952979E+02  0.19174952979E+02  0.00000000000E+00 0.  1.
          2    1    1    2  501    0 -0.25938885017E+02  0.16567787531E+01  0.37368749538E+02  0.45519162051E+02  0.00000000000E+00 0.  1.
         21    1    1    2  503  502  0.25938885017E+02 -0.16567787531E+01 -0.39146142143E+01  0.26284879231E+02  0.00000000000E+00 0.  1.
</event>
<event>
 4    1  0.2402120E+005  0.2646687E+02  0.7546771E-02  0.1453038E+00
          2   -1    0    0  503    0  0.00000000000E+00  0.00000000000E+00  0.15737633019E+04  0.15737633019E+04  0.00000000000E+00 0.  1.
         21   -1    0    0  501  502 -0.00000000000E+00 -0.00000000000E+00 -0.16852286885E+01  0.16852286885E+01  0.00000000000E+00 0.  1.
          2    1    1    2  501    0 -0.10466203409E+02 -0.24309545876E+02  0.14617744652E+04  0.14620140501E+04  0.00000000000E+00 0.  1.
         21    1    1    2  503  502  0.10466203409E+02  0.24309545876E+02  0.11030360800E+03  0.11343448053E+03  0.00000000000E+00 0.  1.
</event>
<event>
 4    1  0.2402120E+005  0.3267867E+02  0.7546771E-02  0.1397661E+00
          2   -1    0    0  503    0  0.00000000000E+00  0.00000000000E+00  0.17163755571E+03  0.17163755571E+03  0.00000000000E+00 0.  1.
         21   -1    0    0  501  502 -0.00000000000E+00 -0.00000000000E+00 -0.10852971196E+02  0.10852971196E+02  0.00000000000E+00 0. -1.
          2    1    1    2  501    0  0.32574614057E+02  0.26057836602E+01  0.13999707872E+03  0.14376048706E+03  0.00000000000E+00 0.  1.
         21    1    1    2  503  502 -0.32574614057E+02 -0.26057836602E+01  0.20787505797E+02  0.38730039849E+02  0.00000000000E+00 0. -1.
</event>
<event>
 4    1  0.2402120E+005  0.2022516E+02  0.7546771E-02  0.1530621E+00
          2   -1    0    0  502    0  0.00000000000E+00  0.00000000000E+00  0.13568659856E+04  0.13568659856E+04  0.00000000000E+00 0. -1.
         21   -1    0    0  503  502 -0.00000000000E+00 -0.00000000000E+00 -0.19739025350E+01  0.19739025350E+01  0.00000000000E+00 0. -1.
          2    1    1    2  501    0  0.11133986123E+02 -0.16884646491E+02  0.13028339772E+04  0.13029909551E+04  0.00000000000E+00 0. -1.
         21    1    1    2  503  501 -0.11133986123E+02  0.16884646491E+02  0.52058105809E+02  0.55848932976E+02  0.00000000000E+00 0. -1.
</event>
<event>
 4    1  0.2402120E+005  0.3202073E+02  0.7546771E-02  0.1402812E+00
          2   -1    0    0  502    0  0.00000000000E+00  0.00000000000E+00  0.12445142953E+04  0.12445142953E+04  0.00000000000E+00 0.  1.
         21   -1    0    0  503  502 -0.00000000000E+00 -0.00000000000E+00 -0.18882186662E+01  0.18882186662E+01  0.00000000000E+00 0. -1.
          2    1    1    2  501    0  0.82520214150E+01 -0.30939154597E+02  0.10892018250E+04  0.10896724015E+04  0.00000000000E+00 0.  1.
         21    1    1    2  503  501 -0.82520214150E+01  0.30939154597E+02  0.15342425164E+03  0.15673011241E+03  0.00000000000E+00 0. -1.
</event>
<event>
 4    1  0.2402120E+005  0.2726628E+02  0.7546771E-02  0.1444951E+00
          2   -1    0    0  503    0  0.00000000000E+00  0.00000000000E+00  0.14600670948E+04  0.14600670948E+04  0.00000000000E+00 0. -1.
         21   -1    0    0  501  502 -0.00000000000E+00 -0.00000000000E+00 -0.11365717343E+02  0.11365717343E+02  0.00000000000E+00 0. -1.
          2    1    1    2  501    0  0.37798416994E+01  0.27003011712E+02  0.14433980616E+04  0.14436555732E+04  0.00000000000E+00 0. -1.
         21    1    1    2  503  502 -0.37798416994E+01 -0.27003011712E+02  0.53033158891E+01  0.27777238959E+02  0.00000000000E+00 0. -1.
</event>
<event>
 4    1  0.2402120E+005  0.4872545E+02  0.7546771E-02  0.1303795E+00
          2   -1    0    0  502    0  0.00000000000E+00  0.00000000000E+00  0.23912859814E+03  0.23912859814E+03  0.00000000000E+00 0.  1.
         21   -1    0    0  503  502 -0.00000000000E+00 -0.00000000000E+00 -0.10129348776E+02  0.10129348776E+02  0.00000000000E+00 0.  1.
          2    1    1    2  501    0 -0.93967952362E+01  0.47810767624E+02  0.13205252351E+03  0.14075524227E+03  0.00000000000E+00 0.  1.
         21    1    1    2  503  501  0.93967952362E+01 -0.47810767624E+02  0.96946725856E+02  0.10850270465E+03  0.00000000000E+00 0.  1.
</event>
<event>
 4    1  0.2402120E+005  0.2816195E+02  0.7546771E-02  0.1436273E+00
          2   -1    0    0  503    0  0.00000000000E+00  0.00000000000E+00  0.69968840902E+03  0.69968840902E+03  0.00000000000E+00 0.  1.
         21   -1    0    0  501  502 -0.00000000000E+00 -0.00000000000E+00 -0.12518501566E+02  0.12518501566E+02  0.00000000000E+00 0.  1.
          2    1    1    2  501    0  0.28014682163E+02 -0.28762422036E+01  0.68318411216E+03  0.68376430610E+03  0.00000000000E+00 0.  1.
         21    1    1    2  503  502 -0.28014682163E+02  0.28762422036E+01  0.39857952926E+01  0.28442604487E+02  0.00000000000E+00 0.  1.
</event>
<event>
 4    1  0.2402120E+005  0.2738179E+02  0.7546771E-02  0.1443810E+00
          2   -1    0    0  503    0  0.00000000000E+00  0.00000000000E+00  0.30238941975E+02  0.30238941975E+02  0.00000000000E+00 0. -1.
         21   -1    0    0  501  502 -0.00000000000E+00 -0.00000000000E+00 -0.65373639409E+02  0.65373639409E+02  0.00000000000E+00 0. -1.
          2    1    1    2  501    0  0.26203636805E+02  0.79455454245E+01  0.20097361658E+02  0.33965662359E+02  0.00000000000E+00 0. -1.
         21    1    1    2  503  502 -0.26203636805E+02 -0.79455454245E+01 -0.55232059092E+02  0.61646919026E+02  0.00000000000E+00 0. -1.
</event>
<event>
 4    1  0.2402120E+005  0.2097485E+02  0.7546771E-02  0.1519624E+00
          2   -1    0    0  503    0  0.00000000000E+00  0.00000000000E+00  0.11661624168E+04  0.11661624168E+04  0.00000000000E+00 0.  1.
         21   -1    0    0  501  502 -0.00000000000E+00 -0.00000000000E+00 -0.38747020496E+00  0.38747020496E+00  0.00000000000E+00 0. -1.
          2    1    1    2  501    0  0.18232941716E+02 -0.10368430838E+02  0.67757793985E+03  0.67790250707E+03  0.00000000000E+00 0.  1.
         21    1    1    2  503  502 -0.18232941716E+02  0.10368430838E+02  0.48819700679E+03  0.48864737998E+03  0.00000000000E+00 0. -1.
</event>
<event>
 4    1  0.2402120E+005  0.3321469E+02  0.7546771E-02  0.1393568E+00
          2   -1    0    0  503    0  0.00000000000E+00  0.00000000000E+00  0.70855361659E+03  0.70855361659E+03  0.00000000000E+00 0.  1.
         21   -1    0    0  501  502 -0.00000000000E+00 -0.00000000000E+00 -0.13806249702E+02  0.13806249702E+02  0.00000000000E+00 0.  1.
          2    1    1    2  501    0  0.33212063466E+02  0.41801316863E+00  0.68757857011E+03  0.68838034978E+03  0.00000000000E+00 0.  1.
         21    1    1    2  503  502 -0.33212063466E+02 -0.41801316863E+00  0.71687967756E+01  0.33979516505E+02  0.00000000000E+00 0.  1.
</event>
<event>
 4    1  0.2402120E+005  0.2404984E+02  0.7546771E-02  0.1479720E+00
          2   -1    0    0  503    0  0.00000000000E+00  0.00000000000E+00  0.58221316779E+03  0.58221316779E+03  0.00000000000E+00 0.  1.
         21   -1    0    0  501  502 -0.00000000000E+00 -0.00000000000E+00 -0.72439906059E+01  0.72439906059E+01  0.00000000000E+00 0.  1.
          2    1    1    2  501    0  0.20155618867E+02 -0.13120427862E+02  0.56125871659E+03  0.56177374587E+03  0.00000000000E+00 0.  1.
         21    1    1    2  503  502 -0.20155618867E+02  0.13120427862E+02  0.13710460586E+02  0.27683412519E+02  0.00000000000E+00 0.  1.
</event>
<event>
 4    1  0.2402120E+005  0.3827227E+02  0.7546771E-02  0.1358919E+00
          2   -1    0    0  503    0  0.00000000000E+00  0.00000000000E+00  0.31370264500E+03  0.31370264500E+03  0.00000000000E+00 0.  1.
         21   -1    0    0  501  502 -0.00000000000E+00 -0.00000000000E+00 -0.50145222054E+01  0.50145222054E+01  0.00000000000E+00 0.  1.
          2    1    1    2  501    0 -0.27400275488E+02 -0.26720623596E+02  0.19615789091E+03  0.19985666111E+03  0.00000000000E+00 0.  1.
         21    1    1    2  503  502  0.27400275488E+02  0.26720623596E+02  0.11253023188E+03  0.11886050609E+03  0.00000000000E+00 0.  1.
</event>
<event>
 4    1  0.2402120E+005  0.2045132E+02  0.7546771E-02  0.1527245E+00
          2   -1    0    0  503    0  0.00000000000E+00  0.00000000000E+00  0.37316153534E+02  0.37316153534E+02  0.00000000000E+00 0. -1.
         21   -1    0    0  501  502 -0.00000000000E+00 -0.00000000000E+00 -0.11744563923E+03  0.11744563923E+03  0.00000000000E+00 0.  1.
          2    1    1    2  501    0 -0.15692455564E+02 -0.13115002787E+02  0.33531150644E+02  0.39275877116E+02  0.00000000000E+00 0. -1.
         21    1    1    2  503  502  0.15692455564E+02  0.13115002787E+02 -0.11366063634E+03  0.11548591565E+03  0.00000000000E+00 0.  1.
</event>
<event>
 4    1  0.2402120E+005  0.2669060E+02  0.7546771E-02  0.1450741E+00
          2   -1    0    0  502    0  0.00000000000E+00  0.00000000000E+00  0.37808815277E+03  0.37808815277E+03  0.00000000000E+00 0. -1.
         21   -1    0    0  503  502 -0.00000000000E+00 -0.00000000000E+00 -0.24456005048E+03  0.24456005048E+03  0.00000000000E+00 0.  1.
          2    1    1    2  501    0  0.17435069044E+02  0.20209065204E+02  0.37688655352E+03  0.37783046750E+03  0.00000000000E+00 0. -1.
         21    1    1    2  503  501 -0.17435069044E+02 -0.20209065204E+02 -0.24335845123E+03  0.24481773574E+03  0.00000000000E+00 0.  1.
</event>
<event>
 4    1  0.2402120E+005  0.3022355E+02  0.7546771E-02  0.1417663E+00
          2   -1    0    0  503    0  0.00000000000E+00  0.00000000000E+00  0.14172433382E+03  0.14172433382E+03  0.00000000000E+00 0.  1.
         21   -1    0    0  501  502 -0.00000000000E+00 -0.00000000000E+00 -0.10006269161E+02  0.10006269161E+02  0.00000000000E+00 0. -1.
          2    1    1    2  501    0 -0.18853035934E+02  0.23622574602E+02  0.11111627901E+03  0.11515333454E+03  0.00000000000E+00 0.  1.
         21    1    1    2  503  502  0.18853035934E+02 -0.23622574602E+02  0.20601785652E+02  0.36577268444E+02  0.00000000000E+00 0. -1.
</event>
<event>
 4    1  0.2402120E+005  0.2016571E+02  0.7546771E-02  0.1531517E+00
          2   -1    0    0  502    0  0.00000000000E+00  0.00000000000E+00  0.47815627275E+01  0.47815627275E+01  0.00000000000E+00 0.  1.
         21   -1    0    0  503  502 -0.00000000000E+00 -0.00000000000E+00 -0.13917493779E+03  0.13917493779E+03  0.00000000000E+00 0.  1.
          2    1    1    2  501    0  0.16465382450E+00 -0.20165037271E+02 -0.22308408420E+02  0.30071929191E+02  0.00000000000E+00 0.  1.
         21    1    1    2  503  501 -0.16465382450E+00  0.20165037271E+02 -0.11208496664E+03  0.11388457132E+03  0.00000000000E+00 0.  1.
</event>
<event>
 4    1  0.2402120E+005  0.2065296E+02  0.7546771E-02  0.1524278E+00
          2   -1    0    0  503    0  0.00000000000E+00  0.00000000000E+00  0.76200651051E+03  0.76200651051E+03  0.00000000000E+00 0.  1.
         21   -1    0    0  501  502 -0.00000000000E+00 -0.00000000000E+00 -0.29145871247E+02  0.29145871247E+02  0.00000000000E+00 0. -1.
          2    1    1    2  501    0 -0.38171270228E+01 -0.20297146727E+02  0.75818944772E+03  0.75847068715E+03  0.00000000000E+00 0.  1.
         21    1    1    2  503  502  0.38171270228E+01  0.20297146727E+02 -0.25328808465E+02  0.32681694604E+02  0.00000000000E+00 0. -1.
</event>
<event>
 4    1  0.2402120E+005  0.2415132E+02  0.7546771E-02  0.1478526E+00
          2   -1    0    0  503    0  0.00000000000E+00  0.00000000000E+00  0.10028992130E+04  0.10028992130E+04  0.00000000000E+00 0.  1.
         21   -1    0    0  501  502 -0.00000000000E+00 -0.00000000000E+00 -0.12827353494E+01  0.12827353494E+01  0.00000000000E+00 0.  1.
          2    1    1    2  501    0 -0.20573715823E+02  0.12649450316E+02  0.87201404009E+03  0.87234842379E+03  0.00000000000E+00 0.  1.
         21    1    1    2  503  502  0.20573715823E+02 -0.12649450316E+02  0.12960243760E+03  0.13183352459E+03  0.00000000000E+00 0.  1.
</event>
<event>
 4    1  0.2402120E+005  0.2518684E+02  0.7546771E-02  0.1466724E+00
          2   -1    0    0  503    0  0.00000000000E+00  0.00000000000E+00  0.56223305912E+02  0.56223305912E+02  0.00000000000E+00 0.  1.
         21   -1    0    0  501  502 -0.00000000000E+00 -0.00000000000E+00 -0.58643620307E+02  0.58643620307E+02  0.00000000000E+00 0.  1.
          2    1    1    2  501    0 -0.16175136886E+02 -0.19306523142E+02  0.50403252168E+02  0.56345937903E+02  0.00000000000E+00 0.  1.
         21    1    1    2  503  502  0.16175136886E+02  0.19306523142E+02 -0.52823566563E+02  0.58520988316E+02  0.00000000000E+00 0.  1.
</event>
<event>
 4    1  0.2402120E+005  0.2033345E+02  0.7546771E-02  0.1528998E+00
          2   -1    0    0  502    0  0.00000000000E+00  0.00000000000E+00  0.33503155645E+01  0.33503155645E+01  0.00000000000E+00 0.  1.
         21   -1    0    0  503  502 -0.00000000000E+00 -0.00000000000E+00 -0.15512625727E+03  0.15512625727E+03  0.00000000000E+00 0.  1.
          2    1    1    2  501    0  0.17060597855E+02 -0.11062783654E+02 -0.40056842497E+02  0.44922152800E+02  0.00000000000E+00 0.  1.
         21    1    1    2  503  501 -0.17060597855E+02  0.11062783654E+02 -0.11171909921E+03  0.11355442003E+03  0.00000000000E+00 0.  1.
</event>
<event>
 4    1  0.2402120E+005  0.7559149E+02  0.7546771E-02  0.1214469E+00
          2   -1    0    0  502    0  0.00000000000E+00  0.00000000000E+00  0.75244195808E+03  0.75244195808E+03  0.00000000000E+00 0.  1.
         21   -1    0    0  503  502 -0.00000000000E+00 -0.00000000000E+00 -0.26285883879E+02  0.26285883879E+02  0.00000000000E+00 0.  1.
          2    1    1    2  501    0 -0.57156254706E+02 -0.49469540772E+02  0.69141555326E+03  0.69553543418E+03  0.00000000000E+00 0.  1.
         21    1    1    2  503  501  0.57156254706E+02  0.49469540772E+02  0.34740520943E+02  0.83192407776E+02  0.00000000000E+00 0.  1.
</event>
<event>
 4    1  0.2402120E+005  0.2191125E+02  0.7546771E-02  0.1506642E+00
          2   -1    0    0  502    0  0.00000000000E+00  0.00000000000E+00  0.97448931106E+03  0.97448931106E+03  0.00000000000E+00 0.  1.
         21   -1    0    0  503  502 -0.00000000000E+00 -0.00000000000E+00 -0.71552366911E+00  0.71552366911E+00  0.00000000000E+00 0.  1.
          2    1    1    2  501    0  0.19204478176E+02 -0.10549456701E+02  0.75900809058E+03  0.75932429474E+03  0.00000000000E+00 0.  1.
         21    1    1    2  503  501 -0.19204478176E+02  0.10549456701E+02  0.21476569681E+03  0.21588053999E+03  0.00000000000E+00 0.  1.
</event>
<event>
 4    1  0.2402120E+005  0.2904482E+02  0.7546771E-02  0.1428082E+00
          2   -1    0    0  503    0  0.00000000000E+00  0.00000000000E+00  0.18857224974E+02  0.18857224974E+02  0.00000000000E+00 0.  1.
         21   -1    0    0  501  502 -0.00000000000E+00 -0.00000000000E+00 -0.47591544108E+02  0.47591544108E+02  0.00000000000E+00 0.  1.
          2    1    1    2  501    0  0.29039869896E+02  0.53611613424E+00 -0.22505160591E+02  0.36743485372E+02  0.00000000000E+00 0.  1.
         21    1    1    2  503  502 -0.29039869896E+02 -0.53611613424E+00 -0.62291585442E+01  0.29705283710E+02  0.00000000000E+00 0.  1.
</event>
<event>
 4    1  0.2402120E+005  0.2257272E+02  0.7546771E-02  0.1497934E+00
          2   -1    0    0  503    0  0.00000000000E+00  0.00000000000E+00  0.99569038097E+03  0.99569038097E+03  0.00000000000E+00 0.  1.
         21   -1    0    0  501  502 -0.00000000000E+00 -0.00000000000E+00 -0.84715613843E+00  0.84715613843E+00  0.00000000000E+00 0. -1.
          2    1    1    2  501    0 -0.12873090487E+02 -0.18542149146E+02  0.81095107740E+03  0.81126517101E+03  0.00000000000E+00 0.  1.
         21    1    1    2  503  502  0.12873090487E+02  0.18542149146E+02  0.18389214744E+03  0.18527236611E+03  0.00000000000E+00 0. -1.
</event>
<event>
 4    1  0.2402120E+005  0.2797918E+02  0.7546771E-02  0.1438013E+00
          2   -1    0    0  502    0  0.00000000000E+00  0.00000000000E+00  0.77564498199E+03  0.77564498199E+03  0.00000000000E+00 0.  1.
         21   -1    0    0  503  502 -0.00000000000E+00 -0.00000000000E+00 -0.13789048124E+01  0.13789048124E+01  0.00000000000E+00 0.  1.
          2    1    1    2  501    0 -0.24016398303E+02 -0.14354334777E+02  0.58828503298E+03  0.58895001006E+03  0.00000000000E+00 0.  1.
         21    1    1    2  503  501  0.24016398303E+02  0.14354334777E+02  0.18598104419E+03  0.18807387674E+03  0.00000000000E+00 0.  1.
</event>
<event>
 4    1  0.2402120E+005  0.2230084E+02  0.7546771E-02  0.1501469E+00
          2   -1    0    0  502    0  0.00000000000E+00  0.00000000000E+00  0.39298964432E+03  0.39298964432E+03  0.00000000000E+00 0.  1.
         21   -1    0    0  503  502 -0.00000000000E+00 -0.00000000000E+00 -0.10032865905E+02  0.10032865905E+02  0.00000000000E+00 0.  1.
          2    1    1    2  501    0  0.14634638875E+02 -0.16827203008E+02  0.37985259399E+03  0.38050666299E+03  0.00000000000E+00 0.  1.
         21    1    1    2  503  501 -0.14634638875E+02  0.16827203008E+02  0.31041844282E+01  0.22515847242E+02  0.00000000000E+00 0.  1.
</event>
<event>
 4    1  0.2402120E+005  0.2959443E+02  0.7546771E-02  0.1423154E+00
          2   -1    0    0  503    0  0.00000000000E+00  0.00000000000E+00  0.55737599420E+03  0.55737599420E+03  0.00000000000E+00 0. -1.
         21   -1    0    0  501  502 -0.00000000000E+00 -0.00000000000E+00 -0.14889802695E+02  0.14889802695E+02  0.00000000000E+00 0.  1.
          2    1    1    2  501    0 -0.16850543501E+02  0.24328783595E+02  0.54185710434E+03  0.54266467735E+03  0.00000000000E+00 0. -1.
         21    1    1    2  503  502  0.16850543501E+02 -0.24328783595E+02  0.62908717008E+00  0.29601119542E+02  0.00000000000E+00 0.  1.
</event>
<event>
 4    1  0.2402120E+005  0.3689331E+02  0.7546771E-02  0.1367720E+00
          2   -1    0    0  503    0  0.00000000000E+00  0.00000000000E+00  0.10951366524E+04  0.10951366524E+04  0.00000000000E+00 0.  1.
         21   -1    0    0  501  502 -0.00000000000E+00 -0.00000000000E+00 -0.54776993024E+01  0.54776993024E+01  0.00000000000E+00 0.  1.
          2    1    1    2  501    0 -0.70569062967E+01  0.36212100170E+02  0.10286940950E+04  0.10293554572E+04  0.00000000000E+00 0.  1.
         21    1    1    2  503  502  0.70569062967E+01 -0.36212100170E+02  0.60964858030E+02  0.71258894461E+02  0.00000000000E+00 0.  1.
</event>
<event>
 4    1  0.2402120E+005  0.2862503E+02  0.7546771E-02  0.1431934E+00
          2   -1    0    0  503    0  0.00000000000E+00  0.00000000000E+00  0.12788799617E+04  0.12788799617E+04  0.00000000000E+00 0.  1.
         21   -1    0    0  501  502 -0.00000000000E+00 -0.00000000000E+00 -0.24714520620E+02  0.24714520620E+02  0.00000000000E+00 0.  1.
          2    1    1    2  501    0 -0.26816204973E+02 -0.10014160820E+02  0.12703757338E+04  0.12706981929E+04  0.00000000000E+00 0.  1.
         21    1    1    2  503  502  0.26816204973E+02  0.10014160820E+02 -0.16210292773E+02  0.32896289424E+02  0.00000000000E+00 0.  1.
</event>
<event>
 4    1  0.2402120E+005  0.2172865E+02  0.7546771E-02  0.1509111E+00
          2   -1    0    0  503    0  0.00000000000E+00  0.00000000000E+00  0.17649252407E+04  0.17649252407E+04  0.00000000000E+00 0.  1.
         21   -1    0    0  501  502 -0.00000000000E+00 -0.00000000000E+00 -0.29468583951E+00  0.29468583951E+00  0.00000000000E+00 0.  1.
          2    1    1    2  501    0  0.17386135767E+02  0.13032907819E+02  0.11503456828E+04  0.11505508786E+04  0.00000000000E+00 0.  1.
         21    1    1    2  503  502 -0.17386135767E+02 -0.13032907819E+02  0.61428487208E+03  0.61466904792E+03  0.00000000000E+00 0.  1.
</event>
<event>
 4    1  0.2402120E+005  0.2805334E+02  0.7546771E-02  0.1437305E+00
          2   -1    0    0  502    0  0.00000000000E+00  0.00000000000E+00  0.99755696583E+02  0.99755696583E+02  0.00000000000E+00 0.  1.
         21   -1    0    0  503  502 -0.00000000000E+00 -0.00000000000E+00 -0.24368805378E+02  0.24368805378E+02  0.00000000000E+00 0. -1.
          2    1    1    2  501    0  0.23681838842E+02  0.15038630502E+02  0.88730331794E+02  0.93059452387E+02  0.00000000000E+00 0.  1.
         21    1    1    2  503  501 -0.23681838842E+02 -0.15038630502E+02 -0.13343440588E+02  0.31065049574E+02  0.00000000000E+00 0. -1.
</event>
<event>
 4    1  0.2402120E+005  0.2337355E+02  0.7546771E-02  0.1487860E+00
          2   -1    0    0  503    0  0.00000000000E+00  0.00000000000E+00  0.11924312839E+03  0.11924312839E+03  0.00000000000E+00 0. -1.
         21   -1    0    0  501  502 -0.00000000000E+00 -0.00000000000E+00 -0.71373257694E+01  0.71373257694E+01  0.00000000000E+00 0.  1.
          2    1    1    2  501    0 -0.27533237369E+01 -0.23210820471E+02  0.93865823056E+02  0.96732185526E+02  0.00000000000E+00 0. -1.
         21    1    1    2  503  502  0.27533237369E+01  0.23210820471E+02  0.18239979567E+02  0.29648268637E+02  0.00000000000E+00 0.  1.
</event>
<event>
 4    1  0.2402120E+005  0.3628474E+02  0.7546771E-02  0.1371749E+00
          2   -1    0    0  503    0  0.00000000000E+00  0.00000000000E+00  0.17562928499E+04  0.17562928499E+04  0.00000000000E+00 0.  1.
         21   -1    0    0  501  502 -0.00000000000E+00 -0.00000000000E+00 -0.78138767780E+00  0.78138767780E+00  0.00000000000E+00 0.  1.
          2    1    1    2  501    0 -0.32579376640E+02 -0.15973930158E+02  0.70066213596E+03  0.70160103407E+03  0.00000000000E+00 0.  1.
         21    1    1    2  503  502  0.32579376640E+02  0.15973930158E+02  0.10548493263E+04  0.10554732035E+04  0.00000000000E+00 0.  1.
</event>
<event>
 4    1  0.2402120E+005  0.2377736E+02  0.7546771E-02  0.1482961E+00
          2   -1    0    0  502    0  0.00000000000E+00  0.00000000000E+00  0.18951195611E+03  0.18951195611E+03  0.00000000000E+00 0. -1.
         21   -1    0    0  503  502 -0.00000000000E+00 -0.00000000000E+00 -0.49348769095E+01  0.49348769095E+01  0.00000000000E+00 0.  1.
          2    1    1    2  501    0 -0.75870568364E+01  0.22534401963E+02  0.15342924343E+03  0.15526073374E+03  0.00000000000E+00 0. -1.
         21    1    1    2  503  501  0.75870568364E+01 -0.22534401963E+02  0.31147835773E+02  0.39186099278E+02  0.00000000000E+00 0.  1.
</event>
<event>
 4    1  0.2402120E+005  0.2605096E+02  0.7546771E-02  0.1457382E+00
          2   -1    0    0  503    0  0.00000000000E+00  0.00000000000E+00  0.44531094059E+03  0.44531094059E+03  0.00000000000E+00 0. -1.
         21   -1    0    0  501  502 -0.00000000000E+00 -0.00000000000E+00 -0.32114577761E+01  0.32114577761E+01  0.00000000000E+00 0. -1.
          2    1    1    2  501    0 -0.63635686755E+01 -0.25261775783E+02  0.38361207972E+03  0.38449561769E+03  0.00000000000E+00 0. -1.
         21    1    1    2  503  502  0.63635686755E+01  0.25261775783E+02  0.58487403093E+02  0.64026780667E+02  0.00000000000E+00 0. -1.
</event>
<event>
 4    1  0.2402120E+005  0.2581166E+02  0.7546771E-02  0.1459925E+00
          2   -1    0    0  502    0  0.00000000000E+00  0.00000000000E+00  0.14892399948E+03  0.14892399948E+03  0.00000000000E+00 0.  1.
         21   -1    0    0  503  502 -0.00000000000E+00 -0.00000000000E+00 -0.19507835136E+02  0.19507835136E+02  0.00000000000E+00 0. -1.
          2    1    1    2  501    0  0.44856299075E+01 -0.25418905552E+02  0.13863946632E+03  0.14102178292E+03  0.00000000000E+00 0.  1.
         21    1    1    2  503  501 -0.44856299075E+01  0.25418905552E+02 -0.92233019726E+01  0.27410051703E+02  0.00000000000E+00 0. -1.
</event>
<event>
 4    1  0.2402120E+005  0.4452536E+02  0.7546771E-02  0.1323830E+00
          2   -1    0    0  502    0  0.00000000000E+00  0.00000000000E+00  0.10873121435E+04  0.10873121435E+04  0.00000000000E+00 0.  1.
         21   -1    0    0  503  502 -0.00000000000E+00 -0.00000000000E+00 -0.19596291639E+02  0.19596291639E+02  0.00000000000E+00 0.  1.
          2    1    1    2  501    0  0.17950482534E+02  0.40746633867E+02  0.10609359271E+04  0.10618698364E+04  0.00000000000E+00 0.  1.
         21    1    1    2  503  501 -0.17950482534E+02 -0.40746633867E+02  0.67799247074E+01  0.45038598710E+02  0.00000000000E+00 0.  1.
</event>
<event>
 4    1  0.2402120E+005  0.3152975E+02  0.7546771E-02  0.1406753E+00
          2   -1    0    0  503    0  0.00000000000E+00  0.00000000000E+00  0.13777014233E+03  0.13777014233E+03  0.00000000000E+00 0. -1.
         21   -1    0    0  501  502 -0.00000000000E+00 -0.00000000000E+00 -0.47491005342E+02  0.47491005342E+02  0.00000000000E+00 0.  1.
          2    1    1    2  501    0 -0.17432547680E+02 -0.26272261310E+02  0.13044317877E+03  0.13419965842E+03  0.00000000000E+00 0. -1.
         21    1    1    2  503  502  0.17432547680E+02  0.26272261310E+02 -0.40164041778E+02  0.51061489254E+02  0.00000000000E+00 0.  1.
</event>
<event>
 4    1  0.2402120E+005  0.2134029E+02  0.7546771E-02  0.1514461E+00
          2   -1    0    0  502    0  0.00000000000E+00  0.00000000000E+00  0.35898949973E+03  0.35898949973E+03  0.00000000000E+00 0.  1.
         21   -1    0    0  503  502 -0.00000000000E+00 -0.00000000000E+00 -0.56115616700E+01  0.56115616700E+01  0.00000000000E+00 0. -1.
          2    1    1    2  501    0 -0.49514160993E+01  0.20757928767E+02  0.33706515832E+03  0.33774003181E+03  0.00000000000E+00 0.  1.
         21    1    1    2  503  501  0.49514160993E+01 -0.20757928767E+02  0.16312779733E+02  0.26861029591E+02  0.00000000000E+00 0. -1.
</event>
<event>
 4    1  0.2402120E+005  0.2386558E+02  0.7546771E-02  0.1481906E+00
          2   -1    0    0  502    0  0.00000000000E+00  0.00000000000E+00  0.94150910340E+03  0.94150910340E+03  0.00000000000E+00 0. -1.
         21   -1    0    0  503  502 -0.00000000000E+00 -0.00000000000E+00 -0.14116774954E+04  0.14116774954E+04  0.00000000000E+00 0. -1.
          2    1    1    2  501    0 -0.10538754270E+02  0.21412631679E+02  0.94125697193E+03  0.94155947945E+03  0.00000000000E+00 0. -1.
         21    1    1    2  503  501  0.10538754270E+02 -0.21412631679E+02 -0.14114253639E+04  0.14116271193E+04  0.00000000000E+00 0. -1.
</event>
<event>
 4    1  0.2402120E+005  0.2229653E+02  0.7546771E-02  0.1501526E+00
          2   -1    0    0  502    0  0.00000000000E+00  0.00000000000E+00  0.24486271649E+03  0.24486271649E+03  0.00000000000E+00 0. -1.
         21   -1    0    0  503  502 -0.00000000000E+00 -0.00000000000E+00 -0.26044610546E+01  0.26044610546E+01  0.00000000000E+00 0.  1.
          2    1    1    2  501    0 -0.16812612599E+02  0.14644838668E+02  0.17922700460E+03  0.18060856685E+03  0.00000000000E+00 0. -1.
         21    1    1    2  503  501  0.16812612599E+02 -0.14644838668E+02  0.63031250836E+02  0.66858610695E+02  0.00000000000E+00 0.  1.
</event>
<event>
 4    1  0.2402120E+005  0.5172425E+02  0.7546771E-02  0.1290865E+00
          2   -1    0    0  503    0  0.00000000000E+00  0.00000000000E+00  0.78083434594E+03  0.78083434594E+03  0.00000000000E+00 0.  1.
         21   -1    0    0  501  502 -0.00000000000E+00 -0.00000000000E+00 -0.34579256692E+01  0.34579256692E+01  0.00000000000E+00 0.  1.
          2    1    1    2  501    0  0.20740317952E+02  0.47383939333E+02  0.42617111141E+03  0.42929851467E+03  0.00000000000E+00 0.  1.
         21    1    1    2  503  502 -0.20740317952E+02 -0.47383939333E+02  0.35120530886E+03  0.35499375694E+03  0.00000000000E+00 0.  1.
</event>
<event>
 4    1  0.2402120E+005  0.4130279E+02  0.7546771E-02  0.1341016E+00
          2   -1    0    0  503    0  0.00000000000E+00  0.00000000000E+00  0.15404274592E+04  0.15404274592E+04  0.00000000000E+00 0.  1.
         21   -1    0    0  501  502 -0.00000000000E+00 -0.00000000000E+00 -0.14063154985E+01  0.14063154985E+01  0.00000000000E+00 0.  1.
          2    1    1    2  501    0  0.41276207229E+02  0.14815003675E+01  0.11249097801E+04  0.11256677723E+04  0.00000000000E+00 0.  1.
         21    1    1    2  503  502 -0.41276207229E+02 -0.14815003675E+01  0.41411136354E+03  0.41616600239E+03  0.00000000000E+00 0.  1.
</event>
<event>
 4    1  0.2402120E+005  0.2507568E+02  0.7546771E-02  0.1467959E+00
          2   -1    0    0  502    0  0.00000000000E+00  0.00000000000E+00  0.11549492435E+04  0.11549492435E+04  0.00000000000E+00 0. -1.
         21   -1    0    0  503  502 -0.00000000000E+00 -0.00000000000E+00 -0.54508349335E+00  0.54508349335E+00  0.00000000000E+00 0. -1.
          2    1    1    2  501    0 -0.21852041980E+02  0.12299506502E+02  0.59719882521E+03  0.59772504250E+03  0.00000000000E+00 0. -1.
         21    1    1    2  503  501  0.21852041980E+02 -0.12299506502E+02  0.55720533484E+03  0.55776928454E+03  0.00000000000E+00 0. -1.
</event>
<event>
 4    1  0.2402120E+005  0.5569021E+02  0.7546771E-02  0.1275223E+00
          2   -1    0    0  503    0  0.00000000000E+00  0.00000000000E+00  0.24784510301E+02  0.24784510301E+02  0.00000000000E+00 0. -1.
         21   -1    0    0  501  502 -0.00000000000E+00 -0.00000000000E+00 -0.12571822921E+03  0.12571822921E+03  0.00000000000E+00 0. -1.
          2    1    1    2  501    0  0.33894450245E+02 -0.44187850796E+02 -0.45339641241E+02  0.71812832999E+02  0.00000000000E+00 0. -1.
         21    1    1    2  503  502 -0.33894450245E+02  0.44187850796E+02 -0.55594077671E+02  0.78689906516E+02  0.00000000000E+00 0. -1.
</event>
<event>
 4    1  0.2402120E+005  0.3195661E+02  0.7546771E-02  0.1403322E+00
          2   -1    0    0  503    0  0.00000000000E+00  0.00000000000E+00  0.91201552734E+03  0.91201552734E+03  0.00000000000E+00 0.  1.
         21   -1    0    0  501  502 -0.00000000000E+00 -0.00000000000E+00 -0.24353154830E+01  0.24353154830E+01  0.00000000000E+00 0. -1.
          2    1    1    2  501    0 -0.31588516250E+02 -0.48364032017E+01  0.79084463662E+03  0.79149002800E+03  0.00000000000E+00 0.  1.
         21    1    1    2  503  502  0.31588516250E+02  0.48364032017E+01  0.11873557524E+03  0.12296081482E+03  0.00000000000E+00 0. -1.
</event>
<event>
 4    1  0.2402120E+005  0.3410090E+02  0.7546771E-02  0.1386997E+00
          2   -1    0    0  503    0  0.00000000000E+00  0.00000000000E+00  0.14171754463E+04  0.14171754463E+04  0.00000000000E+00 0.  1.
         21   -1    0    0  501  502 -0.00000000000E+00 -0.00000000000E+00 -0.13316885022E+03  0.13316885022E+03  0.00000000000E+00 0.  1.
          2    1    1    2  501    0  0.15266521430E+02 -0.30492697166E+02  0.14147835404E+04  0.14151944522E+04  0.00000000000E+00 0.  1.
         21    1    1    2  503  502 -0.15266521430E+02  0.30492697166E+02 -0.13077694433E+03  0.13514984434E+03  0.00000000000E+00 0.  1.
</event>
<event>
 4    1  0.2402120E+005  0.2204775E+02  0.7546771E-02  0.1504815E+00
          2   -1    0    0  503    0  0.00000000000E+00  0.00000000000E+00  0.49364420501E+03  0.49364420501E+03  0.00000000000E+00 0.  1.
         21   -1    0    0  501  502 -0.00000000000E+00 -0.00000000000E+00 -0.19824505007E+02  0.19824505007E+02  0.00000000000E+00 0. -1.
          2    1    1    2  501    0 -0.67059356215E+01  0.21003184720E+02  0.48718673197E+03  0.48768536491E+03  0.00000000000E+00 0.  1.
         21    1    1    2  503  502  0.67059356215E+01 -0.21003184720E+02 -0.13367031971E+02  0.25783345102E+02  0.00000000000E+00 0. -1.
</event>
<event>
 4    1  0.2402120E+005  0.2914039E+02  0.7546771E-02  0.1427216E+00
          2   -1    0    0  502    0  0.00000000000E+00  0.00000000000E+00  0.48772706503E+03  0.48772706503E+03  0.00000000000E+00 0.  1.
         21   -1    0    0  503  502 -0.00000000000E+00 -0.00000000000E+00 -0.10445595246E+02  0.10445595246E+02  0.00000000000E+00 0. -1.
          2    1    1    2  501    0  0.13436745535E+02  0.25857614137E+02  0.46602273294E+03  0.46693291804E+03  0.00000000000E+00 0.  1.
         21    1    1    2  503  501 -0.13436745535E+02 -0.25857614137E+02  0.11258736850E+02  0.31239742234E+02  0.00000000000E+00 0. -1.
</event>
<event>
 4    1  0.2402120E+005  0.2895188E+02  0.7546771E-02  0.1428928E+00
          2   -1    0    0  503    0  0.00000000000E+00  0.00000000000E+00  0.28563052964E+03  0.28563052964E+03  0.00000000000E+00 0.  1.
         21   -1    0    0  501  502 -0.00000000000E+00 -0.00000000000E+00 -0.10284276388E+02  0.10284276388E+02  0.00000000000E+00 0. -1.
          2    1    1    2  501    0  0.28880064951E+02 -0.20380050015E+01  0.26275198576E+03  0.26434223582E+03  0.00000000000E+00 0.  1.
         21    1    1    2  503  502 -0.28880064951E+02  0.20380050015E+01  0.12594267489E+02  0.31572570208E+02  0.00000000000E+00 0. -1.
</event>
<event>
 4    1  0.2402120E+005  0.2064963E+02  0.7546771E-02  0.1524326E+00
          2   -1    0    0  503    0  0.00000000000E+00  0.00000000000E+00  0.38112728138E+02  0.38112728138E+02  0.00000000000E+00 0.  1.
         21   -1    0    0  501  502 -0.00000000000E+00 -0.00000000000E+00 -0.31549167870E+02  0.31549167870E+02  0.00000000000E+00 0. -1.
          2    1    1    2  501    0  0.38235956544E+01  0.20292543948E+02  0.31263352631E+02  0.37467378362E+02  0.00000000000E+00 0.  1.
         21    1    1    2  503  502 -0.38235956544E+01 -0.20292543948E+02 -0.24699792364E+02  0.32194517646E+02  0.00000000000E+00 0. -1.
</event>
<event>
 4    1  0.2402120E+005  0.2767970E+02  0.7546771E-02  0.1440897E+00
          2   -1    0    0  503    0  0.00000000000E+00  0.00000000000E+00  0.41736861211E+03  0.41736861211E+03  0.00000000000E+00 0. -1.
         21   -1    0    0  501  502 -0.00000000000E+00 -0.00000000000E+00 -0.28834216895E+01  0.28834216895E+01  0.00000000000E+00 0. -1.
          2    1    1    2  501    0 -0.20135795905E+02  0.18992518175E+02  0.33390493094E+03  0.33505024837E+03  0.00000000000E+00 0. -1.
         21    1    1    2  503  502  0.20135795905E+02 -0.18992518175E+02  0.80580259484E+02  0.85201785438E+02  0.00000000000E+00 0. -1.
</event>
<event>
 4    1  0.2402120E+005  0.2396110E+02  0.7546771E-02  0.1480770E+00
          2   -1    0    0  503    0  0.00000000000E+00  0.00000000000E+00  0.51573822490E+03  0.51573822490E+03  0.00000000000E+00 0. -1.
         21   -1    0    0  501  502 -0.00000000000E+00 -0.00000000000E+00 -0.31320956397E+01  0.31320956397E+01  0.00000000000E+00 0.  1.
          2    1    1    2  501    0  0.17156272153E+02 -0.16727125532E+02  0.46459152727E+03  0.46520900852E+03  0.00000000000E+00 0. -1.
         21    1    1    2  503  502 -0.17156272153E+02  0.16727125532E+02  0.48014601993E+02  0.53661312016E+02  0.00000000000E+00 0.  1.
</event>
<event>
 4    1  0.2402120E+005  0.2302031E+02  0.7546771E-02  0.1492243E+00
          2   -1    0    0  502    0  0.00000000000E+00  0.00000000000E+00  0.71276707183E+03  0.71276707183E+03  0.00000000000E+00 0.  1.
         21   -1    0    0  503  502 -0.00000000000E+00 -0.00000000000E+00 -0.30894047406E+01  0.30894047406E+01  0.00000000000E+00 0. -1.
          2    1    1    2  501    0  0.10553111350E+02  0.20458902800E+02  0.66673835837E+03  0.66713564841E+03  0.00000000000E+00 0.  1.
         21    1    1    2  503  501 -0.10553111350E+02 -0.20458902800E+02  0.42939308717E+02  0.48720828155E+02  0.00000000000E+00 0. -1.
</event>
<event>
 4    1  0.2402120E+005  0.2545602E+02  0.7546771E-02  0.1463766E+00
          2   -1    0    0  503    0  0.00000000000E+00  0.00000000000E+00  0.13152676761E+04  0.13152676761E+04  0.00000000000E+00 0.  1.
         21   -1    0    0  501  502 -0.00000000000E+00 -0.00000000000E+00 -0.49681557361E+00  0.49681557361E+00  0.00000000000E+00 0.  1.
          2    1    1    2  501    0  0.19316444883E+02  0.16579622359E+02  0.71739285153E+03  0.71784435106E+03  0.00000000000E+00 0.  1.
         21    1    1    2  503  502 -0.19316444883E+02 -0.16579622359E+02  0.59737800899E+03  0.59792014061E+03  0.00000000000E+00 0.  1.
</event>
<event>
 4    1  0.2402120E+005  0.2293893E+02  0.7546771E-02  0.1493266E+00
          2   -1    0    0  502    0  0.00000000000E+00  0.00000000000E+00  0.33359729707E+02  0.33359729707E+02  0.00000000000E+00 0.  1.
         21   -1    0    0  503  502 -0.00000000000E+00 -0.00000000000E+00 -0.15782339065E+03  0.15782339065E+03  0.00000000000E+00 0.  1.
          2    1    1    2  501    0 -0.20621904835E+02  0.10046464460E+02  0.28457158324E+02  0.36551392135E+02  0.00000000000E+00 0.  1.
         21    1    1    2  503  501  0.20621904835E+02 -0.10046464460E+02 -0.15292081927E+03  0.15463172822E+03  0.00000000000E+00 0.  1.
</event>
<event>
 4    1  0.2402120E+005  0.5200814E+02  0.7546771E-02  0.1289693E+00
          2   -1    0    0  502    0  0.00000000000E+00  0.00000000000E+00  0.17680563081E+04  0.17680563081E+04  0.00000000000E+00 0. -1.
         21   -1    0    0  503  502 -0.00000000000E+00 -0.00000000000E+00 -0.36266512955E+01  0.36266512955E+01  0.00000000000E+00 0. -1.
          2    1    1    2  501    0 -0.47315399150E+02  0.21589340788E+02  0.15557846000E+04  0.15566536443E+04  0.00000000000E+00 0. -1.
         21    1    1    2  503  501  0.47315399150E+02 -0.21589340788E+02  0.20864505676E+03  0.21502931508E+03  0.00000000000E+00 0. -1.
</event>
<event>
 4    1  0.2402120E+005  0.2262112E+02  0.7546771E-02  0.1497311E+00
          2   -1    0    0  502    0  0.00000000000E+00  0.00000000000E+00  0.16736001034E+02  0.16736001034E+02  0.00000000000E+00 0. -1.
         21   -1    0    0  503  502 -0.00000000000E+00 -0.00000000000E+00 -0.26463736756E+03  0.26463736756E+03  0.00000000000E+00 0.  1.
          2    1    1    2  501    0  0.36872317195E+01 -0.22318589897E+02  0.83592795883E+01  0.24116232872E+02  0.00000000000E+00 0. -1.
         21    1    1    2  503  501 -0.36872317195E+01  0.22318589897E+02 -0.25626064611E+03  0.25725713572E+03  0.00000000000E+00 0.  1.
</event>
<event>
 4    1  0.2402120E+005  0.2820826E+02  0.7546771E-02  0.1435834E+00
          2   -1    0    0  502    0  0.00000000000E+00  0.00000000000E+00  0.94271657771E+02  0.94271657771E+02  0.00000000000E+00 0.  1.
         21   -1    0    0  503  502 -0.00000000000E+00 -0.00000000000E+00 -0.11414512643E+02  0.11414512643E+02  0.00000000000E+00 0.  1.
          2    1    1    2  501    0 -0.17535480603E+02  0.22095537664E+02  0.68401388305E+02  0.73989565391E+02  0.00000000000E+00 0.  1.
         21    1    1    2  503  501  0.17535480603E+02 -0.22095537664E+02  0.14455756823E+02  0.31696605023E+02  0.00000000000E+00 0.  1.
</event>
<event>
 4    1  0.2402120E+005  0.2444337E+02  0.7546771E-02  0.1475128E+00
          2   -1    0    0  503    0  0.00000000000E+00  0.00000000000E+00  0.12648995020E+04  0.12648995020E+04  0.00000000000E+00 0.  1.
         21   -1    0    0  501  502 -0.00000000000E+00 -0.00000000000E+00 -0.47239295715E+00  0.47239295715E+00  0.00000000000E+00 0.  1.
          2    1    1    2  501    0 -0.39068572560E+01  0.24129126639E+02  0.63807757150E+03  0.63854558611E+03  0.00000000000E+00 0.  1.
         21    1    1    2  503  502  0.39068572560E+01 -0.24129126639E+02  0.62634953750E+03  0.62682630881E+03  0.00000000000E+00 0.  1.
</event>
<event>
 4    1  0.2402120E+005  0.2700787E+02  0.7546771E-02  0.1447529E+00
          2   -1    0    0  503    0  0.00000000000E+00  0.00000000000E+00  0.13060903600E+03  0.13060903600E+03  0.00000000000E+00 0.  1.
         21   -1    0    0  501  502 -0.00000000000E+00 -0.00000000000E+00 -0.43078528290E+02  0.43078528290E+02  0.00000000000E+00 0. -1.
          2    1    1    2  501    0  0.26179896596E+02 -0.66361265748E+01  0.12478439261E+03  0.12767368484E+03  0.00000000000E+00 0.  1.
         21    1    1    2  503  502 -0.26179896596E+02  0.66361265748E+01 -0.37253884901E+02  0.46013879448E+02  0.00000000000E+00 0. -1.
</event>
<event>
 4    1  0.2402120E+005  0.3212959E+02  0.7546771E-02  0.1401950E+00
          2   -1    0    0  503    0  0.00000000000E+00  0.00000000000E+00  0.68448914507E+03  0.68448914507E+03  0.00000000000E+00 0.  1.
         21   -1    0    0  501  502 -0.00000000000E+00 -0.00000000000E+00 -0.58378428142E+01  0.58378428142E+01  0.00000000000E+00 0. -1.
          2    1    1    2  501    0  0.15735916070E+01 -0.32091028395E+02  0.63657940484E+03  0.63738971513E+03  0.00000000000E+00 0.  1.
         21    1    1    2  503  502 -0.15735916070E+01  0.32091028395E+02  0.42071897420E+02  0.52937272753E+02  0.00000000000E+00 0. -1.
</event>
<event>
 4    1  0.2402120E+005  0.2554447E+02  0.7546771E-02  0.1462804E+00
          2   -1    0    0  502    0  0.00000000000E+00  0.00000000000E+00  0.42615555199E+03  0.42615555199E+03  0.00000000000E+00 0.  1.
         21   -1    0    0  503  502 -0.00000000000E+00 -0.00000000000E+00 -0.84297727871E+01  0.84297727871E+01  0.00000000000E+00 0. -1.
          2    1    1    2  501    0 -0.25537231693E+02  0.60792900811E+00  0.40543299082E+03  0.40623691343E+03  0.00000000000E+00 0.  1.
         21    1    1    2  503  501  0.25537231693E+02 -0.60792900811E+00  0.12292788383E+02  0.28348411356E+02  0.00000000000E+00 0. -1.
</event>
<event>
 4    1  0.2402120E+005  0.3987836E+02  0.7546771E-02  0.1349200E+00
          2   -1    0    0  502    0  0.00000000000E+00  0.00000000000E+00  0.36290111040E+03  0.36290111040E+03  0.00000000000E+00 0.  1.
         21   -1    0    0  503  502 -0.00000000000E+00 -0.00000000000E+00 -0.28432740527E+02  0.28432740527E+02  0.00000000000E+00 0. -1.
          2    1    1    2  501    0  0.37290424539E+02 -0.14131802039E+02  0.34719212760E+03  0.34947483037E+03  0.00000000000E+00 0.  1.
         21    1    1    2  503  501 -0.37290424539E+02  0.14131802039E+02 -0.12723757733E+02  0.41859020557E+02  0.00000000000E+00 0. -1.
</event>
<event>
 4    1  0.2402120E+005  0.2726156E+02  0.7546771E-02  0.1444998E+00
          2   -1    0    0  502    0  0.00000000000E+00  0.00000000000E+00  0.43512277586E+03  0.43512277586E+03  0.00000000000E+00 0.  1.
         21   -1    0    0  503  502 -0.00000000000E+00 -0.00000000000E+00 -0.26818131670E+01  0.26818131670E+01  0.00000000000E+00 0.  1.
          2    1    1    2  501    0  0.18024450230E+02  0.20452676075E+02  0.34812883675E+03  0.34919461585E+03  0.00000000000E+00 0.  1.
         21    1    1    2  503  501 -0.18024450230E+02 -0.20452676075E+02  0.84312125950E+02  0.88609973179E+02  0.00000000000E+00 0.  1.
</event>
<event>
 4    1  0.2402120E+005  0.2307629E+02  0.7546771E-02  0.1491542E+00
          2   -1    0    0  503    0  0.00000000000E+00  0.00000000000E+00  0.38635892180E+02  0.38635892180E+02  0.00000000000E+00 0. -1.
         21   -1    0    0  501  502 -0.00000000000E+00 -0.00000000000E+00 -0.70935058993E+02  0.70935058993E+02  0.00000000000E+00 0.  1.
          2    1    1    2  501    0 -0.53112323491E+01  0.22456760054E+02  0.33026193312E+02  0.40289511115E+02  0.00000000000E+00 0. -1.
         21    1    1    2  503  502  0.53112323491E+01 -0.22456760054E+02 -0.65325360125E+02  0.69281440059E+02  0.00000000000E+00 0.  1.
</event>
<event>
 4    1  0.2402120E+005  0.2170467E+02  0.7546771E-02  0.1509437E+00
          2   -1    0    0  502    0  0.00000000000E+00  0.00000000000E+00  0.25748843260E+03  0.25748843260E+03  0.00000000000E+00 0.  1.
         21   -1    0    0  503  502 -0.00000000000E+00 -0.00000000000E+00 -0.10898336838E+03  0.10898336838E+03  0.00000000000E+00 0.  1.
          2    1    1    2  501    0  0.16509580494E+02  0.14089936187E+02  0.25594387849E+03  0.25686253422E+03  0.00000000000E+00 0.  1.
         21    1    1    2  503  501 -0.16509580494E+02 -0.14089936187E+02 -0.10743881427E+03  0.10960926676E+03  0.00000000000E+00 0.  1.
</event>
<event>
 4    1  0.2402120E+005  0.3379564E+02  0.7546771E-02  0.1389234E+00
          2   -1    0    0  503    0  0.00000000000E+00  0.00000000000E+00  0.49426370451E+03  0.49426370451E+03  0.00000000000E+00 0.  1.
         21   -1    0    0  501  502 -0.00000000000E+00 -0.00000000000E+00 -0.33231729765E+01  0.33231729765E+01  0.00000000000E+00 0.  1.
          2    1    1    2  501    0  0.89766721606E+01 -0.32581663384E+02  0.38278980776E+03  0.38427878208E+03  0.00000000000E+00 0.  1.
         21    1    1    2  503  502 -0.89766721606E+01  0.32581663384E+02  0.10815072377E+03  0.11330809541E+03  0.00000000000E+00 0.  1.
</event>
<event>
 4    1  0.2402120E+005  0.2498932E+02  0.7546771E-02  0.1468923E+00
          2   -1    0    0  502    0  0.00000000000E+00  0.00000000000E+00  0.21710392546E+02  0.21710392546E+02  0.00000000000E+00 0. -1.
         21   -1    0    0  503  502 -0.00000000000E+00 -0.00000000000E+00 -0.45659367739E+02  0.45659367739E+02  0.00000000000E+00 0. -1.
          2    1    1    2  501    0  0.23630354075E+02  0.81285020203E+01  0.85163977367E+01  0.26400666833E+02  0.00000000000E+00 0. -1.
         21    1    1    2  503  501 -0.23630354075E+02 -0.81285020203E+01 -0.32465372930E+02  0.40969093452E+02  0.00000000000E+00 0. -1.
</event>
<event>
 4    1  0.2402120E+005  0.3265242E+02  0.7546771E-02  0.1397864E+00
          2   -1    0    0  502    0  0.00000000000E+00  0.00000000000E+00  0.15730431640E+02  0.15730431640E+02  0.00000000000E+00 0.  1.
         21   -1    0    0  503  502 -0.00000000000E+00 -0.00000000000E+00 -0.37915486405E+03  0.37915486405E+03  0.00000000000E+00 0. -1.
          2    1    1    2  501    0  0.72679674986E+01 -0.31833273688E+02 -0.27853040572E+01  0.32771002181E+02  0.00000000000E+00 0.  1.
         21    1    1    2  503  501 -0.72679674986E+01  0.31833273688E+02 -0.36063912836E+03  0.36211429351E+03  0.00000000000E+00 0. -1.
</event>
<event>
 4    1  0.2402120E+005  0.2609749E+02  0.7546771E-02  0.1456891E+00
          2   -1    0    0  503    0  0.00000000000E+00  0.00000000000E+00  0.10128352893E+04  0.10128352893E+04  0.00000000000E+00 0. -1.
         21   -1    0    0  501  502 -0.00000000000E+00 -0.00000000000E+00 -0.79794924623E+00  0.79794924623E+00  0.00000000000E+00 0. -1.
          2    1    1    2  501    0  0.83460572396E+00 -0.26084143754E+02  0.70701454018E+03  0.70749603472E+03  0.00000000000E+00 0. -1.
         21    1    1    2  503  502 -0.83460572396E+00  0.26084143754E+02  0.30502279983E+03  0.30613720378E+03  0.00000000000E+00 0. -1.
</event>
<event>
 4    1  0.2402120E+005  0.2339958E+02  0.7546771E-02  0.1487541E+00
          2   -1    0    0  503    0  0.00000000000E+00  0.00000000000E+00  0.10128221507E+04  0.10128221507E+04  0.00000000000E+00 0.  1.
         21   -1    0    0  501  502 -0.00000000000E+00 -0.00000000000E+00 -0.27748242338E+02  0.27748242338E+02  0.00000000000E+00 0.  1.
          2    1    1    2  501    0  0.22472849789E+02 -0.65200593052E+01  0.10077289629E+04  0.10080005966E+04  0.00000000000E+00 0.  1.
         21    1    1    2  503  502 -0.22472849789E+02  0.65200593052E+01 -0.22655054452E+02  0.32569796487E+02  0.00000000000E+00 0.  1.
</event>
<event>
 4    1  0.2402120E+005  0.3335731E+02  0.7546771E-02  0.1392495E+00
          2   -1    0    0  502    0  0.00000000000E+00  0.00000000000E+00  0.99591564645E+03  0.99591564645E+03  0.00000000000E+00 0.  1.
         21   -1    0    0  503  502 -0.00000000000E+00 -0.00000000000E+00 -0.20222695346E+01  0.20222695346E+01  0.00000000000E+00 0.  1.
          2    1    1    2  501    0  0.26015159874E+02 -0.20878732146E+02  0.83073981174E+03  0.83140925230E+03  0.00000000000E+00 0.  1.
         21    1    1    2  503  501 -0.26015159874E+02  0.20878732146E+02  0.16315356518E+03  0.16652866369E+03  0.00000000000E+00 0.  1.
</event>
<event>
 4    1  0.2402120E+005  0.5760481E+02  0.7546771E-02  0.1268195E+00
          2   -1    0    0  502    0  0.00000000000E+00  0.00000000000E+00  0.17122136886E+04  0.17122136886E+04  0.00000000000E+00 0. -1.
         21   -1    0    0  503  502 -0.00000000000E+00 -0.00000000000E+00 -0.27860194164E+01  0.27860194164E+01  0.00000000000E+00 0. -1.
          2    1    1    2  501    0 -0.56661357369E+02  0.10382930165E+02  0.13277977951E+04  0.13290467634E+04  0.00000000000E+00 0. -1.
         21    1    1    2  503  501  0.56661357369E+02 -0.10382930165E+02  0.38162987411E+03  0.38595294464E+03  0.00000000000E+00 0. -1.
</event>
<event>
 4    1  0.2402120E+005  0.2461527E+02  0.7546771E-02  0.1473154E+00
          2   -1    0    0  503    0  0.00000000000E+00  0.00000000000E+00  0.96292833185E+01  0.96292833185E+01  0.00000000000E+00 0.  1.
         21   -1    0    0  501  502 -0.00000000000E+00 -0.00000000000E+00 -0.37513989069E+03  0.37513989069E+03  0.00000000000E+00 0.  1.
          2    1    1    2  501    0  0.14326735308E+02  0.20016391858E+02 -0.72455411391E+01  0.25659484679E+02  0.00000000000E+00 0.  1.
         21    1    1    2  503  502 -0.14326735308E+02 -0.20016391858E+02 -0.35826506623E+03  0.35910968933E+03  0.00000000000E+00 0.  1.
</event>
<event>
 4    1  0.2402120E+005  0.3419027E+02  0.7546771E-02  0.1386347E+00
          2   -1    0    0  502    0  0.00000000000E+00  0.00000000000E+00  0.12278183391E+04  0.12278183391E+04  0.00000000000E+00 0.  1.
         21   -1    0    0  503  502 -0.00000000000E+00 -0.00000000000E+00 -0.18733844666E+03  0.18733844666E+03  0.00000000000E+00 0. -1.
          2    1    1    2  501    0 -0.13008534082E+02  0.31618863928E+02  0.12260180535E+04  0.12264946971E+04  0.00000000000E+00 0.  1.
         21    1    1    2  503  501  0.13008534082E+02 -0.31618863928E+02 -0.18553816102E+03  0.18866208869E+03  0.00000000000E+00 0. -1.
</event>
<event>
 4    1  0.2402120E+005  0.2750155E+02  0.7546771E-02  0.1442634E+00
          2   -1    0    0  502    0  0.00000000000E+00  0.00000000000E+00  0.21878918501E+03  0.21878918501E+03  0.00000000000E+00 0.  1.
         21   -1    0    0  503  502 -0.00000000000E+00 -0.00000000000E+00 -0.11029754032E+02  0.11029754032E+02  0.00000000000E+00 0.  1.
          2    1    1    2  501    0 -0.13976306157E+02 -0.23685394165E+02  0.19909405199E+03  0.20098451823E+03  0.00000000000E+00 0.  1.
         21    1    1    2  503  501  0.13976306157E+02  0.23685394165E+02  0.86653789873E+01  0.28834420811E+02  0.00000000000E+00 0.  1.
</event>
<event>
 4    1  0.2402120E+005  0.2144349E+02  0.7546771E-02  0.1513026E+00
          2   -1    0    0  502    0  0.00000000000E+00  0.00000000000E+00  0.22219669712E+03  0.22219669712E+03  0.00000000000E+00 0.  1.
         21   -1    0    0  503  502 -0.00000000000E+00 -0.00000000000E+00 -0.56220039219E+01  0.56220039219E+01  0.00000000000E+00 0. -1.
          2    1    1    2  501    0 -0.21405841174E+02  0.12701410843E+01  0.19883654280E+03  0.19998948484E+03  0.00000000000E+00 0.  1.
         21    1    1    2  503  501  0.21405841174E+02 -0.12701410843E+01  0.17738150398E+02  0.27829216200E+02  0.00000000000E+00 0. -1.
</event>
<event>
 4    1  0.2402120E+005  0.4872632E+02  0.7546771E-02  0.1303791E+00
          2   -1    0    0  502    0  0.00000000000E+00  0.00000000000E+00  0.29293968676E+04  0.29293968676E+04  0.00000000000E+00 0. -1.
         21   -1    0    0  503  502 -0.00000000000E+00 -0.00000000000E+00 -0.10541914679E+02  0.10541914679E+02  0.00000000000E+00 0. -1.
          2    1    1    2  501    0  0.37592684174E+02  0.31000708859E+02  0.28717591625E+04  0.28721725124E+04  0.00000000000E+00 0. -1.
         21    1    1    2  503  501 -0.37592684174E+02 -0.31000708859E+02  0.47095790459E+02  0.67766269870E+02  0.00000000000E+00 0. -1.
</event>
<event>
 4    1  0.2402120E+005  0.2071481E+02  0.7546771E-02  0.1523376E+00
          2   -1    0    0  502    0  0.00000000000E+00  0.00000000000E+00  0.97375646658E+02  0.97375646658E+02  0.00000000000E+00 0. -1.
         21   -1    0    0  503  502 -0.00000000000E+00 -0.00000000000E+00 -0.52625417831E+01  0.52625417831E+01  0.00000000000E+00 0. -1.
          2    1    1    2  501    0 -0.20700540588E+02 -0.76866466453E+00  0.66752401673E+02  0.69892677407E+02  0.00000000000E+00 0. -1.
         21    1    1    2  503  501  0.20700540588E+02  0.76866466453E+00  0.25360703202E+02  0.32745511034E+02  0.00000000000E+00 0. -1.
</event>
<event>
 4    1  0.2402120E+005  0.2287205E+02  0.7546771E-02  0.1494111E+00
          2   -1    0    0  503    0  0.00000000000E+00  0.00000000000E+00  0.62221461082E+03  0.62221461082E+03  0.00000000000E+00 0. -1.
         21   -1    0    0  501  502 -0.00000000000E+00 -0.00000000000E+00 -0.13744480326E+02  0.13744480326E+02  0.00000000000E+00 0. -1.
          2    1    1    2  501    0  0.14034348201E+02  0.18060115069E+02  0.61233567655E+03  0.61276268772E+03  0.00000000000E+00 0. -1.
         21    1    1    2  503  502 -0.14034348201E+02 -0.18060115069E+02 -0.38655460538E+01  0.23196403429E+02  0.00000000000E+00 0. -1.
</event>
<event>
 4    1  0.2402120E+005  0.2333788E+02  0.7546771E-02  0.1488298E+00
          2   -1    0    0  503    0  0.00000000000E+00  0.00000000000E+00  0.81536768722E+03  0.81536768722E+03  0.00000000000E+00 0.  1.
         21   -1    0    0  501  502 -0.00000000000E+00 -0.00000000000E+00 -0.72684140005E+00  0.72684140005E+00  0.00000000000E+00 0.  1.
          2    1    1    2  501    0  0.19791261667E+02 -0.12367799816E+02  0.29120942858E+03  0.29214309474E+03  0.00000000000E+00 0.  1.
         21    1    1    2  503  502 -0.19791261667E+02  0.12367799816E+02  0.52343141724E+03  0.52395143388E+03  0.00000000000E+00 0.  1.
</event>
<event>
 4    1  0.2402120E+005  0.2351895E+02  0.7546771E-02  0.1486083E+00
          2   -1    0    0  503    0  0.00000000000E+00  0.00000000000E+00  0.13967661789E+04  0.13967661789E+04  0.00000000000E+00 0. -1.
         21   -1    0    0  501  502 -0.00000000000E+00 -0.00000000000E+00 -0.12587473728E+01  0.12587473728E+01  0.00000000000E+00 0.  1.
          2    1    1    2  501    0  0.15610535433E+02  0.17591249434E+02  0.12764538527E+04  0.12766705052E+04  0.00000000000E+00 0. -1.
         21    1    1    2  503  502 -0.15610535433E+02 -0.17591249434E+02  0.11905357886E+03  0.12135442106E+03  0.00000000000E+00 0.  1.
</event>
<event>
 4    1  0.2402120E+005  0.2540342E+02  0.7546771E-02  0.1464341E+00
          2   -1    0    0  503    0  0.00000000000E+00  0.00000000000E+00  0.39372457115E+03  0.39372457115E+03  0.00000000000E+00 0. -1.
         21   -1    0    0  501  502 -0.00000000000E+00 -0.00000000000E+00 -0.37281961743E+03  0.37281961743E+03  0.00000000000E+00 0.  1.
          2    1    1    2  501    0  0.25567052806E+01 -0.25274435902E+02  0.39288114222E+03  0.39370156942E+03  0.00000000000E+00 0. -1.
         21    1    1    2  503  502 -0.25567052806E+01  0.25274435902E+02 -0.37197618850E+03  0.37284261916E+03  0.00000000000E+00 0.  1.
</event>
<event>
 4    1  0.2402120E+005  0.6088841E+02  0.7546771E-02  0.1256844E+00
          2   -1    0    0  503    0  0.00000000000E+00  0.00000000000E+00  0.95725866210E+03  0.95725866210E+03  0.00000000000E+00 0.  1.
         21   -1    0    0  501  502 -0.00000000000E+00 -0.00000000000E+00 -0.41468368278E+01  0.41468368278E+01  0.00000000000E+00 0.  1.
          2    1    1    2  501    0 -0.56851640797E+02  0.21801128336E+02  0.60009873483E+03  0.60317981548E+03  0.00000000000E+00 0.  1.
         21    1    1    2  503  502  0.56851640797E+02 -0.21801128336E+02  0.35301309044E+03  0.35822568345E+03  0.00000000000E+00 0.  1.
</event>
<event>
 4    1  0.2402120E+005  0.2346084E+02  0.7546771E-02  0.1486791E+00
          2   -1    0    0  502    0  0.00000000000E+00  0.00000000000E+00  0.10062428803E+04  0.10062428803E+04  0.00000000000E+00 0.  1.
         21   -1    0    0  503  502 -0.00000000000E+00 -0.00000000000E+00 -0.17109164412E+02  0.17109164412E+02  0.00000000000E+00 0. -1.
          2    1    1    2  501    0  0.28492734696E+01  0.23287174649E+02  0.99799705713E+03  0.99827277680E+03  0.00000000000E+00 0.  1.
         21    1    1    2  503  501 -0.28492734696E+01 -0.23287174649E+02 -0.88633412205E+01  0.25079267933E+02  0.00000000000E+00 0. -1.
</event>
<event>
 4    1  0.2402120E+005  0.2406891E+02  0.7546771E-02  0.1479495E+00
          2   -1    0    0  502    0  0.00000000000E+00  0.00000000000E+00  0.14310873161E+02  0.14310873161E+02  0.00000000000E+00 0. -1.
         21   -1    0    0  503  502 -0.00000000000E+00 -0.00000000000E+00 -0.45237535298E+03  0.45237535298E+03  0.00000000000E+00 0. -1.
          2    1    1    2  501    0  0.12150771611E+02  0.20776695373E+02  0.36259453070E+01  0.24340497135E+02  0.00000000000E+00 0. -1.
         21    1    1    2  503  501 -0.12150771611E+02 -0.20776695373E+02 -0.44169042512E+03  0.44234572900E+03  0.00000000000E+00 0. -1.
</event>
<event>
 4    1  0.2402120E+005  0.2778642E+02  0.7546771E-02  0.1439864E+00
          2   -1    0    0  502    0  0.00000000000E+00  0.00000000000E+00  0.43072011697E+03  0.43072011697E+03  0.00000000000E+00 0. -1.
         21   -1    0    0  503  502 -0.00000000000E+00 -0.00000000000E+00 -0.27818087391E+03  0.27818087391E+03  0.00000000000E+00 0. -1.
          2    1    1    2  501    0  0.21005617972E+02 -0.18189254804E+02  0.42957626561E+03  0.43047398638E+03  0.00000000000E+00 0. -1.
         21    1    1    2  503  501 -0.21005617972E+02  0.18189254804E+02 -0.27703702255E+03  0.27842700451E+03  0.00000000000E+00 0. -1.
</event>
<event>
 4    1  0.2402120E+005  0.2079759E+02  0.7546771E-02  0.1522174E+00
          2   -1    0    0  503    0  0.00000000000E+00  0.00000000000E+00  0.53860214899E+03  0.53860214899E+03  0.00000000000E+00 0. -1.
         21   -1    0    0  501  502 -0.00000000000E+00 -0.00000000000E+00 -0.16469833517E+01  0.16469833517E+01  0.00000000000E+00 0. -1.
          2    1    1    2  501    0  0.18942494909E+02  0.85861320688E+01  0.46183740292E+03  0.46230544720E+03  0.00000000000E+00 0. -1.
         21    1    1    2  503  502 -0.18942494909E+02 -0.85861320688E+01  0.75117762726E+02  0.77943685146E+02  0.00000000000E+00 0. -1.
</event>
<event>
 4    1  0.2402120E+005  0.5172716E+02  0.7546771E-02  0.1290853E+00
          2   -1    0    0  503    0  0.00000000000E+00  0.00000000000E+00  0.10938129171E+02  0.10938129171E+02  0.00000000000E+00 0.  1.
         21   -1    0    0  501  502 -0.00000000000E+00 -0.00000000000E+00 -0.25022657718E+03  0.25022657718E+03  0.00000000000E+00 0. -1.
          2    1    1    2  501    0  0.21160487031E+02 -0.47200989086E+02 -0.10010012767E+03  0.11267535285E+03  0.00000000000E+00 0.  1.
         21    1    1    2  503  502 -0.21160487031E+02  0.47200989086E+02 -0.13918832035E+03  0.14848935350E+03  0.00000000000E+00 0. -1.
</event>
<event>
 4    1  0.2402120E+005  0.5413813E+02  0.7546771E-02  0.1281163E+00
          2   -1    0    0  502    0  0.00000000000E+00  0.00000000000E+00  0.49479025320E+03  0.49479025320E+03  0.00000000000E+00 0.  1.
         21   -1    0    0  503  502 -0.00000000000E+00 -0.00000000000E+00 -0.38621870892E+02  0.38621870892E+02  0.00000000000E+00 0. -1.
          2    1    1    2  501    0  0.53448466737E+02  0.86138876210E+01  0.47348650440E+03  0.47657151353E+03  0.00000000000E+00 0.  1.
         21    1    1    2  503  501 -0.53448466737E+02 -0.86138876210E+01 -0.17318122093E+02  0.56840610564E+02  0.00000000000E+00 0. -1.
</event>
<event>
 4    1  0.2402120E+005  0.2138163E+02  0.7546771E-02  0.1513885E+00
          2   -1    0    0  503    0  0.00000000000E+00  0.00000000000E+00  0.47760166900E+02  0.47760166900E+02  0.00000000000E+00 0. -1.
         21   -1    0    0  501  502 -0.00000000000E+00 -0.00000000000E+00 -0.20893142826E+02  0.20893142826E+02  0.00000000000E+00 0.  1.
          2    1    1    2  501    0  0.21306990253E+02 -0.17849696965E+01  0.38701418263E+02  0.44215084825E+02  0.00000000000E+00 0. -1.
         21    1    1    2  503  502 -0.21306990253E+02  0.17849696965E+01 -0.11834394189E+02  0.24438224901E+02  0.00000000000E+00 0.  1.
</event>
<event>
 4    1  0.2402120E+005  0.2059927E+02  0.7546771E-02  0.1525064E+00
          2   -1    0    0  502    0  0.00000000000E+00  0.00000000000E+00  0.42054025310E+03  0.42054025310E+03  0.00000000000E+00 0.  1.
         21   -1    0    0  503  502 -0.00000000000E+00 -0.00000000000E+00 -0.11333363914E+01  0.11333363914E+01  0.00000000000E+00 0. -1.
          2    1    1    2  501    0  0.16475477972E+02 -0.12364803441E+02  0.27953424224E+03  0.28029220882E+03  0.00000000000E+00 0.  1.
         21    1    1    2  503  501 -0.16475477972E+02  0.12364803441E+02  0.13987267446E+03  0.14138138067E+03  0.00000000000E+00 0. -1.
</event>
<event>
 4    1  0.2402120E+005  0.2088899E+02  0.7546771E-02  0.1520856E+00
          2   -1    0    0  503    0  0.00000000000E+00  0.00000000000E+00  0.27731843326E+03  0.27731843326E+03  0.00000000000E+00 0. -1.
         21   -1    0    0  501  502 -0.00000000000E+00 -0.00000000000E+00 -0.58124449141E+01  0.58124449141E+01  0.00000000000E+00 0. -1.
          2    1    1    2  501    0 -0.16759721934E+02 -0.12468427816E+02  0.25664808244E+03  0.25749677317E+03  0.00000000000E+00 0. -1.
         21    1    1    2  503  502  0.16759721934E+02  0.12468427816E+02  0.14857905902E+02  0.25634105003E+02  0.00000000000E+00 0. -1.
</event>
<event>
 4    1  0.2402120E+005  0.2274638E+02  0.7546771E-02  0.1495708E+00
          2   -1    0    0  503    0  0.00000000000E+00  0.00000000000E+00  0.34894822384E+03  0.34894822384E+03  0.00000000000E+00 0. -1.
         21   -1    0    0  501  502 -0.00000000000E+00 -0.00000000000E+00 -0.13302116597E+02  0.13302116597E+02  0.00000000000E+00 0. -1.
          2    1    1    2  501    0 -0.12849159065E+02  0.18769569488E+02  0.33855540235E+03  0.33931866746E+03  0.00000000000E+00 0. -1.
         21    1    1    2  503  502  0.12849159065E+02 -0.18769569488E+02 -0.29092951069E+01  0.22931672976E+02  0.00000000000E+00 0. -1.
</event>
<event>
 4    1  0.2402120E+005  0.2232258E+02  0.7546771E-02  0.1501184E+00
          2   -1    0    0  503    0  0.00000000000E+00  0.00000000000E+00  0.70366340743E+03  0.70366340743E+03  0.00000000000E+00 0.  1.
         21   -1    0    0  501  502 -0.00000000000E+00 -0.00000000000E+00 -0.71551301336E+00  0.71551301336E+00  0.00000000000E+00 0.  1.
          2    1    1    2  501    0 -0.36308497149E+01  0.22025310863E+02  0.31574065264E+03  0.31652876192E+03  0.00000000000E+00 0.  1.
         21    1    1    2  503  502  0.36308497149E+01 -0.22025310863E+02  0.38720724178E+03  0.38785015853E+03  0.00000000000E+00 0.  1.
</event>
<event>
 4    1  0.2402120E+005  0.2884045E+02  0.7546771E-02  0.1429948E+00
          2   -1    0    0  502    0  0.00000000000E+00  0.00000000000E+00  0.71104248948E+02  0.71104248948E+02  0.00000000000E+00 0.  1.
         21   -1    0    0  503  502 -0.00000000000E+00 -0.00000000000E+00 -0.15620925009E+03  0.15620925009E+03  0.00000000000E+00 0.  1.
          2    1    1    2  501    0  0.26125671778E+01 -0.28721873793E+02  0.66765785150E+02  0.72728547408E+02  0.00000000000E+00 0.  1.
         21    1    1    2  503  501 -0.26125671778E+01  0.28721873793E+02 -0.15187078630E+03  0.15458495163E+03  0.00000000000E+00 0.  1.
</event>
<event>
 4    1  0.2402120E+005  0.2102352E+02  0.7546771E-02  0.1518929E+00
          2   -1    0    0  502    0  0.00000000000E+00  0.00000000000E+00  0.50684551322E+02  0.50684551322E+02  0.00000000000E+00 0.  1.
         21   -1    0    0  503  502 -0.00000000000E+00 -0.00000000000E+00 -0.33921368623E+02  0.33921368623E+02  0.00000000000E+00 0.  1.
          2    1    1    2  501    0  0.20972377651E+02  0.14655402008E+01  0.44843792443E+02  0.49527307145E+02  0.00000000000E+00 0.  1.
         21    1    1    2  503  501 -0.20972377651E+02 -0.14655402008E+01 -0.28080609743E+02  0.35078612800E+02  0.00000000000E+00 0.  1.
</event>
<event>
 4    1  0.2402120E+005  0.2346707E+02  0.7546771E-02  0.1486715E+00
          2   -1    0    0  503    0  0.00000000000E+00  0.00000000000E+00  0.11176419499E+03  0.11176419499E+03  0.00000000000E+00 0.  1.
         21   -1    0    0  501  502 -0.00000000000E+00 -0.00000000000E+00 -0.24500799897E+02  0.24500799897E+02  0.00000000000E+00 0. -1.
          2    1    1    2  501    0 -0.19702895508E+02  0.12747520624E+02  0.10452894471E+03  0.10713077828E+03  0.00000000000E+00 0.  1.
         21    1    1    2  503  502  0.19702895508E+02 -0.12747520624E+02 -0.17265549618E+02  0.29134216603E+02  0.00000000000E+00 0. -1.
</event>
<event>
 4    1  0.2402120E+005  0.4372471E+02  0.7546771E-02  0.1327941E+00
          2   -1    0    0  503    0  0.00000000000E+00  0.00000000000E+00  0.10866953003E+02  0.10866953003E+02  0.00000000000E+00 0.  1.
         21   -1    0    0  501  502 -0.00000000000E+00 -0.00000000000E+00 -0.51280218698E+03  0.51280218698E+03  0.00000000000E+00 0. -1.
          2    1    1    2  501    0 -0.22482616568E+02  0.37501759615E+02 -0.38749220293E+02  0.58423900035E+02  0.00000000000E+00 0.  1.
         21    1    1    2  503  502  0.22482616568E+02 -0.37501759615E+02 -0.46318601369E+03  0.46524523995E+03  0.00000000000E+00 0. -1.
</event>
<event>
 4    1  0.2402120E+005  0.2030238E+02  0.7546771E-02  0.1529462E+00
          2   -1    0    0  502    0  0.00000000000E+00  0.00000000000E+00  0.50171303498E+03  0.50171303498E+03  0.00000000000E+00 0. -1.
         21   -1    0    0  503  502 -0.00000000000E+00 -0.00000000000E+00 -0.26570762454E+01  0.26570762454E+01  0.00000000000E+00 0. -1.
          2    1    1    2  501    0  0.13097853032E+02 -0.15512344406E+02  0.45913056621E+03  0.45957922430E+03  0.00000000000E+00 0. -1.
         21    1    1    2  503  501 -0.13097853032E+02  0.15512344406E+02  0.39925392526E+02  0.44790886923E+02  0.00000000000E+00 0. -1.
</event>
<event>
 4    1  0.2402120E+005  0.2085183E+02  0.7546771E-02  0.1521391E+00
          2   -1    0    0  503    0  0.00000000000E+00  0.00000000000E+00  0.71167762144E+02  0.71167762144E+02  0.00000000000E+00 0. -1.
         21   -1    0    0  501  502 -0.00000000000E+00 -0.00000000000E+00 -0.22500268424E+02  0.22500268424E+02  0.00000000000E+00 0. -1.
          2    1    1    2  501    0 -0.46312164499E+01 -0.20331027006E+02  0.64306799545E+02  0.67602982868E+02  0.00000000000E+00 0. -1.
         21    1    1    2  503  502  0.46312164499E+01  0.20331027006E+02 -0.15639305826E+02  0.26065047700E+02  0.00000000000E+00 0. -1.
</event>
<event>
 4    1  0.2402120E+005  0.2501880E+02  0.7546771E-02  0.1468593E+00
          2   -1    0    0  502    0  0.00000000000E+00  0.00000000000E+00  0.12190153159E+04  0.12190153159E+04  0.00000000000E+00 0.  1.
         21   -1    0    0  503  502 -0.00000000000E+00 -0.00000000000E+00 -0.38195416533E+01  0.38195416533E+01  0.00000000000E+00 0.  1.
          2    1    1    2  501    0 -0.11865593232E+02  0.22026071790E+02  0.11764346480E+04  0.11767006506E+04  0.00000000000E+00 0.  1.
         21    1    1    2  503  501  0.11865593232E+02 -0.22026071790E+02  0.38761126198E+02  0.46134206890E+02  0.00000000000E+00 0.  1.
</event>
<event>
 4    1  0.2402120E+005  0.2033327E+02  0.7546771E-02  0.1529001E+00
          2   -1    0    0  502    0  0.00000000000E+00  0.00000000000E+00  0.47993299226E+03  0.47993299226E+03  0.00000000000E+00 0. -1.
         21   -1    0    0  503  502 -0.00000000000E+00 -0.00000000000E+00 -0.38726973993E+01  0.38726973993E+01  0.00000000000E+00 0. -1.
          2    1    1    2  501    0 -0.13912822361E+02  0.14828189561E+02  0.45133801720E+03  0.45179580299E+03  0.00000000000E+00 0. -1.
         21    1    1    2  503  501  0.13912822361E+02 -0.14828189561E+02  0.24722277662E+02  0.32009886668E+02  0.00000000000E+00 0. -1.
</event>
<event>
 4    1  0.2402120E+005  0.6181526E+02  0.7546771E-02  0.1253787E+00
          2   -1    0    0  503    0  0.00000000000E+00  0.00000000000E+00  0.30603070143E+04  0.30603070143E+04  0.00000000000E+00 0. -1.
         21   -1    0    0  501  502 -0.00000000000E+00 -0.00000000000E+00 -0.13544144203E+01  0.13544144203E+01  0.00000000000E+00 0. -1.
          2    1    1    2  501    0  0.16617266155E+02 -0.59539843077E+02  0.19573401860E+04  0.19583160445E+04  0.00000000000E+00 0. -1.
         21    1    1    2  503  502 -0.16617266155E+02  0.59539843077E+02  0.11016124139E+04  0.11033453842E+04  0.00000000000E+00 0. -1.
</event>
<event>
 4    1  0.2402120E+005  0.2578423E+02  0.7546771E-02  0.1460218E+00
          2   -1    0    0  503    0  0.00000000000E+00  0.00000000000E+00  0.22415407888E+03  0.22415407888E+03  0.00000000000E+00 0. -1.
         21   -1    0    0  501  502 -0.00000000000E+00 -0.00000000000E+00 -0.30038405982E+02  0.30038405982E+02  0.00000000000E+00 0. -1.
          2    1    1    2  501    0  0.20380120636E+02  0.15794851458E+02  0.21771641650E+03  0.21923791794E+03  0.00000000000E+00 0. -1.
         21    1    1    2  503  502 -0.20380120636E+02 -0.15794851458E+02 -0.23600743604E+02  0.34954566918E+02  0.00000000000E+00 0. -1.
</event>
<event>
 4    1  0.2402120E+005  0.3712197E+02  0.7546771E-02  0.1366230E+00
          2   -1    0    0  503    0  0.00000000000E+00  0.00000000000E+00  0.21682404281E+03  0.21682404281E+03  0.00000000000E+00 0. -1.
         21   -1    0    0  501  502 -0.00000000000E+00 -0.00000000000E+00 -0.80829020415E+02  0.80829020415E+02  0.00000000000E+00 0. -1.
          2    1    1    2  501    0 -0.36353898824E+02  0.75123146563E+01  0.21085316549E+03  0.21409600237E+03  0.00000000000E+00 0. -1.
         21    1    1    2  503  502  0.36353898824E+02 -0.75123146563E+01 -0.74858143098E+02  0.83557060858E+02  0.00000000000E+00 0. -1.
</event>
<event>
 4    1  0.2402120E+005  0.2074789E+02  0.7546771E-02  0.1522895E+00
          2   -1    0    0  503    0  0.00000000000E+00  0.00000000000E+00  0.85215089963E+03  0.85215089963E+03  0.00000000000E+00 0. -1.
         21   -1    0    0  501  502 -0.00000000000E+00 -0.00000000000E+00 -0.70735243368E+00  0.70735243368E+00  0.00000000000E+00 0. -1.
          2    1    1    2  501    0 -0.13400526637E+02  0.15839853032E+02  0.65370779565E+03  0.65403696925E+03  0.00000000000E+00 0. -1.
         21    1    1    2  503  502  0.13400526637E+02 -0.15839853032E+02  0.19773575155E+03  0.19882128281E+03  0.00000000000E+00 0. -1.
</event>
<event>
 4    1  0.2402120E+005  0.3141942E+02  0.7546771E-02  0.1407650E+00
          2   -1    0    0  503    0  0.00000000000E+00  0.00000000000E+00  0.74422353492E+02  0.74422353492E+02  0.00000000000E+00 0. -1.
         21   -1    0    0  501  502 -0.00000000000E+00 -0.00000000000E+00 -0.36055063825E+02  0.36055063825E+02  0.00000000000E+00 0.  1.
          2    1    1    2  501    0  0.31419379619E+02  0.52079347894E-01  0.63101113553E+02  0.70490642354E+02  0.00000000000E+00 0. -1.
         21    1    1    2  503  502 -0.31419379619E+02 -0.52079347894E-01 -0.24733823886E+02  0.39986774962E+02  0.00000000000E+00 0.  1.
</event>
<event>
 4    1  0.2402120E+005  0.4479242E+02  0.7546771E-02  0.1322481E+00
          2   -1    0    0  503    0  0.00000000000E+00  0.00000000000E+00  0.67834463474E+03  0.67834463474E+03  0.00000000000E+00 0. -1.
         21   -1    0    0  501  502 -0.00000000000E+00 -0.00000000000E+00 -0.33647157147E+01  0.33647157147E+01  0.00000000000E+00 0. -1.
          2    1    1    2  501    0 -0.44575092320E+02  0.44070412194E+01  0.45603521715E+03  0.45822972420E+03  0.00000000000E+00 0. -1.
         21    1    1    2  503  502  0.44575092320E+02 -0.44070412194E+01  0.21894470188E+03  0.22347962625E+03  0.00000000000E+00 0. -1.
</event>
<event>
 4    1  0.2402120E+005  0.3507030E+02  0.7546771E-02  0.1380070E+00
          2   -1    0    0  502    0  0.00000000000E+00  0.00000000000E+00  0.74054476684E+03  0.74054476684E+03  0.00000000000E+00 0. -1.
         21   -1    0    0  503  502 -0.00000000000E+00 -0.00000000000E+00 -0.33471685450E+02  0.33471685450E+02  0.00000000000E+00 0. -1.
          2    1    1    2  501    0  0.14074039615E+02  0.32122379233E+02  0.73082108664E+03  0.73166207126E+03  0.00000000000E+00 0. -1.
         21    1    1    2  503  501 -0.14074039615E+02 -0.32122379233E+02 -0.23748005256E+02  0.42354381028E+02  0.00000000000E+00 0. -1.
</event>
<event>
 4    1  0.2402120E+005  0.2004991E+02  0.7546771E-02  0.1533274E+00
          2   -1    0    0  503    0  0.00000000000E+00  0.00000000000E+00  0.27971397959E+01  0.27971397959E+01  0.00000000000E+00 0.  1.
         21   -1    0    0  501  502 -0.00000000000E+00 -0.00000000000E+00 -0.42701341857E+03  0.42701341857E+03  0.00000000000E+00 0.  1.
          2    1    1    2  501    0  0.12358417567E+02 -0.15788235059E+02 -0.37064541371E+02  0.42139993807E+02  0.00000000000E+00 0.  1.
         21    1    1    2  503  502 -0.12358417567E+02  0.15788235059E+02 -0.38715173740E+03  0.38767056456E+03  0.00000000000E+00 0.  1.
</event>
<event>
 4    1  0.2402120E+005  0.2845842E+02  0.7546771E-02  0.1433484E+00
          2   -1    0    0  503    0  0.00000000000E+00  0.00000000000E+00  0.28500386225E+03  0.28500386225E+03  0.00000000000E+00 0. -1.
         21   -1    0    0  501  502 -0.00000000000E+00 -0.00000000000E+00 -0.11585506195E+03  0.11585506195E+03  0.00000000000E+00 0. -1.
          2    1    1    2  501    0 -0.16845010740E+02 -0.22937460369E+02  0.28253057158E+03  0.28396021790E+03  0.00000000000E+00 0. -1.
         21    1    1    2  503  502  0.16845010740E+02  0.22937460369E+02 -0.11338177128E+03  0.11689870630E+03  0.00000000000E+00 0. -1.
</event>
<event>
 4    1  0.2402120E+005  0.2165429E+02  0.7546771E-02  0.1510125E+00
          2   -1    0    0  503    0  0.00000000000E+00  0.00000000000E+00  0.35575605743E+02  0.35575605743E+02  0.00000000000E+00 0.  1.
         21   -1    0    0  501  502 -0.00000000000E+00 -0.00000000000E+00 -0.13815625817E+02  0.13815625817E+02  0.00000000000E+00 0.  1.
          2    1    1    2  501    0  0.13744590996E+02  0.16733031543E+02  0.16174519957E+02  0.27028193097E+02  0.00000000000E+00 0.  1.
         21    1    1    2  503  502 -0.13744590996E+02 -0.16733031543E+02  0.55854599694E+01  0.22363038464E+02  0.00000000000E+00 0.  1.
</event>
<event>
 4    1  0.2402120E+005  0.2522307E+02  0.7546771E-02  0.1466323E+00
          2   -1    0    0  503    0  0.00000000000E+00  0.00000000000E+00  0.19124519969E+04  0.19124519969E+04  0.00000000000E+00 0. -1.
         21   -1    0    0  501  502 -0.00000000000E+00 -0.00000000000E+00 -0.34303735086E+00  0.34303735086E+00  0.00000000000E+00 0. -1.
          2    1    1    2  501    0 -0.63614739623E+01 -0.24407681526E+02  0.11223706675E+04  0.11226540512E+04  0.00000000000E+00 0. -1.
         21    1    1    2  503  502  0.63614739623E+01  0.24407681526E+02  0.78973829203E+03  0.79014098310E+03  0.00000000000E+00 0. -1.
</event>
<event>
 4    1  0.2402120E+005  0.3611602E+02  0.7546771E-02  0.1372883E+00
          2   -1    0    0  503    0  0.00000000000E+00  0.00000000000E+00  0.36099035664E+02  0.36099035664E+02  0.00000000000E+00 0.  1.
         21   -1    0    0  501  502 -0.00000000000E+00 -0.00000000000E+00 -0.13429527437E+03  0.13429527437E+03  0.00000000000E+00 0. -1.
          2    1    1    2  501    0  0.50248208337E+01  0.35764761861E+02  0.23741387872E+02  0.43220602882E+02  0.00000000000E+00 0.  1.
         21    1    1    2  503  502 -0.50248208337E+01 -0.35764761861E+02 -0.12193762658E+03  0.12717370716E+03  0.00000000000E+00 0. -1.
</event>
<event>
 4    1  0.2402120E+005  0.3007159E+02  0.7546771E-02  0.1418975E+00
          2   -1    0    0  503    0  0.00000000000E+00  0.00000000000E+00  0.18123662259E+03  0.18123662259E+03  0.00000000000E+00 0. -1.
         21   -1    0    0  501  502 -0.00000000000E+00 -0.00000000000E+00 -0.40991590813E+02  0.40991590813E+02  0.00000000000E+00 0. -1.
          2    1    1    2  501    0 -0.17342885906E+02 -0.24566737179E+02  0.17425470634E+03  0.17683043558E+03  0.00000000000E+00 0. -1.
         21    1    1    2  503  502  0.17342885906E+02  0.24566737179E+02 -0.34009674562E+02  0.45397777820E+02  0.00000000000E+00 0. -1.
</event>
<event>
 4    1  0.2402120E+005  0.2442616E+02  0.7546771E-02  0.1475326E+00
          2   -1    0    0  502    0  0.00000000000E+00  0.00000000000E+00  0.52706313902E+03  0.52706313902E+03  0.00000000000E+00 0.  1.
         21   -1    0    0  503  502 -0.00000000000E+00 -0.00000000000E+00 -0.68385386357E+01  0.68385386357E+01  0.00000000000E+00 0. -1.
          2    1    1    2  501    0  0.21490998295E+02  0.11609242573E+02  0.50396966174E+03  0.50456125245E+03  0.00000000000E+00 0.  1.
         21    1    1    2  503  501 -0.21490998295E+02 -0.11609242573E+02  0.16254938644E+02  0.29340425204E+02  0.00000000000E+00 0. -1.
</event>
<event>
 4    1  0.2402120E+005  0.2862862E+02  0.7546771E-02  0.1431900E+00
          2   -1    0    0  503    0  0.00000000000E+00  0.00000000000E+00  0.11344659929E+04  0.11344659929E+04  0.00000000000E+00 0.  1.
         21   -1    0    0  501  502 -0.00000000000E+00 -0.00000000000E+00 -0.13835747312E+03  0.13835747312E+03  0.00000000000E+00 0.  1.
          2    1    1    2  501    0  0.24886911792E+02  0.14150593472E+02  0.11328022629E+04  0.11331639619E+04  0.00000000000E+00 0.  1.
         21    1    1    2  503  502 -0.24886911792E+02 -0.14150593472E+02 -0.13669374314E+03  0.13965950411E+03  0.00000000000E+00 0.  1.
</event>
<event>
 4    1  0.2402120E+005  0.2436219E+02  0.7546771E-02  0.1476067E+00
          2   -1    0    0  503    0  0.00000000000E+00  0.00000000000E+00  0.15349969429E+03  0.15349969429E+03  0.00000000000E+00 0. -1.
         21   -1    0    0  501  502 -0.00000000000E+00 -0.00000000000E+00 -0.40330673698E+01  0.40330673698E+01  0.00000000000E+00 0. -1.
          2    1    1    2  501    0 -0.92650926524E+01  0.22531627447E+02  0.90737606345E+02  0.93951207456E+02  0.00000000000E+00 0. -1.
         21    1    1    2  503  502  0.92650926524E+01 -0.22531627447E+02  0.58729020580E+02  0.63581554208E+02  0.00000000000E+00 0. -1.
</event>
<event>
 4    1  0.2402120E+005  0.3156333E+02  0.7546771E-02  0.1406481E+00
          2   -1    0    0  502    0  0.00000000000E+00  0.00000000000E+00  0.29035914597E+03  0.29035914597E+03  0.00000000000E+00 0. -1.
         21   -1    0    0  503  502 -0.00000000000E+00 -0.00000000000E+00 -0.19610418738E+02  0.19610418738E+02  0.00000000000E+00 0. -1.
          2    1    1    2  501    0 -0.29441142239E+02  0.11378170649E+02  0.27614954411E+03  0.27794750284E+03  0.00000000000E+00 0. -1.
         21    1    1    2  503  501  0.29441142239E+02 -0.11378170649E+02 -0.54008168723E+01  0.32022061872E+02  0.00000000000E+00 0. -1.
</event>
<event>
 4    1  0.2402120E+005  0.2184260E+02  0.7546771E-02  0.1507566E+00
          2   -1    0    0  502    0  0.00000000000E+00  0.00000000000E+00  0.14355564618E+03  0.14355564618E+03  0.00000000000E+00 0.  1.
         21   -1    0    0  503  502 -0.00000000000E+00 -0.00000000000E+00 -0.10652671818E+02  0.10652671818E+02  0.00000000000E+00 0.  1.
          2    1    1    2  501    0 -0.17402738893E+02 -0.13200148456E+02  0.13040694658E+03  0.13222356431E+03  0.00000000000E+00 0.  1.
         21    1    1    2  503  501  0.17402738893E+02  0.13200148456E+02  0.24960277770E+01  0.21984753692E+02  0.00000000000E+00 0.  1.
</event>
<event>
 4    1  0.2402120E+005  0.2405893E+02  0.7546771E-02  0.1479613E+00
          2   -1    0    0  503    0  0.00000000000E+00  0.00000000000E+00  0.58706996987E+02  0.58706996987E+02  0.00000000000E+00 0. -1.
         21   -1    0    0  501  502 -0.00000000000E+00 -0.00000000000E+00 -0.11540260032E+02  0.11540260032E+02  0.00000000000E+00 0. -1.
          2    1    1    2  501    0  0.16126264103E+01  0.24004822171E+02  0.36986970158E+02  0.44123327310E+02  0.00000000000E+00 0. -1.
         21    1    1    2  503  502 -0.16126264103E+01 -0.24004822171E+02  0.10179766797E+02  0.26123929709E+02  0.00000000000E+00 0. -1.
</event>
<event>
 4    1  0.2402120E+005  0.2212262E+02  0.7546771E-02  0.1503819E+00
          2   -1    0    0  502    0  0.00000000000E+00  0.00000000000E+00  0.17554224149E+03  0.17554224149E+03  0.00000000000E+00 0. -1.
         21   -1    0    0  503  502 -0.00000000000E+00 -0.00000000000E+00 -0.10803481275E+02  0.10803481275E+02  0.00000000000E+00 0.  1.
          2    1    1    2  501    0  0.30313230926E+01  0.21913950230E+02  0.16262447740E+03  0.16412230435E+03  0.00000000000E+00 0. -1.
         21    1    1    2  503  501 -0.30313230926E+01 -0.21913950230E+02  0.21142828139E+01  0.22223418418E+02  0.00000000000E+00 0.  1.
</event>
<event>
 4    1  0.2402120E+005  0.3836987E+02  0.7546771E-02  0.1358312E+00
          2   -1    0    0  503    0  0.00000000000E+00  0.00000000000E+00  0.21783314163E+03  0.21783314163E+03  0.00000000000E+00 0. -1.
         21   -1    0    0  501  502 -0.00000000000E+00 -0.00000000000E+00 -0.25214054471E+03  0.25214054471E+03  0.00000000000E+00 0. -1.
          2    1    1    2  501    0 -0.22915712872E+02 -0.30775263505E+02  0.21466235139E+03  0.21806460475E+03  0.00000000000E+00 0. -1.
         21    1    1    2  503  502  0.22915712872E+02  0.30775263505E+02 -0.24896975448E+03  0.25190908159E+03  0.00000000000E+00 0. -1.
</event>
<event>
 4    1  0.2402120E+005  0.3780753E+02  0.7546771E-02  0.1361836E+00
          2   -1    0    0  503    0  0.00000000000E+00  0.00000000000E+00  0.23772486471E+04  0.23772486471E+04  0.00000000000E+00 0.  1.
         21   -1    0    0  501  502 -0.00000000000E+00 -0.00000000000E+00 -0.83289202447E+00  0.83289202447E+00  0.00000000000E+00 0.  1.
          2    1    1    2  501    0 -0.37642921536E+02  0.35241555967E+01  0.56119540122E+03  0.56246749912E+03  0.00000000000E+00 0.  1.
         21    1    1    2  503  502  0.37642921536E+02 -0.35241555967E+01  0.18152203539E+04  0.18156140401E+04  0.00000000000E+00 0.  1.
</event>
<event>
 4    1  0.2402120E+005  0.2272858E+02  0.7546771E-02  0.1495935E+00
          2   -1    0    0  503    0  0.00000000000E+00  0.00000000000E+00  0.14918752165E+04  0.14918752165E+04  0.00000000000E+00 0.  1.
         21   -1    0    0  501  502 -0.00000000000E+00 -0.00000000000E+00 -0.40228583061E+01  0.40228583061E+01  0.00000000000E+00 0.  1.
          2    1    1    2  501    0 -0.21692321227E+02  0.67846525828E+01  0.14589611319E+04  0.14591381609E+04  0.00000000000E+00 0.  1.
         21    1    1    2  503  502  0.21692321227E+02 -0.67846525828E+01  0.28891226297E+02  0.36759913871E+02  0.00000000000E+00 0.  1.
</event>
<event>
 4    1  0.2402120E+005  0.2675468E+02  0.7546771E-02  0.1450088E+00
          2   -1    0    0  502    0  0.00000000000E+00  0.00000000000E+00  0.31982130932E+03  0.31982130932E+03  0.00000000000E+00 0.  1.
         21   -1    0    0  503  502 -0.00000000000E+00 -0.00000000000E+00 -0.45787131091E+01  0.45787131091E+01  0.00000000000E+00 0. -1.
          2    1    1    2  501    0 -0.20057145590E+02  0.17706599515E+02  0.27358924816E+03  0.27489432418E+03  0.00000000000E+00 0.  1.
         21    1    1    2  503  501  0.20057145590E+02 -0.17706599515E+02  0.41653348050E+02  0.49505698252E+02  0.00000000000E+00 0. -1.
</event>
<event>
 4    1  0.2402120E+005  0.4182650E+02  0.7546771E-02  0.1338103E+00
          2   -1    0    0  503    0  0.00000000000E+00  0.00000000000E+00  0.24411960291E+04  0.24411960291E+04  0.00000000000E+00 0.  1.
         21   -1    0    0  501  502 -0.00000000000E+00 -0.00000000000E+00 -0.10940374099E+01  0.10940374099E+01  0.00000000000E+00 0.  1.
          2    1    1    2  501    0 -0.35819354862E+02  0.21596983096E+02  0.19372691816E+04  0.19377206553E+04  0.00000000000E+00 0.  1.
         21    1    1    2  503  502  0.35819354862E+02 -0.21596983096E+02  0.50283281011E+03  0.50456941126E+03  0.00000000000E+00 0.  1.
</event>
<event>
 4    1  0.2402120E+005  0.2105855E+02  0.7546771E-02  0.1518430E+00
          2   -1    0    0  503    0  0.00000000000E+00  0.00000000000E+00  0.44109255952E+01  0.44109255952E+01  0.00000000000E+00 0.  1.
         21   -1    0    0  501  502 -0.00000000000E+00 -0.00000000000E+00 -0.71882729526E+03  0.71882729526E+03  0.00000000000E+00 0. -1.
          2    1    1    2  501    0  0.68010293613E+01  0.19930092203E+02 -0.21829697852E+02  0.30331473487E+02  0.00000000000E+00 0.  1.
         21    1    1    2  503  502 -0.68010293613E+01 -0.19930092203E+02 -0.69258667182E+03  0.69290674737E+03  0.00000000000E+00 0. -1.
</event>
<event>
 4    1  0.2402120E+005  0.3113574E+02  0.7546771E-02  0.1409977E+00
          2   -1    0    0  503    0  0.00000000000E+00  0.00000000000E+00  0.18482475101E+04  0.18482475101E+04  0.00000000000E+00 0.  1.
         21   -1    0    0  501  502 -0.00000000000E+00 -0.00000000000E+00 -0.23061613079E+01  0.23061613079E+01  0.00000000000E+00 0. -1.
          2    1    1    2  501    0 -0.30789299461E+02  0.46318065027E+01  0.17362458683E+04  0.17365250214E+04  0.00000000000E+00 0.  1.
         21    1    1    2  503  502  0.30789299461E+02 -0.46318065027E+01  0.10969548045E+03  0.11402865001E+03  0.00000000000E+00 0. -1.
</event>
<event>
 4    1  0.2402120E+005  0.2401557E+02  0.7546771E-02  0.1480125E+00
          2   -1    0    0  503    0  0.00000000000E+00  0.00000000000E+00  0.12339351656E+04  0.12339351656E+04  0.00000000000E+00 0.  1.
         21   -1    0    0  501  502 -0.00000000000E+00 -0.00000000000E+00 -0.56381287363E+00  0.56381287363E+00  0.00000000000E+00 0.  1.
          2    1    1    2  501    0 -0.55496221644E+01  0.23365559887E+02  0.87192587822E+03  0.87225654758E+03  0.00000000000E+00 0.  1.
         21    1    1    2  503  502  0.55496221644E+01 -0.23365559887E+02  0.36144547450E+03  0.36224243088E+03  0.00000000000E+00 0.  1.
</event>
<event>
 4    1  0.2402120E+005  0.2095735E+02  0.7546771E-02  0.1519875E+00
          2   -1    0    0  503    0  0.00000000000E+00  0.00000000000E+00  0.61447233076E+03  0.61447233076E+03  0.00000000000E+00 0.  1.
         21   -1    0    0  501  502 -0.00000000000E+00 -0.00000000000E+00 -0.93358698925E+00  0.93358698925E+00  0.00000000000E+00 0.  1.
          2    1    1    2  501    0  0.55371656407E+01  0.20212629751E+02  0.15780308738E+03  0.15918864593E+03  0.00000000000E+00 0.  1.
         21    1    1    2  503  502 -0.55371656407E+01 -0.20212629751E+02  0.45573565639E+03  0.45621727182E+03  0.00000000000E+00 0.  1.
</event>
<event>
 4    1  0.2402120E+005  0.6663024E+02  0.7546771E-02  0.1238830E+00
          2   -1    0    0  503    0  0.00000000000E+00  0.00000000000E+00  0.98378161290E+03  0.98378161290E+03  0.00000000000E+00 0.  1.
         21   -1    0    0  501  502 -0.00000000000E+00 -0.00000000000E+00 -0.69957336161E+01  0.69957336161E+01  0.00000000000E+00 0.  1.
          2    1    1    2  501    0 -0.34958321417E+02  0.56723054020E+02  0.78352325589E+03  0.78635124570E+03  0.00000000000E+00 0.  1.
         21    1    1    2  503  502  0.34958321417E+02 -0.56723054020E+02  0.19326262339E+03  0.20442610081E+03  0.00000000000E+00 0.  1.
</event>
<event>
 4    1  0.2402120E+005  0.2641645E+02  0.7546771E-02  0.1453560E+00
          2   -1    0    0  503    0  0.00000000000E+00  0.00000000000E+00  0.16838978116E+03  0.16838978116E+03  0.00000000000E+00 0.  1.
         21   -1    0    0  501  502 -0.00000000000E+00 -0.00000000000E+00 -0.16639232367E+02  0.16639232367E+02  0.00000000000E+00 0.  1.
          2    1    1    2  501    0  0.15962223104E+02  0.21048430729E+02  0.15604550230E+03  0.15826568735E+03  0.00000000000E+00 0.  1.
         21    1    1    2  503  502 -0.15962223104E+02 -0.21048430729E+02 -0.42949535093E+01  0.26763326180E+02  0.00000000000E+00 0.  1.
</event>
<event>
 4    1  0.2402120E+005  0.3235796E+02  0.7546771E-02  0.1400154E+00
          2   -1    0    0  502    0  0.00000000000E+00  0.00000000000E+00  0.13580384929E+03  0.13580384929E+03  0.00000000000E+00 0.  1.
         21   -1    0    0  503  502 -0.00000000000E+00 -0.00000000000E+00 -0.52875208033E+02  0.52875208033E+02  0.00000000000E+00 0. -1.
          2    1    1    2  501    0  0.31013239945E+02  0.92312766177E+01  0.12865499258E+03  0.13266176780E+03  0.00000000000E+00 0.  1.
         21    1    1    2  503  501 -0.31013239945E+02 -0.92312766177E+01 -0.45726351325E+02  0.56017289521E+02  0.00000000000E+00 0. -1.
</event>
<event>
 4    1  0.2402120E+005  0.5860075E+02  0.7546771E-02  0.1264662E+00
          2   -1    0    0  503    0  0.00000000000E+00  0.00000000000E+00  0.53493858484E+03  0.53493858484E+03  0.00000000000E+00 0. -1.
         21   -1    0    0  501  502 -0.00000000000E+00 -0.00000000000E+00 -0.26265073938E+02  0.26265073938E+02  0.00000000000E+00 0. -1.
          2    1    1    2  501    0  0.37571399098E+02 -0.44971520241E+02  0.49824856223E+03  0.50168284546E+03  0.00000000000E+00 0. -1.
         21    1    1    2  503  502 -0.37571399098E+02  0.44971520241E+02  0.10424948668E+02  0.59520813316E+02  0.00000000000E+00 0. -1.
</event>
<event>
 4    1  0.2402120E+005  0.2128710E+02  0.7546771E-02  0.1515205E+00
          2   -1    0    0  502    0  0.00000000000E+00  0.00000000000E+00  0.10192932606E+04  0.10192932606E+04  0.00000000000E+00 0. -1.
         21   -1    0    0  503  502 -0.00000000000E+00 -0.00000000000E+00 -0.60161891582E+03  0.60161891582E+03  0.00000000000E+00 0. -1.
          2    1    1    2  501    0  0.19062864437E+02 -0.94735341505E+01  0.10189937638E+04  0.10192160867E+04  0.00000000000E+00 0. -1.
         21    1    1    2  503  501 -0.19062864437E+02  0.94735341505E+01 -0.60131941906E+03  0.60169608972E+03  0.00000000000E+00 0. -1.
</event>
<event>
 4    1  0.2402120E+005  0.2591156E+02  0.7546771E-02  0.1458859E+00
          2   -1    0    0  503    0  0.00000000000E+00  0.00000000000E+00  0.59437021757E+03  0.59437021757E+03  0.00000000000E+00 0.  1.
         21   -1    0    0  501  502 -0.00000000000E+00 -0.00000000000E+00 -0.77731791597E+01  0.77731791597E+01  0.00000000000E+00 0. -1.
          2    1    1    2  501    0 -0.75165980909E+01 -0.24797376336E+02  0.57163567306E+03  0.57222264184E+03  0.00000000000E+00 0.  1.
         21    1    1    2  503  502  0.75165980909E+01  0.24797376336E+02  0.14961365351E+02  0.29920754890E+02  0.00000000000E+00 0. -1.
</event>
<event>
 4    1  0.2402120E+005  0.2984433E+02  0.7546771E-02  0.1420954E+00
          2   -1    0    0  503    0  0.00000000000E+00  0.00000000000E+00  0.31994190084E+03  0.31994190084E+03  0.00000000000E+00 0. -1.
         21   -1    0    0  501  502 -0.00000000000E+00 -0.00000000000E+00 -0.36629780804E+01  0.36629780804E+01  0.00000000000E+00 0. -1.
          2    1    1    2  501    0 -0.17324241432E+02 -0.24301333449E+02  0.23740478903E+03  0.23927331235E+03  0.00000000000E+00 0. -1.
         21    1    1    2  503  502  0.17324241432E+02  0.24301333449E+02  0.78874133731E+02  0.84331566571E+02  0.00000000000E+00 0. -1.
</event>
<event>
 4    1  0.2402120E+005  0.2171027E+02  0.7546771E-02  0.1509361E+00
          2   -1    0    0  502    0  0.00000000000E+00  0.00000000000E+00  0.14917866555E+02  0.14917866555E+02  0.00000000000E+00 0.  1.
         21   -1    0    0  503  502 -0.00000000000E+00 -0.00000000000E+00 -0.11510819840E+03  0.11510819840E+03  0.00000000000E+00 0.  1.
          2    1    1    2  501    0  0.36095539615E+01  0.21408103824E+02  0.52811224674E+01  0.22343366883E+02  0.00000000000E+00 0.  1.
         21    1    1    2  503  501 -0.36095539615E+01 -0.21408103824E+02 -0.10547145431E+03  0.10768269807E+03  0.00000000000E+00 0.  1.
</event>
<event>
 4    1  0.2402120E+005  0.2280670E+02  0.7546771E-02  0.1494940E+00
          2   -1    0    0  503    0  0.00000000000E+00  0.00000000000E+00  0.17162427251E+02  0.17162427251E+02  0.00000000000E+00 0.  1.
         21   -1    0    0  501  502 -0.00000000000E+00 -0.00000000000E+00 -0.12738431637E+03  0.12738431637E+03  0.00000000000E+00 0.  1.
          2    1    1    2  501    0  0.13987016736E+02  0.18014125580E+02  0.79817009946E+01  0.24163048408E+02  0.00000000000E+00 0.  1.
         21    1    1    2  503  502 -0.13987016736E+02 -0.18014125580E+02 -0.11820359011E+03  0.12038369521E+03  0.00000000000E+00 0.  1.
</event>
<event>
 4    1  0.2402120E+005  0.4393523E+02  0.7546771E-02  0.1326850E+00
          2   -1    0    0  502    0  0.00000000000E+00  0.00000000000E+00  0.45416574913E+03  0.45416574913E+03  0.00000000000E+00 0. -1.
         21   -1    0    0  503  502 -0.00000000000E+00 -0.00000000000E+00 -0.45397233321E+01  0.45397233321E+01  0.00000000000E+00 0. -1.
          2    1    1    2  501    0  0.39105764664E+02  0.20026063648E+02  0.28273140589E+03  0.28612471394E+03  0.00000000000E+00 0. -1.
         21    1    1    2  503  501 -0.39105764664E+02 -0.20026063648E+02  0.16689461991E+03  0.17258075852E+03  0.00000000000E+00 0. -1.
</event>
<event>
 4    1  0.2402120E+005  0.3599575E+02  0.7546771E-02  0.1373695E+00
          2   -1    0    0  502    0  0.00000000000E+00  0.00000000000E+00  0.20020086000E+04  0.20020086000E+04  0.00000000000E+00 0.  1.
         21   -1    0    0  503  502 -0.00000000000E+00 -0.00000000000E+00 -0.77345219170E+01  0.77345219170E+01  0.00000000000E+00 0. -1.
          2    1    1    2  501    0 -0.15164110108E+02  0.32645728206E+02  0.19590482628E+04  0.19593789296E+04  0.00000000000E+00 0.  1.
         21    1    1    2  503  501  0.15164110108E+02 -0.32645728206E+02  0.35225815308E+02  0.50364192335E+02  0.00000000000E+00 0. -1.
</event>
<event>
 4    1  0.2402120E+005  0.2333617E+02  0.7546771E-02  0.1488319E+00
          2   -1    0    0  502    0  0.00000000000E+00  0.00000000000E+00  0.13820618703E+04  0.13820618703E+04  0.00000000000E+00 0. -1.
         21   -1    0    0  503  502 -0.00000000000E+00 -0.00000000000E+00 -0.15822888740E+01  0.15822888740E+01  0.00000000000E+00 0. -1.
          2    1    1    2  501    0  0.21114731777E+02  0.99370416966E+01  0.12897639472E+04  0.12899750448E+04  0.00000000000E+00 0. -1.
         21    1    1    2  503  501 -0.21114731777E+02 -0.99370416966E+01  0.90715634235E+02  0.93669114389E+02  0.00000000000E+00 0. -1.
</event>
<event>
 4    1  0.2402120E+005  0.3655048E+02  0.7546771E-02  0.1369979E+00
          2   -1    0    0  502    0  0.00000000000E+00  0.00000000000E+00  0.64031095628E+03  0.64031095628E+03  0.00000000000E+00 0.  1.
         21   -1    0    0  503  502 -0.00000000000E+00 -0.00000000000E+00 -0.84689381476E+02  0.84689381476E+02  0.00000000000E+00 0. -1.
          2    1    1    2  501    0 -0.26297607217E+02  0.25384512050E+02  0.63581787426E+03  0.63686757401E+03  0.00000000000E+00 0.  1.
         21    1    1    2  503  501  0.26297607217E+02 -0.25384512050E+02 -0.80196299461E+02  0.88132763740E+02  0.00000000000E+00 0. -1.
</event>
<event>
 4    1  0.2402120E+005  0.2259821E+02  0.7546771E-02  0.1497606E+00
          2   -1    0    0  503    0  0.00000000000E+00  0.00000000000E+00  0.21196243758E+02  0.21196243758E+02  0.00000000000E+00 0.  1.
         21   -1    0    0  501  502 -0.00000000000E+00 -0.00000000000E+00 -0.44384452036E+02  0.44384452036E+02  0.00000000000E+00 0. -1.
          2    1    1    2  501    0 -0.19899699866E+02 -0.10708928917E+02  0.10577040188E+02  0.24951011852E+02  0.00000000000E+00 0.  1.
         21    1    1    2  503  502  0.19899699866E+02  0.10708928917E+02 -0.33765248466E+02  0.40629683943E+02  0.00000000000E+00 0. -1.
</event>
<event>
 4    1  0.2402120E+005  0.2649868E+02  0.7546771E-02  0.1452710E+00
          2   -1    0    0  503    0  0.00000000000E+00  0.00000000000E+00  0.14511187543E+04  0.14511187543E+04  0.00000000000E+00 0.  1.
         21   -1    0    0  501  502 -0.00000000000E+00 -0.00000000000E+00 -0.57152503721E+00  0.57152503721E+00  0.00000000000E+00 0.  1.
          2    1    1    2  501    0  0.21893957974E+02  0.14927649746E+02  0.10095024835E+04  0.10098502088E+04  0.00000000000E+00 0.  1.
         21    1    1    2  503  502 -0.21893957974E+02 -0.14927649746E+02  0.44104474575E+03  0.44184007047E+03  0.00000000000E+00 0.  1.
</event>
<event>
 4    1  0.2402120E+005  0.2584901E+02  0.7546771E-02  0.1459526E+00
          2   -1    0    0  502    0  0.00000000000E+00  0.00000000000E+00  0.11717989065E+04  0.11717989065E+04  0.00000000000E+00 0. -1.
         21   -1    0    0  503  502 -0.00000000000E+00 -0.00000000000E+00 -0.42364720655E+01  0.42364720655E+01  0.00000000000E+00 0. -1.
          2    1    1    2  501    0 -0.24939001629E+02 -0.67983554476E+01  0.11307971436E+04  0.11310925476E+04  0.00000000000E+00 0. -1.
         21    1    1    2  503  501  0.24939001629E+02  0.67983554476E+01  0.36765290896E+02  0.44942830949E+02  0.00000000000E+00 0. -1.
</event>
<event>
 4    1  0.2402120E+005  0.2274148E+02  0.7546771E-02  0.1495770E+00
          2   -1    0    0  503    0  0.00000000000E+00  0.00000000000E+00  0.19191102573E+03  0.19191102573E+03  0.00000000000E+00 0. -1.
         21   -1    0    0  501  502 -0.00000000000E+00 -0.00000000000E+00 -0.19694263791E+02  0.19694263791E+02  0.00000000000E+00 0. -1.
          2    1    1    2  501    0 -0.22722831872E+02 -0.92076352422E+00  0.18440608875E+03  0.18580306904E+03  0.00000000000E+00 0. -1.
         21    1    1    2  503  502  0.22722831872E+02  0.92076352422E+00 -0.12189326815E+02  0.25802220485E+02  0.00000000000E+00 0. -1.
</event>
<event>
 4    1  0.2402120E+005  0.2729126E+02  0.7546771E-02  0.1444704E+00
          2   -1    0    0  502    0  0.00000000000E+00  0.00000000000E+00  0.79774885693E+02  0.79774885693E+02  0.00000000000E+00 0. -1.
         21   -1    0    0  503  502 -0.00000000000E+00 -0.00000000000E+00 -0.58761705238E+03  0.58761705238E+03  0.00000000000E+00 0. -1.
          2    1    1    2  501    0  0.24844863992E+02 -0.11293600948E+02  0.77113284961E+02  0.81800191972E+02  0.00000000000E+00 0. -1.
         21    1    1    2  503  501 -0.24844863992E+02  0.11293600948E+02 -0.58495545165E+03  0.58559174611E+03  0.00000000000E+00 0. -1.
</event>
<event>
 4    1  0.2402120E+005  0.2011948E+02  0.7546771E-02  0.1532217E+00
          2   -1    0    0  503    0  0.00000000000E+00  0.00000000000E+00  0.14329414367E+03  0.14329414367E+03  0.00000000000E+00 0.  1.
         21   -1    0    0  501  502 -0.00000000000E+00 -0.00000000000E+00 -0.13787319986E+03  0.13787319986E+03  0.00000000000E+00 0. -1.
          2    1    1    2  501    0  0.18760623768E+02 -0.72685932803E+01  0.14184646577E+03  0.14326623225E+03  0.00000000000E+00 0.  1.
         21    1    1    2  503  502 -0.18760623768E+02  0.72685932803E+01 -0.13642552195E+03  0.13790111128E+03  0.00000000000E+00 0. -1.
</event>
<event>
 4    1  0.2402120E+005  0.4218608E+02  0.7546771E-02  0.1336131E+00
          2   -1    0    0  503    0  0.00000000000E+00  0.00000000000E+00  0.41564606555E+04  0.41564606555E+04  0.00000000000E+00 0.  1.
         21   -1    0    0  501  502 -0.00000000000E+00 -0.00000000000E+00 -0.56801626755E+00  0.56801626755E+00  0.00000000000E+00 0. -1.
          2    1    1    2  501    0  0.29274862833E+02 -0.30375116798E+02  0.31092830490E+04  0.31095692217E+04  0.00000000000E+00 0.  1.
         21    1    1    2  503  502 -0.29274862833E+02  0.30375116798E+02  0.10466095902E+04  0.10474594501E+04  0.00000000000E+00 0. -1.
</event>
<event>
 4    1  0.2402120E+005  0.2545439E+02  0.7546771E-02  0.1463784E+00
          2   -1    0    0  502    0  0.00000000000E+00  0.00000000000E+00  0.38672649940E+02  0.38672649940E+02  0.00000000000E+00 0.  1.
         21   -1    0    0  503  502 -0.00000000000E+00 -0.00000000000E+00 -0.21034160482E+02  0.21034160482E+02  0.00000000000E+00 0. -1.
          2    1    1    2  501    0 -0.25163311571E+02  0.38384853606E+01  0.22285759786E+02  0.33831661330E+02  0.00000000000E+00 0.  1.
         21    1    1    2  503  501  0.25163311571E+02 -0.38384853606E+01 -0.46472703275E+01  0.25875149093E+02  0.00000000000E+00 0. -1.
</event>
<event>
 4    1  0.2402120E+005  0.2678823E+02  0.7546771E-02  0.1449747E+00
          2   -1    0    0  503    0  0.00000000000E+00  0.00000000000E+00  0.66796507758E+03  0.66796507758E+03  0.00000000000E+00 0. -1.
         21   -1    0    0  501  502 -0.00000000000E+00 -0.00000000000E+00 -0.32306457789E+02  0.32306457789E+02  0.00000000000E+00 0. -1.
          2    1    1    2  501    0 -0.25450761570E+02 -0.83587161907E+01  0.66209413419E+03  0.66263583659E+03  0.00000000000E+00 0. -1.
         21    1    1    2  503  502  0.25450761570E+02  0.83587161907E+01 -0.26435514402E+02  0.37635698779E+02  0.00000000000E+00 0. -1.
</event>
<event>
 4    1  0.2402120E+005  0.3230706E+02  0.7546771E-02  0.1400553E+00
          2   -1    0    0  502    0  0.00000000000E+00  0.00000000000E+00  0.91241848363E+03  0.91241848363E+03  0.00000000000E+00 0. -1.
         21   -1    0    0  503  502 -0.00000000000E+00 -0.00000000000E+00 -0.22554994310E+02  0.22554994310E+02  0.00000000000E+00 0. -1.
          2    1    1    2  501    0 -0.31610016542E+02 -0.66748233587E+01  0.90040934467E+03  0.90098875375E+03  0.00000000000E+00 0. -1.
         21    1    1    2  503  501  0.31610016542E+02  0.66748233587E+01 -0.10545855357E+02  0.33984724184E+02  0.00000000000E+00 0. -1.
</event>
<event>
 4    1  0.2402120E+005  0.2578823E+02  0.7546771E-02  0.1460175E+00
          2   -1    0    0  502    0  0.00000000000E+00  0.00000000000E+00  0.62905597011E+02  0.62905597011E+02  0.00000000000E+00 0.  1.
         21   -1    0    0  503  502 -0.00000000000E+00 -0.00000000000E+00 -0.22921529314E+02  0.22921529314E+02  0.00000000000E+00 0.  1.
          2    1    1    2  501    0  0.23941043374E+01  0.25676861220E+02  0.51491224182E+02  0.57588011820E+02  0.00000000000E+00 0.  1.
         21    1    1    2  503  501 -0.23941043374E+01 -0.25676861220E+02 -0.11507156484E+02  0.28239114505E+02  0.00000000000E+00 0.  1.
</event>
<event>
 4    1  0.2402120E+005  0.2340934E+02  0.7546771E-02  0.1487421E+00
          2   -1    0    0  503    0  0.00000000000E+00  0.00000000000E+00  0.97632804291E+03  0.97632804291E+03  0.00000000000E+00 0.  1.
         21   -1    0    0  501  502 -0.00000000000E+00 -0.00000000000E+00 -0.46872180521E+01  0.46872180521E+01  0.00000000000E+00 0.  1.
          2    1    1    2  501    0  0.22261114465E+02 -0.72415595524E+01  0.94602328479E+03  0.94631287255E+03  0.00000000000E+00 0.  1.
         21    1    1    2  503  502 -0.22261114465E+02  0.72415595524E+01  0.25617540074E+02  0.34702388411E+02  0.00000000000E+00 0.  1.
</event>
<event>
 4    1  0.2402120E+005  0.2430463E+02  0.7546771E-02  0.1476735E+00
          2   -1    0    0  503    0  0.00000000000E+00  0.00000000000E+00  0.37571269992E+02  0.37571269992E+02  0.00000000000E+00 0. -1.
         21   -1    0    0  501  502 -0.00000000000E+00 -0.00000000000E+00 -0.94931687264E+02  0.94931687264E+02  0.00000000000E+00 0. -1.
          2    1    1    2  501    0 -0.11985928278E+02  0.21143616103E+02  0.31836835036E+02  0.40053701997E+02  0.00000000000E+00 0. -1.
         21    1    1    2  503  502  0.11985928278E+02 -0.21143616103E+02 -0.89197252308E+02  0.92449255259E+02  0.00000000000E+00 0. -1.
</event>
<event>
 4    1  0.2402120E+005  0.2796232E+02  0.7546771E-02  0.1438174E+00
          2   -1    0    0  502    0  0.00000000000E+00  0.00000000000E+00  0.45892126889E+03  0.45892126889E+03  0.00000000000E+00 0.  1.
         21   -1    0    0  503  502 -0.00000000000E+00 -0.00000000000E+00 -0.17640593226E+02  0.17640593226E+02  0.00000000000E+00 0. -1.
          2    1    1    2  501    0  0.25746777691E+02  0.10908484068E+02  0.44712234900E+03  0.44799585551E+03  0.00000000000E+00 0.  1.
         21    1    1    2  503  501 -0.25746777691E+02 -0.10908484068E+02 -0.58416733281E+01  0.28566006606E+02  0.00000000000E+00 0. -1.
</event>
<event>
 4    1  0.2402120E+005  0.2161472E+02  0.7546771E-02  0.1510666E+00
          2   -1    0    0  502    0  0.00000000000E+00  0.00000000000E+00  0.16629554027E+03  0.16629554027E+03  0.00000000000E+00 0.  1.
         21   -1    0    0  503  502 -0.00000000000E+00 -0.00000000000E+00 -0.93834222110E+01  0.93834222110E+01  0.00000000000E+00 0.  1.
          2    1    1    2  501    0  0.13300145451E+02  0.17038253929E+02  0.15197913512E+03  0.15350848015E+03  0.00000000000E+00 0.  1.
         21    1    1    2  503  501 -0.13300145451E+02 -0.17038253929E+02  0.49329829344E+01  0.22170482327E+02  0.00000000000E+00 0.  1.
</event>
<event>
 4    1  0.2402120E+005  0.2298002E+02  0.7546771E-02  0.1492749E+00
          2   -1    0    0  502    0  0.00000000000E+00  0.00000000000E+00  0.10364338056E+03  0.10364338056E+03  0.00000000000E+00 0. -1.
         21   -1    0    0  503  502 -0.00000000000E+00 -0.00000000000E+00 -0.29903887479E+02  0.29903887479E+02  0.00000000000E+00 0. -1.
          2    1    1    2  501    0  0.26894001008E+01  0.22822105791E+02  0.97689307607E+02  0.10035577814E+03  0.00000000000E+00 0. -1.
         21    1    1    2  503  501 -0.26894001008E+01 -0.22822105791E+02 -0.23949814527E+02  0.33191489896E+02  0.00000000000E+00 0. -1.
</event>
<event>
 4    1  0.2402120E+005  0.2110750E+02  0.7546771E-02  0.1517735E+00
          2   -1    0    0  503    0  0.00000000000E+00  0.00000000000E+00  0.82695179253E+02  0.82695179253E+02  0.00000000000E+00 0. -1.
         21   -1    0    0  501  502 -0.00000000000E+00 -0.00000000000E+00 -0.20639118053E+02  0.20639118053E+02  0.00000000000E+00 0. -1.
          2    1    1    2  501    0 -0.83810788366E+01 -0.19372255233E+02  0.75442632368E+02  0.78339757045E+02  0.00000000000E+00 0. -1.
         21    1    1    2  503  502  0.83810788366E+01  0.19372255233E+02 -0.13386571167E+02  0.24994540262E+02  0.00000000000E+00 0. -1.
</event>
<event>
 4    1  0.2402120E+005  0.2767340E+02  0.7546771E-02  0.1440959E+00
          2   -1    0    0  503    0  0.00000000000E+00  0.00000000000E+00  0.94549459688E+03  0.94549459688E+03  0.00000000000E+00 0.  1.
         21   -1    0    0  501  502 -0.00000000000E+00 -0.00000000000E+00 -0.90166982857E+00  0.90166982857E+00  0.00000000000E+00 0. -1.
          2    1    1    2  501    0  0.27245579267E+02  0.48471963249E+01  0.62320608569E+03  0.62382020017E+03  0.00000000000E+00 0.  1.
         21    1    1    2  503  502 -0.27245579267E+02 -0.48471963249E+01  0.32138684136E+03  0.32257606654E+03  0.00000000000E+00 0. -1.
</event>
<event>
 4    1  0.2402120E+005  0.2422172E+02  0.7546771E-02  0.1477701E+00
          2   -1    0    0  502    0  0.00000000000E+00  0.00000000000E+00  0.37390778182E+03  0.37390778182E+03  0.00000000000E+00 0.  1.
         21   -1    0    0  503  502 -0.00000000000E+00 -0.00000000000E+00 -0.87134439675E+01  0.87134439675E+01  0.00000000000E+00 0. -1.
          2    1    1    2  501    0  0.10352869273E+02  0.21897714871E+02  0.35582827522E+03  0.35665172545E+03  0.00000000000E+00 0.  1.
         21    1    1    2  503  501 -0.10352869273E+02 -0.21897714871E+02  0.93660626360E+01  0.25969500343E+02  0.00000000000E+00 0. -1.
</event>
<event>
 4    1  0.2402120E+005  0.2199670E+02  0.7546771E-02  0.1505496E+00
          2   -1    0    0  502    0  0.00000000000E+00  0.00000000000E+00  0.12397026805E+04  0.12397026805E+04  0.00000000000E+00 0.  1.
         21   -1    0    0  503  502 -0.00000000000E+00 -0.00000000000E+00 -0.37457782832E+01  0.37457782832E+01  0.00000000000E+00 0.  1.
          2    1    1    2  501    0  0.56105099294E+01  0.21269156663E+02  0.12064209528E+04  0.12066214693E+04  0.00000000000E+00 0.  1.
         21    1    1    2  503  501 -0.56105099294E+01 -0.21269156663E+02  0.29535949497E+02  0.36826989553E+02  0.00000000000E+00 0.  1.
</event>
<event>
 4    1  0.2402120E+005  0.2003333E+02  0.7546771E-02  0.1533527E+00
          2   -1    0    0  503    0  0.00000000000E+00  0.00000000000E+00  0.31069381177E+03  0.31069381177E+03  0.00000000000E+00 0. -1.
         21   -1    0    0  501  502 -0.00000000000E+00 -0.00000000000E+00 -0.15013896891E+01  0.15013896891E+01  0.00000000000E+00 0.  1.
          2    1    1    2  501    0  0.74109282639E+01  0.18612156088E+02  0.21292746778E+03  0.21386781139E+03  0.00000000000E+00 0. -1.
         21    1    1    2  503  502 -0.74109282639E+01 -0.18612156088E+02  0.96264954298E+02  0.98327390069E+02  0.00000000000E+00 0.  1.
</event>
<event>
 4    1  0.2402120E+005  0.3627077E+02  0.7546771E-02  0.1371843E+00
          2   -1    0    0  503    0  0.00000000000E+00  0.00000000000E+00  0.94676504997E+03  0.94676504997E+03  0.00000000000E+00 0. -1.
         21   -1    0    0  501  502 -0.00000000000E+00 -0.00000000000E+00 -0.16918637869E+01  0.16918637869E+01  0.00000000000E+00 0. -1.
          2    1    1    2  501    0 -0.11007543427E+02 -0.34560127522E+02  0.67300257209E+03  0.67397925077E+03  0.00000000000E+00 0. -1.
         21    1    1    2  503  502  0.11007543427E+02  0.34560127522E+02  0.27207061410E+03  0.27447766299E+03  0.00000000000E+00 0. -1.
</event>
<event>
 4    1  0.2402120E+005  0.2453629E+02  0.7546771E-02  0.1474058E+00
          2   -1    0    0  503    0  0.00000000000E+00  0.00000000000E+00  0.46241146096E+03  0.46241146096E+03  0.00000000000E+00 0.  1.
         21   -1    0    0  501  502 -0.00000000000E+00 -0.00000000000E+00 -0.29700252891E+01  0.29700252891E+01  0.00000000000E+00 0.  1.
          2    1    1    2  501    0 -0.45792146893E+01  0.24105188587E+02  0.40410562967E+03  0.40484983544E+03  0.00000000000E+00 0.  1.
         21    1    1    2  503  502  0.45792146893E+01 -0.24105188587E+02  0.55335805997E+02  0.60531650807E+02  0.00000000000E+00 0.  1.
</event>
<event>
 4    1  0.2402120E+005  0.4112024E+02  0.7546771E-02  0.1342043E+00
          2   -1    0    0  503    0  0.00000000000E+00  0.00000000000E+00  0.42025363795E+02  0.42025363795E+02  0.00000000000E+00 0. -1.
         21   -1    0    0  501  502 -0.00000000000E+00 -0.00000000000E+00 -0.39642452726E+03  0.39642452726E+03  0.00000000000E+00 0.  1.
          2    1    1    2  501    0 -0.40538212869E+02 -0.68940100519E+01  0.30602801389E+02  0.51258224024E+02  0.00000000000E+00 0. -1.
         21    1    1    2  503  502  0.40538212869E+02  0.68940100519E+01 -0.38500196485E+03  0.38719166703E+03  0.00000000000E+00 0.  1.
</event>
<event>
 4    1  0.2402120E+005  0.2588269E+02  0.7546771E-02  0.1459166E+00
          2   -1    0    0  503    0  0.00000000000E+00  0.00000000000E+00  0.15307698494E+04  0.15307698494E+04  0.00000000000E+00 0. -1.
         21   -1    0    0  501  502 -0.00000000000E+00 -0.00000000000E+00 -0.44630810287E+00  0.44630810287E+00  0.00000000000E+00 0. -1.
          2    1    1    2  501    0 -0.24020068506E+02 -0.96410596003E+01  0.65841520476E+03  0.65892374034E+03  0.00000000000E+00 0. -1.
         21    1    1    2  503  502  0.24020068506E+02  0.96410596003E+01  0.87190833656E+03  0.87229241719E+03  0.00000000000E+00 0. -1.
</event>
<event>
 4    1  0.2402120E+005  0.2530943E+02  0.7546771E-02  0.1465371E+00
          2   -1    0    0  503    0  0.00000000000E+00  0.00000000000E+00  0.10626024370E+04  0.10626024370E+04  0.00000000000E+00 0. -1.
         21   -1    0    0  501  502 -0.00000000000E+00 -0.00000000000E+00 -0.98744290941E+00  0.98744290941E+00  0.00000000000E+00 0.  1.
          2    1    1    2  501    0 -0.24285033315E+02 -0.71277188177E+01  0.86270262693E+03  0.86307380318E+03  0.00000000000E+00 0. -1.
         21    1    1    2  503  502  0.24285033315E+02  0.71277188177E+01  0.19891236715E+03  0.20051607672E+03  0.00000000000E+00 0.  1.
</event>
<event>
 4    1  0.2402120E+005  0.7790100E+02  0.7546771E-02  0.1208806E+00
          2   -1    0    0  503    0  0.00000000000E+00  0.00000000000E+00  0.57019392067E+03  0.57019392067E+03  0.00000000000E+00 0.  1.
         21   -1    0    0  501  502 -0.00000000000E+00 -0.00000000000E+00 -0.56698972941E+02  0.56698972941E+02  0.00000000000E+00 0. -1.
          2    1    1    2  501    0  0.53301458638E+02 -0.56811271446E+02  0.53924770049E+03  0.54484552723E+03  0.00000000000E+00 0.  1.
         21    1    1    2  503  502 -0.53301458638E+02  0.56811271446E+02 -0.25752752759E+02  0.82047366386E+02  0.00000000000E+00 0. -1.
</event>
<event>
 4    1  0.2402120E+005  0.2230548E+02  0.7546771E-02  0.1501408E+00
          2   -1    0    0  503    0  0.00000000000E+00  0.00000000000E+00  0.37565389920E+03  0.37565389920E+03  0.00000000000E+00 0. -1.
         21   -1    0    0  501  502 -0.00000000000E+00 -0.00000000000E+00 -0.18791115984E+01  0.18791115984E+01  0.00000000000E+00 0. -1.
          2    1    1    2  501    0  0.20939531213E+02 -0.76857269220E+01  0.28944388609E+03  0.29030207984E+03  0.00000000000E+00 0. -1.
         21    1    1    2  503  502 -0.20939531213E+02  0.76857269220E+01  0.84330901510E+02  0.87230930955E+02  0.00000000000E+00 0. -1.
</event>
<event>
 4    1  0.2402120E+005  0.2047619E+02  0.7546771E-02  0.1526877E+00
          2   -1    0    0  502    0  0.00000000000E+00  0.00000000000E+00  0.36870771359E+03  0.36870771359E+03  0.00000000000E+00 0. -1.
         21   -1    0    0  503  502 -0.00000000000E+00 -0.00000000000E+00 -0.12483121433E+03  0.12483121433E+03  0.00000000000E+00 0.  1.
          2    1    1    2  501    0 -0.85357841593E+01 -0.18612217950E+02  0.36758117349E+03  0.36815104695E+03  0.00000000000E+00 0. -1.
         21    1    1    2  503  501  0.85357841593E+01  0.18612217950E+02 -0.12370467423E+03  0.12538788097E+03  0.00000000000E+00 0.  1.
</event>
<event>
 4    1  0.2402120E+005  0.2034855E+02  0.7546771E-02  0.1528773E+00
          2   -1    0    0  503    0  0.00000000000E+00  0.00000000000E+00  0.34743665954E+03  0.34743665954E+03  0.00000000000E+00 0. -1.
         21   -1    0    0  501  502 -0.00000000000E+00 -0.00000000000E+00 -0.13342728475E+01  0.13342728475E+01  0.00000000000E+00 0. -1.
          2    1    1    2  501    0 -0.13315567948E+02 -0.15386974187E+02  0.23004206174E+03  0.23094028123E+03  0.00000000000E+00 0. -1.
         21    1    1    2  503  502  0.13315567948E+02  0.15386974187E+02  0.11606032495E+03  0.11783065116E+03  0.00000000000E+00 0. -1.
</event>
<event>
 4    1  0.2402120E+005  0.2039636E+02  0.7546771E-02  0.1528060E+00
          2   -1    0    0  503    0  0.00000000000E+00  0.00000000000E+00  0.11380964877E+04  0.11380964877E+04  0.00000000000E+00 0.  1.
         21   -1    0    0  501  502 -0.00000000000E+00 -0.00000000000E+00 -0.64415926136E+00  0.64415926136E+00  0.00000000000E+00 0.  1.
          2    1    1    2  501    0  0.17745914457E+02  0.10054542632E+02  0.94318973718E+03  0.94341024567E+03  0.00000000000E+00 0.  1.
         21    1    1    2  503  502 -0.17745914457E+02 -0.10054542632E+02  0.19426259130E+03  0.19533040134E+03  0.00000000000E+00 0.  1.
</event>
<event>
 4    1  0.2402120E+005  0.2407886E+02  0.7546771E-02  0.1479378E+00
          2   -1    0    0  503    0  0.00000000000E+00  0.00000000000E+00  0.23344306992E+04  0.23344306992E+04  0.00000000000E+00 0. -1.
         21   -1    0    0  501  502 -0.00000000000E+00 -0.00000000000E+00 -0.29302387518E+00  0.29302387518E+00  0.00000000000E+00 0. -1.
          2    1    1    2  501    0  0.11731633911E+02  0.21027605133E+02  0.16227979583E+04  0.16229765879E+04  0.00000000000E+00 0. -1.
         21    1    1    2  503  502 -0.11731633911E+02 -0.21027605133E+02  0.71133971704E+03  0.71174713519E+03  0.00000000000E+00 0. -1.
</event>
<event>
 4    1  0.2402120E+005  0.3015343E+02  0.7546771E-02  0.1418268E+00
          2   -1    0    0  503    0  0.00000000000E+00  0.00000000000E+00  0.23480194922E+03  0.23480194922E+03  0.00000000000E+00 0. -1.
         21   -1    0    0  501  502 -0.00000000000E+00 -0.00000000000E+00 -0.57873363275E+01  0.57873363275E+01  0.00000000000E+00 0.  1.
          2    1    1    2  501    0 -0.25832475158E+02  0.15553540345E+02  0.18370516143E+03  0.18616341136E+03  0.00000000000E+00 0. -1.
         21    1    1    2  503  502  0.25832475158E+02 -0.15553540345E+02  0.45309451456E+02  0.54425874190E+02  0.00000000000E+00 0.  1.
</event>
<event>
 4    1  0.2402120E+005  0.2191986E+02  0.7546771E-02  0.1506526E+00
          2   -1    0    0  502    0  0.00000000000E+00  0.00000000000E+00  0.75449216333E+03  0.75449216333E+03  0.00000000000E+00 0.  1.
         21   -1    0    0  503  502 -0.00000000000E+00 -0.00000000000E+00 -0.19265691305E+01  0.19265691305E+01  0.00000000000E+00 0.  1.
          2    1    1    2  501    0 -0.14841550078E+02 -0.16130990892E+02  0.68573354537E+03  0.68608379643E+03  0.00000000000E+00 0.  1.
         21    1    1    2  503  501  0.14841550078E+02  0.16130990892E+02  0.66832048826E+02  0.70334936028E+02  0.00000000000E+00 0.  1.
</event>
<event>
 4    1  0.2402120E+005  0.2391096E+02  0.7546771E-02  0.1481365E+00
          2   -1    0    0  502    0  0.00000000000E+00  0.00000000000E+00  0.61207288314E+02  0.61207288314E+02  0.00000000000E+00 0.  1.
         21   -1    0    0  503  502 -0.00000000000E+00 -0.00000000000E+00 -0.50532839796E+02  0.50532839796E+02  0.00000000000E+00 0. -1.
          2    1    1    2  501    0 -0.12527276168E+02 -0.20366669453E+02  0.55779910382E+02  0.60688815074E+02  0.00000000000E+00 0.  1.
         21    1    1    2  503  501  0.12527276168E+02  0.20366669453E+02 -0.45105461864E+02  0.51051313036E+02  0.00000000000E+00 0. -1.
</event>
<event>
 4    1  0.4202845E+005  0.2010870E+02  0.7546771E-02  0.1532381E+00
          2   -1    0    0  503    0  0.00000000000E+00  0.00000000000E+00  0.54549196929E+03  0.54549196929E+03  0.00000000000E+00 0. -1.
         21   -1    0    0  501  502 -0.00000000000E+00 -0.00000000000E+00 -0.39861384641E+02  0.39861384641E+02  0.00000000000E+00 0.  1.
          2    1    1    2  501    0 -0.19829316826E+02  0.33403648944E+01  0.54275784221E+03  0.54313021931E+03  0.00000000000E+00 0. -1.
         21    1    1    2  503  502  0.19829316826E+02 -0.33403648944E+01 -0.37127257561E+02  0.42223134623E+02  0.00000000000E+00 0.  1.
</event>
<event>
 4    1  0.2402120E+005  0.2953780E+02  0.7546771E-02  0.1423656E+00
          2   -1    0    0  502    0  0.00000000000E+00  0.00000000000E+00  0.11580528935E+04  0.11580528935E+04  0.00000000000E+00 0.  1.
         21   -1    0    0  503  502 -0.00000000000E+00 -0.00000000000E+00 -0.14537619010E+01  0.14537619010E+01  0.00000000000E+00 0.  1.
          2    1    1    2  501    0 -0.25690714255E+02  0.14576309792E+02  0.98069833640E+03  0.98114306226E+03  0.00000000000E+00 0.  1.
         21    1    1    2  503  501  0.25690714255E+02 -0.14576309792E+02  0.17590079521E+03  0.17836359315E+03  0.00000000000E+00 0.  1.
</event>
<event>
 4    1  0.2402120E+005  0.2006079E+02  0.7546771E-02  0.1533108E+00
          2   -1    0    0  503    0  0.00000000000E+00  0.00000000000E+00  0.85203110283E+01  0.85203110283E+01  0.00000000000E+00 0.  1.
         21   -1    0    0  501  502 -0.00000000000E+00 -0.00000000000E+00 -0.14472591927E+03  0.14472591927E+03  0.00000000000E+00 0. -1.
          2    1    1    2  501    0  0.15169869191E+02 -0.13126705762E+02 -0.52138512131E+01  0.20727266580E+02  0.00000000000E+00 0.  1.
         21    1    1    2  503  502 -0.15169869191E+02  0.13126705762E+02 -0.13099175703E+03  0.13251896372E+03  0.00000000000E+00 0. -1.
</event>
<event>
 4    1  0.2402120E+005  0.2683223E+02  0.7546771E-02  0.1449301E+00
          2   -1    0    0  503    0  0.00000000000E+00  0.00000000000E+00  0.86035226853E+03  0.86035226853E+03  0.00000000000E+00 0.  1.
         21   -1    0    0  501  502 -0.00000000000E+00 -0.00000000000E+00 -0.33216591898E+02  0.33216591898E+02  0.00000000000E+00 0. -1.
          2    1    1    2  501    0  0.24966075460E+02 -0.98317768393E+01  0.85468841743E+03  0.85510950156E+03  0.00000000000E+00 0.  1.
         21    1    1    2  503  502 -0.24966075460E+02  0.98317768393E+01 -0.27552740797E+02  0.38459358876E+02  0.00000000000E+00 0. -1.
</event>
<event>
 4    1  0.2402120E+005  0.2611796E+02  0.7546771E-02  0.1456675E+00
          2   -1    0    0  503    0  0.00000000000E+00  0.00000000000E+00  0.96972160797E+03  0.96972160797E+03  0.00000000000E+00 0.  1.
         21   -1    0    0  501  502 -0.00000000000E+00 -0.00000000000E+00 -0.16287942205E+01  0.16287942205E+01  0.00000000000E+00 0.  1.
          2    1    1    2  501    0  0.26081390969E+02 -0.13816284727E+01  0.85011726559E+03  0.85051837905E+03  0.00000000000E+00 0.  1.
         21    1    1    2  503  502 -0.26081390969E+02  0.13816284727E+01  0.11797554816E+03  0.12083202314E+03  0.00000000000E+00 0.  1.
</event>
<event>
 4    1  0.2402120E+005  0.3449227E+02  0.7546771E-02  0.1384168E+00
          2   -1    0    0  503    0  0.00000000000E+00  0.00000000000E+00  0.43121031763E+03  0.43121031763E+03  0.00000000000E+00 0.  1.
         21   -1    0    0  501  502 -0.00000000000E+00 -0.00000000000E+00 -0.24113506774E+03  0.24113506774E+03  0.00000000000E+00 0. -1.
          2    1    1    2  501    0 -0.13123555897E+02 -0.31898107573E+02  0.42928157525E+03  0.43066505295E+03  0.00000000000E+00 0.  1.
         21    1    1    2  503  502  0.13123555897E+02  0.31898107573E+02 -0.23920632536E+03  0.24168033242E+03  0.00000000000E+00 0. -1.
</event>
<event>
 4    1  0.2402120E+005  0.2045254E+02  0.7546771E-02  0.1527227E+00
          2   -1    0    0  502    0  0.00000000000E+00  0.00000000000E+00  0.65989829306E+02  0.65989829306E+02  0.00000000000E+00 0.  1.
         21   -1    0    0  503  502 -0.00000000000E+00 -0.00000000000E+00 -0.15565657972E+02  0.15565657972E+02  0.00000000000E+00 0.  1.
          2    1    1    2  501    0  0.20013063394E+02 -0.42170569439E+01  0.56607254317E+02  0.60188765704E+02  0.00000000000E+00 0.  1.
         21    1    1    2  503  501 -0.20013063394E+02  0.42170569439E+01 -0.61830829830E+01  0.21366721575E+02  0.00000000000E+00 0.  1.
</event>
<event>
 4    1  0.2402120E+005  0.2226595E+02  0.7546771E-02  0.1501927E+00
          2   -1    0    0  503    0  0.00000000000E+00  0.00000000000E+00  0.66868334441E+03  0.66868334441E+03  0.00000000000E+00 0. -1.
         21   -1    0    0  501  502 -0.00000000000E+00 -0.00000000000E+00 -0.77037930874E+02  0.77037930874E+02  0.00000000000E+00 0. -1.
          2    1    1    2  501    0 -0.13440816265E+01 -0.22225344001E+02  0.66688479430E+03  0.66725639850E+03  0.00000000000E+00 0. -1.
         21    1    1    2  503  502  0.13440816265E+01  0.22225344001E+02 -0.75239380762E+02  0.78464876785E+02  0.00000000000E+00 0. -1.
</event>
<event>
 4    1  0.6289168E+005  0.2025916E+02  0.7546771E-02  0.1530110E+00
          2   -1    0    0  503    0  0.00000000000E+00  0.00000000000E+00  0.57214128363E+03  0.57214128363E+03  0.00000000000E+00 0.  1.
         21   -1    0    0  501  502 -0.00000000000E+00 -0.00000000000E+00 -0.20643216368E+03  0.20643216368E+03  0.00000000000E+00 0. -1.
          2    1    1    2  501    0 -0.20195990284E+02 -0.15985605219E+01  0.57146429800E+03  0.57182329203E+03  0.00000000000E+00 0.  1.
         21    1    1    2  503  502  0.20195990284E+02  0.15985605219E+01 -0.20575517805E+03  0.20675015529E+03  0.00000000000E+00 0. -1.
</event>
<event>
 4    1  0.2402120E+005  0.2340435E+02  0.7546771E-02  0.1487482E+00
          2   -1    0    0  502    0  0.00000000000E+00  0.00000000000E+00  0.15073552944E+03  0.15073552944E+03  0.00000000000E+00 0.  1.
         21   -1    0    0  503  502 -0.00000000000E+00 -0.00000000000E+00 -0.56421864104E+01  0.56421864104E+01  0.00000000000E+00 0.  1.
          2    1    1    2  501    0 -0.22220099573E+02 -0.73505774358E+01  0.11919431339E+03  0.12147035918E+03  0.00000000000E+00 0.  1.
         21    1    1    2  503  501  0.22220099573E+02  0.73505774358E+01  0.25899029633E+02  0.34907356669E+02  0.00000000000E+00 0.  1.
</event>
<event>
 4    1  0.2402120E+005  0.2320927E+02  0.7546771E-02  0.1489887E+00
          2   -1    0    0  502    0  0.00000000000E+00  0.00000000000E+00  0.47537423838E+03  0.47537423838E+03  0.00000000000E+00 0.  1.
         21   -1    0    0  503  502 -0.00000000000E+00 -0.00000000000E+00 -0.72946667503E+01  0.72946667503E+01  0.00000000000E+00 0. -1.
          2    1    1    2  501    0  0.19943989128E+01  0.23123415937E+02  0.45583922226E+03  0.45642969507E+03  0.00000000000E+00 0.  1.
         21    1    1    2  503  501 -0.19943989128E+01 -0.23123415937E+02  0.12240349362E+02  0.26239210052E+02  0.00000000000E+00 0. -1.
</event>
<event>
 4    1  0.2402120E+005  0.3495344E+02  0.7546771E-02  0.1380891E+00
          2   -1    0    0  502    0  0.00000000000E+00  0.00000000000E+00  0.13519329051E+04  0.13519329051E+04  0.00000000000E+00 0. -1.
         21   -1    0    0  503  502 -0.00000000000E+00 -0.00000000000E+00 -0.11326749927E+02  0.11326749927E+02  0.00000000000E+00 0. -1.
          2    1    1    2  501    0  0.27172540762E+02 -0.21986266656E+02  0.13241759533E+04  0.13246371949E+04  0.00000000000E+00 0. -1.
         21    1    1    2  503  501 -0.27172540762E+02  0.21986266656E+02  0.16430201931E+02  0.38622460155E+02  0.00000000000E+00 0. -1.
</event>
<event>
 4    1  0.2402120E+005  0.2235414E+02  0.7546771E-02  0.1500771E+00
          2   -1    0    0  503    0  0.00000000000E+00  0.00000000000E+00  0.12187640905E+02  0.12187640905E+02  0.00000000000E+00 0.  1.
         21   -1    0    0  501  502 -0.00000000000E+00 -0.00000000000E+00 -0.87734696632E+03  0.87734696632E+03  0.00000000000E+00 0. -1.
          2    1    1    2  501    0 -0.68764312459E+01  0.21270219221E+02  0.16706133156E+01  0.22416477896E+02  0.00000000000E+00 0.  1.
         21    1    1    2  503  502  0.68764312459E+01 -0.21270219221E+02 -0.86682993873E+03  0.86711812933E+03  0.00000000000E+00 0. -1.
</event>
<event>
 4    1  0.2402120E+005  0.2982359E+02  0.7546771E-02  0.1421136E+00
          2   -1    0    0  503    0  0.00000000000E+00  0.00000000000E+00  0.81317500755E+03  0.81317500755E+03  0.00000000000E+00 0. -1.
         21   -1    0    0  501  502 -0.00000000000E+00 -0.00000000000E+00 -0.11993211784E+01  0.11993211784E+01  0.00000000000E+00 0. -1.
          2    1    1    2  501    0  0.51491686135E+01 -0.29375714702E+02  0.52677116064E+03  0.52761472898E+03  0.00000000000E+00 0. -1.
         21    1    1    2  503  502 -0.51491686135E+01  0.29375714702E+02  0.28520452573E+03  0.28675959975E+03  0.00000000000E+00 0. -1.
</event>
<event>
 4    1  0.2402120E+005  0.4243748E+02  0.7546771E-02  0.1334765E+00
          2   -1    0    0  502    0  0.00000000000E+00  0.00000000000E+00  0.14752278606E+04  0.14752278606E+04  0.00000000000E+00 0.  1.
         21   -1    0    0  503  502 -0.00000000000E+00 -0.00000000000E+00 -0.47033371163E+01  0.47033371163E+01  0.00000000000E+00 0. -1.
          2    1    1    2  501    0 -0.42339462073E+02  0.28826071933E+01  0.13719949453E+04  0.13726511099E+04  0.00000000000E+00 0.  1.
         21    1    1    2  503  501  0.42339462073E+02 -0.28826071933E+01  0.98529578162E+02  0.10728008783E+03  0.00000000000E+00 0. -1.
</event>
<event>
 4    1  0.2402120E+005  0.2343397E+02  0.7546771E-02  0.1487119E+00
          2   -1    0    0  502    0  0.00000000000E+00  0.00000000000E+00  0.11335865998E+04  0.11335865998E+04  0.00000000000E+00 0. -1.
         21   -1    0    0  503  502 -0.00000000000E+00 -0.00000000000E+00 -0.12297873696E+01  0.12297873696E+01  0.00000000000E+00 0. -1.
          2    1    1    2  501    0  0.19316534375E+02  0.13267349313E+02  0.10079124636E+04  0.10081848468E+04  0.00000000000E+00 0. -1.
         21    1    1    2  503  501 -0.19316534375E+02 -0.13267349313E+02  0.12444434887E+03  0.12663154040E+03  0.00000000000E+00 0. -1.
</event>
<event>
 4    1  0.2402120E+005  0.2312370E+02  0.7546771E-02  0.1490951E+00
          2   -1    0    0  503    0  0.00000000000E+00  0.00000000000E+00  0.95563210187E+01  0.95563210187E+01  0.00000000000E+00 0.  1.
         21   -1    0    0  501  502 -0.00000000000E+00 -0.00000000000E+00 -0.94084248138E+02  0.94084248138E+02  0.00000000000E+00 0.  1.
          2    1    1    2  501    0  0.22113428601E+02  0.67603055335E+01 -0.92740276241E+01  0.24914113345E+02  0.00000000000E+00 0.  1.
         21    1    1    2  503  502 -0.22113428601E+02 -0.67603055335E+01 -0.75253899495E+02  0.78726455812E+02  0.00000000000E+00 0.  1.
</event>
<event>
 4    1  0.2402120E+005  0.3021371E+02  0.7546771E-02  0.1417748E+00
          2   -1    0    0  502    0  0.00000000000E+00  0.00000000000E+00  0.44656237433E+03  0.44656237433E+03  0.00000000000E+00 0.  1.
         21   -1    0    0  503  502 -0.00000000000E+00 -0.00000000000E+00 -0.10193690319E+02  0.10193690319E+02  0.00000000000E+00 0. -1.
          2    1    1    2  501    0  0.13654323583E+02 -0.26952328033E+02  0.42238328558E+03  0.42346252311E+03  0.00000000000E+00 0.  1.
         21    1    1    2  503  501 -0.13654323583E+02  0.26952328033E+02  0.13985398426E+02  0.33293541536E+02  0.00000000000E+00 0. -1.
</event>
<event>
 4    1  0.2402120E+005  0.2276461E+02  0.7546771E-02  0.1495475E+00
          2   -1    0    0  502    0  0.00000000000E+00  0.00000000000E+00  0.33973871598E+01  0.33973871598E+01  0.00000000000E+00 0.  1.
         21   -1    0    0  503  502 -0.00000000000E+00 -0.00000000000E+00 -0.31670541505E+03  0.31670541505E+03  0.00000000000E+00 0.  1.
          2    1    1    2  501    0 -0.21223144445E+02 -0.82344204893E+01 -0.41421132064E+02  0.47264550377E+02  0.00000000000E+00 0.  1.
         21    1    1    2  503  501  0.21223144445E+02  0.82344204893E+01 -0.27188689582E+03  0.27283825183E+03  0.00000000000E+00 0.  1.
</event>
<event>
 4    1  0.2402120E+005  0.4778920E+02  0.7546771E-02  0.1308053E+00
          2   -1    0    0  503    0  0.00000000000E+00  0.00000000000E+00  0.17669100783E+04  0.17669100783E+04  0.00000000000E+00 0. -1.
         21   -1    0    0  501  502 -0.00000000000E+00 -0.00000000000E+00 -0.26610223449E+01  0.26610223449E+01  0.00000000000E+00 0. -1.
          2    1    1    2  501    0 -0.47398063550E+02 -0.61017099409E+01  0.15166263603E+04  0.15173790970E+04  0.00000000000E+00 0. -1.
         21    1    1    2  503  502  0.47398063550E+02  0.61017099409E+01  0.24762269562E+03  0.25219200360E+03  0.00000000000E+00 0. -1.
</event>
<event>
 4    1  0.2402120E+005  0.2568182E+02  0.7546771E-02  0.1461318E+00
          2   -1    0    0  502    0  0.00000000000E+00  0.00000000000E+00  0.12837038383E+04  0.12837038383E+04  0.00000000000E+00 0. -1.
         21   -1    0    0  503  502 -0.00000000000E+00 -0.00000000000E+00 -0.86587865206E+00  0.86587865206E+00  0.00000000000E+00 0. -1.
          2    1    1    2  501    0 -0.25560117602E+02  0.24972332020E+01  0.10509854711E+04  0.10512992039E+04  0.00000000000E+00 0. -1.
         21    1    1    2  503  501  0.25560117602E+02 -0.24972332020E+01  0.23185248863E+03  0.23327051307E+03  0.00000000000E+00 0. -1.
</event>
<event>
 4    1  0.2402120E+005  0.2762689E+02  0.7546771E-02  0.1441411E+00
          2   -1    0    0  502    0  0.00000000000E+00  0.00000000000E+00  0.61216341534E+03  0.61216341534E+03  0.00000000000E+00 0. -1.
         21   -1    0    0  503  502 -0.00000000000E+00 -0.00000000000E+00 -0.75961374269E+01  0.75961374269E+01  0.00000000000E+00 0.  1.
          2    1    1    2  501    0 -0.18430921769E+02  0.20580238746E+02  0.58559307829E+03  0.58624440164E+03  0.00000000000E+00 0. -1.
         21    1    1    2  503  501  0.18430921769E+02 -0.20580238746E+02  0.18974199619E+02  0.33515151130E+02  0.00000000000E+00 0.  1.
</event>
<event>
 4    1  0.2402120E+005  0.2685692E+02  0.7546771E-02  0.1449051E+00
          2   -1    0    0  502    0  0.00000000000E+00  0.00000000000E+00  0.50128022839E+03  0.50128022839E+03  0.00000000000E+00 0. -1.
         21   -1    0    0  503  502 -0.00000000000E+00 -0.00000000000E+00 -0.58945863719E+02  0.58945863719E+02  0.00000000000E+00 0. -1.
          2    1    1    2  501    0 -0.10828901202E+02  0.24576998341E+02  0.49784024250E+03  0.49856413931E+03  0.00000000000E+00 0. -1.
         21    1    1    2  503  501  0.10828901202E+02 -0.24576998341E+02 -0.55505877834E+02  0.61661952798E+02  0.00000000000E+00 0. -1.
</event>
<event>
 4    1  0.2402120E+005  0.2111122E+02  0.7546771E-02  0.1517683E+00
          2   -1    0    0  503    0  0.00000000000E+00  0.00000000000E+00  0.46401589043E+03  0.46401589043E+03  0.00000000000E+00 0.  1.
         21   -1    0    0  501  502 -0.00000000000E+00 -0.00000000000E+00 -0.18144478543E+02  0.18144478543E+02  0.00000000000E+00 0. -1.
          2    1    1    2  501    0 -0.11207124289E+02  0.17890892274E+02  0.45754824972E+03  0.45803502539E+03  0.00000000000E+00 0.  1.
         21    1    1    2  503  502  0.11207124289E+02 -0.17890892274E+02 -0.11676837834E+02  0.24125343583E+02  0.00000000000E+00 0. -1.
</event>
<event>
 4    1  0.2402120E+005  0.5512843E+02  0.7546771E-02  0.1277348E+00
          2   -1    0    0  503    0  0.00000000000E+00  0.00000000000E+00  0.97512404680E+02  0.97512404680E+02  0.00000000000E+00 0. -1.
         21   -1    0    0  501  502 -0.00000000000E+00 -0.00000000000E+00 -0.31178343126E+02  0.31178343126E+02  0.00000000000E+00 0. -1.
          2    1    1    2  501    0  0.51407111821E+02 -0.19911110306E+02  0.31925559550E+02  0.63705453550E+02  0.00000000000E+00 0. -1.
         21    1    1    2  503  502 -0.51407111821E+02  0.19911110306E+02  0.34408502004E+02  0.64985294256E+02  0.00000000000E+00 0. -1.
</event>
<event>
 4    1  0.2402120E+005  0.2124759E+02  0.7546771E-02  0.1515759E+00
          2   -1    0    0  502    0  0.00000000000E+00  0.00000000000E+00  0.29760330990E+03  0.29760330990E+03  0.00000000000E+00 0.  1.
         21   -1    0    0  503  502 -0.00000000000E+00 -0.00000000000E+00 -0.16190910098E+02  0.16190910098E+02  0.00000000000E+00 0. -1.
          2    1    1    2  501    0  0.16021862212E+02  0.13955643011E+02  0.29007243978E+03  0.29084958374E+03  0.00000000000E+00 0.  1.
         21    1    1    2  503  501 -0.16021862212E+02 -0.13955643011E+02 -0.86600399799E+01  0.22944636259E+02  0.00000000000E+00 0. -1.
</event>
<event>
 4    1  0.2402120E+005  0.2513813E+02  0.7546771E-02  0.1467264E+00
          2   -1    0    0  503    0  0.00000000000E+00  0.00000000000E+00  0.21691397167E+02  0.21691397167E+02  0.00000000000E+00 0.  1.
         21   -1    0    0  501  502 -0.00000000000E+00 -0.00000000000E+00 -0.33959994881E+02  0.33959994881E+02  0.00000000000E+00 0. -1.
          2    1    1    2  501    0  0.23844684471E+02 -0.79596762624E+01  0.43568123158E+01  0.25512883751E+02  0.00000000000E+00 0.  1.
         21    1    1    2  503  502 -0.23844684471E+02  0.79596762624E+01 -0.16625410030E+02  0.30138508297E+02  0.00000000000E+00 0. -1.
</event>
<event>
 4    1  0.2402120E+005  0.2061850E+02  0.7546771E-02  0.1524782E+00
          2   -1    0    0  503    0  0.00000000000E+00  0.00000000000E+00  0.12618964149E+03  0.12618964149E+03  0.00000000000E+00 0. -1.
         21   -1    0    0  501  502 -0.00000000000E+00 -0.00000000000E+00 -0.76376796088E+01  0.76376796088E+01  0.00000000000E+00 0.  1.
          2    1    1    2  501    0 -0.18697503655E+02  0.86905622639E+01  0.10930074368E+03  0.11122848145E+03  0.00000000000E+00 0. -1.
         21    1    1    2  503  502  0.18697503655E+02 -0.86905622639E+01  0.92512181966E+01  0.22598839650E+02  0.00000000000E+00 0.  1.
</event>
<event>
 4    1  0.2402120E+005  0.2208499E+02  0.7546771E-02  0.1504319E+00
          2   -1    0    0  503    0  0.00000000000E+00  0.00000000000E+00  0.87039787757E+02  0.87039787757E+02  0.00000000000E+00 0.  1.
         21   -1    0    0  501  502 -0.00000000000E+00 -0.00000000000E+00 -0.35068165817E+03  0.35068165817E+03  0.00000000000E+00 0.  1.
          2    1    1    2  501    0  0.76405463547E+01  0.20721220071E+02  0.85284101420E+02  0.88097246636E+02  0.00000000000E+00 0.  1.
         21    1    1    2  503  502 -0.76405463547E+01 -0.20721220071E+02 -0.34892597183E+03  0.34962419929E+03  0.00000000000E+00 0.  1.
</event>
<event>
 4    1  0.2402120E+005  0.2033510E+02  0.7546771E-02  0.1528973E+00
          2   -1    0    0  503    0  0.00000000000E+00  0.00000000000E+00  0.98093004605E+03  0.98093004605E+03  0.00000000000E+00 0. -1.
         21   -1    0    0  501  502 -0.00000000000E+00 -0.00000000000E+00 -0.53329361226E+00  0.53329361226E+00  0.00000000000E+00 0. -1.
          2    1    1    2  501    0 -0.16826135967E+02  0.11419177849E+02  0.71482515246E+03  0.71511433705E+03  0.00000000000E+00 0. -1.
         21    1    1    2  503  502  0.16826135967E+02 -0.11419177849E+02  0.26557159998E+03  0.26634900261E+03  0.00000000000E+00 0. -1.
</event>
<event>
 4    1  0.2402120E+005  0.2184189E+02  0.7546771E-02  0.1507576E+00
          2   -1    0    0  502    0  0.00000000000E+00  0.00000000000E+00  0.22116567872E+02  0.22116567872E+02  0.00000000000E+00 0. -1.
         21   -1    0    0  503  502 -0.00000000000E+00 -0.00000000000E+00 -0.27005499794E+02  0.27005499794E+02  0.00000000000E+00 0.  1.
          2    1    1    2  501    0 -0.37260275448E+00 -0.21838713510E+02  0.85738498841E+01  0.23464422908E+02  0.00000000000E+00 0. -1.
         21    1    1    2  503  501  0.37260275448E+00  0.21838713510E+02 -0.13462781805E+02  0.25657644758E+02  0.00000000000E+00 0.  1.
</event>
<event>
 4    1  0.2402120E+005  0.2095996E+02  0.7546771E-02  0.1519837E+00
          2   -1    0    0  502    0  0.00000000000E+00  0.00000000000E+00  0.21281301007E+02  0.21281301007E+02  0.00000000000E+00 0. -1.
         21   -1    0    0  503  502 -0.00000000000E+00 -0.00000000000E+00 -0.26778563633E+02  0.26778563633E+02  0.00000000000E+00 0. -1.
          2    1    1    2  501    0 -0.19540563248E+01  0.20868673064E+02  0.87532686172E+01  0.22714303051E+02  0.00000000000E+00 0. -1.
         21    1    1    2  503  501  0.19540563248E+01 -0.20868673064E+02 -0.14250531243E+02  0.25345561590E+02  0.00000000000E+00 0. -1.
</event>
<event>
 4    1  0.2402120E+005  0.2555386E+02  0.7546771E-02  0.1462702E+00
          2   -1    0    0  502    0  0.00000000000E+00  0.00000000000E+00  0.84749843125E+03  0.84749843125E+03  0.00000000000E+00 0. -1.
         21   -1    0    0  503  502 -0.00000000000E+00 -0.00000000000E+00 -0.24419127758E+01  0.24419127758E+01  0.00000000000E+00 0.  1.
          2    1    1    2  501    0  0.24017292193E+02  0.87275046907E+01  0.77411695943E+03  0.77453861527E+03  0.00000000000E+00 0. -1.
         21    1    1    2  503  501 -0.24017292193E+02 -0.87275046907E+01  0.70939559042E+02  0.75401728757E+02  0.00000000000E+00 0.  1.
</event>
<event>
 4    1  0.2402120E+005  0.2298660E+02  0.7546771E-02  0.1492666E+00
          2   -1    0    0  503    0  0.00000000000E+00  0.00000000000E+00  0.79813952171E+02  0.79813952171E+02  0.00000000000E+00 0. -1.
         21   -1    0    0  501  502 -0.00000000000E+00 -0.00000000000E+00 -0.10044116588E+02  0.10044116588E+02  0.00000000000E+00 0. -1.
          2    1    1    2  501    0 -0.12923637123E+02 -0.19009560728E+02  0.61117027612E+02  0.65296821207E+02  0.00000000000E+00 0. -1.
         21    1    1    2  503  502  0.12923637123E+02  0.19009560728E+02  0.86528079706E+01  0.24561247552E+02  0.00000000000E+00 0. -1.
</event>
<event>
 4    1  0.2402120E+005  0.3751509E+02  0.7546771E-02  0.1363696E+00
          2   -1    0    0  502    0  0.00000000000E+00  0.00000000000E+00  0.14818875190E+02  0.14818875190E+02  0.00000000000E+00 0.  1.
         21   -1    0    0  503  502 -0.00000000000E+00 -0.00000000000E+00 -0.16972611835E+03  0.16972611835E+03  0.00000000000E+00 0.  1.
          2    1    1    2  501    0 -0.11022225942E+02  0.35859341936E+02 -0.16216498652E+02  0.40869997520E+02  0.00000000000E+00 0.  1.
         21    1    1    2  503  501  0.11022225942E+02 -0.35859341936E+02 -0.13869074450E+03  0.14367499601E+03  0.00000000000E+00 0.  1.
</event>
<event>
 4    1  0.2402120E+005  0.3358235E+02  0.7546771E-02  0.1390813E+00
          2   -1    0    0  502    0  0.00000000000E+00  0.00000000000E+00  0.58102868939E+03  0.58102868939E+03  0.00000000000E+00 0. -1.
         21   -1    0    0  503  502 -0.00000000000E+00 -0.00000000000E+00 -0.29913741115E+01  0.29913741115E+01  0.00000000000E+00 0. -1.
          2    1    1    2  501    0  0.32718004844E+02  0.75701176462E+01  0.46205414507E+03  0.46327292981E+03  0.00000000000E+00 0. -1.
         21    1    1    2  503  501 -0.32718004844E+02 -0.75701176462E+01  0.11598317021E+03  0.12074713369E+03  0.00000000000E+00 0. -1.
</event>
<event>
 4    1  0.2402120E+005  0.2165480E+02  0.7546771E-02  0.1510118E+00
          2   -1    0    0  502    0  0.00000000000E+00  0.00000000000E+00  0.29672699562E+03  0.29672699562E+03  0.00000000000E+00 0.  1.
         21   -1    0    0  503  502 -0.00000000000E+00 -0.00000000000E+00 -0.22778901616E+01  0.22778901616E+01  0.00000000000E+00 0.  1.
          2    1    1    2  501    0 -0.95661381780E+01 -0.19427281644E+02  0.22995566329E+03  0.23097302299E+03  0.00000000000E+00 0.  1.
         21    1    1    2  503  501  0.95661381780E+01  0.19427281644E+02  0.64493442173E+02  0.68031862793E+02  0.00000000000E+00 0.  1.
</event>
<event>
 4    1  0.2402120E+005  0.3608320E+02  0.7546771E-02  0.1373104E+00
          2   -1    0    0  503    0  0.00000000000E+00  0.00000000000E+00  0.19703508184E+03  0.19703508184E+03  0.00000000000E+00 0. -1.
         21   -1    0    0  501  502 -0.00000000000E+00 -0.00000000000E+00 -0.80630741349E+01  0.80630741349E+01  0.00000000000E+00 0. -1.
          2    1    1    2  501    0 -0.30787898894E+02 -0.18817620281E+02  0.13805040737E+03  0.14268816533E+03  0.00000000000E+00 0. -1.
         21    1    1    2  503  502  0.30787898894E+02  0.18817620281E+02  0.50921600344E+02  0.62409990649E+02  0.00000000000E+00 0. -1.
</event>
<event>
 4    1  0.2402120E+005  0.3152488E+02  0.7546771E-02  0.1406792E+00
          2   -1    0    0  502    0  0.00000000000E+00  0.00000000000E+00  0.93501332646E+02  0.93501332646E+02  0.00000000000E+00 0. -1.
         21   -1    0    0  503  502 -0.00000000000E+00 -0.00000000000E+00 -0.29944557847E+02  0.29944557847E+02  0.00000000000E+00 0.  1.
          2    1    1    2  501    0  0.26417361630E+02  0.17202940387E+02  0.81351046993E+02  0.87245693305E+02  0.00000000000E+00 0. -1.
         21    1    1    2  503  501 -0.26417361630E+02 -0.17202940387E+02 -0.17794272194E+02  0.36200197187E+02  0.00000000000E+00 0.  1.
</event>
<event>
 4    1  0.2402120E+005  0.2195254E+02  0.7546771E-02  0.1506087E+00
          2   -1    0    0  503    0  0.00000000000E+00  0.00000000000E+00  0.34249214514E+02  0.34249214514E+02  0.00000000000E+00 0.  1.
         21   -1    0    0  501  502 -0.00000000000E+00 -0.00000000000E+00 -0.22686357088E+02  0.22686357088E+02  0.00000000000E+00 0.  1.
          2    1    1    2  501    0 -0.10278463581E+02 -0.19397611928E+02  0.23324788024E+02  0.32030608774E+02  0.00000000000E+00 0.  1.
         21    1    1    2  503  502  0.10278463581E+02  0.19397611928E+02 -0.11761930597E+02  0.24904962828E+02  0.00000000000E+00 0.  1.
</event>
<event>
 4    1  0.2402120E+005  0.2381121E+02  0.7546771E-02  0.1482555E+00
          2   -1    0    0  503    0  0.00000000000E+00  0.00000000000E+00  0.16234329132E+04  0.16234329132E+04  0.00000000000E+00 0.  1.
         21   -1    0    0  501  502 -0.00000000000E+00 -0.00000000000E+00 -0.18637021427E+02  0.18637021427E+02  0.00000000000E+00 0.  1.
          2    1    1    2  501    0 -0.22066005292E+02  0.89479171495E+01  0.16157037436E+04  0.16158791913E+04  0.00000000000E+00 0.  1.
         21    1    1    2  503  502  0.22066005292E+02 -0.89479171495E+01 -0.10907851738E+02  0.26190743410E+02  0.00000000000E+00 0.  1.
</event>
<event>
 4    1  0.2402120E+005  0.5508903E+02  0.7546771E-02  0.1277498E+00
          2   -1    0    0  503    0  0.00000000000E+00  0.00000000000E+00  0.29678878830E+03  0.29678878830E+03  0.00000000000E+00 0. -1.
         21   -1    0    0  501  502 -0.00000000000E+00 -0.00000000000E+00 -0.20760027870E+02  0.20760027870E+02  0.00000000000E+00 0. -1.
          2    1    1    2  501    0 -0.44703020929E+02 -0.32193805067E+02  0.25111759490E+03  0.25708918226E+03  0.00000000000E+00 0. -1.
         21    1    1    2  503  502  0.44703020929E+02  0.32193805067E+02  0.24911165530E+02  0.60459633913E+02  0.00000000000E+00 0. -1.
</event>
<event>
 4    1  0.2402120E+005  0.2045385E+02  0.7546771E-02  0.1527207E+00
          2   -1    0    0  503    0  0.00000000000E+00  0.00000000000E+00  0.14264519634E+02  0.14264519634E+02  0.00000000000E+00 0. -1.
         21   -1    0    0  501  502 -0.00000000000E+00 -0.00000000000E+00 -0.55907246736E+02  0.55907246736E+02  0.00000000000E+00 0. -1.
          2    1    1    2  501    0  0.50819009567E+01 -0.19812477381E+02  0.33701969664E+01  0.20729645557E+02  0.00000000000E+00 0. -1.
         21    1    1    2  503  502 -0.50819009567E+01  0.19812477381E+02 -0.45012924068E+02  0.49442120813E+02  0.00000000000E+00 0. -1.
</event>
<event>
 4    1  0.2402120E+005  0.2395376E+02  0.7546771E-02  0.1480857E+00
          2   -1    0    0  502    0  0.00000000000E+00  0.00000000000E+00  0.42018296227E+02  0.42018296227E+02  0.00000000000E+00 0.  1.
         21   -1    0    0  503  502 -0.00000000000E+00 -0.00000000000E+00 -0.23494782259E+02  0.23494782259E+02  0.00000000000E+00 0.  1.
          2    1    1    2  501    0 -0.12936437558E+02 -0.20160140528E+02  0.30459666967E+02  0.38750148317E+02  0.00000000000E+00 0.  1.
         21    1    1    2  503  501  0.12936437558E+02  0.20160140528E+02 -0.11936153000E+02  0.26762930169E+02  0.00000000000E+00 0.  1.
</event>
<event>
 4    1  0.2402120E+005  0.5204040E+02  0.7546771E-02  0.1289560E+00
          2   -1    0    0  503    0  0.00000000000E+00  0.00000000000E+00  0.94998049045E+03  0.94998049045E+03  0.00000000000E+00 0.  1.
         21   -1    0    0  501  502 -0.00000000000E+00 -0.00000000000E+00 -0.40019920715E+01  0.40019920715E+01  0.00000000000E+00 0.  1.
          2    1    1    2  501    0 -0.11167014918E+01  0.52028416260E+02  0.21716221395E+03  0.22331061392E+03  0.00000000000E+00 0.  1.
         21    1    1    2  503  502  0.11167014918E+01 -0.52028416260E+02  0.72881628443E+03  0.73067186861E+03  0.00000000000E+00 0.  1.
</event>
<event>
 4    1  0.2402120E+005  0.2446056E+02  0.7546771E-02  0.1474929E+00
          2   -1    0    0  502    0  0.00000000000E+00  0.00000000000E+00  0.16218949277E+04  0.16218949277E+04  0.00000000000E+00 0.  1.
         21   -1    0    0  503  502 -0.00000000000E+00 -0.00000000000E+00 -0.95915399059E+02  0.95915399059E+02  0.00000000000E+00 0.  1.
          2    1    1    2  501    0 -0.24338394797E+02 -0.24416692898E+01  0.16202416139E+04  0.16204262422E+04  0.00000000000E+00 0.  1.
         21    1    1    2  503  501  0.24338394797E+02  0.24416692898E+01 -0.94262085220E+02  0.97384084533E+02  0.00000000000E+00 0.  1.
</event>
<event>
 4    1  0.2402120E+005  0.2429699E+02  0.7546771E-02  0.1476824E+00
          2   -1    0    0  503    0  0.00000000000E+00  0.00000000000E+00  0.14474964883E+03  0.14474964883E+03  0.00000000000E+00 0.  1.
         21   -1    0    0  501  502 -0.00000000000E+00 -0.00000000000E+00 -0.53733981293E+01  0.53733981293E+01  0.00000000000E+00 0.  1.
          2    1    1    2  501    0 -0.62916169431E+01  0.23468265441E+02  0.32838679738E+02  0.40850003838E+02  0.00000000000E+00 0.  1.
         21    1    1    2  503  502  0.62916169431E+01 -0.23468265441E+02  0.10653757096E+03  0.10927304312E+03  0.00000000000E+00 0.  1.
</event>
<event>
 4    1  0.2402120E+005  0.2060626E+02  0.7546771E-02  0.1524961E+00
          2   -1    0    0  502    0  0.00000000000E+00  0.00000000000E+00  0.55373943856E+03  0.55373943856E+03  0.00000000000E+00 0.  1.
         21   -1    0    0  503  502 -0.00000000000E+00 -0.00000000000E+00 -0.19835812951E+03  0.19835812951E+03  0.00000000000E+00 0. -1.
          2    1    1    2  501    0 -0.19677665663E+02 -0.61161745533E+01  0.55301186386E+03  0.55339564480E+03  0.00000000000E+00 0.  1.
         21    1    1    2  503  501  0.19677665663E+02  0.61161745533E+01 -0.19763055481E+03  0.19870192327E+03  0.00000000000E+00 0. -1.
</event>
<event>
 4    1  0.2402120E+005  0.5327070E+02  0.7546771E-02  0.1284582E+00
          2   -1    0    0  503    0  0.00000000000E+00  0.00000000000E+00  0.11034195341E+04  0.11034195341E+04  0.00000000000E+00 0. -1.
         21   -1    0    0  501  502 -0.00000000000E+00 -0.00000000000E+00 -0.28580237062E+01  0.28580237062E+01  0.00000000000E+00 0. -1.
          2    1    1    2  501    0 -0.52495263366E+02  0.90562269581E+01  0.72532926507E+03  0.72728282716E+03  0.00000000000E+00 0. -1.
         21    1    1    2  503  502  0.52495263366E+02 -0.90562269581E+01  0.37523224529E+03  0.37899473061E+03  0.00000000000E+00 0. -1.
</event>
<event>
 4    1  0.2402120E+005  0.2034031E+02  0.7546771E-02  0.1528895E+00
          2   -1    0    0  502    0  0.00000000000E+00  0.00000000000E+00  0.54705197326E+02  0.54705197326E+02  0.00000000000E+00 0.  1.
         21   -1    0    0  503  502 -0.00000000000E+00 -0.00000000000E+00 -0.14621626828E+04  0.14621626828E+04  0.00000000000E+00 0.  1.
          2    1    1    2  501    0  0.20117188595E+02 -0.30044881940E+01  0.52741198121E+02  0.56527534932E+02  0.00000000000E+00 0.  1.
         21    1    1    2  503  501 -0.20117188595E+02  0.30044881940E+01 -0.14601986836E+04  0.14603403452E+04  0.00000000000E+00 0.  1.
</event>
<event>
 4    1  0.2402120E+005  0.2213442E+02  0.7546771E-02  0.1503663E+00
          2   -1    0    0  503    0  0.00000000000E+00  0.00000000000E+00  0.10161842545E+03  0.10161842545E+03  0.00000000000E+00 0.  1.
         21   -1    0    0  501  502 -0.00000000000E+00 -0.00000000000E+00 -0.54198515876E+01  0.54198515876E+01  0.00000000000E+00 0.  1.
          2    1    1    2  501    0 -0.12667056551E+02 -0.18151535872E+02  0.65884841802E+02  0.69503560740E+02  0.00000000000E+00 0.  1.
         21    1    1    2  503  502  0.12667056551E+02  0.18151535872E+02  0.30313732064E+02  0.37534716302E+02  0.00000000000E+00 0.  1.
</event>
<event>
 4    1  0.2402120E+005  0.2829240E+02  0.7546771E-02  0.1435041E+00
          2   -1    0    0  503    0  0.00000000000E+00  0.00000000000E+00  0.15999146363E+03  0.15999146363E+03  0.00000000000E+00 0. -1.
         21   -1    0    0  501  502 -0.00000000000E+00 -0.00000000000E+00 -0.16293885909E+02  0.16293885909E+02  0.00000000000E+00 0. -1.
          2    1    1    2  501    0 -0.10837217910E+02 -0.26134545299E+02  0.14522160698E+03  0.14795193437E+03  0.00000000000E+00 0. -1.
         21    1    1    2  503  502  0.10837217910E+02  0.26134545299E+02 -0.15240292581E+01  0.28333415170E+02  0.00000000000E+00 0. -1.
</event>
<event>
 4    1  0.2402120E+005  0.2825501E+02  0.7546771E-02  0.1435393E+00
          2   -1    0    0  503    0  0.00000000000E+00  0.00000000000E+00  0.56706940166E+02  0.56706940166E+02  0.00000000000E+00 0.  1.
         21   -1    0    0  501  502 -0.00000000000E+00 -0.00000000000E+00 -0.15450545115E+02  0.15450545115E+02  0.00000000000E+00 0.  1.
          2    1    1    2  501    0 -0.14146774184E+02  0.24458419639E+02  0.31379781884E+02  0.42226013571E+02  0.00000000000E+00 0.  1.
         21    1    1    2  503  502  0.14146774184E+02 -0.24458419639E+02  0.98766131668E+01  0.29931471709E+02  0.00000000000E+00 0.  1.
</event>
<event>
 4    1  0.2402120E+005  0.2262358E+02  0.7546771E-02  0.1497280E+00
          2   -1    0    0  503    0  0.00000000000E+00  0.00000000000E+00  0.16606784636E+02  0.16606784636E+02  0.00000000000E+00 0.  1.
         21   -1    0    0  501  502 -0.00000000000E+00 -0.00000000000E+00 -0.33520397053E+02  0.33520397053E+02  0.00000000000E+00 0.  1.
          2    1    1    2  501    0  0.24238816518E+01  0.22493356698E+02 -0.15570208486E+02  0.27463752294E+02  0.00000000000E+00 0.  1.
         21    1    1    2  503  502 -0.24238816518E+01 -0.22493356698E+02 -0.13434039312E+01  0.22663429395E+02  0.00000000000E+00 0.  1.
</event>
<event>
 4    1  0.2402120E+005  0.3898135E+02  0.7546771E-02  0.1354561E+00
          2   -1    0    0  503    0  0.00000000000E+00  0.00000000000E+00  0.32130530711E+03  0.32130530711E+03  0.00000000000E+00 0. -1.
         21   -1    0    0  501  502 -0.00000000000E+00 -0.00000000000E+00 -0.24302273998E+02  0.24302273998E+02  0.00000000000E+00 0. -1.
          2    1    1    2  501    0 -0.36181927937E+02  0.14505655978E+02  0.30358242241E+03  0.30607488162E+03  0.00000000000E+00 0. -1.
         21    1    1    2  503  502  0.36181927937E+02 -0.14505655978E+02 -0.65793893022E+01  0.39532699480E+02  0.00000000000E+00 0. -1.
</event>
<event>
 4    1  0.2402120E+005  0.2287266E+02  0.7546771E-02  0.1494103E+00
          2   -1    0    0  502    0  0.00000000000E+00  0.00000000000E+00  0.76881982497E+03  0.76881982497E+03  0.00000000000E+00 0.  1.
         21   -1    0    0  503  502 -0.00000000000E+00 -0.00000000000E+00 -0.30568398503E+01  0.30568398503E+01  0.00000000000E+00 0. -1.
          2    1    1    2  501    0 -0.11831005684E+02  0.19575139538E+02  0.72316319329E+03  0.72352481845E+03  0.00000000000E+00 0.  1.
         21    1    1    2  503  501  0.11831005684E+02 -0.19575139538E+02  0.42599791824E+02  0.48351846365E+02  0.00000000000E+00 0. -1.
</event>
<event>
 4    1  0.2402120E+005  0.3138798E+02  0.7546771E-02  0.1407906E+00
          2   -1    0    0  503    0  0.00000000000E+00  0.00000000000E+00  0.72565805257E+02  0.72565805257E+02  0.00000000000E+00 0.  1.
         21   -1    0    0  501  502 -0.00000000000E+00 -0.00000000000E+00 -0.28795837762E+02  0.28795837762E+02  0.00000000000E+00 0. -1.
          2    1    1    2  501    0 -0.59955122832E+01 -0.30810048695E+02  0.58729562435E+02  0.66591041229E+02  0.00000000000E+00 0.  1.
         21    1    1    2  503  502  0.59955122832E+01  0.30810048695E+02 -0.14959594939E+02  0.34770601791E+02  0.00000000000E+00 0. -1.
</event>
<event>
 4    1  0.2402120E+005  0.3131392E+02  0.7546771E-02  0.1408512E+00
          2   -1    0    0  502    0  0.00000000000E+00  0.00000000000E+00  0.13676320352E+04  0.13676320352E+04  0.00000000000E+00 0.  1.
         21   -1    0    0  503  502 -0.00000000000E+00 -0.00000000000E+00 -0.10648620077E+01  0.10648620077E+01  0.00000000000E+00 0.  1.
          2    1    1    2  501    0  0.16750698389E+02  0.26457053987E+02  0.10744378533E+04  0.10748940702E+04  0.00000000000E+00 0.  1.
         21    1    1    2  503  501 -0.16750698389E+02 -0.26457053987E+02  0.29212931996E+03  0.29380282705E+03  0.00000000000E+00 0.  1.
</event>
<event>
 4    1  0.2402120E+005  0.2299439E+02  0.7546771E-02  0.1492569E+00
          2   -1    0    0  502    0  0.00000000000E+00  0.00000000000E+00  0.11333711286E+04  0.11333711286E+04  0.00000000000E+00 0. -1.
         21   -1    0    0  503  502 -0.00000000000E+00 -0.00000000000E+00 -0.23051572539E+01  0.23051572539E+01  0.00000000000E+00 0.  1.
          2    1    1    2  501    0  0.48553000614E+01  0.22475944787E+02  0.10726662871E+04  0.10729127204E+04  0.00000000000E+00 0. -1.
         21    1    1    2  503  501 -0.48553000614E+01 -0.22475944787E+02  0.58399684190E+02  0.62763565436E+02  0.00000000000E+00 0.  1.
</event>
<event>
 4    1  0.2402120E+005  0.2072661E+02  0.7546771E-02  0.1523204E+00
          2   -1    0    0  503    0  0.00000000000E+00  0.00000000000E+00  0.56571731068E+02  0.56571731068E+02  0.00000000000E+00 0. -1.
         21   -1    0    0  501  502 -0.00000000000E+00 -0.00000000000E+00 -0.31771091716E+03  0.31771091716E+03  0.00000000000E+00 0. -1.
          2    1    1    2  501    0 -0.17946533611E+02  0.10368904476E+02  0.54321727657E+02  0.58141571567E+02  0.00000000000E+00 0. -1.
         21    1    1    2  503  502  0.17946533611E+02 -0.10368904476E+02 -0.31546091375E+03  0.31614107666E+03  0.00000000000E+00 0. -1.
</event>
<event>
 4    1  0.2402120E+005  0.2748582E+02  0.7546771E-02  0.1442788E+00
          2   -1    0    0  503    0  0.00000000000E+00  0.00000000000E+00  0.17043094482E+03  0.17043094482E+03  0.00000000000E+00 0. -1.
         21   -1    0    0  501  502 -0.00000000000E+00 -0.00000000000E+00 -0.51159252283E+01  0.51159252283E+01  0.00000000000E+00 0. -1.
          2    1    1    2  501    0 -0.11084815241E+02  0.25151479321E+02  0.11473360332E+03  0.11797995496E+03  0.00000000000E+00 0. -1.
         21    1    1    2  503  502  0.11084815241E+02 -0.25151479321E+02  0.50581416269E+02  0.57566915088E+02  0.00000000000E+00 0. -1.
</event>
<event>
 4    1  0.2402120E+005  0.2215078E+02  0.7546771E-02  0.1503446E+00
          2   -1    0    0  502    0  0.00000000000E+00  0.00000000000E+00  0.72609010113E+03  0.72609010113E+03  0.00000000000E+00 0.  1.
         21   -1    0    0  503  502 -0.00000000000E+00 -0.00000000000E+00 -0.69507504515E+03  0.69507504515E+03  0.00000000000E+00 0. -1.
          2    1    1    2  501    0 -0.71865613117E+01 -0.20952572833E+02  0.72574460283E+03  0.72608256108E+03  0.00000000000E+00 0.  1.
         21    1    1    2  503  501  0.71865613117E+01  0.20952572833E+02 -0.69472954685E+03  0.69508258520E+03  0.00000000000E+00 0. -1.
</event>
<event>
 4    1  0.2402120E+005  0.4520576E+02  0.7546771E-02  0.1320414E+00
          2   -1    0    0  502    0  0.00000000000E+00  0.00000000000E+00  0.18640003619E+03  0.18640003619E+03  0.00000000000E+00 0.  1.
         21   -1    0    0  503  502 -0.00000000000E+00 -0.00000000000E+00 -0.43221751613E+02  0.43221751613E+02  0.00000000000E+00 0.  1.
          2    1    1    2  501    0 -0.36692193445E+02  0.26405375262E+02  0.17077588437E+03  0.17665775835E+03  0.00000000000E+00 0.  1.
         21    1    1    2  503  501  0.36692193445E+02 -0.26405375262E+02 -0.27597599787E+02  0.52964029459E+02  0.00000000000E+00 0.  1.
</event>
<event>
 4    1  0.2402120E+005  0.3843777E+02  0.7546771E-02  0.1357892E+00
          2   -1    0    0  502    0  0.00000000000E+00  0.00000000000E+00  0.77987722712E+03  0.77987722712E+03  0.00000000000E+00 0.  1.
         21   -1    0    0  503  502 -0.00000000000E+00 -0.00000000000E+00 -0.14046703917E+02  0.14046703917E+02  0.00000000000E+00 0. -1.
          2    1    1    2  501    0  0.38014862348E+02 -0.56861833021E+01  0.75213894484E+03  0.75312047827E+03  0.00000000000E+00 0.  1.
         21    1    1    2  503  501 -0.38014862348E+02  0.56861833021E+01  0.13691578365E+02  0.40803452771E+02  0.00000000000E+00 0. -1.
</event>
<event>
 4    1  0.2402120E+005  0.2357906E+02  0.7546771E-02  0.1485352E+00
          2   -1    0    0  502    0  0.00000000000E+00  0.00000000000E+00  0.19987399748E+02  0.19987399748E+02  0.00000000000E+00 0.  1.
         21   -1    0    0  503  502 -0.00000000000E+00 -0.00000000000E+00 -0.35494591004E+03  0.35494591004E+03  0.00000000000E+00 0.  1.
          2    1    1    2  501    0  0.19762768750E+02  0.12860993582E+02  0.12491931507E+02  0.26683712960E+02  0.00000000000E+00 0.  1.
         21    1    1    2  503  501 -0.19762768750E+02 -0.12860993582E+02 -0.34745044180E+03  0.34824959683E+03  0.00000000000E+00 0.  1.
</event>
<event>
 4    1  0.2402120E+005  0.2070759E+02  0.7546771E-02  0.1523481E+00
          2   -1    0    0  502    0  0.00000000000E+00  0.00000000000E+00  0.24703800045E+03  0.24703800045E+03  0.00000000000E+00 0. -1.
         21   -1    0    0  503  502 -0.00000000000E+00 -0.00000000000E+00 -0.15260066906E+02  0.15260066906E+02  0.00000000000E+00 0. -1.
          2    1    1    2  501    0  0.14447275905E+02  0.14835110961E+02  0.23935401198E+03  0.24024809541E+03  0.00000000000E+00 0. -1.
         21    1    1    2  503  501 -0.14447275905E+02 -0.14835110961E+02 -0.75760784359E+01  0.22049971944E+02  0.00000000000E+00 0. -1.
</event>
<event>
 4    1  0.2402120E+005  0.3220175E+02  0.7546771E-02  0.1401381E+00
          2   -1    0    0  502    0  0.00000000000E+00  0.00000000000E+00  0.33031846189E+02  0.33031846189E+02  0.00000000000E+00 0.  1.
         21   -1    0    0  503  502 -0.00000000000E+00 -0.00000000000E+00 -0.61394136471E+02  0.61394136471E+02  0.00000000000E+00 0. -1.
          2    1    1    2  501    0 -0.17576277232E+02  0.26981977665E+02  0.18823149265E+02  0.37299645955E+02  0.00000000000E+00 0.  1.
         21    1    1    2  503  501  0.17576277232E+02 -0.26981977665E+02 -0.47185439548E+02  0.57126336705E+02  0.00000000000E+00 0. -1.
</event>
<event>
 4    1  0.2402120E+005  0.2154682E+02  0.7546771E-02  0.1511599E+00
          2   -1    0    0  502    0  0.00000000000E+00  0.00000000000E+00  0.14594273139E+04  0.14594273139E+04  0.00000000000E+00 0.  1.
         21   -1    0    0  503  502 -0.00000000000E+00 -0.00000000000E+00 -0.16317671203E+01  0.16317671203E+01  0.00000000000E+00 0.  1.
          2    1    1    2  501    0  0.11833466768E+02  0.18006517522E+02  0.13843618450E+04  0.13845295170E+04  0.00000000000E+00 0.  1.
         21    1    1    2  503  501 -0.11833466768E+02 -0.18006517522E+02  0.73433701789E+02  0.76529564009E+02  0.00000000000E+00 0.  1.
</event>
<event>
 4    1  0.2402120E+005  0.4032587E+02  0.7546771E-02  0.1346587E+00
          2   -1    0    0  502    0  0.00000000000E+00  0.00000000000E+00  0.17079790155E+04  0.17079790155E+04  0.00000000000E+00 0. -1.
         21   -1    0    0  503  502 -0.00000000000E+00 -0.00000000000E+00 -0.41278028015E+02  0.41278028015E+02  0.00000000000E+00 0.  1.
          2    1    1    2  501    0  0.39160432294E+02  0.96247738754E+01  0.16978332246E+04  0.16983120544E+04  0.00000000000E+00 0. -1.
         21    1    1    2  503  501 -0.39160432294E+02 -0.96247738754E+01 -0.31132237076E+02  0.50944989105E+02  0.00000000000E+00 0.  1.
</event>
<event>
 4    1  0.2402120E+005  0.2161939E+02  0.7546771E-02  0.1510602E+00
          2   -1    0    0  503    0  0.00000000000E+00  0.00000000000E+00  0.61803259056E+01  0.61803259056E+01  0.00000000000E+00 0.  1.
         21   -1    0    0  501  502 -0.00000000000E+00 -0.00000000000E+00 -0.83224885360E+03  0.83224885360E+03  0.00000000000E+00 0. -1.
          2    1    1    2  501    0  0.12814167458E+02  0.17412501345E+02 -0.13320325936E+02  0.25393486838E+02  0.00000000000E+00 0.  1.
         21    1    1    2  503  502 -0.12814167458E+02 -0.17412501345E+02 -0.81274820176E+03  0.81303569267E+03  0.00000000000E+00 0. -1.
</event>
<event>
 4    1  0.2402120E+005  0.4170970E+02  0.7546771E-02  0.1338748E+00
          2   -1    0    0  503    0  0.00000000000E+00  0.00000000000E+00  0.95802179579E+02  0.95802179579E+02  0.00000000000E+00 0. -1.
         21   -1    0    0  501  502 -0.00000000000E+00 -0.00000000000E+00 -0.26706942534E+03  0.26706942534E+03  0.00000000000E+00 0.  1.
          2    1    1    2  501    0  0.36440948243E+02 -0.20291777101E+02  0.89525273491E+02  0.98764738244E+02  0.00000000000E+00 0. -1.
         21    1    1    2  503  502 -0.36440948243E+02  0.20291777101E+02 -0.26079251925E+03  0.26410686667E+03  0.00000000000E+00 0.  1.
</event>
<event>
 4    1  0.2402120E+005  0.2663766E+02  0.7546771E-02  0.1451282E+00
          2   -1    0    0  502    0  0.00000000000E+00  0.00000000000E+00  0.35256282043E+03  0.35256282043E+03  0.00000000000E+00 0.  1.
         21   -1    0    0  503  502 -0.00000000000E+00 -0.00000000000E+00 -0.70902329429E+01  0.70902329429E+01  0.00000000000E+00 0. -1.
          2    1    1    2  501    0 -0.24983869951E+02 -0.92396455726E+01  0.32491522671E+03  0.32600532105E+03  0.00000000000E+00 0.  1.
         21    1    1    2  503  501  0.24983869951E+02  0.92396455726E+01  0.20557360777E+02  0.33647732318E+02  0.00000000000E+00 0. -1.
</event>
<event>
 4    1  0.2402120E+005  0.2796014E+02  0.7546771E-02  0.1438195E+00
          2   -1    0    0  503    0  0.00000000000E+00  0.00000000000E+00  0.14168622767E+04  0.14168622767E+04  0.00000000000E+00 0. -1.
         21   -1    0    0  501  502 -0.00000000000E+00 -0.00000000000E+00 -0.40990147153E+01  0.40990147153E+01  0.00000000000E+00 0.  1.
          2    1    1    2  501    0  0.42718332506E+01 -0.27631880526E+02  0.13673164591E+04  0.13676023065E+04  0.00000000000E+00 0. -1.
         21    1    1    2  503  502 -0.42718332506E+01  0.27631880526E+02  0.45446802917E+02  0.53358984961E+02  0.00000000000E+00 0.  1.
</event>
<event>
 4    1  0.2402120E+005  0.2332858E+02  0.7546771E-02  0.1488413E+00
          2   -1    0    0  502    0  0.00000000000E+00  0.00000000000E+00  0.13954048089E+02  0.13954048089E+02  0.00000000000E+00 0.  1.
         21   -1    0    0  503  502 -0.00000000000E+00 -0.00000000000E+00 -0.54536285715E+02  0.54536285715E+02  0.00000000000E+00 0.  1.
          2    1    1    2  501    0  0.16863024041E+02 -0.16120213741E+02 -0.20136905337E+01  0.23415333020E+02  0.00000000000E+00 0.  1.
         21    1    1    2  503  501 -0.16863024041E+02  0.16120213741E+02 -0.38568547092E+02  0.45075000784E+02  0.00000000000E+00 0.  1.
</event>
<event>
 4    1  0.2402120E+005  0.2228561E+02  0.7546771E-02  0.1501669E+00
          2   -1    0    0  502    0  0.00000000000E+00  0.00000000000E+00  0.17979433133E+03  0.17979433133E+03  0.00000000000E+00 0.  1.
         21   -1    0    0  503  502 -0.00000000000E+00 -0.00000000000E+00 -0.11813710423E+02  0.11813710423E+02  0.00000000000E+00 0. -1.
          2    1    1    2  501    0  0.52523345611E+01 -0.21657830134E+02  0.16784905166E+03  0.16932203864E+03  0.00000000000E+00 0.  1.
         21    1    1    2  503  501 -0.52523345611E+01  0.21657830134E+02  0.13156924544E+00  0.22286003117E+02  0.00000000000E+00 0. -1.
</event>
<event>
 4    1  0.2402120E+005  0.2048573E+02  0.7546771E-02  0.1526735E+00
          2   -1    0    0  503    0  0.00000000000E+00  0.00000000000E+00  0.16967704970E+02  0.16967704970E+02  0.00000000000E+00 0.  1.
         21   -1    0    0  501  502 -0.00000000000E+00 -0.00000000000E+00 -0.25095838421E+02  0.25095838421E+02  0.00000000000E+00 0.  1.
          2    1    1    2  501    0  0.12971890088E+01 -0.20444619447E+02 -0.65923675164E+01  0.21520326976E+02  0.00000000000E+00 0.  1.
         21    1    1    2  503  502 -0.12971890088E+01  0.20444619447E+02 -0.15357659345E+01  0.20543216415E+02  0.00000000000E+00 0.  1.
</event>
<event>
 4    1  0.2402120E+005  0.2127971E+02  0.7546771E-02  0.1515309E+00
          2   -1    0    0  503    0  0.00000000000E+00  0.00000000000E+00  0.65212205167E+03  0.65212205167E+03  0.00000000000E+00 0.  1.
         21   -1    0    0  501  502 -0.00000000000E+00 -0.00000000000E+00 -0.87231166796E+02  0.87231166796E+02  0.00000000000E+00 0. -1.
          2    1    1    2  501    0  0.20924890073E+02 -0.38697719460E+01  0.65064773835E+03  0.65099562639E+03  0.00000000000E+00 0.  1.
         21    1    1    2  503  502 -0.20924890073E+02  0.38697719460E+01 -0.85756853475E+02  0.88357592076E+02  0.00000000000E+00 0. -1.
</event>
<event>
 4    1  0.2402120E+005  0.2032995E+02  0.7546771E-02  0.1529050E+00
          2   -1    0    0  503    0  0.00000000000E+00  0.00000000000E+00  0.46824322679E+01  0.46824322679E+01  0.00000000000E+00 0. -1.
         21   -1    0    0  501  502 -0.00000000000E+00 -0.00000000000E+00 -0.88340089737E+02  0.88340089737E+02  0.00000000000E+00 0. -1.
          2    1    1    2  501    0 -0.18537953013E+02  0.83457213308E+01 -0.40495908447E+02  0.45312529916E+02  0.00000000000E+00 0. -1.
         21    1    1    2  503  502  0.18537953013E+02 -0.83457213308E+01 -0.43161749022E+02  0.47709992088E+02  0.00000000000E+00 0. -1.
</event>
<event>
 4    1  0.2402120E+005  0.2555836E+02  0.7546771E-02  0.1462653E+00
          2   -1    0    0  503    0  0.00000000000E+00  0.00000000000E+00  0.58272841319E+03  0.58272841319E+03  0.00000000000E+00 0. -1.
         21   -1    0    0  501  502 -0.00000000000E+00 -0.00000000000E+00 -0.17354919955E+03  0.17354919955E+03  0.00000000000E+00 0. -1.
          2    1    1    2  501    0 -0.14532889278E+02 -0.21024386062E+02  0.58150520226E+03  0.58206660266E+03  0.00000000000E+00 0. -1.
         21    1    1    2  503  502  0.14532889278E+02  0.21024386062E+02 -0.17232598861E+03  0.17421101007E+03  0.00000000000E+00 0. -1.
</event>
<event>
 4    1  0.2402120E+005  0.5396510E+02  0.7546771E-02  0.1281839E+00
          2   -1    0    0  503    0  0.00000000000E+00  0.00000000000E+00  0.11453216495E+03  0.11453216495E+03  0.00000000000E+00 0. -1.
         21   -1    0    0  501  502 -0.00000000000E+00 -0.00000000000E+00 -0.25403914183E+03  0.25403914183E+03  0.00000000000E+00 0.  1.
          2    1    1    2  501    0  0.50768901890E+02  0.18296198019E+02  0.10506632990E+03  0.11811505382E+03  0.00000000000E+00 0. -1.
         21    1    1    2  503  502 -0.50768901890E+02 -0.18296198019E+02 -0.24457330678E+03  0.25045625296E+03  0.00000000000E+00 0.  1.
</event>
<event>
 4    1  0.2402120E+005  0.2009311E+02  0.7546771E-02  0.1532617E+00
          2   -1    0    0  502    0  0.00000000000E+00  0.00000000000E+00  0.16280881434E+03  0.16280881434E+03  0.00000000000E+00 0.  1.
         21   -1    0    0  503  502 -0.00000000000E+00 -0.00000000000E+00 -0.25186066859E+01  0.25186066859E+01  0.00000000000E+00 0.  1.
          2    1    1    2  501    0  0.16072054182E+02 -0.12059114482E+02  0.90406169509E+02  0.92612140959E+02  0.00000000000E+00 0.  1.
         21    1    1    2  503  501 -0.16072054182E+02  0.12059114482E+02  0.69884038145E+02  0.72715280066E+02  0.00000000000E+00 0.  1.
</event>
<event>
 4    1  0.2402120E+005  0.3443634E+02  0.7546771E-02  0.1384570E+00
          2   -1    0    0  502    0  0.00000000000E+00  0.00000000000E+00  0.84122799567E+03  0.84122799567E+03  0.00000000000E+00 0.  1.
         21   -1    0    0  503  502 -0.00000000000E+00 -0.00000000000E+00 -0.74806020976E+01  0.74806020976E+01  0.00000000000E+00 0. -1.
          2    1    1    2  501    0 -0.28254278778E+02 -0.19686475093E+02  0.79915907648E+03  0.79990067576E+03  0.00000000000E+00 0.  1.
         21    1    1    2  503  501  0.28254278778E+02  0.19686475093E+02  0.34588317093E+02  0.48807922002E+02  0.00000000000E+00 0. -1.
</event>
<event>
 4    1  0.2402120E+005  0.2343381E+02  0.7546771E-02  0.1487121E+00
          2   -1    0    0  503    0  0.00000000000E+00  0.00000000000E+00  0.27353232993E+03  0.27353232993E+03  0.00000000000E+00 0.  1.
         21   -1    0    0  501  502 -0.00000000000E+00 -0.00000000000E+00 -0.12602293666E+02  0.12602293666E+02  0.00000000000E+00 0.  1.
          2    1    1    2  501    0 -0.22864448341E+02  0.51342327290E+01  0.26164266417E+03  0.26268998279E+03  0.00000000000E+00 0.  1.
         21    1    1    2  503  502  0.22864448341E+02 -0.51342327290E+01 -0.71262791333E+00  0.23444640799E+02  0.00000000000E+00 0.  1.
</event>
<event>
 4    1  0.2402120E+005  0.2865801E+02  0.7546771E-02  0.1431628E+00
          2   -1    0    0  502    0  0.00000000000E+00  0.00000000000E+00  0.32331899351E+03  0.32331899351E+03  0.00000000000E+00 0.  1.
         21   -1    0    0  503  502 -0.00000000000E+00 -0.00000000000E+00 -0.17049649419E+02  0.17049649419E+02  0.00000000000E+00 0. -1.
          2    1    1    2  501    0  0.23552951601E+02 -0.16326059447E+02  0.31013042224E+03  0.31145169858E+03  0.00000000000E+00 0.  1.
         21    1    1    2  503  501 -0.23552951601E+02  0.16326059447E+02 -0.38610781518E+01  0.28916944352E+02  0.00000000000E+00 0. -1.
</event>
<event>
 4    1  0.2402120E+005  0.2170693E+02  0.7546771E-02  0.1509407E+00
          2   -1    0    0  502    0  0.00000000000E+00  0.00000000000E+00  0.17119200035E+04  0.17119200035E+04  0.00000000000E+00 0.  1.
         21   -1    0    0  503  502 -0.00000000000E+00 -0.00000000000E+00 -0.62201154438E+00  0.62201154438E+00  0.00000000000E+00 0.  1.
          2    1    1    2  501    0 -0.16022552097E+02 -0.14644742957E+02  0.14949907690E+04  0.14951483505E+04  0.00000000000E+00 0.  1.
         21    1    1    2  503  501  0.16022552097E+02  0.14644742957E+02  0.21630722298E+03  0.21739366455E+03  0.00000000000E+00 0.  1.
</event>
<event>
 4    1  0.2402120E+005  0.2438098E+02  0.7546771E-02  0.1475849E+00
          2   -1    0    0  503    0  0.00000000000E+00  0.00000000000E+00  0.83254439346E+03  0.83254439346E+03  0.00000000000E+00 0. -1.
         21   -1    0    0  501  502 -0.00000000000E+00 -0.00000000000E+00 -0.30916632825E+01  0.30916632825E+01  0.00000000000E+00 0. -1.
          2    1    1    2  501    0 -0.14226650962E+02  0.19799863893E+02  0.78113588541E+03  0.78151628498E+03  0.00000000000E+00 0. -1.
         21    1    1    2  503  502  0.14226650962E+02 -0.19799863893E+02  0.48316844770E+02  0.54119771768E+02  0.00000000000E+00 0. -1.
</event>
<event>
 4    1  0.2402120E+005  0.3700640E+02  0.7546771E-02  0.1366981E+00
          2   -1    0    0  502    0  0.00000000000E+00  0.00000000000E+00  0.14970184609E+04  0.14970184609E+04  0.00000000000E+00 0.  1.
         21   -1    0    0  503  502 -0.00000000000E+00 -0.00000000000E+00 -0.73071785730E+02  0.73071785730E+02  0.00000000000E+00 0. -1.
          2    1    1    2  501    0  0.19245159570E+02  0.31608502858E+02  0.14920889128E+04  0.14925477538E+04  0.00000000000E+00 0.  1.
         21    1    1    2  503  501 -0.19245159570E+02 -0.31608502858E+02 -0.68142237727E+02  0.77542492752E+02  0.00000000000E+00 0. -1.
</event>
<event>
 4    1  0.2402120E+005  0.2225486E+02  0.7546771E-02  0.1502073E+00
          2   -1    0    0  503    0  0.00000000000E+00  0.00000000000E+00  0.74343167555E+03  0.74343167555E+03  0.00000000000E+00 0. -1.
         21   -1    0    0  501  502 -0.00000000000E+00 -0.00000000000E+00 -0.21010904243E+02  0.21010904243E+02  0.00000000000E+00 0. -1.
          2    1    1    2  501    0  0.93778975148E+01  0.20182517006E+02  0.73732319448E+03  0.73765898088E+03  0.00000000000E+00 0. -1.
         21    1    1    2  503  502 -0.93778975148E+01 -0.20182517006E+02 -0.14902423171E+02  0.26783598915E+02  0.00000000000E+00 0. -1.
</event>
<event>
 4    1  0.2402120E+005  0.2341115E+02  0.7546771E-02  0.1487399E+00
          2   -1    0    0  503    0  0.00000000000E+00  0.00000000000E+00  0.19773319147E+01  0.19773319147E+01  0.00000000000E+00 0. -1.
         21   -1    0    0  501  502 -0.00000000000E+00 -0.00000000000E+00 -0.42028856463E+03  0.42028856463E+03  0.00000000000E+00 0. -1.
          2    1    1    2  501    0  0.23398718524E+02 -0.76281272921E+00 -0.85955487600E+02  0.89086630648E+02  0.00000000000E+00 0. -1.
         21    1    1    2  503  502 -0.23398718524E+02  0.76281272921E+00 -0.33235574511E+03  0.33317926589E+03  0.00000000000E+00 0. -1.
</event>
<event>
 4    1  0.2402120E+005  0.3012437E+02  0.7546771E-02  0.1418519E+00
          2   -1    0    0  503    0  0.00000000000E+00  0.00000000000E+00  0.82222492447E+03  0.82222492447E+03  0.00000000000E+00 0. -1.
         21   -1    0    0  501  502 -0.00000000000E+00 -0.00000000000E+00 -0.71059381588E+01  0.71059381588E+01  0.00000000000E+00 0.  1.
          2    1    1    2  501    0 -0.20934384716E+02  0.21661692949E+02  0.78866416308E+03  0.78923927901E+03  0.00000000000E+00 0. -1.
         21    1    1    2  503  502  0.20934384716E+02 -0.21661692949E+02  0.26454823229E+02  0.40091583617E+02  0.00000000000E+00 0.  1.
</event>
<event>
 4    1  0.2402120E+005  0.3089147E+02  0.7546771E-02  0.1412004E+00
          2   -1    0    0  503    0  0.00000000000E+00  0.00000000000E+00  0.12810394375E+04  0.12810394375E+04  0.00000000000E+00 0. -1.
         21   -1    0    0  501  502 -0.00000000000E+00 -0.00000000000E+00 -0.38987587932E+01  0.38987587932E+01  0.00000000000E+00 0.  1.
          2    1    1    2  501    0 -0.30662388869E+02 -0.37551186174E+01  0.12164111462E+04  0.12168033364E+04  0.00000000000E+00 0. -1.
         21    1    1    2  503  502  0.30662388869E+02  0.37551186174E+01  0.60729532522E+02  0.68134859854E+02  0.00000000000E+00 0.  1.
</event>
<event>
 4    1  0.2402120E+005  0.2035821E+02  0.7546771E-02  0.1528628E+00
          2   -1    0    0  502    0  0.00000000000E+00  0.00000000000E+00  0.11373712099E+04  0.11373712099E+04  0.00000000000E+00 0.  1.
         21   -1    0    0  503  502 -0.00000000000E+00 -0.00000000000E+00 -0.74614550116E+00  0.74614550116E+00  0.00000000000E+00 0.  1.
          2    1    1    2  501    0 -0.19827030594E+02 -0.46201290314E+01  0.97534862346E+03  0.97556106626E+03  0.00000000000E+00 0.  1.
         21    1    1    2  503  501  0.19827030594E+02  0.46201290314E+01  0.16127644090E+03  0.16255628909E+03  0.00000000000E+00 0.  1.
</event>
<event>
 4    1  0.2402120E+005  0.2406587E+02  0.7546771E-02  0.1479531E+00
          2   -1    0    0  502    0  0.00000000000E+00  0.00000000000E+00  0.12222348516E+04  0.12222348516E+04  0.00000000000E+00 0.  1.
         21   -1    0    0  503  502 -0.00000000000E+00 -0.00000000000E+00 -0.15173419284E+02  0.15173419284E+02  0.00000000000E+00 0. -1.
          2    1    1    2  501    0 -0.40835831717E+01 -0.23716880693E+02  0.12124973143E+04  0.12127361227E+04  0.00000000000E+00 0.  1.
         21    1    1    2  503  501  0.40835831717E+01  0.23716880693E+02 -0.54358820259E+01  0.24672148157E+02  0.00000000000E+00 0. -1.
</event>
<event>
 4    1  0.2402120E+005  0.2127238E+02  0.7546771E-02  0.1515411E+00
          2   -1    0    0  503    0  0.00000000000E+00  0.00000000000E+00  0.12436229454E+04  0.12436229454E+04  0.00000000000E+00 0.  1.
         21   -1    0    0  501  502 -0.00000000000E+00 -0.00000000000E+00 -0.94648191216E+01  0.94648191216E+01  0.00000000000E+00 0.  1.
          2    1    1    2  501    0  0.12948821532E+02  0.16877272808E+02  0.12314614130E+04  0.12316451299E+04  0.00000000000E+00 0.  1.
         21    1    1    2  503  502 -0.12948821532E+02 -0.16877272808E+02  0.26967132732E+01  0.21442634609E+02  0.00000000000E+00 0.  1.
</event>
<event>
 4    1  0.2402120E+005  0.2388805E+02  0.7546771E-02  0.1481638E+00
          2   -1    0    0  502    0  0.00000000000E+00  0.00000000000E+00  0.24154126241E+02  0.24154126241E+02  0.00000000000E+00 0. -1.
         21   -1    0    0  503  502 -0.00000000000E+00 -0.00000000000E+00 -0.28389876310E+02  0.28389876310E+02  0.00000000000E+00 0. -1.
          2    1    1    2  501    0  0.22011977892E+02  0.92796317403E+01  0.86453379000E+01  0.25404342215E+02  0.00000000000E+00 0. -1.
         21    1    1    2  503  501 -0.22011977892E+02 -0.92796317403E+01 -0.12881087969E+02  0.27139660337E+02  0.00000000000E+00 0. -1.
</event>
<event>
 4    1  0.2402120E+005  0.2408931E+02  0.7546771E-02  0.1479255E+00
          2   -1    0    0  503    0  0.00000000000E+00  0.00000000000E+00  0.18141587083E+03  0.18141587083E+03  0.00000000000E+00 0. -1.
         21   -1    0    0  501  502 -0.00000000000E+00 -0.00000000000E+00 -0.21734965897E+02  0.21734965897E+02  0.00000000000E+00 0.  1.
          2    1    1    2  501    0 -0.11075063046E+02  0.21392472696E+02  0.17364421658E+03  0.17530718428E+03  0.00000000000E+00 0. -1.
         21    1    1    2  503  502  0.11075063046E+02 -0.21392472696E+02 -0.13963311644E+02  0.27843652447E+02  0.00000000000E+00 0.  1.
</event>
<event>
 4    1  0.2402120E+005  0.2104603E+02  0.7546771E-02  0.1518609E+00
          2   -1    0    0  503    0  0.00000000000E+00  0.00000000000E+00  0.30401941735E+03  0.30401941735E+03  0.00000000000E+00 0.  1.
         21   -1    0    0  501  502 -0.00000000000E+00 -0.00000000000E+00 -0.22479131335E+01  0.22479131335E+01  0.00000000000E+00 0. -1.
          2    1    1    2  501    0 -0.74915204758E+01  0.19667545662E+02  0.24172307499E+03  0.24263754906E+03  0.00000000000E+00 0.  1.
         21    1    1    2  503  502  0.74915204758E+01 -0.19667545662E+02  0.60048429228E+02  0.63629781425E+02  0.00000000000E+00 0. -1.
</event>
<event>
 4    1  0.2402120E+005  0.3332640E+02  0.7546771E-02  0.1392727E+00
          2   -1    0    0  503    0  0.00000000000E+00  0.00000000000E+00  0.17126221527E+04  0.17126221527E+04  0.00000000000E+00 0.  1.
         21   -1    0    0  501  502 -0.00000000000E+00 -0.00000000000E+00 -0.65095049331E+00  0.65095049331E+00  0.00000000000E+00 0. -1.
          2    1    1    2  501    0 -0.26560517229E+02  0.20129281857E+02  0.80351153896E+03  0.80420236403E+03  0.00000000000E+00 0.  1.
         21    1    1    2  503  502  0.26560517229E+02 -0.20129281857E+02  0.90845966327E+03  0.90907073919E+03  0.00000000000E+00 0. -1.
</event>
<event>
 4    1  0.2402120E+005  0.2059977E+02  0.7546771E-02  0.1525056E+00
          2   -1    0    0  503    0  0.00000000000E+00  0.00000000000E+00  0.11728593626E+04  0.11728593626E+04  0.00000000000E+00 0. -1.
         21   -1    0    0  501  502 -0.00000000000E+00 -0.00000000000E+00 -0.39258473564E+00  0.39258473564E+00  0.00000000000E+00 0.  1.
          2    1    1    2  501    0 -0.41004125682E+01  0.20187549510E+02  0.75048211930E+03  0.75076478469E+03  0.00000000000E+00 0. -1.
         21    1    1    2  503  502  0.41004125682E+01 -0.20187549510E+02  0.42198465855E+03  0.42248716263E+03  0.00000000000E+00 0.  1.
</event>
<event>
 4    1  0.2402120E+005  0.2371760E+02  0.7546771E-02  0.1483679E+00
          2   -1    0    0  503    0  0.00000000000E+00  0.00000000000E+00  0.44073144267E+03  0.44073144267E+03  0.00000000000E+00 0.  1.
         21   -1    0    0  501  502 -0.00000000000E+00 -0.00000000000E+00 -0.31703359876E+01  0.31703359876E+01  0.00000000000E+00 0.  1.
          2    1    1    2  501    0 -0.11455071728E+02  0.20767910283E+02  0.39033159376E+03  0.39105150282E+03  0.00000000000E+00 0.  1.
         21    1    1    2  503  502  0.11455071728E+02 -0.20767910283E+02  0.47229512920E+02  0.52850275841E+02  0.00000000000E+00 0.  1.
</event>
<event>
 4    1  0.2402120E+005  0.4920014E+02  0.7546771E-02  0.1301678E+00
          2   -1    0    0  503    0  0.00000000000E+00  0.00000000000E+00  0.47953925898E+02  0.47953925898E+02  0.00000000000E+00 0.  1.
         21   -1    0    0  501  502 -0.00000000000E+00 -0.00000000000E+00 -0.14517866362E+03  0.14517866362E+03  0.00000000000E+00 0.  1.
          2    1    1    2  501    0 -0.49138774804E+02 -0.24564742686E+01  0.29379441164E+02  0.57304493874E+02  0.00000000000E+00 0.  1.
         21    1    1    2  503  502  0.49138774804E+02  0.24564742686E+01 -0.12660417889E+03  0.13582809565E+03  0.00000000000E+00 0.  1.
</event>
<event>
 4    1  0.2402120E+005  0.3633971E+02  0.7546771E-02  0.1371382E+00
          2   -1    0    0  503    0  0.00000000000E+00  0.00000000000E+00  0.31585653863E+03  0.31585653863E+03  0.00000000000E+00 0.  1.
         21   -1    0    0  501  502 -0.00000000000E+00 -0.00000000000E+00 -0.57397839302E+01  0.57397839302E+01  0.00000000000E+00 0.  1.
          2    1    1    2  501    0 -0.33858278328E+02 -0.13198175762E+02  0.23885676738E+03  0.24160531902E+03  0.00000000000E+00 0.  1.
         21    1    1    2  503  502  0.33858278328E+02  0.13198175762E+02  0.71259987320E+02  0.79991003542E+02  0.00000000000E+00 0.  1.
</event>
<event>
 4    1  0.2402120E+005  0.2009543E+02  0.7546771E-02  0.1532582E+00
          2   -1    0    0  503    0  0.00000000000E+00  0.00000000000E+00  0.95592872961E+01  0.95592872961E+01  0.00000000000E+00 0.  1.
         21   -1    0    0  501  502 -0.00000000000E+00 -0.00000000000E+00 -0.62916167085E+03  0.62916167085E+03  0.00000000000E+00 0.  1.
          2    1    1    2  501    0 -0.38939325850E+01 -0.19714549990E+02 -0.13485504020E+01  0.20140625126E+02  0.00000000000E+00 0.  1.
         21    1    1    2  503  502  0.38939325850E+01  0.19714549990E+02 -0.61825383315E+03  0.61858033302E+03  0.00000000000E+00 0.  1.
</event>
<event>
 4    1  0.2402120E+005  0.2354275E+02  0.7546771E-02  0.1485793E+00
          2   -1    0    0  502    0  0.00000000000E+00  0.00000000000E+00  0.19993616190E+04  0.19993616190E+04  0.00000000000E+00 0.  1.
         21   -1    0    0  503  502 -0.00000000000E+00 -0.00000000000E+00 -0.62143047384E+00  0.62143047384E+00  0.00000000000E+00 0.  1.
          2    1    1    2  501    0  0.38070914135E+00  0.23539673453E+02  0.17436095223E+04  0.17437684558E+04  0.00000000000E+00 0.  1.
         21    1    1    2  503  501 -0.38070914135E+00 -0.23539673453E+02  0.25513066624E+03  0.25621459369E+03  0.00000000000E+00 0.  1.
</event>
<event>
 4    1  0.2402120E+005  0.3623935E+02  0.7546771E-02  0.1372053E+00
          2   -1    0    0  502    0  0.00000000000E+00  0.00000000000E+00  0.90296778408E+03  0.90296778408E+03  0.00000000000E+00 0.  1.
         21   -1    0    0  503  502 -0.00000000000E+00 -0.00000000000E+00 -0.54051254688E+02  0.54051254688E+02  0.00000000000E+00 0. -1.
          2    1    1    2  501    0 -0.30838122751E+02 -0.19034192323E+02  0.89648599761E+03  0.89721816421E+03  0.00000000000E+00 0.  1.
         21    1    1    2  503  501  0.30838122751E+02  0.19034192323E+02 -0.47569468209E+02  0.59800874558E+02  0.00000000000E+00 0. -1.
</event>
<event>
 4    1  0.2402120E+005  0.2294420E+02  0.7546771E-02  0.1493200E+00
          2   -1    0    0  502    0  0.00000000000E+00  0.00000000000E+00  0.14739572171E+03  0.14739572171E+03  0.00000000000E+00 0. -1.
         21   -1    0    0  503  502 -0.00000000000E+00 -0.00000000000E+00 -0.43993780866E+01  0.43993780866E+01  0.00000000000E+00 0. -1.
          2    1    1    2  501    0  0.18557018919E+02  0.13493464104E+02  0.10442066353E+03  0.10691169953E+03  0.00000000000E+00 0. -1.
         21    1    1    2  503  501 -0.18557018919E+02 -0.13493464104E+02  0.38575680095E+02  0.44883400267E+02  0.00000000000E+00 0. -1.
</event>
<event>
 4    1  0.2402120E+005  0.2355930E+02  0.7546771E-02  0.1485592E+00
          2   -1    0    0  503    0  0.00000000000E+00  0.00000000000E+00  0.23652721692E+03  0.23652721692E+03  0.00000000000E+00 0.  1.
         21   -1    0    0  501  502 -0.00000000000E+00 -0.00000000000E+00 -0.23940805314E+01  0.23940805314E+01  0.00000000000E+00 0.  1.
          2    1    1    2  501    0  0.10977197318E+02 -0.20845660735E+02  0.10024743116E+03  0.10297857975E+03  0.00000000000E+00 0.  1.
         21    1    1    2  503  502 -0.10977197318E+02  0.20845660735E+02  0.13388570523E+03  0.13594271770E+03  0.00000000000E+00 0.  1.
</event>
<event>
 4    1  0.2402120E+005  0.2608211E+02  0.7546771E-02  0.1457053E+00
          2   -1    0    0  502    0  0.00000000000E+00  0.00000000000E+00  0.15105703508E+04  0.15105703508E+04  0.00000000000E+00 0.  1.
         21   -1    0    0  503  502 -0.00000000000E+00 -0.00000000000E+00 -0.21495687630E+03  0.21495687630E+03  0.00000000000E+00 0.  1.
          2    1    1    2  501    0  0.48222054906E+00  0.26077648808E+02  0.15096661133E+04  0.15098914034E+04  0.00000000000E+00 0.  1.
         21    1    1    2  503  501 -0.48222054906E+00 -0.26077648808E+02 -0.21405263880E+03  0.21563582374E+03  0.00000000000E+00 0.  1.
</event>
<event>
 4    1  0.2402120E+005  0.3392494E+02  0.7546771E-02  0.1388283E+00
          2   -1    0    0  502    0  0.00000000000E+00  0.00000000000E+00  0.21230059348E+03  0.21230059348E+03  0.00000000000E+00 0.  1.
         21   -1    0    0  503  502 -0.00000000000E+00 -0.00000000000E+00 -0.89707979331E+02  0.89707979331E+02  0.00000000000E+00 0.  1.
          2    1    1    2  501    0 -0.25292901240E+02  0.22609091325E+02  0.20766686769E+03  0.21041965165E+03  0.00000000000E+00 0.  1.
         21    1    1    2  503  501  0.25292901240E+02 -0.22609091325E+02 -0.85074253542E+02  0.91588921161E+02  0.00000000000E+00 0.  1.
</event>
<event>
 4    1  0.2402120E+005  0.2530998E+02  0.7546771E-02  0.1465365E+00
          2   -1    0    0  503    0  0.00000000000E+00  0.00000000000E+00  0.13725792248E+03  0.13725792248E+03  0.00000000000E+00 0. -1.
         21   -1    0    0  501  502 -0.00000000000E+00 -0.00000000000E+00 -0.67498393559E+01  0.67498393559E+01  0.00000000000E+00 0.  1.
          2    1    1    2  501    0  0.13471391944E+02  0.21427011606E+02  0.10525105622E+03  0.10825146679E+03  0.00000000000E+00 0. -1.
         21    1    1    2  503  502 -0.13471391944E+02 -0.21427011606E+02  0.25257026907E+02  0.35756295046E+02  0.00000000000E+00 0.  1.
</event>
<event>
 4    1  0.2402120E+005  0.3934355E+02  0.7546771E-02  0.1352376E+00
          2   -1    0    0  503    0  0.00000000000E+00  0.00000000000E+00  0.18111668131E+03  0.18111668131E+03  0.00000000000E+00 0.  1.
         21   -1    0    0  501  502 -0.00000000000E+00 -0.00000000000E+00 -0.15341614942E+02  0.15341614942E+02  0.00000000000E+00 0.  1.
          2    1    1    2  501    0 -0.34881477804E+02 -0.18198835849E+02  0.14826122249E+03  0.15339265046E+03  0.00000000000E+00 0.  1.
         21    1    1    2  503  502  0.34881477804E+02  0.18198835849E+02  0.17513843873E+02  0.43065645790E+02  0.00000000000E+00 0.  1.
</event>
<event>
 4    1  0.2402120E+005  0.2575052E+02  0.7546771E-02  0.1460580E+00
          2   -1    0    0  502    0  0.00000000000E+00  0.00000000000E+00  0.12658425163E+04  0.12658425163E+04  0.00000000000E+00 0.  1.
         21   -1    0    0  503  502 -0.00000000000E+00 -0.00000000000E+00 -0.12190662535E+01  0.12190662535E+01  0.00000000000E+00 0. -1.
          2    1    1    2  501    0 -0.25601633656E+02 -0.27650996234E+01  0.11107429369E+04  0.11110413860E+04  0.00000000000E+00 0.  1.
         21    1    1    2  503  501  0.25601633656E+02  0.27650996234E+01  0.15388051315E+03  0.15602019661E+03  0.00000000000E+00 0. -1.
</event>
<event>
 4    1  0.2402120E+005  0.2915403E+02  0.7546771E-02  0.1427093E+00
          2   -1    0    0  502    0  0.00000000000E+00  0.00000000000E+00  0.13507299673E+04  0.13507299673E+04  0.00000000000E+00 0. -1.
         21   -1    0    0  503  502 -0.00000000000E+00 -0.00000000000E+00 -0.10418763514E+01  0.10418763514E+01  0.00000000000E+00 0. -1.
          2    1    1    2  501    0 -0.27951082500E+02  0.82882153593E+01  0.11001873720E+04  0.11005735827E+04  0.00000000000E+00 0. -1.
         21    1    1    2  503  501  0.27951082500E+02 -0.82882153593E+01  0.24950071895E+03  0.25119826090E+03  0.00000000000E+00 0. -1.
</event>
<event>
 4    1  0.2402120E+005  0.2355350E+02  0.7546771E-02  0.1485662E+00
          2   -1    0    0  502    0  0.00000000000E+00  0.00000000000E+00  0.38220508961E+03  0.38220508961E+03  0.00000000000E+00 0. -1.
         21   -1    0    0  503  502 -0.00000000000E+00 -0.00000000000E+00 -0.56737502767E+01  0.56737502767E+01  0.00000000000E+00 0. -1.
          2    1    1    2  501    0  0.35696570789E+01  0.23281430843E+02  0.35556854413E+03  0.35634780349E+03  0.00000000000E+00 0. -1.
         21    1    1    2  503  501 -0.35696570789E+01 -0.23281430843E+02  0.20962795200E+02  0.31531036399E+02  0.00000000000E+00 0. -1.
</event>
<event>
 4    1  0.2402120E+005  0.2499492E+02  0.7546771E-02  0.1468860E+00
          2   -1    0    0  502    0  0.00000000000E+00  0.00000000000E+00  0.12141177939E+04  0.12141177939E+04  0.00000000000E+00 0. -1.
         21   -1    0    0  503  502 -0.00000000000E+00 -0.00000000000E+00 -0.47599930054E+02  0.47599930054E+02  0.00000000000E+00 0. -1.
          2    1    1    2  501    0  0.16814800422E+02  0.18493465798E+02  0.12106986537E+04  0.12109566366E+04  0.00000000000E+00 0. -1.
         21    1    1    2  503  501 -0.16814800422E+02 -0.18493465798E+02 -0.44180789860E+02  0.50761087292E+02  0.00000000000E+00 0. -1.
</event>
<event>
 4    1  0.2402120E+005  0.2103562E+02  0.7546771E-02  0.1518757E+00
          2   -1    0    0  502    0  0.00000000000E+00  0.00000000000E+00  0.49863961936E+03  0.49863961936E+03  0.00000000000E+00 0. -1.
         21   -1    0    0  503  502 -0.00000000000E+00 -0.00000000000E+00 -0.51951804872E+01  0.51951804872E+01  0.00000000000E+00 0.  1.
          2    1    1    2  501    0 -0.61880719154E+01 -0.20104852556E+02  0.47611733659E+03  0.47658180361E+03  0.00000000000E+00 0. -1.
         21    1    1    2  503  501  0.61880719154E+01  0.20104852556E+02  0.17327102278E+02  0.27252996233E+02  0.00000000000E+00 0.  1.
</event>
<event>
 4    1  0.2402120E+005  0.2271029E+02  0.7546771E-02  0.1496168E+00
          2   -1    0    0  502    0  0.00000000000E+00  0.00000000000E+00  0.18199044453E+03  0.18199044453E+03  0.00000000000E+00 0. -1.
         21   -1    0    0  503  502 -0.00000000000E+00 -0.00000000000E+00 -0.64220696724E+02  0.64220696724E+02  0.00000000000E+00 0. -1.
          2    1    1    2  501    0 -0.17225999688E+02  0.14799399182E+02  0.17924354998E+03  0.18067652723E+03  0.00000000000E+00 0. -1.
         21    1    1    2  503  501  0.17225999688E+02 -0.14799399182E+02 -0.61473802176E+02  0.65534614025E+02  0.00000000000E+00 0. -1.
</event>
<event>
 4    1  0.2402120E+005  0.2594905E+02  0.7546771E-02  0.1458461E+00
          2   -1    0    0  503    0  0.00000000000E+00  0.00000000000E+00  0.33654544428E+03  0.33654544428E+03  0.00000000000E+00 0.  1.
         21   -1    0    0  501  502 -0.00000000000E+00 -0.00000000000E+00 -0.34481370036E+01  0.34481370036E+01  0.00000000000E+00 0.  1.
          2    1    1    2  501    0  0.14358242070E+02  0.21614677953E+02  0.27668642607E+03  0.27790057896E+03  0.00000000000E+00 0.  1.
         21    1    1    2  503  502 -0.14358242070E+02 -0.21614677953E+02  0.56410881209E+02  0.62093002320E+02  0.00000000000E+00 0.  1.
</event>
<event>
 4    1  0.2402120E+005  0.2105925E+02  0.7546771E-02  0.1518420E+00
          2   -1    0    0  503    0  0.00000000000E+00  0.00000000000E+00  0.15525048408E+04  0.15525048408E+04  0.00000000000E+00 0.  1.
         21   -1    0    0  501  502 -0.00000000000E+00 -0.00000000000E+00 -0.77272840693E+01  0.77272840693E+01  0.00000000000E+00 0.  1.
          2    1    1    2  501    0 -0.11094644734E+01  0.21030006692E+02  0.15379493843E+04  0.15380935605E+04  0.00000000000E+00 0.  1.
         21    1    1    2  503  502  0.11094644734E+01 -0.21030006692E+02  0.68281723652E+01  0.22138564333E+02  0.00000000000E+00 0.  1.
</event>
<event>
 4    1  0.2402120E+005  0.3020294E+02  0.7546771E-02  0.1417841E+00
          2   -1    0    0  503    0  0.00000000000E+00  0.00000000000E+00  0.11656176613E+04  0.11656176613E+04  0.00000000000E+00 0.  1.
         21   -1    0    0  501  502 -0.00000000000E+00 -0.00000000000E+00 -0.29480090633E+01  0.29480090633E+01  0.00000000000E+00 0.  1.
          2    1    1    2  501    0 -0.13066177390E+02  0.27230363452E+02  0.10820932221E+04  0.10825146461E+04  0.00000000000E+00 0.  1.
         21    1    1    2  503  502  0.13066177390E+02 -0.27230363452E+02  0.80576430179E+02  0.86051024316E+02  0.00000000000E+00 0.  1.
</event>
<event>
 4    1  0.2402120E+005  0.2089245E+02  0.7546771E-02  0.1520806E+00
          2   -1    0    0  503    0  0.00000000000E+00  0.00000000000E+00  0.34690735237E+03  0.34690735237E+03  0.00000000000E+00 0.  1.
         21   -1    0    0  501  502 -0.00000000000E+00 -0.00000000000E+00 -0.43266930063E+01  0.43266930063E+01  0.00000000000E+00 0. -1.
          2    1    1    2  501    0 -0.20037743642E+02 -0.59146847600E+01  0.31918342816E+03  0.31986646507E+03  0.00000000000E+00 0.  1.
         21    1    1    2  503  502  0.20037743642E+02  0.59146847600E+01  0.23397231201E+02  0.31367580301E+02  0.00000000000E+00 0. -1.
</event>
<event>
 4    1  0.2402120E+005  0.2138786E+02  0.7546771E-02  0.1513799E+00
          2   -1    0    0  502    0  0.00000000000E+00  0.00000000000E+00  0.11398340157E+03  0.11398340157E+03  0.00000000000E+00 0.  1.
         21   -1    0    0  503  502 -0.00000000000E+00 -0.00000000000E+00 -0.32809561675E+02  0.32809561675E+02  0.00000000000E+00 0.  1.
          2    1    1    2  501    0 -0.42719854401E+01  0.20956873427E+02  0.10934815851E+03  0.11142019643E+03  0.00000000000E+00 0.  1.
         21    1    1    2  503  501  0.42719854401E+01 -0.20956873427E+02 -0.28174318608E+02  0.35372766819E+02  0.00000000000E+00 0.  1.
</event>
<event>
 4    1  0.2402120E+005  0.2318923E+02  0.7546771E-02  0.1490136E+00
          2   -1    0    0  502    0  0.00000000000E+00  0.00000000000E+00  0.36505913772E+02  0.36505913772E+02  0.00000000000E+00 0.  1.
         21   -1    0    0  503  502 -0.00000000000E+00 -0.00000000000E+00 -0.15636986633E+03  0.15636986633E+03  0.00000000000E+00 0.  1.
          2    1    1    2  501    0 -0.37780602052E+01 -0.22879397240E+02  0.31851302268E+02  0.39398553440E+02  0.00000000000E+00 0.  1.
         21    1    1    2  503  501  0.37780602052E+01  0.22879397240E+02 -0.15171525482E+03  0.15347722666E+03  0.00000000000E+00 0.  1.
</event>
<event>
 4    1  0.2402120E+005  0.2145594E+02  0.7546771E-02  0.1512854E+00
          2   -1    0    0  503    0  0.00000000000E+00  0.00000000000E+00  0.19556960628E+04  0.19556960628E+04  0.00000000000E+00 0. -1.
         21   -1    0    0  501  502 -0.00000000000E+00 -0.00000000000E+00 -0.31039866297E+00  0.31039866297E+00  0.00000000000E+00 0. -1.
          2    1    1    2  501    0 -0.68876286464E+01 -0.20320378799E+02  0.14584517038E+04  0.14586095192E+04  0.00000000000E+00 0. -1.
         21    1    1    2  503  502  0.68876286464E+01  0.20320378799E+02  0.49693396032E+03  0.49739694223E+03  0.00000000000E+00 0. -1.
</event>
<event>
 4    1  0.2402120E+005  0.2588486E+02  0.7546771E-02  0.1459143E+00
          2   -1    0    0  503    0  0.00000000000E+00  0.00000000000E+00  0.22134132087E+04  0.22134132087E+04  0.00000000000E+00 0. -1.
         21   -1    0    0  501  502 -0.00000000000E+00 -0.00000000000E+00 -0.45975965703E+00  0.45975965703E+00  0.00000000000E+00 0. -1.
          2    1    1    2  501    0  0.83781819282E+01 -0.24491465641E+02  0.17534309829E+04  0.17536220338E+04  0.00000000000E+00 0. -1.
         21    1    1    2  503  502 -0.83781819282E+01  0.24491465641E+02  0.45952246620E+03  0.46025093456E+03  0.00000000000E+00 0. -1.
</event>
<event>
 4    1  0.2402120E+005  0.3473440E+02  0.7546771E-02  0.1382440E+00
          2   -1    0    0  502    0  0.00000000000E+00  0.00000000000E+00  0.11360020042E+03  0.11360020042E+03  0.00000000000E+00 0.  1.
         21   -1    0    0  503  502 -0.00000000000E+00 -0.00000000000E+00 -0.22279374000E+02  0.22279374000E+02  0.00000000000E+00 0.  1.
          2    1    1    2  501    0  0.34353289752E+02  0.51312638856E+01  0.94808096515E+02  0.10097055784E+03  0.00000000000E+00 0.  1.
         21    1    1    2  503  501 -0.34353289752E+02 -0.51312638856E+01 -0.34872700944E+01  0.34909016580E+02  0.00000000000E+00 0.  1.
</event>
<event>
 4    1  0.2402120E+005  0.2255450E+02  0.7546771E-02  0.1498169E+00
          2   -1    0    0  503    0  0.00000000000E+00  0.00000000000E+00  0.15020905845E+02  0.15020905845E+02  0.00000000000E+00 0. -1.
         21   -1    0    0  501  502 -0.00000000000E+00 -0.00000000000E+00 -0.14127276732E+03  0.14127276732E+03  0.00000000000E+00 0. -1.
          2    1    1    2  501    0 -0.57698702070E+01 -0.21803990945E+02  0.50132644007E+01  0.23104939803E+02  0.00000000000E+00 0. -1.
         21    1    1    2  503  502  0.57698702070E+01  0.21803990945E+02 -0.13126512587E+03  0.13318873336E+03  0.00000000000E+00 0. -1.
</event>
<event>
 4    1  0.2402120E+005  0.2247175E+02  0.7546771E-02  0.1499240E+00
          2   -1    0    0  502    0  0.00000000000E+00  0.00000000000E+00  0.32688114021E+02  0.32688114021E+02  0.00000000000E+00 0. -1.
         21   -1    0    0  503  502 -0.00000000000E+00 -0.00000000000E+00 -0.86916652792E+02  0.86916652792E+02  0.00000000000E+00 0. -1.
          2    1    1    2  501    0 -0.18709580579E+02  0.12447133445E+02  0.27113724038E+02  0.35215530205E+02  0.00000000000E+00 0. -1.
         21    1    1    2  503  501  0.18709580579E+02 -0.12447133445E+02 -0.81342262808E+02  0.84389236608E+02  0.00000000000E+00 0. -1.
</event>
<event>
 4    1  0.2402120E+005  0.2551157E+02  0.7546771E-02  0.1463161E+00
          2   -1    0    0  503    0  0.00000000000E+00  0.00000000000E+00  0.17236073389E+04  0.17236073389E+04  0.00000000000E+00 0.  1.
         21   -1    0    0  501  502 -0.00000000000E+00 -0.00000000000E+00 -0.73883770014E+00  0.73883770014E+00  0.00000000000E+00 0. -1.
          2    1    1    2  501    0  0.15476692312E+02  0.20280832640E+02  0.14642913289E+04  0.14645135493E+04  0.00000000000E+00 0.  1.
         21    1    1    2  503  502 -0.15476692312E+02 -0.20280832640E+02  0.25857717226E+03  0.25983262726E+03  0.00000000000E+00 0. -1.
</event>
<event>
 4    1  0.2402120E+005  0.2360179E+02  0.7546771E-02  0.1485077E+00
          2   -1    0    0  503    0  0.00000000000E+00  0.00000000000E+00  0.11790965517E+03  0.11790965517E+03  0.00000000000E+00 0.  1.
         21   -1    0    0  501  502 -0.00000000000E+00 -0.00000000000E+00 -0.70961976345E+01  0.70961976345E+01  0.00000000000E+00 0. -1.
          2    1    1    2  501    0 -0.23527101799E+02 -0.18760967369E+01  0.91542108147E+02  0.94535717177E+02  0.00000000000E+00 0.  1.
         21    1    1    2  503  502  0.23527101799E+02  0.18760967369E+01  0.19271349393E+02  0.30470135633E+02  0.00000000000E+00 0. -1.
</event>
<event>
 4    1  0.2402120E+005  0.2181796E+02  0.7546771E-02  0.1507899E+00
          2   -1    0    0  503    0  0.00000000000E+00  0.00000000000E+00  0.18180313334E+04  0.18180313334E+04  0.00000000000E+00 0.  1.
         21   -1    0    0  501  502 -0.00000000000E+00 -0.00000000000E+00 -0.29049930295E+00  0.29049930295E+00  0.00000000000E+00 0. -1.
          2    1    1    2  501    0 -0.15194434225E+02 -0.15657352974E+02  0.11944596449E+04  0.11946588915E+04  0.00000000000E+00 0.  1.
         21    1    1    2  503  502  0.15194434225E+02  0.15657352974E+02  0.62328118915E+03  0.62366294125E+03  0.00000000000E+00 0. -1.
</event>
<event>
 4    1  0.2402120E+005  0.2400605E+02  0.7546771E-02  0.1480237E+00
          2   -1    0    0  503    0  0.00000000000E+00  0.00000000000E+00  0.56137998240E+02  0.56137998240E+02  0.00000000000E+00 0.  1.
         21   -1    0    0  501  502 -0.00000000000E+00 -0.00000000000E+00 -0.16154246889E+02  0.16154246889E+02  0.00000000000E+00 0.  1.
          2    1    1    2  501    0 -0.14456219536E+02 -0.19165282234E+02  0.41815458695E+02  0.48216417456E+02  0.00000000000E+00 0.  1.
         21    1    1    2  503  502  0.14456219536E+02  0.19165282234E+02 -0.18317073442E+01  0.24075827674E+02  0.00000000000E+00 0.  1.
</event>
<event>
 4    1  0.2402120E+005  0.2297244E+02  0.7546771E-02  0.1492845E+00
          2   -1    0    0  503    0  0.00000000000E+00  0.00000000000E+00  0.85594557444E+03  0.85594557444E+03  0.00000000000E+00 0.  1.
         21   -1    0    0  501  502 -0.00000000000E+00 -0.00000000000E+00 -0.87713926735E+02  0.87713926735E+02  0.00000000000E+00 0. -1.
          2    1    1    2  501    0  0.53153686834E+01 -0.22349045129E+02  0.85428438165E+03  0.85459320012E+03  0.00000000000E+00 0.  1.
         21    1    1    2  503  502 -0.53153686834E+01  0.22349045129E+02 -0.86052733949E+02  0.89066301049E+02  0.00000000000E+00 0. -1.
</event>
<event>
 4    1  0.2402120E+005  0.2783588E+02  0.7546771E-02  0.1439387E+00
          2   -1    0    0  503    0  0.00000000000E+00  0.00000000000E+00  0.91481787496E+03  0.91481787496E+03  0.00000000000E+00 0.  1.
         21   -1    0    0  501  502 -0.00000000000E+00 -0.00000000000E+00 -0.36810112360E+01  0.36810112360E+01  0.00000000000E+00 0. -1.
          2    1    1    2  501    0 -0.42598827749E+01 -0.27507995688E+02  0.85853317464E+03  0.85898431207E+03  0.00000000000E+00 0.  1.
         21    1    1    2  503  502  0.42598827749E+01  0.27507995688E+02  0.52603689088E+02  0.59514574128E+02  0.00000000000E+00 0. -1.
</event>
<event>
 4    1  0.2402120E+005  0.3009583E+02  0.7546771E-02  0.1418765E+00
          2   -1    0    0  502    0  0.00000000000E+00  0.00000000000E+00  0.11079446810E+03  0.11079446810E+03  0.00000000000E+00 0.  1.
         21   -1    0    0  503  502 -0.00000000000E+00 -0.00000000000E+00 -0.26595307681E+03  0.26595307681E+03  0.00000000000E+00 0. -1.
          2    1    1    2  501    0  0.29361219719E+02  0.66089062605E+01  0.10787666137E+03  0.11199612910E+03  0.00000000000E+00 0.  1.
         21    1    1    2  503  501 -0.29361219719E+02 -0.66089062605E+01 -0.26303527008E+03  0.26475141581E+03  0.00000000000E+00 0. -1.
</event>
<event>
 4    1  0.2402120E+005  0.2192329E+02  0.7546771E-02  0.1506480E+00
          2   -1    0    0  502    0  0.00000000000E+00  0.00000000000E+00  0.42980469115E+02  0.42980469115E+02  0.00000000000E+00 0. -1.
         21   -1    0    0  503  502 -0.00000000000E+00 -0.00000000000E+00 -0.14905787368E+02  0.14905787368E+02  0.00000000000E+00 0. -1.
          2    1    1    2  501    0  0.63648853721E+01 -0.20979014988E+02  0.28502690192E+02  0.35958784515E+02  0.00000000000E+00 0. -1.
         21    1    1    2  503  501 -0.63648853721E+01  0.20979014988E+02 -0.42800844532E+00  0.21927471967E+02  0.00000000000E+00 0. -1.
</event>
<event>
 4    1  0.2402120E+005  0.2531099E+02  0.7546771E-02  0.1465354E+00
          2   -1    0    0  503    0  0.00000000000E+00  0.00000000000E+00  0.18111179950E+01  0.18111179950E+01  0.00000000000E+00 0.  1.
         21   -1    0    0  501  502 -0.00000000000E+00 -0.00000000000E+00 -0.69766046084E+03  0.69766046084E+03  0.00000000000E+00 0.  1.
          2    1    1    2  501    0 -0.24637936834E+02 -0.57981385171E+01 -0.10236700846E+03  0.10544975468E+03  0.00000000000E+00 0.  1.
         21    1    1    2  503  502  0.24637936834E+02  0.57981385171E+01 -0.59348233439E+03  0.59402182415E+03  0.00000000000E+00 0.  1.
</event>
<event>
 4    1  0.2402120E+005  0.2352269E+02  0.7546771E-02  0.1486037E+00
          2   -1    0    0  502    0  0.00000000000E+00  0.00000000000E+00  0.45583870147E+01  0.45583870147E+01  0.00000000000E+00 0.  1.
         21   -1    0    0  503  502 -0.00000000000E+00 -0.00000000000E+00 -0.42329654184E+03  0.42329654184E+03  0.00000000000E+00 0. -1.
          2    1    1    2  501    0  0.17315015730E+02 -0.15921913770E+02 -0.28699733466E+02  0.37107840261E+02  0.00000000000E+00 0.  1.
         21    1    1    2  503  501 -0.17315015730E+02  0.15921913770E+02 -0.39003842136E+03  0.39074708859E+03  0.00000000000E+00 0. -1.
</event>
<event>
 4    1  0.2402120E+005  0.3346228E+02  0.7546771E-02  0.1391708E+00
          2   -1    0    0  502    0  0.00000000000E+00  0.00000000000E+00  0.55548532491E+03  0.55548532491E+03  0.00000000000E+00 0.  1.
         21   -1    0    0  503  502 -0.00000000000E+00 -0.00000000000E+00 -0.27971116312E+01  0.27971116312E+01  0.00000000000E+00 0.  1.
          2    1    1    2  501    0 -0.33271446687E+02 -0.35686043488E+01  0.42387834885E+03  0.42519710574E+03  0.00000000000E+00 0.  1.
         21    1    1    2  503  501  0.33271446687E+02  0.35686043488E+01  0.12880986443E+03  0.13308533081E+03  0.00000000000E+00 0.  1.
</event>
<event>
 4    1  0.2402120E+005  0.2095412E+02  0.7546771E-02  0.1519921E+00
          2   -1    0    0  503    0  0.00000000000E+00  0.00000000000E+00  0.17212958902E+04  0.17212958902E+04  0.00000000000E+00 0. -1.
         21   -1    0    0  501  502 -0.00000000000E+00 -0.00000000000E+00 -0.60059380582E+00  0.60059380582E+00  0.00000000000E+00 0. -1.
          2    1    1    2  501    0  0.39315424677E+01  0.20581983769E+02  0.15133530786E+04  0.15134981386E+04  0.00000000000E+00 0. -1.
         21    1    1    2  503  502 -0.39315424677E+01 -0.20581983769E+02  0.20734221784E+03  0.20839834544E+03  0.00000000000E+00 0. -1.
</event>
<event>
 4    1  0.2402120E+005  0.2148430E+02  0.7546771E-02  0.1512461E+00
          2   -1    0    0  502    0  0.00000000000E+00  0.00000000000E+00  0.77033301708E+02  0.77033301708E+02  0.00000000000E+00 0.  1.
         21   -1    0    0  503  502 -0.00000000000E+00 -0.00000000000E+00 -0.56659918145E+02  0.56659918145E+02  0.00000000000E+00 0.  1.
          2    1    1    2  501    0 -0.63007068822E+01  0.20539622095E+02  0.73399985866E+02  0.76479624137E+02  0.00000000000E+00 0.  1.
         21    1    1    2  503  501  0.63007068822E+01 -0.20539622095E+02 -0.53026602303E+02  0.57213595717E+02  0.00000000000E+00 0.  1.
</event>
<event>
 4    1  0.2402120E+005  0.2141462E+02  0.7546771E-02  0.1513427E+00
          2   -1    0    0  503    0  0.00000000000E+00  0.00000000000E+00  0.12227893911E+04  0.12227893911E+04  0.00000000000E+00 0.  1.
         21   -1    0    0  501  502 -0.00000000000E+00 -0.00000000000E+00 -0.74020517561E+00  0.74020517561E+00  0.00000000000E+00 0. -1.
          2    1    1    2  501    0  0.15632218873E+02  0.14636247119E+02  0.10407167706E+04  0.10409370694E+04  0.00000000000E+00 0.  1.
         21    1    1    2  503  502 -0.15632218873E+02 -0.14636247119E+02  0.18133241538E+03  0.18259252685E+03  0.00000000000E+00 0. -1.
</event>
<event>
 4    1  0.2402120E+005  0.2502477E+02  0.7546771E-02  0.1468526E+00
          2   -1    0    0  503    0  0.00000000000E+00  0.00000000000E+00  0.52719298772E+03  0.52719298772E+03  0.00000000000E+00 0. -1.
         21   -1    0    0  501  502 -0.00000000000E+00 -0.00000000000E+00 -0.12587329072E+02  0.12587329072E+02  0.00000000000E+00 0. -1.
          2    1    1    2  501    0  0.22052818699E+02  0.11828449636E+02  0.51414261207E+03  0.51475126476E+03  0.00000000000E+00 0. -1.
         21    1    1    2  503  502 -0.22052818699E+02 -0.11828449636E+02  0.46304658311E+00  0.25029052029E+02  0.00000000000E+00 0. -1.
</event>
<event>
 4    1  0.2402120E+005  0.2265343E+02  0.7546771E-02  0.1496896E+00
          2   -1    0    0  502    0  0.00000000000E+00  0.00000000000E+00  0.25854764833E+03  0.25854764833E+03  0.00000000000E+00 0. -1.
         21   -1    0    0  503  502 -0.00000000000E+00 -0.00000000000E+00 -0.17166537284E+03  0.17166537284E+03  0.00000000000E+00 0. -1.
          2    1    1    2  501    0  0.18940389223E+02  0.12427373900E+02  0.25730046842E+03  0.25829577816E+03  0.00000000000E+00 0. -1.
         21    1    1    2  503  501 -0.18940389223E+02 -0.12427373900E+02 -0.17041819293E+03  0.17191724302E+03  0.00000000000E+00 0. -1.
</event>
<event>
 4    1  0.2402120E+005  0.2584150E+02  0.7546771E-02  0.1459606E+00
          2   -1    0    0  503    0  0.00000000000E+00  0.00000000000E+00  0.41224245884E+03  0.41224245884E+03  0.00000000000E+00 0.  1.
         21   -1    0    0  501  502 -0.00000000000E+00 -0.00000000000E+00 -0.16394587357E+01  0.16394587357E+01  0.00000000000E+00 0.  1.
          2    1    1    2  501    0 -0.81292323104E+01  0.24529543533E+02  0.18268637285E+03  0.18450499654E+03  0.00000000000E+00 0.  1.
         21    1    1    2  503  502  0.81292323104E+01 -0.24529543533E+02  0.22791662726E+03  0.22937692104E+03  0.00000000000E+00 0.  1.
</event>
<event>
 4    1  0.2402120E+005  0.2373697E+02  0.7546771E-02  0.1483446E+00
          2   -1    0    0  502    0  0.00000000000E+00  0.00000000000E+00  0.16732133578E+01  0.16732133578E+01  0.00000000000E+00 0.  1.
         21   -1    0    0  503  502 -0.00000000000E+00 -0.00000000000E+00 -0.45105777126E+03  0.45105777126E+03  0.00000000000E+00 0.  1.
          2    1    1    2  501    0  0.17564686722E+02  0.15966385015E+02 -0.11073438271E+03  0.11324993238E+03  0.00000000000E+00 0.  1.
         21    1    1    2  503  501 -0.17564686722E+02 -0.15966385015E+02 -0.33865017519E+03  0.33948105224E+03  0.00000000000E+00 0.  1.
</event>
<event>
 4    1  0.2402120E+005  0.2789216E+02  0.7546771E-02  0.1438846E+00
          2   -1    0    0  502    0  0.00000000000E+00  0.00000000000E+00  0.67940631230E+02  0.67940631230E+02  0.00000000000E+00 0.  1.
         21   -1    0    0  503  502 -0.00000000000E+00 -0.00000000000E+00 -0.14999019891E+02  0.14999019891E+02  0.00000000000E+00 0.  1.
          2    1    1    2  501    0  0.21056488809E+02  0.18291984923E+02  0.46640901648E+02  0.54344697441E+02  0.00000000000E+00 0.  1.
         21    1    1    2  503  501 -0.21056488809E+02 -0.18291984923E+02  0.63007096915E+01  0.28594953681E+02  0.00000000000E+00 0.  1.
</event>
<event>
 4    1  0.2402120E+005  0.2875380E+02  0.7546771E-02  0.1430744E+00
          2   -1    0    0  502    0  0.00000000000E+00  0.00000000000E+00  0.96345111256E+03  0.96345111256E+03  0.00000000000E+00 0.  1.
         21   -1    0    0  503  502 -0.00000000000E+00 -0.00000000000E+00 -0.95326979214E+00  0.95326979214E+00  0.00000000000E+00 0. -1.
          2    1    1    2  501    0  0.18176389742E+02 -0.22280026634E+02  0.63357286733E+03  0.63422500656E+03  0.00000000000E+00 0.  1.
         21    1    1    2  503  501 -0.18176389742E+02  0.22280026634E+02  0.32892497544E+03  0.33017937579E+03  0.00000000000E+00 0. -1.
</event>
<event>
 4    1  0.2402120E+005  0.2190087E+02  0.7546771E-02  0.1506781E+00
          2   -1    0    0  503    0  0.00000000000E+00  0.00000000000E+00  0.16496619816E+03  0.16496619816E+03  0.00000000000E+00 0.  1.
         21   -1    0    0  501  502 -0.00000000000E+00 -0.00000000000E+00 -0.32275145304E+01  0.32275145304E+01  0.00000000000E+00 0.  1.
          2    1    1    2  501    0 -0.31255284336E+01  0.21676692447E+02  0.10734792295E+03  0.10955922821E+03  0.00000000000E+00 0.  1.
         21    1    1    2  503  502  0.31255284336E+01 -0.21676692447E+02  0.54390760676E+02  0.58634484481E+02  0.00000000000E+00 0.  1.
</event>
<event>
 4    1  0.2402120E+005  0.2658349E+02  0.7546771E-02  0.1451837E+00
          2   -1    0    0  503    0  0.00000000000E+00  0.00000000000E+00  0.25754818453E+03  0.25754818453E+03  0.00000000000E+00 0.  1.
         21   -1    0    0  501  502 -0.00000000000E+00 -0.00000000000E+00 -0.65173458182E+01  0.65173458182E+01  0.00000000000E+00 0. -1.
          2    1    1    2  501    0  0.24867623806E+02  0.93959134988E+01  0.22598079534E+03  0.22753901153E+03  0.00000000000E+00 0.  1.
         21    1    1    2  503  502 -0.24867623806E+02 -0.93959134988E+01  0.25050043370E+02  0.36526518819E+02  0.00000000000E+00 0. -1.
</event>
<event>
 4    1  0.2402120E+005  0.2974939E+02  0.7546771E-02  0.1421787E+00
          2   -1    0    0  503    0  0.00000000000E+00  0.00000000000E+00  0.42447839340E+02  0.42447839340E+02  0.00000000000E+00 0. -1.
         21   -1    0    0  501  502 -0.00000000000E+00 -0.00000000000E+00 -0.40532158089E+02  0.40532158089E+02  0.00000000000E+00 0. -1.
          2    1    1    2  501    0  0.29362471778E+02 -0.47824018327E+01  0.29870155244E+02  0.42157470162E+02  0.00000000000E+00 0. -1.
         21    1    1    2  503  502 -0.29362471778E+02  0.47824018327E+01 -0.27954473993E+02  0.40822527266E+02  0.00000000000E+00 0. -1.
</event>
<event>
 4    1  0.2402120E+005  0.2048214E+02  0.7546771E-02  0.1526789E+00
          2   -1    0    0  502    0  0.00000000000E+00  0.00000000000E+00  0.45187574445E+01  0.45187574445E+01  0.00000000000E+00 0.  1.
         21   -1    0    0  503  502 -0.00000000000E+00 -0.00000000000E+00 -0.15635616284E+03  0.15635616284E+03  0.00000000000E+00 0.  1.
          2    1    1    2  501    0 -0.56702399122E+01 -0.19681626904E+02 -0.24650802140E+02  0.32049650613E+02  0.00000000000E+00 0.  1.
         21    1    1    2  503  501  0.56702399122E+01  0.19681626904E+02 -0.12718660326E+03  0.12882526967E+03  0.00000000000E+00 0.  1.
</event>
<event>
 4    1  0.2402120E+005  0.2599896E+02  0.7546771E-02  0.1457931E+00
          2   -1    0    0  502    0  0.00000000000E+00  0.00000000000E+00  0.92904286855E+03  0.92904286855E+03  0.00000000000E+00 0.  1.
         21   -1    0    0  503  502 -0.00000000000E+00 -0.00000000000E+00 -0.53686639266E+02  0.53686639266E+02  0.00000000000E+00 0. -1.
          2    1    1    2  501    0  0.24815269162E+02 -0.77555457995E+01  0.92570197198E+03  0.92606699920E+03  0.00000000000E+00 0.  1.
         21    1    1    2  503  501 -0.24815269162E+02  0.77555457995E+01 -0.50345742702E+02  0.56662508614E+02  0.00000000000E+00 0. -1.
</event>
<event>
 4    1  0.2402120E+005  0.2157087E+02  0.7546771E-02  0.1511268E+00
          2   -1    0    0  503    0  0.00000000000E+00  0.00000000000E+00  0.18051438371E+02  0.18051438371E+02  0.00000000000E+00 0.  1.
         21   -1    0    0  501  502 -0.00000000000E+00 -0.00000000000E+00 -0.15793991951E+03  0.15793991951E+03  0.00000000000E+00 0. -1.
          2    1    1    2  501    0  0.21543919348E+02 -0.10779609560E+01  0.10551159608E+02  0.24013109540E+02  0.00000000000E+00 0.  1.
         21    1    1    2  503  502 -0.21543919348E+02  0.10779609560E+01 -0.15043964075E+03  0.15197824835E+03  0.00000000000E+00 0. -1.
</event>
<event>
 4    1  0.2402120E+005  0.2786039E+02  0.7546771E-02  0.1439152E+00
          2   -1    0    0  502    0  0.00000000000E+00  0.00000000000E+00  0.71991035026E+02  0.71991035026E+02  0.00000000000E+00 0.  1.
         21   -1    0    0  503  502 -0.00000000000E+00 -0.00000000000E+00 -0.23342116680E+03  0.23342116680E+03  0.00000000000E+00 0.  1.
          2    1    1    2  501    0  0.62861460691E+01 -0.27141952358E+02  0.68422529874E+02  0.73877221148E+02  0.00000000000E+00 0.  1.
         21    1    1    2  503  501 -0.62861460691E+01  0.27141952358E+02 -0.22985266165E+03  0.23153498068E+03  0.00000000000E+00 0.  1.
</event>
<event>
 4    1  0.2402120E+005  0.3838219E+02  0.7546771E-02  0.1358236E+00
          2   -1    0    0  502    0  0.00000000000E+00  0.00000000000E+00  0.19137601047E+04  0.19137601047E+04  0.00000000000E+00 0. -1.
         21   -1    0    0  503  502 -0.00000000000E+00 -0.00000000000E+00 -0.72764618505E+01  0.72764618505E+01  0.00000000000E+00 0.  1.
          2    1    1    2  501    0 -0.18431110706E+02 -0.33667291958E+02  0.18615327513E+04  0.18619284027E+04  0.00000000000E+00 0. -1.
         21    1    1    2  503  501  0.18431110706E+02  0.33667291958E+02  0.44950891538E+02  0.59108163901E+02  0.00000000000E+00 0.  1.
</event>
<event>
 4    1  0.2402120E+005  0.2004674E+02  0.7546771E-02  0.1533322E+00
          2   -1    0    0  502    0  0.00000000000E+00  0.00000000000E+00  0.67264793573E+02  0.67264793573E+02  0.00000000000E+00 0. -1.
         21   -1    0    0  503  502 -0.00000000000E+00 -0.00000000000E+00 -0.16966953217E+02  0.16966953217E+02  0.00000000000E+00 0. -1.
          2    1    1    2  501    0  0.16678681953E+02 -0.11121745675E+02  0.59048298734E+02  0.62358425589E+02  0.00000000000E+00 0. -1.
         21    1    1    2  503  501 -0.16678681953E+02  0.11121745675E+02 -0.87504583779E+01  0.21873321201E+02  0.00000000000E+00 0. -1.
</event>
<event>
 4    1  0.2402120E+005  0.3428439E+02  0.7546771E-02  0.1385665E+00
          2   -1    0    0  502    0  0.00000000000E+00  0.00000000000E+00  0.44614273717E+03  0.44614273717E+03  0.00000000000E+00 0. -1.
         21   -1    0    0  503  502 -0.00000000000E+00 -0.00000000000E+00 -0.63723404403E+01  0.63723404403E+01  0.00000000000E+00 0. -1.
          2    1    1    2  501    0 -0.28285646366E+02 -0.19373731024E+02  0.39316846816E+03  0.39466044088E+03  0.00000000000E+00 0. -1.
         21    1    1    2  503  501  0.28285646366E+02  0.19373731024E+02  0.46601928567E+02  0.57854636722E+02  0.00000000000E+00 0. -1.
</event>
<event>
 4    1  0.2402120E+005  0.2048757E+02  0.7546771E-02  0.1526708E+00
          2   -1    0    0  502    0  0.00000000000E+00  0.00000000000E+00  0.43270197223E+03  0.43270197223E+03  0.00000000000E+00 0.  1.
         21   -1    0    0  503  502 -0.00000000000E+00 -0.00000000000E+00 -0.18832986642E+01  0.18832986642E+01  0.00000000000E+00 0. -1.
          2    1    1    2  501    0  0.81095837023E+01  0.18814229429E+02  0.36672399954E+03  0.36729583773E+03  0.00000000000E+00 0.  1.
         21    1    1    2  503  501 -0.81095837023E+01 -0.18814229429E+02  0.64094674032E+02  0.67289433168E+02  0.00000000000E+00 0. -1.
</event>
<event>
 4    1  0.2402120E+005  0.4696967E+02  0.7546771E-02  0.1311874E+00
          2   -1    0    0  502    0  0.00000000000E+00  0.00000000000E+00  0.14808410883E+04  0.14808410883E+04  0.00000000000E+00 0.  1.
         21   -1    0    0  503  502 -0.00000000000E+00 -0.00000000000E+00 -0.29384616543E+02  0.29384616543E+02  0.00000000000E+00 0. -1.
          2    1    1    2  501    0  0.24431134864E+02  0.40115703079E+02  0.14614500623E+04  0.14622046486E+04  0.00000000000E+00 0.  1.
         21    1    1    2  503  501 -0.24431134864E+02 -0.40115703079E+02 -0.99935905439E+01  0.48021056176E+02  0.00000000000E+00 0. -1.
</event>
<event>
 4    1  0.2402120E+005  0.2736365E+02  0.7546771E-02  0.1443989E+00
          2   -1    0    0  503    0  0.00000000000E+00  0.00000000000E+00  0.58649000256E+03  0.58649000256E+03  0.00000000000E+00 0. -1.
         21   -1    0    0  501  502 -0.00000000000E+00 -0.00000000000E+00 -0.97602750200E+02  0.97602750200E+02  0.00000000000E+00 0. -1.
          2    1    1    2  501    0  0.26295124487E+02  0.75720471171E+01  0.58424556424E+03  0.58488601351E+03  0.00000000000E+00 0. -1.
         21    1    1    2  503  502 -0.26295124487E+02 -0.75720471171E+01 -0.95358311875E+02  0.99206739252E+02  0.00000000000E+00 0. -1.
</event>
<event>
 4    1  0.2402120E+005  0.2816877E+02  0.7546771E-02  0.1436208E+00
          2   -1    0    0  502    0  0.00000000000E+00  0.00000000000E+00  0.20376762769E+03  0.20376762769E+03  0.00000000000E+00 0.  1.
         21   -1    0    0  503  502 -0.00000000000E+00 -0.00000000000E+00 -0.42085355431E+01  0.42085355431E+01  0.00000000000E+00 0.  1.
          2    1    1    2  501    0 -0.26117897547E+02 -0.10551544858E+02  0.12820608810E+03  0.13126416379E+03  0.00000000000E+00 0.  1.
         21    1    1    2  503  501  0.26117897547E+02  0.10551544858E+02  0.71353004049E+02  0.76711999439E+02  0.00000000000E+00 0.  1.
</event>
<event>
 4    1  0.2402120E+005  0.2301455E+02  0.7546771E-02  0.1492316E+00
          2   -1    0    0  503    0  0.00000000000E+00  0.00000000000E+00  0.48629303132E+02  0.48629303132E+02  0.00000000000E+00 0. -1.
         21   -1    0    0  501  502 -0.00000000000E+00 -0.00000000000E+00 -0.51256868715E+02  0.51256868715E+02  0.00000000000E+00 0.  1.
          2    1    1    2  501    0  0.21754761527E+02 -0.75099823247E+01  0.43006365799E+02  0.48777217867E+02  0.00000000000E+00 0. -1.
         21    1    1    2  503  502 -0.21754761527E+02  0.75099823247E+01 -0.45633931382E+02  0.51108953980E+02  0.00000000000E+00 0.  1.
</event>
<event>
 4    1  0.2402120E+005  0.2380242E+02  0.7546771E-02  0.1482661E+00
          2   -1    0    0  503    0  0.00000000000E+00  0.00000000000E+00  0.23201704968E+04  0.23201704968E+04  0.00000000000E+00 0. -1.
         21   -1    0    0  501  502 -0.00000000000E+00 -0.00000000000E+00 -0.28694550058E+00  0.28694550058E+00  0.00000000000E+00 0. -1.
          2    1    1    2  501    0 -0.23515504888E+02 -0.36846205048E+01  0.16078152066E+04  0.16079913849E+04  0.00000000000E+00 0. -1.
         21    1    1    2  503  502  0.23515504888E+02  0.36846205048E+01  0.71206834469E+03  0.71246605737E+03  0.00000000000E+00 0. -1.
</event>
<event>
 4    1  0.2402120E+005  0.3137407E+02  0.7546771E-02  0.1408020E+00
          2   -1    0    0  503    0  0.00000000000E+00  0.00000000000E+00  0.14187519011E+03  0.14187519011E+03  0.00000000000E+00 0.  1.
         21   -1    0    0  501  502 -0.00000000000E+00 -0.00000000000E+00 -0.33086869190E+02  0.33086869190E+02  0.00000000000E+00 0.  1.
          2    1    1    2  501    0 -0.11313491097E+02 -0.29263238582E+02  0.13216421071E+03  0.13583707448E+03  0.00000000000E+00 0.  1.
         21    1    1    2  503  502  0.11313491097E+02  0.29263238582E+02 -0.23375889789E+02  0.39124984812E+02  0.00000000000E+00 0.  1.
</event>
<event>
 4    1  0.2402120E+005  0.3774908E+02  0.7546771E-02  0.1362206E+00
          2   -1    0    0  503    0  0.00000000000E+00  0.00000000000E+00  0.23459364227E+04  0.23459364227E+04  0.00000000000E+00 0.  1.
         21   -1    0    0  501  502 -0.00000000000E+00 -0.00000000000E+00 -0.10270321219E+01  0.10270321219E+01  0.00000000000E+00 0.  1.
          2    1    1    2  501    0 -0.31795992939E+02 -0.20347190757E+02  0.19225265959E+04  0.19228971645E+04  0.00000000000E+00 0.  1.
         21    1    1    2  503  502  0.31795992939E+02  0.20347190757E+02  0.42238279469E+03  0.42406629032E+03  0.00000000000E+00 0.  1.
</event>
<event>
 4    1  0.2402120E+005  0.2837785E+02  0.7546771E-02  0.1434238E+00
          2   -1    0    0  502    0  0.00000000000E+00  0.00000000000E+00  0.14131517957E+04  0.14131517957E+04  0.00000000000E+00 0. -1.
         21   -1    0    0  503  502 -0.00000000000E+00 -0.00000000000E+00 -0.47720233211E+03  0.47720233211E+03  0.00000000000E+00 0.  1.
          2    1    1    2  501    0  0.19471852167E+02 -0.20643388266E+02  0.14125872741E+04  0.14128722905E+04  0.00000000000E+00 0. -1.
         21    1    1    2  503  501 -0.19471852167E+02  0.20643388266E+02 -0.47663781050E+03  0.47748183726E+03  0.00000000000E+00 0.  1.
</event>
<event>
 4    1  0.2402120E+005  0.2416207E+02  0.7546771E-02  0.1478400E+00
          2   -1    0    0  503    0  0.00000000000E+00  0.00000000000E+00  0.14925491778E+04  0.14925491778E+04  0.00000000000E+00 0.  1.
         21   -1    0    0  501  502 -0.00000000000E+00 -0.00000000000E+00 -0.22135383624E+01  0.22135383624E+01  0.00000000000E+00 0.  1.
          2    1    1    2  501    0 -0.23679294537E+02  0.48058843091E+01  0.14233082041E+04  0.14235132769E+04  0.00000000000E+00 0.  1.
         21    1    1    2  503  502  0.23679294537E+02 -0.48058843091E+01  0.67027435284E+02  0.71249439258E+02  0.00000000000E+00 0.  1.
</event>
<event>
 4    1  0.2402120E+005  0.2062977E+02  0.7546771E-02  0.1524617E+00
          2   -1    0    0  503    0  0.00000000000E+00  0.00000000000E+00  0.86090161894E+01  0.86090161894E+01  0.00000000000E+00 0.  1.
         21   -1    0    0  501  502 -0.00000000000E+00 -0.00000000000E+00 -0.13024623475E+03  0.13024623475E+03  0.00000000000E+00 0.  1.
          2    1    1    2  501    0 -0.48339329903E+01  0.20055436565E+02 -0.61314496679E+01  0.21521666269E+02  0.00000000000E+00 0.  1.
         21    1    1    2  503  502  0.48339329903E+01 -0.20055436565E+02 -0.11550576889E+03  0.11733358467E+03  0.00000000000E+00 0.  1.
</event>
<event>
 4    1  0.2402120E+005  0.2146419E+02  0.7546771E-02  0.1512740E+00
          2   -1    0    0  503    0  0.00000000000E+00  0.00000000000E+00  0.43461618069E+03  0.43461618069E+03  0.00000000000E+00 0.  1.
         21   -1    0    0  501  502 -0.00000000000E+00 -0.00000000000E+00 -0.20540071711E+02  0.20540071711E+02  0.00000000000E+00 0.  1.
          2    1    1    2  501    0 -0.67465750170E+01 -0.20376334112E+02  0.42866591324E+03  0.42920295483E+03  0.00000000000E+00 0.  1.
         21    1    1    2  503  502  0.67465750170E+01  0.20376334112E+02 -0.14589804259E+02  0.25953297567E+02  0.00000000000E+00 0.  1.
</event>
<event>
 4    1  0.2402120E+005  0.6878090E+02  0.7546771E-02  0.1232601E+00
          2   -1    0    0  503    0  0.00000000000E+00  0.00000000000E+00  0.43555865611E+03  0.43555865611E+03  0.00000000000E+00 0.  1.
         21   -1    0    0  501  502 -0.00000000000E+00 -0.00000000000E+00 -0.36571783517E+02  0.36571783517E+02  0.00000000000E+00 0.  1.
          2    1    1    2  501    0  0.68204515374E+02  0.88856983622E+01  0.39742385305E+03  0.40333178715E+03  0.00000000000E+00 0.  1.
         21    1    1    2  503  502 -0.68204515374E+02 -0.88856983622E+01  0.15630195447E+01  0.68798652479E+02  0.00000000000E+00 0.  1.
</event>
<event>
 4    1  0.2402120E+005  0.2774207E+02  0.7546771E-02  0.1440293E+00
          2   -1    0    0  503    0  0.00000000000E+00  0.00000000000E+00  0.49842028213E+02  0.49842028213E+02  0.00000000000E+00 0. -1.
         21   -1    0    0  501  502 -0.00000000000E+00 -0.00000000000E+00 -0.37956123295E+02  0.37956123295E+02  0.00000000000E+00 0.  1.
          2    1    1    2  501    0  0.17968903488E+02  0.21136246762E+02  0.39753278635E+02  0.48476237292E+02  0.00000000000E+00 0. -1.
         21    1    1    2  503  502 -0.17968903488E+02 -0.21136246762E+02 -0.27867373717E+02  0.39321914216E+02  0.00000000000E+00 0.  1.
</event>
<event>
 4    1  0.2402120E+005  0.2000244E+02  0.7546771E-02  0.1533998E+00
          2   -1    0    0  503    0  0.00000000000E+00  0.00000000000E+00  0.96743705702E+03  0.96743705702E+03  0.00000000000E+00 0. -1.
         21   -1    0    0  501  502 -0.00000000000E+00 -0.00000000000E+00 -0.14886969156E+01  0.14886969156E+01  0.00000000000E+00 0.  1.
          2    1    1    2  501    0 -0.17191707488E+02 -0.10224612332E+02  0.89468128572E+03  0.89490485557E+03  0.00000000000E+00 0. -1.
         21    1    1    2  503  502  0.17191707488E+02  0.10224612332E+02  0.71267074389E+02  0.74020898371E+02  0.00000000000E+00 0.  1.
</event>
<event>
 4    1  0.2402120E+005  0.3826883E+02  0.7546771E-02  0.1358940E+00
          2   -1    0    0  502    0  0.00000000000E+00  0.00000000000E+00  0.23725864552E+04  0.23725864552E+04  0.00000000000E+00 0.  1.
         21   -1    0    0  503  502 -0.00000000000E+00 -0.00000000000E+00 -0.12408469173E+02  0.12408469173E+02  0.00000000000E+00 0. -1.
          2    1    1    2  501    0  0.14184828210E+02 -0.35542847064E+02  0.23425476805E+04  0.23428602474E+04  0.00000000000E+00 0.  1.
         21    1    1    2  503  501 -0.14184828210E+02  0.35542847064E+02  0.17630305453E+02  0.42134676920E+02  0.00000000000E+00 0. -1.
</event>
<event>
 4    1  0.2402120E+005  0.2714606E+02  0.7546771E-02  0.1446146E+00
          2   -1    0    0  503    0  0.00000000000E+00  0.00000000000E+00  0.25521518295E+02  0.25521518295E+02  0.00000000000E+00 0.  1.
         21   -1    0    0  501  502 -0.00000000000E+00 -0.00000000000E+00 -0.72522396870E+02  0.72522396870E+02  0.00000000000E+00 0.  1.
          2    1    1    2  501    0  0.95769462260E+01  0.25400607047E+02  0.14530639302E+02  0.30790391617E+02  0.00000000000E+00 0.  1.
         21    1    1    2  503  502 -0.95769462260E+01 -0.25400607047E+02 -0.61531517877E+02  0.67253523548E+02  0.00000000000E+00 0.  1.
</event>
<event>
 4    1  0.2402120E+005  0.2728191E+02  0.7546771E-02  0.1444797E+00
          2   -1    0    0  503    0  0.00000000000E+00  0.00000000000E+00  0.57121830964E+03  0.57121830964E+03  0.00000000000E+00 0.  1.
         21   -1    0    0  501  502 -0.00000000000E+00 -0.00000000000E+00 -0.12956892902E+02  0.12956892902E+02  0.00000000000E+00 0. -1.
          2    1    1    2  501    0  0.21475554007E+02 -0.16825671662E+02  0.55614235553E+03  0.55681111902E+03  0.00000000000E+00 0.  1.
         21    1    1    2  503  502 -0.21475554007E+02  0.16825671662E+02  0.21190612094E+01  0.27364083526E+02  0.00000000000E+00 0. -1.
</event>
<event>
 4    1  0.2402120E+005  0.2153105E+02  0.7546771E-02  0.1511816E+00
          2   -1    0    0  503    0  0.00000000000E+00  0.00000000000E+00  0.60908537504E+03  0.60908537504E+03  0.00000000000E+00 0. -1.
         21   -1    0    0  501  502 -0.00000000000E+00 -0.00000000000E+00 -0.78502803914E+00  0.78502803914E+00  0.00000000000E+00 0. -1.
          2    1    1    2  501    0 -0.20849440500E+02  0.53746397889E+01  0.35736760807E+03  0.35801563264E+03  0.00000000000E+00 0. -1.
         21    1    1    2  503  502  0.20849440500E+02 -0.53746397889E+01  0.25093273893E+03  0.25185477043E+03  0.00000000000E+00 0. -1.
</event>
<event>
 4    1  0.2402120E+005  0.5082123E+02  0.7546771E-02  0.1294651E+00
          2   -1    0    0  502    0  0.00000000000E+00  0.00000000000E+00  0.15541865881E+04  0.15541865881E+04  0.00000000000E+00 0.  1.
         21   -1    0    0  503  502 -0.00000000000E+00 -0.00000000000E+00 -0.22428562022E+01  0.22428562022E+01  0.00000000000E+00 0.  1.
          2    1    1    2  501    0  0.33165832466E+01 -0.50712895710E+02  0.11720635426E+04  0.11731648415E+04  0.00000000000E+00 0.  1.
         21    1    1    2  503  501 -0.33165832466E+01  0.50712895710E+02  0.37988018935E+03  0.38326460282E+03  0.00000000000E+00 0.  1.
</event>
<event>
 4    1  0.2402120E+005  0.2034218E+02  0.7546771E-02  0.1528868E+00
          2   -1    0    0  502    0  0.00000000000E+00  0.00000000000E+00  0.19873967642E+03  0.19873967642E+03  0.00000000000E+00 0. -1.
         21   -1    0    0  503  502 -0.00000000000E+00 -0.00000000000E+00 -0.42085735969E+01  0.42085735969E+01  0.00000000000E+00 0.  1.
          2    1    1    2  501    0 -0.20009001208E+02  0.36666145107E+01  0.16939516058E+03  0.17061220537E+03  0.00000000000E+00 0. -1.
         21    1    1    2  503  501  0.20009001208E+02 -0.36666145107E+01  0.25135942241E+02  0.32336044650E+02  0.00000000000E+00 0.  1.
</event>
<event>
 4    1  0.2402120E+005  0.4654468E+02  0.7546771E-02  0.1313891E+00
          2   -1    0    0  503    0  0.00000000000E+00  0.00000000000E+00  0.21316904220E+04  0.21316904220E+04  0.00000000000E+00 0.  1.
         21   -1    0    0  501  502 -0.00000000000E+00 -0.00000000000E+00 -0.19792783050E+01  0.19792783050E+01  0.00000000000E+00 0.  1.
          2    1    1    2  501    0 -0.13440972993E+02  0.44561725281E+02  0.18089964669E+04  0.18095951549E+04  0.00000000000E+00 0.  1.
         21    1    1    2  503  502  0.13440972993E+02 -0.44561725281E+02  0.32071467674E+03  0.32407454543E+03  0.00000000000E+00 0.  1.
</event>
<event>
 4    1  0.2402120E+005  0.3824963E+02  0.7546771E-02  0.1359060E+00
          2   -1    0    0  503    0  0.00000000000E+00  0.00000000000E+00  0.12216345237E+04  0.12216345237E+04  0.00000000000E+00 0. -1.
         21   -1    0    0  501  502 -0.00000000000E+00 -0.00000000000E+00 -0.22288241968E+01  0.22288241968E+01  0.00000000000E+00 0. -1.
          2    1    1    2  501    0  0.11186261305E+00 -0.38249465333E+02  0.10259399426E+04  0.10266527164E+04  0.00000000000E+00 0. -1.
         21    1    1    2  503  502 -0.11186261305E+00  0.38249465333E+02  0.19346575690E+03  0.19721063157E+03  0.00000000000E+00 0. -1.
</event>
<event>
 4    1  0.2402120E+005  0.2352203E+02  0.7546771E-02  0.1486045E+00
          2   -1    0    0  502    0  0.00000000000E+00  0.00000000000E+00  0.62873076638E+03  0.62873076638E+03  0.00000000000E+00 0. -1.
         21   -1    0    0  503  502 -0.00000000000E+00 -0.00000000000E+00 -0.39768389987E+01  0.39768389987E+01  0.00000000000E+00 0.  1.
          2    1    1    2  501    0 -0.22831656459E+02 -0.56569848978E+01  0.59154329577E+03  0.59201077422E+03  0.00000000000E+00 0. -1.
         21    1    1    2  503  501  0.22831656459E+02  0.56569848978E+01  0.33210631607E+02  0.40696831161E+02  0.00000000000E+00 0.  1.
</event>
<event>
 4    1  0.2402120E+005  0.5341624E+02  0.7546771E-02  0.1284003E+00
          2   -1    0    0  503    0  0.00000000000E+00  0.00000000000E+00  0.32957627915E+02  0.32957627915E+02  0.00000000000E+00 0.  1.
         21   -1    0    0  501  502 -0.00000000000E+00 -0.00000000000E+00 -0.10769804537E+03  0.10769804537E+03  0.00000000000E+00 0.  1.
          2    1    1    2  501    0 -0.44988086489E+02 -0.28798734038E+02 -0.62239963445E+01  0.53777626748E+02  0.00000000000E+00 0.  1.
         21    1    1    2  503  502  0.44988086489E+02  0.28798734038E+02 -0.68516421111E+02  0.86878046536E+02  0.00000000000E+00 0.  1.
</event>
<event>
 4    1  0.2402120E+005  0.2374294E+02  0.7546771E-02  0.1483374E+00
          2   -1    0    0  503    0  0.00000000000E+00  0.00000000000E+00  0.34503325650E+02  0.34503325650E+02  0.00000000000E+00 0.  1.
         21   -1    0    0  501  502 -0.00000000000E+00 -0.00000000000E+00 -0.16843920554E+02  0.16843920554E+02  0.00000000000E+00 0. -1.
          2    1    1    2  501    0  0.15557746569E+02  0.17935539152E+02  0.13277664171E+02  0.27203371276E+02  0.00000000000E+00 0.  1.
         21    1    1    2  503  502 -0.15557746569E+02 -0.17935539152E+02  0.43817409250E+01  0.24143874927E+02  0.00000000000E+00 0. -1.
</event>
<event>
 4    1  0.2402120E+005  0.2895980E+02  0.7546771E-02  0.1428856E+00
          2   -1    0    0  503    0  0.00000000000E+00  0.00000000000E+00  0.52263136083E+01  0.52263136083E+01  0.00000000000E+00 0. -1.
         21   -1    0    0  501  502 -0.00000000000E+00 -0.00000000000E+00 -0.16072992317E+03  0.16072992317E+03  0.00000000000E+00 0. -1.
          2    1    1    2  501    0  0.17854302070E+02  0.22801184053E+02 -0.74419312137E+02  0.79855520257E+02  0.00000000000E+00 0. -1.
         21    1    1    2  503  502 -0.17854302070E+02 -0.22801184053E+02 -0.81084297426E+02  0.86100716522E+02  0.00000000000E+00 0. -1.
</event>
<event>
 4    1  0.2402120E+005  0.4480757E+02  0.7546771E-02  0.1322404E+00
          2   -1    0    0  502    0  0.00000000000E+00  0.00000000000E+00  0.16631847828E+02  0.16631847828E+02  0.00000000000E+00 0. -1.
         21   -1    0    0  503  502 -0.00000000000E+00 -0.00000000000E+00 -0.13431114360E+04  0.13431114360E+04  0.00000000000E+00 0. -1.
          2    1    1    2  501    0  0.44274027506E+02  0.68941140696E+01 -0.14639876161E+02  0.47138564832E+02  0.00000000000E+00 0. -1.
         21    1    1    2  503  501 -0.44274027506E+02 -0.68941140696E+01 -0.13118397120E+04  0.13126047190E+04  0.00000000000E+00 0. -1.
</event>
<event>
 4    1  0.2402120E+005  0.2339120E+02  0.7546771E-02  0.1487643E+00
          2   -1    0    0  503    0  0.00000000000E+00  0.00000000000E+00  0.16823268423E+04  0.16823268423E+04  0.00000000000E+00 0. -1.
         21   -1    0    0  501  502 -0.00000000000E+00 -0.00000000000E+00 -0.10774567208E+01  0.10774567208E+01  0.00000000000E+00 0. -1.
          2    1    1    2  501    0  0.10861483584E+02 -0.20716570881E+02  0.15439108082E+04  0.15440879936E+04  0.00000000000E+00 0. -1.
         21    1    1    2  503  502 -0.10861483584E+02  0.20716570881E+02  0.13733857737E+03  0.13931630546E+03  0.00000000000E+00 0. -1.
</event>
<event>
 4    1  0.2402120E+005  0.2383714E+02  0.7546771E-02  0.1482245E+00
          2   -1    0    0  503    0  0.00000000000E+00  0.00000000000E+00  0.57992038654E+03  0.57992038654E+03  0.00000000000E+00 0. -1.
         21   -1    0    0  501  502 -0.00000000000E+00 -0.00000000000E+00 -0.11638834845E+02  0.11638834845E+02  0.00000000000E+00 0. -1.
          2    1    1    2  501    0 -0.21809409159E+02  0.96207507752E+01  0.56719673957E+03  0.56769741109E+03  0.00000000000E+00 0. -1.
         21    1    1    2  503  502  0.21809409159E+02 -0.96207507752E+01  0.10848121217E+01  0.23861810297E+02  0.00000000000E+00 0. -1.
</event>
<event>
 4    1  0.2402120E+005  0.2482978E+02  0.7546771E-02  0.1470717E+00
          2   -1    0    0  503    0  0.00000000000E+00  0.00000000000E+00  0.62502365698E+03  0.62502365698E+03  0.00000000000E+00 0. -1.
         21   -1    0    0  501  502 -0.00000000000E+00 -0.00000000000E+00 -0.78044471769E+01  0.78044471769E+01  0.00000000000E+00 0.  1.
          2    1    1    2  501    0  0.24181294837E+02 -0.56376354464E+01  0.60435293919E+03  0.60486278862E+03  0.00000000000E+00 0. -1.
         21    1    1    2  503  502 -0.24181294837E+02  0.56376354464E+01  0.12866270614E+02  0.27965315534E+02  0.00000000000E+00 0.  1.
</event>
<event>
 4    1  0.2402120E+005  0.2213633E+02  0.7546771E-02  0.1503638E+00
          2   -1    0    0  502    0  0.00000000000E+00  0.00000000000E+00  0.13674252560E+04  0.13674252560E+04  0.00000000000E+00 0.  1.
         21   -1    0    0  503  502 -0.00000000000E+00 -0.00000000000E+00 -0.19863300460E+01  0.19863300460E+01  0.00000000000E+00 0.  1.
          2    1    1    2  501    0  0.22036830019E+02  0.20964773328E+01  0.13025925917E+04  0.13027806711E+04  0.00000000000E+00 0.  1.
         21    1    1    2  503  501 -0.22036830019E+02 -0.20964773328E+01  0.62846334239E+02  0.66630914911E+02  0.00000000000E+00 0.  1.
</event>
<event>
 4    1  0.2402120E+005  0.4836011E+02  0.7546771E-02  0.1305443E+00
          2   -1    0    0  503    0  0.00000000000E+00  0.00000000000E+00  0.89766904610E+03  0.89766904610E+03  0.00000000000E+00 0.  1.
         21   -1    0    0  501  502 -0.00000000000E+00 -0.00000000000E+00 -0.28041837860E+01  0.28041837860E+01  0.00000000000E+00 0.  1.
          2    1    1    2  501    0 -0.36677948416E+02  0.31518705570E+02  0.56733623568E+03  0.56939362924E+03  0.00000000000E+00 0.  1.
         21    1    1    2  503  502  0.36677948416E+02 -0.31518705570E+02  0.32752862663E+03  0.33107960064E+03  0.00000000000E+00 0.  1.
</event>
<event>
 4    1  0.2402120E+005  0.2354356E+02  0.7546771E-02  0.1485783E+00
          2   -1    0    0  502    0  0.00000000000E+00  0.00000000000E+00  0.16600513098E+04  0.16600513098E+04  0.00000000000E+00 0.  1.
         21   -1    0    0  503  502 -0.00000000000E+00 -0.00000000000E+00 -0.10485627748E+01  0.10485627748E+01  0.00000000000E+00 0.  1.
          2    1    1    2  501    0 -0.13176460674E+01  0.23506664090E+02  0.15151752286E+04  0.15153581335E+04  0.00000000000E+00 0.  1.
         21    1    1    2  503  501  0.13176460674E+01 -0.23506664090E+02  0.14382751845E+03  0.14574173908E+03  0.00000000000E+00 0.  1.
</event>
<event>
 4    1  0.2402120E+005  0.2757629E+02  0.7546771E-02  0.1441904E+00
          2   -1    0    0  503    0  0.00000000000E+00  0.00000000000E+00  0.16111687434E+04  0.16111687434E+04  0.00000000000E+00 0. -1.
         21   -1    0    0  501  502 -0.00000000000E+00 -0.00000000000E+00 -0.72622996539E+01  0.72622996539E+01  0.00000000000E+00 0. -1.
          2    1    1    2  501    0  0.77558876470E+01  0.26463141069E+02  0.15844309580E+04  0.15846709161E+04  0.00000000000E+00 0. -1.
         21    1    1    2  503  502 -0.77558876470E+01 -0.26463141069E+02  0.19475485774E+02  0.33760126993E+02  0.00000000000E+00 0. -1.
</event>
<event>
 4    1  0.2402120E+005  0.2385081E+02  0.7546771E-02  0.1482082E+00
          2   -1    0    0  502    0  0.00000000000E+00  0.00000000000E+00  0.83022958609E+02  0.83022958609E+02  0.00000000000E+00 0. -1.
         21   -1    0    0  503  502 -0.00000000000E+00 -0.00000000000E+00 -0.33236059004E+02  0.33236059004E+02  0.00000000000E+00 0.  1.
          2    1    1    2  501    0 -0.15825925094E+02 -0.17843806159E+02  0.76685593356E+02  0.80309037796E+02  0.00000000000E+00 0. -1.
         21    1    1    2  503  501  0.15825925094E+02  0.17843806159E+02 -0.26898693751E+02  0.35949979817E+02  0.00000000000E+00 0.  1.
</event>
<event>
 4    1  0.2402120E+005  0.8004232E+02  0.7546771E-02  0.1203749E+00
          2   -1    0    0  503    0  0.00000000000E+00  0.00000000000E+00  0.68999196496E+02  0.68999196496E+02  0.00000000000E+00 0.  1.
         21   -1    0    0  501  502 -0.00000000000E+00 -0.00000000000E+00 -0.14872489254E+03  0.14872489254E+03  0.00000000000E+00 0. -1.
          2    1    1    2  501    0 -0.69946145598E+02  0.38914122593E+02  0.26861128160E+02  0.84429215484E+02  0.00000000000E+00 0.  1.
         21    1    1    2  503  502  0.69946145598E+02 -0.38914122593E+02 -0.10658682420E+03  0.13329487355E+03  0.00000000000E+00 0. -1.
</event>
<event>
 4    1  0.2402120E+005  0.3349513E+02  0.7546771E-02  0.1391463E+00
          2   -1    0    0  503    0  0.00000000000E+00  0.00000000000E+00  0.52829641753E+02  0.52829641753E+02  0.00000000000E+00 0. -1.
         21   -1    0    0  501  502 -0.00000000000E+00 -0.00000000000E+00 -0.66254696552E+02  0.66254696552E+02  0.00000000000E+00 0. -1.
          2    1    1    2  501    0 -0.31097245913E+02  0.12445275172E+02  0.42368058100E+02  0.54009035583E+02  0.00000000000E+00 0. -1.
         21    1    1    2  503  502  0.31097245913E+02 -0.12445275172E+02 -0.55793112899E+02  0.65075302722E+02  0.00000000000E+00 0. -1.
</event>
<event>
 4    1  0.2402120E+005  0.2173426E+02  0.7546771E-02  0.1509035E+00
          2   -1    0    0  502    0  0.00000000000E+00  0.00000000000E+00  0.79291841154E+03  0.79291841154E+03  0.00000000000E+00 0.  1.
         21   -1    0    0  503  502 -0.00000000000E+00 -0.00000000000E+00 -0.21048725924E+01  0.21048725924E+01  0.00000000000E+00 0. -1.
          2    1    1    2  501    0  0.81738503348E+01  0.20138674015E+02  0.73199565656E+03  0.73231824997E+03  0.00000000000E+00 0.  1.
         21    1    1    2  503  501 -0.81738503348E+01 -0.20138674015E+02  0.58817882387E+02  0.62705034159E+02  0.00000000000E+00 0. -1.
</event>
<event>
 4    1  0.2402120E+005  0.4306824E+02  0.7546771E-02  0.1331387E+00
          2   -1    0    0  503    0  0.00000000000E+00  0.00000000000E+00  0.67060714553E+03  0.67060714553E+03  0.00000000000E+00 0.  1.
         21   -1    0    0  501  502 -0.00000000000E+00 -0.00000000000E+00 -0.15671290633E+02  0.15671290633E+02  0.00000000000E+00 0.  1.
          2    1    1    2  501    0 -0.42798075830E+02 -0.48164590288E+01  0.63885638966E+03  0.64030645802E+03  0.00000000000E+00 0.  1.
         21    1    1    2  503  502  0.42798075830E+02  0.48164590288E+01  0.16079465242E+02  0.45971978148E+02  0.00000000000E+00 0.  1.
</event>
<event>
 4    1  0.2402120E+005  0.2093436E+02  0.7546771E-02  0.1520204E+00
          2   -1    0    0  503    0  0.00000000000E+00  0.00000000000E+00  0.10904808844E+04  0.10904808844E+04  0.00000000000E+00 0. -1.
         21   -1    0    0  501  502 -0.00000000000E+00 -0.00000000000E+00 -0.26948737308E+02  0.26948737308E+02  0.00000000000E+00 0.  1.
          2    1    1    2  501    0  0.27057817987E+01 -0.20758762422E+02  0.10862991984E+04  0.10865008955E+04  0.00000000000E+00 0. -1.
         21    1    1    2  503  502 -0.27057817987E+01  0.20758762422E+02 -0.22767051376E+02  0.30928726142E+02  0.00000000000E+00 0.  1.
</event>
<event>
 4    1  0.2402120E+005  0.2265530E+02  0.7546771E-02  0.1496873E+00
          2   -1    0    0  502    0  0.00000000000E+00  0.00000000000E+00  0.24413713296E+02  0.24413713296E+02  0.00000000000E+00 0.  1.
         21   -1    0    0  503  502 -0.00000000000E+00 -0.00000000000E+00 -0.13474408991E+03  0.13474408991E+03  0.00000000000E+00 0. -1.
          2    1    1    2  501    0  0.16883971607E+02 -0.15106093076E+02  0.17942417871E+02  0.28899704225E+02  0.00000000000E+00 0.  1.
         21    1    1    2  503  501 -0.16883971607E+02  0.15106093076E+02 -0.12827279449E+03  0.13025809898E+03  0.00000000000E+00 0. -1.
</event>
<event>
 4    1  0.2402120E+005  0.3126218E+02  0.7546771E-02  0.1408936E+00
          2   -1    0    0  503    0  0.00000000000E+00  0.00000000000E+00  0.10004093702E+04  0.10004093702E+04  0.00000000000E+00 0. -1.
         21   -1    0    0  501  502 -0.00000000000E+00 -0.00000000000E+00 -0.11289423407E+02  0.11289423407E+02  0.00000000000E+00 0.  1.
          2    1    1    2  501    0 -0.84519424415E+01 -0.30097986260E+02  0.97802751257E+03  0.97852702541E+03  0.00000000000E+00 0. -1.
         21    1    1    2  503  502  0.84519424415E+01  0.30097986260E+02  0.11092434209E+02  0.33171768187E+02  0.00000000000E+00 0.  1.
</event>
<event>
 4    1  0.2402120E+005  0.2538695E+02  0.7546771E-02  0.1464521E+00
          2   -1    0    0  503    0  0.00000000000E+00  0.00000000000E+00  0.77946147830E+03  0.77946147830E+03  0.00000000000E+00 0. -1.
         21   -1    0    0  501  502 -0.00000000000E+00 -0.00000000000E+00 -0.93777376077E+00  0.93777376077E+00  0.00000000000E+00 0. -1.
          2    1    1    2  501    0 -0.12393162287E+02  0.22156411456E+02  0.52346163699E+03  0.52407688600E+03  0.00000000000E+00 0. -1.
         21    1    1    2  503  502  0.12393162287E+02 -0.22156411456E+02  0.25506206755E+03  0.25632236606E+03  0.00000000000E+00 0. -1.
</event>
<event>
 4    1  0.2402120E+005  0.2237141E+02  0.7546771E-02  0.1500546E+00
          2   -1    0    0  502    0  0.00000000000E+00  0.00000000000E+00  0.10830140783E+02  0.10830140783E+02  0.00000000000E+00 0.  1.
         21   -1    0    0  503  502 -0.00000000000E+00 -0.00000000000E+00 -0.18248282424E+03  0.18248282424E+03  0.00000000000E+00 0.  1.
          2    1    1    2  501    0 -0.10081208532E+02 -0.19971211094E+02 -0.23003216764E+01  0.22489364549E+02  0.00000000000E+00 0.  1.
         21    1    1    2  503  501  0.10081208532E+02  0.19971211094E+02 -0.16935236178E+03  0.17082360047E+03  0.00000000000E+00 0.  1.
</event>
<event>
 4    1  0.2402120E+005  0.2613544E+02  0.7546771E-02  0.1456492E+00
          2   -1    0    0  502    0  0.00000000000E+00  0.00000000000E+00  0.90130110831E+03  0.90130110831E+03  0.00000000000E+00 0.  1.
         21   -1    0    0  503  502 -0.00000000000E+00 -0.00000000000E+00 -0.10470447555E+01  0.10470447555E+01  0.00000000000E+00 0.  1.
          2    1    1    2  501    0  0.26130690978E+02  0.49813593963E+00  0.68723617575E+03  0.68773295865E+03  0.00000000000E+00 0.  1.
         21    1    1    2  503  501 -0.26130690978E+02 -0.49813593963E+00  0.21301788780E+03  0.21461519441E+03  0.00000000000E+00 0.  1.
</event>
<event>
 4    1  0.2402120E+005  0.5320277E+02  0.7546771E-02  0.1284853E+00
          2   -1    0    0  502    0  0.00000000000E+00  0.00000000000E+00  0.10385897677E+04  0.10385897677E+04  0.00000000000E+00 0.  1.
         21   -1    0    0  503  502 -0.00000000000E+00 -0.00000000000E+00 -0.51395295602E+02  0.51395295602E+02  0.00000000000E+00 0.  1.
          2    1    1    2  501    0  0.99218107663E-01 -0.53202675273E+02  0.10239431628E+04  0.10253244048E+04  0.00000000000E+00 0.  1.
         21    1    1    2  503  501 -0.99218107663E-01  0.53202675273E+02 -0.36748690628E+02  0.64660658544E+02  0.00000000000E+00 0.  1.
</event>
<event>
 4    1  0.2402120E+005  0.3028898E+02  0.7546771E-02  0.1417101E+00
          2   -1    0    0  503    0  0.00000000000E+00  0.00000000000E+00  0.47663616443E+03  0.47663616443E+03  0.00000000000E+00 0. -1.
         21   -1    0    0  501  502 -0.00000000000E+00 -0.00000000000E+00 -0.19369217791E+01  0.19369217791E+01  0.00000000000E+00 0.  1.
          2    1    1    2  501    0  0.19805676141E+02 -0.22916319286E+02  0.25629051848E+03  0.25807412184E+03  0.00000000000E+00 0. -1.
         21    1    1    2  503  502 -0.19805676141E+02  0.22916319286E+02  0.21840872417E+03  0.22049896437E+03  0.00000000000E+00 0.  1.
</event>
<event>
 4    1  0.2402120E+005  0.2211222E+02  0.7546771E-02  0.1503957E+00
          2   -1    0    0  503    0  0.00000000000E+00  0.00000000000E+00  0.86218180298E+03  0.86218180298E+03  0.00000000000E+00 0.  1.
         21   -1    0    0  501  502 -0.00000000000E+00 -0.00000000000E+00 -0.30854264000E+03  0.30854264000E+03  0.00000000000E+00 0.  1.
          2    1    1    2  501    0  0.10918070020E+02  0.19228776202E+02  0.86164360151E+03  0.86192728586E+03  0.00000000000E+00 0.  1.
         21    1    1    2  503  502 -0.10918070020E+02 -0.19228776202E+02 -0.30800443854E+03  0.30879715712E+03  0.00000000000E+00 0.  1.
</event>
<event>
 4    1  0.2402120E+005  0.2100630E+02  0.7546771E-02  0.1519175E+00
          2   -1    0    0  503    0  0.00000000000E+00  0.00000000000E+00  0.87248459483E+03  0.87248459483E+03  0.00000000000E+00 0.  1.
         21   -1    0    0  501  502 -0.00000000000E+00 -0.00000000000E+00 -0.14298266874E+01  0.14298266874E+01  0.00000000000E+00 0. -1.
          2    1    1    2  501    0  0.42168313400E+01 -0.20578702878E+02  0.78680438096E+03  0.78708474676E+03  0.00000000000E+00 0.  1.
         21    1    1    2  503  502 -0.42168313400E+01  0.20578702878E+02  0.84250387179E+02  0.86829674757E+02  0.00000000000E+00 0. -1.
</event>
<event>
 4    1  0.2402120E+005  0.3849774E+02  0.7546771E-02  0.1357521E+00
          2   -1    0    0  503    0  0.00000000000E+00  0.00000000000E+00  0.20564079199E+04  0.20564079199E+04  0.00000000000E+00 0.  1.
         21   -1    0    0  501  502 -0.00000000000E+00 -0.00000000000E+00 -0.15365497956E+02  0.15365497956E+02  0.00000000000E+00 0.  1.
          2    1    1    2  501    0 -0.13251605968E+02  0.36145131717E+02  0.20318222927E+04  0.20321869759E+04  0.00000000000E+00 0.  1.
         21    1    1    2  503  502  0.13251605968E+02 -0.36145131717E+02  0.92201292154E+01  0.39586442001E+02  0.00000000000E+00 0.  1.
</event>
<event>
 4    1  0.2402120E+005  0.2126641E+02  0.7546771E-02  0.1515495E+00
          2   -1    0    0  503    0  0.00000000000E+00  0.00000000000E+00  0.21377672299E+03  0.21377672299E+03  0.00000000000E+00 0. -1.
         21   -1    0    0  501  502 -0.00000000000E+00 -0.00000000000E+00 -0.28777645194E+02  0.28777645194E+02  0.00000000000E+00 0.  1.
          2    1    1    2  501    0 -0.12881365266E+02  0.16921303391E+02  0.20923382582E+03  0.21031180173E+03  0.00000000000E+00 0. -1.
         21    1    1    2  503  502  0.12881365266E+02 -0.16921303391E+02 -0.24234748026E+02  0.32242566453E+02  0.00000000000E+00 0.  1.
</event>
<event>
 4    1  0.2402120E+005  0.2010282E+02  0.7546771E-02  0.1532470E+00
          2   -1    0    0  503    0  0.00000000000E+00  0.00000000000E+00  0.20465551329E+03  0.20465551329E+03  0.00000000000E+00 0.  1.
         21   -1    0    0  501  502 -0.00000000000E+00 -0.00000000000E+00 -0.24201703143E+01  0.24201703143E+01  0.00000000000E+00 0. -1.
          2    1    1    2  501    0 -0.17315289074E+02 -0.10212944463E+02  0.14554076526E+03  0.14692255723E+03  0.00000000000E+00 0.  1.
         21    1    1    2  503  502  0.17315289074E+02  0.10212944463E+02  0.56694577718E+02  0.60153126377E+02  0.00000000000E+00 0. -1.
</event>
<event>
 4    1  0.2402120E+005  0.4902492E+02  0.7546771E-02  0.1302456E+00
          2   -1    0    0  503    0  0.00000000000E+00  0.00000000000E+00  0.23981829025E+04  0.23981829025E+04  0.00000000000E+00 0. -1.
         21   -1    0    0  501  502 -0.00000000000E+00 -0.00000000000E+00 -0.97388040022E+01  0.97388040022E+01  0.00000000000E+00 0. -1.
          2    1    1    2  501    0 -0.40292836125E+02 -0.27927228390E+02  0.23345533531E+04  0.23350680507E+04  0.00000000000E+00 0. -1.
         21    1    1    2  503  502  0.40292836125E+02  0.27927228390E+02  0.53890745347E+02  0.72853655794E+02  0.00000000000E+00 0. -1.
</event>
<event>
 4    1  0.2402120E+005  0.2093179E+02  0.7546771E-02  0.1520241E+00
          2   -1    0    0  503    0  0.00000000000E+00  0.00000000000E+00  0.20122082425E+03  0.20122082425E+03  0.00000000000E+00 0. -1.
         21   -1    0    0  501  502 -0.00000000000E+00 -0.00000000000E+00 -0.29207218823E+01  0.29207218823E+01  0.00000000000E+00 0. -1.
          2    1    1    2  501    0  0.11375432938E+02 -0.17570979215E+02  0.15064237510E+03  0.15208966092E+03  0.00000000000E+00 0. -1.
         21    1    1    2  503  502 -0.11375432938E+02  0.17570979215E+02  0.47657727266E+02  0.52051885204E+02  0.00000000000E+00 0. -1.
</event>
<event>
 4    1  0.2402120E+005  0.2353737E+02  0.7546771E-02  0.1485858E+00
          2   -1    0    0  502    0  0.00000000000E+00  0.00000000000E+00  0.16369317029E+04  0.16369317029E+04  0.00000000000E+00 0. -1.
         21   -1    0    0  503  502 -0.00000000000E+00 -0.00000000000E+00 -0.75424442846E+00  0.75424442846E+00  0.00000000000E+00 0. -1.
          2    1    1    2  501    0 -0.13858642594E+02  0.19024877838E+02  0.14260663588E+04  0.14262605889E+04  0.00000000000E+00 0. -1.
         21    1    1    2  503  501  0.13858642594E+02 -0.19024877838E+02  0.21011109967E+03  0.21142535835E+03  0.00000000000E+00 0. -1.
</event>
<event>
 4    1  0.2402120E+005  0.2759636E+02  0.7546771E-02  0.1441708E+00
          2   -1    0    0  503    0  0.00000000000E+00  0.00000000000E+00  0.14242924493E+04  0.14242924493E+04  0.00000000000E+00 0.  1.
         21   -1    0    0  501  502 -0.00000000000E+00 -0.00000000000E+00 -0.43970446925E+02  0.43970446925E+02  0.00000000000E+00 0. -1.
          2    1    1    2  501    0 -0.70586909915E+01  0.26678339393E+02  0.14198151757E+04  0.14200833398E+04  0.00000000000E+00 0.  1.
         21    1    1    2  503  502  0.70586909915E+01 -0.26678339393E+02 -0.39493173348E+02  0.48179556373E+02  0.00000000000E+00 0. -1.
</event>
<event>
 4    1  0.2402120E+005  0.2691281E+02  0.7546771E-02  0.1448486E+00
          2   -1    0    0  503    0  0.00000000000E+00  0.00000000000E+00  0.76624324316E+03  0.76624324316E+03  0.00000000000E+00 0.  1.
         21   -1    0    0  501  502 -0.00000000000E+00 -0.00000000000E+00 -0.34741925608E+01  0.34741925608E+01  0.00000000000E+00 0. -1.
          2    1    1    2  501    0 -0.27102638557E+01  0.26775992779E+02  0.70973903382E+03  0.71024910803E+03  0.00000000000E+00 0.  1.
         21    1    1    2  503  502  0.27102638557E+01 -0.26775992779E+02  0.53030016770E+02  0.59468327689E+02  0.00000000000E+00 0. -1.
</event>
<event>
 4    1  0.2402120E+005  0.2927534E+02  0.7546771E-02  0.1426000E+00
          2   -1    0    0  503    0  0.00000000000E+00  0.00000000000E+00  0.55239179710E+03  0.55239179710E+03  0.00000000000E+00 0.  1.
         21   -1    0    0  501  502 -0.00000000000E+00 -0.00000000000E+00 -0.16164217502E+01  0.16164217502E+01  0.00000000000E+00 0.  1.
          2    1    1    2  501    0 -0.27715684978E+02  0.94279624726E+01  0.33089429072E+03  0.33218681085E+03  0.00000000000E+00 0.  1.
         21    1    1    2  503  502  0.27715684978E+02 -0.94279624726E+01  0.21988108463E+03  0.22182140800E+03  0.00000000000E+00 0.  1.
</event>
<event>
 4    1  0.2402120E+005  0.3333744E+02  0.7546771E-02  0.1392644E+00
          2   -1    0    0  502    0  0.00000000000E+00  0.00000000000E+00  0.99689928006E+02  0.99689928006E+02  0.00000000000E+00 0.  1.
         21   -1    0    0  503  502 -0.00000000000E+00 -0.00000000000E+00 -0.15027280032E+02  0.15027280032E+02  0.00000000000E+00 0. -1.
          2    1    1    2  501    0  0.15888784145E+02  0.29307534835E+02  0.71472730490E+02  0.78865304561E+02  0.00000000000E+00 0.  1.
         21    1    1    2  503  501 -0.15888784145E+02 -0.29307534835E+02  0.13189917484E+02  0.35851903477E+02  0.00000000000E+00 0. -1.
</event>
<event>
 4    1  0.2402120E+005  0.2491317E+02  0.7546771E-02  0.1469777E+00
          2   -1    0    0  502    0  0.00000000000E+00  0.00000000000E+00  0.37273553758E+02  0.37273553758E+02  0.00000000000E+00 0. -1.
         21   -1    0    0  503  502 -0.00000000000E+00 -0.00000000000E+00 -0.20720297361E+02  0.20720297361E+02  0.00000000000E+00 0. -1.
          2    1    1    2  501    0 -0.31962827611E+01  0.24707279849E+02  0.21125925390E+02  0.32664516292E+02  0.00000000000E+00 0. -1.
         21    1    1    2  503  501  0.31962827611E+01 -0.24707279849E+02 -0.45726689931E+01  0.25329334826E+02  0.00000000000E+00 0. -1.
</event>
<event>
 4    1  0.2402120E+005  0.2586565E+02  0.7546771E-02  0.1459348E+00
          2   -1    0    0  503    0  0.00000000000E+00  0.00000000000E+00  0.12538179262E+04  0.12538179262E+04  0.00000000000E+00 0.  1.
         21   -1    0    0  501  502 -0.00000000000E+00 -0.00000000000E+00 -0.55796165233E+00  0.55796165233E+00  0.00000000000E+00 0.  1.
          2    1    1    2  501    0 -0.13027340194E+02  0.22345472348E+02  0.75769540237E+03  0.75813676503E+03  0.00000000000E+00 0.  1.
         21    1    1    2  503  502  0.13027340194E+02 -0.22345472348E+02  0.49556456219E+03  0.49623912283E+03  0.00000000000E+00 0.  1.
</event>
<event>
 4    1  0.2402120E+005  0.3733126E+02  0.7546771E-02  0.1364876E+00
          2   -1    0    0  503    0  0.00000000000E+00  0.00000000000E+00  0.30029968801E+03  0.30029968801E+03  0.00000000000E+00 0. -1.
         21   -1    0    0  501  502 -0.00000000000E+00 -0.00000000000E+00 -0.46526016563E+01  0.46526016563E+01  0.00000000000E+00 0. -1.
          2    1    1    2  501    0  0.36414131792E+02 -0.82239799503E+01  0.14013556545E+03  0.14502275526E+03  0.00000000000E+00 0. -1.
         21    1    1    2  503  502 -0.36414131792E+02  0.82239799503E+01  0.15551152091E+03  0.15992953441E+03  0.00000000000E+00 0. -1.
</event>
<event>
 4    1  0.2402120E+005  0.3143660E+02  0.7546771E-02  0.1407510E+00
          2   -1    0    0  503    0  0.00000000000E+00  0.00000000000E+00  0.58023575722E+03  0.58023575722E+03  0.00000000000E+00 0. -1.
         21   -1    0    0  501  502 -0.00000000000E+00 -0.00000000000E+00 -0.24188433946E+01  0.24188433946E+01  0.00000000000E+00 0. -1.
          2    1    1    2  501    0 -0.71137794154E+01  0.30621139832E+02  0.44737016177E+03  0.44847332330E+03  0.00000000000E+00 0. -1.
         21    1    1    2  503  502  0.71137794154E+01 -0.30621139832E+02  0.13044675205E+03  0.13418127732E+03  0.00000000000E+00 0. -1.
</event>
<event>
 4    1  0.2402120E+005  0.2533472E+02  0.7546771E-02  0.1465093E+00
          2   -1    0    0  503    0  0.00000000000E+00  0.00000000000E+00  0.14316391177E+04  0.14316391177E+04  0.00000000000E+00 0.  1.
         21   -1    0    0  501  502 -0.00000000000E+00 -0.00000000000E+00 -0.60935730291E+02  0.60935730291E+02  0.00000000000E+00 0. -1.
          2    1    1    2  501    0  0.24416905481E+02  0.67574290488E+01  0.14288886670E+04  0.14291132463E+04  0.00000000000E+00 0.  1.
         21    1    1    2  503  502 -0.24416905481E+02 -0.67574290488E+01 -0.58185279612E+02  0.63461601651E+02  0.00000000000E+00 0. -1.
</event>
<event>
 4    1  0.2402120E+005  0.2344754E+02  0.7546771E-02  0.1486954E+00
          2   -1    0    0  503    0  0.00000000000E+00  0.00000000000E+00  0.12344904549E+02  0.12344904549E+02  0.00000000000E+00 0. -1.
         21   -1    0    0  501  502 -0.00000000000E+00 -0.00000000000E+00 -0.72321224857E+02  0.72321224857E+02  0.00000000000E+00 0. -1.
          2    1    1    2  501    0 -0.23423533614E+02 -0.10608139161E+01 -0.37485601495E+01  0.23745293351E+02  0.00000000000E+00 0. -1.
         21    1    1    2  503  502  0.23423533614E+02  0.10608139161E+01 -0.56227760159E+02  0.60920836055E+02  0.00000000000E+00 0. -1.
</event>
<event>
 4    1  0.2402120E+005  0.1135893E+03  0.7546771E-02  0.1142141E+00
          2   -1    0    0  503    0  0.00000000000E+00  0.00000000000E+00  0.31422154996E+03  0.31422154996E+03  0.00000000000E+00 0.  1.
         21   -1    0    0  501  502 -0.00000000000E+00 -0.00000000000E+00 -0.12057843193E+03  0.12057843193E+03  0.00000000000E+00 0.  1.
          2    1    1    2  501    0 -0.87068885111E+02  0.72948827480E+02  0.27336578671E+03  0.29602597104E+03  0.00000000000E+00 0.  1.
         21    1    1    2  503  502  0.87068885111E+02 -0.72948827480E+02 -0.79722668687E+02  0.13877401085E+03  0.00000000000E+00 0.  1.
</event>
<event>
 4    1  0.2402120E+005  0.6122450E+02  0.7546771E-02  0.1255728E+00
          2   -1    0    0  503    0  0.00000000000E+00  0.00000000000E+00  0.29482916890E+02  0.29482916890E+02  0.00000000000E+00 0. -1.
         21   -1    0    0  501  502 -0.00000000000E+00 -0.00000000000E+00 -0.12728971477E+03  0.12728971477E+03  0.00000000000E+00 0.  1.
          2    1    1    2  501    0  0.32661055665E+02  0.51785086621E+02 -0.51597254573E+02  0.80066949692E+02  0.00000000000E+00 0. -1.
         21    1    1    2  503  502 -0.32661055665E+02 -0.51785086621E+02 -0.46209543307E+02  0.76705681968E+02  0.00000000000E+00 0.  1.
</event>
<event>
 4    1  0.2402120E+005  0.2407859E+02  0.7546771E-02  0.1479381E+00
          2   -1    0    0  503    0  0.00000000000E+00  0.00000000000E+00  0.13220285702E+02  0.13220285702E+02  0.00000000000E+00 0. -1.
         21   -1    0    0  501  502 -0.00000000000E+00 -0.00000000000E+00 -0.44470932300E+02  0.44470932300E+02  0.00000000000E+00 0. -1.
          2    1    1    2  501    0 -0.63990580942E+01 -0.23212721878E+02 -0.12231148930E+02  0.27007025117E+02  0.00000000000E+00 0. -1.
         21    1    1    2  503  502  0.63990580942E+01  0.23212721878E+02 -0.19019497668E+02  0.30684192886E+02  0.00000000000E+00 0. -1.
</event>
<event>
 4    1  0.2402120E+005  0.2045189E+02  0.7546771E-02  0.1527236E+00
          2   -1    0    0  503    0  0.00000000000E+00  0.00000000000E+00  0.21400261381E+03  0.21400261381E+03  0.00000000000E+00 0.  1.
         21   -1    0    0  501  502 -0.00000000000E+00 -0.00000000000E+00 -0.33550170975E+01  0.33550170975E+01  0.00000000000E+00 0. -1.
          2    1    1    2  501    0 -0.99731102681E+01  0.17855449014E+02  0.17553932022E+03  0.17672671822E+03  0.00000000000E+00 0.  1.
         21    1    1    2  503  502  0.99731102681E+01 -0.17855449014E+02  0.35108276493E+02  0.40630912693E+02  0.00000000000E+00 0. -1.
</event>
<event>
 4    1  0.2402120E+005  0.3113854E+02  0.7546771E-02  0.1409954E+00
          2   -1    0    0  502    0  0.00000000000E+00  0.00000000000E+00  0.10943280284E+04  0.10943280284E+04  0.00000000000E+00 0.  1.
         21   -1    0    0  503  502 -0.00000000000E+00 -0.00000000000E+00 -0.14079871022E+01  0.14079871022E+01  0.00000000000E+00 0. -1.
          2    1    1    2  501    0  0.30361643364E+02  0.69122582120E+01  0.88003505360E+03  0.88058577337E+03  0.00000000000E+00 0.  1.
         21    1    1    2  503  501 -0.30361643364E+02 -0.69122582120E+01  0.21288498768E+03  0.21515024212E+03  0.00000000000E+00 0. -1.
</event>
<event>
 4    1  0.2402120E+005  0.2233069E+02  0.7546771E-02  0.1501078E+00
          2   -1    0    0  502    0  0.00000000000E+00  0.00000000000E+00  0.16464220965E+02  0.16464220965E+02  0.00000000000E+00 0. -1.
         21   -1    0    0  503  502 -0.00000000000E+00 -0.00000000000E+00 -0.27239213509E+03  0.27239213509E+03  0.00000000000E+00 0. -1.
          2    1    1    2  501    0 -0.98301559125E+01  0.20050632681E+02  0.81981353777E+01  0.23788006639E+02  0.00000000000E+00 0. -1.
         21    1    1    2  503  501  0.98301559125E+01 -0.20050632681E+02 -0.26412604950E+03  0.26506834941E+03  0.00000000000E+00 0. -1.
</event>
<event>
 4    1  0.2402120E+005  0.2852111E+02  0.7546771E-02  0.1432899E+00
          2   -1    0    0  503    0  0.00000000000E+00  0.00000000000E+00  0.15784039810E+02  0.15784039810E+02  0.00000000000E+00 0.  1.
         21   -1    0    0  501  502 -0.00000000000E+00 -0.00000000000E+00 -0.70386714882E+03  0.70386714882E+03  0.00000000000E+00 0. -1.
          2    1    1    2  501    0  0.28449662272E+02  0.20175337893E+01  0.23606159323E+01  0.28618634376E+02  0.00000000000E+00 0.  1.
         21    1    1    2  503  502 -0.28449662272E+02 -0.20175337893E+01 -0.69044372494E+03  0.69103255426E+03  0.00000000000E+00 0. -1.
</event>
<event>
 4    1  0.2402120E+005  0.2169167E+02  0.7546771E-02  0.1509614E+00
          2   -1    0    0  503    0  0.00000000000E+00  0.00000000000E+00  0.67282495119E+03  0.67282495119E+03  0.00000000000E+00 0. -1.
         21   -1    0    0  501  502 -0.00000000000E+00 -0.00000000000E+00 -0.99264481109E+00  0.99264481109E+00  0.00000000000E+00 0. -1.
          2    1    1    2  501    0 -0.11769300887E+02  0.18221200857E+02  0.51905492021E+03  0.51950797761E+03  0.00000000000E+00 0. -1.
         21    1    1    2  503  502  0.11769300887E+02 -0.18221200857E+02  0.15277738617E+03  0.15430961839E+03  0.00000000000E+00 0. -1.
</event>
<event>
 4    1  0.2402120E+005  0.2216220E+02  0.7546771E-02  0.1503295E+00
          2   -1    0    0  503    0  0.00000000000E+00  0.00000000000E+00  0.44008659935E+03  0.44008659935E+03  0.00000000000E+00 0.  1.
         21   -1    0    0  501  502 -0.00000000000E+00 -0.00000000000E+00 -0.22881921168E+02  0.22881921168E+02  0.00000000000E+00 0. -1.
          2    1    1    2  501    0  0.28891461217E+01  0.21973077870E+02  0.43437073399E+03  0.43493573992E+03  0.00000000000E+00 0.  1.
         21    1    1    2  503  502 -0.28891461217E+01 -0.21973077870E+02 -0.17166055801E+02  0.28032780600E+02  0.00000000000E+00 0. -1.
</event>
<event>
 4    1  0.2402120E+005  0.2151493E+02  0.7546771E-02  0.1512038E+00
          2   -1    0    0  503    0  0.00000000000E+00  0.00000000000E+00  0.22227720161E+03  0.22227720161E+03  0.00000000000E+00 0.  1.
         21   -1    0    0  501  502 -0.00000000000E+00 -0.00000000000E+00 -0.45749689959E+01  0.45749689959E+01  0.00000000000E+00 0.  1.
          2    1    1    2  501    0 -0.60088683980E+01 -0.20658790694E+02  0.19257199987E+03  0.19377014028E+03  0.00000000000E+00 0.  1.
         21    1    1    2  503  502  0.60088683980E+01  0.20658790694E+02  0.25130232745E+02  0.33082030322E+02  0.00000000000E+00 0.  1.
</event>
<event>
 4    1  0.2615659E+005  0.2016378E+02  0.7546771E-02  0.1531547E+00
          2   -1    0    0  502    0  0.00000000000E+00  0.00000000000E+00  0.45343044134E+03  0.45343044134E+03  0.00000000000E+00 0.  1.
         21   -1    0    0  503  502 -0.00000000000E+00 -0.00000000000E+00 -0.14066679060E+02  0.14066679060E+02  0.00000000000E+00 0.  1.
          2    1    1    2  501    0 -0.48226784375E+01  0.19578553656E+02  0.44585770092E+03  0.44631341841E+03  0.00000000000E+00 0.  1.
         21    1    1    2  503  501  0.48226784375E+01 -0.19578553656E+02 -0.64939386412E+01  0.21183701981E+02  0.00000000000E+00 0.  1.
</event>
<event>
 4    1  0.2402120E+005  0.2450179E+02  0.7546771E-02  0.1474455E+00
          2   -1    0    0  502    0  0.00000000000E+00  0.00000000000E+00  0.13226161597E+03  0.13226161597E+03  0.00000000000E+00 0.  1.
         21   -1    0    0  503  502 -0.00000000000E+00 -0.00000000000E+00 -0.21298195949E+02  0.21298195949E+02  0.00000000000E+00 0.  1.
          2    1    1    2  501    0 -0.20525181285E+02 -0.13381134086E+02  0.12359039994E+03  0.12599573316E+03  0.00000000000E+00 0.  1.
         21    1    1    2  503  501  0.20525181285E+02  0.13381134086E+02 -0.12626979918E+02  0.27564078763E+02  0.00000000000E+00 0.  1.
</event>
<event>
 4    1  0.2402120E+005  0.2337876E+02  0.7546771E-02  0.1487796E+00
          2   -1    0    0  502    0  0.00000000000E+00  0.00000000000E+00  0.18180158343E+02  0.18180158343E+02  0.00000000000E+00 0.  1.
         21   -1    0    0  503  502 -0.00000000000E+00 -0.00000000000E+00 -0.42058591501E+02  0.42058591501E+02  0.00000000000E+00 0.  1.
          2    1    1    2  501    0  0.23109581231E+02  0.35374401966E+01  0.41454983086E+01  0.23743449287E+02  0.00000000000E+00 0.  1.
         21    1    1    2  503  501 -0.23109581231E+02 -0.35374401966E+01 -0.28023931467E+02  0.36495300556E+02  0.00000000000E+00 0.  1.
</event>
<event>
 4    1  0.2402120E+005  0.2483353E+02  0.7546771E-02  0.1470674E+00
          2   -1    0    0  503    0  0.00000000000E+00  0.00000000000E+00  0.38307196412E+02  0.38307196412E+02  0.00000000000E+00 0. -1.
         21   -1    0    0  501  502 -0.00000000000E+00 -0.00000000000E+00 -0.12230407856E+03  0.12230407856E+03  0.00000000000E+00 0. -1.
          2    1    1    2  501    0  0.68046887495E+01  0.23883059642E+02  0.32835458805E+02  0.41168819291E+02  0.00000000000E+00 0. -1.
         21    1    1    2  503  502 -0.68046887495E+01 -0.23883059642E+02 -0.11683234095E+03  0.11944245568E+03  0.00000000000E+00 0. -1.
</event>
<event>
 4    1  0.2402120E+005  0.2185905E+02  0.7546771E-02  0.1507344E+00
          2   -1    0    0  503    0  0.00000000000E+00  0.00000000000E+00  0.17787242578E+02  0.17787242578E+02  0.00000000000E+00 0. -1.
         21   -1    0    0  501  502 -0.00000000000E+00 -0.00000000000E+00 -0.28119084995E+02  0.28119084995E+02  0.00000000000E+00 0. -1.
          2    1    1    2  501    0 -0.21840795409E+02 -0.89325334087E+00 -0.31464649992E+00  0.21861318534E+02  0.00000000000E+00 0. -1.
         21    1    1    2  503  502  0.21840795409E+02  0.89325334087E+00 -0.10017195916E+02  0.24045009039E+02  0.00000000000E+00 0. -1.
</event>
<event>
 4    1  0.2402120E+005  0.2683699E+02  0.7546771E-02  0.1449252E+00
          2   -1    0    0  503    0  0.00000000000E+00  0.00000000000E+00  0.23768683909E+03  0.23768683909E+03  0.00000000000E+00 0.  1.
         21   -1    0    0  501  502 -0.00000000000E+00 -0.00000000000E+00 -0.32872991650E+01  0.32872991650E+01  0.00000000000E+00 0. -1.
          2    1    1    2  501    0 -0.72689320935E+01 -0.25833829822E+02  0.15089921572E+03  0.15326707879E+03  0.00000000000E+00 0.  1.
         21    1    1    2  503  502  0.72689320935E+01  0.25833829822E+02  0.83500324211E+02  0.87707059467E+02  0.00000000000E+00 0. -1.
</event>
<event>
 4    1  0.2402120E+005  0.2097268E+02  0.7546771E-02  0.1519655E+00
          2   -1    0    0  503    0  0.00000000000E+00  0.00000000000E+00  0.23387801765E+03  0.23387801765E+03  0.00000000000E+00 0. -1.
         21   -1    0    0  501  502 -0.00000000000E+00 -0.00000000000E+00 -0.32747518748E+01  0.32747518748E+01  0.00000000000E+00 0. -1.
          2    1    1    2  501    0  0.14368516209E+01  0.20923400388E+02  0.19266747308E+03  0.19380559437E+03  0.00000000000E+00 0. -1.
         21    1    1    2  503  502 -0.14368516209E+01 -0.20923400388E+02  0.37935792692E+02  0.43347175151E+02  0.00000000000E+00 0. -1.
</event>
<event>
 4    1  0.2402120E+005  0.2241204E+02  0.7546771E-02  0.1500016E+00
          2   -1    0    0  502    0  0.00000000000E+00  0.00000000000E+00  0.19199499920E+02  0.19199499920E+02  0.00000000000E+00 0. -1.
         21   -1    0    0  503  502 -0.00000000000E+00 -0.00000000000E+00 -0.17155247529E+03  0.17155247529E+03  0.00000000000E+00 0. -1.
          2    1    1    2  501    0  0.11197680712E+02 -0.19414213445E+02  0.11626307851E+02  0.25248183524E+02  0.00000000000E+00 0. -1.
         21    1    1    2  503  501 -0.11197680712E+02  0.19414213445E+02 -0.16397928323E+03  0.16550379169E+03  0.00000000000E+00 0. -1.
</event>
<event>
 4    1  0.2402120E+005  0.2240623E+02  0.7546771E-02  0.1500092E+00
          2   -1    0    0  502    0  0.00000000000E+00  0.00000000000E+00  0.14609065010E+04  0.14609065010E+04  0.00000000000E+00 0.  1.
         21   -1    0    0  503  502 -0.00000000000E+00 -0.00000000000E+00 -0.59181151686E+00  0.59181151686E+00  0.00000000000E+00 0.  1.
          2    1    1    2  501    0 -0.37571192037E+01 -0.22088988182E+02  0.12033571290E+04  0.12035657104E+04  0.00000000000E+00 0.  1.
         21    1    1    2  503  501  0.37571192037E+01  0.22088988182E+02  0.25695756049E+03  0.25793260212E+03  0.00000000000E+00 0.  1.
</event>
<event>
 4    1  0.2402120E+005  0.3222360E+02  0.7546771E-02  0.1401209E+00
          2   -1    0    0  503    0  0.00000000000E+00  0.00000000000E+00  0.22958487952E+03  0.22958487952E+03  0.00000000000E+00 0. -1.
         21   -1    0    0  501  502 -0.00000000000E+00 -0.00000000000E+00 -0.78519606025E+01  0.78519606025E+01  0.00000000000E+00 0. -1.
          2    1    1    2  501    0  0.24602200433E+02  0.20810872912E+02  0.18816976627E+03  0.19090893545E+03  0.00000000000E+00 0. -1.
         21    1    1    2  503  502 -0.24602200433E+02 -0.20810872912E+02  0.33563152653E+02  0.46527904675E+02  0.00000000000E+00 0. -1.
</event>
<event>
 4    1  0.2402120E+005  0.3353084E+02  0.7546771E-02  0.1391197E+00
          2   -1    0    0  503    0  0.00000000000E+00  0.00000000000E+00  0.11596404204E+03  0.11596404204E+03  0.00000000000E+00 0.  1.
         21   -1    0    0  501  502 -0.00000000000E+00 -0.00000000000E+00 -0.74395744211E+02  0.74395744211E+02  0.00000000000E+00 0. -1.
          2    1    1    2  501    0 -0.33357120826E+02 -0.34087691950E+01  0.10954561730E+03  0.11456246981E+03  0.00000000000E+00 0.  1.
         21    1    1    2  503  502  0.33357120826E+02  0.34087691950E+01 -0.67977319476E+02  0.75797316445E+02  0.00000000000E+00 0. -1.
</event>
<event>
 4    1  0.2402120E+005  0.2055101E+02  0.7546771E-02  0.1525773E+00
          2   -1    0    0  502    0  0.00000000000E+00  0.00000000000E+00  0.96489621366E+03  0.96489621366E+03  0.00000000000E+00 0.  1.
         21   -1    0    0  503  502 -0.00000000000E+00 -0.00000000000E+00 -0.78666001723E+00  0.78666001723E+00  0.00000000000E+00 0.  1.
          2    1    1    2  501    0 -0.34449712922E+01 -0.20260213189E+02  0.80363773814E+03  0.80390046537E+03  0.00000000000E+00 0.  1.
         21    1    1    2  503  501  0.34449712922E+01  0.20260213189E+02  0.16047181551E+03  0.16178240831E+03  0.00000000000E+00 0.  1.
</event>
<event>
 4    1  0.2402120E+005  0.2877613E+02  0.7546771E-02  0.1430539E+00
          2   -1    0    0  503    0  0.00000000000E+00  0.00000000000E+00  0.12760599863E+04  0.12760599863E+04  0.00000000000E+00 0. -1.
         21   -1    0    0  501  502 -0.00000000000E+00 -0.00000000000E+00 -0.65644299334E+00  0.65644299334E+00  0.00000000000E+00 0. -1.
          2    1    1    2  501    0 -0.15979076043E+02 -0.23931872855E+02  0.70602337294E+03  0.70660955878E+03  0.00000000000E+00 0. -1.
         21    1    1    2  503  502  0.15979076043E+02  0.23931872855E+02  0.56938017039E+03  0.57010687054E+03  0.00000000000E+00 0. -1.
</event>
<event>
 4    1  0.2402120E+005  0.2062827E+02  0.7546771E-02  0.1524639E+00
          2   -1    0    0  502    0  0.00000000000E+00  0.00000000000E+00  0.44823356640E+03  0.44823356640E+03  0.00000000000E+00 0. -1.
         21   -1    0    0  503  502 -0.00000000000E+00 -0.00000000000E+00 -0.35296845645E+01  0.35296845645E+01  0.00000000000E+00 0. -1.
          2    1    1    2  501    0 -0.17915366204E+02 -0.10225720911E+02  0.41548288868E+03  0.41599465922E+03  0.00000000000E+00 0. -1.
         21    1    1    2  503  501  0.17915366204E+02  0.10225720911E+02  0.29220993159E+02  0.35768591747E+02  0.00000000000E+00 0. -1.
</event>
<event>
 4    1  0.2402120E+005  0.2352507E+02  0.7546771E-02  0.1486008E+00
          2   -1    0    0  503    0  0.00000000000E+00  0.00000000000E+00  0.98329230030E+03  0.98329230030E+03  0.00000000000E+00 0.  1.
         21   -1    0    0  501  502 -0.00000000000E+00 -0.00000000000E+00 -0.14930967742E+02  0.14930967742E+02  0.00000000000E+00 0.  1.
          2    1    1    2  501    0  0.10790415951E+02  0.20904440748E+02  0.97379477098E+03  0.97407889039E+03  0.00000000000E+00 0.  1.
         21    1    1    2  503  502 -0.10790415951E+02 -0.20904440748E+02 -0.54334384154E+01  0.24144377656E+02  0.00000000000E+00 0.  1.
</event>
<event>
 4    1  0.2402120E+005  0.5036970E+02  0.7546771E-02  0.1296577E+00
          2   -1    0    0  502    0  0.00000000000E+00  0.00000000000E+00  0.61893553505E+02  0.61893553505E+02  0.00000000000E+00 0.  1.
         21   -1    0    0  503  502 -0.00000000000E+00 -0.00000000000E+00 -0.13318408563E+03  0.13318408563E+03  0.00000000000E+00 0. -1.
          2    1    1    2  501    0 -0.39012479930E+02 -0.31861159323E+02  0.45506770426E+02  0.67882053728E+02  0.00000000000E+00 0.  1.
         21    1    1    2  503  501  0.39012479930E+02  0.31861159323E+02 -0.11679730255E+03  0.12719558541E+03  0.00000000000E+00 0. -1.
</event>
<event>
 4    1  0.2402120E+005  0.3322923E+02  0.7546771E-02  0.1393459E+00
          2   -1    0    0  502    0  0.00000000000E+00  0.00000000000E+00  0.98073194237E+03  0.98073194237E+03  0.00000000000E+00 0. -1.
         21   -1    0    0  503  502 -0.00000000000E+00 -0.00000000000E+00 -0.32524786275E+02  0.32524786275E+02  0.00000000000E+00 0.  1.
          2    1    1    2  501    0  0.91039158009E+00 -0.33216755711E+02  0.97188601458E+03  0.97245390997E+03  0.00000000000E+00 0. -1.
         21    1    1    2  503  501 -0.91039158009E+00  0.33216755711E+02 -0.23678858486E+02  0.40802818677E+02  0.00000000000E+00 0.  1.
</event>
<event>
 4    1  0.2402120E+005  0.5495027E+02  0.7546771E-02  0.1278027E+00
          2   -1    0    0  503    0  0.00000000000E+00  0.00000000000E+00  0.14170259592E+04  0.14170259592E+04  0.00000000000E+00 0.  1.
         21   -1    0    0  501  502 -0.00000000000E+00 -0.00000000000E+00 -0.27351351741E+01  0.27351351741E+01  0.00000000000E+00 0. -1.
          2    1    1    2  501    0  0.25158886784E+02  0.48852452268E+02  0.10408031083E+04  0.10422526766E+04  0.00000000000E+00 0.  1.
         21    1    1    2  503  502 -0.25158886784E+02 -0.48852452268E+02  0.37348771580E+03  0.37750841782E+03  0.00000000000E+00 0. -1.
</event>
<event>
 4    1  0.2402120E+005  0.2343744E+02  0.7546771E-02  0.1487077E+00
          2   -1    0    0  502    0  0.00000000000E+00  0.00000000000E+00  0.71842153183E+02  0.71842153183E+02  0.00000000000E+00 0.  1.
         21   -1    0    0  503  502 -0.00000000000E+00 -0.00000000000E+00 -0.25372043560E+03  0.25372043560E+03  0.00000000000E+00 0. -1.
          2    1    1    2  501    0 -0.12139443644E+02  0.20048630988E+02  0.69370601342E+02  0.73222906436E+02  0.00000000000E+00 0.  1.
         21    1    1    2  503  501  0.12139443644E+02 -0.20048630988E+02 -0.25124888376E+03  0.25233968235E+03  0.00000000000E+00 0. -1.
</event>
<event>
 4    1  0.2402120E+005  0.2331695E+02  0.7546771E-02  0.1488556E+00
          2   -1    0    0  502    0  0.00000000000E+00  0.00000000000E+00  0.11341363476E+03  0.11341363476E+03  0.00000000000E+00 0. -1.
         21   -1    0    0  503  502 -0.00000000000E+00 -0.00000000000E+00 -0.22384141990E+03  0.22384141990E+03  0.00000000000E+00 0.  1.
          2    1    1    2  501    0  0.23176299125E+02  0.25572121067E+01  0.11159820119E+03  0.11400806412E+03  0.00000000000E+00 0. -1.
         21    1    1    2  503  501 -0.23176299125E+02 -0.25572121067E+01 -0.22202598633E+03  0.22324699053E+03  0.00000000000E+00 0.  1.
</event>
<event>
 4    1  0.2402120E+005  0.2156574E+02  0.7546771E-02  0.1511339E+00
          2   -1    0    0  503    0  0.00000000000E+00  0.00000000000E+00  0.14047020647E+02  0.14047020647E+02  0.00000000000E+00 0.  1.
         21   -1    0    0  501  502 -0.00000000000E+00 -0.00000000000E+00 -0.35317232098E+02  0.35317232098E+02  0.00000000000E+00 0.  1.
          2    1    1    2  501    0  0.20438573506E+02  0.68808379376E+01 -0.44631511118E+01  0.22022736786E+02  0.00000000000E+00 0.  1.
         21    1    1    2  503  502 -0.20438573506E+02 -0.68808379376E+01 -0.16807060339E+02  0.27341515959E+02  0.00000000000E+00 0.  1.
</event>
<event>
 4    1  0.2402120E+005  0.2472406E+02  0.7546771E-02  0.1471914E+00
          2   -1    0    0  502    0  0.00000000000E+00  0.00000000000E+00  0.11018029117E+04  0.11018029117E+04  0.00000000000E+00 0. -1.
         21   -1    0    0  503  502 -0.00000000000E+00 -0.00000000000E+00 -0.13529315138E+01  0.13529315138E+01  0.00000000000E+00 0. -1.
          2    1    1    2  501    0 -0.23949013733E+02  0.61419795913E+01  0.97387426220E+03  0.97418805051E+03  0.00000000000E+00 0. -1.
         21    1    1    2  503  501  0.23949013733E+02 -0.61419795913E+01  0.12657571794E+03  0.12896779266E+03  0.00000000000E+00 0. -1.
</event>
<event>
 4    1  0.2402120E+005  0.2267977E+02  0.7546771E-02  0.1496559E+00
          2   -1    0    0  503    0  0.00000000000E+00  0.00000000000E+00  0.88052464954E+02  0.88052464954E+02  0.00000000000E+00 0. -1.
         21   -1    0    0  501  502 -0.00000000000E+00 -0.00000000000E+00 -0.68877034384E+01  0.68877034384E+01  0.00000000000E+00 0. -1.
          2    1    1    2  501    0  0.49171097084E+01 -0.22140329637E+02  0.59081820698E+02  0.63285335595E+02  0.00000000000E+00 0. -1.
         21    1    1    2  503  502 -0.49171097084E+01  0.22140329637E+02  0.22082940817E+02  0.31654832798E+02  0.00000000000E+00 0. -1.
</event>
<event>
 4    1  0.2402120E+005  0.3437672E+02  0.7546771E-02  0.1384999E+00
          2   -1    0    0  503    0  0.00000000000E+00  0.00000000000E+00  0.66152556575E+03  0.66152556575E+03  0.00000000000E+00 0.  1.
         21   -1    0    0  501  502 -0.00000000000E+00 -0.00000000000E+00 -0.18105549757E+01  0.18105549757E+01  0.00000000000E+00 0.  1.
          2    1    1    2  501    0  0.27020180766E+02 -0.21252495625E+02  0.36815517861E+03  0.36975666900E+03  0.00000000000E+00 0.  1.
         21    1    1    2  503  502 -0.27020180766E+02  0.21252495625E+02  0.29155983217E+03  0.29357945172E+03  0.00000000000E+00 0.  1.
</event>
<event>
 4    1  0.2402120E+005  0.3087343E+02  0.7546771E-02  0.1412155E+00
          2   -1    0    0  502    0  0.00000000000E+00  0.00000000000E+00  0.71924081102E+03  0.71924081102E+03  0.00000000000E+00 0. -1.
         21   -1    0    0  503  502 -0.00000000000E+00 -0.00000000000E+00 -0.54814861121E+03  0.54814861121E+03  0.00000000000E+00 0.  1.
          2    1    1    2  501    0 -0.13715005078E+02  0.27659845700E+02  0.71847431513E+03  0.71913733732E+03  0.00000000000E+00 0. -1.
         21    1    1    2  503  501  0.13715005078E+02 -0.27659845700E+02 -0.54738211532E+03  0.54825208490E+03  0.00000000000E+00 0.  1.
</event>
<event>
 4    1  0.2402120E+005  0.2132024E+02  0.7546771E-02  0.1514741E+00
          2   -1    0    0  503    0  0.00000000000E+00  0.00000000000E+00  0.62535470811E+01  0.62535470811E+01  0.00000000000E+00 0.  1.
         21   -1    0    0  501  502 -0.00000000000E+00 -0.00000000000E+00 -0.74958696180E+02  0.74958696180E+02  0.00000000000E+00 0.  1.
          2    1    1    2  501    0 -0.18679332412E+02 -0.10277893098E+02 -0.27283854086E+02  0.34626019692E+02  0.00000000000E+00 0.  1.
         21    1    1    2  503  502  0.18679332412E+02  0.10277893098E+02 -0.41421295013E+02  0.46586223570E+02  0.00000000000E+00 0.  1.
</event>
<event>
 4    1  0.2402120E+005  0.3269134E+02  0.7546771E-02  0.1397563E+00
          2   -1    0    0  502    0  0.00000000000E+00  0.00000000000E+00  0.21206645193E+04  0.21206645193E+04  0.00000000000E+00 0.  1.
         21   -1    0    0  503  502 -0.00000000000E+00 -0.00000000000E+00 -0.11666846514E+01  0.11666846514E+01  0.00000000000E+00 0.  1.
          2    1    1    2  501    0 -0.23165717866E+02 -0.23066714903E+02  0.18593467817E+04  0.18596341518E+04  0.00000000000E+00 0.  1.
         21    1    1    2  503  501  0.23165717866E+02  0.23066714903E+02  0.26015105287E+03  0.26219705210E+03  0.00000000000E+00 0.  1.
</event>
<event>
 4    1  0.2402120E+005  0.3414022E+02  0.7546771E-02  0.1386710E+00
          2   -1    0    0  502    0  0.00000000000E+00  0.00000000000E+00  0.13798684441E+02  0.13798684441E+02  0.00000000000E+00 0. -1.
         21   -1    0    0  503  502 -0.00000000000E+00 -0.00000000000E+00 -0.16761090562E+03  0.16761090562E+03  0.00000000000E+00 0.  1.
          2    1    1    2  501    0 -0.27835120364E+02  0.19767665961E+02 -0.13022370568E+02  0.36539522143E+02  0.00000000000E+00 0. -1.
         21    1    1    2  503  501  0.27835120364E+02 -0.19767665961E+02 -0.14078985061E+03  0.14487006792E+03  0.00000000000E+00 0.  1.
</event>
<event>
 4    1  0.2402120E+005  0.3829698E+02  0.7546771E-02  0.1358765E+00
          2   -1    0    0  503    0  0.00000000000E+00  0.00000000000E+00  0.76596292088E+02  0.76596292088E+02  0.00000000000E+00 0.  1.
         21   -1    0    0  501  502 -0.00000000000E+00 -0.00000000000E+00 -0.23663198914E+02  0.23663198914E+02  0.00000000000E+00 0.  1.
          2    1    1    2  501    0 -0.29324272127E+00 -0.38295858616E+02  0.48364404101E+02  0.61690958514E+02  0.00000000000E+00 0.  1.
         21    1    1    2  503  502  0.29324272127E+00  0.38295858616E+02  0.45686890731E+01  0.38568532487E+02  0.00000000000E+00 0.  1.
</event>
<event>
 4    1  0.2402120E+005  0.2047005E+02  0.7546771E-02  0.1526967E+00
          2   -1    0    0  503    0  0.00000000000E+00  0.00000000000E+00  0.76419171304E+02  0.76419171304E+02  0.00000000000E+00 0. -1.
         21   -1    0    0  501  502 -0.00000000000E+00 -0.00000000000E+00 -0.15272693331E+02  0.15272693331E+02  0.00000000000E+00 0. -1.
          2    1    1    2  501    0  0.19615559394E+02 -0.58525939481E+01  0.67278024171E+02  0.70323222072E+02  0.00000000000E+00 0. -1.
         21    1    1    2  503  502 -0.19615559394E+02  0.58525939481E+01 -0.61315461971E+01  0.21368642564E+02  0.00000000000E+00 0. -1.
</event>
<event>
 4    1  0.2402120E+005  0.2141413E+02  0.7546771E-02  0.1513434E+00
          2   -1    0    0  502    0  0.00000000000E+00  0.00000000000E+00  0.21470176836E+01  0.21470176836E+01  0.00000000000E+00 0.  1.
         21   -1    0    0  503  502 -0.00000000000E+00 -0.00000000000E+00 -0.36452659153E+03  0.36452659153E+03  0.00000000000E+00 0. -1.
          2    1    1    2  501    0 -0.86445546560E+01 -0.19591751188E+02 -0.63213872126E+02  0.66742480243E+02  0.00000000000E+00 0.  1.
         21    1    1    2  503  501  0.86445546560E+01  0.19591751188E+02 -0.29916570172E+03  0.29993112897E+03  0.00000000000E+00 0. -1.
</event>
<event>
 4    1  0.2402120E+005  0.2232699E+02  0.7546771E-02  0.1501127E+00
          2   -1    0    0  503    0  0.00000000000E+00  0.00000000000E+00  0.11491825951E+03  0.11491825951E+03  0.00000000000E+00 0. -1.
         21   -1    0    0  501  502 -0.00000000000E+00 -0.00000000000E+00 -0.14060053753E+02  0.14060053753E+02  0.00000000000E+00 0.  1.
          2    1    1    2  501    0  0.18258314222E+02  0.12850234258E+02  0.10405520964E+03  0.10642359330E+03  0.00000000000E+00 0. -1.
         21    1    1    2  503  502 -0.18258314222E+02 -0.12850234258E+02 -0.31970038799E+01  0.22554719961E+02  0.00000000000E+00 0.  1.
</event>
<event>
 4    1  0.2402120E+005  0.2195876E+02  0.7546771E-02  0.1506004E+00
          2   -1    0    0  502    0  0.00000000000E+00  0.00000000000E+00  0.67818651027E+01  0.67818651027E+01  0.00000000000E+00 0. -1.
         21   -1    0    0  503  502 -0.00000000000E+00 -0.00000000000E+00 -0.13664275644E+03  0.13664275644E+03  0.00000000000E+00 0.  1.
          2    1    1    2  501    0 -0.12600603125E+02 -0.17983659144E+02 -0.15263845950E+02  0.26742703463E+02  0.00000000000E+00 0. -1.
         21    1    1    2  503  501  0.12600603125E+02  0.17983659144E+02 -0.11459704538E+03  0.11668191808E+03  0.00000000000E+00 0.  1.
</event>
<event>
 4    1  0.2402120E+005  0.2068359E+02  0.7546771E-02  0.1523831E+00
          2   -1    0    0  503    0  0.00000000000E+00  0.00000000000E+00  0.58955603501E+03  0.58955603501E+03  0.00000000000E+00 0.  1.
         21   -1    0    0  501  502 -0.00000000000E+00 -0.00000000000E+00 -0.10315261049E+02  0.10315261049E+02  0.00000000000E+00 0.  1.
          2    1    1    2  501    0  0.94068512072E+01  0.18420698190E+02  0.57881385842E+03  0.57918329886E+03  0.00000000000E+00 0.  1.
         21    1    1    2  503  502 -0.94068512072E+01 -0.18420698190E+02  0.42691553844E+00  0.20687997204E+02  0.00000000000E+00 0.  1.
</event>
<event>
 4    1  0.2402120E+005  0.2139980E+02  0.7546771E-02  0.1513633E+00
          2   -1    0    0  503    0  0.00000000000E+00  0.00000000000E+00  0.60756294332E+01  0.60756294332E+01  0.00000000000E+00 0.  1.
         21   -1    0    0  501  502 -0.00000000000E+00 -0.00000000000E+00 -0.12162423729E+03  0.12162423729E+03  0.00000000000E+00 0.  1.
          2    1    1    2  501    0  0.16486824168E+02  0.13643176102E+02 -0.18401000447E+02  0.28223189805E+02  0.00000000000E+00 0.  1.
         21    1    1    2  503  502 -0.16486824168E+02 -0.13643176102E+02 -0.97147607408E+02  0.99476676917E+02  0.00000000000E+00 0.  1.
</event>
<event>
 4    1  0.2402120E+005  0.2194175E+02  0.7546771E-02  0.1506232E+00
          2   -1    0    0  502    0  0.00000000000E+00  0.00000000000E+00  0.11356195976E+04  0.11356195976E+04  0.00000000000E+00 0. -1.
         21   -1    0    0  503  502 -0.00000000000E+00 -0.00000000000E+00 -0.52668236068E+00  0.52668236068E+00  0.00000000000E+00 0. -1.
          2    1    1    2  501    0 -0.19050957280E+02  0.10885826134E+02  0.81844272149E+03  0.81873678832E+03  0.00000000000E+00 0. -1.
         21    1    1    2  503  501  0.19050957280E+02 -0.10885826134E+02  0.31665019372E+03  0.31740949162E+03  0.00000000000E+00 0. -1.
</event>
<event>
 4    1  0.2402120E+005  0.2114306E+02  0.7546771E-02  0.1517232E+00
          2   -1    0    0  503    0  0.00000000000E+00  0.00000000000E+00  0.57946978317E+03  0.57946978317E+03  0.00000000000E+00 0.  1.
         21   -1    0    0  501  502 -0.00000000000E+00 -0.00000000000E+00 -0.10365439421E+01  0.10365439421E+01  0.00000000000E+00 0. -1.
          2    1    1    2  501    0 -0.20630463186E+02  0.46273959462E+01  0.43600357792E+03  0.43651592040E+03  0.00000000000E+00 0.  1.
         21    1    1    2  503  502  0.20630463186E+02 -0.46273959462E+01  0.14242966131E+03  0.14399040672E+03  0.00000000000E+00 0. -1.
</event>
<event>
 4    1  0.2402120E+005  0.2191230E+02  0.7546771E-02  0.1506627E+00
          2   -1    0    0  503    0  0.00000000000E+00  0.00000000000E+00  0.12361152080E+03  0.12361152080E+03  0.00000000000E+00 0. -1.
         21   -1    0    0  501  502 -0.00000000000E+00 -0.00000000000E+00 -0.18627523590E+02  0.18627523590E+02  0.00000000000E+00 0.  1.
          2    1    1    2  501    0  0.12948358515E+02  0.17677357041E+02  0.11576332428E+03  0.11781891269E+03  0.00000000000E+00 0. -1.
         21    1    1    2  503  502 -0.12948358515E+02 -0.17677357041E+02 -0.10779327067E+02  0.24420131699E+02  0.00000000000E+00 0.  1.
</event>
<event>
 4    1  0.2402120E+005  0.3956993E+02  0.7546771E-02  0.1351025E+00
          2   -1    0    0  503    0  0.00000000000E+00  0.00000000000E+00  0.50826833461E+03  0.50826833461E+03  0.00000000000E+00 0.  1.
         21   -1    0    0  501  502 -0.00000000000E+00 -0.00000000000E+00 -0.34408562013E+01  0.34408562013E+01  0.00000000000E+00 0. -1.
          2    1    1    2  501    0  0.26320273308E+02  0.29546961555E+02  0.33519954082E+03  0.33752705357E+03  0.00000000000E+00 0.  1.
         21    1    1    2  503  502 -0.26320273308E+02 -0.29546961555E+02  0.16962793759E+03  0.17418213725E+03  0.00000000000E+00 0. -1.
</event>
<event>
 4    1  0.2402120E+005  0.2011247E+02  0.7546771E-02  0.1532323E+00
          2   -1    0    0  502    0  0.00000000000E+00  0.00000000000E+00  0.90928263143E+02  0.90928263143E+02  0.00000000000E+00 0.  1.
         21   -1    0    0  503  502 -0.00000000000E+00 -0.00000000000E+00 -0.12656141212E+03  0.12656141212E+03  0.00000000000E+00 0.  1.
          2    1    1    2  501    0 -0.17224341490E+02  0.10384286451E+02  0.88999953062E+02  0.91244194280E+02  0.00000000000E+00 0.  1.
         21    1    1    2  503  501  0.17224341490E+02 -0.10384286451E+02 -0.12463310204E+03  0.12624548098E+03  0.00000000000E+00 0.  1.
</event>
<event>
 4    1  0.2402120E+005  0.3041298E+02  0.7546771E-02  0.1416041E+00
          2   -1    0    0  502    0  0.00000000000E+00  0.00000000000E+00  0.67743781831E+03  0.67743781831E+03  0.00000000000E+00 0. -1.
         21   -1    0    0  503  502 -0.00000000000E+00 -0.00000000000E+00 -0.20283124537E+03  0.20283124537E+03  0.00000000000E+00 0.  1.
          2    1    1    2  501    0 -0.27000307242E+02  0.13997603830E+02  0.67595392767E+03  0.67663776264E+03  0.00000000000E+00 0. -1.
         21    1    1    2  503  501  0.27000307242E+02 -0.13997603830E+02 -0.20134735473E+03  0.20363130104E+03  0.00000000000E+00 0.  1.
</event>
<event>
 4    1  0.2402120E+005  0.3477421E+02  0.7546771E-02  0.1382158E+00
          2   -1    0    0  503    0  0.00000000000E+00  0.00000000000E+00  0.23978748228E+03  0.23978748228E+03  0.00000000000E+00 0.  1.
         21   -1    0    0  501  502 -0.00000000000E+00 -0.00000000000E+00 -0.11040676415E+02  0.11040676415E+02  0.00000000000E+00 0. -1.
          2    1    1    2  501    0 -0.27227686711E+02 -0.21630969259E+02  0.20680923383E+03  0.20971243395E+03  0.00000000000E+00 0.  1.
         21    1    1    2  503  502  0.27227686711E+02  0.21630969259E+02  0.21937572032E+02  0.41115724746E+02  0.00000000000E+00 0. -1.
</event>
<event>
 4    1  0.2402120E+005  0.2680986E+02  0.7546771E-02  0.1449527E+00
          2   -1    0    0  502    0  0.00000000000E+00  0.00000000000E+00  0.31321443434E+03  0.31321443434E+03  0.00000000000E+00 0. -1.
         21   -1    0    0  503  502 -0.00000000000E+00 -0.00000000000E+00 -0.21331626705E+02  0.21331626705E+02  0.00000000000E+00 0.  1.
          2    1    1    2  501    0 -0.24635326873E+02 -0.10576835371E+02  0.30396104072E+03  0.30514108713E+03  0.00000000000E+00 0. -1.
         21    1    1    2  503  501  0.24635326873E+02  0.10576835371E+02 -0.12078233087E+02  0.29404973918E+02  0.00000000000E+00 0.  1.
</event>
<event>
 4    1  0.2402120E+005  0.2791277E+02  0.7546771E-02  0.1438648E+00
          2   -1    0    0  503    0  0.00000000000E+00  0.00000000000E+00  0.44233820783E+03  0.44233820783E+03  0.00000000000E+00 0.  1.
         21   -1    0    0  501  502 -0.00000000000E+00 -0.00000000000E+00 -0.26634714871E+01  0.26634714871E+01  0.00000000000E+00 0. -1.
          2    1    1    2  501    0  0.10463089867E+02 -0.25877533637E+02  0.34932681531E+03  0.35044021871E+03  0.00000000000E+00 0.  1.
         21    1    1    2  503  502 -0.10463089867E+02  0.25877533637E+02  0.90347921035E+02  0.94561460607E+02  0.00000000000E+00 0. -1.
</event>
<event>
 4    1  0.2402120E+005  0.2272990E+02  0.7546771E-02  0.1495918E+00
          2   -1    0    0  503    0  0.00000000000E+00  0.00000000000E+00  0.92595013352E+00  0.92595013352E+00  0.00000000000E+00 0.  1.
         21   -1    0    0  501  502 -0.00000000000E+00 -0.00000000000E+00 -0.65825237652E+03  0.65825237652E+03  0.00000000000E+00 0.  1.
          2    1    1    2  501    0  0.10489037058E+02  0.20165030575E+02 -0.20001656926E+03  0.20130394019E+03  0.00000000000E+00 0.  1.
         21    1    1    2  503  502 -0.10489037058E+02 -0.20165030575E+02 -0.45730985712E+03  0.45787438646E+03  0.00000000000E+00 0.  1.
</event>
<event>
 4    1  0.2402120E+005  0.4820439E+02  0.7546771E-02  0.1306151E+00
          2   -1    0    0  503    0  0.00000000000E+00  0.00000000000E+00  0.89261175356E+02  0.89261175356E+02  0.00000000000E+00 0. -1.
         21   -1    0    0  501  502 -0.00000000000E+00 -0.00000000000E+00 -0.93621058807E+02  0.93621058807E+02  0.00000000000E+00 0.  1.
          2    1    1    2  501    0  0.19028289089E+02  0.44289813356E+02  0.75514930454E+02  0.89588883653E+02  0.00000000000E+00 0. -1.
         21    1    1    2  503  502 -0.19028289089E+02 -0.44289813356E+02 -0.79874813905E+02  0.93293350509E+02  0.00000000000E+00 0.  1.
</event>
<event>
 4    1  0.2402120E+005  0.2377725E+02  0.7546771E-02  0.1482962E+00
          2   -1    0    0  502    0  0.00000000000E+00  0.00000000000E+00  0.12055451496E+02  0.12055451496E+02  0.00000000000E+00 0.  1.
         21   -1    0    0  503  502 -0.00000000000E+00 -0.00000000000E+00 -0.17388794176E+03  0.17388794176E+03  0.00000000000E+00 0. -1.
          2    1    1    2  501    0 -0.23777213465E+02  0.43600915742E-01 -0.14645167668E+01  0.23822312872E+02  0.00000000000E+00 0.  1.
         21    1    1    2  503  501  0.23777213465E+02 -0.43600915742E-01 -0.16036797349E+03  0.16212108038E+03  0.00000000000E+00 0. -1.
</event>
<event>
 4    1  0.2402120E+005  0.2407952E+02  0.7546771E-02  0.1479370E+00
          2   -1    0    0  503    0  0.00000000000E+00  0.00000000000E+00  0.19442752244E+03  0.19442752244E+03  0.00000000000E+00 0.  1.
         21   -1    0    0  501  502 -0.00000000000E+00 -0.00000000000E+00 -0.16255992929E+02  0.16255992929E+02  0.00000000000E+00 0.  1.
          2    1    1    2  501    0 -0.14563130904E+02 -0.19176505987E+02  0.18427573927E+03  0.18584232899E+03  0.00000000000E+00 0.  1.
         21    1    1    2  503  502  0.14563130904E+02  0.19176505987E+02 -0.61042097590E+01  0.24841186372E+02  0.00000000000E+00 0.  1.
</event>
<event>
 4    1  0.2402120E+005  0.2676223E+02  0.7546771E-02  0.1450011E+00
          2   -1    0    0  502    0  0.00000000000E+00  0.00000000000E+00  0.12348915619E+03  0.12348915619E+03  0.00000000000E+00 0. -1.
         21   -1    0    0  503  502 -0.00000000000E+00 -0.00000000000E+00 -0.96359261316E+02  0.96359261316E+02  0.00000000000E+00 0.  1.
          2    1    1    2  501    0 -0.51577994574E+01  0.26260500267E+02  0.12012966733E+03  0.12307458609E+03  0.00000000000E+00 0. -1.
         21    1    1    2  503  501  0.51577994574E+01 -0.26260500267E+02 -0.92999772455E+02  0.96773831412E+02  0.00000000000E+00 0.  1.
</event>
<event>
 4    1  0.2402120E+005  0.2034848E+02  0.7546771E-02  0.1528774E+00
          2   -1    0    0  503    0  0.00000000000E+00  0.00000000000E+00  0.13132592675E+04  0.13132592675E+04  0.00000000000E+00 0.  1.
         21   -1    0    0  501  502 -0.00000000000E+00 -0.00000000000E+00 -0.92388889420E+00  0.92388889420E+00  0.00000000000E+00 0.  1.
          2    1    1    2  501    0 -0.20293748855E+02 -0.14914313607E+01  0.11894789651E+04  0.11896530036E+04  0.00000000000E+00 0.  1.
         21    1    1    2  503  502  0.20293748855E+02  0.14914313607E+01  0.12285641351E+03  0.12453015277E+03  0.00000000000E+00 0.  1.
</event>
<event>
 4    1  0.2402120E+005  0.2030487E+02  0.7546771E-02  0.1529425E+00
          2   -1    0    0  503    0  0.00000000000E+00  0.00000000000E+00  0.31945776674E+03  0.31945776674E+03  0.00000000000E+00 0.  1.
         21   -1    0    0  501  502 -0.00000000000E+00 -0.00000000000E+00 -0.12289582423E+02  0.12289582423E+02  0.00000000000E+00 0.  1.
          2    1    1    2  501    0  0.15794401424E+02 -0.12760267542E+02  0.31050667355E+03  0.31116986014E+03  0.00000000000E+00 0.  1.
         21    1    1    2  503  502 -0.15794401424E+02  0.12760267542E+02 -0.33384892301E+01  0.20577489021E+02  0.00000000000E+00 0.  1.
</event>
<event>
 4    1  0.2402120E+005  0.2476738E+02  0.7546771E-02  0.1471423E+00
          2   -1    0    0  502    0  0.00000000000E+00  0.00000000000E+00  0.10886373655E+04  0.10886373655E+04  0.00000000000E+00 0. -1.
         21   -1    0    0  503  502 -0.00000000000E+00 -0.00000000000E+00 -0.56996890454E+00  0.56996890454E+00  0.00000000000E+00 0. -1.
          2    1    1    2  501    0 -0.23301985679E+02  0.83928945257E+01  0.60215124784E+03  0.60266039234E+03  0.00000000000E+00 0. -1.
         21    1    1    2  503  501  0.23301985679E+02 -0.83928945257E+01  0.48591614879E+03  0.48654694210E+03  0.00000000000E+00 0. -1.
</event>
<event>
 4    1  0.2402120E+005  0.2297266E+02  0.7546771E-02  0.1492842E+00
          2   -1    0    0  503    0  0.00000000000E+00  0.00000000000E+00  0.14900441322E+03  0.14900441322E+03  0.00000000000E+00 0.  1.
         21   -1    0    0  501  502 -0.00000000000E+00 -0.00000000000E+00 -0.77765056150E+03  0.77765056150E+03  0.00000000000E+00 0. -1.
          2    1    1    2  501    0  0.22505223667E+02  0.46106282733E+01  0.14794810110E+03  0.14972101925E+03  0.00000000000E+00 0.  1.
         21    1    1    2  503  502 -0.22505223667E+02 -0.46106282733E+01 -0.77659424938E+03  0.77693395547E+03  0.00000000000E+00 0. -1.
</event>
<event>
 4    1  0.2402120E+005  0.2299504E+02  0.7546771E-02  0.1492560E+00
          2   -1    0    0  502    0  0.00000000000E+00  0.00000000000E+00  0.38584831754E+03  0.38584831754E+03  0.00000000000E+00 0.  1.
         21   -1    0    0  503  502 -0.00000000000E+00 -0.00000000000E+00 -0.14872611756E+02  0.14872611756E+02  0.00000000000E+00 0.  1.
          2    1    1    2  501    0 -0.21514750291E+02  0.81171006598E+01  0.37639432296E+03  0.37709608611E+03  0.00000000000E+00 0.  1.
         21    1    1    2  503  501  0.21514750291E+02 -0.81171006598E+01 -0.54186171809E+01  0.23624843181E+02  0.00000000000E+00 0.  1.
</event>
<event>
 4    1  0.2402120E+005  0.3072724E+02  0.7546771E-02  0.1413380E+00
          2   -1    0    0  503    0  0.00000000000E+00  0.00000000000E+00  0.19987687624E+03  0.19987687624E+03  0.00000000000E+00 0.  1.
         21   -1    0    0  501  502 -0.00000000000E+00 -0.00000000000E+00 -0.64155004302E+01  0.64155004302E+01  0.00000000000E+00 0.  1.
          2    1    1    2  501    0  0.22305506115E+02 -0.21133563084E+02  0.14969818695E+03  0.15281920778E+03  0.00000000000E+00 0.  1.
         21    1    1    2  503  502 -0.22305506115E+02  0.21133563084E+02  0.43763188867E+02  0.53473168893E+02  0.00000000000E+00 0.  1.
</event>
<event>
 4    1  0.2402120E+005  0.6792126E+02  0.7546771E-02  0.1235060E+00
          2   -1    0    0  502    0  0.00000000000E+00  0.00000000000E+00  0.68097796321E+02  0.68097796321E+02  0.00000000000E+00 0. -1.
         21   -1    0    0  503  502 -0.00000000000E+00 -0.00000000000E+00 -0.88586532730E+02  0.88586532730E+02  0.00000000000E+00 0. -1.
          2    1    1    2  501    0 -0.14206000667E+02 -0.66419026854E+02  0.27754848922E+02  0.73373218696E+02  0.00000000000E+00 0. -1.
         21    1    1    2  503  501  0.14206000667E+02  0.66419026854E+02 -0.48243585330E+02  0.83311110356E+02  0.00000000000E+00 0. -1.
</event>
<event>
 4    1  0.2402120E+005  0.2514561E+02  0.7546771E-02  0.1467181E+00
          2   -1    0    0  503    0  0.00000000000E+00  0.00000000000E+00  0.12895141851E+04  0.12895141851E+04  0.00000000000E+00 0.  1.
         21   -1    0    0  501  502 -0.00000000000E+00 -0.00000000000E+00 -0.13201215725E+01  0.13201215725E+01  0.00000000000E+00 0.  1.
          2    1    1    2  501    0 -0.19188440839E+02  0.16251326522E+02  0.11557966938E+04  0.11560701965E+04  0.00000000000E+00 0.  1.
         21    1    1    2  503  502  0.19188440839E+02 -0.16251326522E+02  0.13239736979E+03  0.13476411022E+03  0.00000000000E+00 0.  1.
</event>
<event>
 4    1  0.2402120E+005  0.2355789E+02  0.7546771E-02  0.1485609E+00
          2   -1    0    0  503    0  0.00000000000E+00  0.00000000000E+00  0.19422542542E+03  0.19422542542E+03  0.00000000000E+00 0.  1.
         21   -1    0    0  501  502 -0.00000000000E+00 -0.00000000000E+00 -0.53037260147E+01  0.53037260147E+01  0.00000000000E+00 0.  1.
          2    1    1    2  501    0  0.18700406133E+02  0.14327219151E+02  0.16221648526E+03  0.16391815790E+03  0.00000000000E+00 0.  1.
         21    1    1    2  503  502 -0.18700406133E+02 -0.14327219151E+02  0.26705214142E+02  0.35610993535E+02  0.00000000000E+00 0.  1.
</event>
<event>
 4    1  0.2402120E+005  0.2018277E+02  0.7546771E-02  0.1531260E+00
          2   -1    0    0  502    0  0.00000000000E+00  0.00000000000E+00  0.13195902874E+01  0.13195902874E+01  0.00000000000E+00 0. -1.
         21   -1    0    0  503  502 -0.00000000000E+00 -0.00000000000E+00 -0.85183735400E+03  0.85183735400E+03  0.00000000000E+00 0. -1.
          2    1    1    2  501    0 -0.15347174424E+01 -0.20124338155E+02 -0.84631604814E+02  0.87004901455E+02  0.00000000000E+00 0. -1.
         21    1    1    2  503  501  0.15347174424E+01  0.20124338155E+02 -0.76588615890E+03  0.76615204284E+03  0.00000000000E+00 0. -1.
</event>
<event>
 4    1  0.2402120E+005  0.4822714E+02  0.7546771E-02  0.1306047E+00
          2   -1    0    0  503    0  0.00000000000E+00  0.00000000000E+00  0.90126622371E+03  0.90126622371E+03  0.00000000000E+00 0. -1.
         21   -1    0    0  501  502 -0.00000000000E+00 -0.00000000000E+00 -0.10448937445E+02  0.10448937445E+02  0.00000000000E+00 0. -1.
          2    1    1    2  501    0  0.26448631130E+02 -0.40327748578E+02  0.84098750889E+03  0.84236918717E+03  0.00000000000E+00 0. -1.
         21    1    1    2  503  502 -0.26448631130E+02  0.40327748578E+02  0.49829777376E+02  0.69345973981E+02  0.00000000000E+00 0. -1.
</event>
<event>
 4    1  0.2402120E+005  0.2005513E+02  0.7546771E-02  0.1533195E+00
          2   -1    0    0  503    0  0.00000000000E+00  0.00000000000E+00  0.85343761104E+02  0.85343761104E+02  0.00000000000E+00 0. -1.
         21   -1    0    0  501  502 -0.00000000000E+00 -0.00000000000E+00 -0.47564787743E+01  0.47564787743E+01  0.00000000000E+00 0. -1.
          2    1    1    2  501    0 -0.15719334166E+02  0.12454353104E+02  0.35976752143E+02  0.41189016407E+02  0.00000000000E+00 0. -1.
         21    1    1    2  503  502  0.15719334166E+02 -0.12454353104E+02  0.44610530187E+02  0.48911223471E+02  0.00000000000E+00 0. -1.
</event>
<event>
 4    1  0.2402120E+005  0.2003041E+02  0.7546771E-02  0.1533571E+00
          2   -1    0    0  503    0  0.00000000000E+00  0.00000000000E+00  0.35696414519E+03  0.35696414519E+03  0.00000000000E+00 0.  1.
         21   -1    0    0  501  502 -0.00000000000E+00 -0.00000000000E+00 -0.22225008041E+01  0.22225008041E+01  0.00000000000E+00 0.  1.
          2    1    1    2  501    0 -0.19690028304E+02  0.36769639316E+01  0.30363355448E+03  0.30429353047E+03  0.00000000000E+00 0.  1.
         21    1    1    2  503  502  0.19690028304E+02 -0.36769639316E+01  0.51108089908E+02  0.54893115528E+02  0.00000000000E+00 0.  1.
</event>
<event>
 4    1  0.2402120E+005  0.3215227E+02  0.7546771E-02  0.1401771E+00
          2   -1    0    0  503    0  0.00000000000E+00  0.00000000000E+00  0.15599640790E+04  0.15599640790E+04  0.00000000000E+00 0.  1.
         21   -1    0    0  501  502 -0.00000000000E+00 -0.00000000000E+00 -0.67145287306E+01  0.67145287306E+01  0.00000000000E+00 0. -1.
          2    1    1    2  501    0 -0.28743843779E+02  0.14406948901E+02  0.15203044490E+04  0.15206443984E+04  0.00000000000E+00 0.  1.
         21    1    1    2  503  502  0.28743843779E+02 -0.14406948901E+02  0.32945101294E+02  0.46034209357E+02  0.00000000000E+00 0. -1.
</event>
<event>
 4    1  0.2402120E+005  0.2520353E+02  0.7546771E-02  0.1466539E+00
          2   -1    0    0  503    0  0.00000000000E+00  0.00000000000E+00  0.33303915184E+03  0.33303915184E+03  0.00000000000E+00 0.  1.
         21   -1    0    0  501  502 -0.00000000000E+00 -0.00000000000E+00 -0.24137307544E+02  0.24137307544E+02  0.00000000000E+00 0. -1.
          2    1    1    2  501    0 -0.95963498159E+01  0.23305107781E+02  0.32583791606E+03  0.32681120777E+03  0.00000000000E+00 0.  1.
         21    1    1    2  503  502  0.95963498159E+01 -0.23305107781E+02 -0.16936071771E+02  0.30365251613E+02  0.00000000000E+00 0. -1.
</event>
<event>
 4    1  0.2402120E+005  0.2294695E+02  0.7546771E-02  0.1493165E+00
          2   -1    0    0  503    0  0.00000000000E+00  0.00000000000E+00  0.71804450951E+02  0.71804450951E+02  0.00000000000E+00 0. -1.
         21   -1    0    0  501  502 -0.00000000000E+00 -0.00000000000E+00 -0.10823276579E+02  0.10823276579E+02  0.00000000000E+00 0.  1.
          2    1    1    2  501    0 -0.98108044906E+01  0.20743928032E+02  0.53950623680E+02  0.58627913406E+02  0.00000000000E+00 0. -1.
         21    1    1    2  503  502  0.98108044906E+01 -0.20743928032E+02  0.70305506929E+01  0.23999814124E+02  0.00000000000E+00 0.  1.
</event>
<event>
 4    1  0.2402120E+005  0.3240694E+02  0.7546771E-02  0.1399771E+00
          2   -1    0    0  503    0  0.00000000000E+00  0.00000000000E+00  0.40224369228E+01  0.40224369228E+01  0.00000000000E+00 0.  1.
         21   -1    0    0  501  502 -0.00000000000E+00 -0.00000000000E+00 -0.13996793235E+04  0.13996793235E+04  0.00000000000E+00 0. -1.
          2    1    1    2  501    0 -0.29713135109E+02  0.12935974949E+02 -0.64812689782E+02  0.72463056813E+02  0.00000000000E+00 0.  1.
         21    1    1    2  503  502  0.29713135109E+02 -0.12935974949E+02 -0.13308441968E+04  0.13312387036E+04  0.00000000000E+00 0. -1.
</event>
<event>
 4    1  0.2402120E+005  0.2209464E+02  0.7546771E-02  0.1504191E+00
          2   -1    0    0  503    0  0.00000000000E+00  0.00000000000E+00  0.19094644145E+04  0.19094644145E+04  0.00000000000E+00 0.  1.
         21   -1    0    0  501  502 -0.00000000000E+00 -0.00000000000E+00 -0.48618592783E+00  0.48618592783E+00  0.00000000000E+00 0.  1.
          2    1    1    2  501    0  0.23584608338E+01 -0.21968403987E+02  0.16120729253E+04  0.16122243298E+04  0.00000000000E+00 0.  1.
         21    1    1    2  503  502 -0.23584608338E+01  0.21968403987E+02  0.29690530326E+03  0.29772627061E+03  0.00000000000E+00 0.  1.
</event>
<event>
 4    1  0.2402120E+005  0.2261638E+02  0.7546771E-02  0.1497372E+00
          2   -1    0    0  503    0  0.00000000000E+00  0.00000000000E+00  0.12059710810E+04  0.12059710810E+04  0.00000000000E+00 0. -1.
         21   -1    0    0  501  502 -0.00000000000E+00 -0.00000000000E+00 -0.44442830854E+00  0.44442830854E+00  0.00000000000E+00 0. -1.
          2    1    1    2  501    0 -0.21480019554E+02  0.70788128204E+01  0.73164367463E+03  0.73199314714E+03  0.00000000000E+00 0. -1.
         21    1    1    2  503  502  0.21480019554E+02 -0.70788128204E+01  0.47388297804E+03  0.47442236215E+03  0.00000000000E+00 0. -1.
</event>
<event>
 4    1  0.2402120E+005  0.2199727E+02  0.7546771E-02  0.1505488E+00
          2   -1    0    0  503    0  0.00000000000E+00  0.00000000000E+00  0.96770872914E+02  0.96770872914E+02  0.00000000000E+00 0. -1.
         21   -1    0    0  501  502 -0.00000000000E+00 -0.00000000000E+00 -0.15947151672E+02  0.15947151672E+02  0.00000000000E+00 0. -1.
          2    1    1    2  501    0  0.20995130459E+02  0.65638667041E+01  0.87106513875E+02  0.89841107565E+02  0.00000000000E+00 0. -1.
         21    1    1    2  503  502 -0.20995130459E+02 -0.65638667041E+01 -0.62827926338E+01  0.22876917021E+02  0.00000000000E+00 0. -1.
</event>
<event>
 4    1  0.2402120E+005  0.2295193E+02  0.7546771E-02  0.1493103E+00
          2   -1    0    0  503    0  0.00000000000E+00  0.00000000000E+00  0.16097083063E+04  0.16097083063E+04  0.00000000000E+00 0.  1.
         21   -1    0    0  501  502 -0.00000000000E+00 -0.00000000000E+00 -0.54407781360E+00  0.54407781360E+00  0.00000000000E+00 0.  1.
          2    1    1    2  501    0 -0.19437947632E+02 -0.12204799996E+02  0.13128378509E+04  0.13130384662E+04  0.00000000000E+00 0.  1.
         21    1    1    2  503  502  0.19437947632E+02  0.12204799996E+02  0.29632637750E+03  0.29721391783E+03  0.00000000000E+00 0.  1.
</event>
<event>
 4    1  0.2402120E+005  0.2284461E+02  0.7546771E-02  0.1494459E+00
          2   -1    0    0  502    0  0.00000000000E+00  0.00000000000E+00  0.11391140962E+04  0.11391140962E+04  0.00000000000E+00 0. -1.
         21   -1    0    0  503  502 -0.00000000000E+00 -0.00000000000E+00 -0.11136170537E+02  0.11136170537E+02  0.00000000000E+00 0. -1.
          2    1    1    2  501    0  0.41300364065E+01 -0.22468180000E+02  0.11271595227E+04  0.11273909996E+04  0.00000000000E+00 0. -1.
         21    1    1    2  503  501 -0.41300364065E+01  0.22468180000E+02  0.81840299767E+00  0.22859267196E+02  0.00000000000E+00 0. -1.
</event>
<event>
 4    1  0.2402120E+005  0.2311948E+02  0.7546771E-02  0.1491003E+00
          2   -1    0    0  502    0  0.00000000000E+00  0.00000000000E+00  0.20413358092E+03  0.20413358092E+03  0.00000000000E+00 0.  1.
         21   -1    0    0  503  502 -0.00000000000E+00 -0.00000000000E+00 -0.39864847911E+01  0.39864847911E+01  0.00000000000E+00 0.  1.
          2    1    1    2  501    0 -0.91981718517E+01 -0.21210940048E+02  0.16103285027E+03  0.16268401645E+03  0.00000000000E+00 0.  1.
         21    1    1    2  503  501  0.91981718517E+01  0.21210940048E+02  0.39114245863E+02  0.45436049262E+02  0.00000000000E+00 0.  1.
</event>
<event>
 4    1  0.2402120E+005  0.3180992E+02  0.7546771E-02  0.1404494E+00
          2   -1    0    0  503    0  0.00000000000E+00  0.00000000000E+00  0.12675902126E+03  0.12675902126E+03  0.00000000000E+00 0. -1.
         21   -1    0    0  501  502 -0.00000000000E+00 -0.00000000000E+00 -0.41180129109E+02  0.41180129109E+02  0.00000000000E+00 0.  1.
          2    1    1    2  501    0  0.22459666451E+02  0.22526309313E+02  0.11818239724E+03  0.12238852170E+03  0.00000000000E+00 0. -1.
         21    1    1    2  503  502 -0.22459666451E+02 -0.22526309313E+02 -0.32603505083E+02  0.45550628668E+02  0.00000000000E+00 0.  1.
</event>
<event>
 4    1  0.2402120E+005  0.2788965E+02  0.7546771E-02  0.1438870E+00
          2   -1    0    0  503    0  0.00000000000E+00  0.00000000000E+00  0.27564000725E+03  0.27564000725E+03  0.00000000000E+00 0. -1.
         21   -1    0    0  501  502 -0.00000000000E+00 -0.00000000000E+00 -0.25824906699E+02  0.25824906699E+02  0.00000000000E+00 0. -1.
          2    1    1    2  501    0 -0.25181001020E+01  0.27775739884E+02  0.26716648855E+03  0.26861825172E+03  0.00000000000E+00 0. -1.
         21    1    1    2  503  502  0.25181001020E+01 -0.27775739884E+02 -0.17351387996E+02  0.32846662230E+02  0.00000000000E+00 0. -1.
</event>
<event>
 4    1  0.2402120E+005  0.2153335E+02  0.7546771E-02  0.1511784E+00
          2   -1    0    0  503    0  0.00000000000E+00  0.00000000000E+00  0.18748203724E+03  0.18748203724E+03  0.00000000000E+00 0.  1.
         21   -1    0    0  501  502 -0.00000000000E+00 -0.00000000000E+00 -0.22084377591E+02  0.22084377591E+02  0.00000000000E+00 0.  1.
          2    1    1    2  501    0  0.33754146974E+01 -0.21267154872E+02  0.18144054419E+03  0.18271386476E+03  0.00000000000E+00 0.  1.
         21    1    1    2  503  502 -0.33754146974E+01  0.21267154872E+02 -0.16042884542E+02  0.26852550068E+02  0.00000000000E+00 0.  1.
</event>
<event>
 4    1  0.2402120E+005  0.2972919E+02  0.7546771E-02  0.1421965E+00
          2   -1    0    0  502    0  0.00000000000E+00  0.00000000000E+00  0.17481355362E+04  0.17481355362E+04  0.00000000000E+00 0.  1.
         21   -1    0    0  503  502 -0.00000000000E+00 -0.00000000000E+00 -0.12851887989E+02  0.12851887989E+02  0.00000000000E+00 0.  1.
          2    1    1    2  501    0 -0.19729561370E+02 -0.22238908841E+02  0.17306428723E+04  0.17308981992E+04  0.00000000000E+00 0.  1.
         21    1    1    2  503  501  0.19729561370E+02  0.22238908841E+02  0.46407759276E+01  0.30089224974E+02  0.00000000000E+00 0.  1.
</event>
<event>
 4    1  0.2402120E+005  0.2714908E+02  0.7546771E-02  0.1446116E+00
          2   -1    0    0  503    0  0.00000000000E+00  0.00000000000E+00  0.16300352347E+01  0.16300352347E+01  0.00000000000E+00 0. -1.
         21   -1    0    0  501  502 -0.00000000000E+00 -0.00000000000E+00 -0.75501249247E+03  0.75501249247E+03  0.00000000000E+00 0. -1.
          2    1    1    2  501    0  0.25916916333E+02 -0.80861482311E+01 -0.13709300539E+03  0.13975537368E+03  0.00000000000E+00 0. -1.
         21    1    1    2  503  502 -0.25916916333E+02  0.80861482311E+01 -0.61628945185E+03  0.61688715403E+03  0.00000000000E+00 0. -1.
</event>
<event>
 4    1  0.2402120E+005  0.3604549E+02  0.7546771E-02  0.1373358E+00
          2   -1    0    0  502    0  0.00000000000E+00  0.00000000000E+00  0.46861748409E+02  0.46861748409E+02  0.00000000000E+00 0. -1.
         21   -1    0    0  503  502 -0.00000000000E+00 -0.00000000000E+00 -0.12399181969E+03  0.12399181969E+03  0.00000000000E+00 0. -1.
          2    1    1    2  501    0  0.35145621764E+02  0.80039187529E+01  0.36707083932E+02  0.51445966366E+02  0.00000000000E+00 0. -1.
         21    1    1    2  503  501 -0.35145621764E+02 -0.80039187529E+01 -0.11383715522E+03  0.11940760173E+03  0.00000000000E+00 0. -1.
</event>
<event>
 4    1  0.2402120E+005  0.2977122E+02  0.7546771E-02  0.1421595E+00
          2   -1    0    0  503    0  0.00000000000E+00  0.00000000000E+00  0.61130769494E+03  0.61130769494E+03  0.00000000000E+00 0. -1.
         21   -1    0    0  501  502 -0.00000000000E+00 -0.00000000000E+00 -0.66157688813E+02  0.66157688813E+02  0.00000000000E+00 0.  1.
          2    1    1    2  501    0  0.15774359666E+01 -0.29729404896E+02  0.60757536883E+03  0.60830432732E+03  0.00000000000E+00 0. -1.
         21    1    1    2  503  502 -0.15774359666E+01  0.29729404896E+02 -0.62425362701E+02  0.69161056441E+02  0.00000000000E+00 0.  1.
</event>
<event>
 4    1  0.2402120E+005  0.2805484E+02  0.7546771E-02  0.1437290E+00
          2   -1    0    0  503    0  0.00000000000E+00  0.00000000000E+00  0.20918023949E+03  0.20918023949E+03  0.00000000000E+00 0. -1.
         21   -1    0    0  501  502 -0.00000000000E+00 -0.00000000000E+00 -0.40691465002E+01  0.40691465002E+01  0.00000000000E+00 0.  1.
          2    1    1    2  501    0 -0.21900085518E+02 -0.17534551207E+02  0.13181804652E+03  0.13477044046E+03  0.00000000000E+00 0. -1.
         21    1    1    2  503  502  0.21900085518E+02  0.17534551207E+02  0.73293046471E+02  0.78478945538E+02  0.00000000000E+00 0.  1.
</event>
<event>
 4    1  0.2402120E+005  0.6610055E+02  0.7546771E-02  0.1240404E+00
          2   -1    0    0  502    0  0.00000000000E+00  0.00000000000E+00  0.16219134128E+04  0.16219134128E+04  0.00000000000E+00 0. -1.
         21   -1    0    0  503  502 -0.00000000000E+00 -0.00000000000E+00 -0.10812965364E+02  0.10812965364E+02  0.00000000000E+00 0.  1.
          2    1    1    2  501    0 -0.60462277062E+02  0.26713204928E+02  0.15129482866E+04  0.15143915610E+04  0.00000000000E+00 0. -1.
         21    1    1    2  503  501  0.60462277062E+02 -0.26713204928E+02  0.98152160871E+02  0.11833481715E+03  0.00000000000E+00 0.  1.
</event>
<event>
 4    1  0.2402120E+005  0.2183291E+02  0.7546771E-02  0.1507697E+00
          2   -1    0    0  502    0  0.00000000000E+00  0.00000000000E+00  0.34209913805E+03  0.34209913805E+03  0.00000000000E+00 0.  1.
         21   -1    0    0  503  502 -0.00000000000E+00 -0.00000000000E+00 -0.72576519187E+01  0.72576519187E+01  0.00000000000E+00 0.  1.
          2    1    1    2  501    0  0.90133684758E+01 -0.19885553013E+02  0.32443820961E+03  0.32517199738E+03  0.00000000000E+00 0.  1.
         21    1    1    2  503  501 -0.90133684758E+01  0.19885553013E+02  0.10403276525E+02  0.24184792585E+02  0.00000000000E+00 0.  1.
</event>
<event>
 4    1  0.2402120E+005  0.2347695E+02  0.7546771E-02  0.1486594E+00
          2   -1    0    0  503    0  0.00000000000E+00  0.00000000000E+00  0.86251026643E+01  0.86251026643E+01  0.00000000000E+00 0. -1.
         21   -1    0    0  501  502 -0.00000000000E+00 -0.00000000000E+00 -0.63914583003E+02  0.63914583003E+02  0.00000000000E+00 0. -1.
          2    1    1    2  501    0 -0.12799128152E+02 -0.19681193528E+02 -0.27149497664E+02  0.35892370827E+02  0.00000000000E+00 0. -1.
         21    1    1    2  503  502  0.12799128152E+02  0.19681193528E+02 -0.28139982674E+02  0.36647314840E+02  0.00000000000E+00 0. -1.
</event>
<event>
 4    1  0.2402120E+005  0.2002414E+02  0.7546771E-02  0.1533667E+00
          2   -1    0    0  503    0  0.00000000000E+00  0.00000000000E+00  0.65130788971E+03  0.65130788971E+03  0.00000000000E+00 0. -1.
         21   -1    0    0  501  502 -0.00000000000E+00 -0.00000000000E+00 -0.78239950575E+00  0.78239950575E+00  0.00000000000E+00 0.  1.
          2    1    1    2  501    0 -0.16615501117E+01 -0.19955089165E+02  0.47579115125E+03  0.47621233283E+03  0.00000000000E+00 0. -1.
         21    1    1    2  503  502  0.16615501117E+01  0.19955089165E+02  0.17473433895E+03  0.17587795638E+03  0.00000000000E+00 0.  1.
</event>
<event>
 4    1  0.2402120E+005  0.2992007E+02  0.7546771E-02  0.1420292E+00
          2   -1    0    0  502    0  0.00000000000E+00  0.00000000000E+00  0.16980760711E+03  0.16980760711E+03  0.00000000000E+00 0. -1.
         21   -1    0    0  503  502 -0.00000000000E+00 -0.00000000000E+00 -0.91412941436E+01  0.91412941436E+01  0.00000000000E+00 0.  1.
          2    1    1    2  501    0 -0.28446451918E+02  0.92741698711E+01  0.13854562015E+03  0.14173954887E+03  0.00000000000E+00 0. -1.
         21    1    1    2  503  501  0.28446451918E+02 -0.92741698711E+01  0.22120692817E+02  0.37209352376E+02  0.00000000000E+00 0.  1.
</event>
<event>
 4    1  0.2402120E+005  0.2605701E+02  0.7546771E-02  0.1457318E+00
          2   -1    0    0  503    0  0.00000000000E+00  0.00000000000E+00  0.16899596755E+02  0.16899596755E+02  0.00000000000E+00 0. -1.
         21   -1    0    0  501  502 -0.00000000000E+00 -0.00000000000E+00 -0.42589153074E+03  0.42589153074E+03  0.00000000000E+00 0. -1.
          2    1    1    2  501    0 -0.16634134779E+02  0.20056746900E+02  0.61982737289E+01  0.26784064913E+02  0.00000000000E+00 0. -1.
         21    1    1    2  503  502  0.16634134779E+02 -0.20056746900E+02 -0.41519020771E+03  0.41600706258E+03  0.00000000000E+00 0. -1.
</event>
<event>
 4    1  0.2402120E+005  0.2103633E+02  0.7546771E-02  0.1518747E+00
          2   -1    0    0  503    0  0.00000000000E+00  0.00000000000E+00  0.21870400808E+03  0.21870400808E+03  0.00000000000E+00 0. -1.
         21   -1    0    0  501  502 -0.00000000000E+00 -0.00000000000E+00 -0.30546875534E+03  0.30546875534E+03  0.00000000000E+00 0. -1.
          2    1    1    2  501    0  0.12335565739E+02 -0.17039982444E+02  0.21783454358E+03  0.21884792794E+03  0.00000000000E+00 0. -1.
         21    1    1    2  503  502 -0.12335565739E+02  0.17039982444E+02 -0.30459929084E+03  0.30532483548E+03  0.00000000000E+00 0. -1.
</event>
<event>
 4    1  0.2402120E+005  0.2063893E+02  0.7546771E-02  0.1524483E+00
          2   -1    0    0  502    0  0.00000000000E+00  0.00000000000E+00  0.48666685818E+03  0.48666685818E+03  0.00000000000E+00 0. -1.
         21   -1    0    0  503  502 -0.00000000000E+00 -0.00000000000E+00 -0.37771939355E+02  0.37771939355E+02  0.00000000000E+00 0.  1.
          2    1    1    2  501    0  0.20615563364E+02 -0.98184731921E+00  0.48361090820E+03  0.48405110887E+03  0.00000000000E+00 0. -1.
         21    1    1    2  503  501 -0.20615563364E+02  0.98184731921E+00 -0.34715989373E+02  0.40387688658E+02  0.00000000000E+00 0.  1.
</event>
<event>
 4    1  0.2402120E+005  0.3623055E+02  0.7546771E-02  0.1372113E+00
          2   -1    0    0  503    0  0.00000000000E+00  0.00000000000E+00  0.32217209293E+01  0.32217209293E+01  0.00000000000E+00 0. -1.
         21   -1    0    0  501  502 -0.00000000000E+00 -0.00000000000E+00 -0.52657301992E+03  0.52657301992E+03  0.00000000000E+00 0. -1.
          2    1    1    2  501    0 -0.19441861075E+02  0.30572317546E+02 -0.13567653772E+03  0.14043067845E+03  0.00000000000E+00 0. -1.
         21    1    1    2  503  502  0.19441861075E+02 -0.30572317546E+02 -0.38767476126E+03  0.38936406239E+03  0.00000000000E+00 0. -1.
</event>
<event>
 4    1  0.2402120E+005  0.2609781E+02  0.7546771E-02  0.1456887E+00
          2   -1    0    0  503    0  0.00000000000E+00  0.00000000000E+00  0.29728917872E+01  0.29728917872E+01  0.00000000000E+00 0. -1.
         21   -1    0    0  501  502 -0.00000000000E+00 -0.00000000000E+00 -0.63930439936E+03  0.63930439936E+03  0.00000000000E+00 0.  1.
          2    1    1    2  501    0  0.18501455354E+02 -0.18406302916E+02 -0.60926195715E+02  0.66280443281E+02  0.00000000000E+00 0. -1.
         21    1    1    2  503  502 -0.18501455354E+02  0.18406302916E+02 -0.57540531186E+03  0.57599684787E+03  0.00000000000E+00 0.  1.
</event>
<event>
 4    1  0.2402120E+005  0.2707096E+02  0.7546771E-02  0.1446897E+00
          2   -1    0    0  503    0  0.00000000000E+00  0.00000000000E+00  0.62022134269E+03  0.62022134269E+03  0.00000000000E+00 0.  1.
         21   -1    0    0  501  502 -0.00000000000E+00 -0.00000000000E+00 -0.19211698094E+03  0.19211698094E+03  0.00000000000E+00 0. -1.
          2    1    1    2  501    0  0.23490285886E+02  0.13455228832E+02  0.61897038964E+03  0.61956208725E+03  0.00000000000E+00 0.  1.
         21    1    1    2  503  502 -0.23490285886E+02 -0.13455228832E+02 -0.19086602789E+03  0.19277623639E+03  0.00000000000E+00 0. -1.
</event>
<event>
 4    1  0.2402120E+005  0.2233987E+02  0.7546771E-02  0.1500958E+00
          2   -1    0    0  502    0  0.00000000000E+00  0.00000000000E+00  0.78271778061E+01  0.78271778061E+01  0.00000000000E+00 0. -1.
         21   -1    0    0  503  502 -0.00000000000E+00 -0.00000000000E+00 -0.78490380822E+03  0.78490380822E+03  0.00000000000E+00 0.  1.
          2    1    1    2  501    0 -0.77835594298E+01 -0.20940056528E+02 -0.86130134069E+01  0.23942718407E+02  0.00000000000E+00 0. -1.
         21    1    1    2  503  501  0.77835594298E+01  0.20940056528E+02 -0.76846361701E+03  0.76878826762E+03  0.00000000000E+00 0.  1.
</event>
<event>
 4    1  0.2402120E+005  0.3377005E+02  0.7546771E-02  0.1389422E+00
          2   -1    0    0  503    0  0.00000000000E+00  0.00000000000E+00  0.39640215097E+03  0.39640215097E+03  0.00000000000E+00 0. -1.
         21   -1    0    0  501  502 -0.00000000000E+00 -0.00000000000E+00 -0.10438858263E+02  0.10438858263E+02  0.00000000000E+00 0. -1.
          2    1    1    2  501    0  0.13916086669E+02 -0.30769448866E+02  0.36611663799E+03  0.36767078897E+03  0.00000000000E+00 0. -1.
         21    1    1    2  503  502 -0.13916086669E+02  0.30769448866E+02  0.19846654716E+02  0.39170220259E+02  0.00000000000E+00 0. -1.
</event>
<event>
 4    1  0.2402120E+005  0.2629762E+02  0.7546771E-02  0.1454794E+00
          2   -1    0    0  502    0  0.00000000000E+00  0.00000000000E+00  0.31071124791E+01  0.31071124791E+01  0.00000000000E+00 0.  1.
         21   -1    0    0  503  502 -0.00000000000E+00 -0.00000000000E+00 -0.47224121706E+03  0.47224121706E+03  0.00000000000E+00 0.  1.
          2    1    1    2  501    0 -0.22238081629E+02  0.14036823743E+02 -0.61752558260E+02  0.67118873255E+02  0.00000000000E+00 0.  1.
         21    1    1    2  503  501  0.22238081629E+02 -0.14036823743E+02 -0.40738154632E+03  0.40822945629E+03  0.00000000000E+00 0.  1.
</event>
<event>
 4    1  0.2402120E+005  0.2047455E+02  0.7546771E-02  0.1526901E+00
          2   -1    0    0  502    0  0.00000000000E+00  0.00000000000E+00  0.99598732915E+01  0.99598732915E+01  0.00000000000E+00 0.  1.
         21   -1    0    0  503  502 -0.00000000000E+00 -0.00000000000E+00 -0.78017097953E+02  0.78017097953E+02  0.00000000000E+00 0.  1.
          2    1    1    2  501    0  0.35685897933E+01  0.20161164649E+02 -0.41777134341E+01  0.20896427510E+02  0.00000000000E+00 0.  1.
         21    1    1    2  503  501 -0.35685897933E+01 -0.20161164649E+02 -0.63879511227E+02  0.67080543735E+02  0.00000000000E+00 0.  1.
</event>
<event>
 4    1  0.2402120E+005  0.4348588E+02  0.7546771E-02  0.1329186E+00
          2   -1    0    0  503    0  0.00000000000E+00  0.00000000000E+00  0.32487826530E+03  0.32487826530E+03  0.00000000000E+00 0.  1.
         21   -1    0    0  501  502 -0.00000000000E+00 -0.00000000000E+00 -0.58268349049E+01  0.58268349049E+01  0.00000000000E+00 0.  1.
          2    1    1    2  501    0 -0.23845217517E+02  0.36365199064E+02  0.15416464570E+03  0.16018039857E+03  0.00000000000E+00 0.  1.
         21    1    1    2  503  502  0.23845217517E+02 -0.36365199064E+02  0.16488678469E+03  0.17052470163E+03  0.00000000000E+00 0.  1.
</event>
<event>
 4    1  0.2402120E+005  0.1060778E+03  0.7546771E-02  0.1153673E+00
          2   -1    0    0  502    0  0.00000000000E+00  0.00000000000E+00  0.14527681063E+04  0.14527681063E+04  0.00000000000E+00 0. -1.
         21   -1    0    0  503  502 -0.00000000000E+00 -0.00000000000E+00 -0.88328028414E+01  0.88328028414E+01  0.00000000000E+00 0. -1.
          2    1    1    2  501    0 -0.32782982521E+02  0.10088497858E+03  0.97836455531E+03  0.98409842289E+03  0.00000000000E+00 0. -1.
         21    1    1    2  503  501  0.32782982521E+02 -0.10088497858E+03  0.46557074817E+03  0.47750248628E+03  0.00000000000E+00 0. -1.
</event>
<event>
 4    1  0.2402120E+005  0.3131351E+02  0.7546771E-02  0.1408515E+00
          2   -1    0    0  503    0  0.00000000000E+00  0.00000000000E+00  0.15614044097E+04  0.15614044097E+04  0.00000000000E+00 0.  1.
         21   -1    0    0  501  502 -0.00000000000E+00 -0.00000000000E+00 -0.23360574981E+02  0.23360574981E+02  0.00000000000E+00 0. -1.
          2    1    1    2  501    0 -0.24028068028E+02  0.20079535556E+02  0.15506813687E+04  0.15509974994E+04  0.00000000000E+00 0.  1.
         21    1    1    2  503  502  0.24028068028E+02 -0.20079535556E+02 -0.12637533962E+02  0.33767485336E+02  0.00000000000E+00 0. -1.
</event>
<event>
 4    1  0.2402120E+005  0.2320827E+02  0.7546771E-02  0.1489899E+00
          2   -1    0    0  502    0  0.00000000000E+00  0.00000000000E+00  0.60495114352E+02  0.60495114352E+02  0.00000000000E+00 0.  1.
         21   -1    0    0  503  502 -0.00000000000E+00 -0.00000000000E+00 -0.91311357663E+02  0.91311357663E+02  0.00000000000E+00 0. -1.
          2    1    1    2  501    0  0.23200648326E+02 -0.59488067607E+00  0.56699630066E+02  0.61265585898E+02  0.00000000000E+00 0.  1.
         21    1    1    2  503  501 -0.23200648326E+02  0.59488067607E+00 -0.87515873378E+02  0.90540886117E+02  0.00000000000E+00 0. -1.
</event>
<event>
 4    1  0.2402120E+005  0.2053607E+02  0.7546771E-02  0.1525993E+00
          2   -1    0    0  503    0  0.00000000000E+00  0.00000000000E+00  0.24788010115E+01  0.24788010115E+01  0.00000000000E+00 0.  1.
         21   -1    0    0  501  502 -0.00000000000E+00 -0.00000000000E+00 -0.24973535891E+03  0.24973535891E+03  0.00000000000E+00 0. -1.
          2    1    1    2  501    0 -0.77993902681E+01  0.18997358263E+02 -0.52431927972E+02  0.56310187182E+02  0.00000000000E+00 0.  1.
         21    1    1    2  503  502  0.77993902681E+01 -0.18997358263E+02 -0.19482462993E+03  0.19590397274E+03  0.00000000000E+00 0. -1.
</event>
<event>
 4    1  0.2402120E+005  0.3252484E+02  0.7546771E-02  0.1398853E+00
          2   -1    0    0  502    0  0.00000000000E+00  0.00000000000E+00  0.15942909840E+04  0.15942909840E+04  0.00000000000E+00 0.  1.
         21   -1    0    0  503  502 -0.00000000000E+00 -0.00000000000E+00 -0.16794855828E+01  0.16794855828E+01  0.00000000000E+00 0.  1.
          2    1    1    2  501    0 -0.20172821240E+01 -0.32462221080E+02  0.14169508934E+04  0.14173241335E+04  0.00000000000E+00 0.  1.
         21    1    1    2  503  501  0.20172821240E+01  0.32462221080E+02  0.17566060505E+03  0.17864633607E+03  0.00000000000E+00 0.  1.
</event>
<event>
 4    1  0.2402120E+005  0.2886910E+02  0.7546771E-02  0.1429685E+00
          2   -1    0    0  503    0  0.00000000000E+00  0.00000000000E+00  0.31067000307E+03  0.31067000307E+03  0.00000000000E+00 0. -1.
         21   -1    0    0  501  502 -0.00000000000E+00 -0.00000000000E+00 -0.43370094661E+01  0.43370094661E+01  0.00000000000E+00 0.  1.
          2    1    1    2  501    0  0.58231527974E+01  0.28275710789E+02  0.25044288282E+03  0.25210129410E+03  0.00000000000E+00 0. -1.
         21    1    1    2  503  502 -0.58231527974E+01 -0.28275710789E+02  0.55890110780E+02  0.62905718437E+02  0.00000000000E+00 0.  1.
</event>
<event>
 4    1  0.2402120E+005  0.5105324E+02  0.7546771E-02  0.1293669E+00
          2   -1    0    0  503    0  0.00000000000E+00  0.00000000000E+00  0.36327867411E+04  0.36327867411E+04  0.00000000000E+00 0. -1.
         21   -1    0    0  501  502 -0.00000000000E+00 -0.00000000000E+00 -0.76204970287E+00  0.76204970287E+00  0.00000000000E+00 0. -1.
          2    1    1    2  501    0  0.11927270021E+02 -0.49640438224E+02  0.22554068687E+04  0.22559846135E+04  0.00000000000E+00 0. -1.
         21    1    1    2  503  502 -0.11927270021E+02  0.49640438224E+02  0.13766178227E+04  0.13775641773E+04  0.00000000000E+00 0. -1.
</event>
<event>
 4    1  0.2402120E+005  0.2941087E+02  0.7546771E-02  0.1424786E+00
          2   -1    0    0  502    0  0.00000000000E+00  0.00000000000E+00  0.41827451140E+02  0.41827451140E+02  0.00000000000E+00 0.  1.
         21   -1    0    0  503  502 -0.00000000000E+00 -0.00000000000E+00 -0.20794170260E+02  0.20794170260E+02  0.00000000000E+00 0.  1.
          2    1    1    2  501    0 -0.54647038549E+01 -0.28898719812E+02  0.81983514885E+01  0.30532146373E+02  0.00000000000E+00 0.  1.
         21    1    1    2  503  501  0.54647038549E+01  0.28898719812E+02  0.12834929391E+02  0.32089475027E+02  0.00000000000E+00 0.  1.
</event>
<event>
 4    1  0.2402120E+005  0.2336473E+02  0.7546771E-02  0.1487968E+00
          2   -1    0    0  502    0  0.00000000000E+00  0.00000000000E+00  0.23309034432E+03  0.23309034432E+03  0.00000000000E+00 0.  1.
         21   -1    0    0  503  502 -0.00000000000E+00 -0.00000000000E+00 -0.27690755610E+01  0.27690755610E+01  0.00000000000E+00 0. -1.
          2    1    1    2  501    0 -0.12961974753E+02  0.19439599729E+02  0.16147111652E+03  0.16315278820E+03  0.00000000000E+00 0.  1.
         21    1    1    2  503  501  0.12961974753E+02 -0.19439599729E+02  0.68850152239E+02  0.72706631681E+02  0.00000000000E+00 0. -1.
</event>
<event>
 4    1  0.2402120E+005  0.2134920E+02  0.7546771E-02  0.1514337E+00
          2   -1    0    0  503    0  0.00000000000E+00  0.00000000000E+00  0.14624197410E+04  0.14624197410E+04  0.00000000000E+00 0.  1.
         21   -1    0    0  501  502 -0.00000000000E+00 -0.00000000000E+00 -0.38022585237E+00  0.38022585237E+00  0.00000000000E+00 0.  1.
          2    1    1    2  501    0 -0.21339529956E+02 -0.64262568140E+00  0.10415935035E+04  0.10418122744E+04  0.00000000000E+00 0.  1.
         21    1    1    2  503  502  0.21339529956E+02  0.64262568140E+00  0.42044601172E+03  0.42098769255E+03  0.00000000000E+00 0.  1.
</event>
<event>
 4    1  0.2402120E+005  0.2041738E+02  0.7546771E-02  0.1527748E+00
          2   -1    0    0  503    0  0.00000000000E+00  0.00000000000E+00  0.66441602925E+03  0.66441602925E+03  0.00000000000E+00 0. -1.
         21   -1    0    0  501  502 -0.00000000000E+00 -0.00000000000E+00 -0.30277789378E+01  0.30277789378E+01  0.00000000000E+00 0. -1.
          2    1    1    2  501    0 -0.20399235128E+02  0.86051133726E+00  0.62783372841E+03  0.62816563086E+03  0.00000000000E+00 0. -1.
         21    1    1    2  503  502  0.20399235128E+02 -0.86051133726E+00  0.33554521903E+02  0.39278177322E+02  0.00000000000E+00 0. -1.
</event>
<event>
 4    1  0.2402120E+005  0.3430947E+02  0.7546771E-02  0.1385484E+00
          2   -1    0    0  502    0  0.00000000000E+00  0.00000000000E+00  0.35842320374E+02  0.35842320374E+02  0.00000000000E+00 0. -1.
         21   -1    0    0  503  502 -0.00000000000E+00 -0.00000000000E+00 -0.40558721646E+02  0.40558721646E+02  0.00000000000E+00 0. -1.
          2    1    1    2  501    0  0.28511025926E+01  0.34190799207E+02  0.14304248018E+02  0.37171912081E+02  0.00000000000E+00 0. -1.
         21    1    1    2  503  501 -0.28511025926E+01 -0.34190799207E+02 -0.19020649290E+02  0.39229129940E+02  0.00000000000E+00 0. -1.
</event>
<event>
 4    1  0.2402120E+005  0.3526041E+02  0.7546771E-02  0.1378742E+00
          2   -1    0    0  502    0  0.00000000000E+00  0.00000000000E+00  0.20982688024E+04  0.20982688024E+04  0.00000000000E+00 0.  1.
         21   -1    0    0  503  502 -0.00000000000E+00 -0.00000000000E+00 -0.21784964848E+01  0.21784964848E+01  0.00000000000E+00 0.  1.
          2    1    1    2  501    0  0.26546101110E+02  0.23207784451E+02  0.19441312575E+04  0.19444509876E+04  0.00000000000E+00 0.  1.
         21    1    1    2  503  501 -0.26546101110E+02 -0.23207784451E+02  0.15195904845E+03  0.15599631133E+03  0.00000000000E+00 0.  1.
</event>
<event>
 4    1  0.2402120E+005  0.2351011E+02  0.7546771E-02  0.1486190E+00
          2   -1    0    0  503    0  0.00000000000E+00  0.00000000000E+00  0.86198426929E+03  0.86198426929E+03  0.00000000000E+00 0. -1.
         21   -1    0    0  501  502 -0.00000000000E+00 -0.00000000000E+00 -0.11694937841E+02  0.11694937841E+02  0.00000000000E+00 0. -1.
          2    1    1    2  501    0 -0.23509915982E+02 -0.94319263201E-01  0.84983967065E+03  0.85016480217E+03  0.00000000000E+00 0. -1.
         21    1    1    2  503  502  0.23509915982E+02  0.94319263201E-01  0.44966079815E+00  0.23514404956E+02  0.00000000000E+00 0. -1.
</event>
<event>
 4    1  0.2402120E+005  0.2729163E+02  0.7546771E-02  0.1444700E+00
          2   -1    0    0  503    0  0.00000000000E+00  0.00000000000E+00  0.19516686505E+03  0.19516686505E+03  0.00000000000E+00 0.  1.
         21   -1    0    0  501  502 -0.00000000000E+00 -0.00000000000E+00 -0.11336895622E+02  0.11336895622E+02  0.00000000000E+00 0.  1.
          2    1    1    2  501    0 -0.74648323475E+00 -0.27281420744E+02  0.17601079773E+03  0.17811410408E+03  0.00000000000E+00 0.  1.
         21    1    1    2  503  502  0.74648323475E+00  0.27281420744E+02  0.78191716917E+01  0.28389656585E+02  0.00000000000E+00 0.  1.
</event>
<event>
 4    1  0.2402120E+005  0.2418068E+02  0.7546771E-02  0.1478182E+00
          2   -1    0    0  503    0  0.00000000000E+00  0.00000000000E+00  0.14724641447E+03  0.14724641447E+03  0.00000000000E+00 0. -1.
         21   -1    0    0  501  502 -0.00000000000E+00 -0.00000000000E+00 -0.14885287415E+02  0.14885287415E+02  0.00000000000E+00 0. -1.
          2    1    1    2  501    0  0.73235002620E+00 -0.24169587996E+02  0.13559637479E+03  0.13773555161E+03  0.00000000000E+00 0. -1.
         21    1    1    2  503  502 -0.73235002620E+00  0.24169587996E+02 -0.32352477344E+01  0.24396150277E+02  0.00000000000E+00 0. -1.
</event>
<event>
 4    1  0.2402120E+005  0.2603910E+02  0.7546771E-02  0.1457507E+00
          2   -1    0    0  503    0  0.00000000000E+00  0.00000000000E+00  0.63854213869E+03  0.63854213869E+03  0.00000000000E+00 0. -1.
         21   -1    0    0  501  502 -0.00000000000E+00 -0.00000000000E+00 -0.79756856426E+01  0.79756856426E+01  0.00000000000E+00 0. -1.
          2    1    1    2  501    0  0.13863295144E+02 -0.22041866792E+02  0.61625521251E+03  0.61680509222E+03  0.00000000000E+00 0. -1.
         21    1    1    2  503  502 -0.13863295144E+02  0.22041866792E+02  0.14311240541E+02  0.29712732115E+02  0.00000000000E+00 0. -1.
</event>
<event>
 4    1  0.2402120E+005  0.2385012E+02  0.7546771E-02  0.1482090E+00
          2   -1    0    0  502    0  0.00000000000E+00  0.00000000000E+00  0.27621801475E+03  0.27621801475E+03  0.00000000000E+00 0. -1.
         21   -1    0    0  503  502 -0.00000000000E+00 -0.00000000000E+00 -0.31558818060E+01  0.31558818060E+01  0.00000000000E+00 0. -1.
          2    1    1    2  501    0  0.21659863072E+02 -0.99839070579E+01  0.21887036388E+03  0.22016599250E+03  0.00000000000E+00 0. -1.
         21    1    1    2  503  501 -0.21659863072E+02  0.99839070579E+01  0.54191769064E+02  0.59207904056E+02  0.00000000000E+00 0. -1.
</event>
<event>
 4    1  0.2402120E+005  0.2122893E+02  0.7546771E-02  0.1516021E+00
          2   -1    0    0  502    0  0.00000000000E+00  0.00000000000E+00  0.43256684108E+03  0.43256684108E+03  0.00000000000E+00 0. -1.
         21   -1    0    0  503  502 -0.00000000000E+00 -0.00000000000E+00 -0.21936748707E+02  0.21936748707E+02  0.00000000000E+00 0. -1.
          2    1    1    2  501    0 -0.20301974031E+02 -0.62046182832E+01  0.42710475099E+03  0.42763200975E+03  0.00000000000E+00 0. -1.
         21    1    1    2  503  501  0.20301974031E+02  0.62046182832E+01 -0.16474658617E+02  0.26871580046E+02  0.00000000000E+00 0. -1.
</event>
<event>
 4    1  0.2402120E+005  0.7307291E+02  0.7546771E-02  0.1220912E+00
          2   -1    0    0  503    0  0.00000000000E+00  0.00000000000E+00  0.76525539780E+03  0.76525539780E+03  0.00000000000E+00 0. -1.
         21   -1    0    0  501  502 -0.00000000000E+00 -0.00000000000E+00 -0.10410412411E+02  0.10410412411E+02  0.00000000000E+00 0. -1.
          2    1    1    2  501    0  0.68595061974E+02  0.25186667463E+02  0.60013024510E+03  0.60456262027E+03  0.00000000000E+00 0. -1.
         21    1    1    2  503  502 -0.68595061974E+02 -0.25186667463E+02  0.15471474029E+03  0.17110318994E+03  0.00000000000E+00 0. -1.
</event>
<event>
 4    1  0.2402120E+005  0.2550183E+02  0.7546771E-02  0.1463267E+00
          2   -1    0    0  502    0  0.00000000000E+00  0.00000000000E+00  0.21187538829E+03  0.21187538829E+03  0.00000000000E+00 0.  1.
         21   -1    0    0  503  502 -0.00000000000E+00 -0.00000000000E+00 -0.70164577991E+01  0.70164577991E+01  0.00000000000E+00 0. -1.
          2    1    1    2  501    0  0.14538628431E+02 -0.20951647770E+02  0.18451639486E+03  0.18627034985E+03  0.00000000000E+00 0.  1.
         21    1    1    2  503  501 -0.14538628431E+02  0.20951647770E+02  0.20342535626E+02  0.32621496235E+02  0.00000000000E+00 0. -1.
</event>
<event>
 4    1  0.2402120E+005  0.3518782E+02  0.7546771E-02  0.1379248E+00
          2   -1    0    0  503    0  0.00000000000E+00  0.00000000000E+00  0.89186486581E+02  0.89186486581E+02  0.00000000000E+00 0. -1.
         21   -1    0    0  501  502 -0.00000000000E+00 -0.00000000000E+00 -0.13883116115E+02  0.13883116115E+02  0.00000000000E+00 0.  1.
          2    1    1    2  501    0  0.26947563217E+01  0.35084479012E+02  0.37559407037E+02  0.51467382255E+02  0.00000000000E+00 0. -1.
         21    1    1    2  503  502 -0.26947563217E+01 -0.35084479012E+02  0.37743963429E+02  0.51602220442E+02  0.00000000000E+00 0.  1.
</event>
<event>
 4    1  0.2402120E+005  0.2815897E+02  0.7546771E-02  0.1436301E+00
          2   -1    0    0  502    0  0.00000000000E+00  0.00000000000E+00  0.34872158427E+03  0.34872158427E+03  0.00000000000E+00 0. -1.
         21   -1    0    0  503  502 -0.00000000000E+00 -0.00000000000E+00 -0.96847360029E+01  0.96847360029E+01  0.00000000000E+00 0.  1.
          2    1    1    2  501    0  0.24268721537E+02  0.14281333261E+02  0.32627939707E+03  0.32749224765E+03  0.00000000000E+00 0. -1.
         21    1    1    2  503  501 -0.24268721537E+02 -0.14281333261E+02  0.12757451204E+02  0.30914072620E+02  0.00000000000E+00 0.  1.
</event>
<event>
 4    1  0.2402120E+005  0.2739714E+02  0.7546771E-02  0.1443659E+00
          2   -1    0    0  502    0  0.00000000000E+00  0.00000000000E+00  0.10053956524E+04  0.10053956524E+04  0.00000000000E+00 0.  1.
         21   -1    0    0  503  502 -0.00000000000E+00 -0.00000000000E+00 -0.78329818636E+00  0.78329818636E+00  0.00000000000E+00 0.  1.
          2    1    1    2  501    0  0.14719504706E+02  0.23107131023E+02  0.61123717328E+03  0.61185086853E+03  0.00000000000E+00 0.  1.
         21    1    1    2  503  501 -0.14719504706E+02 -0.23107131023E+02  0.39337518095E+03  0.39432808208E+03  0.00000000000E+00 0.  1.
</event>
<event>
 4    1  0.2402120E+005  0.2169058E+02  0.7546771E-02  0.1509629E+00
          2   -1    0    0  502    0  0.00000000000E+00  0.00000000000E+00  0.10109470524E+03  0.10109470524E+03  0.00000000000E+00 0. -1.
         21   -1    0    0  503  502 -0.00000000000E+00 -0.00000000000E+00 -0.86934662490E+01  0.86934662490E+01  0.00000000000E+00 0.  1.
          2    1    1    2  501    0 -0.16397302746E+02 -0.14198934978E+02  0.83620140385E+02  0.86387552170E+02  0.00000000000E+00 0. -1.
         21    1    1    2  503  501  0.16397302746E+02  0.14198934978E+02  0.87810986070E+01  0.23400619320E+02  0.00000000000E+00 0.  1.
</event>
<event>
 4    1  0.2402120E+005  0.2526473E+02  0.7546771E-02  0.1465863E+00
          2   -1    0    0  502    0  0.00000000000E+00  0.00000000000E+00  0.47348107521E+03  0.47348107521E+03  0.00000000000E+00 0. -1.
         21   -1    0    0  503  502 -0.00000000000E+00 -0.00000000000E+00 -0.51411426036E+01  0.51411426036E+01  0.00000000000E+00 0. -1.
          2    1    1    2  501    0 -0.12643726483E+02 -0.21873337395E+02  0.43972402842E+03  0.44044923416E+03  0.00000000000E+00 0. -1.
         21    1    1    2  503  501  0.12643726483E+02  0.21873337395E+02  0.28615904191E+02  0.38172983651E+02  0.00000000000E+00 0. -1.
</event>
<event>
 4    1  0.2402120E+005  0.2854514E+02  0.7546771E-02  0.1432675E+00
          2   -1    0    0  502    0  0.00000000000E+00  0.00000000000E+00  0.25662732905E+02  0.25662732905E+02  0.00000000000E+00 0. -1.
         21   -1    0    0  503  502 -0.00000000000E+00 -0.00000000000E+00 -0.38899077497E+02  0.38899077497E+02  0.00000000000E+00 0.  1.
          2    1    1    2  501    0  0.99675069853E+01  0.26748344392E+02  0.72194532890E+01  0.29443940447E+02  0.00000000000E+00 0. -1.
         21    1    1    2  503  501 -0.99675069853E+01 -0.26748344392E+02 -0.20455797881E+02  0.35117869955E+02  0.00000000000E+00 0.  1.
</event>
<event>
 4    1  0.2402120E+005  0.2396842E+02  0.7546771E-02  0.1480683E+00
          2   -1    0    0  503    0  0.00000000000E+00  0.00000000000E+00  0.13453649721E+04  0.13453649721E+04  0.00000000000E+00 0.  1.
         21   -1    0    0  501  502 -0.00000000000E+00 -0.00000000000E+00 -0.48293474445E+02  0.48293474445E+02  0.00000000000E+00 0. -1.
          2    1    1    2  501    0 -0.13436040194E+02 -0.19848370947E+02  0.13422774527E+04  0.13424914320E+04  0.00000000000E+00 0.  1.
         21    1    1    2  503  502  0.13436040194E+02  0.19848370947E+02 -0.45205955041E+02  0.51167014536E+02  0.00000000000E+00 0. -1.
</event>
<event>
 4    1  0.2402120E+005  0.2287855E+02  0.7546771E-02  0.1494029E+00
          2   -1    0    0  503    0  0.00000000000E+00  0.00000000000E+00  0.83370648068E+02  0.83370648068E+02  0.00000000000E+00 0.  1.
         21   -1    0    0  501  502 -0.00000000000E+00 -0.00000000000E+00 -0.17526342859E+02  0.17526342859E+02  0.00000000000E+00 0. -1.
          2    1    1    2  501    0 -0.22766341642E+02 -0.22631307611E+01  0.73336963814E+02  0.76822772237E+02  0.00000000000E+00 0.  1.
         21    1    1    2  503  502  0.22766341642E+02  0.22631307611E+01 -0.74926586055E+01  0.24074218691E+02  0.00000000000E+00 0. -1.
</event>
<event>
 4    1  0.2402120E+005  0.4572669E+02  0.7546771E-02  0.1317845E+00
          2   -1    0    0  503    0  0.00000000000E+00  0.00000000000E+00  0.48593692385E+03  0.48593692385E+03  0.00000000000E+00 0.  1.
         21   -1    0    0  501  502 -0.00000000000E+00 -0.00000000000E+00 -0.20084419362E+02  0.20084419362E+02  0.00000000000E+00 0. -1.
          2    1    1    2  501    0 -0.73713399828E+01  0.45128637566E+02  0.45720277549E+03  0.45948374128E+03  0.00000000000E+00 0.  1.
         21    1    1    2  503  502  0.73713399828E+01 -0.45128637566E+02  0.86497289917E+01  0.46537601929E+02  0.00000000000E+00 0. -1.
</event>
<event>
 4    1  0.2402120E+005  0.2241581E+02  0.7546771E-02  0.1499967E+00
          2   -1    0    0  502    0  0.00000000000E+00  0.00000000000E+00  0.27534326496E+03  0.27534326496E+03  0.00000000000E+00 0.  1.
         21   -1    0    0  503  502 -0.00000000000E+00 -0.00000000000E+00 -0.31486889735E+01  0.31486889735E+01  0.00000000000E+00 0.  1.
          2    1    1    2  501    0 -0.11764150734E+02  0.19080704383E+02  0.22638535865E+03  0.22749241555E+03  0.00000000000E+00 0.  1.
         21    1    1    2  503  501  0.11764150734E+02 -0.19080704383E+02  0.45809217337E+02  0.50999538383E+02  0.00000000000E+00 0.  1.
</event>
<event>
 4    1  0.2402120E+005  0.4332715E+02  0.7546771E-02  0.1330019E+00
          2   -1    0    0  502    0  0.00000000000E+00  0.00000000000E+00  0.12057634981E+04  0.12057634981E+04  0.00000000000E+00 0. -1.
         21   -1    0    0  503  502 -0.00000000000E+00 -0.00000000000E+00 -0.35095001683E+03  0.35095001683E+03  0.00000000000E+00 0. -1.
          2    1    1    2  501    0 -0.32260492838E+02  0.28922352913E+02  0.12040350991E+04  0.12048144097E+04  0.00000000000E+00 0. -1.
         21    1    1    2  503  501  0.32260492838E+02 -0.28922352913E+02 -0.34922161784E+03  0.35189910523E+03  0.00000000000E+00 0. -1.
</event>
<event>
 4    1  0.2402120E+005  0.3361878E+02  0.7546771E-02  0.1390542E+00
          2   -1    0    0  503    0  0.00000000000E+00  0.00000000000E+00  0.48560054143E+03  0.48560054143E+03  0.00000000000E+00 0.  1.
         21   -1    0    0  501  502 -0.00000000000E+00 -0.00000000000E+00 -0.11320041369E+02  0.11320041369E+02  0.00000000000E+00 0. -1.
          2    1    1    2  501    0  0.31888715759E+02 -0.10645757967E+02  0.45858982300E+03  0.45982045204E+03  0.00000000000E+00 0.  1.
         21    1    1    2  503  502 -0.31888715759E+02  0.10645757967E+02  0.15690677055E+02  0.37100130753E+02  0.00000000000E+00 0. -1.
</event>
<event>
 4    1  0.2402120E+005  0.3443768E+02  0.7546771E-02  0.1384560E+00
          2   -1    0    0  503    0  0.00000000000E+00  0.00000000000E+00  0.98746575963E+03  0.98746575963E+03  0.00000000000E+00 0.  1.
         21   -1    0    0  501  502 -0.00000000000E+00 -0.00000000000E+00 -0.25099757846E+01  0.25099757846E+01  0.00000000000E+00 0.  1.
          2    1    1    2  501    0 -0.22749251469E+01  0.34362460370E+02  0.84993531462E+03  0.85063270158E+03  0.00000000000E+00 0.  1.
         21    1    1    2  503  502  0.22749251469E+01 -0.34362460370E+02  0.13502046923E+03  0.13934303383E+03  0.00000000000E+00 0.  1.
</event>
<event>
 4    1  0.2402120E+005  0.2614830E+02  0.7546771E-02  0.1456356E+00
          2   -1    0    0  503    0  0.00000000000E+00  0.00000000000E+00  0.87400665977E+02  0.87400665977E+02  0.00000000000E+00 0. -1.
         21   -1    0    0  501  502 -0.00000000000E+00 -0.00000000000E+00 -0.78242698834E+01  0.78242698834E+01  0.00000000000E+00 0. -1.
          2    1    1    2  501    0 -0.11956764063E+02  0.23254451207E+02  0.40399401288E+02  0.48123230692E+02  0.00000000000E+00 0. -1.
         21    1    1    2  503  502  0.11956764063E+02 -0.23254451207E+02  0.39176994806E+02  0.47101705169E+02  0.00000000000E+00 0. -1.
</event>
<event>
 4    1  0.2402120E+005  0.2593949E+02  0.7546771E-02  0.1458562E+00
          2   -1    0    0  502    0  0.00000000000E+00  0.00000000000E+00  0.42626960408E+03  0.42626960408E+03  0.00000000000E+00 0.  1.
         21   -1    0    0  503  502 -0.00000000000E+00 -0.00000000000E+00 -0.30348334153E+01  0.30348334153E+01  0.00000000000E+00 0. -1.
          2    1    1    2  501    0 -0.15989207629E+02 -0.20425533941E+02  0.36031419098E+03  0.36124669329E+03  0.00000000000E+00 0.  1.
         21    1    1    2  503  501  0.15989207629E+02  0.20425533941E+02  0.62920579688E+02  0.68057744201E+02  0.00000000000E+00 0. -1.
</event>
<event>
 4    1  0.2402120E+005  0.2446577E+02  0.7546771E-02  0.1474869E+00
          2   -1    0    0  503    0  0.00000000000E+00  0.00000000000E+00  0.46236626038E+03  0.46236626038E+03  0.00000000000E+00 0.  1.
         21   -1    0    0  501  502 -0.00000000000E+00 -0.00000000000E+00 -0.17597932592E+01  0.17597932592E+01  0.00000000000E+00 0.  1.
          2    1    1    2  501    0 -0.12832136331E+02 -0.20830514260E+02  0.34961882502E+03  0.35047381765E+03  0.00000000000E+00 0.  1.
         21    1    1    2  503  502  0.12832136331E+02  0.20830514260E+02  0.11098764211E+03  0.11365223600E+03  0.00000000000E+00 0.  1.
</event>
<event>
 4    1  0.2402120E+005  0.2850799E+02  0.7546771E-02  0.1433021E+00
          2   -1    0    0  502    0  0.00000000000E+00  0.00000000000E+00  0.36987642162E+03  0.36987642162E+03  0.00000000000E+00 0. -1.
         21   -1    0    0  503  502 -0.00000000000E+00 -0.00000000000E+00 -0.11579773953E+03  0.11579773953E+03  0.00000000000E+00 0. -1.
          2    1    1    2  501    0 -0.15685453442E+02 -0.23804880297E+02  0.36756149836E+03  0.36866537788E+03  0.00000000000E+00 0. -1.
         21    1    1    2  503  501  0.15685453442E+02  0.23804880297E+02 -0.11348281626E+03  0.11700878327E+03  0.00000000000E+00 0. -1.
</event>
<event>
 4    1  0.2402120E+005  0.2570068E+02  0.7546771E-02  0.1461115E+00
          2   -1    0    0  503    0  0.00000000000E+00  0.00000000000E+00  0.43494703892E+03  0.43494703892E+03  0.00000000000E+00 0.  1.
         21   -1    0    0  501  502 -0.00000000000E+00 -0.00000000000E+00 -0.17436035594E+02  0.17436035594E+02  0.00000000000E+00 0.  1.
          2    1    1    2  501    0 -0.18452050578E+02  0.17889847782E+02  0.42487232852E+03  0.42564894029E+03  0.00000000000E+00 0.  1.
         21    1    1    2  503  502  0.18452050578E+02 -0.17889847782E+02 -0.73613251965E+01  0.26734134227E+02  0.00000000000E+00 0.  1.
</event>
<event>
 4    1  0.2402120E+005  0.3327011E+02  0.7546771E-02  0.1393150E+00
          2   -1    0    0  502    0  0.00000000000E+00  0.00000000000E+00  0.14838460896E+03  0.14838460896E+03  0.00000000000E+00 0. -1.
         21   -1    0    0  503  502 -0.00000000000E+00 -0.00000000000E+00 -0.89076818661E+01  0.89076818661E+01  0.00000000000E+00 0. -1.
          2    1    1    2  501    0 -0.33268174543E+02 -0.35879162869E+00  0.10144736534E+03  0.10676360852E+03  0.00000000000E+00 0. -1.
         21    1    1    2  503  501  0.33268174543E+02  0.35879162869E+00  0.38029561756E+02  0.50528682312E+02  0.00000000000E+00 0. -1.
</event>
<event>
 4    1  0.2402120E+005  0.2429120E+02  0.7546771E-02  0.1476891E+00
          2   -1    0    0  502    0  0.00000000000E+00  0.00000000000E+00  0.25155882431E+03  0.25155882431E+03  0.00000000000E+00 0.  1.
         21   -1    0    0  503  502 -0.00000000000E+00 -0.00000000000E+00 -0.47868673804E+01  0.47868673804E+01  0.00000000000E+00 0. -1.
          2    1    1    2  501    0 -0.11211493000E+02 -0.21549125888E+02  0.21491859424E+03  0.21628699580E+03  0.00000000000E+00 0.  1.
         21    1    1    2  503  501  0.11211493000E+02  0.21549125888E+02  0.31853362686E+02  0.40058695887E+02  0.00000000000E+00 0. -1.
</event>
<event>
 4    1  0.2402120E+005  0.2422788E+02  0.7546771E-02  0.1477630E+00
          2   -1    0    0  503    0  0.00000000000E+00  0.00000000000E+00  0.33998106870E+03  0.33998106870E+03  0.00000000000E+00 0.  1.
         21   -1    0    0  501  502 -0.00000000000E+00 -0.00000000000E+00 -0.25036770327E+01  0.25036770327E+01  0.00000000000E+00 0.  1.
          2    1    1    2  501    0  0.13214516359E+02  0.20306813663E+02  0.26414378386E+03  0.26525257525E+03  0.00000000000E+00 0.  1.
         21    1    1    2  503  502 -0.13214516359E+02 -0.20306813663E+02  0.73333607804E+02  0.77232170482E+02  0.00000000000E+00 0.  1.
</event>
<event>
 4    1  0.2402120E+005  0.2140863E+02  0.7546771E-02  0.1513510E+00
          2   -1    0    0  503    0  0.00000000000E+00  0.00000000000E+00  0.10314595399E+04  0.10314595399E+04  0.00000000000E+00 0.  1.
         21   -1    0    0  501  502 -0.00000000000E+00 -0.00000000000E+00 -0.18733245666E+01  0.18733245666E+01  0.00000000000E+00 0. -1.
          2    1    1    2  501    0  0.20000832455E+02  0.76351781970E+01  0.96604179602E+03  0.96627898709E+03  0.00000000000E+00 0.  1.
         21    1    1    2  503  502 -0.20000832455E+02 -0.76351781970E+01  0.63544419367E+02  0.67053877424E+02  0.00000000000E+00 0. -1.
</event>
<event>
 4    1  0.2402120E+005  0.2907931E+02  0.7546771E-02  0.1427769E+00
          2   -1    0    0  503    0  0.00000000000E+00  0.00000000000E+00  0.28552037382E+03  0.28552037382E+03  0.00000000000E+00 0.  1.
         21   -1    0    0  501  502 -0.00000000000E+00 -0.00000000000E+00 -0.32548628174E+01  0.32548628174E+01  0.00000000000E+00 0.  1.
          2    1    1    2  501    0 -0.29059989126E+02 -0.10599569888E+01  0.18447065841E+03  0.18674857507E+03  0.00000000000E+00 0.  1.
         21    1    1    2  503  502  0.29059989126E+02  0.10599569888E+01  0.97794852593E+02  0.10202666157E+03  0.00000000000E+00 0.  1.
</event>
<event>
 4    1  0.2402120E+005  0.2466222E+02  0.7546771E-02  0.1472618E+00
          2   -1    0    0  502    0  0.00000000000E+00  0.00000000000E+00  0.15275446232E+04  0.15275446232E+04  0.00000000000E+00 0. -1.
         21   -1    0    0  503  502 -0.00000000000E+00 -0.00000000000E+00 -0.21172810800E+02  0.21172810800E+02  0.00000000000E+00 0. -1.
          2    1    1    2  501    0  0.19428387488E+02 -0.15190880041E+02  0.15202288461E+04  0.15204288769E+04  0.00000000000E+00 0. -1.
         21    1    1    2  503  501 -0.19428387488E+02  0.15190880041E+02 -0.13857033762E+02  0.28288557077E+02  0.00000000000E+00 0. -1.
</event>
<event>
 4    1  0.2402120E+005  0.2189584E+02  0.7546771E-02  0.1506849E+00
          2   -1    0    0  502    0  0.00000000000E+00  0.00000000000E+00  0.12828845110E+04  0.12828845110E+04  0.00000000000E+00 0.  1.
         21   -1    0    0  503  502 -0.00000000000E+00 -0.00000000000E+00 -0.62637565043E+00  0.62637565043E+00  0.00000000000E+00 0.  1.
          2    1    1    2  501    0  0.20609354448E+02 -0.73947526375E+01  0.10487199887E+04  0.10489485415E+04  0.00000000000E+00 0.  1.
         21    1    1    2  503  501 -0.20609354448E+02  0.73947526375E+01  0.23353814660E+03  0.23456234517E+03  0.00000000000E+00 0.  1.
</event>
<event>
 4    1  0.2402120E+005  0.2077541E+02  0.7546771E-02  0.1522496E+00
          2   -1    0    0  503    0  0.00000000000E+00  0.00000000000E+00  0.52104246805E+02  0.52104246805E+02  0.00000000000E+00 0.  1.
         21   -1    0    0  501  502 -0.00000000000E+00 -0.00000000000E+00 -0.12761955676E+02  0.12761955676E+02  0.00000000000E+00 0.  1.
          2    1    1    2  501    0  0.19812732059E+02 -0.62508485156E+01  0.38883602163E+02  0.44085734382E+02  0.00000000000E+00 0.  1.
         21    1    1    2  503  502 -0.19812732059E+02  0.62508485156E+01  0.45868896580E+00  0.20780468098E+02  0.00000000000E+00 0.  1.
</event>
<event>
 4    1  0.2402120E+005  0.2275689E+02  0.7546771E-02  0.1495574E+00
          2   -1    0    0  503    0  0.00000000000E+00  0.00000000000E+00  0.64571200070E+03  0.64571200070E+03  0.00000000000E+00 0.  1.
         21   -1    0    0  501  502 -0.00000000000E+00 -0.00000000000E+00 -0.36218123265E+01  0.36218123265E+01  0.00000000000E+00 0. -1.
          2    1    1    2  501    0 -0.11092020822E+02  0.19870661297E+02  0.60751786947E+03  0.60794394301E+03  0.00000000000E+00 0.  1.
         21    1    1    2  503  502  0.11092020822E+02 -0.19870661297E+02  0.34572318901E+02  0.41389870022E+02  0.00000000000E+00 0. -1.
</event>
<event>
 4    1  0.2402120E+005  0.2196037E+02  0.7546771E-02  0.1505982E+00
          2   -1    0    0  503    0  0.00000000000E+00  0.00000000000E+00  0.13948376249E+03  0.13948376249E+03  0.00000000000E+00 0. -1.
         21   -1    0    0  501  502 -0.00000000000E+00 -0.00000000000E+00 -0.50316883050E+01  0.50316883050E+01  0.00000000000E+00 0. -1.
          2    1    1    2  501    0  0.20459625524E+02  0.79788136129E+01  0.10764294139E+03  0.10986018648E+03  0.00000000000E+00 0. -1.
         21    1    1    2  503  502 -0.20459625524E+02 -0.79788136129E+01  0.26809132797E+02  0.34655264312E+02  0.00000000000E+00 0. -1.
</event>
<event>
 4    1  0.2402120E+005  0.2141450E+02  0.7546771E-02  0.1513428E+00
          2   -1    0    0  503    0  0.00000000000E+00  0.00000000000E+00  0.76831911940E+03  0.76831911940E+03  0.00000000000E+00 0.  1.
         21   -1    0    0  501  502 -0.00000000000E+00 -0.00000000000E+00 -0.17408292232E+01  0.17408292232E+01  0.00000000000E+00 0.  1.
          2    1    1    2  501    0  0.21390485575E+02 -0.10138192807E+01  0.69541029138E+03  0.69573993278E+03  0.00000000000E+00 0.  1.
         21    1    1    2  503  502 -0.21390485575E+02  0.10138192807E+01  0.71167998792E+02  0.74320015842E+02  0.00000000000E+00 0.  1.
</event>
<event>
 4    1  0.2402120E+005  0.2988334E+02  0.7546771E-02  0.1420613E+00
          2   -1    0    0  503    0  0.00000000000E+00  0.00000000000E+00  0.24925540026E+04  0.24925540026E+04  0.00000000000E+00 0. -1.
         21   -1    0    0  501  502 -0.00000000000E+00 -0.00000000000E+00 -0.41886596352E+00  0.41886596352E+00  0.00000000000E+00 0.  1.
          2    1    1    2  501    0 -0.17775863383E+02 -0.24021503427E+02  0.17201592614E+04  0.17204188148E+04  0.00000000000E+00 0. -1.
         21    1    1    2  503  502  0.17775863383E+02  0.24021503427E+02  0.77197587531E+03  0.77255405378E+03  0.00000000000E+00 0.  1.
</event>
<event>
 4    1  0.2402120E+005  0.2269069E+02  0.7546771E-02  0.1496419E+00
          2   -1    0    0  502    0  0.00000000000E+00  0.00000000000E+00  0.23408133245E+03  0.23408133245E+03  0.00000000000E+00 0.  1.
         21   -1    0    0  503  502 -0.00000000000E+00 -0.00000000000E+00 -0.20187998123E+02  0.20187998123E+02  0.00000000000E+00 0.  1.
          2    1    1    2  501    0  0.21586236768E+02 -0.69929972571E+01  0.22695585948E+03  0.22808732928E+03  0.00000000000E+00 0.  1.
         21    1    1    2  503  501 -0.21586236768E+02  0.69929972571E+01 -0.13062525148E+02  0.26182001292E+02  0.00000000000E+00 0.  1.
</event>
<event>
 4    1  0.2402120E+005  0.3813525E+02  0.7546771E-02  0.1359774E+00
          2   -1    0    0  503    0  0.00000000000E+00  0.00000000000E+00  0.96372438706E+03  0.96372438706E+03  0.00000000000E+00 0.  1.
         21   -1    0    0  501  502 -0.00000000000E+00 -0.00000000000E+00 -0.15376411464E+01  0.15376411464E+01  0.00000000000E+00 0.  1.
          2    1    1    2  501    0  0.31791718602E+02  0.21061433971E+02  0.54691816664E+03  0.54824609289E+03  0.00000000000E+00 0.  1.
         21    1    1    2  503  502 -0.31791718602E+02 -0.21061433971E+02  0.41526857927E+03  0.41701593531E+03  0.00000000000E+00 0.  1.
</event>
<event>
 4    1  0.2402120E+005  0.2412950E+02  0.7546771E-02  0.1478782E+00
          2   -1    0    0  502    0  0.00000000000E+00  0.00000000000E+00  0.15986724709E+03  0.15986724709E+03  0.00000000000E+00 0. -1.
         21   -1    0    0  503  502 -0.00000000000E+00 -0.00000000000E+00 -0.89028323604E+01  0.89028323604E+01  0.00000000000E+00 0. -1.
          2    1    1    2  501    0 -0.23674001421E+02 -0.46663127015E+01  0.14035006385E+03  0.14240917541E+03  0.00000000000E+00 0. -1.
         21    1    1    2  503  501  0.23674001421E+02  0.46663127015E+01  0.10614350883E+02  0.26360904047E+02  0.00000000000E+00 0. -1.
</event>
<event>
 4    1  0.2402120E+005  0.2418495E+02  0.7546771E-02  0.1478132E+00
          2   -1    0    0  503    0  0.00000000000E+00  0.00000000000E+00  0.27553007090E+03  0.27553007090E+03  0.00000000000E+00 0.  1.
         21   -1    0    0  501  502 -0.00000000000E+00 -0.00000000000E+00 -0.67678095938E+02  0.67678095938E+02  0.00000000000E+00 0.  1.
          2    1    1    2  501    0  0.28662491622E+01 -0.24014508158E+02  0.27281727319E+03  0.27388716022E+03  0.00000000000E+00 0.  1.
         21    1    1    2  503  502 -0.28662491622E+01  0.24014508158E+02 -0.64965298219E+02  0.69321006621E+02  0.00000000000E+00 0.  1.
</event>
<event>
 4    1  0.2402120E+005  0.2710213E+02  0.7546771E-02  0.1446585E+00
          2   -1    0    0  502    0  0.00000000000E+00  0.00000000000E+00  0.50857157717E+03  0.50857157717E+03  0.00000000000E+00 0. -1.
         21   -1    0    0  503  502 -0.00000000000E+00 -0.00000000000E+00 -0.22614748761E+01  0.22614748761E+01  0.00000000000E+00 0. -1.
          2    1    1    2  501    0  0.17895174373E+02  0.20354074871E+02  0.40669198353E+03  0.40759403221E+03  0.00000000000E+00 0. -1.
         21    1    1    2  503  501 -0.17895174373E+02 -0.20354074871E+02  0.99618118769E+02  0.10323901984E+03  0.00000000000E+00 0. -1.
</event>
<event>
 4    1  0.2402120E+005  0.3744073E+02  0.7546771E-02  0.1364173E+00
          2   -1    0    0  503    0  0.00000000000E+00  0.00000000000E+00  0.23230213865E+04  0.23230213865E+04  0.00000000000E+00 0.  1.
         21   -1    0    0  501  502 -0.00000000000E+00 -0.00000000000E+00 -0.67130234805E+01  0.67130234805E+01  0.00000000000E+00 0.  1.
          2    1    1    2  501    0 -0.20347524415E+02  0.31429068766E+02  0.22694330972E+04  0.22697419216E+04  0.00000000000E+00 0.  1.
         21    1    1    2  503  502  0.20347524415E+02 -0.31429068766E+02  0.46875265813E+02  0.59992488349E+02  0.00000000000E+00 0.  1.
</event>
<event>
 4    1  0.2402120E+005  0.2171716E+02  0.7546771E-02  0.1509267E+00
          2   -1    0    0  503    0  0.00000000000E+00  0.00000000000E+00  0.85352582984E+03  0.85352582984E+03  0.00000000000E+00 0.  1.
         21   -1    0    0  501  502 -0.00000000000E+00 -0.00000000000E+00 -0.50449616852E+01  0.50449616852E+01  0.00000000000E+00 0. -1.
          2    1    1    2  501    0  0.72635422242E+01  0.20466460320E+02  0.82933447672E+03  0.82961877348E+03  0.00000000000E+00 0.  1.
         21    1    1    2  503  502 -0.72635422242E+01 -0.20466460320E+02  0.19146391438E+02  0.28952018043E+02  0.00000000000E+00 0. -1.
</event>
<event>
 4    1  0.2402120E+005  0.2013619E+02  0.7546771E-02  0.1531964E+00
          2   -1    0    0  503    0  0.00000000000E+00  0.00000000000E+00  0.17735632724E+04  0.17735632724E+04  0.00000000000E+00 0.  1.
         21   -1    0    0  501  502 -0.00000000000E+00 -0.00000000000E+00 -0.29557699454E+00  0.29557699454E+00  0.00000000000E+00 0.  1.
          2    1    1    2  501    0 -0.90101617188E+01  0.18007858441E+02  0.13087799631E+04  0.13089348562E+04  0.00000000000E+00 0.  1.
         21    1    1    2  503  502  0.90101617188E+01 -0.18007858441E+02  0.46448773232E+03  0.46492399320E+03  0.00000000000E+00 0.  1.
</event>
<event>
 4    1  0.2402120E+005  0.5785438E+02  0.7546771E-02  0.1267302E+00
          2   -1    0    0  503    0  0.00000000000E+00  0.00000000000E+00  0.79903834543E+02  0.79903834543E+02  0.00000000000E+00 0.  1.
         21   -1    0    0  501  502 -0.00000000000E+00 -0.00000000000E+00 -0.10136466933E+03  0.10136466933E+03  0.00000000000E+00 0.  1.
          2    1    1    2  501    0  0.56149989803E+02  0.13939447156E+02  0.58694758982E+02  0.82414830424E+02  0.00000000000E+00 0.  1.
         21    1    1    2  503  502 -0.56149989803E+02 -0.13939447156E+02 -0.80155593773E+02  0.98853673452E+02  0.00000000000E+00 0.  1.
</event>
<event>
 4    1  0.2402120E+005  0.2415058E+02  0.7546771E-02  0.1478534E+00
          2   -1    0    0  503    0  0.00000000000E+00  0.00000000000E+00  0.33479492479E+03  0.33479492479E+03  0.00000000000E+00 0. -1.
         21   -1    0    0  501  502 -0.00000000000E+00 -0.00000000000E+00 -0.14008804765E+03  0.14008804765E+03  0.00000000000E+00 0. -1.
          2    1    1    2  501    0  0.18061084222E+02  0.16032711857E+02  0.33331391337E+03  0.33418769496E+03  0.00000000000E+00 0. -1.
         21    1    1    2  503  502 -0.18061084222E+02 -0.16032711857E+02 -0.13860703623E+03  0.14069527748E+03  0.00000000000E+00 0. -1.
</event>
<event>
 4    1  0.2402120E+005  0.2136802E+02  0.7546771E-02  0.1514075E+00
          2   -1    0    0  502    0  0.00000000000E+00  0.00000000000E+00  0.68146903662E+03  0.68146903662E+03  0.00000000000E+00 0.  1.
         21   -1    0    0  503  502 -0.00000000000E+00 -0.00000000000E+00 -0.72516384409E+01  0.72516384409E+01  0.00000000000E+00 0.  1.
          2    1    1    2  501    0 -0.19243979520E+02  0.92877062074E+01  0.66517504222E+03  0.66551816581E+03  0.00000000000E+00 0.  1.
         21    1    1    2  503  501  0.19243979520E+02 -0.92877062074E+01  0.90423559670E+01  0.23202509256E+02  0.00000000000E+00 0.  1.
</event>
<event>
 4    1  0.2402120E+005  0.2616653E+02  0.7546771E-02  0.1456165E+00
          2   -1    0    0  503    0  0.00000000000E+00  0.00000000000E+00  0.40359040078E+02  0.40359040078E+02  0.00000000000E+00 0. -1.
         21   -1    0    0  501  502 -0.00000000000E+00 -0.00000000000E+00 -0.14293671336E+03  0.14293671336E+03  0.00000000000E+00 0.  1.
          2    1    1    2  501    0 -0.13478054655E+02  0.22428320034E+02  0.34748544881E+02  0.43498837550E+02  0.00000000000E+00 0. -1.
         21    1    1    2  503  502  0.13478054655E+02 -0.22428320034E+02 -0.13732621817E+03  0.13979691589E+03  0.00000000000E+00 0.  1.
</event>
<event>
 4    1  0.2402120E+005  0.2371963E+02  0.7546771E-02  0.1483654E+00
          2   -1    0    0  503    0  0.00000000000E+00  0.00000000000E+00  0.30850040762E+02  0.30850040762E+02  0.00000000000E+00 0.  1.
         21   -1    0    0  501  502 -0.00000000000E+00 -0.00000000000E+00 -0.19233212188E+02  0.19233212188E+02  0.00000000000E+00 0.  1.
          2    1    1    2  501    0 -0.23695651822E+02 -0.10662506997E+01  0.11506797960E+02  0.26363368622E+02  0.00000000000E+00 0.  1.
         21    1    1    2  503  502  0.23695651822E+02  0.10662506997E+01  0.11003061363E+00  0.23719884328E+02  0.00000000000E+00 0.  1.
</event>
<event>
 4    1  0.2402120E+005  0.2320012E+02  0.7546771E-02  0.1490000E+00
          2   -1    0    0  503    0  0.00000000000E+00  0.00000000000E+00  0.73393586095E+03  0.73393586095E+03  0.00000000000E+00 0. -1.
         21   -1    0    0  501  502 -0.00000000000E+00 -0.00000000000E+00 -0.64872174201E+01  0.64872174201E+01  0.00000000000E+00 0.  1.
          2    1    1    2  501    0  0.22502785522E+02 -0.56453526233E+01  0.71238257951E+03  0.71276025770E+03  0.00000000000E+00 0. -1.
         21    1    1    2  503  502 -0.22502785522E+02  0.56453526233E+01  0.15066064017E+02  0.27662820671E+02  0.00000000000E+00 0.  1.
</event>
<event>
 4    1  0.2402120E+005  0.2647082E+02  0.7546771E-02  0.1452997E+00
          2   -1    0    0  503    0  0.00000000000E+00  0.00000000000E+00  0.35242331018E+03  0.35242331018E+03  0.00000000000E+00 0.  1.
         21   -1    0    0  501  502 -0.00000000000E+00 -0.00000000000E+00 -0.17155629890E+02  0.17155629890E+02  0.00000000000E+00 0. -1.
          2    1    1    2  501    0 -0.18966559946E+02 -0.18465479879E+02  0.34138560356E+03  0.34241033083E+03  0.00000000000E+00 0.  1.
         21    1    1    2  503  502  0.18966559946E+02  0.18465479879E+02 -0.61179232617E+01  0.27168609246E+02  0.00000000000E+00 0. -1.
</event>
<event>
 4    1  0.2402120E+005  0.3637807E+02  0.7546771E-02  0.1371125E+00
          2   -1    0    0  503    0  0.00000000000E+00  0.00000000000E+00  0.16385382495E+04  0.16385382495E+04  0.00000000000E+00 0.  1.
         21   -1    0    0  501  502 -0.00000000000E+00 -0.00000000000E+00 -0.80796645176E+00  0.80796645176E+00  0.00000000000E+00 0. -1.
          2    1    1    2  501    0  0.46971701295E+01  0.36073540821E+02  0.80261740265E+03  0.80344138479E+03  0.00000000000E+00 0.  1.
         21    1    1    2  503  502 -0.46971701295E+01 -0.36073540821E+02  0.83511288035E+03  0.83590483112E+03  0.00000000000E+00 0. -1.
</event>
<event>
 4    1  0.2402120E+005  0.2425022E+02  0.7546771E-02  0.1477369E+00
          2   -1    0    0  503    0  0.00000000000E+00  0.00000000000E+00  0.96196770188E+00  0.96196770188E+00  0.00000000000E+00 0. -1.
         21   -1    0    0  501  502 -0.00000000000E+00 -0.00000000000E+00 -0.63763057809E+03  0.63763057809E+03  0.00000000000E+00 0. -1.
          2    1    1    2  501    0 -0.14618769057E+02  0.19348506512E+02 -0.25347854017E+03  0.25463590367E+03  0.00000000000E+00 0. -1.
         21    1    1    2  503  502  0.14618769057E+02 -0.19348506512E+02 -0.38319007022E+03  0.38395664212E+03  0.00000000000E+00 0. -1.
</event>
<event>
 4    1  0.2402120E+005  0.2013587E+02  0.7546771E-02  0.1531969E+00
          2   -1    0    0  502    0  0.00000000000E+00  0.00000000000E+00  0.13268731412E+03  0.13268731412E+03  0.00000000000E+00 0. -1.
         21   -1    0    0  503  502 -0.00000000000E+00 -0.00000000000E+00 -0.33040909196E+01  0.33040909196E+01  0.00000000000E+00 0.  1.
          2    1    1    2  501    0 -0.15880301599E+02 -0.12380202001E+02  0.83334721329E+02  0.85732894267E+02  0.00000000000E+00 0. -1.
         21    1    1    2  503  501  0.15880301599E+02  0.12380202001E+02  0.46048501875E+02  0.50258510776E+02  0.00000000000E+00 0.  1.
</event>
<event>
 4    1  0.2402120E+005  0.5473681E+02  0.7546771E-02  0.1278846E+00
          2   -1    0    0  502    0  0.00000000000E+00  0.00000000000E+00  0.20078918992E+04  0.20078918992E+04  0.00000000000E+00 0. -1.
         21   -1    0    0  503  502 -0.00000000000E+00 -0.00000000000E+00 -0.70543503492E+02  0.70543503492E+02  0.00000000000E+00 0. -1.
          2    1    1    2  501    0  0.73313417171E+01 -0.54243612984E+02  0.19968421313E+04  0.19975922045E+04  0.00000000000E+00 0. -1.
         21    1    1    2  503  501 -0.73313417171E+01  0.54243612984E+02 -0.59493735590E+02  0.80843198201E+02  0.00000000000E+00 0. -1.
</event>
<event>
 4    1  0.2402120E+005  0.2153612E+02  0.7546771E-02  0.1511746E+00
          2   -1    0    0  502    0  0.00000000000E+00  0.00000000000E+00  0.20966677628E+03  0.20966677628E+03  0.00000000000E+00 0.  1.
         21   -1    0    0  503  502 -0.00000000000E+00 -0.00000000000E+00 -0.41320812038E+02  0.41320812038E+02  0.00000000000E+00 0.  1.
          2    1    1    2  501    0 -0.20593625773E+02  0.63013648326E+01  0.20626142735E+03  0.20738269222E+03  0.00000000000E+00 0.  1.
         21    1    1    2  503  501  0.20593625773E+02 -0.63013648326E+01 -0.37915463105E+02  0.43604896098E+02  0.00000000000E+00 0.  1.
</event>
<event>
 4    1  0.2402120E+005  0.2290165E+02  0.7546771E-02  0.1493737E+00
          2   -1    0    0  503    0  0.00000000000E+00  0.00000000000E+00  0.18695768411E+03  0.18695768411E+03  0.00000000000E+00 0.  1.
         21   -1    0    0  501  502 -0.00000000000E+00 -0.00000000000E+00 -0.46507523882E+01  0.46507523882E+01  0.00000000000E+00 0. -1.
          2    1    1    2  501    0 -0.22896473521E+02  0.48667637796E+00  0.15150193903E+03  0.15322311472E+03  0.00000000000E+00 0.  1.
         21    1    1    2  503  502  0.22896473521E+02 -0.48667637796E+00  0.30804992696E+02  0.38385321785E+02  0.00000000000E+00 0. -1.
</event>
<event>
 4    1  0.2402120E+005  0.2222640E+02  0.7546771E-02  0.1502448E+00
          2   -1    0    0  503    0  0.00000000000E+00  0.00000000000E+00  0.11494694095E+04  0.11494694095E+04  0.00000000000E+00 0. -1.
         21   -1    0    0  501  502 -0.00000000000E+00 -0.00000000000E+00 -0.11361009379E+01  0.11361009379E+01  0.00000000000E+00 0.  1.
          2    1    1    2  501    0  0.11737992047E+02  0.18874117015E+02  0.10277850899E+04  0.10280253906E+04  0.00000000000E+00 0. -1.
         21    1    1    2  503  502 -0.11737992047E+02 -0.18874117015E+02  0.12054821862E+03  0.12258011977E+03  0.00000000000E+00 0.  1.
</event>
<event>
 4    1  0.2402120E+005  0.2139371E+02  0.7546771E-02  0.1513717E+00
          2   -1    0    0  502    0  0.00000000000E+00  0.00000000000E+00  0.43000590911E+03  0.43000590911E+03  0.00000000000E+00 0.  1.
         21   -1    0    0  503  502 -0.00000000000E+00 -0.00000000000E+00 -0.31644302387E+01  0.31644302387E+01  0.00000000000E+00 0. -1.
          2    1    1    2  501    0  0.16946528674E+02 -0.13057790991E+02  0.38986012730E+03  0.39044667959E+03  0.00000000000E+00 0.  1.
         21    1    1    2  503  501 -0.16946528674E+02  0.13057790991E+02  0.36981351571E+02  0.42723659765E+02  0.00000000000E+00 0. -1.
</event>
<event>
 4    1  0.2402120E+005  0.6047584E+02  0.7546771E-02  0.1258224E+00
          2   -1    0    0  503    0  0.00000000000E+00  0.00000000000E+00  0.12286784198E+04  0.12286784198E+04  0.00000000000E+00 0. -1.
         21   -1    0    0  501  502 -0.00000000000E+00 -0.00000000000E+00 -0.14747544310E+02  0.14747544310E+02  0.00000000000E+00 0. -1.
          2    1    1    2  501    0 -0.59694827291E+02 -0.96878919716E+01  0.11624027887E+04  0.11639749013E+04  0.00000000000E+00 0. -1.
         21    1    1    2  503  502  0.59694827291E+02  0.96878919716E+01  0.51528086812E+02  0.79451062842E+02  0.00000000000E+00 0. -1.
</event>
<event>
 4    1  0.2402120E+005  0.3650138E+02  0.7546771E-02  0.1370304E+00
          2   -1    0    0  502    0  0.00000000000E+00  0.00000000000E+00  0.15784073044E+03  0.15784073044E+03  0.00000000000E+00 0. -1.
         21   -1    0    0  503  502 -0.00000000000E+00 -0.00000000000E+00 -0.58918049896E+02  0.58918049896E+02  0.00000000000E+00 0.  1.
          2    1    1    2  501    0  0.31433734692E+02  0.18554550604E+02  0.14977706816E+03  0.15416069917E+03  0.00000000000E+00 0. -1.
         21    1    1    2  503  501 -0.31433734692E+02 -0.18554550604E+02 -0.50854387616E+02  0.62598081157E+02  0.00000000000E+00 0.  1.
</event>
<event>
 4    1  0.2402120E+005  0.2103548E+02  0.7546771E-02  0.1518759E+00
          2   -1    0    0  502    0  0.00000000000E+00  0.00000000000E+00  0.48304579981E+03  0.48304579981E+03  0.00000000000E+00 0. -1.
         21   -1    0    0  503  502 -0.00000000000E+00 -0.00000000000E+00 -0.23470859809E+02  0.23470859809E+02  0.00000000000E+00 0. -1.
          2    1    1    2  501    0  0.15829615938E+02 -0.13853331655E+02  0.47805440037E+03  0.47851698115E+03  0.00000000000E+00 0. -1.
         21    1    1    2  503  501 -0.15829615938E+02  0.13853331655E+02 -0.18479460369E+02  0.27999678467E+02  0.00000000000E+00 0. -1.
</event>
<event>
 4    1  0.2402120E+005  0.2715268E+02  0.7546771E-02  0.1446080E+00
          2   -1    0    0  502    0  0.00000000000E+00  0.00000000000E+00  0.13361600075E+04  0.13361600075E+04  0.00000000000E+00 0.  1.
         21   -1    0    0  503  502 -0.00000000000E+00 -0.00000000000E+00 -0.17397664755E+01  0.17397664755E+01  0.00000000000E+00 0.  1.
          2    1    1    2  501    0 -0.18038989960E+02  0.20294404853E+02  0.12199917824E+04  0.12202939060E+04  0.00000000000E+00 0.  1.
         21    1    1    2  503  501  0.18038989960E+02 -0.20294404853E+02  0.11442845871E+03  0.11760586801E+03  0.00000000000E+00 0.  1.
</event>
<event>
 4    1  0.2402120E+005  0.2659594E+02  0.7546771E-02  0.1451710E+00
          2   -1    0    0  503    0  0.00000000000E+00  0.00000000000E+00  0.21993087099E+03  0.21993087099E+03  0.00000000000E+00 0.  1.
         21   -1    0    0  501  502 -0.00000000000E+00 -0.00000000000E+00 -0.32169741742E+01  0.32169741742E+01  0.00000000000E+00 0.  1.
          2    1    1    2  501    0  0.24296546463E+02 -0.10817666800E+02  0.10663843602E+03  0.10990495949E+03  0.00000000000E+00 0.  1.
         21    1    1    2  503  502 -0.24296546463E+02  0.10817666800E+02  0.11007546080E+03  0.11324288567E+03  0.00000000000E+00 0.  1.
</event>
<event>
 4    1  0.2402120E+005  0.2381083E+02  0.7546771E-02  0.1482560E+00
          2   -1    0    0  502    0  0.00000000000E+00  0.00000000000E+00  0.91496959847E+03  0.91496959847E+03  0.00000000000E+00 0. -1.
         21   -1    0    0  503  502 -0.00000000000E+00 -0.00000000000E+00 -0.12647240043E+01  0.12647240043E+01  0.00000000000E+00 0. -1.
          2    1    1    2  501    0  0.23016280322E+02  0.60997196195E+01  0.78403138659E+03  0.78439286770E+03  0.00000000000E+00 0. -1.
         21    1    1    2  503  501 -0.23016280322E+02 -0.60997196195E+01  0.12967348787E+03  0.13184145477E+03  0.00000000000E+00 0. -1.
</event>
<event>
 4    1  0.2402120E+005  0.2084842E+02  0.7546771E-02  0.1521440E+00
          2   -1    0    0  502    0  0.00000000000E+00  0.00000000000E+00  0.37621450331E+03  0.37621450331E+03  0.00000000000E+00 0. -1.
         21   -1    0    0  503  502 -0.00000000000E+00 -0.00000000000E+00 -0.47518239480E+02  0.47518239480E+02  0.00000000000E+00 0. -1.
          2    1    1    2  501    0  0.18753123318E+02  0.91091804728E+01  0.37362302928E+03  0.37420425547E+03  0.00000000000E+00 0. -1.
         21    1    1    2  503  501 -0.18753123318E+02 -0.91091804728E+01 -0.44926765447E+02  0.49528487324E+02  0.00000000000E+00 0. -1.
</event>
<event>
 4    1  0.2402120E+005  0.2669788E+02  0.7546771E-02  0.1450667E+00
          2   -1    0    0  502    0  0.00000000000E+00  0.00000000000E+00  0.61690627051E+03  0.61690627051E+03  0.00000000000E+00 0.  1.
         21   -1    0    0  503  502 -0.00000000000E+00 -0.00000000000E+00 -0.13376340160E+01  0.13376340160E+01  0.00000000000E+00 0. -1.
          2    1    1    2  501    0 -0.12793961521E+01 -0.26667204794E+02  0.42188015889E+03  0.42272407683E+03  0.00000000000E+00 0.  1.
         21    1    1    2  503  501  0.12793961521E+01  0.26667204794E+02  0.19368847760E+03  0.19551982769E+03  0.00000000000E+00 0. -1.
</event>
<event>
 4    1  0.2402120E+005  0.2239102E+02  0.7546771E-02  0.1500290E+00
          2   -1    0    0  502    0  0.00000000000E+00  0.00000000000E+00  0.10626600860E+04  0.10626600860E+04  0.00000000000E+00 0.  1.
         21   -1    0    0  503  502 -0.00000000000E+00 -0.00000000000E+00 -0.14573562636E+02  0.14573562636E+02  0.00000000000E+00 0.  1.
          2    1    1    2  501    0  0.16911550632E+02  0.14675057666E+02  0.10538699418E+04  0.10541077802E+04  0.00000000000E+00 0.  1.
         21    1    1    2  503  501 -0.16911550632E+02 -0.14675057666E+02 -0.57834185046E+01  0.23125868457E+02  0.00000000000E+00 0.  1.
</event>
<event>
 4    1  0.2402120E+005  0.2535762E+02  0.7546771E-02  0.1464842E+00
          2   -1    0    0  502    0  0.00000000000E+00  0.00000000000E+00  0.36160803762E+02  0.36160803762E+02  0.00000000000E+00 0.  1.
         21   -1    0    0  503  502 -0.00000000000E+00 -0.00000000000E+00 -0.32601889945E+03  0.32601889945E+03  0.00000000000E+00 0.  1.
          2    1    1    2  501    0 -0.17927086905E+02  0.17934008080E+02  0.31153001158E+02  0.40168626711E+02  0.00000000000E+00 0.  1.
         21    1    1    2  503  501  0.17927086905E+02 -0.17934008080E+02 -0.32101109684E+03  0.32201107650E+03  0.00000000000E+00 0.  1.
</event>
<event>
 4    1  0.2402120E+005  0.2882159E+02  0.7546771E-02  0.1430121E+00
          2   -1    0    0  503    0  0.00000000000E+00  0.00000000000E+00  0.55831998699E+02  0.55831998699E+02  0.00000000000E+00 0. -1.
         21   -1    0    0  501  502 -0.00000000000E+00 -0.00000000000E+00 -0.37386194004E+02  0.37386194004E+02  0.00000000000E+00 0. -1.
          2    1    1    2  501    0  0.62675927777E+01  0.28131853816E+02  0.45387422911E+02  0.53765249715E+02  0.00000000000E+00 0. -1.
         21    1    1    2  503  502 -0.62675927777E+01 -0.28131853816E+02 -0.26941618216E+02  0.39452942989E+02  0.00000000000E+00 0. -1.
</event>
<event>
 4    1  0.2402120E+005  0.2105778E+02  0.7546771E-02  0.1518441E+00
          2   -1    0    0  502    0  0.00000000000E+00  0.00000000000E+00  0.11950718365E+04  0.11950718365E+04  0.00000000000E+00 0.  1.
         21   -1    0    0  503  502 -0.00000000000E+00 -0.00000000000E+00 -0.14033528034E+01  0.14033528034E+01  0.00000000000E+00 0. -1.
          2    1    1    2  501    0 -0.20867329794E+02 -0.28256801847E+01  0.11099248709E+04  0.11101246096E+04  0.00000000000E+00 0.  1.
         21    1    1    2  503  501  0.20867329794E+02  0.28256801847E+01  0.83743612799E+02  0.86350579650E+02  0.00000000000E+00 0. -1.
</event>
<event>
 4    1  0.2402120E+005  0.2571990E+02  0.7546771E-02  0.1460909E+00
          2   -1    0    0  503    0  0.00000000000E+00  0.00000000000E+00  0.64955066531E+03  0.64955066531E+03  0.00000000000E+00 0. -1.
         21   -1    0    0  501  502 -0.00000000000E+00 -0.00000000000E+00 -0.23483470778E+01  0.23483470778E+01  0.00000000000E+00 0. -1.
          2    1    1    2  501    0  0.23616587272E+02  0.10186768158E+02  0.56889327488E+03  0.56947438190E+03  0.00000000000E+00 0. -1.
         21    1    1    2  503  502 -0.23616587272E+02 -0.10186768158E+02  0.78309043356E+02  0.82424630489E+02  0.00000000000E+00 0. -1.
</event>
<event>
 4    1  0.2402120E+005  0.2102493E+02  0.7546771E-02  0.1518909E+00
          2   -1    0    0  503    0  0.00000000000E+00  0.00000000000E+00  0.16140783657E+04  0.16140783657E+04  0.00000000000E+00 0.  1.
         21   -1    0    0  501  502 -0.00000000000E+00 -0.00000000000E+00 -0.28838716211E+00  0.28838716211E+00  0.00000000000E+00 0.  1.
          2    1    1    2  501    0  0.12734504417E+02  0.16729622241E+02  0.98799691256E+03  0.98822059637E+03  0.00000000000E+00 0.  1.
         21    1    1    2  503  502 -0.12734504417E+02 -0.16729622241E+02  0.62579306602E+03  0.62614615653E+03  0.00000000000E+00 0.  1.
</event>
<event>
 4    1  0.2402120E+005  0.3301998E+02  0.7546771E-02  0.1395044E+00
          2   -1    0    0  502    0  0.00000000000E+00  0.00000000000E+00  0.16314802444E+04  0.16314802444E+04  0.00000000000E+00 0.  1.
         21   -1    0    0  503  502 -0.00000000000E+00 -0.00000000000E+00 -0.14179741743E+02  0.14179741743E+02  0.00000000000E+00 0.  1.
          2    1    1    2  501    0 -0.30523540080E+02  0.12594940741E+02  0.16118559703E+04  0.16121941533E+04  0.00000000000E+00 0.  1.
         21    1    1    2  503  501  0.30523540080E+02 -0.12594940741E+02  0.54445323175E+01  0.33465832777E+02  0.00000000000E+00 0.  1.
</event>
<event>
 4    1  0.2402120E+005  0.2595525E+02  0.7546771E-02  0.1458395E+00
          2   -1    0    0  502    0  0.00000000000E+00  0.00000000000E+00  0.44931808973E+03  0.44931808973E+03  0.00000000000E+00 0.  1.
         21   -1    0    0  503  502 -0.00000000000E+00 -0.00000000000E+00 -0.28635533883E+02  0.28635533883E+02  0.00000000000E+00 0.  1.
          2    1    1    2  501    0 -0.17397814432E+02  0.19261126431E+02  0.44297768829E+03  0.44373743054E+03  0.00000000000E+00 0.  1.
         21    1    1    2  503  501  0.17397814432E+02 -0.19261126431E+02 -0.22295132438E+02  0.34216193079E+02  0.00000000000E+00 0.  1.
</event>
<event>
 4    1  0.2402120E+005  0.2254463E+02  0.7546771E-02  0.1498297E+00
          2   -1    0    0  503    0  0.00000000000E+00  0.00000000000E+00  0.64007156974E+02  0.64007156974E+02  0.00000000000E+00 0. -1.
         21   -1    0    0  501  502 -0.00000000000E+00 -0.00000000000E+00 -0.43701426164E+02  0.43701426164E+02  0.00000000000E+00 0. -1.
          2    1    1    2  501    0  0.22395710935E+02 -0.25870045504E+01  0.58869332724E+02  0.63038550080E+02  0.00000000000E+00 0. -1.
         21    1    1    2  503  502 -0.22395710935E+02  0.25870045504E+01 -0.38563601914E+02  0.44670033058E+02  0.00000000000E+00 0. -1.
</event>
<event>
 4    1  0.2402120E+005  0.2133119E+02  0.7546771E-02  0.1514588E+00
          2   -1    0    0  503    0  0.00000000000E+00  0.00000000000E+00  0.81195084660E+03  0.81195084660E+03  0.00000000000E+00 0. -1.
         21   -1    0    0  501  502 -0.00000000000E+00 -0.00000000000E+00 -0.63786505175E+01  0.63786505175E+01  0.00000000000E+00 0.  1.
          2    1    1    2  501    0  0.20376765179E+02 -0.63093028029E+01  0.79356390808E+03  0.79385055021E+03  0.00000000000E+00 0. -1.
         21    1    1    2  503  502 -0.20376765179E+02  0.63093028029E+01  0.12008288005E+02  0.24478946910E+02  0.00000000000E+00 0.  1.
</event>
<event>
 4    1  0.2402120E+005  0.2607271E+02  0.7546771E-02  0.1457152E+00
          2   -1    0    0  503    0  0.00000000000E+00  0.00000000000E+00  0.14565414087E+02  0.14565414087E+02  0.00000000000E+00 0.  1.
         21   -1    0    0  501  502 -0.00000000000E+00 -0.00000000000E+00 -0.64611798795E+02  0.64611798795E+02  0.00000000000E+00 0. -1.
          2    1    1    2  501    0 -0.22462590703E+00 -0.26071746036E+02 -0.41623472774E+01  0.26402869788E+02  0.00000000000E+00 0.  1.
         21    1    1    2  503  502  0.22462590703E+00  0.26071746036E+02 -0.45884037430E+02  0.52774343095E+02  0.00000000000E+00 0. -1.
</event>
<event>
 4    1  0.2402120E+005  0.2435881E+02  0.7546771E-02  0.1476106E+00
          2   -1    0    0  502    0  0.00000000000E+00  0.00000000000E+00  0.62475015451E+03  0.62475015451E+03  0.00000000000E+00 0. -1.
         21   -1    0    0  503  502 -0.00000000000E+00 -0.00000000000E+00 -0.24365274808E+02  0.24365274808E+02  0.00000000000E+00 0. -1.
          2    1    1    2  501    0  0.19901390645E+02 -0.14045863796E+02  0.61836175943E+03  0.61884135056E+03  0.00000000000E+00 0. -1.
         21    1    1    2  503  501 -0.19901390645E+02  0.14045863796E+02 -0.17976879732E+02  0.30274078752E+02  0.00000000000E+00 0. -1.
</event>
<event>
 4    1  0.2402120E+005  0.2280222E+02  0.7546771E-02  0.1494997E+00
          2   -1    0    0  502    0  0.00000000000E+00  0.00000000000E+00  0.11528374545E+04  0.11528374545E+04  0.00000000000E+00 0. -1.
         21   -1    0    0  503  502 -0.00000000000E+00 -0.00000000000E+00 -0.49408847790E+00  0.49408847790E+00  0.00000000000E+00 0.  1.
          2    1    1    2  501    0  0.20832182655E+01  0.22706854024E+02  0.74644745999E+03  0.74679565582E+03  0.00000000000E+00 0. -1.
         21    1    1    2  503  501 -0.20832182655E+01 -0.22706854024E+02  0.40589590600E+03  0.40653588713E+03  0.00000000000E+00 0.  1.
</event>
<event>
 4    1  0.2402120E+005  0.2253168E+02  0.7546771E-02  0.1498464E+00
          2   -1    0    0  503    0  0.00000000000E+00  0.00000000000E+00  0.16435172635E+04  0.16435172635E+04  0.00000000000E+00 0.  1.
         21   -1    0    0  501  502 -0.00000000000E+00 -0.00000000000E+00 -0.52073013509E+00  0.52073013509E+00  0.00000000000E+00 0. -1.
          2    1    1    2  501    0  0.75360332232E+01  0.21234049027E+02  0.13457900089E+04  0.13459786123E+04  0.00000000000E+00 0.  1.
         21    1    1    2  503  502 -0.75360332232E+01 -0.21234049027E+02  0.29720652443E+03  0.29805938133E+03  0.00000000000E+00 0. -1.
</event>
<event>
 4    1  0.2402120E+005  0.2538402E+02  0.7546771E-02  0.1464553E+00
          2   -1    0    0  502    0  0.00000000000E+00  0.00000000000E+00  0.59450210854E+03  0.59450210854E+03  0.00000000000E+00 0.  1.
         21   -1    0    0  503  502 -0.00000000000E+00 -0.00000000000E+00 -0.42193289504E+01  0.42193289504E+01  0.00000000000E+00 0.  1.
          2    1    1    2  501    0 -0.37503667271E+01 -0.25105442570E+02  0.55320416853E+03  0.55378624087E+03  0.00000000000E+00 0.  1.
         21    1    1    2  503  501  0.37503667271E+01  0.25105442570E+02  0.37078611058E+02  0.44935196619E+02  0.00000000000E+00 0.  1.
</event>
<event>
 4    1  0.2402120E+005  0.2048798E+02  0.7546771E-02  0.1526702E+00
          2   -1    0    0  503    0  0.00000000000E+00  0.00000000000E+00  0.24983143810E+04  0.24983143810E+04  0.00000000000E+00 0.  1.
         21   -1    0    0  501  502 -0.00000000000E+00 -0.00000000000E+00 -0.17044720473E+00  0.17044720473E+00  0.00000000000E+00 0.  1.
          2    1    1    2  501    0  0.15278312458E+02 -0.13650294003E+02  0.13982628231E+04  0.13984129146E+04  0.00000000000E+00 0.  1.
         21    1    1    2  503  502 -0.15278312458E+02  0.13650294003E+02  0.10998811107E+04  0.11000719135E+04  0.00000000000E+00 0.  1.
</event>
<event>
 4    1  0.2402120E+005  0.2826210E+02  0.7546771E-02  0.1435326E+00
          2   -1    0    0  503    0  0.00000000000E+00  0.00000000000E+00  0.10268674079E+04  0.10268674079E+04  0.00000000000E+00 0. -1.
         21   -1    0    0  501  502 -0.00000000000E+00 -0.00000000000E+00 -0.27704714614E+01  0.27704714614E+01  0.00000000000E+00 0. -1.
          2    1    1    2  501    0 -0.10749248864E+02 -0.26138097872E+02  0.94865509329E+03  0.94907598881E+03  0.00000000000E+00 0. -1.
         21    1    1    2  503  502  0.10749248864E+02  0.26138097872E+02  0.75441843148E+02  0.80561890551E+02  0.00000000000E+00 0. -1.
</event>
<event>
 4    1  0.2402120E+005  0.5251371E+02  0.7546771E-02  0.1287627E+00
          2   -1    0    0  503    0  0.00000000000E+00  0.00000000000E+00  0.59979291662E+03  0.59979291662E+03  0.00000000000E+00 0.  1.
         21   -1    0    0  501  502 -0.00000000000E+00 -0.00000000000E+00 -0.75733110942E+01  0.75733110942E+01  0.00000000000E+00 0.  1.
          2    1    1    2  501    0  0.12486158625E+02  0.51007697646E+02  0.48646433260E+03  0.48929054382E+03  0.00000000000E+00 0.  1.
         21    1    1    2  503  502 -0.12486158625E+02 -0.51007697646E+02  0.10575527293E+03  0.11807568390E+03  0.00000000000E+00 0.  1.
</event>
<event>
 4    1  0.2402120E+005  0.4460226E+02  0.7546771E-02  0.1323440E+00
          2   -1    0    0  502    0  0.00000000000E+00  0.00000000000E+00  0.87008041347E+03  0.87008041347E+03  0.00000000000E+00 0.  1.
         21   -1    0    0  503  502 -0.00000000000E+00 -0.00000000000E+00 -0.50140553036E+01  0.50140553036E+01  0.00000000000E+00 0. -1.
          2    1    1    2  501    0  0.24132990658E+02 -0.37509468641E+02  0.75525196482E+03  0.75656783691E+03  0.00000000000E+00 0.  1.
         21    1    1    2  503  501 -0.24132990658E+02  0.37509468641E+02  0.10981439334E+03  0.11852663186E+03  0.00000000000E+00 0. -1.
</event>
<event>
 4    1  0.2402120E+005  0.2432178E+02  0.7546771E-02  0.1476536E+00
          2   -1    0    0  503    0  0.00000000000E+00  0.00000000000E+00  0.49453651886E+03  0.49453651886E+03  0.00000000000E+00 0. -1.
         21   -1    0    0  501  502 -0.00000000000E+00 -0.00000000000E+00 -0.17105745142E+01  0.17105745142E+01  0.00000000000E+00 0. -1.
          2    1    1    2  501    0  0.99829602009E+01  0.22178580323E+02  0.38247911519E+03  0.38325164380E+03  0.00000000000E+00 0. -1.
         21    1    1    2  503  502 -0.99829602009E+01 -0.22178580323E+02  0.11034682915E+03  0.11299544957E+03  0.00000000000E+00 0. -1.
</event>
<event>
 4    1  0.2402120E+005  0.3965315E+02  0.7546771E-02  0.1350530E+00
          2   -1    0    0  503    0  0.00000000000E+00  0.00000000000E+00  0.35401377760E+03  0.35401377760E+03  0.00000000000E+00 0. -1.
         21   -1    0    0  501  502 -0.00000000000E+00 -0.00000000000E+00 -0.44432472268E+01  0.44432472268E+01  0.00000000000E+00 0. -1.
          2    1    1    2  501    0 -0.25840546526E+02  0.30077211315E+02  0.17128993469E+03  0.17581983452E+03  0.00000000000E+00 0. -1.
         21    1    1    2  503  502  0.25840546526E+02 -0.30077211315E+02  0.17828059568E+03  0.18263719031E+03  0.00000000000E+00 0. -1.
</event>
<event>
 4    1  0.2402120E+005  0.3031190E+02  0.7546771E-02  0.1416905E+00
          2   -1    0    0  503    0  0.00000000000E+00  0.00000000000E+00  0.30012198434E+03  0.30012198434E+03  0.00000000000E+00 0. -1.
         21   -1    0    0  501  502 -0.00000000000E+00 -0.00000000000E+00 -0.30716267846E+01  0.30716267846E+01  0.00000000000E+00 0.  1.
          2    1    1    2  501    0  0.10387211411E+02 -0.28476611146E+02  0.15724667530E+03  0.16014158871E+03  0.00000000000E+00 0. -1.
         21    1    1    2  503  502 -0.10387211411E+02  0.28476611146E+02  0.13980368225E+03  0.14305202241E+03  0.00000000000E+00 0.  1.
</event>
<event>
 4    1  0.2402120E+005  0.4368980E+02  0.7546771E-02  0.1328122E+00
          2   -1    0    0  503    0  0.00000000000E+00  0.00000000000E+00  0.18276100343E+03  0.18276100343E+03  0.00000000000E+00 0.  1.
         21   -1    0    0  501  502 -0.00000000000E+00 -0.00000000000E+00 -0.11067405036E+02  0.11067405036E+02  0.00000000000E+00 0.  1.
          2    1    1    2  501    0 -0.44311914746E+01 -0.43464506260E+02  0.62849966992E+02  0.76543563499E+02  0.00000000000E+00 0.  1.
         21    1    1    2  503  502  0.44311914746E+01  0.43464506260E+02  0.10884363140E+03  0.11728484497E+03  0.00000000000E+00 0.  1.
</event>
<event>
 4    1  0.2402120E+005  0.3333358E+02  0.7546771E-02  0.1392673E+00
          2   -1    0    0  503    0  0.00000000000E+00  0.00000000000E+00  0.12321976433E+04  0.12321976433E+04  0.00000000000E+00 0. -1.
         21   -1    0    0  501  502 -0.00000000000E+00 -0.00000000000E+00 -0.14416737336E+01  0.14416737336E+01  0.00000000000E+00 0.  1.
          2    1    1    2  501    0  0.29705841875E+02 -0.15122518546E+02  0.99285723370E+03  0.99341663672E+03  0.00000000000E+00 0. -1.
         21    1    1    2  503  502 -0.29705841875E+02  0.15122518546E+02  0.23789873591E+03  0.24022268035E+03  0.00000000000E+00 0.  1.
</event>
<event>
 4    1  0.2402120E+005  0.4268141E+02  0.7546771E-02  0.1333451E+00
          2   -1    0    0  502    0  0.00000000000E+00  0.00000000000E+00  0.13214456497E+04  0.13214456497E+04  0.00000000000E+00 0.  1.
         21   -1    0    0  503  502 -0.00000000000E+00 -0.00000000000E+00 -0.24201722066E+01  0.24201722066E+01  0.00000000000E+00 0. -1.
          2    1    1    2  501    0 -0.10638109363E+00 -0.42681280957E+02  0.10937650548E+04  0.10945975051E+04  0.00000000000E+00 0.  1.
         21    1    1    2  503  501  0.10638109363E+00  0.42681280957E+02  0.22526042269E+03  0.22926831681E+03  0.00000000000E+00 0. -1.
</event>
<event>
 4    1  0.2402120E+005  0.2728939E+02  0.7546771E-02  0.1444723E+00
          2   -1    0    0  502    0  0.00000000000E+00  0.00000000000E+00  0.11670292941E+04  0.11670292941E+04  0.00000000000E+00 0. -1.
         21   -1    0    0  503  502 -0.00000000000E+00 -0.00000000000E+00 -0.13491225877E+01  0.13491225877E+01  0.00000000000E+00 0. -1.
          2    1    1    2  501    0  0.10844440756E+02  0.25042145198E+02  0.10069337574E+04  0.10073034809E+04  0.00000000000E+00 0. -1.
         21    1    1    2  503  501 -0.10844440756E+02 -0.25042145198E+02  0.15874641418E+03  0.16107493581E+03  0.00000000000E+00 0. -1.
</event>
<event>
 4    1  0.2402120E+005  0.2172393E+02  0.7546771E-02  0.1509175E+00
          2   -1    0    0  503    0  0.00000000000E+00  0.00000000000E+00  0.42543632030E+01  0.42543632030E+01  0.00000000000E+00 0.  1.
         21   -1    0    0  501  502 -0.00000000000E+00 -0.00000000000E+00 -0.18659061216E+03  0.18659061216E+03  0.00000000000E+00 0. -1.
          2    1    1    2  501    0 -0.50823384358E+01  0.21121059049E+02 -0.30404225994E+02  0.37367716784E+02  0.00000000000E+00 0.  1.
         21    1    1    2  503  502  0.50823384358E+01 -0.21121059049E+02 -0.15193202296E+03  0.15347725858E+03  0.00000000000E+00 0. -1.
</event>
<event>
 4    1  0.2402120E+005  0.2441085E+02  0.7546771E-02  0.1475503E+00
          2   -1    0    0  503    0  0.00000000000E+00  0.00000000000E+00  0.15480820552E+04  0.15480820552E+04  0.00000000000E+00 0. -1.
         21   -1    0    0  501  502 -0.00000000000E+00 -0.00000000000E+00 -0.11794680791E+01  0.11794680791E+01  0.00000000000E+00 0. -1.
          2    1    1    2  501    0  0.33689463232E+01 -0.24177262714E+02  0.14092378873E+04  0.14094492942E+04  0.00000000000E+00 0. -1.
         21    1    1    2  503  502 -0.33689463232E+01  0.24177262714E+02  0.13766469976E+03  0.13981222905E+03  0.00000000000E+00 0. -1.
</event>
<event>
 4    1  0.2402120E+005  0.2748993E+02  0.7546771E-02  0.1442748E+00
          2   -1    0    0  503    0  0.00000000000E+00  0.00000000000E+00  0.23459489346E+03  0.23459489346E+03  0.00000000000E+00 0. -1.
         21   -1    0    0  501  502 -0.00000000000E+00 -0.00000000000E+00 -0.32744340198E+01  0.32744340198E+01  0.00000000000E+00 0. -1.
          2    1    1    2  501    0  0.24903202006E+02 -0.11641589175E+02  0.10050702905E+03  0.10419865142E+03  0.00000000000E+00 0. -1.
         21    1    1    2  503  502 -0.24903202006E+02  0.11641589175E+02  0.13081343039E+03  0.13367067607E+03  0.00000000000E+00 0. -1.
</event>
<event>
 4    1  0.2402120E+005  0.3809390E+02  0.7546771E-02  0.1360033E+00
          2   -1    0    0  503    0  0.00000000000E+00  0.00000000000E+00  0.56674368994E+03  0.56674368994E+03  0.00000000000E+00 0. -1.
         21   -1    0    0  501  502 -0.00000000000E+00 -0.00000000000E+00 -0.10873170971E+02  0.10873170971E+02  0.00000000000E+00 0. -1.
          2    1    1    2  501    0  0.36924225681E+02 -0.93673108400E+01  0.53045896736E+03  0.53182502857E+03  0.00000000000E+00 0. -1.
         21    1    1    2  503  502 -0.36924225681E+02  0.93673108400E+01  0.25411551608E+02  0.45791832347E+02  0.00000000000E+00 0. -1.
</event>
<event>
 4    1  0.2402120E+005  0.2176126E+02  0.7546771E-02  0.1508668E+00
          2   -1    0    0  503    0  0.00000000000E+00  0.00000000000E+00  0.91257757895E+03  0.91257757895E+03  0.00000000000E+00 0. -1.
         21   -1    0    0  501  502 -0.00000000000E+00 -0.00000000000E+00 -0.75730933370E+02  0.75730933370E+02  0.00000000000E+00 0.  1.
          2    1    1    2  501    0 -0.18309174771E+02  0.11761236275E+02  0.91088166619E+03  0.91114157097E+03  0.00000000000E+00 0. -1.
         21    1    1    2  503  502  0.18309174771E+02 -0.11761236275E+02 -0.74035020610E+02  0.77166941343E+02  0.00000000000E+00 0.  1.
</event>
<event>
 4    1  0.2402120E+005  0.2833433E+02  0.7546771E-02  0.1434646E+00
          2   -1    0    0  503    0  0.00000000000E+00  0.00000000000E+00  0.26992695007E+03  0.26992695007E+03  0.00000000000E+00 0. -1.
         21   -1    0    0  501  502 -0.00000000000E+00 -0.00000000000E+00 -0.30407144876E+01  0.30407144876E+01  0.00000000000E+00 0. -1.
          2    1    1    2  501    0  0.23820703096E+02  0.15343020468E+02  0.15361937016E+03  0.15621057923E+03  0.00000000000E+00 0. -1.
         21    1    1    2  503  502 -0.23820703096E+02 -0.15343020468E+02  0.11326686542E+03  0.11675708533E+03  0.00000000000E+00 0. -1.
</event>
<event>
 4    1  0.2402120E+005  0.2175649E+02  0.7546771E-02  0.1508732E+00
          2   -1    0    0  502    0  0.00000000000E+00  0.00000000000E+00  0.12976102642E+04  0.12976102642E+04  0.00000000000E+00 0. -1.
         21   -1    0    0  503  502 -0.00000000000E+00 -0.00000000000E+00 -0.14667420150E+01  0.14667420150E+01  0.00000000000E+00 0.  1.
          2    1    1    2  501    0 -0.11153110898E+02 -0.18680286953E+02  0.12110750492E+04  0.12112704569E+04  0.00000000000E+00 0. -1.
         21    1    1    2  503  501  0.11153110898E+02  0.18680286953E+02  0.85068472913E+02  0.87806549226E+02  0.00000000000E+00 0.  1.
</event>
<event>
 4    1  0.2402120E+005  0.2595185E+02  0.7546771E-02  0.1458431E+00
          2   -1    0    0  502    0  0.00000000000E+00  0.00000000000E+00  0.10565031364E+03  0.10565031364E+03  0.00000000000E+00 0. -1.
         21   -1    0    0  503  502 -0.00000000000E+00 -0.00000000000E+00 -0.20481198521E+02  0.20481198521E+02  0.00000000000E+00 0. -1.
          2    1    1    2  501    0 -0.24908281136E+02 -0.72853381505E+01  0.94923403596E+02  0.98407068706E+02  0.00000000000E+00 0. -1.
         21    1    1    2  503  501  0.24908281136E+02  0.72853381505E+01 -0.97542884776E+01  0.27724443454E+02  0.00000000000E+00 0. -1.
</event>
<event>
 4    1  0.2402120E+005  0.2306885E+02  0.7546771E-02  0.1491635E+00
          2   -1    0    0  503    0  0.00000000000E+00  0.00000000000E+00  0.57791529761E+03  0.57791529761E+03  0.00000000000E+00 0.  1.
         21   -1    0    0  501  502 -0.00000000000E+00 -0.00000000000E+00 -0.11067652597E+02  0.11067652597E+02  0.00000000000E+00 0. -1.
          2    1    1    2  501    0 -0.15389938094E+02 -0.17184923132E+02  0.56539818942E+03  0.56586861052E+03  0.00000000000E+00 0.  1.
         21    1    1    2  503  502  0.15389938094E+02  0.17184923132E+02  0.14494555969E+01  0.23114339686E+02  0.00000000000E+00 0. -1.
</event>
<event>
 4    1  0.2402120E+005  0.2267078E+02  0.7546771E-02  0.1496674E+00
          2   -1    0    0  503    0  0.00000000000E+00  0.00000000000E+00  0.16823867045E+03  0.16823867045E+03  0.00000000000E+00 0. -1.
         21   -1    0    0  501  502 -0.00000000000E+00 -0.00000000000E+00 -0.80121058350E+03  0.80121058350E+03  0.00000000000E+00 0. -1.
          2    1    1    2  501    0  0.11852101603E+02 -0.19325935536E+02  0.16731367426E+03  0.16884261811E+03  0.00000000000E+00 0. -1.
         21    1    1    2  503  502 -0.11852101603E+02  0.19325935536E+02 -0.80028558731E+03  0.80060663584E+03  0.00000000000E+00 0. -1.
</event>
<event>
 4    1  0.2402120E+005  0.2157804E+02  0.7546771E-02  0.1511170E+00
          2   -1    0    0  503    0  0.00000000000E+00  0.00000000000E+00  0.16018915339E+03  0.16018915339E+03  0.00000000000E+00 0.  1.
         21   -1    0    0  501  502 -0.00000000000E+00 -0.00000000000E+00 -0.11816573912E+02  0.11816573912E+02  0.00000000000E+00 0.  1.
          2    1    1    2  501    0 -0.13003581158E+02 -0.17219712293E+02  0.14886631479E+03  0.15042204391E+03  0.00000000000E+00 0.  1.
         21    1    1    2  503  502  0.13003581158E+02  0.17219712293E+02 -0.49373530941E+00  0.21583683396E+02  0.00000000000E+00 0.  1.
</event>
<event>
 4    1  0.2402120E+005  0.2931960E+02  0.7546771E-02  0.1425603E+00
          2   -1    0    0  503    0  0.00000000000E+00  0.00000000000E+00  0.46192499238E+03  0.46192499238E+03  0.00000000000E+00 0.  1.
         21   -1    0    0  501  502 -0.00000000000E+00 -0.00000000000E+00 -0.12370229028E+02  0.12370229028E+02  0.00000000000E+00 0. -1.
          2    1    1    2  501    0  0.23933307852E+02  0.16936229040E+02  0.44335991782E+03  0.44432831983E+03  0.00000000000E+00 0.  1.
         21    1    1    2  503  502 -0.23933307852E+02 -0.16936229040E+02  0.61948455353E+01  0.29966901576E+02  0.00000000000E+00 0. -1.
</event>
<event>
 4    1  0.2402120E+005  0.2169372E+02  0.7546771E-02  0.1509587E+00
          2   -1    0    0  503    0  0.00000000000E+00  0.00000000000E+00  0.16331754632E+04  0.16331754632E+04  0.00000000000E+00 0.  1.
         21   -1    0    0  501  502 -0.00000000000E+00 -0.00000000000E+00 -0.25651683590E+01  0.25651683590E+01  0.00000000000E+00 0.  1.
          2    1    1    2  501    0 -0.20862421923E+02  0.59478267040E+01  0.15858691852E+04  0.15860175566E+04  0.00000000000E+00 0.  1.
         21    1    1    2  503  502  0.20862421923E+02 -0.59478267040E+01  0.44741109637E+02  0.49723074951E+02  0.00000000000E+00 0.  1.
</event>
<event>
 4    1  0.2402120E+005  0.2165640E+02  0.7546771E-02  0.1510096E+00
          2   -1    0    0  503    0  0.00000000000E+00  0.00000000000E+00  0.21176097866E+02  0.21176097866E+02  0.00000000000E+00 0. -1.
         21   -1    0    0  501  502 -0.00000000000E+00 -0.00000000000E+00 -0.22571027369E+02  0.22571027369E+02  0.00000000000E+00 0. -1.
          2    1    1    2  501    0  0.43607991730E+01 -0.21212801588E+02 -0.36934437095E+01  0.21969092996E+02  0.00000000000E+00 0. -1.
         21    1    1    2  503  502 -0.43607991730E+01  0.21212801588E+02  0.22985142068E+01  0.21778032239E+02  0.00000000000E+00 0. -1.
</event>
<event>
 4    1  0.2402120E+005  0.2197280E+02  0.7546771E-02  0.1505816E+00
          2   -1    0    0  503    0  0.00000000000E+00  0.00000000000E+00  0.33512856771E+03  0.33512856771E+03  0.00000000000E+00 0.  1.
         21   -1    0    0  501  502 -0.00000000000E+00 -0.00000000000E+00 -0.47172052078E+01  0.47172052078E+01  0.00000000000E+00 0. -1.
          2    1    1    2  501    0 -0.20054979088E+02  0.89778582727E+01  0.30682353517E+03  0.30760930717E+03  0.00000000000E+00 0.  1.
         21    1    1    2  503  502  0.20054979088E+02 -0.89778582727E+01  0.23587827330E+02  0.32236465742E+02  0.00000000000E+00 0. -1.
</event>
<event>
 4    1  0.2402120E+005  0.2054790E+02  0.7546771E-02  0.1525818E+00
          2   -1    0    0  503    0  0.00000000000E+00  0.00000000000E+00  0.48622666146E+01  0.48622666146E+01  0.00000000000E+00 0.  1.
         21   -1    0    0  501  502 -0.00000000000E+00 -0.00000000000E+00 -0.87648740677E+02  0.87648740677E+02  0.00000000000E+00 0.  1.
          2    1    1    2  501    0  0.12047012890E+02  0.16645896479E+02 -0.45849317474E+02  0.50243171695E+02  0.00000000000E+00 0.  1.
         21    1    1    2  503  502 -0.12047012890E+02 -0.16645896479E+02 -0.36937156588E+02  0.42267835596E+02  0.00000000000E+00 0.  1.
</event>
<event>
 4    1  0.2402120E+005  0.2347959E+02  0.7546771E-02  0.1486562E+00
          2   -1    0    0  502    0  0.00000000000E+00  0.00000000000E+00  0.16381582826E+03  0.16381582826E+03  0.00000000000E+00 0.  1.
         21   -1    0    0  503  502 -0.00000000000E+00 -0.00000000000E+00 -0.25073192656E+02  0.25073192656E+02  0.00000000000E+00 0.  1.
          2    1    1    2  501    0 -0.19341444215E+02 -0.13311644010E+02  0.15724940923E+03  0.15899266661E+03  0.00000000000E+00 0.  1.
         21    1    1    2  503  501  0.19341444215E+02  0.13311644010E+02 -0.18506773632E+02  0.29896354306E+02  0.00000000000E+00 0.  1.
</event>
<event>
 4    1  0.2402120E+005  0.4475821E+02  0.7546771E-02  0.1322653E+00
          2   -1    0    0  503    0  0.00000000000E+00  0.00000000000E+00  0.89768964635E+03  0.89768964635E+03  0.00000000000E+00 0.  1.
         21   -1    0    0  501  502 -0.00000000000E+00 -0.00000000000E+00 -0.22654299405E+01  0.22654299405E+01  0.00000000000E+00 0.  1.
          2    1    1    2  501    0 -0.44138109690E+02  0.74245733874E+01  0.50268829013E+03  0.50467694028E+03  0.00000000000E+00 0.  1.
         21    1    1    2  503  502  0.44138109690E+02 -0.74245733874E+01  0.39273592628E+03  0.39527813601E+03  0.00000000000E+00 0.  1.
</event>
<event>
 4    1  0.2402120E+005  0.3762495E+02  0.7546771E-02  0.1362995E+00
          2   -1    0    0  502    0  0.00000000000E+00  0.00000000000E+00  0.94847935559E+03  0.94847935559E+03  0.00000000000E+00 0. -1.
         21   -1    0    0  503  502 -0.00000000000E+00 -0.00000000000E+00 -0.57132411946E+01  0.57132411946E+01  0.00000000000E+00 0. -1.
          2    1    1    2  501    0  0.35642898014E+02  0.12050739526E+02  0.88145253402E+03  0.88225518204E+03  0.00000000000E+00 0. -1.
         21    1    1    2  503  501 -0.35642898014E+02 -0.12050739526E+02  0.61313580374E+02  0.71937414745E+02  0.00000000000E+00 0. -1.
</event>
<event>
 4    1  0.2402120E+005  0.3838823E+02  0.7546771E-02  0.1358199E+00
          2   -1    0    0  502    0  0.00000000000E+00  0.00000000000E+00  0.69459195893E+02  0.69459195893E+02  0.00000000000E+00 0. -1.
         21   -1    0    0  503  502 -0.00000000000E+00 -0.00000000000E+00 -0.17683380291E+03  0.17683380291E+03  0.00000000000E+00 0. -1.
          2    1    1    2  501    0 -0.13664887707E+02  0.35873769806E+02  0.61835803839E+02  0.72782711907E+02  0.00000000000E+00 0. -1.
         21    1    1    2  503  501  0.13664887707E+02 -0.35873769806E+02 -0.16921041086E+03  0.17351028690E+03  0.00000000000E+00 0. -1.
</event>
<event>
 4    1  0.2402120E+005  0.2506436E+02  0.7546771E-02  0.1468085E+00
          2   -1    0    0  503    0  0.00000000000E+00  0.00000000000E+00  0.16284743140E+02  0.16284743140E+02  0.00000000000E+00 0.  1.
         21   -1    0    0  501  502 -0.00000000000E+00 -0.00000000000E+00 -0.44654078227E+02  0.44654078227E+02  0.00000000000E+00 0.  1.
          2    1    1    2  501    0  0.17809517450E+02 -0.17636414785E+02 -0.29446023492E+01  0.25236733570E+02  0.00000000000E+00 0.  1.
         21    1    1    2  503  502 -0.17809517450E+02  0.17636414785E+02 -0.25424732738E+02  0.35702087797E+02  0.00000000000E+00 0.  1.
</event>
<event>
 4    1  0.2402120E+005  0.3622701E+02  0.7546771E-02  0.1372136E+00
          2   -1    0    0  503    0  0.00000000000E+00  0.00000000000E+00  0.11452627801E+04  0.11452627801E+04  0.00000000000E+00 0. -1.
         21   -1    0    0  501  502 -0.00000000000E+00 -0.00000000000E+00 -0.70397971800E+02  0.70397971800E+02  0.00000000000E+00 0. -1.
          2    1    1    2  501    0 -0.35235495035E+02  0.84176133753E+01  0.11402953661E+04  0.11408706843E+04  0.00000000000E+00 0. -1.
         21    1    1    2  503  502  0.35235495035E+02 -0.84176133753E+01 -0.65430557777E+02  0.74790067631E+02  0.00000000000E+00 0. -1.
</event>
<event>
 4    1  0.2402120E+005  0.2044424E+02  0.7546771E-02  0.1527350E+00
          2   -1    0    0  503    0  0.00000000000E+00  0.00000000000E+00  0.14275805557E+04  0.14275805557E+04  0.00000000000E+00 0. -1.
         21   -1    0    0  501  502 -0.00000000000E+00 -0.00000000000E+00 -0.59975209757E+00  0.59975209757E+00  0.00000000000E+00 0.  1.
          2    1    1    2  501    0  0.16074350703E+02 -0.12632581230E+02  0.12243678069E+04  0.12245384818E+04  0.00000000000E+00 0. -1.
         21    1    1    2  503  502 -0.16074350703E+02  0.12632581230E+02  0.20261299671E+03  0.20364182599E+03  0.00000000000E+00 0.  1.
</event>
<event>
 4    1  0.2402120E+005  0.2052647E+02  0.7546771E-02  0.1526134E+00
          2   -1    0    0  503    0  0.00000000000E+00  0.00000000000E+00  0.52521674168E+03  0.52521674168E+03  0.00000000000E+00 0. -1.
         21   -1    0    0  501  502 -0.00000000000E+00 -0.00000000000E+00 -0.13745090467E+02  0.13745090467E+02  0.00000000000E+00 0.  1.
          2    1    1    2  501    0  0.97761427110E+01 -0.18048910078E+02  0.51723457729E+03  0.51764171399E+03  0.00000000000E+00 0. -1.
         21    1    1    2  503  502 -0.97761427110E+01  0.18048910078E+02 -0.57629260728E+01  0.21320118157E+02  0.00000000000E+00 0.  1.
</event>
<event>
 4    1  0.2402120E+005  0.2168228E+02  0.7546771E-02  0.1509743E+00
          2   -1    0    0  502    0  0.00000000000E+00  0.00000000000E+00  0.30482080951E+02  0.30482080951E+02  0.00000000000E+00 0.  1.
         21   -1    0    0  503  502 -0.00000000000E+00 -0.00000000000E+00 -0.21972179889E+02  0.21972179889E+02  0.00000000000E+00 0.  1.
          2    1    1    2  501    0 -0.88402364473E+01 -0.19798271189E+02  0.18573921515E+02  0.28550164325E+02  0.00000000000E+00 0.  1.
         21    1    1    2  503  501  0.88402364473E+01  0.19798271189E+02 -0.10064020454E+02  0.23904096515E+02  0.00000000000E+00 0.  1.
</event>
<event>
 4    1  0.2402120E+005  0.2415918E+02  0.7546771E-02  0.1478434E+00
          2   -1    0    0  503    0  0.00000000000E+00  0.00000000000E+00  0.51309993377E+01  0.51309993377E+01  0.00000000000E+00 0. -1.
         21   -1    0    0  501  502 -0.00000000000E+00 -0.00000000000E+00 -0.18024421122E+03  0.18024421122E+03  0.00000000000E+00 0. -1.
          2    1    1    2  501    0 -0.69549341795E+01 -0.23136442009E+02 -0.31261136481E+02  0.39508539739E+02  0.00000000000E+00 0. -1.
         21    1    1    2  503  502  0.69549341795E+01  0.23136442009E+02 -0.14385207540E+03  0.14586667082E+03  0.00000000000E+00 0. -1.
</event>
<event>
 4    1  0.2402120E+005  0.3551875E+02  0.7546771E-02  0.1376953E+00
          2   -1    0    0  502    0  0.00000000000E+00  0.00000000000E+00  0.12996983302E+03  0.12996983302E+03  0.00000000000E+00 0.  1.
         21   -1    0    0  503  502 -0.00000000000E+00 -0.00000000000E+00 -0.23173184851E+02  0.23173184851E+02  0.00000000000E+00 0.  1.
          2    1    1    2  501    0 -0.10411210705E+02 -0.33958622148E+02  0.11176985387E+03  0.11727779654E+03  0.00000000000E+00 0.  1.
         21    1    1    2  503  501  0.10411210705E+02  0.33958622148E+02 -0.49732056992E+01  0.35865221336E+02  0.00000000000E+00 0.  1.
</event>
<event>
 4    1  0.2402120E+005  0.3216571E+02  0.7546771E-02  0.1401665E+00
          2   -1    0    0  503    0  0.00000000000E+00  0.00000000000E+00  0.52097737376E+03  0.52097737376E+03  0.00000000000E+00 0.  1.
         21   -1    0    0  501  502 -0.00000000000E+00 -0.00000000000E+00 -0.81831624281E+01  0.81831624281E+01  0.00000000000E+00 0.  1.
          2    1    1    2  501    0 -0.12104335936E+02 -0.29801307713E+02  0.48664475281E+03  0.48770662116E+03  0.00000000000E+00 0.  1.
         21    1    1    2  503  502  0.12104335936E+02  0.29801307713E+02  0.26149458523E+02  0.41453915025E+02  0.00000000000E+00 0.  1.
</event>
<event>
 4    1  0.2402120E+005  0.2615882E+02  0.7546771E-02  0.1456246E+00
          2   -1    0    0  503    0  0.00000000000E+00  0.00000000000E+00  0.19425569710E+04  0.19425569710E+04  0.00000000000E+00 0.  1.
         21   -1    0    0  501  502 -0.00000000000E+00 -0.00000000000E+00 -0.35229889998E+00  0.35229889998E+00  0.00000000000E+00 0. -1.
          2    1    1    2  501    0  0.14787604868E+02  0.21578009769E+02  0.98140149239E+03  0.98175005629E+03  0.00000000000E+00 0.  1.
         21    1    1    2  503  502 -0.14787604868E+02 -0.21578009769E+02  0.96080317972E+03  0.96115921361E+03  0.00000000000E+00 0. -1.
</event>
<event>
 4    1  0.2402120E+005  0.2214877E+02  0.7546771E-02  0.1503473E+00
          2   -1    0    0  502    0  0.00000000000E+00  0.00000000000E+00  0.18065894126E+03  0.18065894126E+03  0.00000000000E+00 0. -1.
         21   -1    0    0  503  502 -0.00000000000E+00 -0.00000000000E+00 -0.67388997419E+01  0.67388997419E+01  0.00000000000E+00 0.  1.
          2    1    1    2  501    0 -0.67043004815E+01  0.21109718989E+02  0.15936027805E+03  0.16089209459E+03  0.00000000000E+00 0. -1.
         21    1    1    2  503  501  0.67043004815E+01 -0.21109718989E+02  0.14559763470E+02  0.26505746416E+02  0.00000000000E+00 0.  1.
</event>
<event>
 4    1  0.2402120E+005  0.3150515E+02  0.7546771E-02  0.1406953E+00
          2   -1    0    0  502    0  0.00000000000E+00  0.00000000000E+00  0.26972384497E+02  0.26972384497E+02  0.00000000000E+00 0. -1.
         21   -1    0    0  503  502 -0.00000000000E+00 -0.00000000000E+00 -0.97502745494E+02  0.97502745494E+02  0.00000000000E+00 0.  1.
          2    1    1    2  501    0 -0.29897466730E+02 -0.99355810073E+01  0.13842519315E+02  0.34412056431E+02  0.00000000000E+00 0. -1.
         21    1    1    2  503  501  0.29897466730E+02  0.99355810073E+01 -0.84372880312E+02  0.90063073560E+02  0.00000000000E+00 0.  1.
</event>
<event>
 4    1  0.2402120E+005  0.2419602E+02  0.7546771E-02  0.1478002E+00
          2   -1    0    0  503    0  0.00000000000E+00  0.00000000000E+00  0.62934741483E+01  0.62934741483E+01  0.00000000000E+00 0.  1.
         21   -1    0    0  501  502 -0.00000000000E+00 -0.00000000000E+00 -0.11897869480E+03  0.11897869480E+03  0.00000000000E+00 0. -1.
          2    1    1    2  501    0  0.18867963180E+02 -0.15147526661E+02 -0.27088064147E+02  0.36320941862E+02  0.00000000000E+00 0.  1.
         21    1    1    2  503  502 -0.18867963180E+02  0.15147526661E+02 -0.85597156506E+02  0.88951227088E+02  0.00000000000E+00 0. -1.
</event>
<event>
 4    1  0.2402120E+005  0.2769376E+02  0.7546771E-02  0.1440761E+00
          2   -1    0    0  503    0  0.00000000000E+00  0.00000000000E+00  0.50016641206E+03  0.50016641206E+03  0.00000000000E+00 0. -1.
         21   -1    0    0  501  502 -0.00000000000E+00 -0.00000000000E+00 -0.35016316573E+03  0.35016316573E+03  0.00000000000E+00 0. -1.
          2    1    1    2  501    0 -0.23441198465E+02  0.14746333696E+02  0.49923448424E+03  0.50000201440E+03  0.00000000000E+00 0. -1.
         21    1    1    2  503  502  0.23441198465E+02 -0.14746333696E+02 -0.34923123791E+03  0.35032756340E+03  0.00000000000E+00 0. -1.
</event>
<event>
 4    1  0.2402120E+005  0.2080695E+02  0.7546771E-02  0.1522039E+00
          2   -1    0    0  503    0  0.00000000000E+00  0.00000000000E+00  0.59700185373E+02  0.59700185373E+02  0.00000000000E+00 0. -1.
         21   -1    0    0  501  502 -0.00000000000E+00 -0.00000000000E+00 -0.83656782848E+01  0.83656782848E+01  0.00000000000E+00 0. -1.
          2    1    1    2  501    0  0.16007417936E+02 -0.13292541032E+02  0.38086152458E+02  0.43399125396E+02  0.00000000000E+00 0. -1.
         21    1    1    2  503  502 -0.16007417936E+02  0.13292541032E+02  0.13248354631E+02  0.24666738262E+02  0.00000000000E+00 0. -1.
</event>
<event>
 4    1  0.2402120E+005  0.2471232E+02  0.7546771E-02  0.1472047E+00
          2   -1    0    0  502    0  0.00000000000E+00  0.00000000000E+00  0.64758771375E+03  0.64758771375E+03  0.00000000000E+00 0.  1.
         21   -1    0    0  503  502 -0.00000000000E+00 -0.00000000000E+00 -0.34277256246E+01  0.34277256246E+01  0.00000000000E+00 0. -1.
          2    1    1    2  501    0  0.22035810367E+02  0.11185790650E+02  0.59921685702E+03  0.59972622136E+03  0.00000000000E+00 0.  1.
         21    1    1    2  503  501 -0.22035810367E+02 -0.11185790650E+02  0.44943131113E+02  0.51289218021E+02  0.00000000000E+00 0. -1.
</event>
<event>
 4    1  0.2402120E+005  0.2237531E+02  0.7546771E-02  0.1500495E+00
          2   -1    0    0  502    0  0.00000000000E+00  0.00000000000E+00  0.24694994825E+03  0.24694994825E+03  0.00000000000E+00 0. -1.
         21   -1    0    0  503  502 -0.00000000000E+00 -0.00000000000E+00 -0.35718379719E+01  0.35718379719E+01  0.00000000000E+00 0. -1.
          2    1    1    2  501    0 -0.21948482488E+02  0.43495753833E+01  0.20405761804E+03  0.20528070092E+03  0.00000000000E+00 0. -1.
         21    1    1    2  503  501  0.21948482488E+02 -0.43495753833E+01  0.39320492239E+02  0.45241085304E+02  0.00000000000E+00 0. -1.
</event>
<event>
 4    1  0.2402120E+005  0.2047427E+02  0.7546771E-02  0.1526905E+00
          2   -1    0    0  503    0  0.00000000000E+00  0.00000000000E+00  0.12502040274E+04  0.12502040274E+04  0.00000000000E+00 0.  1.
         21   -1    0    0  501  502 -0.00000000000E+00 -0.00000000000E+00 -0.16206918708E+02  0.16206918708E+02  0.00000000000E+00 0.  1.
          2    1    1    2  501    0  0.16441593536E+02  0.12201210452E+02  0.12436196631E+04  0.12437881901E+04  0.00000000000E+00 0.  1.
         21    1    1    2  503  502 -0.16441593536E+02 -0.12201210452E+02 -0.96225543899E+01  0.22622755965E+02  0.00000000000E+00 0.  1.
</event>
<event>
 4    1  0.2402120E+005  0.5459017E+02  0.7546771E-02  0.1279410E+00
          2   -1    0    0  503    0  0.00000000000E+00  0.00000000000E+00  0.24478178377E+03  0.24478178377E+03  0.00000000000E+00 0.  1.
         21   -1    0    0  501  502 -0.00000000000E+00 -0.00000000000E+00 -0.86236457771E+02  0.86236457771E+02  0.00000000000E+00 0. -1.
          2    1    1    2  501    0  0.54468902853E+02 -0.36366199046E+01  0.23265458804E+03  0.23897331173E+03  0.00000000000E+00 0.  1.
         21    1    1    2  503  502 -0.54468902853E+02  0.36366199046E+01 -0.74109262046E+02  0.92044929808E+02  0.00000000000E+00 0. -1.
</event>
<event>
 4    1  0.2402120E+005  0.2088865E+02  0.7546771E-02  0.1520861E+00
          2   -1    0    0  502    0  0.00000000000E+00  0.00000000000E+00  0.18133661312E+02  0.18133661312E+02  0.00000000000E+00 0. -1.
         21   -1    0    0  503  502 -0.00000000000E+00 -0.00000000000E+00 -0.36991972248E+02  0.36991972248E+02  0.00000000000E+00 0.  1.
          2    1    1    2  501    0  0.18114318656E+02 -0.10402276692E+02  0.68662505332E+01  0.21988208139E+02  0.00000000000E+00 0. -1.
         21    1    1    2  503  501 -0.18114318656E+02  0.10402276692E+02 -0.25724561470E+02  0.33137425421E+02  0.00000000000E+00 0.  1.
</event>
<event>
 4    1  0.2402120E+005  0.3338016E+02  0.7546771E-02  0.1392323E+00
          2   -1    0    0  502    0  0.00000000000E+00  0.00000000000E+00  0.13653750842E+03  0.13653750842E+03  0.00000000000E+00 0. -1.
         21   -1    0    0  503  502 -0.00000000000E+00 -0.00000000000E+00 -0.10269512762E+02  0.10269512762E+02  0.00000000000E+00 0. -1.
          2    1    1    2  501    0 -0.32590459339E+02 -0.72178172461E+01  0.29870647532E+02  0.44793866876E+02  0.00000000000E+00 0. -1.
         21    1    1    2  503  501  0.32590459339E+02  0.72178172461E+01  0.96397348122E+02  0.10201315430E+03  0.00000000000E+00 0. -1.
</event>
<event>
 4    1  0.2402120E+005  0.2254897E+02  0.7546771E-02  0.1498241E+00
          2   -1    0    0  503    0  0.00000000000E+00  0.00000000000E+00  0.31255921866E+02  0.31255921866E+02  0.00000000000E+00 0. -1.
         21   -1    0    0  501  502 -0.00000000000E+00 -0.00000000000E+00 -0.17514301976E+02  0.17514301976E+02  0.00000000000E+00 0.  1.
          2    1    1    2  501    0 -0.21987375049E+02 -0.50011571998E+01  0.13376961072E+02  0.26218301287E+02  0.00000000000E+00 0. -1.
         21    1    1    2  503  502  0.21987375049E+02  0.50011571998E+01  0.36465881722E+00  0.22551922555E+02  0.00000000000E+00 0.  1.
</event>
<event>
 4    1  0.2402120E+005  0.2054985E+02  0.7546771E-02  0.1525790E+00
          2   -1    0    0  503    0  0.00000000000E+00  0.00000000000E+00  0.15195727414E+04  0.15195727414E+04  0.00000000000E+00 0.  1.
         21   -1    0    0  501  502 -0.00000000000E+00 -0.00000000000E+00 -0.62951907203E+00  0.62951907203E+00  0.00000000000E+00 0.  1.
          2    1    1    2  501    0  0.94685183422E+01 -0.18238515069E+02  0.13275395729E+04  0.13276986156E+04  0.00000000000E+00 0.  1.
         21    1    1    2  503  502 -0.94685183422E+01  0.18238515069E+02  0.19140364937E+03  0.19250364480E+03  0.00000000000E+00 0.  1.
</event>
<event>
 4    1  0.2402120E+005  0.7607167E+02  0.7546771E-02  0.1213273E+00
          2   -1    0    0  503    0  0.00000000000E+00  0.00000000000E+00  0.14936931321E+03  0.14936931321E+03  0.00000000000E+00 0.  1.
         21   -1    0    0  501  502 -0.00000000000E+00 -0.00000000000E+00 -0.66721838398E+03  0.66721838398E+03  0.00000000000E+00 0.  1.
          2    1    1    2  501    0  0.27132054398E+02  0.71068627956E+02  0.13733820772E+03  0.15699898584E+03  0.00000000000E+00 0.  1.
         21    1    1    2  503  502 -0.27132054398E+02 -0.71068627956E+02 -0.65518727848E+03  0.65958871135E+03  0.00000000000E+00 0.  1.
</event>
<event>
 4    1  0.2402120E+005  0.2080755E+02  0.7546771E-02  0.1522030E+00
          2   -1    0    0  503    0  0.00000000000E+00  0.00000000000E+00  0.12981846968E+04  0.12981846968E+04  0.00000000000E+00 0. -1.
         21   -1    0    0  501  502 -0.00000000000E+00 -0.00000000000E+00 -0.27215448127E+01  0.27215448127E+01  0.00000000000E+00 0. -1.
          2    1    1    2  501    0 -0.50647557624E+01 -0.20181729615E+02  0.12570282916E+04  0.12572004931E+04  0.00000000000E+00 0. -1.
         21    1    1    2  503  502  0.50647557624E+01  0.20181729615E+02  0.38434860472E+02  0.43705748600E+02  0.00000000000E+00 0. -1.
</event>
<event>
 4    1  0.2402120E+005  0.2358957E+02  0.7546771E-02  0.1485225E+00
          2   -1    0    0  503    0  0.00000000000E+00  0.00000000000E+00  0.44070927586E+03  0.44070927586E+03  0.00000000000E+00 0.  1.
         21   -1    0    0  501  502 -0.00000000000E+00 -0.00000000000E+00 -0.41749938712E+02  0.41749938712E+02  0.00000000000E+00 0. -1.
          2    1    1    2  501    0  0.90315902097E+01 -0.21792156098E+02  0.43703345738E+03  0.43766963632E+03  0.00000000000E+00 0.  1.
         21    1    1    2  503  502 -0.90315902097E+01  0.21792156098E+02 -0.38074120228E+02  0.44789578255E+02  0.00000000000E+00 0. -1.
</event>
<event>
 4    1  0.2402120E+005  0.3500799E+02  0.7546771E-02  0.1380507E+00
          2   -1    0    0  502    0  0.00000000000E+00  0.00000000000E+00  0.10470122004E+03  0.10470122004E+03  0.00000000000E+00 0.  1.
         21   -1    0    0  503  502 -0.00000000000E+00 -0.00000000000E+00 -0.35158902529E+02  0.35158902529E+02  0.00000000000E+00 0. -1.
          2    1    1    2  501    0  0.34785770769E+01  0.34834733461E+02  0.91886271363E+02  0.98329273458E+02  0.00000000000E+00 0.  1.
         21    1    1    2  503  501 -0.34785770769E+01 -0.34834733461E+02 -0.22343953855E+02  0.41530849108E+02  0.00000000000E+00 0. -1.
</event>
<event>
 4    1  0.2402120E+005  0.2643461E+02  0.7546771E-02  0.1453372E+00
          2   -1    0    0  502    0  0.00000000000E+00  0.00000000000E+00  0.11902825353E+04  0.11902825353E+04  0.00000000000E+00 0.  1.
         21   -1    0    0  503  502 -0.00000000000E+00 -0.00000000000E+00 -0.15903063678E+01  0.15903063678E+01  0.00000000000E+00 0.  1.
          2    1    1    2  501    0  0.50073265231E+01 -0.25956030948E+02  0.10676710672E+04  0.10679982662E+04  0.00000000000E+00 0.  1.
         21    1    1    2  503  501 -0.50073265231E+01  0.25956030948E+02  0.12102116176E+03  0.12387457550E+03  0.00000000000E+00 0.  1.
</event>
<event>
 4    1  0.2402120E+005  0.3641644E+02  0.7546771E-02  0.1370870E+00
          2   -1    0    0  503    0  0.00000000000E+00  0.00000000000E+00  0.49707656714E+03  0.49707656714E+03  0.00000000000E+00 0. -1.
         21   -1    0    0  501  502 -0.00000000000E+00 -0.00000000000E+00 -0.26807406723E+01  0.26807406723E+01  0.00000000000E+00 0. -1.
          2    1    1    2  501    0 -0.15326552103E+02  0.33034134466E+02  0.26448288775E+03  0.26697819228E+03  0.00000000000E+00 0. -1.
         21    1    1    2  503  502  0.15326552103E+02 -0.33034134466E+02  0.22991293872E+03  0.23277911553E+03  0.00000000000E+00 0. -1.
</event>
<event>
 4    1  0.2402120E+005  0.2061604E+02  0.7546771E-02  0.1524818E+00
          2   -1    0    0  503    0  0.00000000000E+00  0.00000000000E+00  0.15399774065E+02  0.15399774065E+02  0.00000000000E+00 0.  1.
         21   -1    0    0  501  502 -0.00000000000E+00 -0.00000000000E+00 -0.67082092130E+02  0.67082092130E+02  0.00000000000E+00 0. -1.
          2    1    1    2  501    0  0.44940296000E+01 -0.20120257824E+02  0.57983542024E+01  0.21415928380E+02  0.00000000000E+00 0.  1.
         21    1    1    2  503  502 -0.44940296000E+01  0.20120257824E+02 -0.57480672267E+02  0.61065937815E+02  0.00000000000E+00 0. -1.
</event>
<event>
 4    1  0.2402120E+005  0.2022670E+02  0.7546771E-02  0.1530598E+00
          2   -1    0    0  503    0  0.00000000000E+00  0.00000000000E+00  0.12518459229E+04  0.12518459229E+04  0.00000000000E+00 0. -1.
         21   -1    0    0  501  502 -0.00000000000E+00 -0.00000000000E+00 -0.40187909641E+01  0.40187909641E+01  0.00000000000E+00 0. -1.
          2    1    1    2  501    0  0.19330979744E+02 -0.59525349241E+01  0.12257724942E+04  0.12259393652E+04  0.00000000000E+00 0. -1.
         21    1    1    2  503  502 -0.19330979744E+02  0.59525349241E+01  0.22054637670E+02  0.29925348663E+02  0.00000000000E+00 0. -1.
</event>
<event>
 4    1  0.2402120E+005  0.3242758E+02  0.7546771E-02  0.1399610E+00
          2   -1    0    0  503    0  0.00000000000E+00  0.00000000000E+00  0.17180355450E+04  0.17180355450E+04  0.00000000000E+00 0.  1.
         21   -1    0    0  501  502 -0.00000000000E+00 -0.00000000000E+00 -0.91605828336E+02  0.91605828336E+02  0.00000000000E+00 0. -1.
          2    1    1    2  501    0 -0.16348632629E+02  0.28004819226E+02  0.17150077009E+04  0.17153142458E+04  0.00000000000E+00 0.  1.
         21    1    1    2  503  502  0.16348632629E+02 -0.28004819226E+02 -0.88577984262E+02  0.94327127512E+02  0.00000000000E+00 0. -1.
</event>
<event>
 4    1  0.2402120E+005  0.2076929E+02  0.7546771E-02  0.1522584E+00
          2   -1    0    0  502    0  0.00000000000E+00  0.00000000000E+00  0.73243595784E+02  0.73243595784E+02  0.00000000000E+00 0.  1.
         21   -1    0    0  503  502 -0.00000000000E+00 -0.00000000000E+00 -0.69148849150E+01  0.69148849150E+01  0.00000000000E+00 0. -1.
          2    1    1    2  501    0  0.10903094529E+02  0.17677271257E+02  0.48598559945E+02  0.52850576327E+02  0.00000000000E+00 0.  1.
         21    1    1    2  503  501 -0.10903094529E+02 -0.17677271257E+02  0.17730150924E+02  0.27307904372E+02  0.00000000000E+00 0. -1.
</event>
<event>
 4    1  0.2402120E+005  0.2859046E+02  0.7546771E-02  0.1432254E+00
          2   -1    0    0  503    0  0.00000000000E+00  0.00000000000E+00  0.28468914353E+03  0.28468914353E+03  0.00000000000E+00 0.  1.
         21   -1    0    0  501  502 -0.00000000000E+00 -0.00000000000E+00 -0.20625692167E+02  0.20625692167E+02  0.00000000000E+00 0.  1.
          2    1    1    2  501    0  0.28567142457E+02 -0.11543979210E+01  0.27366560093E+03  0.27515500249E+03  0.00000000000E+00 0.  1.
         21    1    1    2  503  502 -0.28567142457E+02  0.11543979210E+01 -0.96021495674E+01  0.30159833206E+02  0.00000000000E+00 0.  1.
</event>
<event>
 4    1  0.2402120E+005  0.3310619E+02  0.7546771E-02  0.1394389E+00
          2   -1    0    0  503    0  0.00000000000E+00  0.00000000000E+00  0.36414090121E+03  0.36414090121E+03  0.00000000000E+00 0. -1.
         21   -1    0    0  501  502 -0.00000000000E+00 -0.00000000000E+00 -0.52969927360E+01  0.52969927360E+01  0.00000000000E+00 0. -1.
          2    1    1    2  501    0 -0.31856688412E+02  0.90095224876E+01  0.30080013558E+03  0.30261649270E+03  0.00000000000E+00 0. -1.
         21    1    1    2  503  502  0.31856688412E+02 -0.90095224876E+01  0.58043772895E+02  0.66821401242E+02  0.00000000000E+00 0. -1.
</event>
<event>
 4    1  0.2402120E+005  0.2044454E+02  0.7546771E-02  0.1527345E+00
          2   -1    0    0  503    0  0.00000000000E+00  0.00000000000E+00  0.28377584414E+03  0.28377584414E+03  0.00000000000E+00 0. -1.
         21   -1    0    0  501  502 -0.00000000000E+00 -0.00000000000E+00 -0.18313763513E+01  0.18313763513E+01  0.00000000000E+00 0.  1.
          2    1    1    2  501    0 -0.49994302867E+01 -0.19823850807E+02  0.77793924923E+02  0.80435527716E+02  0.00000000000E+00 0. -1.
         21    1    1    2  503  502  0.49994302867E+01  0.19823850807E+02  0.20415054287E+03  0.20517169278E+03  0.00000000000E+00 0.  1.
</event>
<event>
 4    1  0.2402120E+005  0.2240503E+02  0.7546771E-02  0.1500107E+00
          2   -1    0    0  503    0  0.00000000000E+00  0.00000000000E+00  0.45025272844E+03  0.45025272844E+03  0.00000000000E+00 0.  1.
         21   -1    0    0  501  502 -0.00000000000E+00 -0.00000000000E+00 -0.13772336055E+03  0.13772336055E+03  0.00000000000E+00 0.  1.
          2    1    1    2  501    0  0.14386704942E+02  0.17175798589E+02  0.44906036584E+03  0.44961894701E+03  0.00000000000E+00 0.  1.
         21    1    1    2  503  502 -0.14386704942E+02 -0.17175798589E+02 -0.13653099795E+03  0.13835714198E+03  0.00000000000E+00 0.  1.
</event>
<event>
 4    1  0.2402120E+005  0.3528070E+02  0.7546771E-02  0.1378600E+00
          2   -1    0    0  503    0  0.00000000000E+00  0.00000000000E+00  0.59497481532E+03  0.59497481532E+03  0.00000000000E+00 0.  1.
         21   -1    0    0  501  502 -0.00000000000E+00 -0.00000000000E+00 -0.56409642867E+01  0.56409642867E+01  0.00000000000E+00 0.  1.
          2    1    1    2  501    0 -0.33234172982E+02  0.11841352882E+02  0.53286415659E+03  0.53403083925E+03  0.00000000000E+00 0.  1.
         21    1    1    2  503  502  0.33234172982E+02 -0.11841352882E+02  0.56469694447E+02  0.66584940360E+02  0.00000000000E+00 0.  1.
</event>
<event>
 4    1  0.2402120E+005  0.2213486E+02  0.7546771E-02  0.1503657E+00
          2   -1    0    0  503    0  0.00000000000E+00  0.00000000000E+00  0.10129569384E+01  0.10129569384E+01  0.00000000000E+00 0.  1.
         21   -1    0    0  501  502 -0.00000000000E+00 -0.00000000000E+00 -0.48884274945E+03  0.48884274945E+03  0.00000000000E+00 0. -1.
          2    1    1    2  501    0  0.15280781485E+02 -0.16014043773E+02 -0.21875598446E+03  0.21987299202E+03  0.00000000000E+00 0.  1.
         21    1    1    2  503  502 -0.15280781485E+02  0.16014043773E+02 -0.26907380805E+03  0.26998271437E+03  0.00000000000E+00 0. -1.
</event>
<event>
 4    1  0.2402120E+005  0.2300901E+02  0.7546771E-02  0.1492385E+00
          2   -1    0    0  502    0  0.00000000000E+00  0.00000000000E+00  0.10211532504E+04  0.10211532504E+04  0.00000000000E+00 0. -1.
         21   -1    0    0  503  502 -0.00000000000E+00 -0.00000000000E+00 -0.16849412575E+01  0.16849412575E+01  0.00000000000E+00 0. -1.
          2    1    1    2  501    0  0.38437525697E+01 -0.22685684854E+02  0.93525975948E+03  0.93554274751E+03  0.00000000000E+00 0. -1.
         21    1    1    2  503  501 -0.38437525697E+01  0.22685684854E+02  0.84208549646E+02  0.87295444122E+02  0.00000000000E+00 0. -1.
</event>
<event>
 4    1  0.2402120E+005  0.2044371E+02  0.7546771E-02  0.1527357E+00
          2   -1    0    0  502    0  0.00000000000E+00  0.00000000000E+00  0.82471531449E+03  0.82471531449E+03  0.00000000000E+00 0.  1.
         21   -1    0    0  503  502 -0.00000000000E+00 -0.00000000000E+00 -0.20913158517E+02  0.20913158517E+02  0.00000000000E+00 0. -1.
          2    1    1    2  501    0 -0.19457144946E+02  0.62741278354E+01  0.81956100541E+03  0.81981594688E+03  0.00000000000E+00 0.  1.
         21    1    1    2  503  501  0.19457144946E+02 -0.62741278354E+01 -0.15758849436E+02  0.25812526128E+02  0.00000000000E+00 0. -1.
</event>
<event>
 4    1  0.2402120E+005  0.2070882E+02  0.7546771E-02  0.1523463E+00
          2   -1    0    0  503    0  0.00000000000E+00  0.00000000000E+00  0.22050010760E+03  0.22050010760E+03  0.00000000000E+00 0.  1.
         21   -1    0    0  501  502 -0.00000000000E+00 -0.00000000000E+00 -0.17242583330E+03  0.17242583330E+03  0.00000000000E+00 0.  1.
          2    1    1    2  501    0  0.11978436682E+01 -0.20674145816E+02  0.21938893869E+03  0.22036415669E+03  0.00000000000E+00 0.  1.
         21    1    1    2  503  502 -0.11978436682E+01  0.20674145816E+02 -0.17131466439E+03  0.17256178421E+03  0.00000000000E+00 0.  1.
</event>
<event>
 4    1  0.2402120E+005  0.2082424E+02  0.7546771E-02  0.1521789E+00
          2   -1    0    0  503    0  0.00000000000E+00  0.00000000000E+00  0.13501623141E+03  0.13501623141E+03  0.00000000000E+00 0. -1.
         21   -1    0    0  501  502 -0.00000000000E+00 -0.00000000000E+00 -0.21754606887E+03  0.21754606887E+03  0.00000000000E+00 0. -1.
          2    1    1    2  501    0  0.67832830700E+01 -0.19688473512E+02  0.13371009408E+03  0.13532197965E+03  0.00000000000E+00 0. -1.
         21    1    1    2  503  502 -0.67832830700E+01  0.19688473512E+02 -0.21623993153E+03  0.21724032063E+03  0.00000000000E+00 0. -1.
</event>
<event>
 4    1  0.2402120E+005  0.2102121E+02  0.7546771E-02  0.1518962E+00
          2   -1    0    0  503    0  0.00000000000E+00  0.00000000000E+00  0.96664797258E+03  0.96664797258E+03  0.00000000000E+00 0.  1.
         21   -1    0    0  501  502 -0.00000000000E+00 -0.00000000000E+00 -0.16866851486E+02  0.16866851486E+02  0.00000000000E+00 0.  1.
          2    1    1    2  501    0 -0.94680348291E+01  0.18768256680E+02  0.95993821458E+03  0.96016835344E+03  0.00000000000E+00 0.  1.
         21    1    1    2  503  502  0.94680348291E+01 -0.18768256680E+02 -0.10157093487E+02  0.23346470621E+02  0.00000000000E+00 0.  1.
</event>
<event>
 4    1  0.2402120E+005  0.2058334E+02  0.7546771E-02  0.1525298E+00
          2   -1    0    0  502    0  0.00000000000E+00  0.00000000000E+00  0.44402604691E+03  0.44402604691E+03  0.00000000000E+00 0. -1.
         21   -1    0    0  503  502 -0.00000000000E+00 -0.00000000000E+00 -0.23623934918E+01  0.23623934918E+01  0.00000000000E+00 0. -1.
          2    1    1    2  501    0 -0.19396126066E+02 -0.68894164591E+01  0.39315493092E+03  0.39369337494E+03  0.00000000000E+00 0. -1.
         21    1    1    2  503  501  0.19396126066E+02  0.68894164591E+01  0.48508722494E+02  0.52695065457E+02  0.00000000000E+00 0. -1.
</event>
<event>
 4    1  0.2402120E+005  0.2946898E+02  0.7546771E-02  0.1424268E+00
          2   -1    0    0  502    0  0.00000000000E+00  0.00000000000E+00  0.96915914715E+03  0.96915914715E+03  0.00000000000E+00 0. -1.
         21   -1    0    0  503  502 -0.00000000000E+00 -0.00000000000E+00 -0.20063603545E+01  0.20063603545E+01  0.00000000000E+00 0. -1.
          2    1    1    2  501    0  0.29328158810E+02 -0.28774632601E+01  0.84480309178E+03  0.84531691370E+03  0.00000000000E+00 0. -1.
         21    1    1    2  503  501 -0.29328158810E+02  0.28774632601E+01  0.12234969501E+03  0.12584859381E+03  0.00000000000E+00 0. -1.
</event>
<event>
 4    1  0.2402120E+005  0.6050188E+02  0.7546771E-02  0.1258137E+00
          2   -1    0    0  503    0  0.00000000000E+00  0.00000000000E+00  0.49808146898E+03  0.49808146898E+03  0.00000000000E+00 0.  1.
         21   -1    0    0  501  502 -0.00000000000E+00 -0.00000000000E+00 -0.90071869612E+01  0.90071869612E+01  0.00000000000E+00 0. -1.
          2    1    1    2  501    0 -0.59336642932E+02 -0.11816935047E+02  0.35331887122E+03  0.35846157661E+03  0.00000000000E+00 0.  1.
         21    1    1    2  503  502  0.59336642932E+02  0.11816935047E+02  0.13575541080E+03  0.14862707933E+03  0.00000000000E+00 0. -1.
</event>
<event>
 4    1  0.2402120E+005  0.2082202E+02  0.7546771E-02  0.1521821E+00
          2   -1    0    0  502    0  0.00000000000E+00  0.00000000000E+00  0.45390599110E+03  0.45390599110E+03  0.00000000000E+00 0. -1.
         21   -1    0    0  503  502 -0.00000000000E+00 -0.00000000000E+00 -0.11735246504E+03  0.11735246504E+03  0.00000000000E+00 0.  1.
          2    1    1    2  501    0  0.74974885034E+01 -0.19425347174E+02  0.45274120389E+03  0.45321976364E+03  0.00000000000E+00 0. -1.
         21    1    1    2  503  501 -0.74974885034E+01  0.19425347174E+02 -0.11618767784E+03  0.11803869250E+03  0.00000000000E+00 0.  1.
</event>
<event>
 4    1  0.2402120E+005  0.5076323E+02  0.7546771E-02  0.1294897E+00
          2   -1    0    0  502    0  0.00000000000E+00  0.00000000000E+00  0.39546334794E+03  0.39546334794E+03  0.00000000000E+00 0.  1.
         21   -1    0    0  503  502 -0.00000000000E+00 -0.00000000000E+00 -0.72341919452E+01  0.72341919452E+01  0.00000000000E+00 0.  1.
          2    1    1    2  501    0 -0.31540480135E+02 -0.39775665083E+02  0.25754879425E+03  0.26250387966E+03  0.00000000000E+00 0.  1.
         21    1    1    2  503  501  0.31540480135E+02  0.39775665083E+02  0.13068036174E+03  0.14019366022E+03  0.00000000000E+00 0.  1.
</event>
<event>
 4    1  0.2402120E+005  0.2647950E+02  0.7546771E-02  0.1452908E+00
          2   -1    0    0  503    0  0.00000000000E+00  0.00000000000E+00  0.70781592390E+02  0.70781592390E+02  0.00000000000E+00 0. -1.
         21   -1    0    0  501  502 -0.00000000000E+00 -0.00000000000E+00 -0.15469894687E+03  0.15469894687E+03  0.00000000000E+00 0.  1.
          2    1    1    2  501    0  0.26443315598E+02 -0.13837839735E+01  0.67112265174E+02  0.72147210166E+02  0.00000000000E+00 0. -1.
         21    1    1    2  503  502 -0.26443315598E+02  0.13837839735E+01 -0.15102961966E+03  0.15333332910E+03  0.00000000000E+00 0.  1.
</event>
<event>
 4    1  0.2402120E+005  0.2682223E+02  0.7546771E-02  0.1449402E+00
          2   -1    0    0  502    0  0.00000000000E+00  0.00000000000E+00  0.15173543015E+04  0.15173543015E+04  0.00000000000E+00 0.  1.
         21   -1    0    0  503  502 -0.00000000000E+00 -0.00000000000E+00 -0.11670558588E+01  0.11670558588E+01  0.00000000000E+00 0.  1.
          2    1    1    2  501    0  0.21153502271E+02 -0.16491250263E+02  0.13431350965E+04  0.13434028880E+04  0.00000000000E+00 0.  1.
         21    1    1    2  503  501 -0.21153502271E+02  0.16491250263E+02  0.17305214908E+03  0.17511846932E+03  0.00000000000E+00 0.  1.
</event>
<event>
 4    1  0.2402120E+005  0.4688609E+02  0.7546771E-02  0.1312269E+00
          2   -1    0    0  503    0  0.00000000000E+00  0.00000000000E+00  0.17413245211E+04  0.17413245211E+04  0.00000000000E+00 0. -1.
         21   -1    0    0  501  502 -0.00000000000E+00 -0.00000000000E+00 -0.23228806407E+01  0.23228806407E+01  0.00000000000E+00 0. -1.
          2    1    1    2  501    0 -0.79312928809E+01  0.46210391853E+02  0.14585612063E+04  0.14593145988E+04  0.00000000000E+00 0. -1.
         21    1    1    2  503  502  0.79312928809E+01 -0.46210391853E+02  0.28044043421E+03  0.28433280300E+03  0.00000000000E+00 0. -1.
</event>
<event>
 4    1  0.2402120E+005  0.4023857E+02  0.7546771E-02  0.1347093E+00
          2   -1    0    0  503    0  0.00000000000E+00  0.00000000000E+00  0.10024058090E+04  0.10024058090E+04  0.00000000000E+00 0. -1.
         21   -1    0    0  501  502 -0.00000000000E+00 -0.00000000000E+00 -0.33468642418E+01  0.33468642418E+01  0.00000000000E+00 0. -1.
          2    1    1    2  501    0  0.33270509743E+02  0.22632178390E+02  0.86124481785E+03  0.86218430662E+03  0.00000000000E+00 0. -1.
         21    1    1    2  503  502 -0.33270509743E+02 -0.22632178390E+02  0.13781412689E+03  0.14356836660E+03  0.00000000000E+00 0. -1.
</event>
<event>
 4    1  0.2402120E+005  0.2741545E+02  0.7546771E-02  0.1443479E+00
          2   -1    0    0  502    0  0.00000000000E+00  0.00000000000E+00  0.11747580496E+04  0.11747580496E+04  0.00000000000E+00 0.  1.
         21   -1    0    0  503  502 -0.00000000000E+00 -0.00000000000E+00 -0.20272434291E+01  0.20272434291E+01  0.00000000000E+00 0.  1.
          2    1    1    2  501    0 -0.19010779974E+02  0.19753412542E+02  0.10731337684E+04  0.10734839039E+04  0.00000000000E+00 0.  1.
         21    1    1    2  503  501  0.19010779974E+02 -0.19753412542E+02  0.99597037774E+02  0.10330138913E+03  0.00000000000E+00 0.  1.
</event>
<event>
 4    1  0.2402120E+005  0.2420980E+02  0.7546771E-02  0.1477841E+00
          2   -1    0    0  502    0  0.00000000000E+00  0.00000000000E+00  0.63181284645E+03  0.63181284645E+03  0.00000000000E+00 0. -1.
         21   -1    0    0  503  502 -0.00000000000E+00 -0.00000000000E+00 -0.11094661425E+03  0.11094661425E+03  0.00000000000E+00 0.  1.
          2    1    1    2  501    0 -0.16260846733E+02  0.17935977957E+02  0.63025695675E+03  0.63072176589E+03  0.00000000000E+00 0. -1.
         21    1    1    2  503  501  0.16260846733E+02 -0.17935977957E+02 -0.10939072454E+03  0.11203769481E+03  0.00000000000E+00 0.  1.
</event>
<event>
 4    1  0.2402120E+005  0.2380082E+02  0.7546771E-02  0.1482680E+00
          2   -1    0    0  502    0  0.00000000000E+00  0.00000000000E+00  0.83476143245E+03  0.83476143245E+03  0.00000000000E+00 0. -1.
         21   -1    0    0  503  502 -0.00000000000E+00 -0.00000000000E+00 -0.19171805061E+01  0.19171805061E+01  0.00000000000E+00 0. -1.
          2    1    1    2  501    0 -0.71637002940E+00 -0.23790039337E+02  0.75266816684E+03  0.75304438682E+03  0.00000000000E+00 0. -1.
         21    1    1    2  503  501  0.71637002940E+00  0.23790039337E+02  0.80176085111E+02  0.83634226137E+02  0.00000000000E+00 0. -1.
</event>
<event>
 4    1  0.2402120E+005  0.2090046E+02  0.7546771E-02  0.1520691E+00
          2   -1    0    0  502    0  0.00000000000E+00  0.00000000000E+00  0.96233571872E+01  0.96233571872E+01  0.00000000000E+00 0.  1.
         21   -1    0    0  503  502 -0.00000000000E+00 -0.00000000000E+00 -0.62665287333E+02  0.62665287333E+02  0.00000000000E+00 0.  1.
          2    1    1    2  501    0 -0.14167577536E+02 -0.15365831474E+02 -0.75448742509E+01  0.22220579596E+02  0.00000000000E+00 0.  1.
         21    1    1    2  503  501  0.14167577536E+02  0.15365831474E+02 -0.45497055895E+02  0.50068064924E+02  0.00000000000E+00 0.  1.
</event>
<event>
 4    1  0.2402120E+005  0.2822830E+02  0.7546771E-02  0.1435645E+00
          2   -1    0    0  502    0  0.00000000000E+00  0.00000000000E+00  0.29847731035E+01  0.29847731035E+01  0.00000000000E+00 0. -1.
         21   -1    0    0  503  502 -0.00000000000E+00 -0.00000000000E+00 -0.46737158561E+03  0.46737158561E+03  0.00000000000E+00 0.  1.
          2    1    1    2  501    0 -0.20944432638E+02  0.18925313833E+02 -0.78193877014E+02  0.83133141193E+02  0.00000000000E+00 0. -1.
         21    1    1    2  503  501  0.20944432638E+02 -0.18925313833E+02 -0.38619293550E+03  0.38722321752E+03  0.00000000000E+00 0.  1.
</event>
<event>
 4    1  0.2402120E+005  0.3388336E+02  0.7546771E-02  0.1388588E+00
          2   -1    0    0  503    0  0.00000000000E+00  0.00000000000E+00  0.19141033864E+04  0.19141033864E+04  0.00000000000E+00 0.  1.
         21   -1    0    0  501  502 -0.00000000000E+00 -0.00000000000E+00 -0.44375170399E+03  0.44375170399E+03  0.00000000000E+00 0. -1.
          2    1    1    2  501    0 -0.25764107414E+02 -0.22006660883E+02  0.19133063621E+04  0.19136063643E+04  0.00000000000E+00 0.  1.
         21    1    1    2  503  502  0.25764107414E+02  0.22006660883E+02 -0.44295467969E+03  0.44424872607E+03  0.00000000000E+00 0. -1.
</event>
<event>
 4    1  0.2402120E+005  0.2460992E+02  0.7546771E-02  0.1473215E+00
          2   -1    0    0  502    0  0.00000000000E+00  0.00000000000E+00  0.99219120103E+01  0.99219120103E+01  0.00000000000E+00 0.  1.
         21   -1    0    0  503  502 -0.00000000000E+00 -0.00000000000E+00 -0.31987303006E+03  0.31987303006E+03  0.00000000000E+00 0.  1.
          2    1    1    2  501    0  0.24332768908E+02  0.36830065722E+01 -0.66439216772E+01  0.25490976353E+02  0.00000000000E+00 0.  1.
         21    1    1    2  503  501 -0.24332768908E+02 -0.36830065722E+01 -0.30330719637E+03  0.30430396572E+03  0.00000000000E+00 0.  1.
</event>
<event>
 4    1  0.2402120E+005  0.2752492E+02  0.7546771E-02  0.1442405E+00
          2   -1    0    0  502    0  0.00000000000E+00  0.00000000000E+00  0.16184889083E+04  0.16184889083E+04  0.00000000000E+00 0.  1.
         21   -1    0    0  503  502 -0.00000000000E+00 -0.00000000000E+00 -0.31556636133E+01  0.31556636133E+01  0.00000000000E+00 0.  1.
          2    1    1    2  501    0 -0.58083874436E+01 -0.26905092683E+02  0.15559384024E+04  0.15561818446E+04  0.00000000000E+00 0.  1.
         21    1    1    2  503  501  0.58083874436E+01  0.26905092683E+02  0.59394842203E+02  0.65462727237E+02  0.00000000000E+00 0.  1.
</event>
<event>
 4    1  0.2402120E+005  0.3397590E+02  0.7546771E-02  0.1387909E+00
          2   -1    0    0  503    0  0.00000000000E+00  0.00000000000E+00  0.25833330822E+03  0.25833330822E+03  0.00000000000E+00 0.  1.
         21   -1    0    0  501  502 -0.00000000000E+00 -0.00000000000E+00 -0.60413685985E+01  0.60413685985E+01  0.00000000000E+00 0. -1.
          2    1    1    2  501    0 -0.15837291313E+02 -0.30058976760E+02  0.19359390882E+03  0.19655269882E+03  0.00000000000E+00 0.  1.
         21    1    1    2  503  502  0.15837291313E+02  0.30058976760E+02  0.58698030794E+02  0.67821977994E+02  0.00000000000E+00 0. -1.
</event>
<event>
 4    1  0.2402120E+005  0.3188318E+02  0.7546771E-02  0.1403908E+00
          2   -1    0    0  503    0  0.00000000000E+00  0.00000000000E+00  0.14641133682E+04  0.14641133682E+04  0.00000000000E+00 0. -1.
         21   -1    0    0  501  502 -0.00000000000E+00 -0.00000000000E+00 -0.14001040446E+02  0.14001040446E+02  0.00000000000E+00 0. -1.
          2    1    1    2  501    0 -0.32020753010E+01  0.31721981321E+02  0.14455556974E+04  0.14459072625E+04  0.00000000000E+00 0. -1.
         21    1    1    2  503  502  0.32020753010E+01 -0.31721981321E+02  0.45566303661E+01  0.32207146186E+02  0.00000000000E+00 0. -1.
</event>
<event>
 4    1  0.2402120E+005  0.2315877E+02  0.7546771E-02  0.1490514E+00
          2   -1    0    0  503    0  0.00000000000E+00  0.00000000000E+00  0.33624067488E+03  0.33624067488E+03  0.00000000000E+00 0.  1.
         21   -1    0    0  501  502 -0.00000000000E+00 -0.00000000000E+00 -0.22374801025E+01  0.22374801025E+01  0.00000000000E+00 0.  1.
          2    1    1    2  501    0 -0.22737829630E+02 -0.43953987157E+01  0.25768466881E+03  0.25872324396E+03  0.00000000000E+00 0.  1.
         21    1    1    2  503  502  0.22737829630E+02  0.43953987157E+01  0.76318525970E+02  0.79754911024E+02  0.00000000000E+00 0.  1.
</event>
<event>
 4    1  0.2402120E+005  0.2118807E+02  0.7546771E-02  0.1516597E+00
          2   -1    0    0  503    0  0.00000000000E+00  0.00000000000E+00  0.43658396145E+03  0.43658396145E+03  0.00000000000E+00 0. -1.
         21   -1    0    0  501  502 -0.00000000000E+00 -0.00000000000E+00 -0.28706459037E+01  0.28706459037E+01  0.00000000000E+00 0. -1.
          2    1    1    2  501    0 -0.12978338466E+02  0.16748040060E+02  0.39288443165E+03  0.39345534784E+03  0.00000000000E+00 0. -1.
         21    1    1    2  503  502  0.12978338466E+02 -0.16748040060E+02  0.40828883905E+02  0.45999259517E+02  0.00000000000E+00 0. -1.
</event>
<event>
 4    1  0.2402120E+005  0.2996545E+02  0.7546771E-02  0.1419897E+00
          2   -1    0    0  502    0  0.00000000000E+00  0.00000000000E+00  0.37320825091E+03  0.37320825091E+03  0.00000000000E+00 0. -1.
         21   -1    0    0  503  502 -0.00000000000E+00 -0.00000000000E+00 -0.61987361548E+03  0.61987361548E+03  0.00000000000E+00 0. -1.
          2    1    1    2  501    0  0.24022389474E+02  0.17912369946E+02  0.37224367966E+03  0.37344783470E+03  0.00000000000E+00 0. -1.
         21    1    1    2  503  501 -0.24022389474E+02 -0.17912369946E+02 -0.61890904424E+03  0.61963403169E+03  0.00000000000E+00 0. -1.
</event>
<event>
 4    1  0.2402120E+005  0.4021203E+02  0.7546771E-02  0.1347248E+00
          2   -1    0    0  503    0  0.00000000000E+00  0.00000000000E+00  0.34697156192E+03  0.34697156192E+03  0.00000000000E+00 0. -1.
         21   -1    0    0  501  502 -0.00000000000E+00 -0.00000000000E+00 -0.44496850517E+02  0.44496850517E+02  0.00000000000E+00 0.  1.
          2    1    1    2  501    0 -0.35740140286E+02 -0.18429595354E+02  0.33643808956E+03  0.33883269577E+03  0.00000000000E+00 0. -1.
         21    1    1    2  503  502  0.35740140286E+02  0.18429595354E+02 -0.33963378163E+02  0.52635716665E+02  0.00000000000E+00 0.  1.
</event>
<event>
 4    1  0.2402120E+005  0.2359280E+02  0.7546771E-02  0.1485186E+00
          2   -1    0    0  503    0  0.00000000000E+00  0.00000000000E+00  0.60350396314E+03  0.60350396314E+03  0.00000000000E+00 0.  1.
         21   -1    0    0  501  502 -0.00000000000E+00 -0.00000000000E+00 -0.25009046562E+01  0.25009046562E+01  0.00000000000E+00 0. -1.
          2    1    1    2  501    0  0.19032176989E+02  0.13942612524E+02  0.54123268553E+03  0.54174665674E+03  0.00000000000E+00 0.  1.
         21    1    1    2  503  502 -0.19032176989E+02 -0.13942612524E+02  0.59770372959E+02  0.64258211059E+02  0.00000000000E+00 0. -1.
</event>
<event>
 4    1  0.2402120E+005  0.2999783E+02  0.7546771E-02  0.1419615E+00
          2   -1    0    0  503    0  0.00000000000E+00  0.00000000000E+00  0.38660368132E+02  0.38660368132E+02  0.00000000000E+00 0. -1.
         21   -1    0    0  501  502 -0.00000000000E+00 -0.00000000000E+00 -0.27155338532E+02  0.27155338532E+02  0.00000000000E+00 0. -1.
          2    1    1    2  501    0 -0.68220172153E+01 -0.29211810164E+02 -0.66850338515E+01  0.30733685908E+02  0.00000000000E+00 0. -1.
         21    1    1    2  503  502  0.68220172153E+01  0.29211810164E+02  0.18190063452E+02  0.35082020756E+02  0.00000000000E+00 0. -1.
</event>
<event>
 4    1  0.2402120E+005  0.2856106E+02  0.7546771E-02  0.1432527E+00
          2   -1    0    0  503    0  0.00000000000E+00  0.00000000000E+00  0.47632827439E+03  0.47632827439E+03  0.00000000000E+00 0.  1.
         21   -1    0    0  501  502 -0.00000000000E+00 -0.00000000000E+00 -0.17540101866E+01  0.17540101866E+01  0.00000000000E+00 0.  1.
          2    1    1    2  501    0 -0.52373439364E+01  0.28076757638E+02  0.20053410918E+03  0.20255780172E+03  0.00000000000E+00 0.  1.
         21    1    1    2  503  502  0.52373439364E+01 -0.28076757638E+02  0.27404015503E+03  0.27552448286E+03  0.00000000000E+00 0.  1.
</event>
<event>
 4    1  0.2402120E+005  0.2974773E+02  0.7546771E-02  0.1421802E+00
          2   -1    0    0  502    0  0.00000000000E+00  0.00000000000E+00  0.86782776858E+03  0.86782776858E+03  0.00000000000E+00 0. -1.
         21   -1    0    0  503  502 -0.00000000000E+00 -0.00000000000E+00 -0.10277196862E+01  0.10277196862E+01  0.00000000000E+00 0. -1.
          2    1    1    2  501    0 -0.22917710045E+02  0.18965909172E+02  0.47176721608E+03  0.47270417103E+03  0.00000000000E+00 0. -1.
         21    1    1    2  503  501  0.22917710045E+02 -0.18965909172E+02  0.39503283282E+03  0.39615131724E+03  0.00000000000E+00 0. -1.
</event>
<event>
 4    1  0.2402120E+005  0.2078852E+02  0.7546771E-02  0.1522306E+00
          2   -1    0    0  502    0  0.00000000000E+00  0.00000000000E+00  0.80478506372E+03  0.80478506372E+03  0.00000000000E+00 0. -1.
         21   -1    0    0  503  502 -0.00000000000E+00 -0.00000000000E+00 -0.87333480560E+00  0.87333480560E+00  0.00000000000E+00 0.  1.
          2    1    1    2  501    0 -0.81942648613E+01 -0.19105404360E+02  0.65194560301E+03  0.65227695938E+03  0.00000000000E+00 0. -1.
         21    1    1    2  503  501  0.81942648613E+01  0.19105404360E+02  0.15196612591E+03  0.15338143915E+03  0.00000000000E+00 0.  1.
</event>
<event>
 4    1  0.2402120E+005  0.3027813E+02  0.7546771E-02  0.1417195E+00
          2   -1    0    0  503    0  0.00000000000E+00  0.00000000000E+00  0.10324964776E+04  0.10324964776E+04  0.00000000000E+00 0.  1.
         21   -1    0    0  501  502 -0.00000000000E+00 -0.00000000000E+00 -0.11391752604E+01  0.11391752604E+01  0.00000000000E+00 0.  1.
          2    1    1    2  501    0 -0.26091031802E+02  0.15363048820E+02  0.75839966653E+03  0.75900383359E+03  0.00000000000E+00 0.  1.
         21    1    1    2  503  502  0.26091031802E+02 -0.15363048820E+02  0.27295763577E+03  0.27463181924E+03  0.00000000000E+00 0.  1.
</event>
<event>
 4    1  0.2402120E+005  0.2463851E+02  0.7546771E-02  0.1472888E+00
          2   -1    0    0  502    0  0.00000000000E+00  0.00000000000E+00  0.53653347851E+02  0.53653347851E+02  0.00000000000E+00 0.  1.
         21   -1    0    0  503  502 -0.00000000000E+00 -0.00000000000E+00 -0.13898596219E+02  0.13898596219E+02  0.00000000000E+00 0.  1.
          2    1    1    2  501    0  0.24505597551E+02  0.25557557443E+01  0.34441485490E+02  0.42347043835E+02  0.00000000000E+00 0.  1.
         21    1    1    2  503  501 -0.24505597551E+02 -0.25557557443E+01  0.53132661418E+01  0.25204900235E+02  0.00000000000E+00 0.  1.
</event>
<event>
 4    1  0.2402120E+005  0.2520103E+02  0.7546771E-02  0.1466567E+00
          2   -1    0    0  502    0  0.00000000000E+00  0.00000000000E+00  0.90685935421E+03  0.90685935421E+03  0.00000000000E+00 0. -1.
         21   -1    0    0  503  502 -0.00000000000E+00 -0.00000000000E+00 -0.63002473648E+01  0.63002473648E+01  0.00000000000E+00 0.  1.
          2    1    1    2  501    0 -0.24661770636E+02  0.51854522290E+01  0.88073587105E+03  0.88109634342E+03  0.00000000000E+00 0. -1.
         21    1    1    2  503  501  0.24661770636E+02 -0.51854522290E+01  0.19823235797E+02  0.32063258150E+02  0.00000000000E+00 0.  1.
</event>
<event>
 4    1  0.2402120E+005  0.2042994E+02  0.7546771E-02  0.1527562E+00
          2   -1    0    0  502    0  0.00000000000E+00  0.00000000000E+00  0.24722780719E+03  0.24722780719E+03  0.00000000000E+00 0. -1.
         21   -1    0    0  503  502 -0.00000000000E+00 -0.00000000000E+00 -0.14823451673E+02  0.14823451673E+02  0.00000000000E+00 0. -1.
          2    1    1    2  501    0 -0.19832309981E+02 -0.49052892797E+01  0.23954104454E+03  0.24041067864E+03  0.00000000000E+00 0. -1.
         21    1    1    2  503  501  0.19832309981E+02  0.49052892797E+01 -0.71366890291E+01  0.21640580223E+02  0.00000000000E+00 0. -1.
</event>
<event>
 4    1  0.2402120E+005  0.2984533E+02  0.7546771E-02  0.1420945E+00
          2   -1    0    0  502    0  0.00000000000E+00  0.00000000000E+00  0.67718400443E+02  0.67718400443E+02  0.00000000000E+00 0.  1.
         21   -1    0    0  503  502 -0.00000000000E+00 -0.00000000000E+00 -0.17796055823E+02  0.17796055823E+02  0.00000000000E+00 0.  1.
          2    1    1    2  501    0  0.29379024156E+02  0.52551295068E+01  0.46799515772E+02  0.55506198960E+02  0.00000000000E+00 0.  1.
         21    1    1    2  503  501 -0.29379024156E+02 -0.52551295068E+01  0.31228288480E+01  0.30008257305E+02  0.00000000000E+00 0.  1.
</event>
<event>
 4    1  0.2402120E+005  0.2608053E+02  0.7546771E-02  0.1457070E+00
          2   -1    0    0  503    0  0.00000000000E+00  0.00000000000E+00  0.13047123696E+04  0.13047123696E+04  0.00000000000E+00 0.  1.
         21   -1    0    0  501  502 -0.00000000000E+00 -0.00000000000E+00 -0.10140063473E+01  0.10140063473E+01  0.00000000000E+00 0.  1.
          2    1    1    2  501    0 -0.17137132953E+02  0.19659926189E+02  0.11069209452E+04  0.11072281485E+04  0.00000000000E+00 0.  1.
         21    1    1    2  503  502  0.17137132953E+02 -0.19659926189E+02  0.19677741807E+03  0.19849822742E+03  0.00000000000E+00 0.  1.
</event>
<event>
 4    1  0.2402120E+005  0.4300001E+02  0.7546771E-02  0.1331749E+00
          2   -1    0    0  503    0  0.00000000000E+00  0.00000000000E+00  0.19749590182E+04  0.19749590182E+04  0.00000000000E+00 0.  1.
         21   -1    0    0  501  502 -0.00000000000E+00 -0.00000000000E+00 -0.18068722528E+01  0.18068722528E+01  0.00000000000E+00 0. -1.
          2    1    1    2  501    0 -0.32981082505E+02 -0.27590748237E+02  0.16726694764E+04  0.16732220947E+04  0.00000000000E+00 0.  1.
         21    1    1    2  503  502  0.32981082505E+02  0.27590748237E+02  0.30048266961E+03  0.30354379574E+03  0.00000000000E+00 0. -1.
</event>
<event>
 4    1  0.2402120E+005  0.2216656E+02  0.7546771E-02  0.1503237E+00
          2   -1    0    0  503    0  0.00000000000E+00  0.00000000000E+00  0.13630233020E+04  0.13630233020E+04  0.00000000000E+00 0.  1.
         21   -1    0    0  501  502 -0.00000000000E+00 -0.00000000000E+00 -0.37573913332E+00  0.37573913332E+00  0.00000000000E+00 0.  1.
          2    1    1    2  501    0  0.11887040714E+02  0.18709752637E+02  0.81865494823E+03  0.81895499317E+03  0.00000000000E+00 0.  1.
         21    1    1    2  503  502 -0.11887040714E+02 -0.18709752637E+02  0.54399261459E+03  0.54444404792E+03  0.00000000000E+00 0.  1.
</event>
<event>
 4    1  0.2402120E+005  0.2123916E+02  0.7546771E-02  0.1515878E+00
          2   -1    0    0  502    0  0.00000000000E+00  0.00000000000E+00  0.15532088775E+03  0.15532088775E+03  0.00000000000E+00 0. -1.
         21   -1    0    0  503  502 -0.00000000000E+00 -0.00000000000E+00 -0.36497906756E+01  0.36497906756E+01  0.00000000000E+00 0. -1.
          2    1    1    2  501    0  0.18852821932E+02 -0.97812539163E+01  0.11175815525E+03  0.11375845941E+03  0.00000000000E+00 0. -1.
         21    1    1    2  503  501 -0.18852821932E+02  0.97812539163E+01  0.39912941822E+02  0.45212219011E+02  0.00000000000E+00 0. -1.
</event>
<event>
 4    1  0.2402120E+005  0.4235171E+02  0.7546771E-02  0.1335230E+00
          2   -1    0    0  503    0  0.00000000000E+00  0.00000000000E+00  0.29235252394E+04  0.29235252394E+04  0.00000000000E+00 0. -1.
         21   -1    0    0  501  502 -0.00000000000E+00 -0.00000000000E+00 -0.30086954076E+01  0.30086954076E+01  0.00000000000E+00 0.  1.
          2    1    1    2  501    0 -0.35003307278E+02  0.23841889832E+02  0.27658347350E+04  0.27661589702E+04  0.00000000000E+00 0. -1.
         21    1    1    2  503  502  0.35003307278E+02 -0.23841889832E+02  0.15468180899E+03  0.16037496457E+03  0.00000000000E+00 0.  1.
</event>
<event>
 4    1  0.2402120E+005  0.2304235E+02  0.7546771E-02  0.1491967E+00
          2   -1    0    0  503    0  0.00000000000E+00  0.00000000000E+00  0.14292620901E+03  0.14292620901E+03  0.00000000000E+00 0.  1.
         21   -1    0    0  501  502 -0.00000000000E+00 -0.00000000000E+00 -0.51438524921E+01  0.51438524921E+01  0.00000000000E+00 0.  1.
          2    1    1    2  501    0  0.18615607185E+02 -0.13579726252E+02  0.10791314096E+03  0.11034580096E+03  0.00000000000E+00 0.  1.
         21    1    1    2  503  502 -0.18615607185E+02  0.13579726252E+02  0.29869215558E+02  0.37724260549E+02  0.00000000000E+00 0.  1.
</event>
<event>
 4    1  0.2402120E+005  0.3448264E+02  0.7546771E-02  0.1384237E+00
          2   -1    0    0  502    0  0.00000000000E+00  0.00000000000E+00  0.13460730340E+03  0.13460730340E+03  0.00000000000E+00 0.  1.
         21   -1    0    0  503  502 -0.00000000000E+00 -0.00000000000E+00 -0.16641986627E+02  0.16641986627E+02  0.00000000000E+00 0. -1.
          2    1    1    2  501    0 -0.14933658014E+02 -0.31081156736E+02  0.11078440958E+03  0.11602688418E+03  0.00000000000E+00 0.  1.
         21    1    1    2  503  501  0.14933658014E+02  0.31081156736E+02  0.71809071903E+01  0.35222405849E+02  0.00000000000E+00 0. -1.
</event>
<event>
 4    1  0.2402120E+005  0.2420821E+02  0.7546771E-02  0.1477859E+00
          2   -1    0    0  503    0  0.00000000000E+00  0.00000000000E+00  0.41774506542E+01  0.41774506542E+01  0.00000000000E+00 0.  1.
         21   -1    0    0  501  502 -0.00000000000E+00 -0.00000000000E+00 -0.37209770894E+03  0.37209770894E+03  0.00000000000E+00 0.  1.
          2    1    1    2  501    0 -0.14396853833E+02 -0.19461969138E+02 -0.35464119339E+02  0.42938809991E+02  0.00000000000E+00 0.  1.
         21    1    1    2  503  502  0.14396853833E+02  0.19461969138E+02 -0.33245613895E+03  0.33333634960E+03  0.00000000000E+00 0.  1.
</event>
<event>
 4    1  0.2402120E+005  0.2125567E+02  0.7546771E-02  0.1515646E+00
          2   -1    0    0  503    0  0.00000000000E+00  0.00000000000E+00  0.49092974900E+03  0.49092974900E+03  0.00000000000E+00 0.  1.
         21   -1    0    0  501  502 -0.00000000000E+00 -0.00000000000E+00 -0.15975360467E+02  0.15975360467E+02  0.00000000000E+00 0.  1.
          2    1    1    2  501    0  0.15715005592E+02 -0.14312304950E+02  0.48352107470E+03  0.48398805063E+03  0.00000000000E+00 0.  1.
         21    1    1    2  503  502 -0.15715005592E+02  0.14312304950E+02 -0.85666861679E+01  0.22917058835E+02  0.00000000000E+00 0.  1.
</event>
<event>
 4    1  0.2402120E+005  0.2137473E+02  0.7546771E-02  0.1513981E+00
          2   -1    0    0  502    0  0.00000000000E+00  0.00000000000E+00  0.98827292721E+03  0.98827292721E+03  0.00000000000E+00 0. -1.
         21   -1    0    0  503  502 -0.00000000000E+00 -0.00000000000E+00 -0.66173017791E+02  0.66173017791E+02  0.00000000000E+00 0.  1.
          2    1    1    2  501    0  0.64768050262E+00  0.21364918682E+02  0.98642804590E+03  0.98665960137E+03  0.00000000000E+00 0. -1.
         21    1    1    2  503  501 -0.64768050262E+00 -0.21364918682E+02 -0.64328136478E+02  0.67786343632E+02  0.00000000000E+00 0.  1.
</event>
<event>
 4    1  0.2402120E+005  0.2212517E+02  0.7546771E-02  0.1503786E+00
          2   -1    0    0  503    0  0.00000000000E+00  0.00000000000E+00  0.94631037005E+02  0.94631037005E+02  0.00000000000E+00 0. -1.
         21   -1    0    0  501  502 -0.00000000000E+00 -0.00000000000E+00 -0.15408658175E+03  0.15408658175E+03  0.00000000000E+00 0.  1.
          2    1    1    2  501    0  0.60828795485E+00 -0.22116806727E+02  0.92525741054E+02  0.95134304599E+02  0.00000000000E+00 0. -1.
         21    1    1    2  503  502 -0.60828795485E+00  0.22116806727E+02 -0.15198128580E+03  0.15358331416E+03  0.00000000000E+00 0.  1.
</event>
<event>
 4    1  0.2402120E+005  0.5493492E+02  0.7546771E-02  0.1278086E+00
          2   -1    0    0  502    0  0.00000000000E+00  0.00000000000E+00  0.28881599526E+03  0.28881599526E+03  0.00000000000E+00 0.  1.
         21   -1    0    0  503  502 -0.00000000000E+00 -0.00000000000E+00 -0.15518332868E+02  0.15518332868E+02  0.00000000000E+00 0. -1.
          2    1    1    2  501    0 -0.36428786295E+02 -0.41119201812E+02  0.22361949749E+03  0.23026837578E+03  0.00000000000E+00 0.  1.
         21    1    1    2  503  501  0.36428786295E+02  0.41119201812E+02  0.49678164902E+02  0.74065952343E+02  0.00000000000E+00 0. -1.
</event>
<event>
 4    1  0.2402120E+005  0.2126889E+02  0.7546771E-02  0.1515460E+00
          2   -1    0    0  502    0  0.00000000000E+00  0.00000000000E+00  0.13120196276E+04  0.13120196276E+04  0.00000000000E+00 0. -1.
         21   -1    0    0  503  502 -0.00000000000E+00 -0.00000000000E+00 -0.26871171140E+01  0.26871171140E+01  0.00000000000E+00 0.  1.
          2    1    1    2  501    0 -0.19737236850E+02 -0.79250899834E+01  0.12683996739E+04  0.12685779827E+04  0.00000000000E+00 0. -1.
         21    1    1    2  503  501  0.19737236850E+02  0.79250899834E+01  0.40932836623E+02  0.46128762001E+02  0.00000000000E+00 0.  1.
</event>
<event>
 4    1  0.2402120E+005  0.2043803E+02  0.7546771E-02  0.1527442E+00
          2   -1    0    0  502    0  0.00000000000E+00  0.00000000000E+00  0.69298756005E+03  0.69298756005E+03  0.00000000000E+00 0.  1.
         21   -1    0    0  503  502 -0.00000000000E+00 -0.00000000000E+00 -0.13227842895E+01  0.13227842895E+01  0.00000000000E+00 0.  1.
          2    1    1    2  501    0  0.12438456366E+02  0.16217203118E+02  0.60195584313E+03  0.60230270625E+03  0.00000000000E+00 0.  1.
         21    1    1    2  503  501 -0.12438456366E+02 -0.16217203118E+02  0.89708932631E+02  0.92007638094E+02  0.00000000000E+00 0.  1.
</event>
<event>
 4    1  0.2402120E+005  0.1049146E+03  0.7546771E-02  0.1155554E+00
          2   -1    0    0  503    0  0.00000000000E+00  0.00000000000E+00  0.88743488730E+02  0.88743488730E+02  0.00000000000E+00 0. -1.
         21   -1    0    0  501  502 -0.00000000000E+00 -0.00000000000E+00 -0.15455595861E+03  0.15455595861E+03  0.00000000000E+00 0.  1.
          2    1    1    2  501    0  0.87624976022E+02 -0.57696865296E+02  0.21155015832E+02  0.10702616214E+03  0.00000000000E+00 0. -1.
         21    1    1    2  503  502 -0.87624976022E+02  0.57696865296E+02 -0.86967485715E+02  0.13627328520E+03  0.00000000000E+00 0.  1.
</event>
<event>
 4    1  0.2402120E+005  0.2158326E+02  0.7546771E-02  0.1511098E+00
          2   -1    0    0  502    0  0.00000000000E+00  0.00000000000E+00  0.50817889044E+02  0.50817889044E+02  0.00000000000E+00 0.  1.
         21   -1    0    0  503  502 -0.00000000000E+00 -0.00000000000E+00 -0.12218128742E+02  0.12218128742E+02  0.00000000000E+00 0.  1.
          2    1    1    2  501    0 -0.12974350063E+02  0.17248286602E+02  0.35050632761E+02  0.41162896001E+02  0.00000000000E+00 0.  1.
         21    1    1    2  503  501  0.12974350063E+02 -0.17248286602E+02  0.35491275409E+01  0.21873121784E+02  0.00000000000E+00 0.  1.
</event>
<event>
 4    1  0.2402120E+005  0.2194356E+02  0.7546771E-02  0.1506208E+00
          2   -1    0    0  502    0  0.00000000000E+00  0.00000000000E+00  0.46952081552E+03  0.46952081552E+03  0.00000000000E+00 0. -1.
         21   -1    0    0  503  502 -0.00000000000E+00 -0.00000000000E+00 -0.34690442675E+01  0.34690442675E+01  0.00000000000E+00 0.  1.
          2    1    1    2  501    0 -0.19592020951E+02 -0.98829375715E+01  0.43150831685E+03  0.43206590614E+03  0.00000000000E+00 0. -1.
         21    1    1    2  503  501  0.19592020951E+02  0.98829375715E+01  0.34543454410E+02  0.40923953653E+02  0.00000000000E+00 0.  1.
</event>
<event>
 4    1  0.2402120E+005  0.3331017E+02  0.7546771E-02  0.1392849E+00
          2   -1    0    0  503    0  0.00000000000E+00  0.00000000000E+00  0.28394109017E+03  0.28394109017E+03  0.00000000000E+00 0. -1.
         21   -1    0    0  501  502 -0.00000000000E+00 -0.00000000000E+00 -0.66595501005E+01  0.66595501005E+01  0.00000000000E+00 0. -1.
          2    1    1    2  501    0  0.16267261366E+01  0.33270420774E+02  0.23204221259E+03  0.23442089403E+03  0.00000000000E+00 0. -1.
         21    1    1    2  503  502 -0.16267261366E+01 -0.33270420774E+02  0.45239327485E+02  0.56179746241E+02  0.00000000000E+00 0. -1.
</event>
<event>
 4    1  0.2402120E+005  0.2981876E+02  0.7546771E-02  0.1421178E+00
          2   -1    0    0  502    0  0.00000000000E+00  0.00000000000E+00  0.37466776318E+03  0.37466776318E+03  0.00000000000E+00 0. -1.
         21   -1    0    0  503  502 -0.00000000000E+00 -0.00000000000E+00 -0.45996010544E+01  0.45996010544E+01  0.00000000000E+00 0. -1.
          2    1    1    2  501    0  0.26208115895E+02  0.14222970948E+02  0.31696845254E+03  0.31836796030E+03  0.00000000000E+00 0. -1.
         21    1    1    2  503  501 -0.26208115895E+02 -0.14222970948E+02  0.53099709592E+02  0.60899403939E+02  0.00000000000E+00 0. -1.
</event>
<event>
 4    1  0.2402120E+005  0.2444341E+02  0.7546771E-02  0.1475127E+00
          2   -1    0    0  502    0  0.00000000000E+00  0.00000000000E+00  0.69692338693E+02  0.69692338693E+02  0.00000000000E+00 0. -1.
         21   -1    0    0  503  502 -0.00000000000E+00 -0.00000000000E+00 -0.10854370381E+03  0.10854370381E+03  0.00000000000E+00 0.  1.
          2    1    1    2  501    0  0.16019316621E+02  0.18462436790E+02  0.66100552168E+02  0.70475265690E+02  0.00000000000E+00 0. -1.
         21    1    1    2  503  501 -0.16019316621E+02 -0.18462436790E+02 -0.10495191728E+03  0.10776077681E+03  0.00000000000E+00 0.  1.
</event>
<event>
 4    1  0.2402120E+005  0.2156380E+02  0.7546771E-02  0.1511365E+00
          2   -1    0    0  502    0  0.00000000000E+00  0.00000000000E+00  0.58996370562E+03  0.58996370562E+03  0.00000000000E+00 0.  1.
         21   -1    0    0  503  502 -0.00000000000E+00 -0.00000000000E+00 -0.54283776615E+01  0.54283776615E+01  0.00000000000E+00 0.  1.
          2    1    1    2  501    0 -0.37875556415E+01  0.21228558820E+02  0.56750433563E+03  0.56791387397E+03  0.00000000000E+00 0.  1.
         21    1    1    2  503  501  0.37875556415E+01 -0.21228558820E+02  0.17030992327E+02  0.27478209312E+02  0.00000000000E+00 0.  1.
</event>
<event>
 4    1  0.2402120E+005  0.2328723E+02  0.7546771E-02  0.1488923E+00
          2   -1    0    0  503    0  0.00000000000E+00  0.00000000000E+00  0.94102952287E+03  0.94102952287E+03  0.00000000000E+00 0. -1.
         21   -1    0    0  501  502 -0.00000000000E+00 -0.00000000000E+00 -0.78091165271E+00  0.78091165271E+00  0.00000000000E+00 0. -1.
          2    1    1    2  501    0  0.18312145911E+02 -0.14386110004E+02  0.71118189587E+03  0.71156305684E+03  0.00000000000E+00 0. -1.
         21    1    1    2  503  502 -0.18312145911E+02  0.14386110004E+02  0.22906671535E+03  0.23024737768E+03  0.00000000000E+00 0. -1.
</event>
<event>
 4    1  0.2402120E+005  0.3313120E+02  0.7546771E-02  0.1394200E+00
          2   -1    0    0  503    0  0.00000000000E+00  0.00000000000E+00  0.65952823732E+03  0.65952823732E+03  0.00000000000E+00 0.  1.
         21   -1    0    0  501  502 -0.00000000000E+00 -0.00000000000E+00 -0.18394358168E+01  0.18394358168E+01  0.00000000000E+00 0.  1.
          2    1    1    2  501    0  0.10697936473E+02 -0.31356508897E+02  0.43087106081E+03  0.43214297118E+03  0.00000000000E+00 0.  1.
         21    1    1    2  503  502 -0.10697936473E+02  0.31356508897E+02  0.22681774069E+03  0.22922470196E+03  0.00000000000E+00 0.  1.
</event>
<event>
 4    1  0.2402120E+005  0.2683049E+02  0.7546771E-02  0.1449318E+00
          2   -1    0    0  502    0  0.00000000000E+00  0.00000000000E+00  0.19441105205E+03  0.19441105205E+03  0.00000000000E+00 0.  1.
         21   -1    0    0  503  502 -0.00000000000E+00 -0.00000000000E+00 -0.62756515642E+01  0.62756515642E+01  0.00000000000E+00 0. -1.
          2    1    1    2  501    0 -0.19526703481E+01 -0.26759337787E+02  0.15831609593E+03  0.16057353864E+03  0.00000000000E+00 0.  1.
         21    1    1    2  503  501  0.19526703481E+01  0.26759337787E+02  0.29819304560E+02  0.40113164980E+02  0.00000000000E+00 0. -1.
</event>
<event>
 4    1  0.2402120E+005  0.2055072E+02  0.7546771E-02  0.1525777E+00
          2   -1    0    0  503    0  0.00000000000E+00  0.00000000000E+00  0.56232118070E+01  0.56232118070E+01  0.00000000000E+00 0.  1.
         21   -1    0    0  501  502 -0.00000000000E+00 -0.00000000000E+00 -0.16004712189E+03  0.16004712189E+03  0.00000000000E+00 0.  1.
          2    1    1    2  501    0 -0.19278991873E+02  0.71170630586E+01 -0.16865465708E+02  0.26585259972E+02  0.00000000000E+00 0.  1.
         21    1    1    2  503  502  0.19278991873E+02 -0.71170630586E+01 -0.13755844438E+03  0.13908507373E+03  0.00000000000E+00 0.  1.
</event>
<event>
 4    1  0.2402120E+005  0.2081571E+02  0.7546771E-02  0.1521912E+00
          2   -1    0    0  503    0  0.00000000000E+00  0.00000000000E+00  0.14359803936E+04  0.14359803936E+04  0.00000000000E+00 0. -1.
         21   -1    0    0  501  502 -0.00000000000E+00 -0.00000000000E+00 -0.30330911602E+00  0.30330911602E+00  0.00000000000E+00 0. -1.
          2    1    1    2  501    0  0.19232145361E+02  0.79635610326E+01  0.66619701595E+03  0.66652213600E+03  0.00000000000E+00 0. -1.
         21    1    1    2  503  502 -0.19232145361E+02 -0.79635610326E+01  0.76948006855E+03  0.76976156673E+03  0.00000000000E+00 0. -1.
</event>
<event>
 4    1  0.2402120E+005  0.2046882E+02  0.7546771E-02  0.1526986E+00
          2   -1    0    0  503    0  0.00000000000E+00  0.00000000000E+00  0.10281680968E+04  0.10281680968E+04  0.00000000000E+00 0. -1.
         21   -1    0    0  501  502 -0.00000000000E+00 -0.00000000000E+00 -0.43412770286E+00  0.43412770286E+00  0.00000000000E+00 0.  1.
          2    1    1    2  501    0 -0.56957600422E+01 -0.19660391044E+02  0.64125303928E+03  0.64157963890E+03  0.00000000000E+00 0. -1.
         21    1    1    2  503  502  0.56957600422E+01  0.19660391044E+02  0.38648092978E+03  0.38702258558E+03  0.00000000000E+00 0.  1.
</event>
<event>
 4    1  0.2402120E+005  0.2960575E+02  0.7546771E-02  0.1423054E+00
          2   -1    0    0  503    0  0.00000000000E+00  0.00000000000E+00  0.42859452690E+03  0.42859452690E+03  0.00000000000E+00 0. -1.
         21   -1    0    0  501  502 -0.00000000000E+00 -0.00000000000E+00 -0.59775863160E+02  0.59775863160E+02  0.00000000000E+00 0. -1.
          2    1    1    2  501    0  0.14383167651E+01 -0.29570793744E+02  0.42438113179E+03  0.42541255931E+03  0.00000000000E+00 0. -1.
         21    1    1    2  503  502 -0.14383167651E+01  0.29570793744E+02 -0.55562468047E+02  0.62957830755E+02  0.00000000000E+00 0. -1.
</event>
<event>
 4    1  0.2402120E+005  0.2027476E+02  0.7546771E-02  0.1529876E+00
          2   -1    0    0  502    0  0.00000000000E+00  0.00000000000E+00  0.15936541173E+03  0.15936541173E+03  0.00000000000E+00 0. -1.
         21   -1    0    0  503  502 -0.00000000000E+00 -0.00000000000E+00 -0.87634039084E+02  0.87634039084E+02  0.00000000000E+00 0. -1.
          2    1    1    2  501    0 -0.15419092439E+02  0.13165011258E+02  0.15753431129E+03  0.15883363991E+03  0.00000000000E+00 0. -1.
         21    1    1    2  503  501  0.15419092439E+02 -0.13165011258E+02 -0.85802938642E+02  0.88165810906E+02  0.00000000000E+00 0. -1.
</event>
<event>
 4    1  0.2402120E+005  0.4793860E+02  0.7546771E-02  0.1307366E+00
          2   -1    0    0  502    0  0.00000000000E+00  0.00000000000E+00  0.14374470151E+02  0.14374470151E+02  0.00000000000E+00 0. -1.
         21   -1    0    0  503  502 -0.00000000000E+00 -0.00000000000E+00 -0.68768542387E+03  0.68768542387E+03  0.00000000000E+00 0.  1.
          2    1    1    2  501    0 -0.31743306869E+02 -0.35923141364E+02 -0.29124765909E+02  0.56092438044E+02  0.00000000000E+00 0. -1.
         21    1    1    2  503  501  0.31743306869E+02  0.35923141364E+02 -0.64418618780E+03  0.64596745597E+03  0.00000000000E+00 0.  1.
</event>
<event>
 4    1  0.2402120E+005  0.2401595E+02  0.7546771E-02  0.1480120E+00
          2   -1    0    0  503    0  0.00000000000E+00  0.00000000000E+00  0.14695989278E+01  0.14695989278E+01  0.00000000000E+00 0.  1.
         21   -1    0    0  501  502 -0.00000000000E+00 -0.00000000000E+00 -0.59984081566E+03  0.59984081566E+03  0.00000000000E+00 0. -1.
          2    1    1    2  501    0 -0.13202335207E+02 -0.20061508939E+02 -0.12240687229E+03  0.12474056349E+03  0.00000000000E+00 0.  1.
         21    1    1    2  503  502  0.13202335207E+02  0.20061508939E+02 -0.47596434444E+03  0.47656985110E+03  0.00000000000E+00 0. -1.
</event>
<event>
 4    1  0.2402120E+005  0.2325696E+02  0.7546771E-02  0.1489296E+00
          2   -1    0    0  502    0  0.00000000000E+00  0.00000000000E+00  0.12256924669E+04  0.12256924669E+04  0.00000000000E+00 0.  1.
         21   -1    0    0  503  502 -0.00000000000E+00 -0.00000000000E+00 -0.16275335707E+02  0.16275335707E+02  0.00000000000E+00 0.  1.
          2    1    1    2  501    0  0.22223788223E+02 -0.68548956875E+01  0.12172159162E+04  0.12174380777E+04  0.00000000000E+00 0.  1.
         21    1    1    2  503  501 -0.22223788223E+02  0.68548956875E+01 -0.77987849930E+01  0.24529724932E+02  0.00000000000E+00 0.  1.
</event>
<event>
 4    1  0.2402120E+005  0.2399567E+02  0.7546771E-02  0.1480360E+00
          2   -1    0    0  502    0  0.00000000000E+00  0.00000000000E+00  0.12753338217E+04  0.12753338217E+04  0.00000000000E+00 0. -1.
         21   -1    0    0  503  502 -0.00000000000E+00 -0.00000000000E+00 -0.69170701625E+03  0.69170701625E+03  0.00000000000E+00 0. -1.
          2    1    1    2  501    0 -0.12502723009E+02  0.20481065804E+02  0.12750127930E+04  0.12752385716E+04  0.00000000000E+00 0. -1.
         21    1    1    2  503  501  0.12502723009E+02 -0.20481065804E+02 -0.69138598749E+03  0.69180226643E+03  0.00000000000E+00 0. -1.
</event>
<event>
 4    1  0.2402120E+005  0.3407182E+02  0.7546771E-02  0.1387209E+00
          2   -1    0    0  503    0  0.00000000000E+00  0.00000000000E+00  0.19483448465E+04  0.19483448465E+04  0.00000000000E+00 0.  1.
         21   -1    0    0  501  502 -0.00000000000E+00 -0.00000000000E+00 -0.49650255927E+02  0.49650255927E+02  0.00000000000E+00 0. -1.
          2    1    1    2  501    0  0.90628625798E+01 -0.32844379755E+02  0.19423324645E+04  0.19426312804E+04  0.00000000000E+00 0.  1.
         21    1    1    2  503  502 -0.90628625798E+01  0.32844379755E+02 -0.43637873896E+02  0.55363822103E+02  0.00000000000E+00 0. -1.
</event>
<event>
 4    1  0.2402120E+005  0.2487672E+02  0.7546771E-02  0.1470187E+00
          2   -1    0    0  503    0  0.00000000000E+00  0.00000000000E+00  0.20416097801E+02  0.20416097801E+02  0.00000000000E+00 0. -1.
         21   -1    0    0  501  502 -0.00000000000E+00 -0.00000000000E+00 -0.33903561187E+02  0.33903561187E+02  0.00000000000E+00 0. -1.
          2    1    1    2  501    0  0.93251260653E+01  0.23062807178E+02 -0.15583707275E+02  0.29354777865E+02  0.00000000000E+00 0. -1.
         21    1    1    2  503  502 -0.93251260653E+01 -0.23062807178E+02  0.20962438900E+01  0.24964881123E+02  0.00000000000E+00 0. -1.
</event>
<event>
 4    1  0.2402120E+005  0.5845497E+02  0.7546771E-02  0.1265174E+00
          2   -1    0    0  503    0  0.00000000000E+00  0.00000000000E+00  0.37669555165E+04  0.37669555165E+04  0.00000000000E+00 0. -1.
         21   -1    0    0  501  502 -0.00000000000E+00 -0.00000000000E+00 -0.19541190470E+03  0.19541190470E+03  0.00000000000E+00 0. -1.
          2    1    1    2  501    0  0.54997448819E+02 -0.19805652259E+02  0.37623518806E+04  0.37628059552E+04  0.00000000000E+00 0. -1.
         21    1    1    2  503  502 -0.54997448819E+02  0.19805652259E+02 -0.19080826883E+03  0.19956146595E+03  0.00000000000E+00 0. -1.
</event>
<event>
 4    1  0.2402120E+005  0.2041759E+02  0.7546771E-02  0.1527745E+00
          2   -1    0    0  502    0  0.00000000000E+00  0.00000000000E+00  0.33423707139E+03  0.33423707139E+03  0.00000000000E+00 0.  1.
         21   -1    0    0  503  502 -0.00000000000E+00 -0.00000000000E+00 -0.41275971611E+01  0.41275971611E+01  0.00000000000E+00 0. -1.
          2    1    1    2  501    0 -0.19947268080E+02 -0.43571362026E+01  0.30638285102E+03  0.30706241961E+03  0.00000000000E+00 0.  1.
         21    1    1    2  503  501  0.19947268080E+02  0.43571362026E+01  0.23726623213E+02  0.31302248942E+02  0.00000000000E+00 0. -1.
</event>
<event>
 4    1  0.2402120E+005  0.3020383E+02  0.7546771E-02  0.1417833E+00
          2   -1    0    0  502    0  0.00000000000E+00  0.00000000000E+00  0.10951781030E+04  0.10951781030E+04  0.00000000000E+00 0.  1.
         21   -1    0    0  503  502 -0.00000000000E+00 -0.00000000000E+00 -0.95486274973E+00  0.95486274973E+00  0.00000000000E+00 0. -1.
          2    1    1    2  501    0  0.18915832714E+02 -0.23547030531E+02  0.74291390478E+03  0.74352763317E+03  0.00000000000E+00 0.  1.
         21    1    1    2  503  501 -0.18915832714E+02  0.23547030531E+02  0.35130933548E+03  0.35260533258E+03  0.00000000000E+00 0. -1.
</event>
<event>
 4    1  0.2402120E+005  0.3797692E+02  0.7546771E-02  0.1360767E+00
          2   -1    0    0  503    0  0.00000000000E+00  0.00000000000E+00  0.46148063649E+01  0.46148063649E+01  0.00000000000E+00 0. -1.
         21   -1    0    0  501  502 -0.00000000000E+00 -0.00000000000E+00 -0.31259888275E+03  0.31259888275E+03  0.00000000000E+00 0. -1.
          2    1    1    2  501    0  0.70018552783E+01  0.37325864904E+02 -0.15641675053E+03  0.16096100775E+03  0.00000000000E+00 0. -1.
         21    1    1    2  503  502 -0.70018552783E+01 -0.37325864904E+02 -0.15156732585E+03  0.15625268136E+03  0.00000000000E+00 0. -1.
</event>
<event>
 4    1  0.2402120E+005  0.3256830E+02  0.7546771E-02  0.1398515E+00
          2   -1    0    0  503    0  0.00000000000E+00  0.00000000000E+00  0.14647407799E+04  0.14647407799E+04  0.00000000000E+00 0.  1.
         21   -1    0    0  501  502 -0.00000000000E+00 -0.00000000000E+00 -0.31161997914E+02  0.31161997914E+02  0.00000000000E+00 0.  1.
          2    1    1    2  501    0 -0.26178201668E+01 -0.32462918933E+02  0.14559991423E+04  0.14563633463E+04  0.00000000000E+00 0.  1.
         21    1    1    2  503  502  0.26178201668E+01  0.32462918933E+02 -0.22420360308E+02  0.39539431513E+02  0.00000000000E+00 0.  1.
</event>
<event>
 4    1  0.2402120E+005  0.2185624E+02  0.7546771E-02  0.1507382E+00
          2   -1    0    0  502    0  0.00000000000E+00  0.00000000000E+00  0.82804938487E+02  0.82804938487E+02  0.00000000000E+00 0. -1.
         21   -1    0    0  503  502 -0.00000000000E+00 -0.00000000000E+00 -0.15935615593E+02  0.15935615593E+02  0.00000000000E+00 0. -1.
          2    1    1    2  501    0  0.13593180898E+02  0.17114924554E+02  0.72868678043E+02  0.76075879549E+02  0.00000000000E+00 0. -1.
         21    1    1    2  503  501 -0.13593180898E+02 -0.17114924554E+02 -0.59993551478E+01  0.22664674531E+02  0.00000000000E+00 0. -1.
</event>
<event>
 4    1  0.2402120E+005  0.2388431E+02  0.7546771E-02  0.1481683E+00
          2   -1    0    0  503    0  0.00000000000E+00  0.00000000000E+00  0.84105873562E+03  0.84105873562E+03  0.00000000000E+00 0. -1.
         21   -1    0    0  501  502 -0.00000000000E+00 -0.00000000000E+00 -0.69560590914E+01  0.69560590914E+01  0.00000000000E+00 0.  1.
          2    1    1    2  501    0 -0.20058290266E+02  0.12966318635E+02  0.81985679662E+03  0.82020462532E+03  0.00000000000E+00 0. -1.
         21    1    1    2  503  502  0.20058290266E+02 -0.12966318635E+02  0.14245879907E+02  0.27810169393E+02  0.00000000000E+00 0.  1.
</event>
<event>
 4    1  0.2402120E+005  0.2366978E+02  0.7546771E-02  0.1484255E+00
          2   -1    0    0  502    0  0.00000000000E+00  0.00000000000E+00  0.18988396631E+02  0.18988396631E+02  0.00000000000E+00 0.  1.
         21   -1    0    0  503  502 -0.00000000000E+00 -0.00000000000E+00 -0.51797226735E+02  0.51797226735E+02  0.00000000000E+00 0. -1.
          2    1    1    2  501    0 -0.20152770025E+02 -0.12414683660E+02  0.68141580788E+01  0.24631103515E+02  0.00000000000E+00 0.  1.
         21    1    1    2  503  501  0.20152770025E+02  0.12414683660E+02 -0.39622988183E+02  0.46154519850E+02  0.00000000000E+00 0. -1.
</event>
<event>
 4    1  0.2402120E+005  0.2504023E+02  0.7546771E-02  0.1468354E+00
          2   -1    0    0  502    0  0.00000000000E+00  0.00000000000E+00  0.10527655476E+04  0.10527655476E+04  0.00000000000E+00 0.  1.
         21   -1    0    0  503  502 -0.00000000000E+00 -0.00000000000E+00 -0.41172188971E+02  0.41172188971E+02  0.00000000000E+00 0. -1.
          2    1    1    2  501    0  0.27931710374E+01  0.24883961114E+02  0.10487949768E+04  0.10490938550E+04  0.00000000000E+00 0.  1.
         21    1    1    2  503  501 -0.27931710374E+01 -0.24883961114E+02 -0.37201618116E+02  0.44843881585E+02  0.00000000000E+00 0. -1.
</event>
<event>
 4    1  0.2402120E+005  0.2229867E+02  0.7546771E-02  0.1501498E+00
          2   -1    0    0  502    0  0.00000000000E+00  0.00000000000E+00  0.93416558023E+03  0.93416558023E+03  0.00000000000E+00 0. -1.
         21   -1    0    0  503  502 -0.00000000000E+00 -0.00000000000E+00 -0.13249001846E+01  0.13249001846E+01  0.00000000000E+00 0.  1.
          2    1    1    2  501    0  0.17357972536E+02  0.13997559385E+02  0.82820683192E+03  0.82850696274E+03  0.00000000000E+00 0. -1.
         21    1    1    2  503  501 -0.17357972536E+02 -0.13997559385E+02  0.10463384813E+03  0.10698351767E+03  0.00000000000E+00 0.  1.
</event>
<event>
 4    1  0.2402120E+005  0.2245430E+02  0.7546771E-02  0.1499467E+00
          2   -1    0    0  502    0  0.00000000000E+00  0.00000000000E+00  0.54474903411E+03  0.54474903411E+03  0.00000000000E+00 0. -1.
         21   -1    0    0  503  502 -0.00000000000E+00 -0.00000000000E+00 -0.51387389813E+01  0.51387389813E+01  0.00000000000E+00 0.  1.
          2    1    1    2  501    0 -0.10158798777E+02  0.20024839208E+02  0.51876022193E+03  0.51924595640E+03  0.00000000000E+00 0. -1.
         21    1    1    2  503  501  0.10158798777E+02 -0.20024839208E+02  0.20850073196E+02  0.30641816691E+02  0.00000000000E+00 0.  1.
</event>
<event>
 4    1  0.2402120E+005  0.3485055E+02  0.7546771E-02  0.1381617E+00
          2   -1    0    0  503    0  0.00000000000E+00  0.00000000000E+00  0.12994668341E+04  0.12994668341E+04  0.00000000000E+00 0. -1.
         21   -1    0    0  501  502 -0.00000000000E+00 -0.00000000000E+00 -0.30614476532E+01  0.30614476532E+01  0.00000000000E+00 0. -1.
          2    1    1    2  501    0  0.24024085388E+02 -0.25246871145E+02  0.11910225096E+04  0.11915322822E+04  0.00000000000E+00 0. -1.
         21    1    1    2  503  502 -0.24024085388E+02  0.25246871145E+02  0.10538287684E+03  0.11099599953E+03  0.00000000000E+00 0. -1.
</event>
<event>
 4    1  0.2402120E+005  0.9837194E+02  0.7546771E-02  0.1166659E+00
          2   -1    0    0  502    0  0.00000000000E+00  0.00000000000E+00  0.71145748077E+03  0.71145748077E+03  0.00000000000E+00 0.  1.
         21   -1    0    0  503  502 -0.00000000000E+00 -0.00000000000E+00 -0.19136616933E+03  0.19136616933E+03  0.00000000000E+00 0. -1.
          2    1    1    2  501    0 -0.45666093226E+02  0.87130053769E+02  0.69511934244E+03  0.70204553881E+03  0.00000000000E+00 0.  1.
         21    1    1    2  503  501  0.45666093226E+02 -0.87130053769E+02 -0.17502803099E+03  0.20077811129E+03  0.00000000000E+00 0. -1.
</event>
<event>
 4    1  0.2402120E+005  0.2460960E+02  0.7546771E-02  0.1473218E+00
          2   -1    0    0  502    0  0.00000000000E+00  0.00000000000E+00  0.46047269283E+03  0.46047269283E+03  0.00000000000E+00 0.  1.
         21   -1    0    0  503  502 -0.00000000000E+00 -0.00000000000E+00 -0.16690755044E+02  0.16690755044E+02  0.00000000000E+00 0. -1.
          2    1    1    2  501    0  0.11017266966E+02 -0.22005733908E+02  0.45087964430E+03  0.45155075700E+03  0.00000000000E+00 0.  1.
         21    1    1    2  503  501 -0.11017266966E+02  0.22005733908E+02 -0.70977065175E+01  0.25612690879E+02  0.00000000000E+00 0. -1.
</event>
<event>
 4    1  0.2402120E+005  0.2262531E+02  0.7546771E-02  0.1497257E+00
          2   -1    0    0  503    0  0.00000000000E+00  0.00000000000E+00  0.34780750122E+03  0.34780750122E+03  0.00000000000E+00 0.  1.
         21   -1    0    0  501  502 -0.00000000000E+00 -0.00000000000E+00 -0.15528629035E+01  0.15528629035E+01  0.00000000000E+00 0.  1.
          2    1    1    2  501    0  0.22173242265E+02  0.45002321098E+01  0.21303671988E+03  0.21423479825E+03  0.00000000000E+00 0.  1.
         21    1    1    2  503  502 -0.22173242265E+02 -0.45002321098E+01  0.13321791843E+03  0.13512556588E+03  0.00000000000E+00 0.  1.
</event>
<event>
 4    1  0.2402120E+005  0.2273572E+02  0.7546771E-02  0.1495844E+00
          2   -1    0    0  503    0  0.00000000000E+00  0.00000000000E+00  0.13395811268E+04  0.13395811268E+04  0.00000000000E+00 0. -1.
         21   -1    0    0  501  502 -0.00000000000E+00 -0.00000000000E+00 -0.25321861614E+03  0.25321861614E+03  0.00000000000E+00 0. -1.
          2    1    1    2  501    0  0.47855929604E+01 -0.22226363984E+02  0.13389740835E+04  0.13391670954E+04  0.00000000000E+00 0. -1.
         21    1    1    2  503  502 -0.47855929604E+01  0.22226363984E+02 -0.25261157284E+03  0.25363264752E+03  0.00000000000E+00 0. -1.
</event>
<event>
 4    1  0.2402120E+005  0.2191378E+02  0.7546771E-02  0.1506608E+00
          2   -1    0    0  502    0  0.00000000000E+00  0.00000000000E+00  0.14100389883E+04  0.14100389883E+04  0.00000000000E+00 0.  1.
         21   -1    0    0  503  502 -0.00000000000E+00 -0.00000000000E+00 -0.80538229869E+02  0.80538229869E+02  0.00000000000E+00 0.  1.
          2    1    1    2  501    0 -0.21135152099E+02 -0.57895822441E+01  0.14084615373E+04  0.14086320016E+04  0.00000000000E+00 0.  1.
         21    1    1    2  503  501  0.21135152099E+02  0.57895822441E+01 -0.78960778869E+02  0.81945216556E+02  0.00000000000E+00 0.  1.
</event>
<event>
 4    1  0.2402120E+005  0.2087159E+02  0.7546771E-02  0.1521106E+00
          2   -1    0    0  502    0  0.00000000000E+00  0.00000000000E+00  0.11072239510E+04  0.11072239510E+04  0.00000000000E+00 0.  1.
         21   -1    0    0  503  502 -0.00000000000E+00 -0.00000000000E+00 -0.51769323653E+00  0.51769323653E+00  0.00000000000E+00 0.  1.
          2    1    1    2  501    0 -0.15323433087E+02  0.14170945024E+02  0.82470366548E+03  0.82496773218E+03  0.00000000000E+00 0.  1.
         21    1    1    2  503  501  0.15323433087E+02 -0.14170945024E+02  0.28200259234E+03  0.28277391211E+03  0.00000000000E+00 0.  1.
</event>
<event>
 4    1  0.2402120E+005  0.3127478E+02  0.7546771E-02  0.1408833E+00
          2   -1    0    0  503    0  0.00000000000E+00  0.00000000000E+00  0.16742138356E+03  0.16742138356E+03  0.00000000000E+00 0. -1.
         21   -1    0    0  501  502 -0.00000000000E+00 -0.00000000000E+00 -0.67512932694E+01  0.67512932694E+01  0.00000000000E+00 0.  1.
          2    1    1    2  501    0  0.10170197531E+02  0.29574968697E+02  0.48378691334E+02  0.57607373369E+02  0.00000000000E+00 0. -1.
         21    1    1    2  503  502 -0.10170197531E+02 -0.29574968697E+02  0.11229139896E+03  0.11656530346E+03  0.00000000000E+00 0.  1.
</event>
<event>
 4    1  0.2402120E+005  0.2099837E+02  0.7546771E-02  0.1519288E+00
          2   -1    0    0  503    0  0.00000000000E+00  0.00000000000E+00  0.39300216829E+02  0.39300216829E+02  0.00000000000E+00 0.  1.
         21   -1    0    0  501  502 -0.00000000000E+00 -0.00000000000E+00 -0.37344961063E+02  0.37344961063E+02  0.00000000000E+00 0.  1.
          2    1    1    2  501    0 -0.19410463628E+02 -0.80103393754E+01  0.33030740834E+02  0.39140279447E+02  0.00000000000E+00 0.  1.
         21    1    1    2  503  502  0.19410463628E+02  0.80103393754E+01 -0.31075485067E+02  0.37504898445E+02  0.00000000000E+00 0.  1.
</event>
<event>
 4    1  0.2402120E+005  0.4038869E+02  0.7546771E-02  0.1346223E+00
          2   -1    0    0  502    0  0.00000000000E+00  0.00000000000E+00  0.10119914302E+04  0.10119914302E+04  0.00000000000E+00 0. -1.
         21   -1    0    0  503  502 -0.00000000000E+00 -0.00000000000E+00 -0.74967890234E+02  0.74967890234E+02  0.00000000000E+00 0.  1.
          2    1    1    2  501    0 -0.23285687474E+02 -0.33000354847E+02  0.10061168836E+04  0.10069272219E+04  0.00000000000E+00 0. -1.
         21    1    1    2  503  501  0.23285687474E+02  0.33000354847E+02 -0.69093343655E+02  0.80032098551E+02  0.00000000000E+00 0.  1.
</event>
<event>
 4    1  0.2402120E+005  0.3210090E+02  0.7546771E-02  0.1402177E+00
          2   -1    0    0  502    0  0.00000000000E+00  0.00000000000E+00  0.25994214304E+03  0.25994214304E+03  0.00000000000E+00 0. -1.
         21   -1    0    0  503  502 -0.00000000000E+00 -0.00000000000E+00 -0.59489046819E+01  0.59489046819E+01  0.00000000000E+00 0.  1.
          2    1    1    2  501    0 -0.32032585051E+02  0.20932138021E+01  0.20378595059E+03  0.20629876807E+03  0.00000000000E+00 0. -1.
         21    1    1    2  503  501  0.32032585051E+02 -0.20932138021E+01  0.50207287764E+02  0.59592279648E+02  0.00000000000E+00 0.  1.
</event>
<event>
 4    1  0.2402120E+005  0.2078106E+02  0.7546771E-02  0.1522414E+00
          2   -1    0    0  503    0  0.00000000000E+00  0.00000000000E+00  0.50179908691E+01  0.50179908691E+01  0.00000000000E+00 0.  1.
         21   -1    0    0  501  502 -0.00000000000E+00 -0.00000000000E+00 -0.27845196356E+03  0.27845196356E+03  0.00000000000E+00 0.  1.
          2    1    1    2  501    0  0.90682110434E+01  0.18698130616E+02 -0.18903663704E+02  0.28092722216E+02  0.00000000000E+00 0.  1.
         21    1    1    2  503  502 -0.90682110434E+01 -0.18698130616E+02 -0.25453030898E+03  0.25537723221E+03  0.00000000000E+00 0.  1.
</event>
<event>
 4    1  0.2402120E+005  0.2174950E+02  0.7546771E-02  0.1508827E+00
          2   -1    0    0  503    0  0.00000000000E+00  0.00000000000E+00  0.17022940853E+03  0.17022940853E+03  0.00000000000E+00 0. -1.
         21   -1    0    0  501  502 -0.00000000000E+00 -0.00000000000E+00 -0.25689855896E+02  0.25689855896E+02  0.00000000000E+00 0.  1.
          2    1    1    2  501    0  0.11361908606E+02 -0.18545832753E+02  0.16477972761E+03  0.16620890322E+03  0.00000000000E+00 0. -1.
         21    1    1    2  503  502 -0.11361908606E+02  0.18545832753E+02 -0.20240174977E+02  0.29710361202E+02  0.00000000000E+00 0.  1.
</event>
<event>
 4    1  0.2402120E+005  0.2905963E+02  0.7546771E-02  0.1427948E+00
          2   -1    0    0  503    0  0.00000000000E+00  0.00000000000E+00  0.12019214614E+04  0.12019214614E+04  0.00000000000E+00 0. -1.
         21   -1    0    0  501  502 -0.00000000000E+00 -0.00000000000E+00 -0.11029835893E+01  0.11029835893E+01  0.00000000000E+00 0.  1.
          2    1    1    2  501    0 -0.20414344554E+02 -0.20681312858E+02  0.96282043765E+03  0.96325887347E+03  0.00000000000E+00 0. -1.
         21    1    1    2  503  502  0.20414344554E+02  0.20681312858E+02  0.23799804021E+03  0.23976557157E+03  0.00000000000E+00 0.  1.
</event>
<event>
 4    1  0.2402120E+005  0.2882796E+02  0.7546771E-02  0.1430062E+00
          2   -1    0    0  502    0  0.00000000000E+00  0.00000000000E+00  0.26012377634E+02  0.26012377634E+02  0.00000000000E+00 0.  1.
         21   -1    0    0  503  502 -0.00000000000E+00 -0.00000000000E+00 -0.15483738063E+03  0.15483738063E+03  0.00000000000E+00 0. -1.
          2    1    1    2  501    0  0.13305185741E+02 -0.25573881125E+02  0.16145126220E+02  0.33041132911E+02  0.00000000000E+00 0.  1.
         21    1    1    2  503  501 -0.13305185741E+02  0.25573881125E+02 -0.14497012922E+03  0.14780862536E+03  0.00000000000E+00 0. -1.
</event>
<event>
 4    1  0.2402120E+005  0.4142208E+02  0.7546771E-02  0.1340348E+00
          2   -1    0    0  502    0  0.00000000000E+00  0.00000000000E+00  0.14653041856E+04  0.14653041856E+04  0.00000000000E+00 0.  1.
         21   -1    0    0  503  502 -0.00000000000E+00 -0.00000000000E+00 -0.40889986682E+01  0.40889986682E+01  0.00000000000E+00 0. -1.
          2    1    1    2  501    0 -0.40918885590E+02 -0.64369176138E+01  0.13512568718E+04  0.13518916091E+04  0.00000000000E+00 0.  1.
         21    1    1    2  503  501  0.40918885590E+02  0.64369176138E+01  0.10995831516E+03  0.11750157522E+03  0.00000000000E+00 0. -1.
</event>
<event>
 4    1  0.2402120E+005  0.2127595E+02  0.7546771E-02  0.1515361E+00
          2   -1    0    0  502    0  0.00000000000E+00  0.00000000000E+00  0.13635048012E+04  0.13635048012E+04  0.00000000000E+00 0.  1.
         21   -1    0    0  503  502 -0.00000000000E+00 -0.00000000000E+00 -0.50981131127E+02  0.50981131127E+02  0.00000000000E+00 0.  1.
          2    1    1    2  501    0 -0.17472054971E+02 -0.12140573092E+02  0.13611982699E+04  0.13613645346E+04  0.00000000000E+00 0.  1.
         21    1    1    2  503  501  0.17472054971E+02  0.12140573092E+02 -0.48674599842E+02  0.53121397663E+02  0.00000000000E+00 0.  1.
</event>
<event>
 4    1  0.2402120E+005  0.2206683E+02  0.7546771E-02  0.1504561E+00
          2   -1    0    0  502    0  0.00000000000E+00  0.00000000000E+00  0.62364772517E+02  0.62364772517E+02  0.00000000000E+00 0. -1.
         21   -1    0    0  503  502 -0.00000000000E+00 -0.00000000000E+00 -0.42442494417E+03  0.42442494417E+03  0.00000000000E+00 0.  1.
          2    1    1    2  501    0 -0.19911246570E+02 -0.95124898840E+01  0.60115549227E+02  0.64037680022E+02  0.00000000000E+00 0. -1.
         21    1    1    2  503  501  0.19911246570E+02  0.95124898840E+01 -0.42217572088E+03  0.42275203666E+03  0.00000000000E+00 0.  1.
</event>
<event>
 4    1  0.2402120E+005  0.2172095E+02  0.7546771E-02  0.1509216E+00
          2   -1    0    0  503    0  0.00000000000E+00  0.00000000000E+00  0.43393262747E+03  0.43393262747E+03  0.00000000000E+00 0. -1.
         21   -1    0    0  501  502 -0.00000000000E+00 -0.00000000000E+00 -0.33980534895E+01  0.33980534895E+01  0.00000000000E+00 0.  1.
          2    1    1    2  501    0  0.21661617527E+02  0.16043615420E+01  0.39558773034E+03  0.39618360901E+03  0.00000000000E+00 0. -1.
         21    1    1    2  503  502 -0.21661617527E+02 -0.16043615420E+01  0.34946843637E+02  0.41147071950E+02  0.00000000000E+00 0.  1.
</event>
<event>
 4    1  0.2402120E+005  0.2193963E+02  0.7546771E-02  0.1506260E+00
          2   -1    0    0  503    0  0.00000000000E+00  0.00000000000E+00  0.22528852002E+03  0.22528852002E+03  0.00000000000E+00 0. -1.
         21   -1    0    0  501  502 -0.00000000000E+00 -0.00000000000E+00 -0.24632012194E+01  0.24632012194E+01  0.00000000000E+00 0. -1.
          2    1    1    2  501    0  0.19846086266E+02 -0.93530973505E+01  0.15287960846E+03  0.15444585541E+03  0.00000000000E+00 0. -1.
         21    1    1    2  503  502 -0.19846086266E+02  0.93530973505E+01  0.69945710346E+02  0.73305865836E+02  0.00000000000E+00 0. -1.
</event>
<event>
 4    1  0.2402120E+005  0.2703656E+02  0.7546771E-02  0.1447241E+00
          2   -1    0    0  503    0  0.00000000000E+00  0.00000000000E+00  0.52574886346E+03  0.52574886346E+03  0.00000000000E+00 0. -1.
         21   -1    0    0  501  502 -0.00000000000E+00 -0.00000000000E+00 -0.10305465413E+02  0.10305465413E+02  0.00000000000E+00 0. -1.
          2    1    1    2  501    0  0.26907656562E+02  0.26369780361E+01  0.50701376637E+03  0.50773411834E+03  0.00000000000E+00 0. -1.
         21    1    1    2  503  502 -0.26907656562E+02 -0.26369780361E+01  0.84296316820E+01  0.28320210542E+02  0.00000000000E+00 0. -1.
</event>
<event>
 4    1  0.2402120E+005  0.2262003E+02  0.7546771E-02  0.1497325E+00
          2   -1    0    0  503    0  0.00000000000E+00  0.00000000000E+00  0.34473080619E+03  0.34473080619E+03  0.00000000000E+00 0. -1.
         21   -1    0    0  501  502 -0.00000000000E+00 -0.00000000000E+00 -0.22087503756E+01  0.22087503756E+01  0.00000000000E+00 0. -1.
          2    1    1    2  501    0 -0.22555867544E+02 -0.17025702395E+01  0.27061162971E+03  0.27155537196E+03  0.00000000000E+00 0. -1.
         21    1    1    2  503  502  0.22555867544E+02  0.17025702395E+01  0.71910426099E+02  0.75384184600E+02  0.00000000000E+00 0. -1.
</event>
<event>
 4    1  0.2402120E+005  0.2246601E+02  0.7546771E-02  0.1499315E+00
          2   -1    0    0  503    0  0.00000000000E+00  0.00000000000E+00  0.49012501694E+03  0.49012501694E+03  0.00000000000E+00 0.  1.
         21   -1    0    0  501  502 -0.00000000000E+00 -0.00000000000E+00 -0.29381159832E+01  0.29381159832E+01  0.00000000000E+00 0. -1.
          2    1    1    2  501    0  0.57973057358E+01  0.21705134913E+02  0.44227856252E+03  0.44284878740E+03  0.00000000000E+00 0.  1.
         21    1    1    2  503  502 -0.57973057358E+01 -0.21705134913E+02  0.44908338440E+02  0.50214345528E+02  0.00000000000E+00 0. -1.
</event>
<event>
 4    1  0.2402120E+005  0.2023115E+02  0.7546771E-02  0.1530531E+00
          2   -1    0    0  503    0  0.00000000000E+00  0.00000000000E+00  0.62591907785E+00  0.62591907785E+00  0.00000000000E+00 0. -1.
         21   -1    0    0  501  502 -0.00000000000E+00 -0.00000000000E+00 -0.80081065509E+03  0.80081065509E+03  0.00000000000E+00 0.  1.
          2    1    1    2  501    0 -0.50354018574E+01 -0.19594498214E+02 -0.22846973395E+03  0.22936372635E+03  0.00000000000E+00 0. -1.
         21    1    1    2  503  502  0.50354018574E+01  0.19594498214E+02 -0.57171500206E+03  0.57207284782E+03  0.00000000000E+00 0.  1.
</event>
<event>
 4    1  0.2402120E+005  0.2645154E+02  0.7546771E-02  0.1453197E+00
          2   -1    0    0  503    0  0.00000000000E+00  0.00000000000E+00  0.34571422118E+03  0.34571422118E+03  0.00000000000E+00 0. -1.
         21   -1    0    0  501  502 -0.00000000000E+00 -0.00000000000E+00 -0.62138739445E+01  0.62138739445E+01  0.00000000000E+00 0.  1.
          2    1    1    2  501    0 -0.26451183802E+02 -0.13767348459E+00  0.31424404406E+03  0.31535536035E+03  0.00000000000E+00 0. -1.
         21    1    1    2  503  502  0.26451183802E+02  0.13767348459E+00  0.25256303185E+02  0.36572734777E+02  0.00000000000E+00 0.  1.
</event>
<event>
 4    1  0.2402120E+005  0.2323749E+02  0.7546771E-02  0.1489537E+00
          2   -1    0    0  503    0  0.00000000000E+00  0.00000000000E+00  0.90925172064E+02  0.90925172064E+02  0.00000000000E+00 0. -1.
         21   -1    0    0  501  502 -0.00000000000E+00 -0.00000000000E+00 -0.17515586434E+02  0.17515586434E+02  0.00000000000E+00 0. -1.
          2    1    1    2  501    0  0.15577474189E+02 -0.17243068363E+02  0.80785171275E+02  0.84060841101E+02  0.00000000000E+00 0. -1.
         21    1    1    2  503  502 -0.15577474189E+02  0.17243068363E+02 -0.73755856454E+01  0.24379917397E+02  0.00000000000E+00 0. -1.
</event>
<event>
 4    1  0.2402120E+005  0.2172475E+02  0.7546771E-02  0.1509164E+00
          2   -1    0    0  503    0  0.00000000000E+00  0.00000000000E+00  0.45454578816E+02  0.45454578816E+02  0.00000000000E+00 0.  1.
         21   -1    0    0  501  502 -0.00000000000E+00 -0.00000000000E+00 -0.17560061490E+03  0.17560061490E+03  0.00000000000E+00 0.  1.
          2    1    1    2  501    0 -0.20389672041E+02  0.74983937198E+01  0.42137057937E+02  0.47407766093E+02  0.00000000000E+00 0.  1.
         21    1    1    2  503  502  0.20389672041E+02 -0.74983937198E+01 -0.17228309402E+03  0.17364742762E+03  0.00000000000E+00 0.  1.
</event>
<event>
 4    1  0.2402120E+005  0.2135471E+02  0.7546771E-02  0.1514260E+00
          2   -1    0    0  502    0  0.00000000000E+00  0.00000000000E+00  0.18012532018E+03  0.18012532018E+03  0.00000000000E+00 0. -1.
         21   -1    0    0  503  502 -0.00000000000E+00 -0.00000000000E+00 -0.72668816982E+02  0.72668816982E+02  0.00000000000E+00 0. -1.
          2    1    1    2  501    0  0.69480278299E+01  0.20192779696E+02  0.17790403509E+03  0.17918110711E+03  0.00000000000E+00 0. -1.
         21    1    1    2  503  501 -0.69480278299E+01 -0.20192779696E+02 -0.70447531898E+02  0.73613030049E+02  0.00000000000E+00 0. -1.
</event>
<event>
 4    1  0.2402120E+005  0.2169123E+02  0.7546771E-02  0.1509620E+00
          2   -1    0    0  503    0  0.00000000000E+00  0.00000000000E+00  0.16122309764E+04  0.16122309764E+04  0.00000000000E+00 0. -1.
         21   -1    0    0  501  502 -0.00000000000E+00 -0.00000000000E+00 -0.11084655408E+02  0.11084655408E+02  0.00000000000E+00 0. -1.
          2    1    1    2  501    0 -0.21376871919E+02  0.36795098018E+01  0.16014750198E+04  0.16016219118E+04  0.00000000000E+00 0. -1.
         21    1    1    2  503  502  0.21376871919E+02 -0.36795098018E+01 -0.32869875557E+00  0.21693720020E+02  0.00000000000E+00 0. -1.
</event>
<event>
 4    1  0.2402120E+005  0.2312523E+02  0.7546771E-02  0.1490932E+00
          2   -1    0    0  503    0  0.00000000000E+00  0.00000000000E+00  0.94955735385E+03  0.94955735385E+03  0.00000000000E+00 0. -1.
         21   -1    0    0  501  502 -0.00000000000E+00 -0.00000000000E+00 -0.69041890834E+00  0.69041890834E+00  0.00000000000E+00 0.  1.
          2    1    1    2  501    0  0.38789187224E+01 -0.22797595091E+02  0.67839682416E+03  0.67879085688E+03  0.00000000000E+00 0. -1.
         21    1    1    2  503  502 -0.38789187224E+01  0.22797595091E+02  0.27047011078E+03  0.27145691588E+03  0.00000000000E+00 0.  1.
</event>
<event>
 4    1  0.2402120E+005  0.2063071E+02  0.7546771E-02  0.1524603E+00
          2   -1    0    0  502    0  0.00000000000E+00  0.00000000000E+00  0.50693920706E+02  0.50693920706E+02  0.00000000000E+00 0. -1.
         21   -1    0    0  503  502 -0.00000000000E+00 -0.00000000000E+00 -0.87698977267E+02  0.87698977267E+02  0.00000000000E+00 0. -1.
          2    1    1    2  501    0 -0.60905112738E+01  0.19711215646E+02  0.47298287729E+02  0.51601883414E+02  0.00000000000E+00 0. -1.
         21    1    1    2  503  501  0.60905112738E+01 -0.19711215646E+02 -0.84303344290E+02  0.86791014560E+02  0.00000000000E+00 0. -1.
</event>
<event>
 4    1  0.2402120E+005  0.2355230E+02  0.7546771E-02  0.1485677E+00
          2   -1    0    0  502    0  0.00000000000E+00  0.00000000000E+00  0.14854297773E+04  0.14854297773E+04  0.00000000000E+00 0.  1.
         21   -1    0    0  503  502 -0.00000000000E+00 -0.00000000000E+00 -0.44315903890E+00  0.44315903890E+00  0.00000000000E+00 0.  1.
          2    1    1    2  501    0 -0.67529152563E+01 -0.22563439253E+02  0.10371829333E+04  0.10374503109E+04  0.00000000000E+00 0.  1.
         21    1    1    2  503  501  0.67529152563E+01  0.22563439253E+02  0.44780368500E+03  0.44842262538E+03  0.00000000000E+00 0.  1.
</event>
<event>
 4    1  0.2402120E+005  0.2302035E+02  0.7546771E-02  0.1492243E+00
          2   -1    0    0  502    0  0.00000000000E+00  0.00000000000E+00  0.14154348853E+03  0.14154348853E+03  0.00000000000E+00 0.  1.
         21   -1    0    0  503  502 -0.00000000000E+00 -0.00000000000E+00 -0.67451822860E+02  0.67451822860E+02  0.00000000000E+00 0.  1.
          2    1    1    2  501    0  0.20518430537E+02  0.10436973732E+02  0.13860196266E+03  0.14050067781E+03  0.00000000000E+00 0.  1.
         21    1    1    2  503  501 -0.20518430537E+02 -0.10436973732E+02 -0.64510296985E+02  0.68494633582E+02  0.00000000000E+00 0.  1.
</event>
<event>
 4    1  0.2402120E+005  0.3342166E+02  0.7546771E-02  0.1392012E+00
          2   -1    0    0  503    0  0.00000000000E+00  0.00000000000E+00  0.12070955125E+01  0.12070955125E+01  0.00000000000E+00 0. -1.
         21   -1    0    0  501  502 -0.00000000000E+00 -0.00000000000E+00 -0.95753497796E+03  0.95753497796E+03  0.00000000000E+00 0. -1.
          2    1    1    2  501    0  0.33098559048E+02  0.46360407317E+01 -0.56602572580E+03  0.56701157815E+03  0.00000000000E+00 0. -1.
         21    1    1    2  503  502 -0.33098559048E+02 -0.46360407317E+01 -0.39030215664E+03  0.39173049532E+03  0.00000000000E+00 0. -1.
</event>
<event>
 4    1  0.2402120E+005  0.2579903E+02  0.7546771E-02  0.1460060E+00
          2   -1    0    0  503    0  0.00000000000E+00  0.00000000000E+00  0.79249903851E+03  0.79249903851E+03  0.00000000000E+00 0.  1.
         21   -1    0    0  501  502 -0.00000000000E+00 -0.00000000000E+00 -0.29827060376E+01  0.29827060376E+01  0.00000000000E+00 0. -1.
          2    1    1    2  501    0  0.23294516541E+02  0.11088525814E+02  0.73188262847E+03  0.73233719812E+03  0.00000000000E+00 0.  1.
         21    1    1    2  503  502 -0.23294516541E+02 -0.11088525814E+02  0.57633704011E+02  0.63144546429E+02  0.00000000000E+00 0. -1.
</event>
<event>
 4    1  0.2402120E+005  0.3137704E+02  0.7546771E-02  0.1407996E+00
          2   -1    0    0  503    0  0.00000000000E+00  0.00000000000E+00  0.84134745961E+03  0.84134745961E+03  0.00000000000E+00 0.  1.
         21   -1    0    0  501  502 -0.00000000000E+00 -0.00000000000E+00 -0.35102271001E+01  0.35102271001E+01  0.00000000000E+00 0. -1.
          2    1    1    2  501    0 -0.31000735097E+02 -0.48449325739E+01  0.76382342641E+03  0.76446762239E+03  0.00000000000E+00 0.  1.
         21    1    1    2  503  502  0.31000735097E+02  0.48449325739E+01  0.74013806099E+02  0.80390064321E+02  0.00000000000E+00 0. -1.
</event>
<event>
 4    1  0.2402120E+005  0.2112739E+02  0.7546771E-02  0.1517454E+00
          2   -1    0    0  502    0  0.00000000000E+00  0.00000000000E+00  0.11990144220E+03  0.11990144220E+03  0.00000000000E+00 0. -1.
         21   -1    0    0  503  502 -0.00000000000E+00 -0.00000000000E+00 -0.47064788679E+02  0.47064788679E+02  0.00000000000E+00 0. -1.
          2    1    1    2  501    0  0.15026991607E+02 -0.14851129806E+02  0.11653171785E+03  0.11843144768E+03  0.00000000000E+00 0. -1.
         21    1    1    2  503  501 -0.15026991607E+02  0.14851129806E+02 -0.43695064333E+02  0.48534783201E+02  0.00000000000E+00 0. -1.
</event>
<event>
 4    1  0.2402120E+005  0.2399437E+02  0.7546771E-02  0.1480375E+00
          2   -1    0    0  502    0  0.00000000000E+00  0.00000000000E+00  0.17300509506E+03  0.17300509506E+03  0.00000000000E+00 0.  1.
         21   -1    0    0  503  502 -0.00000000000E+00 -0.00000000000E+00 -0.75730255078E+02  0.75730255078E+02  0.00000000000E+00 0. -1.
          2    1    1    2  501    0  0.18436189612E+02 -0.15356979549E+02  0.17024184840E+03  0.17192445101E+03  0.00000000000E+00 0.  1.
         21    1    1    2  503  501 -0.18436189612E+02  0.15356979549E+02 -0.72967008415E+02  0.76810899132E+02  0.00000000000E+00 0. -1.
</event>
<event>
 4    1  0.2402120E+005  0.2346409E+02  0.7546771E-02  0.1486751E+00
          2   -1    0    0  503    0  0.00000000000E+00  0.00000000000E+00  0.16713783602E+04  0.16713783602E+04  0.00000000000E+00 0.  1.
         21   -1    0    0  501  502 -0.00000000000E+00 -0.00000000000E+00 -0.15112671455E+02  0.15112671455E+02  0.00000000000E+00 0.  1.
          2    1    1    2  501    0 -0.16253672019E+02 -0.16922815399E+02  0.16621377297E+04  0.16623033406E+04  0.00000000000E+00 0.  1.
         21    1    1    2  503  502  0.16253672019E+02  0.16922815399E+02 -0.58720409646E+01  0.24187691089E+02  0.00000000000E+00 0.  1.
</event>
<event>
 4    1  0.2402120E+005  0.2148112E+02  0.7546771E-02  0.1512505E+00
          2   -1    0    0  503    0  0.00000000000E+00  0.00000000000E+00  0.22436394449E+03  0.22436394449E+03  0.00000000000E+00 0.  1.
         21   -1    0    0  501  502 -0.00000000000E+00 -0.00000000000E+00 -0.12914968547E+03  0.12914968547E+03  0.00000000000E+00 0.  1.
          2    1    1    2  501    0 -0.12850026536E+02 -0.17213806473E+02  0.22295090985E+03  0.22398336214E+03  0.00000000000E+00 0.  1.
         21    1    1    2  503  502  0.12850026536E+02  0.17213806473E+02 -0.12773665083E+03  0.12953026781E+03  0.00000000000E+00 0.  1.
</event>
<event>
 4    1  0.2402120E+005  0.2317397E+02  0.7546771E-02  0.1490325E+00
          2   -1    0    0  503    0  0.00000000000E+00  0.00000000000E+00  0.11352217214E+02  0.11352217214E+02  0.00000000000E+00 0.  1.
         21   -1    0    0  501  502 -0.00000000000E+00 -0.00000000000E+00 -0.11992196616E+04  0.11992196616E+04  0.00000000000E+00 0.  1.
          2    1    1    2  501    0 -0.11481507144E+02  0.20129773483E+02 -0.70646131921E+00  0.23184733649E+02  0.00000000000E+00 0.  1.
         21    1    1    2  503  502  0.11481507144E+02 -0.20129773483E+02 -0.11871609830E+04  0.11873871451E+04  0.00000000000E+00 0.  1.
</event>
<event>
 4    1  0.2402120E+005  0.2718943E+02  0.7546771E-02  0.1445714E+00
          2   -1    0    0  503    0  0.00000000000E+00  0.00000000000E+00  0.24276475149E+03  0.24276475149E+03  0.00000000000E+00 0.  1.
         21   -1    0    0  501  502 -0.00000000000E+00 -0.00000000000E+00 -0.72090400775E+01  0.72090400775E+01  0.00000000000E+00 0. -1.
          2    1    1    2  501    0  0.59084856607E+01  0.26539689942E+02  0.21276682725E+03  0.21449705854E+03  0.00000000000E+00 0.  1.
         21    1    1    2  503  502 -0.59084856607E+01 -0.26539689942E+02  0.22788884171E+02  0.35476733034E+02  0.00000000000E+00 0. -1.
</event>
<event>
 4    1  0.2402120E+005  0.2516042E+02  0.7546771E-02  0.1467017E+00
          2   -1    0    0  503    0  0.00000000000E+00  0.00000000000E+00  0.11887103662E+02  0.11887103662E+02  0.00000000000E+00 0. -1.
         21   -1    0    0  501  502 -0.00000000000E+00 -0.00000000000E+00 -0.21271769584E+03  0.21271769584E+03  0.00000000000E+00 0. -1.
          2    1    1    2  501    0 -0.16692544703E+02  0.18825667077E+02 -0.31815803329E+01  0.25360781592E+02  0.00000000000E+00 0. -1.
         21    1    1    2  503  502  0.16692544703E+02 -0.18825667077E+02 -0.19764901184E+03  0.19924401791E+03  0.00000000000E+00 0. -1.
</event>
<event>
 4    1  0.2402120E+005  0.2591699E+02  0.7546771E-02  0.1458801E+00
          2   -1    0    0  503    0  0.00000000000E+00  0.00000000000E+00  0.59868603051E+03  0.59868603051E+03  0.00000000000E+00 0. -1.
         21   -1    0    0  501  502 -0.00000000000E+00 -0.00000000000E+00 -0.33685500059E+02  0.33685500059E+02  0.00000000000E+00 0. -1.
          2    1    1    2  501    0  0.13617790045E+02 -0.22050989239E+02  0.59337594515E+03  0.59394166600E+03  0.00000000000E+00 0. -1.
         21    1    1    2  503  502 -0.13617790045E+02  0.22050989239E+02 -0.28375414692E+02  0.38429864573E+02  0.00000000000E+00 0. -1.
</event>
<event>
 4    1  0.2402120E+005  0.2522024E+02  0.7546771E-02  0.1466355E+00
          2   -1    0    0  503    0  0.00000000000E+00  0.00000000000E+00  0.74650075754E+03  0.74650075754E+03  0.00000000000E+00 0. -1.
         21   -1    0    0  501  502 -0.00000000000E+00 -0.00000000000E+00 -0.88160683898E+01  0.88160683898E+01  0.00000000000E+00 0.  1.
          2    1    1    2  501    0  0.10776868871E+02 -0.22801749229E+02  0.72778712623E+03  0.72822397775E+03  0.00000000000E+00 0. -1.
         21    1    1    2  503  502 -0.10776868871E+02  0.22801749229E+02  0.98975629231E+01  0.27092848178E+02  0.00000000000E+00 0.  1.
</event>
<event>
 4    1  0.2402120E+005  0.2554465E+02  0.7546771E-02  0.1462802E+00
          2   -1    0    0  502    0  0.00000000000E+00  0.00000000000E+00  0.18673009616E+03  0.18673009616E+03  0.00000000000E+00 0.  1.
         21   -1    0    0  503  502 -0.00000000000E+00 -0.00000000000E+00 -0.97052459584E+01  0.97052459584E+01  0.00000000000E+00 0.  1.
          2    1    1    2  501    0  0.24630867766E+02 -0.67712410126E+01  0.16708265946E+03  0.16902409427E+03  0.00000000000E+00 0.  1.
         21    1    1    2  503  501 -0.24630867766E+02  0.67712410126E+01  0.99421907395E+01  0.27411247846E+02  0.00000000000E+00 0.  1.
</event>
<event>
 4    1  0.2402120E+005  0.2487064E+02  0.7546771E-02  0.1470256E+00
          2   -1    0    0  502    0  0.00000000000E+00  0.00000000000E+00  0.15196839778E+04  0.15196839778E+04  0.00000000000E+00 0.  1.
         21   -1    0    0  503  502 -0.00000000000E+00 -0.00000000000E+00 -0.17322765264E+01  0.17322765264E+01  0.00000000000E+00 0.  1.
          2    1    1    2  501    0  0.24835395401E+02  0.13235167286E+01  0.14243389167E+04  0.14245560355E+04  0.00000000000E+00 0.  1.
         21    1    1    2  503  501 -0.24835395401E+02 -0.13235167286E+01  0.93612784498E+02  0.96860218783E+02  0.00000000000E+00 0.  1.
</event>
<event>
 4    1  0.2402120E+005  0.2000329E+02  0.7546771E-02  0.1533985E+00
          2   -1    0    0  502    0  0.00000000000E+00  0.00000000000E+00  0.27266218609E+03  0.27266218609E+03  0.00000000000E+00 0. -1.
         21   -1    0    0  503  502 -0.00000000000E+00 -0.00000000000E+00 -0.22147203224E+01  0.22147203224E+01  0.00000000000E+00 0. -1.
          2    1    1    2  501    0  0.80517007001E+00  0.19987074715E+02  0.21505508305E+03  0.21598337945E+03  0.00000000000E+00 0. -1.
         21    1    1    2  503  501 -0.80517007001E+00 -0.19987074715E+02  0.55392382716E+02  0.58893526958E+02  0.00000000000E+00 0. -1.
</event>
<event>
 4    1  0.2402120E+005  0.2026656E+02  0.7546771E-02  0.1529999E+00
          2   -1    0    0  503    0  0.00000000000E+00  0.00000000000E+00  0.14130024176E+04  0.14130024176E+04  0.00000000000E+00 0. -1.
         21   -1    0    0  501  502 -0.00000000000E+00 -0.00000000000E+00 -0.63102254718E+00  0.63102254718E+00  0.00000000000E+00 0.  1.
          2    1    1    2  501    0 -0.19729793915E+02  0.46334434604E+01  0.12252744090E+04  0.12254420064E+04  0.00000000000E+00 0. -1.
         21    1    1    2  503  502  0.19729793915E+02 -0.46334434604E+01  0.18709698605E+03  0.18819143380E+03  0.00000000000E+00 0.  1.
</event>
<event>
 4    1  0.2402120E+005  0.2069305E+02  0.7546771E-02  0.1523693E+00
          2   -1    0    0  502    0  0.00000000000E+00  0.00000000000E+00  0.56025571235E+03  0.56025571235E+03  0.00000000000E+00 0.  1.
         21   -1    0    0  503  502 -0.00000000000E+00 -0.00000000000E+00 -0.13675311375E+01  0.13675311375E+01  0.00000000000E+00 0. -1.
          2    1    1    2  501    0 -0.19387161971E+02  0.72346550451E+01  0.46594849198E+03  0.46640776094E+03  0.00000000000E+00 0.  1.
         21    1    1    2  503  501  0.19387161971E+02 -0.72346550451E+01  0.92939689233E+02  0.95215482552E+02  0.00000000000E+00 0. -1.
</event>
<event>
 4    1  0.2402120E+005  0.2832992E+02  0.7546771E-02  0.1434688E+00
          2   -1    0    0  503    0  0.00000000000E+00  0.00000000000E+00  0.11177069481E+04  0.11177069481E+04  0.00000000000E+00 0. -1.
         21   -1    0    0  501  502 -0.00000000000E+00 -0.00000000000E+00 -0.64149523222E+03  0.64149523222E+03  0.00000000000E+00 0.  1.
          2    1    1    2  501    0 -0.23506197270E+02 -0.15812743333E+02  0.11172145158E+04  0.11175736479E+04  0.00000000000E+00 0. -1.
         21    1    1    2  503  502  0.23506197270E+02  0.15812743333E+02 -0.64100279991E+03  0.64162853245E+03  0.00000000000E+00 0.  1.
</event>
<event>
 4    1  0.2402120E+005  0.2130905E+02  0.7546771E-02  0.1514898E+00
          2   -1    0    0  503    0  0.00000000000E+00  0.00000000000E+00  0.10725669834E+03  0.10725669834E+03  0.00000000000E+00 0. -1.
         21   -1    0    0  501  502 -0.00000000000E+00 -0.00000000000E+00 -0.58694028893E+02  0.58694028893E+02  0.00000000000E+00 0.  1.
          2    1    1    2  501    0 -0.16227957131E+02 -0.13810461228E+02  0.10420823578E+03  0.10636461741E+03  0.00000000000E+00 0. -1.
         21    1    1    2  503  502  0.16227957131E+02  0.13810461228E+02 -0.55645566331E+02  0.59586109827E+02  0.00000000000E+00 0.  1.
</event>
<event>
 4    1  0.2402120E+005  0.2634554E+02  0.7546771E-02  0.1454295E+00
          2   -1    0    0  502    0  0.00000000000E+00  0.00000000000E+00  0.36410534343E+03  0.36410534343E+03  0.00000000000E+00 0.  1.
         21   -1    0    0  503  502 -0.00000000000E+00 -0.00000000000E+00 -0.94643714329E+02  0.94643714329E+02  0.00000000000E+00 0. -1.
          2    1    1    2  501    0  0.17764568700E+02 -0.19455270387E+02  0.36178360060E+03  0.36274158999E+03  0.00000000000E+00 0.  1.
         21    1    1    2  503  501 -0.17764568700E+02  0.19455270387E+02 -0.92321971495E+02  0.96007467771E+02  0.00000000000E+00 0. -1.
</event>
<event>
 4    1  0.2402120E+005  0.3142711E+02  0.7546771E-02  0.1407587E+00
          2   -1    0    0  503    0  0.00000000000E+00  0.00000000000E+00  0.41795342169E+03  0.41795342169E+03  0.00000000000E+00 0.  1.
         21   -1    0    0  501  502 -0.00000000000E+00 -0.00000000000E+00 -0.28634933349E+01  0.28634933349E+01  0.00000000000E+00 0.  1.
          2    1    1    2  501    0  0.26471064105E+02  0.16939480958E+02  0.29550257786E+03  0.29716903737E+03  0.00000000000E+00 0.  1.
         21    1    1    2  503  502 -0.26471064105E+02 -0.16939480958E+02  0.11958735050E+03  0.12364787766E+03  0.00000000000E+00 0.  1.
</event>
<event>
 4    1  0.2402120E+005  0.2404282E+02  0.7546771E-02  0.1479803E+00
          2   -1    0    0  502    0  0.00000000000E+00  0.00000000000E+00  0.63919788237E+02  0.63919788237E+02  0.00000000000E+00 0. -1.
         21   -1    0    0  503  502 -0.00000000000E+00 -0.00000000000E+00 -0.26665805814E+02  0.26665805814E+02  0.00000000000E+00 0. -1.
          2    1    1    2  501    0  0.19702633217E+02 -0.13779098144E+02  0.55446958904E+02  0.60435275734E+02  0.00000000000E+00 0. -1.
         21    1    1    2  503  501 -0.19702633217E+02  0.13779098144E+02 -0.18192976481E+02  0.30150318317E+02  0.00000000000E+00 0. -1.
</event>
<event>
 4    1  0.2402120E+005  0.2369706E+02  0.7546771E-02  0.1483926E+00
          2   -1    0    0  502    0  0.00000000000E+00  0.00000000000E+00  0.11342354407E+04  0.11342354407E+04  0.00000000000E+00 0.  1.
         21   -1    0    0  503  502 -0.00000000000E+00 -0.00000000000E+00 -0.19025433071E+02  0.19025433071E+02  0.00000000000E+00 0.  1.
          2    1    1    2  501    0  0.15589926024E+02  0.17846702772E+02  0.11266832658E+04  0.11269324434E+04  0.00000000000E+00 0.  1.
         21    1    1    2  503  501 -0.15589926024E+02 -0.17846702772E+02 -0.11473258152E+02  0.26328430373E+02  0.00000000000E+00 0.  1.
</event>
<event>
 4    1  0.2402120E+005  0.2419107E+02  0.7546771E-02  0.1478060E+00
          2   -1    0    0  503    0  0.00000000000E+00  0.00000000000E+00  0.14135746393E+04  0.14135746393E+04  0.00000000000E+00 0.  1.
         21   -1    0    0  501  502 -0.00000000000E+00 -0.00000000000E+00 -0.83557370760E+00  0.83557370760E+00  0.00000000000E+00 0. -1.
          2    1    1    2  501    0 -0.17615918547E+02  0.16579728398E+02  0.12087053063E+04  0.12089473626E+04  0.00000000000E+00 0.  1.
         21    1    1    2  503  502  0.17615918547E+02 -0.16579728398E+02  0.20403375922E+03  0.20546285037E+03  0.00000000000E+00 0. -1.
</event>
<event>
 4    1  0.2402120E+005  0.2105673E+02  0.7546771E-02  0.1518456E+00
          2   -1    0    0  503    0  0.00000000000E+00  0.00000000000E+00  0.11194804126E+03  0.11194804126E+03  0.00000000000E+00 0. -1.
         21   -1    0    0  501  502 -0.00000000000E+00 -0.00000000000E+00 -0.40796820090E+01  0.40796820090E+01  0.00000000000E+00 0.  1.
          2    1    1    2  501    0  0.20910069652E+02 -0.24809311405E+01  0.63844014713E+02  0.67226811964E+02  0.00000000000E+00 0. -1.
         21    1    1    2  503  502 -0.20910069652E+02  0.24809311405E+01  0.44024344533E+02  0.48800911300E+02  0.00000000000E+00 0.  1.
</event>
<event>
 4    1  0.2402120E+005  0.2837831E+02  0.7546771E-02  0.1434233E+00
          2   -1    0    0  502    0  0.00000000000E+00  0.00000000000E+00  0.67040714960E+01  0.67040714960E+01  0.00000000000E+00 0. -1.
         21   -1    0    0  503  502 -0.00000000000E+00 -0.00000000000E+00 -0.27001616488E+03  0.27001616488E+03  0.00000000000E+00 0.  1.
          2    1    1    2  501    0 -0.14678057723E+02  0.24287505326E+02 -0.28569096578E+02  0.40268121048E+02  0.00000000000E+00 0. -1.
         21    1    1    2  503  501  0.14678057723E+02 -0.24287505326E+02 -0.23474299681E+03  0.23645211533E+03  0.00000000000E+00 0.  1.
</event>
<event>
 4    1  0.2402120E+005  0.2523729E+02  0.7546771E-02  0.1466166E+00
          2   -1    0    0  502    0  0.00000000000E+00  0.00000000000E+00  0.48817295378E+03  0.48817295378E+03  0.00000000000E+00 0.  1.
         21   -1    0    0  503  502 -0.00000000000E+00 -0.00000000000E+00 -0.37830810521E+01  0.37830810521E+01  0.00000000000E+00 0. -1.
          2    1    1    2  501    0  0.25219722816E+02 -0.94151875884E+00  0.44128850098E+03  0.44200957226E+03  0.00000000000E+00 0.  1.
         21    1    1    2  503  501 -0.25219722816E+02  0.94151875884E+00  0.43101371752E+02  0.49946462572E+02  0.00000000000E+00 0. -1.
</event>
<event>
 4    1  0.2402120E+005  0.2143938E+02  0.7546771E-02  0.1513083E+00
          2   -1    0    0  502    0  0.00000000000E+00  0.00000000000E+00  0.11891716699E+04  0.11891716699E+04  0.00000000000E+00 0. -1.
         21   -1    0    0  503  502 -0.00000000000E+00 -0.00000000000E+00 -0.21701217429E+02  0.21701217429E+02  0.00000000000E+00 0. -1.
          2    1    1    2  501    0 -0.19776755086E+02  0.82780967511E+01  0.11837556387E+04  0.11839497706E+04  0.00000000000E+00 0. -1.
         21    1    1    2  503  501  0.19776755086E+02 -0.82780967511E+01 -0.16285186246E+02  0.26923116807E+02  0.00000000000E+00 0. -1.
</event>
<event>
 4    1  0.2402120E+005  0.2010409E+02  0.7546771E-02  0.1532450E+00
          2   -1    0    0  503    0  0.00000000000E+00  0.00000000000E+00  0.10085807724E+01  0.10085807724E+01  0.00000000000E+00 0. -1.
         21   -1    0    0  501  502 -0.00000000000E+00 -0.00000000000E+00 -0.40189827117E+03  0.40189827117E+03  0.00000000000E+00 0. -1.
          2    1    1    2  501    0 -0.13741966434E+02 -0.14674219020E+02 -0.18961001732E+03  0.19067284289E+03  0.00000000000E+00 0. -1.
         21    1    1    2  503  502  0.13741966434E+02  0.14674219020E+02 -0.21127967308E+03  0.21223400906E+03  0.00000000000E+00 0. -1.
</event>
<event>
 4    1  0.2402120E+005  0.2111868E+02  0.7546771E-02  0.1517577E+00
          2   -1    0    0  502    0  0.00000000000E+00  0.00000000000E+00  0.56125118623E+03  0.56125118623E+03  0.00000000000E+00 0.  1.
         21   -1    0    0  503  502 -0.00000000000E+00 -0.00000000000E+00 -0.38463324037E+01  0.38463324037E+01  0.00000000000E+00 0. -1.
          2    1    1    2  501    0 -0.63223182340E+00 -0.21109210935E+02  0.53037716950E+03  0.53079745707E+03  0.00000000000E+00 0.  1.
         21    1    1    2  503  501  0.63223182340E+00  0.21109210935E+02  0.27027684328E+02  0.34300061567E+02  0.00000000000E+00 0. -1.
</event>
<event>
 4    1  0.2402120E+005  0.3572830E+02  0.7546771E-02  0.1375514E+00
          2   -1    0    0  503    0  0.00000000000E+00  0.00000000000E+00  0.52794413804E+03  0.52794413804E+03  0.00000000000E+00 0.  1.
         21   -1    0    0  501  502 -0.00000000000E+00 -0.00000000000E+00 -0.26754759346E+01  0.26754759346E+01  0.00000000000E+00 0.  1.
          2    1    1    2  501    0  0.29116245522E+02  0.20706407970E+02  0.34495586998E+03  0.34680118702E+03  0.00000000000E+00 0.  1.
         21    1    1    2  503  502 -0.29116245522E+02 -0.20706407970E+02  0.18031279213E+03  0.18381842696E+03  0.00000000000E+00 0.  1.
</event>
<event>
 4    1  0.2402120E+005  0.2069589E+02  0.7546771E-02  0.1523651E+00
          2   -1    0    0  502    0  0.00000000000E+00  0.00000000000E+00  0.81544336328E+03  0.81544336328E+03  0.00000000000E+00 0. -1.
         21   -1    0    0  503  502 -0.00000000000E+00 -0.00000000000E+00 -0.10467405681E+01  0.10467405681E+01  0.00000000000E+00 0. -1.
          2    1    1    2  501    0 -0.90737559975E+01 -0.18600723729E+02  0.69534946947E+03  0.69565739029E+03  0.00000000000E+00 0. -1.
         21    1    1    2  503  501  0.90737559975E+01  0.18600723729E+02  0.11904715325E+03  0.12083271356E+03  0.00000000000E+00 0. -1.
</event>
<event>
 4    1  0.2402120E+005  0.4104917E+02  0.7546771E-02  0.1342445E+00
          2   -1    0    0  503    0  0.00000000000E+00  0.00000000000E+00  0.33137809869E+03  0.33137809869E+03  0.00000000000E+00 0. -1.
         21   -1    0    0  501  502 -0.00000000000E+00 -0.00000000000E+00 -0.65985515837E+01  0.65985515837E+01  0.00000000000E+00 0.  1.
          2    1    1    2  501    0  0.34650967520E+02  0.22007837568E+02  0.24332564310E+03  0.24676386091E+03  0.00000000000E+00 0. -1.
         21    1    1    2  503  502 -0.34650967520E+02 -0.22007837568E+02  0.81453904011E+02  0.91212789361E+02  0.00000000000E+00 0.  1.
</event>
<event>
 4    1  0.2402120E+005  0.9118948E+02  0.7546771E-02  0.1180018E+00
          2   -1    0    0  502    0  0.00000000000E+00  0.00000000000E+00  0.10599476865E+03  0.10599476865E+03  0.00000000000E+00 0.  1.
         21   -1    0    0  503  502 -0.00000000000E+00 -0.00000000000E+00 -0.19853373336E+03  0.19853373336E+03  0.00000000000E+00 0.  1.
          2    1    1    2  501    0  0.61313097320E+02 -0.67499812258E+02  0.72148851519E+02  0.11627973741E+03  0.00000000000E+00 0.  1.
         21    1    1    2  503  501 -0.61313097320E+02  0.67499812258E+02 -0.16468781622E+03  0.18824876459E+03  0.00000000000E+00 0.  1.
</event>
<event>
 4    1  0.2402120E+005  0.3236528E+02  0.7546771E-02  0.1400097E+00
          2   -1    0    0  502    0  0.00000000000E+00  0.00000000000E+00  0.10224917506E+04  0.10224917506E+04  0.00000000000E+00 0.  1.
         21   -1    0    0  503  502 -0.00000000000E+00 -0.00000000000E+00 -0.80408165750E+01  0.80408165750E+01  0.00000000000E+00 0.  1.
          2    1    1    2  501    0 -0.12449041713E+02  0.29875285062E+02  0.98854910358E+03  0.98907878426E+03  0.00000000000E+00 0.  1.
         21    1    1    2  503  501  0.12449041713E+02 -0.29875285062E+02  0.25901830447E+02  0.41453782911E+02  0.00000000000E+00 0.  1.
</event>
<event>
 4    1  0.2402120E+005  0.2131018E+02  0.7546771E-02  0.1514882E+00
          2   -1    0    0  503    0  0.00000000000E+00  0.00000000000E+00  0.14383723407E+02  0.14383723407E+02  0.00000000000E+00 0. -1.
         21   -1    0    0  501  502 -0.00000000000E+00 -0.00000000000E+00 -0.70626010083E+02  0.70626010083E+02  0.00000000000E+00 0. -1.
          2    1    1    2  501    0  0.11213274933E+02 -0.18121432834E+02  0.34862567495E+01  0.21593467735E+02  0.00000000000E+00 0. -1.
         21    1    1    2  503  502 -0.11213274933E+02  0.18121432834E+02 -0.59728543425E+02  0.63416265755E+02  0.00000000000E+00 0. -1.
</event>
<event>
 4    1  0.2402120E+005  0.2948613E+02  0.7546771E-02  0.1424115E+00
          2   -1    0    0  503    0  0.00000000000E+00  0.00000000000E+00  0.11241975254E+03  0.11241975254E+03  0.00000000000E+00 0. -1.
         21   -1    0    0  501  502 -0.00000000000E+00 -0.00000000000E+00 -0.32766218404E+03  0.32766218404E+03  0.00000000000E+00 0. -1.
          2    1    1    2  501    0  0.39237038895E+01 -0.29223896796E+02  0.10980743680E+03  0.11369742641E+03  0.00000000000E+00 0. -1.
         21    1    1    2  503  502 -0.39237038895E+01  0.29223896796E+02 -0.32504986830E+03  0.32638451017E+03  0.00000000000E+00 0. -1.
</event>
<event>
 4    1  0.2402120E+005  0.2102371E+02  0.7546771E-02  0.1518926E+00
          2   -1    0    0  503    0  0.00000000000E+00  0.00000000000E+00  0.55782156618E+03  0.55782156618E+03  0.00000000000E+00 0.  1.
         21   -1    0    0  501  502 -0.00000000000E+00 -0.00000000000E+00 -0.79236192979E+00  0.79236192979E+00  0.00000000000E+00 0.  1.
          2    1    1    2  501    0 -0.67781872155E+01  0.19901071908E+02  0.27863897178E+03  0.27943098089E+03  0.00000000000E+00 0.  1.
         21    1    1    2  503  502  0.67781872155E+01 -0.19901071908E+02  0.27839023247E+03  0.27918294722E+03  0.00000000000E+00 0.  1.
</event>
<event>
 4    1  0.2402120E+005  0.2907051E+02  0.7546771E-02  0.1427849E+00
          2   -1    0    0  502    0  0.00000000000E+00  0.00000000000E+00  0.27445886831E+02  0.27445886831E+02  0.00000000000E+00 0. -1.
         21   -1    0    0  503  502 -0.00000000000E+00 -0.00000000000E+00 -0.64047249135E+02  0.64047249135E+02  0.00000000000E+00 0. -1.
          2    1    1    2  501    0  0.14537010677E+02  0.25174781817E+02  0.14663553901E+02  0.32559393913E+02  0.00000000000E+00 0. -1.
         21    1    1    2  503  501 -0.14537010677E+02 -0.25174781817E+02 -0.51264916204E+02  0.58933742053E+02  0.00000000000E+00 0. -1.
</event>
<event>
 4    1  0.2402120E+005  0.2233256E+02  0.7546771E-02  0.1501054E+00
          2   -1    0    0  502    0  0.00000000000E+00  0.00000000000E+00  0.39328705027E+03  0.39328705027E+03  0.00000000000E+00 0.  1.
         21   -1    0    0  503  502 -0.00000000000E+00 -0.00000000000E+00 -0.46062750322E+01  0.46062750322E+01  0.00000000000E+00 0.  1.
          2    1    1    2  501    0  0.16226186800E+02  0.15344511787E+02  0.36370148250E+03  0.36438648651E+03  0.00000000000E+00 0.  1.
         21    1    1    2  503  501 -0.16226186800E+02 -0.15344511787E+02  0.24979292739E+02  0.33506838791E+02  0.00000000000E+00 0.  1.
</event>
<event>
 4    1  0.2402120E+005  0.3636096E+02  0.7546771E-02  0.1371240E+00
          2   -1    0    0  503    0  0.00000000000E+00  0.00000000000E+00  0.76997064610E+03  0.76997064610E+03  0.00000000000E+00 0. -1.
         21   -1    0    0  501  502 -0.00000000000E+00 -0.00000000000E+00 -0.39676351668E+02  0.39676351668E+02  0.00000000000E+00 0.  1.
          2    1    1    2  501    0 -0.33315349736E+02  0.14567312534E+02  0.76111383519E+03  0.76198188249E+03  0.00000000000E+00 0. -1.
         21    1    1    2  503  502  0.33315349736E+02 -0.14567312534E+02 -0.30819540755E+02  0.47665115282E+02  0.00000000000E+00 0.  1.
</event>
<event>
 4    1  0.2402120E+005  0.3516271E+02  0.7546771E-02  0.1379423E+00
          2   -1    0    0  503    0  0.00000000000E+00  0.00000000000E+00  0.17028360668E+03  0.17028360668E+03  0.00000000000E+00 0.  1.
         21   -1    0    0  501  502 -0.00000000000E+00 -0.00000000000E+00 -0.89723295104E+02  0.89723295104E+02  0.00000000000E+00 0. -1.
          2    1    1    2  501    0 -0.13410100641E+02 -0.32505155083E+02  0.16491233503E+03  0.16861937656E+03  0.00000000000E+00 0.  1.
         21    1    1    2  503  502  0.13410100641E+02  0.32505155083E+02 -0.84352023454E+02  0.91387525226E+02  0.00000000000E+00 0. -1.
</event>
<event>
 4    1  0.2402120E+005  0.2274705E+02  0.7546771E-02  0.1495699E+00
          2   -1    0    0  502    0  0.00000000000E+00  0.00000000000E+00  0.47221239057E+03  0.47221239057E+03  0.00000000000E+00 0.  1.
         21   -1    0    0  503  502 -0.00000000000E+00 -0.00000000000E+00 -0.52463899397E+02  0.52463899397E+02  0.00000000000E+00 0.  1.
          2    1    1    2  501    0  0.11988721086E+02 -0.19331287882E+02  0.46945835747E+03  0.47000912494E+03  0.00000000000E+00 0.  1.
         21    1    1    2  503  501 -0.11988721086E+02  0.19331287882E+02 -0.49709866301E+02  0.54667165027E+02  0.00000000000E+00 0.  1.
</event>
<event>
 4    1  0.2402120E+005  0.2132218E+02  0.7546771E-02  0.1514714E+00
          2   -1    0    0  502    0  0.00000000000E+00  0.00000000000E+00  0.14633540143E+03  0.14633540143E+03  0.00000000000E+00 0.  1.
         21   -1    0    0  503  502 -0.00000000000E+00 -0.00000000000E+00 -0.35440888018E+02  0.35440888018E+02  0.00000000000E+00 0.  1.
          2    1    1    2  501    0 -0.13920375589E+02  0.16151109265E+02  0.14226035023E+03  0.14384937412E+03  0.00000000000E+00 0.  1.
         21    1    1    2  503  501  0.13920375589E+02 -0.16151109265E+02 -0.31365836819E+02  0.37926915329E+02  0.00000000000E+00 0.  1.
</event>
<event>
 4    1  0.2402120E+005  0.2639566E+02  0.7546771E-02  0.1453775E+00
          2   -1    0    0  502    0  0.00000000000E+00  0.00000000000E+00  0.16971580759E+04  0.16971580759E+04  0.00000000000E+00 0. -1.
         21   -1    0    0  503  502 -0.00000000000E+00 -0.00000000000E+00 -0.25611475579E+02  0.25611475579E+02  0.00000000000E+00 0. -1.
          2    1    1    2  501    0 -0.20195865889E+02  0.16995821566E+02  0.16902265908E+04  0.16904326840E+04  0.00000000000E+00 0. -1.
         21    1    1    2  503  501  0.20195865889E+02 -0.16995821566E+02 -0.18679990510E+02  0.32336867430E+02  0.00000000000E+00 0. -1.
</event>
<event>
 4    1  0.2402120E+005  0.2410272E+02  0.7546771E-02  0.1479097E+00
          2   -1    0    0  503    0  0.00000000000E+00  0.00000000000E+00  0.48939830502E+02  0.48939830502E+02  0.00000000000E+00 0. -1.
         21   -1    0    0  501  502 -0.00000000000E+00 -0.00000000000E+00 -0.12516061438E+02  0.12516061438E+02  0.00000000000E+00 0. -1.
          2    1    1    2  501    0 -0.15972943098E+02 -0.18050105514E+02  0.11233388061E+02  0.26591920344E+02  0.00000000000E+00 0. -1.
         21    1    1    2  503  502  0.15972943098E+02  0.18050105514E+02  0.25190381004E+02  0.34863971595E+02  0.00000000000E+00 0. -1.
</event>
<event>
 4    1  0.2402120E+005  0.3424514E+02  0.7546771E-02  0.1385949E+00
          2   -1    0    0  502    0  0.00000000000E+00  0.00000000000E+00  0.12098981372E+04  0.12098981372E+04  0.00000000000E+00 0. -1.
         21   -1    0    0  503  502 -0.00000000000E+00 -0.00000000000E+00 -0.14334527728E+02  0.14334527728E+02  0.00000000000E+00 0.  1.
          2    1    1    2  501    0 -0.17256042037E+02 -0.29579705040E+02  0.11888407319E+04  0.11893338538E+04  0.00000000000E+00 0. -1.
         21    1    1    2  503  501  0.17256042037E+02  0.29579705040E+02  0.67228775846E+01  0.34898811155E+02  0.00000000000E+00 0.  1.
</event>
<event>
 4    1  0.2402120E+005  0.3669424E+02  0.7546771E-02  0.1369028E+00
          2   -1    0    0  502    0  0.00000000000E+00  0.00000000000E+00  0.25210785752E+03  0.25210785752E+03  0.00000000000E+00 0. -1.
         21   -1    0    0  503  502 -0.00000000000E+00 -0.00000000000E+00 -0.62106624938E+01  0.62106624938E+01  0.00000000000E+00 0. -1.
          2    1    1    2  501    0  0.18614806852E+02 -0.31622083815E+02  0.17128478658E+03  0.17517118865E+03  0.00000000000E+00 0. -1.
         21    1    1    2  503  501 -0.18614806852E+02  0.31622083815E+02  0.74612408442E+02  0.83147331360E+02  0.00000000000E+00 0. -1.
</event>
<event>
 4    1  0.2402120E+005  0.3571892E+02  0.7546771E-02  0.1375578E+00
          2   -1    0    0  503    0  0.00000000000E+00  0.00000000000E+00  0.11309011349E+04  0.11309011349E+04  0.00000000000E+00 0. -1.
         21   -1    0    0  501  502 -0.00000000000E+00 -0.00000000000E+00 -0.25392613296E+02  0.25392613296E+02  0.00000000000E+00 0. -1.
          2    1    1    2  501    0 -0.21713042407E+02  0.28361687334E+02  0.11179120341E+04  0.11184825245E+04  0.00000000000E+00 0. -1.
         21    1    1    2  503  502  0.21713042407E+02 -0.28361687334E+02 -0.12403512493E+02  0.37811223746E+02  0.00000000000E+00 0. -1.
</event>
<event>
 4    1  0.2402120E+005  0.2157108E+02  0.7546771E-02  0.1511265E+00
          2   -1    0    0  503    0  0.00000000000E+00  0.00000000000E+00  0.57151443693E+03  0.57151443693E+03  0.00000000000E+00 0.  1.
         21   -1    0    0  501  502 -0.00000000000E+00 -0.00000000000E+00 -0.40202786518E+03  0.40202786518E+03  0.00000000000E+00 0. -1.
          2    1    1    2  501    0  0.15724789101E+02  0.14766261714E+02  0.57102129119E+03  0.57142858387E+03  0.00000000000E+00 0.  1.
         21    1    1    2  503  502 -0.15724789101E+02 -0.14766261714E+02 -0.40153471944E+03  0.40211371823E+03  0.00000000000E+00 0. -1.
</event>
<event>
 4    1  0.2402120E+005  0.2210701E+02  0.7546771E-02  0.1504027E+00
          2   -1    0    0  502    0  0.00000000000E+00  0.00000000000E+00  0.33492874582E+02  0.33492874582E+02  0.00000000000E+00 0.  1.
         21   -1    0    0  503  502 -0.00000000000E+00 -0.00000000000E+00 -0.23345685815E+03  0.23345685815E+03  0.00000000000E+00 0.  1.
          2    1    1    2  501    0  0.15819697721E+02  0.15442049673E+02  0.29254285545E+02  0.36667873634E+02  0.00000000000E+00 0.  1.
         21    1    1    2  503  501 -0.15819697721E+02 -0.15442049673E+02 -0.22921826912E+03  0.23028185910E+03  0.00000000000E+00 0.  1.
</event>
<event>
 4    1  0.2402120E+005  0.2980537E+02  0.7546771E-02  0.1421296E+00
          2   -1    0    0  502    0  0.00000000000E+00  0.00000000000E+00  0.20651058869E+04  0.20651058869E+04  0.00000000000E+00 0.  1.
         21   -1    0    0  503  502 -0.00000000000E+00 -0.00000000000E+00 -0.43312568282E+00  0.43312568282E+00  0.00000000000E+00 0.  1.
          2    1    1    2  501    0 -0.23816302067E+02  0.17920487404E+02  0.11175568780E+04  0.11179542637E+04  0.00000000000E+00 0.  1.
         21    1    1    2  503  501  0.23816302067E+02 -0.17920487404E+02  0.94711588323E+03  0.94758474892E+03  0.00000000000E+00 0.  1.
</event>
<event>
 4    1  0.2402120E+005  0.2628006E+02  0.7546771E-02  0.1454977E+00
          2   -1    0    0  503    0  0.00000000000E+00  0.00000000000E+00  0.20091675300E+03  0.20091675300E+03  0.00000000000E+00 0. -1.
         21   -1    0    0  501  502 -0.00000000000E+00 -0.00000000000E+00 -0.59601181829E+03  0.59601181829E+03  0.00000000000E+00 0.  1.
          2    1    1    2  501    0 -0.21024470693E+02 -0.15767477773E+02  0.19976603543E+03  0.20148724683E+03  0.00000000000E+00 0. -1.
         21    1    1    2  503  502  0.21024470693E+02  0.15767477773E+02 -0.59486110072E+03  0.59544132446E+03  0.00000000000E+00 0.  1.
</event>
<event>
 4    1  0.2402120E+005  0.2100047E+02  0.7546771E-02  0.1519258E+00
          2   -1    0    0  503    0  0.00000000000E+00  0.00000000000E+00  0.40000845840E+02  0.40000845840E+02  0.00000000000E+00 0. -1.
         21   -1    0    0  501  502 -0.00000000000E+00 -0.00000000000E+00 -0.31762286707E+02  0.31762286707E+02  0.00000000000E+00 0. -1.
          2    1    1    2  501    0  0.77385297616E+01 -0.19522671972E+02  0.33111988616E+02  0.39209990486E+02  0.00000000000E+00 0. -1.
         21    1    1    2  503  502 -0.77385297616E+01  0.19522671972E+02 -0.24873429483E+02  0.32553142061E+02  0.00000000000E+00 0. -1.
</event>
<event>
 4    1  0.2402120E+005  0.2825339E+02  0.7546771E-02  0.1435408E+00
          2   -1    0    0  503    0  0.00000000000E+00  0.00000000000E+00  0.93346855078E+03  0.93346855078E+03  0.00000000000E+00 0.  1.
         21   -1    0    0  501  502 -0.00000000000E+00 -0.00000000000E+00 -0.27603780614E+01  0.27603780614E+01  0.00000000000E+00 0. -1.
          2    1    1    2  501    0 -0.20418905626E+02 -0.19527473214E+02  0.85425724565E+03  0.85472433899E+03  0.00000000000E+00 0.  1.
         21    1    1    2  503  502  0.20418905626E+02  0.19527473214E+02  0.76450927068E+02  0.81504589850E+02  0.00000000000E+00 0. -1.
</event>
<event>
 4    1  0.2402120E+005  0.4219164E+02  0.7546771E-02  0.1336100E+00
          2   -1    0    0  502    0  0.00000000000E+00  0.00000000000E+00  0.64945726490E+02  0.64945726490E+02  0.00000000000E+00 0. -1.
         21   -1    0    0  503  502 -0.00000000000E+00 -0.00000000000E+00 -0.72620147295E+02  0.72620147295E+02  0.00000000000E+00 0. -1.
          2    1    1    2  501    0 -0.23332600740E+02 -0.35152872253E+02  0.50434331515E+02  0.65755277205E+02  0.00000000000E+00 0. -1.
         21    1    1    2  503  501  0.23332600740E+02  0.35152872253E+02 -0.58108752320E+02  0.71810596579E+02  0.00000000000E+00 0. -1.
</event>
<event>
 4    1  0.2402120E+005  0.4613934E+02  0.7546771E-02  0.1315839E+00
          2   -1    0    0  502    0  0.00000000000E+00  0.00000000000E+00  0.33659681909E+02  0.33659681909E+02  0.00000000000E+00 0. -1.
         21   -1    0    0  503  502 -0.00000000000E+00 -0.00000000000E+00 -0.23105308575E+03  0.23105308575E+03  0.00000000000E+00 0.  1.
          2    1    1    2  501    0 -0.34750066443E+02  0.30352460384E+02  0.14099429054E+02  0.48245547657E+02  0.00000000000E+00 0. -1.
         21    1    1    2  503  501  0.34750066443E+02 -0.30352460384E+02 -0.21149283290E+03  0.21646722001E+03  0.00000000000E+00 0.  1.
</event>
<event>
 4    1  0.2402120E+005  0.2118982E+02  0.7546771E-02  0.1516572E+00
          2   -1    0    0  503    0  0.00000000000E+00  0.00000000000E+00  0.17155719597E+04  0.17155719597E+04  0.00000000000E+00 0. -1.
         21   -1    0    0  501  502 -0.00000000000E+00 -0.00000000000E+00 -0.80684157693E+00  0.80684157693E+00  0.00000000000E+00 0.  1.
          2    1    1    2  501    0  0.11581826393E+02 -0.17744574466E+02  0.15627795088E+04  0.15629231593E+04  0.00000000000E+00 0. -1.
         21    1    1    2  503  502 -0.11581826393E+02  0.17744574466E+02  0.15198560932E+03  0.15345564201E+03  0.00000000000E+00 0.  1.
</event>
