<event>
 4    1  0.1768739E+004  0.2275282E+02  0.7546771E-02  0.1495626E+00
         21   -1    0    0  503  502  0.00000000000E+00  0.00000000000E+00  0.10762364245E+04  0.10762364245E+04  0.00000000000E+00 0. -1.
         21   -1    0    0  501  503 -0.00000000000E+00 -0.00000000000E+00 -0.13336296131E+01  0.13336296131E+01  0.00000000000E+00 0.  1.
          2    1    1    2  501    0  0.12984725731E+02  0.18683890337E+02  0.10665396488E+03  0.10905392741E+03  0.00000000000E+00 0.  1.
         -2    1    1    2    0  502 -0.12984725731E+02 -0.18683890337E+02  0.96824883006E+03  0.96851612675E+03  0.00000000000E+00 0. -1.
</event>
<event>
 4    1  0.1768739E+004  0.7209277E+02  0.7546771E-02  0.1223499E+00
         21   -1    0    0  501  502  0.00000000000E+00  0.00000000000E+00  0.11663039087E+03  0.11663039087E+03  0.00000000000E+00 0. -1.
         21   -1    0    0  502  503 -0.00000000000E+00 -0.00000000000E+00 -0.44627795929E+02  0.44627795929E+02  0.00000000000E+00 0.  1.
          2    1    1    2  501    0 -0.28319390432E+02  0.66297663983E+02  0.39080087067E+02  0.82003788505E+02  0.00000000000E+00 0.  1.
         -2    1    1    2    0  503  0.28319390432E+02 -0.66297663983E+02  0.32922507871E+02  0.79254398292E+02  0.00000000000E+00 0. -1.
</event>
<event>
 4    1  0.1768739E+004  0.2578408E+02  0.7546771E-02  0.1460220E+00
         21   -1    0    0  503  502  0.00000000000E+00  0.00000000000E+00  0.87458795035E+02  0.87458795035E+02  0.00000000000E+00 0.  1.
         21   -1    0    0  501  503 -0.00000000000E+00 -0.00000000000E+00 -0.81566671461E+01  0.81566671461E+01  0.00000000000E+00 0. -1.
          2    1    1    2  501    0  0.42227069890E+00  0.25780617010E+02  0.52123504004E+02  0.58152198545E+02  0.00000000000E+00 0.  1.
         -2    1    1    2    0  502 -0.42227069890E+00 -0.25780617010E+02  0.27178623885E+02  0.37463263636E+02  0.00000000000E+00 0. -1.
</event>
<event>
 4    1  0.1768739E+004  0.2633361E+02  0.7546771E-02  0.1454419E+00
         21   -1    0    0  503  502  0.00000000000E+00  0.00000000000E+00  0.26991254399E+01  0.26991254399E+01  0.00000000000E+00 0.  1.
         21   -1    0    0  501  503 -0.00000000000E+00 -0.00000000000E+00 -0.27883690160E+03  0.27883690160E+03  0.00000000000E+00 0. -1.
          2    1    1    2  501    0 -0.23115392412E+02  0.12614968221E+02 -0.98603139957E+02  0.10205899274E+03  0.00000000000E+00 0.  1.
         -2    1    1    2    0  502  0.23115392412E+02 -0.12614968221E+02 -0.17753463621E+03  0.17947703431E+03  0.00000000000E+00 0. -1.
</event>
<event>
 4    1  0.1768739E+004  0.2529493E+02  0.7546771E-02  0.1465531E+00
         21   -1    0    0  503  502  0.00000000000E+00  0.00000000000E+00  0.20007031089E+02  0.20007031089E+02  0.00000000000E+00 0. -1.
         21   -1    0    0  501  503 -0.00000000000E+00 -0.00000000000E+00 -0.50010078236E+02  0.50010078236E+02  0.00000000000E+00 0.  1.
          2    1    1    2  501    0  0.16295568805E+02 -0.19346517758E+02 -0.36021834147E+02  0.44015972639E+02  0.00000000000E+00 0.  1.
         -2    1    1    2    0  502 -0.16295568805E+02  0.19346517758E+02  0.60187870002E+01  0.26001136687E+02  0.00000000000E+00 0. -1.
</event>
<event>
 4    1  0.1768739E+004  0.2215380E+02  0.7546771E-02  0.1503406E+00
         21   -1    0    0  503  502  0.00000000000E+00  0.00000000000E+00  0.35257523069E+02  0.35257523069E+02  0.00000000000E+00 0. -1.
         21   -1    0    0  501  503 -0.00000000000E+00 -0.00000000000E+00 -0.14908661032E+02  0.14908661032E+02  0.00000000000E+00 0.  1.
          2    1    1    2  501    0 -0.15937998519E+02 -0.15387363737E+02  0.37156904526E+01  0.22463239194E+02  0.00000000000E+00 0. -1.
         -2    1    1    2    0  502  0.15937998519E+02  0.15387363737E+02  0.16633171584E+02  0.27702944907E+02  0.00000000000E+00 0.  1.
</event>
<event>
 4    1  0.1768739E+004  0.2015023E+02  0.7546771E-02  0.1531751E+00
         21   -1    0    0  503  502  0.00000000000E+00  0.00000000000E+00  0.80239362221E+02  0.80239362221E+02  0.00000000000E+00 0.  1.
         21   -1    0    0  501  503 -0.00000000000E+00 -0.00000000000E+00 -0.75858001203E+01  0.75858001203E+01  0.00000000000E+00 0. -1.
          2    1    1    2  501    0 -0.15707222690E+02 -0.12622009487E+02  0.10989181051E+02  0.22951994865E+02  0.00000000000E+00 0. -1.
         -2    1    1    2    0  502  0.15707222690E+02  0.12622009487E+02  0.61664381050E+02  0.64873167476E+02  0.00000000000E+00 0.  1.
</event>
<event>
 4    1  0.1768739E+004  0.2097448E+02  0.7546771E-02  0.1519629E+00
         21   -1    0    0  503  502  0.00000000000E+00  0.00000000000E+00  0.72107589899E+02  0.72107589899E+02  0.00000000000E+00 0. -1.
         21   -1    0    0  501  503 -0.00000000000E+00 -0.00000000000E+00 -0.11988128304E+02  0.11988128304E+02  0.00000000000E+00 0.  1.
          2    1    1    2  501    0 -0.64969570659E+01 -0.19942879712E+02  0.59383195023E+00  0.20982886806E+02  0.00000000000E+00 0.  1.
         -2    1    1    2    0  502  0.64969570659E+01  0.19942879712E+02  0.59525629646E+02  0.63112831397E+02  0.00000000000E+00 0. -1.
</event>
<event>
 4    1  0.1768739E+004  0.2080879E+02  0.7546771E-02  0.1522013E+00
         21   -1    0    0  503  502  0.00000000000E+00  0.00000000000E+00  0.41858166738E+02  0.41858166738E+02  0.00000000000E+00 0.  1.
         21   -1    0    0  501  503 -0.00000000000E+00 -0.00000000000E+00 -0.59939803829E+02  0.59939803829E+02  0.00000000000E+00 0. -1.
          2    1    1    2  501    0  0.16597162175E+02  0.12551485687E+02 -0.55339790519E+02  0.59122736742E+02  0.00000000000E+00 0. -1.
         -2    1    1    2    0  502 -0.16597162175E+02 -0.12551485687E+02  0.37258153427E+02  0.42675233825E+02  0.00000000000E+00 0.  1.
</event>
<event>
 4    1  0.1768739E+004  0.2421256E+02  0.7546771E-02  0.1477809E+00
         21   -1    0    0  503  502  0.00000000000E+00  0.00000000000E+00  0.26630515938E+03  0.26630515938E+03  0.00000000000E+00 0. -1.
         21   -1    0    0  501  503 -0.00000000000E+00 -0.00000000000E+00 -0.22519548734E+01  0.22519548734E+01  0.00000000000E+00 0.  1.
          2    1    1    2  501    0  0.18310879022E+02 -0.15841709427E+02  0.11191040411E+03  0.11449972313E+03  0.00000000000E+00 0. -1.
         -2    1    1    2    0  502 -0.18310879022E+02  0.15841709427E+02  0.15214280040E+03  0.15405739113E+03  0.00000000000E+00 0.  1.
</event>
<event>
 4    1  0.1768739E+004  0.2960512E+02  0.7546771E-02  0.1423059E+00
         21   -1    0    0  503  502  0.00000000000E+00  0.00000000000E+00  0.14014416980E+02  0.14014416980E+02  0.00000000000E+00 0. -1.
         21   -1    0    0  501  503 -0.00000000000E+00 -0.00000000000E+00 -0.23382885199E+03  0.23382885199E+03  0.00000000000E+00 0.  1.
          2    1    1    2  501    0  0.42693473236E+01 -0.29295664831E+02 -0.21596986970E+03  0.21798955921E+03  0.00000000000E+00 0.  1.
         -2    1    1    2    0  502 -0.42693473236E+01  0.29295664831E+02 -0.38445653151E+01  0.29853709769E+02  0.00000000000E+00 0. -1.
</event>
<event>
 4    1  0.1768739E+004  0.2317581E+02  0.7546771E-02  0.1490302E+00
         21   -1    0    0  501  502  0.00000000000E+00  0.00000000000E+00  0.14491584435E+03  0.14491584435E+03  0.00000000000E+00 0. -1.
         21   -1    0    0  502  503 -0.00000000000E+00 -0.00000000000E+00 -0.39816379409E+01  0.39816379409E+01  0.00000000000E+00 0.  1.
          2    1    1    2  501    0  0.15804939123E+02  0.16950576410E+02  0.90040645706E+02  0.92975459238E+02  0.00000000000E+00 0. -1.
         -2    1    1    2    0  503 -0.15804939123E+02 -0.16950576410E+02  0.50893560706E+02  0.55922023056E+02  0.00000000000E+00 0.  1.
</event>
<event>
 4    1  0.1768739E+004  0.3358179E+02  0.7546771E-02  0.1390817E+00
         21   -1    0    0  501  502  0.00000000000E+00  0.00000000000E+00  0.16686508220E+01  0.16686508220E+01  0.00000000000E+00 0. -1.
         21   -1    0    0  502  503 -0.00000000000E+00 -0.00000000000E+00 -0.73569421161E+03  0.73569421161E+03  0.00000000000E+00 0.  1.
          2    1    1    2  501    0  0.25801885579E+02 -0.21494162490E+02 -0.26185048321E+03  0.26399509821E+03  0.00000000000E+00 0. -1.
         -2    1    1    2    0  503 -0.25801885579E+02  0.21494162490E+02 -0.47217507757E+03  0.47336776422E+03  0.00000000000E+00 0.  1.
</event>
<event>
 4    1  0.1768739E+004  0.2977768E+02  0.7546771E-02  0.1421538E+00
         21   -1    0    0  501  502  0.00000000000E+00  0.00000000000E+00  0.57775267889E+02  0.57775267889E+02  0.00000000000E+00 0. -1.
         21   -1    0    0  502  503 -0.00000000000E+00 -0.00000000000E+00 -0.16437937723E+02  0.16437937723E+02  0.00000000000E+00 0.  1.
          2    1    1    2  501    0  0.17169573163E+02  0.24329325561E+02  0.30225471613E+02  0.42429818043E+02  0.00000000000E+00 0. -1.
         -2    1    1    2    0  503 -0.17169573163E+02 -0.24329325561E+02  0.11111858553E+02  0.31783387569E+02  0.00000000000E+00 0.  1.
</event>
<event>
 4    1  0.1768739E+004  0.3405894E+02  0.7546771E-02  0.1387303E+00
         21   -1    0    0  501  502  0.00000000000E+00  0.00000000000E+00  0.98654757645E+01  0.98654757645E+01  0.00000000000E+00 0. -1.
         21   -1    0    0  502  503 -0.00000000000E+00 -0.00000000000E+00 -0.19691110685E+03  0.19691110685E+03  0.00000000000E+00 0.  1.
          2    1    1    2  501    0  0.33220217728E+02 -0.75118746486E+01 -0.15914491250E+03  0.16274862304E+03  0.00000000000E+00 0.  1.
         -2    1    1    2    0  503 -0.33220217728E+02  0.75118746486E+01 -0.27900718583E+02  0.44027959572E+02  0.00000000000E+00 0. -1.
</event>
<event>
 4    1  0.1768739E+004  0.2005927E+02  0.7546771E-02  0.1533132E+00
         21   -1    0    0  503  502  0.00000000000E+00  0.00000000000E+00  0.11977791578E+02  0.11977791578E+02  0.00000000000E+00 0.  1.
         21   -1    0    0  501  503 -0.00000000000E+00 -0.00000000000E+00 -0.41465076997E+02  0.41465076997E+02  0.00000000000E+00 0. -1.
          2    1    1    2  501    0 -0.19744412626E+02 -0.35401029567E+01 -0.26386337334E+02  0.33145330844E+02  0.00000000000E+00 0. -1.
         -2    1    1    2    0  502  0.19744412626E+02  0.35401029567E+01 -0.31009480849E+01  0.20297537730E+02  0.00000000000E+00 0.  1.
</event>
<event>
 4    1  0.1768739E+004  0.2388000E+02  0.7546771E-02  0.1481734E+00
         21   -1    0    0  501  502  0.00000000000E+00  0.00000000000E+00  0.58987263424E+01  0.58987263424E+01  0.00000000000E+00 0. -1.
         21   -1    0    0  502  503 -0.00000000000E+00 -0.00000000000E+00 -0.11731448472E+03  0.11731448472E+03  0.00000000000E+00 0.  1.
          2    1    1    2  501    0 -0.66172268998E+01  0.22944866304E+02 -0.29866872658E+02  0.38239830856E+02  0.00000000000E+00 0. -1.
         -2    1    1    2    0  503  0.66172268998E+01 -0.22944866304E+02 -0.81548885724E+02  0.84973380210E+02  0.00000000000E+00 0.  1.
</event>
<event>
 4    1  0.1768739E+004  0.2223305E+02  0.7546771E-02  0.1502360E+00
         21   -1    0    0  503  502  0.00000000000E+00  0.00000000000E+00  0.71550137782E+01  0.71550137782E+01  0.00000000000E+00 0.  1.
         21   -1    0    0  501  503 -0.00000000000E+00 -0.00000000000E+00 -0.46403294344E+03  0.46403294344E+03  0.00000000000E+00 0. -1.
          2    1    1    2  501    0  0.22010482558E+02  0.31379960470E+01 -0.44578883367E+03  0.44634290919E+03  0.00000000000E+00 0. -1.
         -2    1    1    2    0  502 -0.22010482558E+02 -0.31379960470E+01 -0.11089095998E+02  0.24845048031E+02  0.00000000000E+00 0.  1.
</event>
<event>
 4    1  0.1768739E+004  0.2163783E+02  0.7546771E-02  0.1510350E+00
         21   -1    0    0  501  502  0.00000000000E+00  0.00000000000E+00  0.15174376366E+02  0.15174376366E+02  0.00000000000E+00 0.  1.
         21   -1    0    0  502  503 -0.00000000000E+00 -0.00000000000E+00 -0.30855571899E+02  0.30855571899E+02  0.00000000000E+00 0. -1.
          2    1    1    2  501    0 -0.10127190047E+02 -0.19121601436E+02 -0.76961590699E+01  0.22965767659E+02  0.00000000000E+00 0.  1.
         -2    1    1    2    0  503  0.10127190047E+02  0.19121601436E+02 -0.79850364635E+01  0.23064180607E+02  0.00000000000E+00 0. -1.
</event>
<event>
 4    1  0.1768739E+004  0.4039642E+02  0.7546771E-02  0.1346178E+00
         21   -1    0    0  503  502  0.00000000000E+00  0.00000000000E+00  0.92170779461E+02  0.92170779461E+02  0.00000000000E+00 0. -1.
         21   -1    0    0  501  503 -0.00000000000E+00 -0.00000000000E+00 -0.28363140869E+02  0.28363140869E+02  0.00000000000E+00 0.  1.
          2    1    1    2  501    0  0.37177309373E+02  0.15802472707E+02 -0.50403380793E+01  0.40709648535E+02  0.00000000000E+00 0.  1.
         -2    1    1    2    0  502 -0.37177309373E+02 -0.15802472707E+02  0.68847976671E+02  0.79824271795E+02  0.00000000000E+00 0. -1.
</event>
<event>
 4    1  0.1768739E+004  0.9313237E+02  0.7546771E-02  0.1176272E+00
         21   -1    0    0  503  502  0.00000000000E+00  0.00000000000E+00  0.11350041182E+03  0.11350041182E+03  0.00000000000E+00 0.  1.
         21   -1    0    0  501  503 -0.00000000000E+00 -0.00000000000E+00 -0.14561614882E+03  0.14561614882E+03  0.00000000000E+00 0. -1.
          2    1    1    2  501    0 -0.88916237910E+02  0.27704516515E+02 -0.10536849427E+03  0.14062772552E+03  0.00000000000E+00 0. -1.
         -2    1    1    2    0  502  0.88916237910E+02 -0.27704516515E+02  0.73252757279E+02  0.11848883512E+03  0.00000000000E+00 0.  1.
</event>
<event>
 4    1  0.1768739E+004  0.2204789E+02  0.7546771E-02  0.1504813E+00
         21   -1    0    0  503  502  0.00000000000E+00  0.00000000000E+00  0.93779611884E+02  0.93779611884E+02  0.00000000000E+00 0.  1.
         21   -1    0    0  501  503 -0.00000000000E+00 -0.00000000000E+00 -0.57703947519E+01  0.57703947519E+01  0.00000000000E+00 0. -1.
          2    1    1    2  501    0 -0.16813419767E+02 -0.14262473685E+02  0.59878313558E+02  0.63808476509E+02  0.00000000000E+00 0.  1.
         -2    1    1    2    0  502  0.16813419767E+02  0.14262473685E+02  0.28130903574E+02  0.35741530127E+02  0.00000000000E+00 0. -1.
</event>
<event>
 4    1  0.1768739E+004  0.3564498E+02  0.7546771E-02  0.1376085E+00
         21   -1    0    0  501  502  0.00000000000E+00  0.00000000000E+00  0.78146422788E+02  0.78146422788E+02  0.00000000000E+00 0. -1.
         21   -1    0    0  502  503 -0.00000000000E+00 -0.00000000000E+00 -0.31242447385E+02  0.31242447385E+02  0.00000000000E+00 0.  1.
          2    1    1    2  501    0 -0.13053238553E+02 -0.33168925575E+02  0.61329359271E+02  0.70935569140E+02  0.00000000000E+00 0. -1.
         -2    1    1    2    0  503  0.13053238553E+02  0.33168925575E+02 -0.14425383869E+02  0.38453301033E+02  0.00000000000E+00 0.  1.
</event>
<event>
 4    1  0.1768739E+004  0.2571334E+02  0.7546771E-02  0.1460979E+00
         21   -1    0    0  501  502  0.00000000000E+00  0.00000000000E+00  0.76402381950E+02  0.76402381950E+02  0.00000000000E+00 0. -1.
         21   -1    0    0  502  503 -0.00000000000E+00 -0.00000000000E+00 -0.60513287895E+03  0.60513287895E+03  0.00000000000E+00 0.  1.
          2    1    1    2  501    0  0.21912338361E+02  0.13454571566E+02  0.73956987649E+02  0.78299502493E+02  0.00000000000E+00 0. -1.
         -2    1    1    2    0  503 -0.21912338361E+02 -0.13454571566E+02 -0.60268748465E+03  0.60323575841E+03  0.00000000000E+00 0.  1.
</event>
<event>
 4    1  0.1768739E+004  0.3574465E+02  0.7546771E-02  0.1375402E+00
         21   -1    0    0  503  502  0.00000000000E+00  0.00000000000E+00  0.25897457795E+02  0.25897457795E+02  0.00000000000E+00 0.  1.
         21   -1    0    0  501  503 -0.00000000000E+00 -0.00000000000E+00 -0.86279798617E+02  0.86279798617E+02  0.00000000000E+00 0. -1.
          2    1    1    2  501    0  0.35655156902E+02 -0.25278247532E+01 -0.66893220178E+02  0.75844465965E+02  0.00000000000E+00 0. -1.
         -2    1    1    2    0  502 -0.35655156902E+02  0.25278247532E+01  0.65108793568E+01  0.36332790447E+02  0.00000000000E+00 0.  1.
</event>
<event>
 4    1  0.1768739E+004  0.2844240E+02  0.7546771E-02  0.1433633E+00
         21   -1    0    0  503  502  0.00000000000E+00  0.00000000000E+00  0.12301704975E+01  0.12301704975E+01  0.00000000000E+00 0. -1.
         21   -1    0    0  501  503 -0.00000000000E+00 -0.00000000000E+00 -0.75142409526E+03  0.75142409526E+03  0.00000000000E+00 0.  1.
          2    1    1    2  501    0 -0.17205980141E+02  0.22647830215E+02 -0.50806940279E+03  0.50886490154E+03  0.00000000000E+00 0.  1.
         -2    1    1    2    0  502  0.17205980141E+02 -0.22647830215E+02 -0.24212452197E+03  0.24378936422E+03  0.00000000000E+00 0. -1.
</event>
<event>
 4    1  0.1768739E+004  0.3716948E+02  0.7546771E-02  0.1365921E+00
         21   -1    0    0  503  502  0.00000000000E+00  0.00000000000E+00  0.64781830615E+02  0.64781830615E+02  0.00000000000E+00 0. -1.
         21   -1    0    0  501  503 -0.00000000000E+00 -0.00000000000E+00 -0.46462631242E+02  0.46462631242E+02  0.00000000000E+00 0.  1.
          2    1    1    2  501    0 -0.14060397206E+01 -0.37142879491E+02 -0.31751921052E+02  0.48885119772E+02  0.00000000000E+00 0.  1.
         -2    1    1    2    0  502  0.14060397206E+01  0.37142879491E+02  0.50071120425E+02  0.62359342085E+02  0.00000000000E+00 0. -1.
</event>
<event>
 4    1  0.1768739E+004  0.2130297E+02  0.7546771E-02  0.1514983E+00
         21   -1    0    0  503  502  0.00000000000E+00  0.00000000000E+00  0.11791460755E+03  0.11791460755E+03  0.00000000000E+00 0.  1.
         21   -1    0    0  501  503 -0.00000000000E+00 -0.00000000000E+00 -0.44361685179E+01  0.44361685179E+01  0.00000000000E+00 0. -1.
          2    1    1    2  501    0 -0.29243727389E+01 -0.21101293167E+02  0.34476948370E+02  0.40527478310E+02  0.00000000000E+00 0. -1.
         -2    1    1    2    0  502  0.29243727389E+01  0.21101293167E+02  0.79001490661E+02  0.81823297757E+02  0.00000000000E+00 0.  1.
</event>
<event>
 4    1  0.1768739E+004  0.2328501E+02  0.7546771E-02  0.1488950E+00
         21   -1    0    0  503  502  0.00000000000E+00  0.00000000000E+00  0.18584261504E+02  0.18584261504E+02  0.00000000000E+00 0. -1.
         21   -1    0    0  501  503 -0.00000000000E+00 -0.00000000000E+00 -0.29775874724E+02  0.29775874724E+02  0.00000000000E+00 0.  1.
          2    1    1    2  501    0  0.22793049009E+02 -0.47611531661E+01 -0.90313721226E+01  0.24975134534E+02  0.00000000000E+00 0.  1.
         -2    1    1    2    0  502 -0.22793049009E+02  0.47611531661E+01 -0.21602410973E+01  0.23385001693E+02  0.00000000000E+00 0. -1.
</event>
<event>
 4    1  0.1768739E+004  0.4862158E+02  0.7546771E-02  0.1304262E+00
         21   -1    0    0  503  502  0.00000000000E+00  0.00000000000E+00  0.26549780300E+02  0.26549780300E+02  0.00000000000E+00 0.  1.
         21   -1    0    0  501  503 -0.00000000000E+00 -0.00000000000E+00 -0.89123348533E+02  0.89123348533E+02  0.00000000000E+00 0. -1.
          2    1    1    2  501    0 -0.10519210448E+02 -0.47470037052E+02 -0.29544559560E+02  0.56894105194E+02  0.00000000000E+00 0. -1.
         -2    1    1    2    0  502  0.10519210448E+02  0.47470037052E+02 -0.33029008672E+02  0.58779023640E+02  0.00000000000E+00 0.  1.
</event>
<event>
 4    1  0.1768739E+004  0.3104524E+02  0.7546771E-02  0.1410725E+00
         21   -1    0    0  503  502  0.00000000000E+00  0.00000000000E+00  0.86142705318E+02  0.86142705318E+02  0.00000000000E+00 0.  1.
         21   -1    0    0  501  503 -0.00000000000E+00 -0.00000000000E+00 -0.21401523167E+02  0.21401523167E+02  0.00000000000E+00 0. -1.
          2    1    1    2  501    0 -0.31036764645E+02  0.72553215431E+00 -0.47754088273E+01  0.31410375452E+02  0.00000000000E+00 0. -1.
         -2    1    1    2    0  502  0.31036764645E+02 -0.72553215431E+00  0.69516590978E+02  0.76133853033E+02  0.00000000000E+00 0.  1.
</event>
<event>
 4    1  0.1768739E+004  0.2034523E+02  0.7546771E-02  0.1528822E+00
         21   -1    0    0  503  502  0.00000000000E+00  0.00000000000E+00  0.12060778894E+03  0.12060778894E+03  0.00000000000E+00 0. -1.
         21   -1    0    0  501  503 -0.00000000000E+00 -0.00000000000E+00 -0.15458554720E+02  0.15458554720E+02  0.00000000000E+00 0.  1.
          2    1    1    2  501    0  0.10415932966E+02 -0.17476747862E+02 -0.74330198736E+01  0.21660520765E+02  0.00000000000E+00 0.  1.
         -2    1    1    2    0  502 -0.10415932966E+02  0.17476747862E+02  0.11258225410E+03  0.11440582290E+03  0.00000000000E+00 0. -1.
</event>
<event>
 4    1  0.1768739E+004  0.2892938E+02  0.7546771E-02  0.1429134E+00
         21   -1    0    0  501  502  0.00000000000E+00  0.00000000000E+00  0.14370573393E+02  0.14370573393E+02  0.00000000000E+00 0.  1.
         21   -1    0    0  502  503 -0.00000000000E+00 -0.00000000000E+00 -0.72732413682E+02  0.72732413682E+02  0.00000000000E+00 0. -1.
          2    1    1    2  501    0  0.42729767292E+01 -0.28612075154E+02 -0.48623050000E+02  0.56578354218E+02  0.00000000000E+00 0. -1.
         -2    1    1    2    0  503 -0.42729767292E+01  0.28612075154E+02 -0.97387902892E+01  0.30524632857E+02  0.00000000000E+00 0.  1.
</event>
<event>
 4    1  0.1768739E+004  0.2137029E+02  0.7546771E-02  0.1514043E+00
         21   -1    0    0  501  502  0.00000000000E+00  0.00000000000E+00  0.26872006931E+02  0.26872006931E+02  0.00000000000E+00 0. -1.
         21   -1    0    0  502  503 -0.00000000000E+00 -0.00000000000E+00 -0.19299027482E+02  0.19299027482E+02  0.00000000000E+00 0.  1.
          2    1    1    2  501    0  0.19859722751E+02  0.78918049327E+01 -0.41901095682E+01  0.21777194287E+02  0.00000000000E+00 0.  1.
         -2    1    1    2    0  503 -0.19859722751E+02 -0.78918049327E+01  0.11763089017E+02  0.24393840125E+02  0.00000000000E+00 0. -1.
</event>
<event>
 4    1  0.1768739E+004  0.3302345E+02  0.7546771E-02  0.1395018E+00
         21   -1    0    0  503  502  0.00000000000E+00  0.00000000000E+00  0.31000279794E+02  0.31000279794E+02  0.00000000000E+00 0.  1.
         21   -1    0    0  501  503 -0.00000000000E+00 -0.00000000000E+00 -0.94571881530E+02  0.94571881530E+02  0.00000000000E+00 0. -1.
          2    1    1    2  501    0  0.32700530160E+02  0.46068929127E+01 -0.81542415033E+02  0.87975641995E+02  0.00000000000E+00 0. -1.
         -2    1    1    2    0  502 -0.32700530160E+02 -0.46068929127E+01  0.17970813297E+02  0.37596519328E+02  0.00000000000E+00 0.  1.
</event>
<event>
 4    1  0.1768739E+004  0.4937931E+02  0.7546771E-02  0.1300886E+00
         21   -1    0    0  501  502  0.00000000000E+00  0.00000000000E+00  0.10035934867E+03  0.10035934867E+03  0.00000000000E+00 0.  1.
         21   -1    0    0  502  503 -0.00000000000E+00 -0.00000000000E+00 -0.26831391158E+02  0.26831391158E+02  0.00000000000E+00 0. -1.
          2    1    1    2  501    0  0.48707139826E+02  0.81197662756E+01  0.56313624834E+02  0.74896865197E+02  0.00000000000E+00 0.  1.
         -2    1    1    2    0  503 -0.48707139826E+02 -0.81197662756E+01  0.17214332679E+02  0.52293874632E+02  0.00000000000E+00 0. -1.
</event>
<event>
 4    1  0.1768739E+004  0.2236745E+02  0.7546771E-02  0.1500598E+00
         21   -1    0    0  501  502  0.00000000000E+00  0.00000000000E+00  0.13870978111E+03  0.13870978111E+03  0.00000000000E+00 0.  1.
         21   -1    0    0  502  503 -0.00000000000E+00 -0.00000000000E+00 -0.36173978471E+01  0.36173978471E+01  0.00000000000E+00 0. -1.
          2    1    1    2  501    0  0.22108463777E+02  0.33939093488E+01  0.63700055940E+02  0.67512961111E+02  0.00000000000E+00 0.  1.
         -2    1    1    2    0  503 -0.22108463777E+02 -0.33939093488E+01  0.71392327318E+02  0.74814217841E+02  0.00000000000E+00 0. -1.
</event>
<event>
 4    1  0.1768739E+004  0.2127042E+02  0.7546771E-02  0.1515439E+00
         21   -1    0    0  503  502  0.00000000000E+00  0.00000000000E+00  0.15058115726E+03  0.15058115726E+03  0.00000000000E+00 0.  1.
         21   -1    0    0  501  503 -0.00000000000E+00 -0.00000000000E+00 -0.49440933012E+01  0.49440933012E+01  0.00000000000E+00 0. -1.
          2    1    1    2  501    0 -0.15156108993E+02 -0.14923906865E+02  0.24113276780E+02  0.32154016125E+02  0.00000000000E+00 0. -1.
         -2    1    1    2    0  502  0.15156108993E+02  0.14923906865E+02  0.12152378718E+03  0.12337123443E+03  0.00000000000E+00 0.  1.
</event>
<event>
 4    1  0.1768739E+004  0.2508022E+02  0.7546771E-02  0.1467908E+00
         21   -1    0    0  501  502  0.00000000000E+00  0.00000000000E+00  0.48541943544E+03  0.48541943544E+03  0.00000000000E+00 0. -1.
         21   -1    0    0  502  503 -0.00000000000E+00 -0.00000000000E+00 -0.10211598418E+02  0.10211598418E+02  0.00000000000E+00 0.  1.
          2    1    1    2  501    0 -0.89593749767E+01 -0.23425349848E+02  0.46916267326E+03  0.46983255677E+03  0.00000000000E+00 0. -1.
         -2    1    1    2    0  503  0.89593749767E+01  0.23425349848E+02  0.60451637618E+01  0.25798477094E+02  0.00000000000E+00 0.  1.
</event>
<event>
 4    1  0.1768739E+004  0.2335086E+02  0.7546771E-02  0.1488139E+00
         21   -1    0    0  501  502  0.00000000000E+00  0.00000000000E+00  0.15240970476E+02  0.15240970476E+02  0.00000000000E+00 0.  1.
         21   -1    0    0  502  503 -0.00000000000E+00 -0.00000000000E+00 -0.47682117431E+02  0.47682117431E+02  0.00000000000E+00 0. -1.
          2    1    1    2  501    0 -0.23350860860E+02  0.50333256205E-03 -0.49938915392E+00  0.23356200305E+02  0.00000000000E+00 0.  1.
         -2    1    1    2    0  503  0.23350860860E+02 -0.50333256205E-03 -0.31941757801E+02  0.39566887603E+02  0.00000000000E+00 0. -1.
</event>
<event>
 4    1  0.1768739E+004  0.2253158E+02  0.7546771E-02  0.1498465E+00
         21   -1    0    0  501  502  0.00000000000E+00  0.00000000000E+00  0.58343213096E+02  0.58343213096E+02  0.00000000000E+00 0.  1.
         21   -1    0    0  502  503 -0.00000000000E+00 -0.00000000000E+00 -0.14921857517E+02  0.14921857517E+02  0.00000000000E+00 0. -1.
          2    1    1    2  501    0 -0.29816420146E+01  0.22333421541E+02  0.45362474653E+02  0.50650034684E+02  0.00000000000E+00 0.  1.
         -2    1    1    2    0  503  0.29816420146E+01 -0.22333421541E+02 -0.19411190742E+01  0.22615035929E+02  0.00000000000E+00 0. -1.
</event>
<event>
 4    1  0.1768739E+004  0.2144054E+02  0.7546771E-02  0.1513067E+00
         21   -1    0    0  501  502  0.00000000000E+00  0.00000000000E+00  0.84196794531E+02  0.84196794531E+02  0.00000000000E+00 0. -1.
         21   -1    0    0  502  503 -0.00000000000E+00 -0.00000000000E+00 -0.14374758720E+02  0.14374758720E+02  0.00000000000E+00 0.  1.
          2    1    1    2  501    0 -0.20955122185E+02  0.45364693182E+01  0.73724380389E+02  0.76778779382E+02  0.00000000000E+00 0. -1.
         -2    1    1    2    0  503  0.20955122185E+02 -0.45364693182E+01 -0.39023445784E+01  0.21792773868E+02  0.00000000000E+00 0.  1.
</event>
<event>
 4    1  0.1768739E+004  0.2066041E+02  0.7546771E-02  0.1524169E+00
         21   -1    0    0  501  502  0.00000000000E+00  0.00000000000E+00  0.25848422338E+03  0.25848422338E+03  0.00000000000E+00 0.  1.
         21   -1    0    0  502  503 -0.00000000000E+00 -0.00000000000E+00 -0.32434478599E+01  0.32434478599E+01  0.00000000000E+00 0. -1.
          2    1    1    2  501    0  0.96684852637E+01  0.18258499600E+02  0.21930547311E+03  0.22027651475E+03  0.00000000000E+00 0.  1.
         -2    1    1    2    0  503 -0.96684852637E+01 -0.18258499600E+02  0.35935302408E+02  0.41451156486E+02  0.00000000000E+00 0. -1.
</event>
<event>
 4    1  0.1768739E+004  0.2224735E+02  0.7546771E-02  0.1502172E+00
         21   -1    0    0  503  502  0.00000000000E+00  0.00000000000E+00  0.21011775475E+02  0.21011775475E+02  0.00000000000E+00 0. -1.
         21   -1    0    0  501  503 -0.00000000000E+00 -0.00000000000E+00 -0.42234182749E+02  0.42234182749E+02  0.00000000000E+00 0.  1.
          2    1    1    2  501    0  0.16722316956E+02 -0.14673403906E+02 -0.31641377671E+02  0.38679729155E+02  0.00000000000E+00 0.  1.
         -2    1    1    2    0  502 -0.16722316956E+02  0.14673403906E+02  0.10418970397E+02  0.24566229069E+02  0.00000000000E+00 0. -1.
</event>
<event>
 4    1  0.1768739E+004  0.2025263E+02  0.7546771E-02  0.1530208E+00
         21   -1    0    0  501  502  0.00000000000E+00  0.00000000000E+00  0.13196988884E+02  0.13196988884E+02  0.00000000000E+00 0. -1.
         21   -1    0    0  502  503 -0.00000000000E+00 -0.00000000000E+00 -0.70504005096E+02  0.70504005096E+02  0.00000000000E+00 0.  1.
          2    1    1    2  501    0  0.54488120924E+01 -0.19505883576E+02  0.26412304949E+01  0.20424131458E+02  0.00000000000E+00 0. -1.
         -2    1    1    2    0  503 -0.54488120924E+01  0.19505883576E+02 -0.59948246707E+02  0.63276862521E+02  0.00000000000E+00 0.  1.
</event>
<event>
 4    1  0.1768739E+004  0.2229877E+02  0.7546771E-02  0.1501496E+00
         21   -1    0    0  501  502  0.00000000000E+00  0.00000000000E+00  0.77841684414E+02  0.77841684414E+02  0.00000000000E+00 0.  1.
         21   -1    0    0  502  503 -0.00000000000E+00 -0.00000000000E+00 -0.65864384890E+01  0.65864384890E+01  0.00000000000E+00 0. -1.
          2    1    1    2  501    0 -0.21497251927E+02 -0.59247939668E+01  0.42959122928E+02  0.48401665949E+02  0.00000000000E+00 0.  1.
         -2    1    1    2    0  503  0.21497251927E+02  0.59247939668E+01  0.28296122997E+02  0.36026456953E+02  0.00000000000E+00 0. -1.
</event>
<event>
 4    1  0.1768739E+004  0.2226193E+02  0.7546771E-02  0.1501980E+00
         21   -1    0    0  501  502  0.00000000000E+00  0.00000000000E+00  0.10635177219E+01  0.10635177219E+01  0.00000000000E+00 0.  1.
         21   -1    0    0  502  503 -0.00000000000E+00 -0.00000000000E+00 -0.47440176142E+03  0.47440176142E+03  0.00000000000E+00 0. -1.
          2    1    1    2  501    0  0.19585035450E+02 -0.10583948845E+02 -0.26831656491E+03  0.26923850503E+03  0.00000000000E+00 0. -1.
         -2    1    1    2    0  503 -0.19585035450E+02  0.10583948845E+02 -0.20502167879E+03  0.20622677412E+03  0.00000000000E+00 0.  1.
</event>
<event>
 4    1  0.1768739E+004  0.2042342E+02  0.7546771E-02  0.1527658E+00
         21   -1    0    0  503  502  0.00000000000E+00  0.00000000000E+00  0.46317823820E+01  0.46317823820E+01  0.00000000000E+00 0. -1.
         21   -1    0    0  501  503 -0.00000000000E+00 -0.00000000000E+00 -0.90193932399E+02  0.90193932399E+02  0.00000000000E+00 0.  1.
          2    1    1    2  501    0 -0.17212427860E+02 -0.10993103402E+02 -0.44640711343E+02  0.49090825054E+02  0.00000000000E+00 0.  1.
         -2    1    1    2    0  502  0.17212427860E+02  0.10993103402E+02 -0.40921438674E+02  0.45734889728E+02  0.00000000000E+00 0. -1.
</event>
<event>
 4    1  0.1768739E+004  0.4317353E+02  0.7546771E-02  0.1330829E+00
         21   -1    0    0  501  502  0.00000000000E+00  0.00000000000E+00  0.58743115093E+03  0.58743115093E+03  0.00000000000E+00 0. -1.
         21   -1    0    0  502  503 -0.00000000000E+00 -0.00000000000E+00 -0.39688421096E+01  0.39688421096E+01  0.00000000000E+00 0.  1.
          2    1    1    2  501    0  0.17860087553E+02  0.39306122246E+02  0.42413989054E+03  0.42633156196E+03  0.00000000000E+00 0. -1.
         -2    1    1    2    0  503 -0.17860087553E+02 -0.39306122246E+02  0.15932241828E+03  0.16506843109E+03  0.00000000000E+00 0.  1.
</event>
<event>
 4    1  0.1768739E+004  0.2378243E+02  0.7546771E-02  0.1482900E+00
         21   -1    0    0  501  502  0.00000000000E+00  0.00000000000E+00  0.18012182492E+02  0.18012182492E+02  0.00000000000E+00 0. -1.
         21   -1    0    0  502  503 -0.00000000000E+00 -0.00000000000E+00 -0.32269816266E+02  0.32269816266E+02  0.00000000000E+00 0.  1.
          2    1    1    2  501    0  0.23678959202E+02  0.22160238411E+01 -0.30040246632E+01  0.23971400350E+02  0.00000000000E+00 0. -1.
         -2    1    1    2    0  503 -0.23678959202E+02 -0.22160238411E+01 -0.11253609111E+02  0.26310598408E+02  0.00000000000E+00 0.  1.
</event>
<event>
 4    1  0.1768739E+004  0.2449569E+02  0.7546771E-02  0.1474525E+00
         21   -1    0    0  501  502  0.00000000000E+00  0.00000000000E+00  0.12920070235E+03  0.12920070235E+03  0.00000000000E+00 0. -1.
         21   -1    0    0  502  503 -0.00000000000E+00 -0.00000000000E+00 -0.80171484328E+01  0.80171484328E+01  0.00000000000E+00 0.  1.
          2    1    1    2  501    0  0.21950319615E+02 -0.10873002247E+02  0.10509311920E+03  0.10791015898E+03  0.00000000000E+00 0. -1.
         -2    1    1    2    0  503 -0.21950319615E+02  0.10873002247E+02  0.16090434716E+02  0.29307691796E+02  0.00000000000E+00 0.  1.
</event>
<event>
 4    1  0.1768739E+004  0.2469465E+02  0.7546771E-02  0.1472248E+00
         21   -1    0    0  501  502  0.00000000000E+00  0.00000000000E+00  0.18368011480E+03  0.18368011480E+03  0.00000000000E+00 0. -1.
         21   -1    0    0  502  503 -0.00000000000E+00 -0.00000000000E+00 -0.26572260816E+02  0.26572260816E+02  0.00000000000E+00 0.  1.
          2    1    1    2  501    0  0.20472080719E+02  0.13810131227E+02  0.17689362205E+03  0.17860901247E+03  0.00000000000E+00 0. -1.
         -2    1    1    2    0  503 -0.20472080719E+02 -0.13810131227E+02 -0.19785768064E+02  0.31643363149E+02  0.00000000000E+00 0.  1.
</event>
<event>
 4    1  0.1768739E+004  0.3044466E+02  0.7546771E-02  0.1415771E+00
         21   -1    0    0  503  502  0.00000000000E+00  0.00000000000E+00  0.58599534087E+02  0.58599534087E+02  0.00000000000E+00 0. -1.
         21   -1    0    0  501  503 -0.00000000000E+00 -0.00000000000E+00 -0.30655524050E+02  0.30655524050E+02  0.00000000000E+00 0.  1.
          2    1    1    2  501    0 -0.29443970221E+02 -0.77414318936E+01 -0.17076575084E+02  0.34906826936E+02  0.00000000000E+00 0. -1.
         -2    1    1    2    0  502  0.29443970221E+02  0.77414318936E+01  0.45020585121E+02  0.54348231201E+02  0.00000000000E+00 0.  1.
</event>
<event>
 4    1  0.1768739E+004  0.2386093E+02  0.7546771E-02  0.1481961E+00
         21   -1    0    0  501  502  0.00000000000E+00  0.00000000000E+00  0.68108263563E+02  0.68108263563E+02  0.00000000000E+00 0. -1.
         21   -1    0    0  502  503 -0.00000000000E+00 -0.00000000000E+00 -0.86376924806E+01  0.86376924806E+01  0.00000000000E+00 0.  1.
          2    1    1    2  501    0  0.18899506648E+02  0.14565456500E+02  0.36623097959E+02  0.43710355509E+02  0.00000000000E+00 0. -1.
         -2    1    1    2    0  503 -0.18899506648E+02 -0.14565456500E+02  0.22847473123E+02  0.33035600534E+02  0.00000000000E+00 0.  1.
</event>
<event>
 4    1  0.1768739E+004  0.5225828E+02  0.7546771E-02  0.1288667E+00
         21   -1    0    0  501  502  0.00000000000E+00  0.00000000000E+00  0.15544436936E+03  0.15544436936E+03  0.00000000000E+00 0. -1.
         21   -1    0    0  502  503 -0.00000000000E+00 -0.00000000000E+00 -0.11306224198E+03  0.11306224198E+03  0.00000000000E+00 0.  1.
          2    1    1    2  501    0  0.33753986525E+02 -0.39894819075E+02  0.14457357110E+03  0.15372848030E+03  0.00000000000E+00 0. -1.
         -2    1    1    2    0  503 -0.33753986525E+02  0.39894819075E+02 -0.10219144372E+03  0.11477813104E+03  0.00000000000E+00 0.  1.
</event>
<event>
 4    1  0.1768739E+004  0.3743184E+02  0.7546771E-02  0.1364230E+00
         21   -1    0    0  501  502  0.00000000000E+00  0.00000000000E+00  0.17863108360E+04  0.17863108360E+04  0.00000000000E+00 0. -1.
         21   -1    0    0  502  503 -0.00000000000E+00 -0.00000000000E+00 -0.14846296125E+01  0.14846296125E+01  0.00000000000E+00 0.  1.
          2    1    1    2  501    0 -0.33218328941E+02 -0.17253552642E+02  0.15063248110E+04  0.15067898256E+04  0.00000000000E+00 0. -1.
         -2    1    1    2    0  503  0.33218328941E+02  0.17253552642E+02  0.27850139538E+03  0.28100563996E+03  0.00000000000E+00 0.  1.
</event>
<event>
 4    1  0.1768739E+004  0.2225971E+02  0.7546771E-02  0.1502009E+00
         21   -1    0    0  501  502  0.00000000000E+00  0.00000000000E+00  0.11317347557E+03  0.11317347557E+03  0.00000000000E+00 0. -1.
         21   -1    0    0  502  503 -0.00000000000E+00 -0.00000000000E+00 -0.56843640499E+01  0.56843640499E+01  0.00000000000E+00 0.  1.
          2    1    1    2  501    0  0.21023556933E+02  0.73146982632E+01  0.82232279329E+02  0.85191798434E+02  0.00000000000E+00 0. -1.
         -2    1    1    2    0  503 -0.21023556933E+02 -0.73146982632E+01  0.25256832192E+02  0.33666041186E+02  0.00000000000E+00 0.  1.
</event>
<event>
 4    1  0.1768739E+004  0.4667964E+02  0.7546771E-02  0.1313248E+00
         21   -1    0    0  501  502  0.00000000000E+00  0.00000000000E+00  0.14836757875E+03  0.14836757875E+03  0.00000000000E+00 0. -1.
         21   -1    0    0  502  503 -0.00000000000E+00 -0.00000000000E+00 -0.19774413521E+02  0.19774413521E+02  0.00000000000E+00 0.  1.
          2    1    1    2  501    0  0.42178575513E+02 -0.19998919279E+02  0.10694152567E+03  0.11668538433E+03  0.00000000000E+00 0. -1.
         -2    1    1    2    0  503 -0.42178575513E+02  0.19998919279E+02  0.21651639556E+02  0.51456607934E+02  0.00000000000E+00 0.  1.
</event>
<event>
 4    1  0.1768739E+004  0.2355001E+02  0.7546771E-02  0.1485705E+00
         21   -1    0    0  501  502  0.00000000000E+00  0.00000000000E+00  0.94519479381E+01  0.94519479381E+01  0.00000000000E+00 0. -1.
         21   -1    0    0  502  503 -0.00000000000E+00 -0.00000000000E+00 -0.68237022108E+02  0.68237022108E+02  0.00000000000E+00 0.  1.
          2    1    1    2  501    0  0.23540009993E+02  0.68616293647E+00 -0.43932742853E+02  0.49846652693E+02  0.00000000000E+00 0.  1.
         -2    1    1    2    0  503 -0.23540009993E+02 -0.68616293647E+00 -0.14852331317E+02  0.27842317353E+02  0.00000000000E+00 0. -1.
</event>
<event>
 4    1  0.1768739E+004  0.2347546E+02  0.7546771E-02  0.1486612E+00
         21   -1    0    0  501  502  0.00000000000E+00  0.00000000000E+00  0.78970448905E+00  0.78970448905E+00  0.00000000000E+00 0. -1.
         21   -1    0    0  502  503 -0.00000000000E+00 -0.00000000000E+00 -0.80564579148E+03  0.80564579148E+03  0.00000000000E+00 0.  1.
          2    1    1    2  501    0 -0.14359685099E+02  0.18571398605E+02 -0.25493788189E+03  0.25601644679E+03  0.00000000000E+00 0. -1.
         -2    1    1    2    0  503  0.14359685099E+02 -0.18571398605E+02 -0.54991820510E+03  0.55041904918E+03  0.00000000000E+00 0.  1.
</event>
<event>
 4    1  0.1768739E+004  0.2261763E+02  0.7546771E-02  0.1497356E+00
         21   -1    0    0  503  502  0.00000000000E+00  0.00000000000E+00  0.22272115451E+01  0.22272115451E+01  0.00000000000E+00 0. -1.
         21   -1    0    0  501  503 -0.00000000000E+00 -0.00000000000E+00 -0.24912101745E+03  0.24912101745E+03  0.00000000000E+00 0.  1.
          2    1    1    2  501    0  0.26940353007E+01  0.22456607608E+02 -0.15854992052E+03  0.16015503223E+03  0.00000000000E+00 0.  1.
         -2    1    1    2    0  502 -0.26940353007E+01 -0.22456607608E+02 -0.88343885382E+02  0.91193196763E+02  0.00000000000E+00 0. -1.
</event>
<event>
 4    1  0.1768739E+004  0.2539230E+02  0.7546771E-02  0.1464462E+00
         21   -1    0    0  501  502  0.00000000000E+00  0.00000000000E+00  0.24497678796E+02  0.24497678796E+02  0.00000000000E+00 0.  1.
         21   -1    0    0  502  503 -0.00000000000E+00 -0.00000000000E+00 -0.28766954145E+02  0.28766954145E+02  0.00000000000E+00 0. -1.
          2    1    1    2  501    0 -0.16886350886E+02 -0.18963655845E+02  0.56333848329E+01  0.26009692692E+02  0.00000000000E+00 0.  1.
         -2    1    1    2    0  503  0.16886350886E+02  0.18963655845E+02 -0.99026601816E+01  0.27254940248E+02  0.00000000000E+00 0. -1.
</event>
<event>
 4    1  0.1768739E+004  0.2144760E+02  0.7546771E-02  0.1512969E+00
         21   -1    0    0  501  502  0.00000000000E+00  0.00000000000E+00  0.55431740202E+00  0.55431740202E+00  0.00000000000E+00 0. -1.
         21   -1    0    0  502  503 -0.00000000000E+00 -0.00000000000E+00 -0.85845314532E+03  0.85845314532E+03  0.00000000000E+00 0.  1.
          2    1    1    2  501    0 -0.21025690410E+02 -0.42331713599E+01 -0.50735154234E+03  0.50780467398E+03  0.00000000000E+00 0. -1.
         -2    1    1    2    0  503  0.21025690410E+02  0.42331713599E+01 -0.35054728558E+03  0.35120278875E+03  0.00000000000E+00 0.  1.
</event>
<event>
 4    1  0.1768739E+004  0.2256924E+02  0.7546771E-02  0.1497979E+00
         21   -1    0    0  503  502  0.00000000000E+00  0.00000000000E+00  0.10910893538E+04  0.10910893538E+04  0.00000000000E+00 0.  1.
         21   -1    0    0  501  503 -0.00000000000E+00 -0.00000000000E+00 -0.48542025124E+00  0.48542025124E+00  0.00000000000E+00 0. -1.
          2    1    1    2  501    0  0.15547687313E+02  0.16359713756E+02  0.43853940636E+03  0.43911978064E+03  0.00000000000E+00 0.  1.
         -2    1    1    2    0  502 -0.15547687313E+02 -0.16359713756E+02  0.65206452717E+03  0.65245499340E+03  0.00000000000E+00 0. -1.
</event>
<event>
 4    1  0.1768739E+004  0.3257727E+02  0.7546771E-02  0.1398446E+00
         21   -1    0    0  501  502  0.00000000000E+00  0.00000000000E+00  0.29693207358E+02  0.29693207358E+02  0.00000000000E+00 0.  1.
         21   -1    0    0  502  503 -0.00000000000E+00 -0.00000000000E+00 -0.10443061636E+03  0.10443061636E+03  0.00000000000E+00 0. -1.
          2    1    1    2  501    0  0.22955161608E+02  0.23115775043E+02  0.17019673832E+02  0.36755241771E+02  0.00000000000E+00 0.  1.
         -2    1    1    2    0  503 -0.22955161608E+02 -0.23115775043E+02 -0.91757082838E+02  0.97368581951E+02  0.00000000000E+00 0. -1.
</event>
<event>
 4    1  0.1768739E+004  0.3774060E+02  0.7546771E-02  0.1362260E+00
         21   -1    0    0  501  502  0.00000000000E+00  0.00000000000E+00  0.13771599844E+02  0.13771599844E+02  0.00000000000E+00 0.  1.
         21   -1    0    0  502  503 -0.00000000000E+00 -0.00000000000E+00 -0.10418024622E+03  0.10418024622E+03  0.00000000000E+00 0. -1.
          2    1    1    2  501    0  0.33438913092E+02  0.17498333211E+02 -0.40188910233E+02  0.55131670386E+02  0.00000000000E+00 0.  1.
         -2    1    1    2    0  503 -0.33438913092E+02 -0.17498333211E+02 -0.50219736147E+02  0.62820175681E+02  0.00000000000E+00 0. -1.
</event>
<event>
 4    1  0.1768739E+004  0.2017115E+02  0.7546771E-02  0.1531435E+00
         21   -1    0    0  501  502  0.00000000000E+00  0.00000000000E+00  0.41924551530E+01  0.41924551530E+01  0.00000000000E+00 0.  1.
         21   -1    0    0  502  503 -0.00000000000E+00 -0.00000000000E+00 -0.52460170665E+03  0.52460170665E+03  0.00000000000E+00 0. -1.
          2    1    1    2  501    0 -0.20170890821E+02 -0.10126541802E+00 -0.21513400708E+02  0.29490701945E+02  0.00000000000E+00 0.  1.
         -2    1    1    2    0  503  0.20170890821E+02  0.10126541802E+00 -0.49889585079E+03  0.49930345986E+03  0.00000000000E+00 0. -1.
</event>
<event>
 4    1  0.1768739E+004  0.2539396E+02  0.7546771E-02  0.1464444E+00
         21   -1    0    0  501  502  0.00000000000E+00  0.00000000000E+00  0.10094944106E+03  0.10094944106E+03  0.00000000000E+00 0. -1.
         21   -1    0    0  502  503 -0.00000000000E+00 -0.00000000000E+00 -0.21140725631E+02  0.21140725631E+02  0.00000000000E+00 0.  1.
          2    1    1    2  501    0 -0.19181895103E+02  0.16640558277E+02  0.90899474663E+02  0.94379911918E+02  0.00000000000E+00 0. -1.
         -2    1    1    2    0  503  0.19181895103E+02 -0.16640558277E+02 -0.11090759231E+02  0.27710254777E+02  0.00000000000E+00 0.  1.
</event>
<event>
 4    1  0.1768739E+004  0.2179822E+02  0.7546771E-02  0.1508167E+00
         21   -1    0    0  503  502  0.00000000000E+00  0.00000000000E+00  0.39769629081E+02  0.39769629081E+02  0.00000000000E+00 0. -1.
         21   -1    0    0  501  503 -0.00000000000E+00 -0.00000000000E+00 -0.14909138386E+02  0.14909138386E+02  0.00000000000E+00 0.  1.
          2    1    1    2  501    0  0.11999444144E+02 -0.18198232074E+02  0.24614568843E+02  0.32879162242E+02  0.00000000000E+00 0. -1.
         -2    1    1    2    0  502 -0.11999444144E+02  0.18198232074E+02  0.24592185266E+00  0.21799605225E+02  0.00000000000E+00 0.  1.
</event>
<event>
 4    1  0.1768739E+004  0.2080456E+02  0.7546771E-02  0.1522074E+00
         21   -1    0    0  501  502  0.00000000000E+00  0.00000000000E+00  0.28517679970E+01  0.28517679970E+01  0.00000000000E+00 0.  1.
         21   -1    0    0  502  503 -0.00000000000E+00 -0.00000000000E+00 -0.15359913026E+03  0.15359913026E+03  0.00000000000E+00 0. -1.
          2    1    1    2  501    0 -0.20037179821E+02  0.55983153385E+01 -0.66851080644E+02  0.70013546497E+02  0.00000000000E+00 0.  1.
         -2    1    1    2    0  503  0.20037179821E+02 -0.55983153385E+01 -0.83896281617E+02  0.86437351758E+02  0.00000000000E+00 0. -1.
</event>
<event>
 4    1  0.1768739E+004  0.3267546E+02  0.7546771E-02  0.1397686E+00
         21   -1    0    0  503  502  0.00000000000E+00  0.00000000000E+00  0.10492650892E+01  0.10492650892E+01  0.00000000000E+00 0. -1.
         21   -1    0    0  501  503 -0.00000000000E+00 -0.00000000000E+00 -0.10246446950E+04  0.10246446950E+04  0.00000000000E+00 0.  1.
          2    1    1    2  501    0 -0.68908780766E+01  0.31940590911E+02 -0.55445538267E+03  0.55541737182E+03  0.00000000000E+00 0.  1.
         -2    1    1    2    0  502  0.68908780766E+01 -0.31940590911E+02 -0.46914004723E+03  0.47027658826E+03  0.00000000000E+00 0. -1.
</event>
<event>
 4    1  0.1768739E+004  0.2154189E+02  0.7546771E-02  0.1511667E+00
         21   -1    0    0  501  502  0.00000000000E+00  0.00000000000E+00  0.39524067647E+01  0.39524067647E+01  0.00000000000E+00 0.  1.
         21   -1    0    0  502  503 -0.00000000000E+00 -0.00000000000E+00 -0.12248301176E+03  0.12248301176E+03  0.00000000000E+00 0. -1.
          2    1    1    2  501    0 -0.73763730962E+01 -0.20239614984E+02 -0.46399854369E+02  0.51156616192E+02  0.00000000000E+00 0. -1.
         -2    1    1    2    0  503  0.73763730962E+01  0.20239614984E+02 -0.72130750622E+02  0.75278802329E+02  0.00000000000E+00 0.  1.
</event>
<event>
 4    1  0.1768739E+004  0.2438503E+02  0.7546771E-02  0.1475802E+00
         21   -1    0    0  503  502  0.00000000000E+00  0.00000000000E+00  0.33366963473E+01  0.33366963473E+01  0.00000000000E+00 0.  1.
         21   -1    0    0  501  503 -0.00000000000E+00 -0.00000000000E+00 -0.45846177182E+03  0.45846177182E+03  0.00000000000E+00 0. -1.
          2    1    1    2  501    0  0.80199804180E+00 -0.24371841641E+02 -0.40809103186E+03  0.40881893320E+03  0.00000000000E+00 0. -1.
         -2    1    1    2    0  502 -0.80199804180E+00  0.24371841641E+02 -0.47034043616E+02  0.52979534961E+02  0.00000000000E+00 0.  1.
</event>
<event>
 4    1  0.1768739E+004  0.3320754E+02  0.7546771E-02  0.1393622E+00
         21   -1    0    0  501  502  0.00000000000E+00  0.00000000000E+00  0.37845106310E+02  0.37845106310E+02  0.00000000000E+00 0.  1.
         21   -1    0    0  502  503 -0.00000000000E+00 -0.00000000000E+00 -0.30674852671E+02  0.30674852671E+02  0.00000000000E+00 0. -1.
          2    1    1    2  501    0 -0.21650386218E+02 -0.25179391605E+02  0.11252976677E+02  0.35062379684E+02  0.00000000000E+00 0. -1.
         -2    1    1    2    0  503  0.21650386218E+02  0.25179391605E+02 -0.40827230377E+01  0.33457579297E+02  0.00000000000E+00 0.  1.
</event>
<event>
 4    1  0.1768739E+004  0.3526820E+02  0.7546771E-02  0.1378687E+00
         21   -1    0    0  503  502  0.00000000000E+00  0.00000000000E+00  0.68033283780E+02  0.68033283780E+02  0.00000000000E+00 0. -1.
         21   -1    0    0  501  503 -0.00000000000E+00 -0.00000000000E+00 -0.53291427328E+02  0.53291427328E+02  0.00000000000E+00 0.  1.
          2    1    1    2  501    0  0.34224130771E+01  0.35101749570E+02 -0.41796502456E+02  0.54688146355E+02  0.00000000000E+00 0.  1.
         -2    1    1    2    0  502 -0.34224130771E+01 -0.35101749570E+02  0.56538358908E+02  0.66636564754E+02  0.00000000000E+00 0. -1.
</event>
<event>
 4    1  0.1768739E+004  0.2616024E+02  0.7546771E-02  0.1456231E+00
         21   -1    0    0  503  502  0.00000000000E+00  0.00000000000E+00  0.19925958797E+03  0.19925958797E+03  0.00000000000E+00 0. -1.
         21   -1    0    0  501  503 -0.00000000000E+00 -0.00000000000E+00 -0.41655060624E+01  0.41655060624E+01  0.00000000000E+00 0.  1.
          2    1    1    2  501    0  0.38235926879E+00 -0.26157446058E+02  0.54938226359E+02  0.60848721419E+02  0.00000000000E+00 0.  1.
         -2    1    1    2    0  502 -0.38235926879E+00  0.26157446058E+02  0.14015585555E+03  0.14257637261E+03  0.00000000000E+00 0. -1.
</event>
<event>
 4    1  0.1768739E+004  0.2332765E+02  0.7546771E-02  0.1488424E+00
         21   -1    0    0  501  502  0.00000000000E+00  0.00000000000E+00  0.17141848421E+02  0.17141848421E+02  0.00000000000E+00 0. -1.
         21   -1    0    0  502  503 -0.00000000000E+00 -0.00000000000E+00 -0.68272696766E+02  0.68272696766E+02  0.00000000000E+00 0.  1.
          2    1    1    2  501    0  0.23326688566E+02 -0.21159895564E+00  0.56727448186E+01  0.24007482320E+02  0.00000000000E+00 0. -1.
         -2    1    1    2    0  503 -0.23326688566E+02  0.21159895564E+00 -0.56803593164E+02  0.61407062867E+02  0.00000000000E+00 0.  1.
</event>
<event>
 4    1  0.1768739E+004  0.4927375E+02  0.7546771E-02  0.1301352E+00
         21   -1    0    0  503  502  0.00000000000E+00  0.00000000000E+00  0.31530534009E+02  0.31530534009E+02  0.00000000000E+00 0.  1.
         21   -1    0    0  501  503 -0.00000000000E+00 -0.00000000000E+00 -0.23924802663E+03  0.23924802663E+03  0.00000000000E+00 0. -1.
          2    1    1    2  501    0  0.44480260102E+02  0.21199263484E+02 -0.21535175526E+03  0.22091690928E+03  0.00000000000E+00 0. -1.
         -2    1    1    2    0  502 -0.44480260102E+02 -0.21199263484E+02  0.76342626355E+01  0.49861651366E+02  0.00000000000E+00 0.  1.
</event>
<event>
 4    1  0.1768739E+004  0.2491680E+02  0.7546771E-02  0.1469736E+00
         21   -1    0    0  501  502  0.00000000000E+00  0.00000000000E+00  0.80496543562E+02  0.80496543562E+02  0.00000000000E+00 0.  1.
         21   -1    0    0  502  503 -0.00000000000E+00 -0.00000000000E+00 -0.20989609592E+02  0.20989609592E+02  0.00000000000E+00 0. -1.
          2    1    1    2  501    0 -0.23798838290E+02 -0.73798629482E+01  0.70110834659E+02  0.74406829106E+02  0.00000000000E+00 0.  1.
         -2    1    1    2    0  503  0.23798838290E+02  0.73798629482E+01 -0.10603900688E+02  0.27079324048E+02  0.00000000000E+00 0. -1.
</event>
<event>
 4    1  0.1768739E+004  0.2171026E+02  0.7546771E-02  0.1509361E+00
         21   -1    0    0  503  502  0.00000000000E+00  0.00000000000E+00  0.40941999087E+01  0.40941999087E+01  0.00000000000E+00 0. -1.
         21   -1    0    0  501  503 -0.00000000000E+00 -0.00000000000E+00 -0.25535351627E+03  0.25535351627E+03  0.00000000000E+00 0.  1.
          2    1    1    2  501    0  0.24290476424E+00 -0.21708897264E+02 -0.22176226370E+03  0.22282243340E+03  0.00000000000E+00 0.  1.
         -2    1    1    2    0  502 -0.24290476424E+00  0.21708897264E+02 -0.29497052656E+02  0.36625282778E+02  0.00000000000E+00 0. -1.
</event>
<event>
 4    1  0.1768739E+004  0.3667337E+02  0.7546771E-02  0.1369166E+00
         21   -1    0    0  503  502  0.00000000000E+00  0.00000000000E+00  0.38811031767E+02  0.38811031767E+02  0.00000000000E+00 0.  1.
         21   -1    0    0  501  503 -0.00000000000E+00 -0.00000000000E+00 -0.38770916565E+02  0.38770916565E+02  0.00000000000E+00 0. -1.
          2    1    1    2  501    0 -0.12978776414E+02 -0.34299966878E+02 -0.12621261638E+02  0.38784437735E+02  0.00000000000E+00 0. -1.
         -2    1    1    2    0  502  0.12978776414E+02  0.34299966878E+02  0.12661376840E+02  0.38797510597E+02  0.00000000000E+00 0.  1.
</event>
<event>
 4    1  0.1768739E+004  0.2054009E+02  0.7546771E-02  0.1525934E+00
         21   -1    0    0  503  502  0.00000000000E+00  0.00000000000E+00  0.98749611721E+02  0.98749611721E+02  0.00000000000E+00 0.  1.
         21   -1    0    0  501  503 -0.00000000000E+00 -0.00000000000E+00 -0.43682770689E+01  0.43682770689E+01  0.00000000000E+00 0. -1.
          2    1    1    2  501    0 -0.20507422137E+02 -0.11579193758E+01  0.54830225550E+02  0.58551249123E+02  0.00000000000E+00 0.  1.
         -2    1    1    2    0  502  0.20507422137E+02  0.11579193758E+01  0.39551109103E+02  0.44566639668E+02  0.00000000000E+00 0. -1.
</event>
<event>
 4    1  0.1768739E+004  0.5306748E+02  0.7546771E-02  0.1285394E+00
         21   -1    0    0  501  502  0.00000000000E+00  0.00000000000E+00  0.32798994015E+02  0.32798994015E+02  0.00000000000E+00 0. -1.
         21   -1    0    0  502  503 -0.00000000000E+00 -0.00000000000E+00 -0.87229571120E+02  0.87229571120E+02  0.00000000000E+00 0.  1.
          2    1    1    2  501    0  0.16876284438E+02  0.50312512502E+02 -0.19698373023E+02  0.56605510249E+02  0.00000000000E+00 0.  1.
         -2    1    1    2    0  503 -0.16876284438E+02 -0.50312512502E+02 -0.34732204082E+02  0.63423054886E+02  0.00000000000E+00 0. -1.
</event>
<event>
 4    1  0.1768739E+004  0.2164533E+02  0.7546771E-02  0.1510247E+00
         21   -1    0    0  501  502  0.00000000000E+00  0.00000000000E+00  0.39430946896E+02  0.39430946896E+02  0.00000000000E+00 0.  1.
         21   -1    0    0  502  503 -0.00000000000E+00 -0.00000000000E+00 -0.13833733850E+02  0.13833733850E+02  0.00000000000E+00 0. -1.
          2    1    1    2  501    0  0.21081616392E+02 -0.49077376747E+01  0.22801933906E+02  0.31439602871E+02  0.00000000000E+00 0.  1.
         -2    1    1    2    0  503 -0.21081616392E+02  0.49077376747E+01  0.27952791395E+01  0.21825077875E+02  0.00000000000E+00 0. -1.
</event>
<event>
 4    1  0.1768739E+004  0.3041182E+02  0.7546771E-02  0.1416051E+00
         21   -1    0    0  503  502  0.00000000000E+00  0.00000000000E+00  0.98961655479E+03  0.98961655479E+03  0.00000000000E+00 0. -1.
         21   -1    0    0  501  503 -0.00000000000E+00 -0.00000000000E+00 -0.95180050550E+00  0.95180050550E+00  0.00000000000E+00 0.  1.
          2    1    1    2  501    0  0.36054726607E+00  0.30409681350E+02  0.42771802504E+03  0.42879784009E+03  0.00000000000E+00 0.  1.
         -2    1    1    2    0  502 -0.36054726607E+00 -0.30409681350E+02  0.56094672924E+03  0.56177051521E+03  0.00000000000E+00 0. -1.
</event>
<event>
 4    1  0.1768739E+004  0.2224221E+02  0.7546771E-02  0.1502239E+00
         21   -1    0    0  503  502  0.00000000000E+00  0.00000000000E+00  0.15403372939E+03  0.15403372939E+03  0.00000000000E+00 0.  1.
         21   -1    0    0  501  503 -0.00000000000E+00 -0.00000000000E+00 -0.39503455570E+01  0.39503455570E+01  0.00000000000E+00 0. -1.
          2    1    1    2  501    0  0.42093745712E+01  0.21840258953E+02  0.40885212776E+02  0.46543703862E+02  0.00000000000E+00 0. -1.
         -2    1    1    2    0  502 -0.42093745712E+01 -0.21840258953E+02  0.10919817105E+03  0.11144037108E+03  0.00000000000E+00 0.  1.
</event>
<event>
 4    1  0.1768739E+004  0.2069285E+02  0.7546771E-02  0.1523696E+00
         21   -1    0    0  503  502  0.00000000000E+00  0.00000000000E+00  0.19150927923E+01  0.19150927923E+01  0.00000000000E+00 0.  1.
         21   -1    0    0  501  503 -0.00000000000E+00 -0.00000000000E+00 -0.58742035519E+03  0.58742035519E+03  0.00000000000E+00 0. -1.
          2    1    1    2  501    0 -0.11246985008E+02  0.17369497723E+02 -0.52465650195E+03  0.52506441430E+03  0.00000000000E+00 0. -1.
         -2    1    1    2    0  502  0.11246985008E+02 -0.17369497723E+02 -0.60848760446E+02  0.64271033683E+02  0.00000000000E+00 0.  1.
</event>
<event>
 4    1  0.1768739E+004  0.2715732E+02  0.7546771E-02  0.1446034E+00
         21   -1    0    0  501  502  0.00000000000E+00  0.00000000000E+00  0.43952458106E+02  0.43952458106E+02  0.00000000000E+00 0. -1.
         21   -1    0    0  502  503 -0.00000000000E+00 -0.00000000000E+00 -0.52035514493E+02  0.52035514493E+02  0.00000000000E+00 0.  1.
          2    1    1    2  501    0  0.15575649430E+02  0.22246782713E+02  0.35463348678E+02  0.44667317982E+02  0.00000000000E+00 0. -1.
         -2    1    1    2    0  503 -0.15575649430E+02 -0.22246782713E+02 -0.43546405065E+02  0.51320654617E+02  0.00000000000E+00 0.  1.
</event>
<event>
 4    1  0.1768739E+004  0.2951372E+02  0.7546771E-02  0.1423870E+00
         21   -1    0    0  501  502  0.00000000000E+00  0.00000000000E+00  0.30140196814E+02  0.30140196814E+02  0.00000000000E+00 0.  1.
         21   -1    0    0  502  503 -0.00000000000E+00 -0.00000000000E+00 -0.11567875277E+03  0.11567875277E+03  0.00000000000E+00 0. -1.
          2    1    1    2  501    0 -0.17870007996E+02  0.23488776400E+02  0.20379245333E+02  0.35866048610E+02  0.00000000000E+00 0.  1.
         -2    1    1    2    0  503  0.17870007996E+02 -0.23488776400E+02 -0.10591780129E+03  0.10995290097E+03  0.00000000000E+00 0. -1.
</event>
<event>
 4    1  0.1768739E+004  0.2171766E+02  0.7546771E-02  0.1509260E+00
         21   -1    0    0  501  502  0.00000000000E+00  0.00000000000E+00  0.37088116471E+02  0.37088116471E+02  0.00000000000E+00 0. -1.
         21   -1    0    0  502  503 -0.00000000000E+00 -0.00000000000E+00 -0.14077071044E+02  0.14077071044E+02  0.00000000000E+00 0.  1.
          2    1    1    2  501    0 -0.11722117676E+02  0.18282470223E+02  0.19456825579E+02  0.29158614883E+02  0.00000000000E+00 0. -1.
         -2    1    1    2    0  503  0.11722117676E+02 -0.18282470223E+02  0.35542198489E+01  0.22006572632E+02  0.00000000000E+00 0.  1.
</event>
<event>
 4    1  0.1768739E+004  0.6296969E+02  0.7546771E-02  0.1250063E+00
         21   -1    0    0  503  502  0.00000000000E+00  0.00000000000E+00  0.11249382912E+02  0.11249382912E+02  0.00000000000E+00 0. -1.
         21   -1    0    0  501  503 -0.00000000000E+00 -0.00000000000E+00 -0.57324007168E+03  0.57324007168E+03  0.00000000000E+00 0.  1.
          2    1    1    2  501    0 -0.51203232017E+02 -0.36652571372E+02 -0.46235418183E+03  0.46662251490E+03  0.00000000000E+00 0.  1.
         -2    1    1    2    0  502  0.51203232017E+02  0.36652571372E+02 -0.99636506933E+02  0.11786693969E+03  0.00000000000E+00 0. -1.
</event>
<event>
 4    1  0.1768739E+004  0.2959487E+02  0.7546771E-02  0.1423150E+00
         21   -1    0    0  503  502  0.00000000000E+00  0.00000000000E+00  0.84163755081E+02  0.84163755081E+02  0.00000000000E+00 0.  1.
         21   -1    0    0  501  503 -0.00000000000E+00 -0.00000000000E+00 -0.13291906642E+02  0.13291906642E+02  0.00000000000E+00 0. -1.
          2    1    1    2  501    0 -0.35259989635E+01 -0.29384076339E+02  0.12733034221E+02  0.32217802089E+02  0.00000000000E+00 0.  1.
         -2    1    1    2    0  502  0.35259989635E+01  0.29384076339E+02  0.58138814218E+02  0.65237859634E+02  0.00000000000E+00 0. -1.
</event>
<event>
 4    1  0.1768739E+004  0.2050978E+02  0.7546771E-02  0.1526380E+00
         21   -1    0    0  501  502  0.00000000000E+00  0.00000000000E+00  0.33389627592E+01  0.33389627592E+01  0.00000000000E+00 0. -1.
         21   -1    0    0  502  503 -0.00000000000E+00 -0.00000000000E+00 -0.68704450203E+03  0.68704450203E+03  0.00000000000E+00 0.  1.
          2    1    1    2  501    0 -0.17791193453E+02  0.10204141711E+02 -0.29911125439E+02  0.36267430259E+02  0.00000000000E+00 0. -1.
         -2    1    1    2    0  503  0.17791193453E+02 -0.10204141711E+02 -0.65379441383E+03  0.65411603453E+03  0.00000000000E+00 0.  1.
</event>
<event>
 4    1  0.1768739E+004  0.2807366E+02  0.7546771E-02  0.1437111E+00
         21   -1    0    0  501  502  0.00000000000E+00  0.00000000000E+00  0.17235400453E+02  0.17235400453E+02  0.00000000000E+00 0.  1.
         21   -1    0    0  502  503 -0.00000000000E+00 -0.00000000000E+00 -0.12622386670E+03  0.12622386670E+03  0.00000000000E+00 0. -1.
          2    1    1    2  501    0  0.16095319332E+02  0.23001549096E+02  0.27875067434E+01  0.28211713153E+02  0.00000000000E+00 0.  1.
         -2    1    1    2    0  503 -0.16095319332E+02 -0.23001549096E+02 -0.11177597299E+03  0.11524755400E+03  0.00000000000E+00 0. -1.
</event>
<event>
 4    1  0.1768739E+004  0.2510719E+02  0.7546771E-02  0.1467608E+00
         21   -1    0    0  503  502  0.00000000000E+00  0.00000000000E+00  0.53371352069E+03  0.53371352069E+03  0.00000000000E+00 0. -1.
         21   -1    0    0  501  503 -0.00000000000E+00 -0.00000000000E+00 -0.16683787449E+01  0.16683787449E+01  0.00000000000E+00 0.  1.
          2    1    1    2  501    0 -0.23800121199E+02  0.79953270116E+01  0.12135424974E+03  0.12392427104E+03  0.00000000000E+00 0.  1.
         -2    1    1    2    0  502  0.23800121199E+02 -0.79953270116E+01  0.41069089221E+03  0.41145762839E+03  0.00000000000E+00 0. -1.
</event>
<event>
 4    1  0.1768739E+004  0.3233100E+02  0.7546771E-02  0.1400365E+00
         21   -1    0    0  501  502  0.00000000000E+00  0.00000000000E+00  0.26087407387E+02  0.26087407387E+02  0.00000000000E+00 0. -1.
         21   -1    0    0  502  503 -0.00000000000E+00 -0.00000000000E+00 -0.48960294364E+02  0.48960294364E+02  0.00000000000E+00 0.  1.
          2    1    1    2  501    0  0.32034145429E+02  0.43711836672E+01 -0.27427248432E+02  0.42397496112E+02  0.00000000000E+00 0.  1.
         -2    1    1    2    0  503 -0.32034145429E+02 -0.43711836672E+01  0.45543614548E+01  0.32650205639E+02  0.00000000000E+00 0. -1.
</event>
<event>
 4    1  0.1768739E+004  0.2287122E+02  0.7546771E-02  0.1494122E+00
         21   -1    0    0  501  502  0.00000000000E+00  0.00000000000E+00  0.59381532217E+01  0.59381532217E+01  0.00000000000E+00 0.  1.
         21   -1    0    0  502  503 -0.00000000000E+00 -0.00000000000E+00 -0.12406259167E+03  0.12406259167E+03  0.00000000000E+00 0. -1.
          2    1    1    2  501    0 -0.41161203397E+01 -0.22497780730E+02 -0.24061206838E+02  0.33196901345E+02  0.00000000000E+00 0.  1.
         -2    1    1    2    0  503  0.41161203397E+01  0.22497780730E+02 -0.94063231605E+02  0.96803843542E+02  0.00000000000E+00 0. -1.
</event>
<event>
 4    1  0.1768739E+004  0.4601495E+02  0.7546771E-02  0.1316441E+00
         21   -1    0    0  503  502  0.00000000000E+00  0.00000000000E+00  0.22702964983E+02  0.22702964983E+02  0.00000000000E+00 0. -1.
         21   -1    0    0  501  503 -0.00000000000E+00 -0.00000000000E+00 -0.26133467020E+03  0.26133467020E+03  0.00000000000E+00 0.  1.
          2    1    1    2  501    0 -0.13703275760E+02 -0.43927169514E+02 -0.23320778576E+03  0.23770411719E+03  0.00000000000E+00 0.  1.
         -2    1    1    2    0  502  0.13703275760E+02  0.43927169514E+02 -0.54239194616E+01  0.46333518001E+02  0.00000000000E+00 0. -1.
</event>
<event>
 4    1  0.1768739E+004  0.2330412E+02  0.7546771E-02  0.1488714E+00
         21   -1    0    0  501  502  0.00000000000E+00  0.00000000000E+00  0.24784541193E+01  0.24784541193E+01  0.00000000000E+00 0.  1.
         21   -1    0    0  502  503 -0.00000000000E+00 -0.00000000000E+00 -0.35924695195E+03  0.35924695195E+03  0.00000000000E+00 0. -1.
          2    1    1    2  501    0  0.15686620255E+02 -0.17234034988E+02 -0.65427719801E+02  0.69454075009E+02  0.00000000000E+00 0.  1.
         -2    1    1    2    0  503 -0.15686620255E+02  0.17234034988E+02 -0.29134077803E+03  0.29227133106E+03  0.00000000000E+00 0. -1.
</event>
<event>
 4    1  0.1768739E+004  0.3988971E+02  0.7546771E-02  0.1349133E+00
         21   -1    0    0  501  502  0.00000000000E+00  0.00000000000E+00  0.37289491332E+02  0.37289491332E+02  0.00000000000E+00 0.  1.
         21   -1    0    0  502  503 -0.00000000000E+00 -0.00000000000E+00 -0.90192232558E+02  0.90192232558E+02  0.00000000000E+00 0. -1.
          2    1    1    2  501    0 -0.17031592803E+02 -0.36070960198E+02  0.19816131660E+02  0.44540637590E+02  0.00000000000E+00 0.  1.
         -2    1    1    2    0  503  0.17031592803E+02  0.36070960198E+02 -0.72718872885E+02  0.82941086300E+02  0.00000000000E+00 0. -1.
</event>
<event>
 4    1  0.1768739E+004  0.2856720E+02  0.7546771E-02  0.1432470E+00
         21   -1    0    0  501  502  0.00000000000E+00  0.00000000000E+00  0.58046038741E+02  0.58046038741E+02  0.00000000000E+00 0.  1.
         21   -1    0    0  502  503 -0.00000000000E+00 -0.00000000000E+00 -0.15821992174E+02  0.15821992174E+02  0.00000000000E+00 0. -1.
          2    1    1    2  501    0  0.28436562683E+02 -0.27289268493E+01  0.33439875987E+02  0.43980796320E+02  0.00000000000E+00 0.  1.
         -2    1    1    2    0  503 -0.28436562683E+02  0.27289268493E+01  0.87841705800E+01  0.29887234595E+02  0.00000000000E+00 0. -1.
</event>
<event>
 4    1  0.1768739E+004  0.3549727E+02  0.7546771E-02  0.1377101E+00
         21   -1    0    0  503  502  0.00000000000E+00  0.00000000000E+00  0.27307051187E+03  0.27307051187E+03  0.00000000000E+00 0.  1.
         21   -1    0    0  501  503 -0.00000000000E+00 -0.00000000000E+00 -0.52817274225E+01  0.52817274225E+01  0.00000000000E+00 0. -1.
          2    1    1    2  501    0 -0.13267489415E+02 -0.32924614414E+02  0.84423893431E+02  0.91583024036E+02  0.00000000000E+00 0. -1.
         -2    1    1    2    0  502  0.13267489415E+02  0.32924614414E+02  0.18336489101E+03  0.18676921525E+03  0.00000000000E+00 0.  1.
</event>
<event>
 4    1  0.1768739E+004  0.2184183E+02  0.7546771E-02  0.1507577E+00
         21   -1    0    0  501  502  0.00000000000E+00  0.00000000000E+00  0.24780719578E+01  0.24780719578E+01  0.00000000000E+00 0.  1.
         21   -1    0    0  502  503 -0.00000000000E+00 -0.00000000000E+00 -0.19335200337E+03  0.19335200337E+03  0.00000000000E+00 0. -1.
          2    1    1    2  501    0  0.13970195091E+02 -0.16789848605E+02 -0.88993681040E+02  0.91634822159E+02  0.00000000000E+00 0.  1.
         -2    1    1    2    0  503 -0.13970195091E+02  0.16789848605E+02 -0.10188025037E+03  0.10419525317E+03  0.00000000000E+00 0. -1.
</event>
<event>
 4    1  0.1768739E+004  0.2195783E+02  0.7546771E-02  0.1506016E+00
         21   -1    0    0  501  502  0.00000000000E+00  0.00000000000E+00  0.12332364572E+03  0.12332364572E+03  0.00000000000E+00 0.  1.
         21   -1    0    0  502  503 -0.00000000000E+00 -0.00000000000E+00 -0.49516254041E+01  0.49516254041E+01  0.00000000000E+00 0. -1.
          2    1    1    2  501    0 -0.21465833829E+02 -0.46221371311E+01  0.88608412241E+02  0.91288536485E+02  0.00000000000E+00 0.  1.
         -2    1    1    2    0  503  0.21465833829E+02  0.46221371311E+01  0.29763608074E+02  0.36986734639E+02  0.00000000000E+00 0. -1.
</event>
<event>
 4    1  0.1768739E+004  0.2216147E+02  0.7546771E-02  0.1503305E+00
         21   -1    0    0  503  502  0.00000000000E+00  0.00000000000E+00  0.69344013880E+01  0.69344013880E+01  0.00000000000E+00 0.  1.
         21   -1    0    0  501  503 -0.00000000000E+00 -0.00000000000E+00 -0.84508908744E+02  0.84508908744E+02  0.00000000000E+00 0. -1.
          2    1    1    2  501    0  0.21524615787E+02 -0.52746103753E+01 -0.20389191981E+02  0.30113946089E+02  0.00000000000E+00 0.  1.
         -2    1    1    2    0  502 -0.21524615787E+02  0.52746103753E+01 -0.57185315375E+02  0.61329364043E+02  0.00000000000E+00 0. -1.
</event>
<event>
 4    1  0.1768739E+004  0.2688707E+02  0.7546771E-02  0.1448746E+00
         21   -1    0    0  501  502  0.00000000000E+00  0.00000000000E+00  0.18356487755E+03  0.18356487755E+03  0.00000000000E+00 0.  1.
         21   -1    0    0  502  503 -0.00000000000E+00 -0.00000000000E+00 -0.94897706313E+01  0.94897706313E+01  0.00000000000E+00 0. -1.
          2    1    1    2  501    0 -0.59226188089E+01  0.26226648855E+02  0.13207958094E+02  0.29956045813E+02  0.00000000000E+00 0. -1.
         -2    1    1    2    0  503  0.59226188089E+01 -0.26226648855E+02  0.16086714882E+03  0.16309860237E+03  0.00000000000E+00 0.  1.
</event>
<event>
 4    1  0.1768739E+004  0.3212116E+02  0.7546771E-02  0.1402017E+00
         21   -1    0    0  501  502  0.00000000000E+00  0.00000000000E+00  0.50510329084E+03  0.50510329084E+03  0.00000000000E+00 0. -1.
         21   -1    0    0  502  503 -0.00000000000E+00 -0.00000000000E+00 -0.13520469343E+02  0.13520469343E+02  0.00000000000E+00 0.  1.
          2    1    1    2  501    0  0.18018211422E+02  0.26591591261E+02  0.48471305487E+03  0.48577619768E+03  0.00000000000E+00 0. -1.
         -2    1    1    2    0  503 -0.18018211422E+02 -0.26591591261E+02  0.68697666191E+01  0.32847562498E+02  0.00000000000E+00 0.  1.
</event>
<event>
 4    1  0.1768739E+004  0.3783235E+02  0.7546771E-02  0.1361679E+00
         21   -1    0    0  501  502  0.00000000000E+00  0.00000000000E+00  0.78293551169E+02  0.78293551169E+02  0.00000000000E+00 0.  1.
         21   -1    0    0  502  503 -0.00000000000E+00 -0.00000000000E+00 -0.26076259788E+02  0.26076259788E+02  0.00000000000E+00 0. -1.
          2    1    1    2  501    0 -0.32411163586E+02  0.19514175007E+02  0.54640945974E+02  0.66459909180E+02  0.00000000000E+00 0. -1.
         -2    1    1    2    0  503  0.32411163586E+02 -0.19514175007E+02 -0.24236545935E+01  0.37909901778E+02  0.00000000000E+00 0.  1.
</event>
<event>
 4    1  0.1768739E+004  0.2987719E+02  0.7546771E-02  0.1420667E+00
         21   -1    0    0  501  502  0.00000000000E+00  0.00000000000E+00  0.19089509280E+04  0.19089509280E+04  0.00000000000E+00 0. -1.
         21   -1    0    0  502  503 -0.00000000000E+00 -0.00000000000E+00 -0.54344833046E+00  0.54344833046E+00  0.00000000000E+00 0.  1.
          2    1    1    2  501    0  0.19241013607E+01 -0.29815172233E+02  0.13108605029E+04  0.13112009399E+04  0.00000000000E+00 0. -1.
         -2    1    1    2    0  503 -0.19241013607E+01  0.29815172233E+02  0.59754697678E+03  0.59829343647E+03  0.00000000000E+00 0.  1.
</event>
<event>
 4    1  0.1768739E+004  0.2288651E+02  0.7546771E-02  0.1493928E+00
         21   -1    0    0  501  502  0.00000000000E+00  0.00000000000E+00  0.21454897729E+01  0.21454897729E+01  0.00000000000E+00 0. -1.
         21   -1    0    0  502  503 -0.00000000000E+00 -0.00000000000E+00 -0.27830590300E+03  0.27830590300E+03  0.00000000000E+00 0.  1.
          2    1    1    2  501    0  0.82450293162E+01 -0.21349747122E+02 -0.88945819160E+02  0.91843077892E+02  0.00000000000E+00 0. -1.
         -2    1    1    2    0  503 -0.82450293162E+01  0.21349747122E+02 -0.18721459406E+03  0.18860831488E+03  0.00000000000E+00 0.  1.
</event>
<event>
 4    1  0.1768739E+004  0.2137929E+02  0.7546771E-02  0.1513918E+00
         21   -1    0    0  501  502  0.00000000000E+00  0.00000000000E+00  0.66309179589E+02  0.66309179589E+02  0.00000000000E+00 0.  1.
         21   -1    0    0  502  503 -0.00000000000E+00 -0.00000000000E+00 -0.76363255973E+01  0.76363255973E+01  0.00000000000E+00 0. -1.
          2    1    1    2  501    0 -0.17915992253E+01 -0.21304085501E+02  0.40871181360E+02  0.46125127128E+02  0.00000000000E+00 0.  1.
         -2    1    1    2    0  503  0.17915992253E+01  0.21304085501E+02  0.17801672632E+02  0.27820378058E+02  0.00000000000E+00 0. -1.
</event>
<event>
 4    1  0.1768739E+004  0.2147314E+02  0.7546771E-02  0.1512616E+00
         21   -1    0    0  501  502  0.00000000000E+00  0.00000000000E+00  0.96070948090E+02  0.96070948090E+02  0.00000000000E+00 0. -1.
         21   -1    0    0  502  503 -0.00000000000E+00 -0.00000000000E+00 -0.14005429729E+02  0.14005429729E+02  0.00000000000E+00 0.  1.
          2    1    1    2  501    0 -0.13725257976E+02 -0.16514019839E+02  0.85654755484E+02  0.88305337861E+02  0.00000000000E+00 0. -1.
         -2    1    1    2    0  503  0.13725257976E+02  0.16514019839E+02 -0.35892371238E+01  0.21771039958E+02  0.00000000000E+00 0.  1.
</event>
<event>
 4    1  0.1768739E+004  0.2372826E+02  0.7546771E-02  0.1483550E+00
         21   -1    0    0  501  502  0.00000000000E+00  0.00000000000E+00  0.15029714571E+02  0.15029714571E+02  0.00000000000E+00 0.  1.
         21   -1    0    0  502  503 -0.00000000000E+00 -0.00000000000E+00 -0.38802976074E+02  0.38802976074E+02  0.00000000000E+00 0. -1.
          2    1    1    2  501    0 -0.18798635254E+02  0.14479005010E+02 -0.16891963595E+02  0.29126769605E+02  0.00000000000E+00 0. -1.
         -2    1    1    2    0  503  0.18798635254E+02 -0.14479005010E+02 -0.68812979072E+01  0.24705921039E+02  0.00000000000E+00 0.  1.
</event>
<event>
 4    1  0.1768739E+004  0.2363867E+02  0.7546771E-02  0.1484630E+00
         21   -1    0    0  503  502  0.00000000000E+00  0.00000000000E+00  0.76670836112E+00  0.76670836112E+00  0.00000000000E+00 0. -1.
         21   -1    0    0  501  503 -0.00000000000E+00 -0.00000000000E+00 -0.14879183608E+04  0.14879183608E+04  0.00000000000E+00 0.  1.
          2    1    1    2  501    0 -0.12902497723E+02  0.19806876991E+02 -0.12752363175E+04  0.12754553902E+04  0.00000000000E+00 0.  1.
         -2    1    1    2    0  502  0.12902497723E+02 -0.19806876991E+02 -0.21191533494E+03  0.21322967900E+03  0.00000000000E+00 0. -1.
</event>
<event>
 4    1  0.1768739E+004  0.2975537E+02  0.7546771E-02  0.1421734E+00
         21   -1    0    0  503  502  0.00000000000E+00  0.00000000000E+00  0.68594906420E+02  0.68594906420E+02  0.00000000000E+00 0.  1.
         21   -1    0    0  501  503 -0.00000000000E+00 -0.00000000000E+00 -0.15927630229E+02  0.15927630229E+02  0.00000000000E+00 0. -1.
          2    1    1    2  501    0 -0.34057783651E+01 -0.29559817853E+02  0.79307199641E+01  0.30794130560E+02  0.00000000000E+00 0. -1.
         -2    1    1    2    0  502  0.34057783651E+01  0.29559817853E+02  0.44736556227E+02  0.53728406089E+02  0.00000000000E+00 0.  1.
</event>
<event>
 4    1  0.1768739E+004  0.3595150E+02  0.7546771E-02  0.1373995E+00
         21   -1    0    0  501  502  0.00000000000E+00  0.00000000000E+00  0.34981373787E+01  0.34981373787E+01  0.00000000000E+00 0.  1.
         21   -1    0    0  502  503 -0.00000000000E+00 -0.00000000000E+00 -0.37789710667E+03  0.37789710667E+03  0.00000000000E+00 0. -1.
          2    1    1    2  501    0  0.28964384394E+02  0.21297296702E+02 -0.21565081700E+03  0.21862704609E+03  0.00000000000E+00 0. -1.
         -2    1    1    2    0  503 -0.28964384394E+02 -0.21297296702E+02 -0.15874815229E+03  0.16276819796E+03  0.00000000000E+00 0.  1.
</event>
<event>
 4    1  0.1768739E+004  0.2146330E+02  0.7546771E-02  0.1512752E+00
         21   -1    0    0  501  502  0.00000000000E+00  0.00000000000E+00  0.49362939361E+02  0.49362939361E+02  0.00000000000E+00 0. -1.
         21   -1    0    0  502  503 -0.00000000000E+00 -0.00000000000E+00 -0.11790247171E+02  0.11790247171E+02  0.00000000000E+00 0.  1.
          2    1    1    2  501    0 -0.20463248773E+02 -0.64752263238E+01  0.32747069500E+02  0.39154101537E+02  0.00000000000E+00 0. -1.
         -2    1    1    2    0  503  0.20463248773E+02  0.64752263238E+01  0.48256226900E+01  0.21999084995E+02  0.00000000000E+00 0.  1.
</event>
<event>
 4    1  0.1768739E+004  0.2183214E+02  0.7546771E-02  0.1507708E+00
         21   -1    0    0  503  502  0.00000000000E+00  0.00000000000E+00  0.10378492017E+02  0.10378492017E+02  0.00000000000E+00 0.  1.
         21   -1    0    0  501  503 -0.00000000000E+00 -0.00000000000E+00 -0.73529858026E+02  0.73529858026E+02  0.00000000000E+00 0. -1.
          2    1    1    2  501    0 -0.88060369828E+01 -0.19977385213E+02 -0.57281329486E+02  0.61300839431E+02  0.00000000000E+00 0. -1.
         -2    1    1    2    0  502  0.88060369828E+01  0.19977385213E+02 -0.58700365226E+01  0.22607510612E+02  0.00000000000E+00 0.  1.
</event>
<event>
 4    1  0.1768739E+004  0.2125258E+02  0.7546771E-02  0.1515689E+00
         21   -1    0    0  503  502  0.00000000000E+00  0.00000000000E+00  0.14142494556E+01  0.14142494556E+01  0.00000000000E+00 0. -1.
         21   -1    0    0  501  503 -0.00000000000E+00 -0.00000000000E+00 -0.36835304620E+03  0.36835304620E+03  0.00000000000E+00 0.  1.
          2    1    1    2  501    0  0.60463620453E+01 -0.20374339321E+02 -0.25088784909E+03  0.25178638767E+03  0.00000000000E+00 0. -1.
         -2    1    1    2    0  502 -0.60463620453E+01  0.20374339321E+02 -0.11605094766E+03  0.11798090798E+03  0.00000000000E+00 0.  1.
</event>
<event>
 4    1  0.1768739E+004  0.2246722E+02  0.7546771E-02  0.1499299E+00
         21   -1    0    0  503  502  0.00000000000E+00  0.00000000000E+00  0.56644160184E+01  0.56644160184E+01  0.00000000000E+00 0. -1.
         21   -1    0    0  501  503 -0.00000000000E+00 -0.00000000000E+00 -0.30536473626E+03  0.30536473626E+03  0.00000000000E+00 0.  1.
          2    1    1    2  501    0 -0.10785887207E+02 -0.19708896558E+02 -0.28072041666E+03  0.28161805393E+03  0.00000000000E+00 0.  1.
         -2    1    1    2    0  502  0.10785887207E+02  0.19708896558E+02 -0.18979903579E+02  0.29411098352E+02  0.00000000000E+00 0. -1.
</event>
<event>
 4    1  0.1768739E+004  0.2113230E+02  0.7546771E-02  0.1517384E+00
         21   -1    0    0  501  502  0.00000000000E+00  0.00000000000E+00  0.17100672929E+02  0.17100672929E+02  0.00000000000E+00 0.  1.
         21   -1    0    0  502  503 -0.00000000000E+00 -0.00000000000E+00 -0.64080363628E+02  0.64080363628E+02  0.00000000000E+00 0. -1.
          2    1    1    2  501    0  0.17574029055E+02  0.11735742750E+02  0.77536210627E+01  0.22509837732E+02  0.00000000000E+00 0.  1.
         -2    1    1    2    0  503 -0.17574029055E+02 -0.11735742750E+02 -0.54733311762E+02  0.58671198825E+02  0.00000000000E+00 0. -1.
</event>
<event>
 4    1  0.1768739E+004  0.2395463E+02  0.7546771E-02  0.1480847E+00
         21   -1    0    0  501  502  0.00000000000E+00  0.00000000000E+00  0.60708172520E+02  0.60708172520E+02  0.00000000000E+00 0.  1.
         21   -1    0    0  502  503 -0.00000000000E+00 -0.00000000000E+00 -0.12182791521E+02  0.12182791521E+02  0.00000000000E+00 0. -1.
          2    1    1    2  501    0 -0.35978633038E+01  0.23682896570E+02  0.41517124913E+02  0.47932200777E+02  0.00000000000E+00 0. -1.
         -2    1    1    2    0  503  0.35978633038E+01 -0.23682896570E+02  0.70082560866E+01  0.24958763264E+02  0.00000000000E+00 0.  1.
</event>
<event>
 4    1  0.1768739E+004  0.2225623E+02  0.7546771E-02  0.1502055E+00
         21   -1    0    0  501  502  0.00000000000E+00  0.00000000000E+00  0.29140908881E+01  0.29140908881E+01  0.00000000000E+00 0. -1.
         21   -1    0    0  502  503 -0.00000000000E+00 -0.00000000000E+00 -0.20594116450E+03  0.20594116450E+03  0.00000000000E+00 0.  1.
          2    1    1    2  501    0  0.21175060397E+02  0.68524767267E+01 -0.57876462551E+02  0.62008261849E+02  0.00000000000E+00 0. -1.
         -2    1    1    2    0  503 -0.21175060397E+02 -0.68524767267E+01 -0.14515061106E+03  0.14684699354E+03  0.00000000000E+00 0.  1.
</event>
<event>
 4    1  0.1768739E+004  0.2012119E+02  0.7546771E-02  0.1532191E+00
         21   -1    0    0  503  502  0.00000000000E+00  0.00000000000E+00  0.22291597478E+03  0.22291597478E+03  0.00000000000E+00 0. -1.
         21   -1    0    0  501  503 -0.00000000000E+00 -0.00000000000E+00 -0.60146818216E+01  0.60146818216E+01  0.00000000000E+00 0.  1.
          2    1    1    2  501    0  0.18654807596E+02  0.75405788679E+01  0.12816439406E+02  0.23856305144E+02  0.00000000000E+00 0.  1.
         -2    1    1    2    0  502 -0.18654807596E+02 -0.75405788679E+01  0.20408485356E+03  0.20507435146E+03  0.00000000000E+00 0. -1.
</event>
<event>
 4    1  0.1768739E+004  0.2143742E+02  0.7546771E-02  0.1513110E+00
         21   -1    0    0  501  502  0.00000000000E+00  0.00000000000E+00  0.74406687558E+02  0.74406687558E+02  0.00000000000E+00 0.  1.
         21   -1    0    0  502  503 -0.00000000000E+00 -0.00000000000E+00 -0.94915173378E+01  0.94915173378E+01  0.00000000000E+00 0. -1.
          2    1    1    2  501    0 -0.73205016011E+01  0.20148772785E+02  0.57249305149E+02  0.61131380881E+02  0.00000000000E+00 0.  1.
         -2    1    1    2    0  503  0.73205016011E+01 -0.20148772785E+02  0.76658650712E+01  0.22766824015E+02  0.00000000000E+00 0. -1.
</event>
<event>
 4    1  0.1768739E+004  0.3320144E+02  0.7546771E-02  0.1393668E+00
         21   -1    0    0  503  502  0.00000000000E+00  0.00000000000E+00  0.17051786436E+02  0.17051786436E+02  0.00000000000E+00 0.  1.
         21   -1    0    0  501  503 -0.00000000000E+00 -0.00000000000E+00 -0.15836828315E+03  0.15836828315E+03  0.00000000000E+00 0. -1.
          2    1    1    2  501    0  0.13927614415E+02 -0.30138965395E+02 -0.13813214759E+03  0.14206627283E+03  0.00000000000E+00 0. -1.
         -2    1    1    2    0  502 -0.13927614415E+02  0.30138965395E+02 -0.31843491192E+01  0.33353796751E+02  0.00000000000E+00 0.  1.
</event>
<event>
 4    1  0.1768739E+004  0.2307952E+02  0.7546771E-02  0.1491502E+00
         21   -1    0    0  503  502  0.00000000000E+00  0.00000000000E+00  0.24595409942E+02  0.24595409942E+02  0.00000000000E+00 0.  1.
         21   -1    0    0  501  503 -0.00000000000E+00 -0.00000000000E+00 -0.28263909409E+02  0.28263909409E+02  0.00000000000E+00 0. -1.
          2    1    1    2  501    0  0.16102833669E+02 -0.16533687523E+02  0.10944045481E+02  0.25542830830E+02  0.00000000000E+00 0.  1.
         -2    1    1    2    0  502 -0.16102833669E+02  0.16533687523E+02 -0.14612544949E+02  0.27316488522E+02  0.00000000000E+00 0. -1.
</event>
<event>
 4    1  0.1768739E+004  0.2623083E+02  0.7546771E-02  0.1455491E+00
         21   -1    0    0  501  502  0.00000000000E+00  0.00000000000E+00  0.57237214075E+01  0.57237214075E+01  0.00000000000E+00 0. -1.
         21   -1    0    0  502  503 -0.00000000000E+00 -0.00000000000E+00 -0.24306293573E+03  0.24306293573E+03  0.00000000000E+00 0.  1.
          2    1    1    2  501    0  0.10785153472E+01 -0.26208648729E+02 -0.30233820101E+02  0.40026745327E+02  0.00000000000E+00 0. -1.
         -2    1    1    2    0  503 -0.10785153472E+01  0.26208648729E+02 -0.20710539422E+03  0.20875991181E+03  0.00000000000E+00 0.  1.
</event>
<event>
 4    1  0.1768739E+004  0.2655954E+02  0.7546771E-02  0.1452084E+00
         21   -1    0    0  503  502  0.00000000000E+00  0.00000000000E+00  0.74569606245E+02  0.74569606245E+02  0.00000000000E+00 0. -1.
         21   -1    0    0  501  503 -0.00000000000E+00 -0.00000000000E+00 -0.66400810753E+02  0.66400810753E+02  0.00000000000E+00 0.  1.
          2    1    1    2  501    0 -0.14569318308E+02 -0.22206844271E+02 -0.61187181195E+02  0.66702924306E+02  0.00000000000E+00 0.  1.
         -2    1    1    2    0  502  0.14569318308E+02  0.22206844271E+02  0.69355976687E+02  0.74267492691E+02  0.00000000000E+00 0. -1.
</event>
<event>
 4    1  0.1768739E+004  0.2089894E+02  0.7546771E-02  0.1520713E+00
         21   -1    0    0  503  502  0.00000000000E+00  0.00000000000E+00  0.44304442710E+01  0.44304442710E+01  0.00000000000E+00 0.  1.
         21   -1    0    0  501  503 -0.00000000000E+00 -0.00000000000E+00 -0.11126519961E+03  0.11126519961E+03  0.00000000000E+00 0. -1.
          2    1    1    2  501    0  0.20150657019E+02 -0.55422817018E+01 -0.72947593166E+02  0.75882258885E+02  0.00000000000E+00 0. -1.
         -2    1    1    2    0  502 -0.20150657019E+02  0.55422817018E+01 -0.33887162177E+02  0.39813385000E+02  0.00000000000E+00 0.  1.
</event>
<event>
 4    1  0.1768739E+004  0.2137059E+02  0.7546771E-02  0.1514039E+00
         21   -1    0    0  503  502  0.00000000000E+00  0.00000000000E+00  0.29166922680E+01  0.29166922680E+01  0.00000000000E+00 0. -1.
         21   -1    0    0  501  503 -0.00000000000E+00 -0.00000000000E+00 -0.16282897525E+03  0.16282897525E+03  0.00000000000E+00 0.  1.
          2    1    1    2  501    0  0.17536799146E+02  0.12213215743E+02 -0.96188283074E+02  0.98533688472E+02  0.00000000000E+00 0. -1.
         -2    1    1    2    0  502 -0.17536799146E+02 -0.12213215743E+02 -0.63723999907E+02  0.67211979046E+02  0.00000000000E+00 0.  1.
</event>
<event>
 4    1  0.1768739E+004  0.2976192E+02  0.7546771E-02  0.1421677E+00
         21   -1    0    0  501  502  0.00000000000E+00  0.00000000000E+00  0.28311175150E+01  0.28311175150E+01  0.00000000000E+00 0. -1.
         21   -1    0    0  502  503 -0.00000000000E+00 -0.00000000000E+00 -0.31679668958E+03  0.31679668958E+03  0.00000000000E+00 0.  1.
          2    1    1    2  501    0  0.25796758163E+02 -0.14842473274E+02 -0.13919026956E+03  0.14233658309E+03  0.00000000000E+00 0.  1.
         -2    1    1    2    0  503 -0.25796758163E+02  0.14842473274E+02 -0.17477530250E+03  0.17729122400E+03  0.00000000000E+00 0. -1.
</event>
<event>
 4    1  0.1768739E+004  0.2584655E+02  0.7546771E-02  0.1459552E+00
         21   -1    0    0  501  502  0.00000000000E+00  0.00000000000E+00  0.85599426072E+03  0.85599426072E+03  0.00000000000E+00 0. -1.
         21   -1    0    0  502  503 -0.00000000000E+00 -0.00000000000E+00 -0.21427653317E+01  0.21427653317E+01  0.00000000000E+00 0.  1.
          2    1    1    2  501    0 -0.25835248967E+02  0.76408676579E+00  0.76904797492E+03  0.76948218410E+03  0.00000000000E+00 0. -1.
         -2    1    1    2    0  503  0.25835248967E+02 -0.76408676579E+00  0.84803520471E+02  0.88654841955E+02  0.00000000000E+00 0.  1.
</event>
<event>
 4    1  0.1768739E+004  0.3422470E+02  0.7546771E-02  0.1386097E+00
         21   -1    0    0  503  502  0.00000000000E+00  0.00000000000E+00  0.87062711524E+01  0.87062711524E+01  0.00000000000E+00 0.  1.
         21   -1    0    0  501  503 -0.00000000000E+00 -0.00000000000E+00 -0.27041974940E+03  0.27041974940E+03  0.00000000000E+00 0. -1.
          2    1    1    2  501    0 -0.88061941478E+01  0.33072363514E+02 -0.22978732779E+03  0.23232207449E+03  0.00000000000E+00 0. -1.
         -2    1    1    2    0  502  0.88061941478E+01 -0.33072363514E+02 -0.31926150459E+02  0.46803946061E+02  0.00000000000E+00 0.  1.
</event>
<event>
 4    1  0.1768739E+004  0.2378259E+02  0.7546771E-02  0.1482898E+00
         21   -1    0    0  501  502  0.00000000000E+00  0.00000000000E+00  0.16166643042E+02  0.16166643042E+02  0.00000000000E+00 0.  1.
         21   -1    0    0  502  503 -0.00000000000E+00 -0.00000000000E+00 -0.64411682529E+02  0.64411682529E+02  0.00000000000E+00 0. -1.
          2    1    1    2  501    0 -0.22318066516E+02  0.82167751031E+01 -0.51353719025E+02  0.56593426684E+02  0.00000000000E+00 0. -1.
         -2    1    1    2    0  503  0.22318066516E+02 -0.82167751031E+01  0.31086795380E+01  0.23984898886E+02  0.00000000000E+00 0.  1.
</event>
<event>
 4    1  0.1768739E+004  0.3352242E+02  0.7546771E-02  0.1391259E+00
         21   -1    0    0  503  502  0.00000000000E+00  0.00000000000E+00  0.43774921078E+02  0.43774921078E+02  0.00000000000E+00 0. -1.
         21   -1    0    0  501  503 -0.00000000000E+00 -0.00000000000E+00 -0.25719318049E+02  0.25719318049E+02  0.00000000000E+00 0.  1.
          2    1    1    2  501    0 -0.21108024202E+02  0.26042351429E+02  0.75241430608E+01  0.34356447466E+02  0.00000000000E+00 0. -1.
         -2    1    1    2    0  502  0.21108024202E+02 -0.26042351429E+02  0.10531459968E+02  0.35137791660E+02  0.00000000000E+00 0.  1.
</event>
<event>
 4    1  0.1768739E+004  0.2096872E+02  0.7546771E-02  0.1519712E+00
         21   -1    0    0  503  502  0.00000000000E+00  0.00000000000E+00  0.29329784418E+02  0.29329784418E+02  0.00000000000E+00 0. -1.
         21   -1    0    0  501  503 -0.00000000000E+00 -0.00000000000E+00 -0.19782471118E+02  0.19782471118E+02  0.00000000000E+00 0.  1.
          2    1    1    2  501    0  0.20921349918E+02  0.14086721063E+01 -0.73113582137E+01  0.22206827743E+02  0.00000000000E+00 0.  1.
         -2    1    1    2    0  502 -0.20921349918E+02 -0.14086721063E+01  0.16858671514E+02  0.26905427793E+02  0.00000000000E+00 0. -1.
</event>
<event>
 4    1  0.1768739E+004  0.2129664E+02  0.7546771E-02  0.1515071E+00
         21   -1    0    0  503  502  0.00000000000E+00  0.00000000000E+00  0.10731532013E+03  0.10731532013E+03  0.00000000000E+00 0. -1.
         21   -1    0    0  501  503 -0.00000000000E+00 -0.00000000000E+00 -0.12200625591E+02  0.12200625591E+02  0.00000000000E+00 0.  1.
          2    1    1    2  501    0  0.20766693960E+02 -0.47213738577E+01 -0.75428768136E+00  0.21309995285E+02  0.00000000000E+00 0.  1.
         -2    1    1    2    0  502 -0.20766693960E+02  0.47213738577E+01  0.95868982224E+02  0.98205950440E+02  0.00000000000E+00 0. -1.
</event>
<event>
 4    1  0.1768739E+004  0.2375885E+02  0.7546771E-02  0.1483183E+00
         21   -1    0    0  503  502  0.00000000000E+00  0.00000000000E+00  0.20252447231E+02  0.20252447231E+02  0.00000000000E+00 0. -1.
         21   -1    0    0  501  503 -0.00000000000E+00 -0.00000000000E+00 -0.37951341345E+02  0.37951341345E+02  0.00000000000E+00 0.  1.
          2    1    1    2  501    0 -0.23750384941E+02 -0.63402400524E+00  0.61479810852E+01  0.24541402623E+02  0.00000000000E+00 0. -1.
         -2    1    1    2    0  502  0.23750384941E+02  0.63402400524E+00 -0.23846875199E+02  0.33662385953E+02  0.00000000000E+00 0.  1.
</event>
<event>
 4    1  0.1768739E+004  0.6293090E+02  0.7546771E-02  0.1250187E+00
         21   -1    0    0  501  502  0.00000000000E+00  0.00000000000E+00  0.51919016018E+03  0.51919016018E+03  0.00000000000E+00 0.  1.
         21   -1    0    0  502  503 -0.00000000000E+00 -0.00000000000E+00 -0.98449999917E+01  0.98449999917E+01  0.00000000000E+00 0. -1.
          2    1    1    2  501    0  0.56321437053E+02 -0.28074782085E+02  0.38020200496E+03  0.38537496317E+03  0.00000000000E+00 0.  1.
         -2    1    1    2    0  503 -0.56321437053E+02  0.28074782085E+02  0.12914315523E+03  0.14366019700E+03  0.00000000000E+00 0. -1.
</event>
<event>
 4    1  0.1768739E+004  0.2283337E+02  0.7546771E-02  0.1494601E+00
         21   -1    0    0  503  502  0.00000000000E+00  0.00000000000E+00  0.38100368778E+01  0.38100368778E+01  0.00000000000E+00 0. -1.
         21   -1    0    0  501  503 -0.00000000000E+00 -0.00000000000E+00 -0.13842750228E+03  0.13842750228E+03  0.00000000000E+00 0.  1.
          2    1    1    2  501    0  0.19058436043E+02  0.12575327369E+02 -0.74926429300E+02  0.78328364278E+02  0.00000000000E+00 0.  1.
         -2    1    1    2    0  502 -0.19058436043E+02 -0.12575327369E+02 -0.59691036105E+02  0.63909174882E+02  0.00000000000E+00 0. -1.
</event>
<event>
 4    1  0.1768739E+004  0.3187130E+02  0.7546771E-02  0.1404003E+00
         21   -1    0    0  503  502  0.00000000000E+00  0.00000000000E+00  0.12707787134E+03  0.12707787134E+03  0.00000000000E+00 0. -1.
         21   -1    0    0  501  503 -0.00000000000E+00 -0.00000000000E+00 -0.80034465143E+01  0.80034465143E+01  0.00000000000E+00 0.  1.
          2    1    1    2  501    0 -0.24576334395E+02  0.20292447563E+02  0.61934489509E+02  0.69653863002E+02  0.00000000000E+00 0. -1.
         -2    1    1    2    0  502  0.24576334395E+02 -0.20292447563E+02  0.57139935317E+02  0.65427454852E+02  0.00000000000E+00 0.  1.
</event>
<event>
 4    1  0.1768739E+004  0.3387814E+02  0.7546771E-02  0.1388626E+00
         21   -1    0    0  503  502  0.00000000000E+00  0.00000000000E+00  0.49800249365E+02  0.49800249365E+02  0.00000000000E+00 0.  1.
         21   -1    0    0  501  503 -0.00000000000E+00 -0.00000000000E+00 -0.33780034601E+02  0.33780034601E+02  0.00000000000E+00 0. -1.
          2    1    1    2  501    0  0.17970039375E+02  0.28719438485E+02 -0.15546477682E+02  0.37274943734E+02  0.00000000000E+00 0. -1.
         -2    1    1    2    0  502 -0.17970039375E+02 -0.28719438485E+02  0.31566692446E+02  0.46305340233E+02  0.00000000000E+00 0.  1.
</event>
<event>
 4    1  0.1768739E+004  0.3230149E+02  0.7546771E-02  0.1400597E+00
         21   -1    0    0  501  502  0.00000000000E+00  0.00000000000E+00  0.63346932379E+03  0.63346932379E+03  0.00000000000E+00 0. -1.
         21   -1    0    0  502  503 -0.00000000000E+00 -0.00000000000E+00 -0.55645749055E+01  0.55645749055E+01  0.00000000000E+00 0.  1.
          2    1    1    2  501    0  0.10106449522E+02  0.30679730911E+02  0.58204268236E+03  0.58293830746E+03  0.00000000000E+00 0. -1.
         -2    1    1    2    0  503 -0.10106449522E+02 -0.30679730911E+02  0.45862066526E+02  0.56095591242E+02  0.00000000000E+00 0.  1.
</event>
<event>
 4    1  0.1768739E+004  0.3621358E+02  0.7546771E-02  0.1372226E+00
         21   -1    0    0  501  502  0.00000000000E+00  0.00000000000E+00  0.82635285635E+02  0.82635285635E+02  0.00000000000E+00 0. -1.
         21   -1    0    0  502  503 -0.00000000000E+00 -0.00000000000E+00 -0.16380813078E+02  0.16380813078E+02  0.00000000000E+00 0.  1.
          2    1    1    2  501    0 -0.36148504287E+02 -0.21701090815E+01  0.41869624249E+02  0.55357828447E+02  0.00000000000E+00 0.  1.
         -2    1    1    2    0  503  0.36148504287E+02  0.21701090815E+01  0.24384848308E+02  0.43658270266E+02  0.00000000000E+00 0. -1.
</event>
<event>
 4    1  0.1768739E+004  0.3844494E+02  0.7546771E-02  0.1357847E+00
         21   -1    0    0  501  502  0.00000000000E+00  0.00000000000E+00  0.14511396498E+03  0.14511396498E+03  0.00000000000E+00 0.  1.
         21   -1    0    0  502  503 -0.00000000000E+00 -0.00000000000E+00 -0.13028642006E+02  0.13028642006E+02  0.00000000000E+00 0. -1.
          2    1    1    2  501    0  0.13808147693E+02 -0.35879641337E+02  0.10298225533E+03  0.10992433087E+03  0.00000000000E+00 0.  1.
         -2    1    1    2    0  503 -0.13808147693E+02  0.35879641337E+02  0.29103067651E+02  0.48218276119E+02  0.00000000000E+00 0. -1.
</event>
<event>
 4    1  0.1768739E+004  0.2112943E+02  0.7546771E-02  0.1517425E+00
         21   -1    0    0  501  502  0.00000000000E+00  0.00000000000E+00  0.13770184972E+03  0.13770184972E+03  0.00000000000E+00 0.  1.
         21   -1    0    0  502  503 -0.00000000000E+00 -0.00000000000E+00 -0.92857465711E+01  0.92857465711E+01  0.00000000000E+00 0. -1.
          2    1    1    2  501    0  0.43664631945E+01  0.20673340399E+02  0.12349911526E+03  0.12529359311E+03  0.00000000000E+00 0.  1.
         -2    1    1    2    0  503 -0.43664631945E+01 -0.20673340399E+02  0.49169878853E+01  0.21694003179E+02  0.00000000000E+00 0. -1.
</event>
<event>
 4    1  0.1768739E+004  0.2216100E+02  0.7546771E-02  0.1503311E+00
         21   -1    0    0  501  502  0.00000000000E+00  0.00000000000E+00  0.26232890839E+02  0.26232890839E+02  0.00000000000E+00 0.  1.
         21   -1    0    0  502  503 -0.00000000000E+00 -0.00000000000E+00 -0.24775802852E+02  0.24775802852E+02  0.00000000000E+00 0. -1.
          2    1    1    2  501    0 -0.20364151882E+00 -0.22160069133E+02  0.13336498130E+02  0.25864499148E+02  0.00000000000E+00 0. -1.
         -2    1    1    2    0  503  0.20364151882E+00  0.22160069133E+02 -0.11879410143E+02  0.25144194543E+02  0.00000000000E+00 0.  1.
</event>
<event>
 4    1  0.1768739E+004  0.2820472E+02  0.7546771E-02  0.1435868E+00
         21   -1    0    0  503  502  0.00000000000E+00  0.00000000000E+00  0.45671895975E+01  0.45671895975E+01  0.00000000000E+00 0.  1.
         21   -1    0    0  501  503 -0.00000000000E+00 -0.00000000000E+00 -0.22230510063E+03  0.22230510063E+03  0.00000000000E+00 0. -1.
          2    1    1    2  501    0  0.27749050806E+02 -0.50493713432E+01 -0.16164898127E+03  0.16409113052E+03  0.00000000000E+00 0. -1.
         -2    1    1    2    0  502 -0.27749050806E+02  0.50493713432E+01 -0.56088929763E+02  0.62781159702E+02  0.00000000000E+00 0.  1.
</event>
<event>
 4    1  0.1768739E+004  0.2727257E+02  0.7546771E-02  0.1444889E+00
         21   -1    0    0  503  502  0.00000000000E+00  0.00000000000E+00  0.91534132408E+01  0.91534132408E+01  0.00000000000E+00 0. -1.
         21   -1    0    0  501  503 -0.00000000000E+00 -0.00000000000E+00 -0.89201471442E+02  0.89201471442E+02  0.00000000000E+00 0.  1.
          2    1    1    2  501    0  0.27010175521E+02 -0.37740580709E+01 -0.25349301890E+02  0.37234126850E+02  0.00000000000E+00 0. -1.
         -2    1    1    2    0  502 -0.27010175521E+02  0.37740580709E+01 -0.54698756311E+02  0.61120757832E+02  0.00000000000E+00 0.  1.
</event>
<event>
 4    1  0.1768739E+004  0.2031151E+02  0.7546771E-02  0.1529326E+00
         21   -1    0    0  503  502  0.00000000000E+00  0.00000000000E+00  0.11466381955E+02  0.11466381955E+02  0.00000000000E+00 0.  1.
         21   -1    0    0  501  503 -0.00000000000E+00 -0.00000000000E+00 -0.38800474503E+02  0.38800474503E+02  0.00000000000E+00 0. -1.
          2    1    1    2  501    0 -0.19881934099E+02  0.41552770611E+01 -0.20443664911E+02  0.28818415396E+02  0.00000000000E+00 0.  1.
         -2    1    1    2    0  502  0.19881934099E+02 -0.41552770611E+01 -0.68904276361E+01  0.21448441061E+02  0.00000000000E+00 0. -1.
</event>
<event>
 4    1  0.1768739E+004  0.2568725E+02  0.7546771E-02  0.1461260E+00
         21   -1    0    0  501  502  0.00000000000E+00  0.00000000000E+00  0.11631630229E+03  0.11631630229E+03  0.00000000000E+00 0. -1.
         21   -1    0    0  502  503 -0.00000000000E+00 -0.00000000000E+00 -0.97901920911E+01  0.97901920911E+01  0.00000000000E+00 0.  1.
          2    1    1    2  501    0  0.25687165491E+02  0.65506279922E-01  0.94153792227E+02  0.97594935077E+02  0.00000000000E+00 0. -1.
         -2    1    1    2    0  503 -0.25687165491E+02 -0.65506279922E-01  0.12372317976E+02  0.28511559307E+02  0.00000000000E+00 0.  1.
</event>
<event>
 4    1  0.1768739E+004  0.2424331E+02  0.7546771E-02  0.1477449E+00
         21   -1    0    0  503  502  0.00000000000E+00  0.00000000000E+00  0.24821025714E+02  0.24821025714E+02  0.00000000000E+00 0. -1.
         21   -1    0    0  501  503 -0.00000000000E+00 -0.00000000000E+00 -0.80526513054E+02  0.80526513054E+02  0.00000000000E+00 0.  1.
          2    1    1    2  501    0 -0.16526482608E+02 -0.17737347415E+02 -0.72109596169E+02  0.76075830462E+02  0.00000000000E+00 0.  1.
         -2    1    1    2    0  502  0.16526482608E+02  0.17737347415E+02  0.16404108829E+02  0.29271708307E+02  0.00000000000E+00 0. -1.
</event>
<event>
 4    1  0.1768739E+004  0.3275588E+02  0.7546771E-02  0.1397066E+00
         21   -1    0    0  503  502  0.00000000000E+00  0.00000000000E+00  0.12999970226E+03  0.12999970226E+03  0.00000000000E+00 0.  1.
         21   -1    0    0  501  503 -0.00000000000E+00 -0.00000000000E+00 -0.30660286567E+02  0.30660286567E+02  0.00000000000E+00 0. -1.
          2    1    1    2  501    0 -0.30910914088E+02  0.10838025977E+02 -0.19002309036E+02  0.37868656770E+02  0.00000000000E+00 0. -1.
         -2    1    1    2    0  502  0.30910914088E+02 -0.10838025977E+02  0.11834172473E+03  0.12279133206E+03  0.00000000000E+00 0.  1.
</event>
<event>
 4    1  0.1768739E+004  0.3098763E+02  0.7546771E-02  0.1411204E+00
         21   -1    0    0  501  502  0.00000000000E+00  0.00000000000E+00  0.13308610378E+04  0.13308610378E+04  0.00000000000E+00 0. -1.
         21   -1    0    0  502  503 -0.00000000000E+00 -0.00000000000E+00 -0.21464031177E+01  0.21464031177E+01  0.00000000000E+00 0.  1.
          2    1    1    2  501    0  0.45238808659E+01  0.30655627820E+02  0.12074046440E+04  0.12078022220E+04  0.00000000000E+00 0. -1.
         -2    1    1    2    0  503 -0.45238808659E+01 -0.30655627820E+02  0.12130999067E+03  0.12520521894E+03  0.00000000000E+00 0.  1.
</event>
<event>
 4    1  0.1768739E+004  0.2102329E+02  0.7546771E-02  0.1518932E+00
         21   -1    0    0  503  502  0.00000000000E+00  0.00000000000E+00  0.10398310868E+03  0.10398310868E+03  0.00000000000E+00 0. -1.
         21   -1    0    0  501  503 -0.00000000000E+00 -0.00000000000E+00 -0.14388971915E+02  0.14388971915E+02  0.00000000000E+00 0.  1.
          2    1    1    2  501    0 -0.12376210386E+02 -0.16994358007E+02 -0.48840021967E+01  0.21583147709E+02  0.00000000000E+00 0.  1.
         -2    1    1    2    0  502  0.12376210386E+02  0.16994358007E+02  0.94478138958E+02  0.96788932883E+02  0.00000000000E+00 0. -1.
</event>
<event>
 4    1  0.1768739E+004  0.3696955E+02  0.7546771E-02  0.1367222E+00
         21   -1    0    0  501  502  0.00000000000E+00  0.00000000000E+00  0.22081278223E+02  0.22081278223E+02  0.00000000000E+00 0.  1.
         21   -1    0    0  502  503 -0.00000000000E+00 -0.00000000000E+00 -0.80366719522E+02  0.80366719522E+02  0.00000000000E+00 0. -1.
          2    1    1    2  501    0 -0.68126021699E+01 -0.36336430118E+02 -0.45857577635E+01  0.37252877423E+02  0.00000000000E+00 0.  1.
         -2    1    1    2    0  503  0.68126021699E+01  0.36336430118E+02 -0.53699683535E+02  0.65195120322E+02  0.00000000000E+00 0. -1.
</event>
<event>
 4    1  0.1768739E+004  0.3465437E+02  0.7546771E-02  0.1383009E+00
         21   -1    0    0  503  502  0.00000000000E+00  0.00000000000E+00  0.17621904463E+03  0.17621904463E+03  0.00000000000E+00 0. -1.
         21   -1    0    0  501  503 -0.00000000000E+00 -0.00000000000E+00 -0.15445958780E+02  0.15445958780E+02  0.00000000000E+00 0.  1.
          2    1    1    2  501    0 -0.53176668391E+00 -0.34650285989E+02  0.87497706730E+01  0.35741902324E+02  0.00000000000E+00 0.  1.
         -2    1    1    2    0  502  0.53176668391E+00  0.34650285989E+02  0.15202331517E+03  0.15592310108E+03  0.00000000000E+00 0. -1.
</event>
<event>
 4    1  0.1768739E+004  0.2924309E+02  0.7546771E-02  0.1426290E+00
         21   -1    0    0  501  502  0.00000000000E+00  0.00000000000E+00  0.88357193418E+02  0.88357193418E+02  0.00000000000E+00 0. -1.
         21   -1    0    0  502  503 -0.00000000000E+00 -0.00000000000E+00 -0.24117495306E+02  0.24117495306E+02  0.00000000000E+00 0.  1.
          2    1    1    2  501    0  0.22101306423E+02 -0.19149168343E+02  0.75633781320E+02  0.81090241525E+02  0.00000000000E+00 0. -1.
         -2    1    1    2    0  503 -0.22101306423E+02  0.19149168343E+02 -0.11394083207E+02  0.31384447199E+02  0.00000000000E+00 0.  1.
</event>
<event>
 4    1  0.1768739E+004  0.2191352E+02  0.7546771E-02  0.1506611E+00
         21   -1    0    0  501  502  0.00000000000E+00  0.00000000000E+00  0.12584322404E+03  0.12584322404E+03  0.00000000000E+00 0.  1.
         21   -1    0    0  502  503 -0.00000000000E+00 -0.00000000000E+00 -0.44005235275E+01  0.44005235275E+01  0.00000000000E+00 0. -1.
          2    1    1    2  501    0  0.13522796112E+02  0.17243442425E+02  0.84458099022E+02  0.87254643497E+02  0.00000000000E+00 0.  1.
         -2    1    1    2    0  503 -0.13522796112E+02 -0.17243442425E+02  0.36984601487E+02  0.42989104068E+02  0.00000000000E+00 0. -1.
</event>
<event>
 4    1  0.1768739E+004  0.3186697E+02  0.7546771E-02  0.1404037E+00
         21   -1    0    0  503  502  0.00000000000E+00  0.00000000000E+00  0.85247249952E+03  0.85247249952E+03  0.00000000000E+00 0.  1.
         21   -1    0    0  501  503 -0.00000000000E+00 -0.00000000000E+00 -0.18130087106E+02  0.18130087106E+02  0.00000000000E+00 0. -1.
          2    1    1    2  501    0  0.31851202681E+02 -0.10022881888E+01 -0.35862983088E+01  0.32068134174E+02  0.00000000000E+00 0. -1.
         -2    1    1    2    0  502 -0.31851202681E+02  0.10022881888E+01  0.83792871072E+03  0.83853445245E+03  0.00000000000E+00 0.  1.
</event>
<event>
 4    1  0.1768739E+004  0.4779405E+02  0.7546771E-02  0.1308031E+00
         21   -1    0    0  503  502  0.00000000000E+00  0.00000000000E+00  0.50020465716E+02  0.50020465716E+02  0.00000000000E+00 0. -1.
         21   -1    0    0  501  503 -0.00000000000E+00 -0.00000000000E+00 -0.54409964841E+02  0.54409964841E+02  0.00000000000E+00 0.  1.
          2    1    1    2  501    0 -0.29238452039E+02 -0.37807191114E+02 -0.23125947436E+02  0.53095011275E+02  0.00000000000E+00 0.  1.
         -2    1    1    2    0  502  0.29238452039E+02  0.37807191114E+02  0.18736448310E+02  0.51335419282E+02  0.00000000000E+00 0. -1.
</event>
<event>
 4    1  0.1768739E+004  0.2831660E+02  0.7546771E-02  0.1434813E+00
         21   -1    0    0  501  502  0.00000000000E+00  0.00000000000E+00  0.24453874110E+03  0.24453874110E+03  0.00000000000E+00 0. -1.
         21   -1    0    0  502  503 -0.00000000000E+00 -0.00000000000E+00 -0.76924490881E+01  0.76924490881E+01  0.00000000000E+00 0.  1.
          2    1    1    2  501    0  0.25944303927E+02  0.11345605713E+02  0.21395058296E+03  0.21581631454E+03  0.00000000000E+00 0. -1.
         -2    1    1    2    0  503 -0.25944303927E+02 -0.11345605713E+02  0.22895709059E+02  0.36414875649E+02  0.00000000000E+00 0.  1.
</event>
<event>
 4    1  0.1768739E+004  0.2262790E+02  0.7546771E-02  0.1497224E+00
         21   -1    0    0  501  502  0.00000000000E+00  0.00000000000E+00  0.15545307250E+02  0.15545307250E+02  0.00000000000E+00 0.  1.
         21   -1    0    0  502  503 -0.00000000000E+00 -0.00000000000E+00 -0.50731693097E+02  0.50731693097E+02  0.00000000000E+00 0. -1.
          2    1    1    2  501    0  0.13543058682E+02 -0.18127534269E+02  0.20328883044E+01  0.22719035455E+02  0.00000000000E+00 0.  1.
         -2    1    1    2    0  503 -0.13543058682E+02  0.18127534269E+02 -0.37219274151E+02  0.43557964892E+02  0.00000000000E+00 0. -1.
</event>
<event>
 4    1  0.1768739E+004  0.2203580E+02  0.7546771E-02  0.1504974E+00
         21   -1    0    0  501  502  0.00000000000E+00  0.00000000000E+00  0.45044985327E+02  0.45044985327E+02  0.00000000000E+00 0. -1.
         21   -1    0    0  502  503 -0.00000000000E+00 -0.00000000000E+00 -0.10996921521E+02  0.10996921521E+02  0.00000000000E+00 0.  1.
          2    1    1    2  501    0  0.39566604785E+01  0.21677667215E+02  0.20961236730E+02  0.30412988398E+02  0.00000000000E+00 0.  1.
         -2    1    1    2    0  503 -0.39566604785E+01 -0.21677667215E+02  0.13086827076E+02  0.25628918450E+02  0.00000000000E+00 0. -1.
</event>
<event>
 4    1  0.1768739E+004  0.2379679E+02  0.7546771E-02  0.1482728E+00
         21   -1    0    0  501  502  0.00000000000E+00  0.00000000000E+00  0.57522596371E+01  0.57522596371E+01  0.00000000000E+00 0.  1.
         21   -1    0    0  502  503 -0.00000000000E+00 -0.00000000000E+00 -0.90310207753E+03  0.90310207753E+03  0.00000000000E+00 0. -1.
          2    1    1    2  501    0 -0.23088582120E+02  0.57623345743E+01 -0.19730503776E+02  0.30912455472E+02  0.00000000000E+00 0.  1.
         -2    1    1    2    0  503  0.23088582120E+02 -0.57623345743E+01 -0.87761931411E+03  0.87794188169E+03  0.00000000000E+00 0. -1.
</event>
<event>
 4    1  0.1768739E+004  0.3758532E+02  0.7546771E-02  0.1363248E+00
         21   -1    0    0  501  502  0.00000000000E+00  0.00000000000E+00  0.52473949607E+01  0.52473949607E+01  0.00000000000E+00 0. -1.
         21   -1    0    0  502  503 -0.00000000000E+00 -0.00000000000E+00 -0.27635092154E+03  0.27635092154E+03  0.00000000000E+00 0.  1.
          2    1    1    2  501    0 -0.78766872155E+01 -0.36750703153E+02 -0.11292008959E+03  0.11901093654E+03  0.00000000000E+00 0.  1.
         -2    1    1    2    0  503  0.78766872155E+01  0.36750703153E+02 -0.15818343699E+03  0.16258737996E+03  0.00000000000E+00 0. -1.
</event>
<event>
 4    1  0.1768739E+004  0.2099478E+02  0.7546771E-02  0.1519339E+00
         21   -1    0    0  501  502  0.00000000000E+00  0.00000000000E+00  0.76918623317E+01  0.76918623317E+01  0.00000000000E+00 0.  1.
         21   -1    0    0  502  503 -0.00000000000E+00 -0.00000000000E+00 -0.82971495326E+02  0.82971495326E+02  0.00000000000E+00 0. -1.
          2    1    1    2  501    0  0.10934561008E+02 -0.17922503673E+02 -0.12426952594E+02  0.24396924255E+02  0.00000000000E+00 0.  1.
         -2    1    1    2    0  503 -0.10934561008E+02  0.17922503673E+02 -0.62852680400E+02  0.66266433402E+02  0.00000000000E+00 0. -1.
</event>
<event>
 4    1  0.1768739E+004  0.3203798E+02  0.7546771E-02  0.1402676E+00
         21   -1    0    0  501  502  0.00000000000E+00  0.00000000000E+00  0.22858837451E+02  0.22858837451E+02  0.00000000000E+00 0.  1.
         21   -1    0    0  502  503 -0.00000000000E+00 -0.00000000000E+00 -0.78890111260E+02  0.78890111260E+02  0.00000000000E+00 0. -1.
          2    1    1    2  501    0 -0.13643231735E+01  0.32008917667E+02  0.53765814417E+01  0.32485994151E+02  0.00000000000E+00 0.  1.
         -2    1    1    2    0  503  0.13643231735E+01 -0.32008917667E+02 -0.61407855250E+02  0.69262954560E+02  0.00000000000E+00 0. -1.
</event>
<event>
 4    1  0.1768739E+004  0.5062069E+02  0.7546771E-02  0.1295504E+00
         21   -1    0    0  503  502  0.00000000000E+00  0.00000000000E+00  0.12243109914E+03  0.12243109914E+03  0.00000000000E+00 0.  1.
         21   -1    0    0  501  503 -0.00000000000E+00 -0.00000000000E+00 -0.30016799048E+02  0.30016799048E+02  0.00000000000E+00 0. -1.
          2    1    1    2  501    0 -0.38526216581E+02  0.32835718464E+02  0.42679246455E+01  0.50800284958E+02  0.00000000000E+00 0. -1.
         -2    1    1    2    0  502  0.38526216581E+02 -0.32835718464E+02  0.88146375446E+02  0.10164761323E+03  0.00000000000E+00 0.  1.
</event>
<event>
 4    1  0.1768739E+004  0.2182629E+02  0.7546771E-02  0.1507787E+00
         21   -1    0    0  503  502  0.00000000000E+00  0.00000000000E+00  0.20795806285E+02  0.20795806285E+02  0.00000000000E+00 0. -1.
         21   -1    0    0  501  503 -0.00000000000E+00 -0.00000000000E+00 -0.22910842428E+02  0.22910842428E+02  0.00000000000E+00 0.  1.
          2    1    1    2  501    0  0.16945803328E+02  0.13755967214E+02 -0.13079244558E+01  0.21865441931E+02  0.00000000000E+00 0.  1.
         -2    1    1    2    0  502 -0.16945803328E+02 -0.13755967214E+02 -0.80711168729E+00  0.21841206782E+02  0.00000000000E+00 0. -1.
</event>
<event>
 4    1  0.1768739E+004  0.2966542E+02  0.7546771E-02  0.1422527E+00
         21   -1    0    0  501  502  0.00000000000E+00  0.00000000000E+00  0.19577566247E+03  0.19577566247E+03  0.00000000000E+00 0.  1.
         21   -1    0    0  502  503 -0.00000000000E+00 -0.00000000000E+00 -0.22697463096E+02  0.22697463096E+02  0.00000000000E+00 0. -1.
          2    1    1    2  501    0  0.24132634081E+02 -0.17252626641E+02  0.18436253039E+03  0.18673398128E+03  0.00000000000E+00 0.  1.
         -2    1    1    2    0  503 -0.24132634081E+02  0.17252626641E+02 -0.11284331013E+02  0.31739144287E+02  0.00000000000E+00 0. -1.
</event>
<event>
 4    1  0.1768739E+004  0.2223755E+02  0.7546771E-02  0.1502301E+00
         21   -1    0    0  501  502  0.00000000000E+00  0.00000000000E+00  0.97293728244E+02  0.97293728244E+02  0.00000000000E+00 0. -1.
         21   -1    0    0  502  503 -0.00000000000E+00 -0.00000000000E+00 -0.11164549105E+02  0.11164549105E+02  0.00000000000E+00 0.  1.
          2    1    1    2  501    0 -0.14184353042E+02 -0.17126370530E+02  0.83089676070E+02  0.86013968100E+02  0.00000000000E+00 0. -1.
         -2    1    1    2    0  503  0.14184353042E+02  0.17126370530E+02  0.30395030685E+01  0.22444309249E+02  0.00000000000E+00 0.  1.
</event>
<event>
 4    1  0.1768739E+004  0.2082219E+02  0.7546771E-02  0.1521819E+00
         21   -1    0    0  503  502  0.00000000000E+00  0.00000000000E+00  0.31347544917E+02  0.31347544917E+02  0.00000000000E+00 0.  1.
         21   -1    0    0  501  503 -0.00000000000E+00 -0.00000000000E+00 -0.14252771942E+02  0.14252771942E+02  0.00000000000E+00 0. -1.
          2    1    1    2  501    0 -0.20661818705E+02  0.25793052986E+01  0.12470203703E+02  0.24270755003E+02  0.00000000000E+00 0.  1.
         -2    1    1    2    0  502  0.20661818705E+02 -0.25793052986E+01  0.46245692722E+01  0.21329561856E+02  0.00000000000E+00 0. -1.
</event>
<event>
 4    1  0.1768739E+004  0.2218053E+02  0.7546771E-02  0.1503053E+00
         21   -1    0    0  503  502  0.00000000000E+00  0.00000000000E+00  0.42561081118E+01  0.42561081118E+01  0.00000000000E+00 0.  1.
         21   -1    0    0  501  503 -0.00000000000E+00 -0.00000000000E+00 -0.11947017609E+03  0.11947017609E+03  0.00000000000E+00 0. -1.
          2    1    1    2  501    0  0.47040511318E+01 -0.21675977351E+02 -0.68751590710E+02  0.72240967022E+02  0.00000000000E+00 0. -1.
         -2    1    1    2    0  502 -0.47040511318E+01  0.21675977351E+02 -0.46462477272E+02  0.51485317183E+02  0.00000000000E+00 0.  1.
</event>
<event>
 4    1  0.1768739E+004  0.2899917E+02  0.7546771E-02  0.1428497E+00
         21   -1    0    0  501  502  0.00000000000E+00  0.00000000000E+00  0.28185543642E+03  0.28185543642E+03  0.00000000000E+00 0.  1.
         21   -1    0    0  502  503 -0.00000000000E+00 -0.00000000000E+00 -0.49788537411E+01  0.49788537411E+01  0.00000000000E+00 0. -1.
          2    1    1    2  501    0  0.11961525684E+02  0.26417303653E+02  0.22922709829E+03  0.23105413785E+03  0.00000000000E+00 0.  1.
         -2    1    1    2    0  503 -0.11961525684E+02 -0.26417303653E+02  0.47649484395E+02  0.55780152313E+02  0.00000000000E+00 0. -1.
</event>
<event>
 4    1  0.1768739E+004  0.2105219E+02  0.7546771E-02  0.1518521E+00
         21   -1    0    0  501  502  0.00000000000E+00  0.00000000000E+00  0.33650616138E+01  0.33650616138E+01  0.00000000000E+00 0. -1.
         21   -1    0    0  502  503 -0.00000000000E+00 -0.00000000000E+00 -0.13439465851E+03  0.13439465851E+03  0.00000000000E+00 0.  1.
          2    1    1    2  501    0  0.13197258047E+02 -0.16402040576E+02 -0.75259556286E+02  0.78148546803E+02  0.00000000000E+00 0. -1.
         -2    1    1    2    0  503 -0.13197258047E+02  0.16402040576E+02 -0.55770040607E+02  0.59611173318E+02  0.00000000000E+00 0.  1.
</event>
<event>
 4    1  0.1768739E+004  0.3392884E+02  0.7546771E-02  0.1388254E+00
         21   -1    0    0  501  502  0.00000000000E+00  0.00000000000E+00  0.81025937638E+03  0.81025937638E+03  0.00000000000E+00 0. -1.
         21   -1    0    0  502  503 -0.00000000000E+00 -0.00000000000E+00 -0.17591725503E+02  0.17591725503E+02  0.00000000000E+00 0.  1.
          2    1    1    2  501    0 -0.13650904225E+02  0.31061535980E+02  0.79319287479E+03  0.79391819655E+03  0.00000000000E+00 0. -1.
         -2    1    1    2    0  503  0.13650904225E+02 -0.31061535980E+02 -0.52522391716E+00  0.33932905325E+02  0.00000000000E+00 0.  1.
</event>
<event>
 4    1  0.1768739E+004  0.3003672E+02  0.7546771E-02  0.1419278E+00
         21   -1    0    0  501  502  0.00000000000E+00  0.00000000000E+00  0.32881878257E+02  0.32881878257E+02  0.00000000000E+00 0. -1.
         21   -1    0    0  502  503 -0.00000000000E+00 -0.00000000000E+00 -0.49626758276E+02  0.49626758276E+02  0.00000000000E+00 0.  1.
          2    1    1    2  501    0  0.26882341663E+02  0.13399416619E+02  0.19213033040E+02  0.35655929347E+02  0.00000000000E+00 0. -1.
         -2    1    1    2    0  503 -0.26882341663E+02 -0.13399416619E+02 -0.35957913059E+02  0.46852707185E+02  0.00000000000E+00 0.  1.
</event>
<event>
 4    1  0.1768739E+004  0.1192080E+03  0.7546771E-02  0.1134146E+00
         21   -1    0    0  503  502  0.00000000000E+00  0.00000000000E+00  0.86188844046E+02  0.86188844046E+02  0.00000000000E+00 0. -1.
         21   -1    0    0  501  503 -0.00000000000E+00 -0.00000000000E+00 -0.40799882837E+03  0.40799882837E+03  0.00000000000E+00 0.  1.
          2    1    1    2  501    0 -0.11115758890E+03  0.43064312808E+02 -0.35164621818E+03  0.37130258196E+03  0.00000000000E+00 0.  1.
         -2    1    1    2    0  502  0.11115758890E+03 -0.43064312808E+02  0.29836233853E+02  0.12288509046E+03  0.00000000000E+00 0. -1.
</event>
<event>
 4    1  0.1768739E+004  0.2864069E+02  0.7546771E-02  0.1431788E+00
         21   -1    0    0  501  502  0.00000000000E+00  0.00000000000E+00  0.23160939458E+03  0.23160939458E+03  0.00000000000E+00 0. -1.
         21   -1    0    0  502  503 -0.00000000000E+00 -0.00000000000E+00 -0.35441373805E+01  0.35441373805E+01  0.00000000000E+00 0.  1.
          2    1    1    2  501    0  0.19405461123E+02  0.21064602674E+02  0.11094491544E+03  0.11458212631E+03  0.00000000000E+00 0.  1.
         -2    1    1    2    0  503 -0.19405461123E+02 -0.21064602674E+02  0.11712034175E+03  0.12057140565E+03  0.00000000000E+00 0. -1.
</event>
<event>
 4    1  0.1768739E+004  0.4231273E+02  0.7546771E-02  0.1335441E+00
         21   -1    0    0  503  502  0.00000000000E+00  0.00000000000E+00  0.20327006305E+02  0.20327006305E+02  0.00000000000E+00 0. -1.
         21   -1    0    0  501  503 -0.00000000000E+00 -0.00000000000E+00 -0.88801977630E+02  0.88801977630E+02  0.00000000000E+00 0.  1.
          2    1    1    2  501    0 -0.18456778785E+02  0.38075118025E+02 -0.39163368996E+02  0.57655327306E+02  0.00000000000E+00 0.  1.
         -2    1    1    2    0  502  0.18456778785E+02 -0.38075118025E+02 -0.29311602329E+02  0.51473656629E+02  0.00000000000E+00 0. -1.
</event>
<event>
 4    1  0.1768739E+004  0.2498917E+02  0.7546771E-02  0.1468925E+00
         21   -1    0    0  501  502  0.00000000000E+00  0.00000000000E+00  0.36603061338E+02  0.36603061338E+02  0.00000000000E+00 0. -1.
         21   -1    0    0  502  503 -0.00000000000E+00 -0.00000000000E+00 -0.43271958620E+02  0.43271958620E+02  0.00000000000E+00 0.  1.
          2    1    1    2  501    0  0.63804631848E+01 -0.24160879965E+02  0.27748709263E+02  0.37342325810E+02  0.00000000000E+00 0. -1.
         -2    1    1    2    0  503 -0.63804631848E+01  0.24160879965E+02 -0.34417606546E+02  0.42532694148E+02  0.00000000000E+00 0.  1.
</event>
<event>
 4    1  0.1768739E+004  0.2227426E+02  0.7546771E-02  0.1501818E+00
         21   -1    0    0  503  502  0.00000000000E+00  0.00000000000E+00  0.36521991550E+02  0.36521991550E+02  0.00000000000E+00 0. -1.
         21   -1    0    0  501  503 -0.00000000000E+00 -0.00000000000E+00 -0.14096486830E+02  0.14096486830E+02  0.00000000000E+00 0.  1.
          2    1    1    2  501    0  0.11246740885E+02  0.19226374421E+02  0.63906010501E+01  0.23172881472E+02  0.00000000000E+00 0. -1.
         -2    1    1    2    0  502 -0.11246740885E+02 -0.19226374421E+02  0.16034903670E+02  0.27445596908E+02  0.00000000000E+00 0.  1.
</event>
<event>
 4    1  0.1768739E+004  0.2630097E+02  0.7546771E-02  0.1454759E+00
         21   -1    0    0  501  502  0.00000000000E+00  0.00000000000E+00  0.82074322382E+01  0.82074322382E+01  0.00000000000E+00 0.  1.
         21   -1    0    0  502  503 -0.00000000000E+00 -0.00000000000E+00 -0.49733291018E+03  0.49733291018E+03  0.00000000000E+00 0. -1.
          2    1    1    2  501    0 -0.87801227008E+01 -0.24792150157E+02 -0.14204442972E+02  0.29891595210E+02  0.00000000000E+00 0.  1.
         -2    1    1    2    0  503  0.87801227008E+01  0.24792150157E+02 -0.47492103497E+03  0.47564874721E+03  0.00000000000E+00 0. -1.
</event>
<event>
 4    1  0.1768739E+004  0.2018811E+02  0.7546771E-02  0.1531179E+00
         21   -1    0    0  503  502  0.00000000000E+00  0.00000000000E+00  0.52188385296E+02  0.52188385296E+02  0.00000000000E+00 0.  1.
         21   -1    0    0  501  503 -0.00000000000E+00 -0.00000000000E+00 -0.17452368638E+02  0.17452368638E+02  0.00000000000E+00 0. -1.
          2    1    1    2  501    0 -0.13642603213E+02 -0.14880838628E+02 -0.85148154075E+01  0.21910318622E+02  0.00000000000E+00 0. -1.
         -2    1    1    2    0  502  0.13642603213E+02  0.14880838628E+02  0.43250832065E+02  0.47730435312E+02  0.00000000000E+00 0.  1.
</event>
<event>
 4    1  0.1768739E+004  0.3581897E+02  0.7546771E-02  0.1374895E+00
         21   -1    0    0  501  502  0.00000000000E+00  0.00000000000E+00  0.29616105354E+01  0.29616105354E+01  0.00000000000E+00 0. -1.
         21   -1    0    0  502  503 -0.00000000000E+00 -0.00000000000E+00 -0.91090820881E+03  0.91090820881E+03  0.00000000000E+00 0.  1.
          2    1    1    2  501    0 -0.55718382789E+01  0.35382951577E+02 -0.12307545438E+03  0.12818176983E+03  0.00000000000E+00 0. -1.
         -2    1    1    2    0  503  0.55718382789E+01 -0.35382951577E+02 -0.78487114389E+03  0.78568804951E+03  0.00000000000E+00 0.  1.
</event>
<event>
 4    1  0.1768739E+004  0.4258612E+02  0.7546771E-02  0.1333963E+00
         21   -1    0    0  503  502  0.00000000000E+00  0.00000000000E+00  0.95906735922E+02  0.95906735922E+02  0.00000000000E+00 0. -1.
         21   -1    0    0  501  503 -0.00000000000E+00 -0.00000000000E+00 -0.22426831472E+02  0.22426831472E+02  0.00000000000E+00 0.  1.
          2    1    1    2  501    0 -0.11841304880E+02 -0.40906739631E+02  0.60170460430E+02  0.73716091573E+02  0.00000000000E+00 0. -1.
         -2    1    1    2    0  502  0.11841304880E+02  0.40906739631E+02  0.13309444020E+02  0.44617475821E+02  0.00000000000E+00 0.  1.
</event>
<event>
 4    1  0.1768739E+004  0.2914064E+02  0.7546771E-02  0.1427214E+00
         21   -1    0    0  501  502  0.00000000000E+00  0.00000000000E+00  0.13198420951E+03  0.13198420951E+03  0.00000000000E+00 0.  1.
         21   -1    0    0  502  503 -0.00000000000E+00 -0.00000000000E+00 -0.46698411321E+02  0.46698411321E+02  0.00000000000E+00 0. -1.
          2    1    1    2  501    0 -0.26981087307E+02  0.11008982747E+02  0.12560167508E+03  0.12893780499E+03  0.00000000000E+00 0.  1.
         -2    1    1    2    0  503  0.26981087307E+02 -0.11008982747E+02 -0.40315876890E+02  0.49744815839E+02  0.00000000000E+00 0. -1.
</event>
<event>
 4    1  0.1768739E+004  0.2455613E+02  0.7546771E-02  0.1473831E+00
         21   -1    0    0  503  502  0.00000000000E+00  0.00000000000E+00  0.33195964065E+03  0.33195964065E+03  0.00000000000E+00 0. -1.
         21   -1    0    0  501  503 -0.00000000000E+00 -0.00000000000E+00 -0.30522105997E+01  0.30522105997E+01  0.00000000000E+00 0.  1.
          2    1    1    2  501    0  0.41471017957E+01 -0.24203414083E+02  0.57872214046E+02  0.62866500341E+02  0.00000000000E+00 0.  1.
         -2    1    1    2    0  502 -0.41471017957E+01  0.24203414083E+02  0.27103521600E+03  0.27214535091E+03  0.00000000000E+00 0. -1.
</event>
<event>
 4    1  0.1768739E+004  0.2777132E+02  0.7546771E-02  0.1440010E+00
         21   -1    0    0  501  502  0.00000000000E+00  0.00000000000E+00  0.84142471807E+02  0.84142471807E+02  0.00000000000E+00 0.  1.
         21   -1    0    0  502  503 -0.00000000000E+00 -0.00000000000E+00 -0.14959072006E+02  0.14959072006E+02  0.00000000000E+00 0. -1.
          2    1    1    2  501    0 -0.26951824247E+02 -0.66966610182E+01  0.65427431235E+02  0.71077386397E+02  0.00000000000E+00 0.  1.
         -2    1    1    2    0  503  0.26951824247E+02  0.66966610182E+01  0.37559685657E+01  0.28024157416E+02  0.00000000000E+00 0. -1.
</event>
<event>
 4    1  0.1768739E+004  0.2588504E+02  0.7546771E-02  0.1459141E+00
         21   -1    0    0  501  502  0.00000000000E+00  0.00000000000E+00  0.57312149835E+03  0.57312149835E+03  0.00000000000E+00 0. -1.
         21   -1    0    0  502  503 -0.00000000000E+00 -0.00000000000E+00 -0.13874855617E+01  0.13874855617E+01  0.00000000000E+00 0.  1.
          2    1    1    2  501    0  0.20935878027E+02  0.15222485157E+02  0.39983077704E+03  0.40066779920E+03  0.00000000000E+00 0. -1.
         -2    1    1    2    0  503 -0.20935878027E+02 -0.15222485157E+02  0.17190323575E+03  0.17384118472E+03  0.00000000000E+00 0.  1.
</event>
<event>
 4    1  0.1768739E+004  0.2980831E+02  0.7546771E-02  0.1421270E+00
         21   -1    0    0  501  502  0.00000000000E+00  0.00000000000E+00  0.25721641220E+01  0.25721641220E+01  0.00000000000E+00 0. -1.
         21   -1    0    0  502  503 -0.00000000000E+00 -0.00000000000E+00 -0.39352079051E+03  0.39352079051E+03  0.00000000000E+00 0.  1.
          2    1    1    2  501    0 -0.24360571720E+02 -0.17178418629E+02 -0.12625033855E+03  0.12972156145E+03  0.00000000000E+00 0. -1.
         -2    1    1    2    0  503  0.24360571720E+02  0.17178418629E+02 -0.26469828783E+03  0.26637139317E+03  0.00000000000E+00 0.  1.
</event>
<event>
 4    1  0.1768739E+004  0.2943142E+02  0.7546771E-02  0.1424603E+00
         21   -1    0    0  501  502  0.00000000000E+00  0.00000000000E+00  0.14559304867E+02  0.14559304867E+02  0.00000000000E+00 0. -1.
         21   -1    0    0  502  503 -0.00000000000E+00 -0.00000000000E+00 -0.12756941223E+03  0.12756941223E+03  0.00000000000E+00 0.  1.
          2    1    1    2  501    0  0.29227215988E+02  0.34609746555E+01 -0.45927943126E+01  0.29787619233E+02  0.00000000000E+00 0.  1.
         -2    1    1    2    0  503 -0.29227215988E+02 -0.34609746555E+01 -0.10841731305E+03  0.11234109786E+03  0.00000000000E+00 0. -1.
</event>
<event>
 4    1  0.1768739E+004  0.2108913E+02  0.7546771E-02  0.1517996E+00
         21   -1    0    0  503  502  0.00000000000E+00  0.00000000000E+00  0.12091857944E+03  0.12091857944E+03  0.00000000000E+00 0.  1.
         21   -1    0    0  501  503 -0.00000000000E+00 -0.00000000000E+00 -0.45273447550E+01  0.45273447550E+01  0.00000000000E+00 0. -1.
          2    1    1    2  501    0 -0.18689092981E+02 -0.97708250310E+01  0.31029975990E+02  0.37518137323E+02  0.00000000000E+00 0. -1.
         -2    1    1    2    0  502  0.18689092981E+02  0.97708250310E+01  0.85361258693E+02  0.87927786870E+02  0.00000000000E+00 0.  1.
</event>
<event>
 4    1  0.1768739E+004  0.2444381E+02  0.7546771E-02  0.1475123E+00
         21   -1    0    0  501  502  0.00000000000E+00  0.00000000000E+00  0.11041436325E+03  0.11041436325E+03  0.00000000000E+00 0.  1.
         21   -1    0    0  502  503 -0.00000000000E+00 -0.00000000000E+00 -0.60046118856E+01  0.60046118856E+01  0.00000000000E+00 0. -1.
          2    1    1    2  501    0 -0.24048533195E+02  0.43781412971E+01  0.70500350259E+02  0.74617688632E+02  0.00000000000E+00 0.  1.
         -2    1    1    2    0  503  0.24048533195E+02 -0.43781412971E+01  0.33909401105E+02  0.41801286504E+02  0.00000000000E+00 0. -1.
</event>
<event>
 4    1  0.1768739E+004  0.2398485E+02  0.7546771E-02  0.1480488E+00
         21   -1    0    0  501  502  0.00000000000E+00  0.00000000000E+00  0.19344216128E+02  0.19344216128E+02  0.00000000000E+00 0. -1.
         21   -1    0    0  502  503 -0.00000000000E+00 -0.00000000000E+00 -0.60765646111E+02  0.60765646111E+02  0.00000000000E+00 0.  1.
          2    1    1    2  501    0 -0.22281002268E+02  0.88786242352E+01  0.79110238241E+01  0.25255837510E+02  0.00000000000E+00 0. -1.
         -2    1    1    2    0  503  0.22281002268E+02 -0.88786242352E+01 -0.49332453806E+02  0.54854024729E+02  0.00000000000E+00 0.  1.
</event>
<event>
 4    1  0.1768739E+004  0.2175324E+02  0.7546771E-02  0.1508777E+00
         21   -1    0    0  501  502  0.00000000000E+00  0.00000000000E+00  0.69695844341E+01  0.69695844341E+01  0.00000000000E+00 0. -1.
         21   -1    0    0  502  503 -0.00000000000E+00 -0.00000000000E+00 -0.77857887912E+02  0.77857887912E+02  0.00000000000E+00 0.  1.
          2    1    1    2  501    0 -0.21674132230E+02  0.18535383544E+01 -0.50615925006E+02  0.55092426672E+02  0.00000000000E+00 0.  1.
         -2    1    1    2    0  503  0.21674132230E+02 -0.18535383544E+01 -0.20272378471E+02  0.29735045674E+02  0.00000000000E+00 0. -1.
</event>
<event>
 4    1  0.1768739E+004  0.2097111E+02  0.7546771E-02  0.1519678E+00
         21   -1    0    0  503  502  0.00000000000E+00  0.00000000000E+00  0.28280613303E+03  0.28280613303E+03  0.00000000000E+00 0.  1.
         21   -1    0    0  501  503 -0.00000000000E+00 -0.00000000000E+00 -0.21064665574E+01  0.21064665574E+01  0.00000000000E+00 0. -1.
          2    1    1    2  501    0 -0.17975504321E+02 -0.10801330797E+02  0.67466102563E+02  0.70650283068E+02  0.00000000000E+00 0. -1.
         -2    1    1    2    0  502  0.17975504321E+02  0.10801330797E+02  0.21323356391E+03  0.21426231652E+03  0.00000000000E+00 0.  1.
</event>
<event>
 4    1  0.1768739E+004  0.3786488E+02  0.7546771E-02  0.1361473E+00
         21   -1    0    0  501  502  0.00000000000E+00  0.00000000000E+00  0.14662372167E+03  0.14662372167E+03  0.00000000000E+00 0.  1.
         21   -1    0    0  502  503 -0.00000000000E+00 -0.00000000000E+00 -0.15561361374E+02  0.15561361374E+02  0.00000000000E+00 0. -1.
          2    1    1    2  501    0  0.75989224309E+01  0.37094546869E+02  0.11496581538E+03  0.12104085152E+03  0.00000000000E+00 0.  1.
         -2    1    1    2    0  503 -0.75989224309E+01 -0.37094546869E+02  0.16096544909E+02  0.41144231522E+02  0.00000000000E+00 0. -1.
</event>
<event>
 4    1  0.1768739E+004  0.2032106E+02  0.7546771E-02  0.1529183E+00
         21   -1    0    0  501  502  0.00000000000E+00  0.00000000000E+00  0.23816658331E+03  0.23816658331E+03  0.00000000000E+00 0.  1.
         21   -1    0    0  502  503 -0.00000000000E+00 -0.00000000000E+00 -0.17872334645E+01  0.17872334645E+01  0.00000000000E+00 0. -1.
          2    1    1    2  501    0  0.10219294287E+02 -0.17564496333E+02  0.13892467145E+03  0.14040302648E+03  0.00000000000E+00 0. -1.
         -2    1    1    2    0  503 -0.10219294287E+02  0.17564496333E+02  0.97454678391E+02  0.99550790291E+02  0.00000000000E+00 0.  1.
</event>
<event>
 4    1  0.1768739E+004  0.2576573E+02  0.7546771E-02  0.1460417E+00
         21   -1    0    0  501  502  0.00000000000E+00  0.00000000000E+00  0.10187110987E+03  0.10187110987E+03  0.00000000000E+00 0.  1.
         21   -1    0    0  502  503 -0.00000000000E+00 -0.00000000000E+00 -0.78163648526E+01  0.78163648526E+01  0.00000000000E+00 0. -1.
          2    1    1    2  501    0  0.22395202794E+02 -0.12740791741E+02  0.69390104885E+02  0.74019318683E+02  0.00000000000E+00 0.  1.
         -2    1    1    2    0  503 -0.22395202794E+02  0.12740791741E+02  0.24664640131E+02  0.35668156038E+02  0.00000000000E+00 0. -1.
</event>
<event>
 4    1  0.1768739E+004  0.2252503E+02  0.7546771E-02  0.1498550E+00
         21   -1    0    0  501  502  0.00000000000E+00  0.00000000000E+00  0.31137314767E+01  0.31137314767E+01  0.00000000000E+00 0. -1.
         21   -1    0    0  502  503 -0.00000000000E+00 -0.00000000000E+00 -0.17418486580E+03  0.17418486580E+03  0.00000000000E+00 0.  1.
          2    1    1    2  501    0 -0.11621311022E+02 -0.19295654049E+02 -0.63019755209E+02  0.66924335496E+02  0.00000000000E+00 0. -1.
         -2    1    1    2    0  503  0.11621311022E+02  0.19295654049E+02 -0.10805137912E+03  0.11037426178E+03  0.00000000000E+00 0.  1.
</event>
<event>
 4    1  0.1768739E+004  0.2545124E+02  0.7546771E-02  0.1463818E+00
         21   -1    0    0  501  502  0.00000000000E+00  0.00000000000E+00  0.17309334015E+03  0.17309334015E+03  0.00000000000E+00 0.  1.
         21   -1    0    0  502  503 -0.00000000000E+00 -0.00000000000E+00 -0.37422941072E+01  0.37422941072E+01  0.00000000000E+00 0. -1.
          2    1    1    2  501    0  0.24415097041E+02 -0.71880861723E+01  0.84587603039E+02  0.88333618370E+02  0.00000000000E+00 0. -1.
         -2    1    1    2    0  503 -0.24415097041E+02  0.71880861723E+01  0.84763443002E+02  0.88502015886E+02  0.00000000000E+00 0.  1.
</event>
<event>
 4    1  0.1768739E+004  0.5940121E+02  0.7546771E-02  0.1261881E+00
         21   -1    0    0  503  502  0.00000000000E+00  0.00000000000E+00  0.16495284705E+02  0.16495284705E+02  0.00000000000E+00 0. -1.
         21   -1    0    0  501  503 -0.00000000000E+00 -0.00000000000E+00 -0.47696910498E+03  0.47696910498E+03  0.00000000000E+00 0.  1.
          2    1    1    2  501    0  0.22333930555E+02 -0.55042701464E+02 -0.41347152191E+03  0.41771665381E+03  0.00000000000E+00 0.  1.
         -2    1    1    2    0  502 -0.22333930555E+02  0.55042701464E+02 -0.47002298359E+02  0.75747735871E+02  0.00000000000E+00 0. -1.
</event>
<event>
 4    1  0.1768739E+004  0.2021035E+02  0.7546771E-02  0.1530844E+00
         21   -1    0    0  503  502  0.00000000000E+00  0.00000000000E+00  0.10309684600E+03  0.10309684600E+03  0.00000000000E+00 0. -1.
         21   -1    0    0  501  503 -0.00000000000E+00 -0.00000000000E+00 -0.40535765811E+01  0.40535765811E+01  0.00000000000E+00 0.  1.
          2    1    1    2  501    0 -0.19890843275E+01  0.20112234701E+02  0.41464218455E+02  0.46127430594E+02  0.00000000000E+00 0.  1.
         -2    1    1    2    0  502  0.19890843275E+01 -0.20112234701E+02  0.57579050963E+02  0.61022991986E+02  0.00000000000E+00 0. -1.
</event>
<event>
 4    1  0.1768739E+004  0.2236242E+02  0.7546771E-02  0.1500663E+00
         21   -1    0    0  503  502  0.00000000000E+00  0.00000000000E+00  0.24646899106E+02  0.24646899106E+02  0.00000000000E+00 0.  1.
         21   -1    0    0  501  503 -0.00000000000E+00 -0.00000000000E+00 -0.78228574855E+02  0.78228574855E+02  0.00000000000E+00 0. -1.
          2    1    1    2  501    0  0.15973384888E+02 -0.15650197651E+02 -0.71058261367E+02  0.74493987810E+02  0.00000000000E+00 0. -1.
         -2    1    1    2    0  502 -0.15973384888E+02  0.15650197651E+02  0.17476585618E+02  0.28381486151E+02  0.00000000000E+00 0.  1.
</event>
<event>
 4    1  0.1768739E+004  0.2157195E+02  0.7546771E-02  0.1511253E+00
         21   -1    0    0  501  502  0.00000000000E+00  0.00000000000E+00  0.13303666488E+02  0.13303666488E+02  0.00000000000E+00 0. -1.
         21   -1    0    0  502  503 -0.00000000000E+00 -0.00000000000E+00 -0.77564510566E+02  0.77564510566E+02  0.00000000000E+00 0.  1.
          2    1    1    2  501    0 -0.10968087124E+02 -0.18575524414E+02  0.15347769248E+01  0.21626478739E+02  0.00000000000E+00 0. -1.
         -2    1    1    2    0  503  0.10968087124E+02  0.18575524414E+02 -0.65795621002E+02  0.69241698315E+02  0.00000000000E+00 0.  1.
</event>
<event>
 4    1  0.1768739E+004  0.2650526E+02  0.7546771E-02  0.1452642E+00
         21   -1    0    0  503  502  0.00000000000E+00  0.00000000000E+00  0.16879048642E+01  0.16879048642E+01  0.00000000000E+00 0.  1.
         21   -1    0    0  501  503 -0.00000000000E+00 -0.00000000000E+00 -0.46234395532E+03  0.46234395532E+03  0.00000000000E+00 0. -1.
          2    1    1    2  501    0  0.10097195718E+02  0.24506642733E+02 -0.15704071523E+03  0.15926178180E+03  0.00000000000E+00 0.  1.
         -2    1    1    2    0  502 -0.10097195718E+02 -0.24506642733E+02 -0.30361533522E+03  0.30477007839E+03  0.00000000000E+00 0. -1.
</event>
<event>
 4    1  0.1768739E+004  0.2080268E+02  0.7546771E-02  0.1522101E+00
         21   -1    0    0  503  502  0.00000000000E+00  0.00000000000E+00  0.31230678619E+02  0.31230678619E+02  0.00000000000E+00 0. -1.
         21   -1    0    0  501  503 -0.00000000000E+00 -0.00000000000E+00 -0.13856640655E+02  0.13856640655E+02  0.00000000000E+00 0.  1.
          2    1    1    2  501    0  0.13917582928E+02  0.15461319140E+02  0.87174193976E+01  0.22555374194E+02  0.00000000000E+00 0.  1.
         -2    1    1    2    0  502 -0.13917582928E+02 -0.15461319140E+02  0.86566185663E+01  0.22531945080E+02  0.00000000000E+00 0. -1.
</event>
<event>
 4    1  0.1768739E+004  0.2130260E+02  0.7546771E-02  0.1514988E+00
         21   -1    0    0  501  502  0.00000000000E+00  0.00000000000E+00  0.46562545774E+02  0.46562545774E+02  0.00000000000E+00 0. -1.
         21   -1    0    0  502  503 -0.00000000000E+00 -0.00000000000E+00 -0.14211659533E+02  0.14211659533E+02  0.00000000000E+00 0.  1.
          2    1    1    2  501    0  0.21232034651E+02 -0.17325175776E+01  0.33209074906E+02  0.39454322560E+02  0.00000000000E+00 0. -1.
         -2    1    1    2    0  503 -0.21232034651E+02  0.17325175776E+01 -0.85818866498E+00  0.21319882747E+02  0.00000000000E+00 0.  1.
</event>
<event>
 4    1  0.1768739E+004  0.2729980E+02  0.7546771E-02  0.1444620E+00
         21   -1    0    0  501  502  0.00000000000E+00  0.00000000000E+00  0.35096525057E+01  0.35096525057E+01  0.00000000000E+00 0. -1.
         21   -1    0    0  502  503 -0.00000000000E+00 -0.00000000000E+00 -0.21623474891E+03  0.21623474891E+03  0.00000000000E+00 0.  1.
          2    1    1    2  501    0 -0.26918714590E+02  0.45455108301E+01 -0.91638054081E+02  0.95618051746E+02  0.00000000000E+00 0. -1.
         -2    1    1    2    0  503  0.26918714590E+02 -0.45455108301E+01 -0.12108704233E+03  0.12412634967E+03  0.00000000000E+00 0.  1.
</event>
<event>
 4    1  0.1768739E+004  0.2682467E+02  0.7546771E-02  0.1449377E+00
         21   -1    0    0  501  502  0.00000000000E+00  0.00000000000E+00  0.31238614764E+01  0.31238614764E+01  0.00000000000E+00 0. -1.
         21   -1    0    0  502  503 -0.00000000000E+00 -0.00000000000E+00 -0.46856710726E+03  0.46856710726E+03  0.00000000000E+00 0.  1.
          2    1    1    2  501    0 -0.19469655726E+01 -0.26753921996E+02 -0.64557428867E+02  0.69908687865E+02  0.00000000000E+00 0. -1.
         -2    1    1    2    0  503  0.19469655726E+01  0.26753921996E+02 -0.40088581691E+03  0.40178228087E+03  0.00000000000E+00 0.  1.
</event>
<event>
 4    1  0.1768739E+004  0.2373030E+02  0.7546771E-02  0.1483526E+00
         21   -1    0    0  503  502  0.00000000000E+00  0.00000000000E+00  0.95426074211E+03  0.95426074211E+03  0.00000000000E+00 0. -1.
         21   -1    0    0  501  503 -0.00000000000E+00 -0.00000000000E+00 -0.27317338909E+01  0.27317338909E+01  0.00000000000E+00 0.  1.
          2    1    1    2  501    0 -0.65921677693E+01  0.22796278022E+02  0.52092207820E+02  0.57242685848E+02  0.00000000000E+00 0.  1.
         -2    1    1    2    0  502  0.65921677693E+01 -0.22796278022E+02  0.89943680040E+03  0.89974979015E+03  0.00000000000E+00 0. -1.
</event>
<event>
 4    1  0.1768739E+004  0.3889937E+02  0.7546771E-02  0.1355059E+00
         21   -1    0    0  503  502  0.00000000000E+00  0.00000000000E+00  0.72045979725E+03  0.72045979725E+03  0.00000000000E+00 0.  1.
         21   -1    0    0  501  503 -0.00000000000E+00 -0.00000000000E+00 -0.32214445631E+01  0.32214445631E+01  0.00000000000E+00 0. -1.
          2    1    1    2  501    0  0.37916610096E+02  0.86886125228E+01  0.14515338801E+03  0.15027530522E+03  0.00000000000E+00 0. -1.
         -2    1    1    2    0  502 -0.37916610096E+02 -0.86886125228E+01  0.57208496468E+03  0.57340593659E+03  0.00000000000E+00 0.  1.
</event>
<event>
 4    1  0.1768739E+004  0.2892779E+02  0.7546771E-02  0.1429148E+00
         21   -1    0    0  501  502  0.00000000000E+00  0.00000000000E+00  0.36186646989E+02  0.36186646989E+02  0.00000000000E+00 0.  1.
         21   -1    0    0  502  503 -0.00000000000E+00 -0.00000000000E+00 -0.49295812457E+02  0.49295812457E+02  0.00000000000E+00 0. -1.
          2    1    1    2  501    0 -0.28550687669E+02  0.46556955785E+01  0.24587693985E+02  0.37965404820E+02  0.00000000000E+00 0.  1.
         -2    1    1    2    0  503  0.28550687669E+02 -0.46556955785E+01 -0.37696859453E+02  0.47517054626E+02  0.00000000000E+00 0. -1.
</event>
<event>
 4    1  0.1768739E+004  0.3671469E+02  0.7546771E-02  0.1368893E+00
         21   -1    0    0  501  502  0.00000000000E+00  0.00000000000E+00  0.40351442931E+02  0.40351442931E+02  0.00000000000E+00 0.  1.
         21   -1    0    0  502  503 -0.00000000000E+00 -0.00000000000E+00 -0.34777831477E+02  0.34777831477E+02  0.00000000000E+00 0. -1.
          2    1    1    2  501    0 -0.31080910707E+02  0.19543422275E+02 -0.46746773137E+01  0.37011092561E+02  0.00000000000E+00 0.  1.
         -2    1    1    2    0  503  0.31080910707E+02 -0.19543422275E+02  0.10248288767E+02  0.38118181846E+02  0.00000000000E+00 0. -1.
</event>
<event>
 4    1  0.1768739E+004  0.2111189E+02  0.7546771E-02  0.1517673E+00
         21   -1    0    0  503  502  0.00000000000E+00  0.00000000000E+00  0.34155473242E+02  0.34155473242E+02  0.00000000000E+00 0.  1.
         21   -1    0    0  501  503 -0.00000000000E+00 -0.00000000000E+00 -0.11496084316E+03  0.11496084316E+03  0.00000000000E+00 0. -1.
          2    1    1    2  501    0 -0.16594201379E+02  0.13051603634E+02 -0.11060177166E+03  0.11259868459E+03  0.00000000000E+00 0. -1.
         -2    1    1    2    0  502  0.16594201379E+02 -0.13051603634E+02  0.29796401739E+02  0.36517631816E+02  0.00000000000E+00 0.  1.
</event>
<event>
 4    1  0.1768739E+004  0.2654608E+02  0.7546771E-02  0.1452222E+00
         21   -1    0    0  501  502  0.00000000000E+00  0.00000000000E+00  0.16392665602E+02  0.16392665602E+02  0.00000000000E+00 0.  1.
         21   -1    0    0  502  503 -0.00000000000E+00 -0.00000000000E+00 -0.44611683114E+02  0.44611683114E+02  0.00000000000E+00 0. -1.
          2    1    1    2  501    0 -0.32098781684E+01  0.26351298971E+02 -0.82910871625E+01  0.27810724580E+02  0.00000000000E+00 0.  1.
         -2    1    1    2    0  503  0.32098781684E+01 -0.26351298971E+02 -0.19927930349E+02  0.33193624136E+02  0.00000000000E+00 0. -1.
</event>
<event>
 4    1  0.1768739E+004  0.3785392E+02  0.7546771E-02  0.1361542E+00
         21   -1    0    0  501  502  0.00000000000E+00  0.00000000000E+00  0.72813488398E+01  0.72813488398E+01  0.00000000000E+00 0. -1.
         21   -1    0    0  502  503 -0.00000000000E+00 -0.00000000000E+00 -0.36115254363E+03  0.36115254363E+03  0.00000000000E+00 0.  1.
          2    1    1    2  501    0 -0.31289431811E+02 -0.21304708158E+02 -0.52661223143E+02  0.64854634034E+02  0.00000000000E+00 0. -1.
         -2    1    1    2    0  503  0.31289431811E+02  0.21304708158E+02 -0.30120997165E+03  0.30357925843E+03  0.00000000000E+00 0.  1.
</event>
<event>
 4    1  0.1768739E+004  0.2619903E+02  0.7546771E-02  0.1455824E+00
         21   -1    0    0  501  502  0.00000000000E+00  0.00000000000E+00  0.88217617488E+00  0.88217617488E+00  0.00000000000E+00 0. -1.
         21   -1    0    0  502  503 -0.00000000000E+00 -0.00000000000E+00 -0.12991720203E+04  0.12991720203E+04  0.00000000000E+00 0.  1.
          2    1    1    2  501    0  0.20853155824E+02 -0.15859862173E+02 -0.23746271265E+03  0.23890359821E+03  0.00000000000E+00 0. -1.
         -2    1    1    2    0  503 -0.20853155824E+02  0.15859862173E+02 -0.10608271315E+04  0.10611505983E+04  0.00000000000E+00 0.  1.
</event>
<event>
 4    1  0.1768739E+004  0.2176817E+02  0.7546771E-02  0.1508574E+00
         21   -1    0    0  503  502  0.00000000000E+00  0.00000000000E+00  0.20056872177E+02  0.20056872177E+02  0.00000000000E+00 0. -1.
         21   -1    0    0  501  503 -0.00000000000E+00 -0.00000000000E+00 -0.24343365309E+02  0.24343365309E+02  0.00000000000E+00 0.  1.
          2    1    1    2  501    0  0.19068173561E+02  0.10500382781E+02  0.16690948082E+01  0.21832067218E+02  0.00000000000E+00 0.  1.
         -2    1    1    2    0  502 -0.19068173561E+02 -0.10500382781E+02 -0.59555879406E+01  0.22568170268E+02  0.00000000000E+00 0. -1.
</event>
<event>
 4    1  0.1768739E+004  0.2834672E+02  0.7546771E-02  0.1434530E+00
         21   -1    0    0  501  502  0.00000000000E+00  0.00000000000E+00  0.22862788422E+03  0.22862788422E+03  0.00000000000E+00 0.  1.
         21   -1    0    0  502  503 -0.00000000000E+00 -0.00000000000E+00 -0.42283897821E+01  0.42283897821E+01  0.00000000000E+00 0. -1.
          2    1    1    2  501    0 -0.28141152696E+02 -0.34076698303E+01  0.16003566435E+03  0.16252676873E+03  0.00000000000E+00 0.  1.
         -2    1    1    2    0  503  0.28141152696E+02  0.34076698303E+01  0.64363830087E+02  0.70329505275E+02  0.00000000000E+00 0. -1.
</event>
<event>
 4    1  0.1768739E+004  0.2115469E+02  0.7546771E-02  0.1517068E+00
         21   -1    0    0  503  502  0.00000000000E+00  0.00000000000E+00  0.16207606559E+01  0.16207606559E+01  0.00000000000E+00 0.  1.
         21   -1    0    0  501  503 -0.00000000000E+00 -0.00000000000E+00 -0.28000632483E+03  0.28000632483E+03  0.00000000000E+00 0. -1.
          2    1    1    2  501    0  0.17058829206E+02  0.12510682668E+02 -0.12259866905E+03  0.12441042757E+03  0.00000000000E+00 0. -1.
         -2    1    1    2    0  502 -0.17058829206E+02 -0.12510682668E+02 -0.15578689512E+03  0.15721665791E+03  0.00000000000E+00 0.  1.
</event>
<event>
 4    1  0.1768739E+004  0.2402728E+02  0.7546771E-02  0.1479986E+00
         21   -1    0    0  501  502  0.00000000000E+00  0.00000000000E+00  0.60560948887E+02  0.60560948887E+02  0.00000000000E+00 0.  1.
         21   -1    0    0  502  503 -0.00000000000E+00 -0.00000000000E+00 -0.15933617437E+02  0.15933617437E+02  0.00000000000E+00 0. -1.
          2    1    1    2  501    0  0.23002193683E+01  0.23916927233E+02  0.46555412886E+02  0.52390045680E+02  0.00000000000E+00 0.  1.
         -2    1    1    2    0  503 -0.23002193683E+01 -0.23916927233E+02 -0.19280814361E+01  0.24104520643E+02  0.00000000000E+00 0. -1.
</event>
<event>
 4    1  0.1768739E+004  0.2894794E+02  0.7546771E-02  0.1428964E+00
         21   -1    0    0  501  502  0.00000000000E+00  0.00000000000E+00  0.19398466751E+02  0.19398466751E+02  0.00000000000E+00 0.  1.
         21   -1    0    0  502  503 -0.00000000000E+00 -0.00000000000E+00 -0.61501368909E+02  0.61501368909E+02  0.00000000000E+00 0. -1.
          2    1    1    2  501    0  0.19922525118E+02  0.21001808044E+02  0.10151725469E+01  0.28965730157E+02  0.00000000000E+00 0.  1.
         -2    1    1    2    0  503 -0.19922525118E+02 -0.21001808044E+02 -0.43118074705E+02  0.51934105504E+02  0.00000000000E+00 0. -1.
</event>
<event>
 4    1  0.1768739E+004  0.2602834E+02  0.7546771E-02  0.1457621E+00
         21   -1    0    0  503  502  0.00000000000E+00  0.00000000000E+00  0.29947595208E+02  0.29947595208E+02  0.00000000000E+00 0. -1.
         21   -1    0    0  501  503 -0.00000000000E+00 -0.00000000000E+00 -0.14114637759E+03  0.14114637759E+03  0.00000000000E+00 0.  1.
          2    1    1    2  501    0 -0.24355754005E+02 -0.91799563891E+01 -0.13399174365E+03  0.13649637987E+03  0.00000000000E+00 0.  1.
         -2    1    1    2    0  502  0.24355754005E+02  0.91799563891E+01  0.22792961270E+02  0.34597592921E+02  0.00000000000E+00 0. -1.
</event>
<event>
 4    1  0.1768739E+004  0.3684276E+02  0.7546771E-02  0.1368051E+00
         21   -1    0    0  503  502  0.00000000000E+00  0.00000000000E+00  0.27219561423E+03  0.27219561423E+03  0.00000000000E+00 0.  1.
         21   -1    0    0  501  503 -0.00000000000E+00 -0.00000000000E+00 -0.18052697266E+02  0.18052697266E+02  0.00000000000E+00 0. -1.
          2    1    1    2  501    0 -0.36368444528E+02 -0.58928321167E+01  0.36081179419E+01  0.37019018663E+02  0.00000000000E+00 0. -1.
         -2    1    1    2    0  502  0.36368444528E+02  0.58928321167E+01  0.25053479902E+03  0.25322929283E+03  0.00000000000E+00 0.  1.
</event>
<event>
 4    1  0.1768739E+004  0.3096302E+02  0.7546771E-02  0.1411408E+00
         21   -1    0    0  503  502  0.00000000000E+00  0.00000000000E+00  0.35827053897E+02  0.35827053897E+02  0.00000000000E+00 0.  1.
         21   -1    0    0  501  503 -0.00000000000E+00 -0.00000000000E+00 -0.40931530808E+02  0.40931530808E+02  0.00000000000E+00 0. -1.
          2    1    1    2  501    0  0.11303513074E+02  0.28826014106E+02 -0.25135485603E+02  0.39881087417E+02  0.00000000000E+00 0. -1.
         -2    1    1    2    0  502 -0.11303513074E+02 -0.28826014106E+02  0.20031008692E+02  0.36877497289E+02  0.00000000000E+00 0.  1.
</event>
<event>
 4    1  0.1768739E+004  0.4548483E+02  0.7546771E-02  0.1319033E+00
         21   -1    0    0  501  502  0.00000000000E+00  0.00000000000E+00  0.22712964254E+02  0.22712964254E+02  0.00000000000E+00 0.  1.
         21   -1    0    0  502  503 -0.00000000000E+00 -0.00000000000E+00 -0.24107085682E+03  0.24107085682E+03  0.00000000000E+00 0. -1.
          2    1    1    2  501    0  0.44941315483E+02  0.70105681330E+01 -0.51468950596E+01  0.45775107118E+02  0.00000000000E+00 0. -1.
         -2    1    1    2    0  503 -0.44941315483E+02 -0.70105681330E+01 -0.21321099750E+03  0.21800871395E+03  0.00000000000E+00 0.  1.
</event>
<event>
 4    1  0.1768739E+004  0.2927374E+02  0.7546771E-02  0.1426014E+00
         21   -1    0    0  501  502  0.00000000000E+00  0.00000000000E+00  0.28445337926E+03  0.28445337926E+03  0.00000000000E+00 0.  1.
         21   -1    0    0  502  503 -0.00000000000E+00 -0.00000000000E+00 -0.30190997792E+01  0.30190997792E+01  0.00000000000E+00 0. -1.
          2    1    1    2  501    0  0.26539034561E+02  0.12354413688E+02  0.14737258895E+03  0.15025189472E+03  0.00000000000E+00 0.  1.
         -2    1    1    2    0  503 -0.26539034561E+02 -0.12354413688E+02  0.13406169052E+03  0.13722058431E+03  0.00000000000E+00 0. -1.
</event>
<event>
 4    1  0.1768739E+004  0.2532267E+02  0.7546771E-02  0.1465226E+00
         21   -1    0    0  503  502  0.00000000000E+00  0.00000000000E+00  0.39262468732E+02  0.39262468732E+02  0.00000000000E+00 0.  1.
         21   -1    0    0  501  503 -0.00000000000E+00 -0.00000000000E+00 -0.21425453841E+02  0.21425453841E+02  0.00000000000E+00 0. -1.
          2    1    1    2  501    0  0.50962624305E+01 -0.24804555285E+02 -0.58763218211E+01  0.25995557539E+02  0.00000000000E+00 0. -1.
         -2    1    1    2    0  502 -0.50962624305E+01  0.24804555285E+02  0.23713336712E+02  0.34692365034E+02  0.00000000000E+00 0.  1.
</event>
<event>
 4    1  0.1768739E+004  0.2458382E+02  0.7546771E-02  0.1473513E+00
         21   -1    0    0  501  502  0.00000000000E+00  0.00000000000E+00  0.49167213170E+02  0.49167213170E+02  0.00000000000E+00 0.  1.
         21   -1    0    0  502  503 -0.00000000000E+00 -0.00000000000E+00 -0.22727523478E+02  0.22727523478E+02  0.00000000000E+00 0. -1.
          2    1    1    2  501    0  0.96490263685E+01  0.22611065162E+02  0.37578197437E+02  0.44905288109E+02  0.00000000000E+00 0.  1.
         -2    1    1    2    0  503 -0.96490263685E+01 -0.22611065162E+02 -0.11138507745E+02  0.26989448538E+02  0.00000000000E+00 0. -1.
</event>
<event>
 4    1  0.1768739E+004  0.2075304E+02  0.7546771E-02  0.1522820E+00
         21   -1    0    0  503  502  0.00000000000E+00  0.00000000000E+00  0.33444680423E+02  0.33444680423E+02  0.00000000000E+00 0. -1.
         21   -1    0    0  501  503 -0.00000000000E+00 -0.00000000000E+00 -0.77322215892E+02  0.77322215892E+02  0.00000000000E+00 0.  1.
          2    1    1    2  501    0 -0.20431763911E+02  0.36375182228E+01 -0.72500394035E+02  0.75412171767E+02  0.00000000000E+00 0.  1.
         -2    1    1    2    0  502  0.20431763911E+02 -0.36375182228E+01  0.28622858566E+02  0.35354724548E+02  0.00000000000E+00 0. -1.
</event>
<event>
 4    1  0.1768739E+004  0.4924915E+02  0.7546771E-02  0.1301461E+00
         21   -1    0    0  501  502  0.00000000000E+00  0.00000000000E+00  0.60978892773E+03  0.60978892773E+03  0.00000000000E+00 0.  1.
         21   -1    0    0  502  503 -0.00000000000E+00 -0.00000000000E+00 -0.49177005501E+01  0.49177005501E+01  0.00000000000E+00 0. -1.
          2    1    1    2  501    0  0.50847833599E+01  0.48985953388E+02  0.43682059995E+03  0.43958811994E+03  0.00000000000E+00 0.  1.
         -2    1    1    2    0  503 -0.50847833599E+01 -0.48985953388E+02  0.16805062723E+03  0.17511850834E+03  0.00000000000E+00 0. -1.
</event>
<event>
 4    1  0.1768739E+004  0.2122733E+02  0.7546771E-02  0.1516044E+00
         21   -1    0    0  501  502  0.00000000000E+00  0.00000000000E+00  0.36524193913E+02  0.36524193913E+02  0.00000000000E+00 0.  1.
         21   -1    0    0  502  503 -0.00000000000E+00 -0.00000000000E+00 -0.30290773414E+02  0.30290773414E+02  0.00000000000E+00 0. -1.
          2    1    1    2  501    0 -0.12260970312E+02  0.17328252138E+02  0.28836428700E+02  0.35806973278E+02  0.00000000000E+00 0.  1.
         -2    1    1    2    0  503  0.12260970312E+02 -0.17328252138E+02 -0.22603008202E+02  0.31007994049E+02  0.00000000000E+00 0. -1.
</event>
<event>
 4    1  0.1768739E+004  0.2227788E+02  0.7546771E-02  0.1501771E+00
         21   -1    0    0  503  502  0.00000000000E+00  0.00000000000E+00  0.70733209898E+01  0.70733209898E+01  0.00000000000E+00 0. -1.
         21   -1    0    0  501  503 -0.00000000000E+00 -0.00000000000E+00 -0.73291553882E+02  0.73291553882E+02  0.00000000000E+00 0.  1.
          2    1    1    2  501    0  0.94558310020E+01  0.20171542890E+02 -0.41407622131E+02  0.47020155817E+02  0.00000000000E+00 0. -1.
         -2    1    1    2    0  502 -0.94558310020E+01 -0.20171542890E+02 -0.24810610761E+02  0.33344719055E+02  0.00000000000E+00 0.  1.
</event>
<event>
 4    1  0.1768739E+004  0.2013487E+02  0.7546771E-02  0.1531984E+00
         21   -1    0    0  503  502  0.00000000000E+00  0.00000000000E+00  0.26247340394E+01  0.26247340394E+01  0.00000000000E+00 0. -1.
         21   -1    0    0  501  503 -0.00000000000E+00 -0.00000000000E+00 -0.18552626550E+03  0.18552626550E+03  0.00000000000E+00 0.  1.
          2    1    1    2  501    0  0.20124569302E+02  0.64407227084E+00 -0.12994778888E+03  0.13149844468E+03  0.00000000000E+00 0.  1.
         -2    1    1    2    0  502 -0.20124569302E+02 -0.64407227084E+00 -0.52953742581E+02  0.56652554859E+02  0.00000000000E+00 0. -1.
</event>
<event>
 4    1  0.1768739E+004  0.2038103E+02  0.7546771E-02  0.1528288E+00
         21   -1    0    0  501  502  0.00000000000E+00  0.00000000000E+00  0.41224011584E+01  0.41224011584E+01  0.00000000000E+00 0. -1.
         21   -1    0    0  502  503 -0.00000000000E+00 -0.00000000000E+00 -0.10263229674E+03  0.10263229674E+03  0.00000000000E+00 0.  1.
          2    1    1    2  501    0  0.19447808049E+02  0.60966629310E+01 -0.56458141681E+02  0.60024230931E+02  0.00000000000E+00 0. -1.
         -2    1    1    2    0  503 -0.19447808049E+02 -0.60966629310E+01 -0.42051753898E+02  0.46730466964E+02  0.00000000000E+00 0.  1.
</event>
<event>
 4    1  0.1768739E+004  0.4070893E+02  0.7546771E-02  0.1344381E+00
         21   -1    0    0  503  502  0.00000000000E+00  0.00000000000E+00  0.16236004827E+03  0.16236004827E+03  0.00000000000E+00 0. -1.
         21   -1    0    0  501  503 -0.00000000000E+00 -0.00000000000E+00 -0.28222070731E+02  0.28222070731E+02  0.00000000000E+00 0.  1.
          2    1    1    2  501    0 -0.29179417122E+02 -0.28386234924E+02 -0.90643948266E+01  0.41705874530E+02  0.00000000000E+00 0.  1.
         -2    1    1    2    0  502  0.29179417122E+02  0.28386234924E+02  0.14320237237E+03  0.14887624448E+03  0.00000000000E+00 0. -1.
</event>
<event>
 4    1  0.1768739E+004  0.2986862E+02  0.7546771E-02  0.1420742E+00
         21   -1    0    0  503  502  0.00000000000E+00  0.00000000000E+00  0.17929415051E+03  0.17929415051E+03  0.00000000000E+00 0. -1.
         21   -1    0    0  501  503 -0.00000000000E+00 -0.00000000000E+00 -0.16810113324E+02  0.16810113324E+02  0.00000000000E+00 0.  1.
          2    1    1    2  501    0 -0.14339710308E+02 -0.26201287256E+02 -0.10282573518E+01  0.29886318923E+02  0.00000000000E+00 0.  1.
         -2    1    1    2    0  502  0.14339710308E+02  0.26201287256E+02  0.16351229453E+03  0.16621794491E+03  0.00000000000E+00 0. -1.
</event>
<event>
 4    1  0.1768739E+004  0.3270347E+02  0.7546771E-02  0.1397470E+00
         21   -1    0    0  503  502  0.00000000000E+00  0.00000000000E+00  0.21035345908E+03  0.21035345908E+03  0.00000000000E+00 0. -1.
         21   -1    0    0  501  503 -0.00000000000E+00 -0.00000000000E+00 -0.10955981792E+02  0.10955981792E+02  0.00000000000E+00 0.  1.
          2    1    1    2  501    0  0.11773060177E+02  0.30510852283E+02  0.18070574225E+03  0.18364117822E+03  0.00000000000E+00 0. -1.
         -2    1    1    2    0  502 -0.11773060177E+02 -0.30510852283E+02  0.18691735034E+02  0.37668262656E+02  0.00000000000E+00 0.  1.
</event>
<event>
 4    1  0.1768739E+004  0.2168841E+02  0.7546771E-02  0.1509659E+00
         21   -1    0    0  501  502  0.00000000000E+00  0.00000000000E+00  0.19657003175E+03  0.19657003175E+03  0.00000000000E+00 0.  1.
         21   -1    0    0  502  503 -0.00000000000E+00 -0.00000000000E+00 -0.24047001616E+01  0.24047001616E+01  0.00000000000E+00 0. -1.
          2    1    1    2  501    0 -0.12614780008E+02 -0.17642407570E+02  0.90135744468E+02  0.92708358039E+02  0.00000000000E+00 0. -1.
         -2    1    1    2    0  503  0.12614780008E+02  0.17642407570E+02  0.10402958712E+03  0.10626637387E+03  0.00000000000E+00 0.  1.
</event>
<event>
 4    1  0.1768739E+004  0.2744037E+02  0.7546771E-02  0.1443234E+00
         21   -1    0    0  501  502  0.00000000000E+00  0.00000000000E+00  0.13921580322E+01  0.13921580322E+01  0.00000000000E+00 0. -1.
         21   -1    0    0  502  503 -0.00000000000E+00 -0.00000000000E+00 -0.11274828461E+04  0.11274828461E+04  0.00000000000E+00 0.  1.
          2    1    1    2  501    0 -0.25532877041E+02  0.10052161200E+02 -0.97017937788E+03  0.97056735934E+03  0.00000000000E+00 0.  1.
         -2    1    1    2    0  503  0.25532877041E+02 -0.10052161200E+02 -0.15591131018E+03  0.15830764478E+03  0.00000000000E+00 0. -1.
</event>
<event>
 4    1  0.1768739E+004  0.2655293E+02  0.7546771E-02  0.1452151E+00
         21   -1    0    0  501  502  0.00000000000E+00  0.00000000000E+00  0.34858705904E+00  0.34858705904E+00  0.00000000000E+00 0. -1.
         21   -1    0    0  502  503 -0.00000000000E+00 -0.00000000000E+00 -0.20242335925E+04  0.20242335925E+04  0.00000000000E+00 0.  1.
          2    1    1    2  501    0 -0.22418189941E+02  0.14229639798E+02 -0.98332965222E+03  0.98368809225E+03  0.00000000000E+00 0. -1.
         -2    1    1    2    0  503  0.22418189941E+02 -0.14229639798E+02 -0.10405553533E+04  0.10408940874E+04  0.00000000000E+00 0.  1.
</event>
<event>
 4    1  0.1768739E+004  0.3383983E+02  0.7546771E-02  0.1388908E+00
         21   -1    0    0  503  502  0.00000000000E+00  0.00000000000E+00  0.21525491434E+01  0.21525491434E+01  0.00000000000E+00 0.  1.
         21   -1    0    0  501  503 -0.00000000000E+00 -0.00000000000E+00 -0.74573742246E+03  0.74573742246E+03  0.00000000000E+00 0. -1.
          2    1    1    2  501    0 -0.31434958829E+02  0.12529074878E+02 -0.57199300854E+03  0.57299313798E+03  0.00000000000E+00 0. -1.
         -2    1    1    2    0  502  0.31434958829E+02 -0.12529074878E+02 -0.17159186478E+03  0.17489683362E+03  0.00000000000E+00 0.  1.
</event>
<event>
 4    1  0.1768739E+004  0.3242242E+02  0.7546771E-02  0.1399650E+00
         21   -1    0    0  503  502  0.00000000000E+00  0.00000000000E+00  0.73534311391E+02  0.73534311391E+02  0.00000000000E+00 0. -1.
         21   -1    0    0  501  503 -0.00000000000E+00 -0.00000000000E+00 -0.23981071753E+02  0.23981071753E+02  0.00000000000E+00 0.  1.
          2    1    1    2  501    0 -0.32180406196E+02  0.39540611614E+01 -0.62097313289E+01  0.33011723762E+02  0.00000000000E+00 0.  1.
         -2    1    1    2    0  502  0.32180406196E+02 -0.39540611614E+01  0.55762970966E+02  0.64503659381E+02  0.00000000000E+00 0. -1.
</event>
<event>
 4    1  0.1768739E+004  0.2217125E+02  0.7546771E-02  0.1503176E+00
         21   -1    0    0  501  502  0.00000000000E+00  0.00000000000E+00  0.44760098331E+03  0.44760098331E+03  0.00000000000E+00 0. -1.
         21   -1    0    0  502  503 -0.00000000000E+00 -0.00000000000E+00 -0.26671569066E+01  0.26671569066E+01  0.00000000000E+00 0.  1.
          2    1    1    2  501    0 -0.82327976270E+01  0.20586045114E+02  0.39513804015E+03  0.39575956714E+03  0.00000000000E+00 0. -1.
         -2    1    1    2    0  503  0.82327976270E+01 -0.20586045114E+02  0.49795786261E+02  0.54508573083E+02  0.00000000000E+00 0.  1.
</event>
<event>
 4    1  0.1768739E+004  0.2177036E+02  0.7546771E-02  0.1508544E+00
         21   -1    0    0  501  502  0.00000000000E+00  0.00000000000E+00  0.39725797101E+02  0.39725797101E+02  0.00000000000E+00 0. -1.
         21   -1    0    0  502  503 -0.00000000000E+00 -0.00000000000E+00 -0.21633810711E+02  0.21633810711E+02  0.00000000000E+00 0.  1.
          2    1    1    2  501    0 -0.17393886051E+02  0.13092038552E+02  0.29592877072E+02  0.36738088121E+02  0.00000000000E+00 0. -1.
         -2    1    1    2    0  503  0.17393886051E+02 -0.13092038552E+02 -0.11500890682E+02  0.24621519691E+02  0.00000000000E+00 0.  1.
</event>
<event>
 4    1  0.1768739E+004  0.2344401E+02  0.7546771E-02  0.1486997E+00
         21   -1    0    0  503  502  0.00000000000E+00  0.00000000000E+00  0.15231197241E+02  0.15231197241E+02  0.00000000000E+00 0. -1.
         21   -1    0    0  501  503 -0.00000000000E+00 -0.00000000000E+00 -0.47445412661E+02  0.47445412661E+02  0.00000000000E+00 0.  1.
          2    1    1    2  501    0  0.10793387898E+02  0.20811642111E+02 -0.31441639697E+02  0.39219872214E+02  0.00000000000E+00 0. -1.
         -2    1    1    2    0  502 -0.10793387898E+02 -0.20811642111E+02 -0.77257572307E+00  0.23456737687E+02  0.00000000000E+00 0.  1.
</event>
<event>
 4    1  0.1768739E+004  0.2061216E+02  0.7546771E-02  0.1524875E+00
         21   -1    0    0  503  502  0.00000000000E+00  0.00000000000E+00  0.41616132529E+01  0.41616132529E+01  0.00000000000E+00 0. -1.
         21   -1    0    0  501  503 -0.00000000000E+00 -0.00000000000E+00 -0.50207785802E+03  0.50207785802E+03  0.00000000000E+00 0.  1.
          2    1    1    2  501    0 -0.17077085500E+02  0.11542707062E+02 -0.47488278266E+03  0.47532990460E+03  0.00000000000E+00 0.  1.
         -2    1    1    2    0  502  0.17077085500E+02 -0.11542707062E+02 -0.23033462102E+02  0.30909566672E+02  0.00000000000E+00 0. -1.
</event>
<event>
 4    1  0.1768739E+004  0.2181617E+02  0.7546771E-02  0.1507924E+00
         21   -1    0    0  501  502  0.00000000000E+00  0.00000000000E+00  0.10700974209E+03  0.10700974209E+03  0.00000000000E+00 0. -1.
         21   -1    0    0  502  503 -0.00000000000E+00 -0.00000000000E+00 -0.90138341835E+01  0.90138341835E+01  0.00000000000E+00 0.  1.
          2    1    1    2  501    0 -0.98937236607E+01  0.19443754390E+02  0.90287170189E+02  0.92885512613E+02  0.00000000000E+00 0. -1.
         -2    1    1    2    0  503  0.98937236607E+01 -0.19443754390E+02  0.77087377141E+01  0.23138063657E+02  0.00000000000E+00 0.  1.
</event>
<event>
 4    1  0.1768739E+004  0.2476876E+02  0.7546771E-02  0.1471407E+00
         21   -1    0    0  503  502  0.00000000000E+00  0.00000000000E+00  0.84882667602E+01  0.84882667602E+01  0.00000000000E+00 0.  1.
         21   -1    0    0  501  503 -0.00000000000E+00 -0.00000000000E+00 -0.10256324543E+03  0.10256324543E+03  0.00000000000E+00 0. -1.
          2    1    1    2  501    0 -0.13415962814E+02 -0.20820741964E+02 -0.77211572196E+02  0.81087102766E+02  0.00000000000E+00 0. -1.
         -2    1    1    2    0  502  0.13415962814E+02  0.20820741964E+02 -0.16863406472E+02  0.29964409421E+02  0.00000000000E+00 0.  1.
</event>
<event>
 4    1  0.1768739E+004  0.2787621E+02  0.7546771E-02  0.1439000E+00
         21   -1    0    0  501  502  0.00000000000E+00  0.00000000000E+00  0.31490964278E+03  0.31490964278E+03  0.00000000000E+00 0. -1.
         21   -1    0    0  502  503 -0.00000000000E+00 -0.00000000000E+00 -0.65945112663E+01  0.65945112663E+01  0.00000000000E+00 0.  1.
          2    1    1    2  501    0  0.27590820199E+02  0.39786765448E+01  0.28132497224E+03  0.28270271176E+03  0.00000000000E+00 0. -1.
         -2    1    1    2    0  503 -0.27590820199E+02 -0.39786765448E+01  0.26990159267E+02  0.38801442287E+02  0.00000000000E+00 0.  1.
</event>
<event>
 4    1  0.1768739E+004  0.3725733E+02  0.7546771E-02  0.1365353E+00
         21   -1    0    0  503  502  0.00000000000E+00  0.00000000000E+00  0.27962982345E+03  0.27962982345E+03  0.00000000000E+00 0.  1.
         21   -1    0    0  501  503 -0.00000000000E+00 -0.00000000000E+00 -0.84551689650E+01  0.84551689650E+01  0.00000000000E+00 0. -1.
          2    1    1    2  501    0  0.13385565459E+02 -0.34769746658E+02  0.43030363510E+02  0.56918545564E+02  0.00000000000E+00 0. -1.
         -2    1    1    2    0  502 -0.13385565459E+02  0.34769746658E+02  0.22814429098E+03  0.23116644685E+03  0.00000000000E+00 0.  1.
</event>
<event>
 4    1  0.1768739E+004  0.3385098E+02  0.7546771E-02  0.1388826E+00
         21   -1    0    0  503  502  0.00000000000E+00  0.00000000000E+00  0.63651181580E+03  0.63651181580E+03  0.00000000000E+00 0. -1.
         21   -1    0    0  501  503 -0.00000000000E+00 -0.00000000000E+00 -0.21521623567E+01  0.21521623567E+01  0.00000000000E+00 0.  1.
          2    1    1    2  501    0  0.14213126824E+02  0.30722561787E+02  0.18805372364E+03  0.19107614124E+03  0.00000000000E+00 0.  1.
         -2    1    1    2    0  502 -0.14213126824E+02 -0.30722561787E+02  0.44630592981E+03  0.44758783692E+03  0.00000000000E+00 0. -1.
</event>
<event>
 4    1  0.1768739E+004  0.2056829E+02  0.7546771E-02  0.1525519E+00
         21   -1    0    0  501  502  0.00000000000E+00  0.00000000000E+00  0.39452347445E+03  0.39452347445E+03  0.00000000000E+00 0. -1.
         21   -1    0    0  502  503 -0.00000000000E+00 -0.00000000000E+00 -0.93439659003E+01  0.93439659003E+01  0.00000000000E+00 0.  1.
          2    1    1    2  501    0  0.20034831433E+02  0.46540194472E+01  0.38258348059E+03  0.38313597324E+03  0.00000000000E+00 0. -1.
         -2    1    1    2    0  503 -0.20034831433E+02 -0.46540194472E+01  0.25960279609E+01  0.20731467115E+02  0.00000000000E+00 0.  1.
</event>
<event>
 4    1  0.1768739E+004  0.2292927E+02  0.7546771E-02  0.1493388E+00
         21   -1    0    0  501  502  0.00000000000E+00  0.00000000000E+00  0.11862127247E+02  0.11862127247E+02  0.00000000000E+00 0.  1.
         21   -1    0    0  502  503 -0.00000000000E+00 -0.00000000000E+00 -0.44753207742E+02  0.44753207742E+02  0.00000000000E+00 0. -1.
          2    1    1    2  501    0  0.18428929272E+02 -0.13642806611E+02 -0.13666447238E+02  0.26693133695E+02  0.00000000000E+00 0.  1.
         -2    1    1    2    0  503 -0.18428929272E+02  0.13642806611E+02 -0.19224633257E+02  0.29922201293E+02  0.00000000000E+00 0. -1.
</event>
<event>
 4    1  0.1768739E+004  0.2774930E+02  0.7546771E-02  0.1440223E+00
         21   -1    0    0  501  502  0.00000000000E+00  0.00000000000E+00  0.38521050714E+03  0.38521050714E+03  0.00000000000E+00 0. -1.
         21   -1    0    0  502  503 -0.00000000000E+00 -0.00000000000E+00 -0.22559888093E+01  0.22559888093E+01  0.00000000000E+00 0.  1.
          2    1    1    2  501    0  0.22823900480E+02  0.15782684847E+02  0.25686850618E+03  0.25836302569E+03  0.00000000000E+00 0. -1.
         -2    1    1    2    0  503 -0.22823900480E+02 -0.15782684847E+02  0.12608601214E+03  0.12910347026E+03  0.00000000000E+00 0.  1.
</event>
<event>
 4    1  0.1768739E+004  0.2721873E+02  0.7546771E-02  0.1445423E+00
         21   -1    0    0  501  502  0.00000000000E+00  0.00000000000E+00  0.81260466932E+03  0.81260466932E+03  0.00000000000E+00 0.  1.
         21   -1    0    0  502  503 -0.00000000000E+00 -0.00000000000E+00 -0.91583097292E+00  0.91583097292E+00  0.00000000000E+00 0. -1.
          2    1    1    2  501    0 -0.15453323326E+02  0.22406565976E+02  0.43313148358E+03  0.43398587704E+03  0.00000000000E+00 0. -1.
         -2    1    1    2    0  503  0.15453323326E+02 -0.22406565976E+02  0.37855735477E+03  0.37953462326E+03  0.00000000000E+00 0.  1.
</event>
<event>
 4    1  0.1768739E+004  0.4734677E+02  0.7546771E-02  0.1310105E+00
         21   -1    0    0  503  502  0.00000000000E+00  0.00000000000E+00  0.12801969623E+03  0.12801969623E+03  0.00000000000E+00 0.  1.
         21   -1    0    0  501  503 -0.00000000000E+00 -0.00000000000E+00 -0.23367772663E+02  0.23367772663E+02  0.00000000000E+00 0. -1.
          2    1    1    2  501    0  0.47234714142E+02 -0.32555770140E+01  0.14430181587E+02  0.49496940738E+02  0.00000000000E+00 0. -1.
         -2    1    1    2    0  502 -0.47234714142E+02  0.32555770140E+01  0.90221741977E+02  0.10189052815E+03  0.00000000000E+00 0.  1.
</event>
<event>
 4    1  0.1768739E+004  0.2088124E+02  0.7546771E-02  0.1520967E+00
         21   -1    0    0  501  502  0.00000000000E+00  0.00000000000E+00  0.11498762561E+03  0.11498762561E+03  0.00000000000E+00 0. -1.
         21   -1    0    0  502  503 -0.00000000000E+00 -0.00000000000E+00 -0.59677779906E+01  0.59677779906E+01  0.00000000000E+00 0.  1.
          2    1    1    2  501    0 -0.10167770224E+02  0.18238497206E+02  0.91027512573E+02  0.93391832495E+02  0.00000000000E+00 0.  1.
         -2    1    1    2    0  503  0.10167770224E+02 -0.18238497206E+02  0.17992335048E+02  0.27563571107E+02  0.00000000000E+00 0. -1.
</event>
<event>
 4    1  0.1768739E+004  0.2702679E+02  0.7546771E-02  0.1447339E+00
         21   -1    0    0  503  502  0.00000000000E+00  0.00000000000E+00  0.20660206633E+03  0.20660206633E+03  0.00000000000E+00 0.  1.
         21   -1    0    0  501  503 -0.00000000000E+00 -0.00000000000E+00 -0.43089478974E+01  0.43089478974E+01  0.00000000000E+00 0. -1.
          2    1    1    2  501    0  0.23771552640E+02  0.12859259757E+02  0.56468791247E+02  0.62603287943E+02  0.00000000000E+00 0.  1.
         -2    1    1    2    0  502 -0.23771552640E+02 -0.12859259757E+02  0.14582432719E+03  0.14830772628E+03  0.00000000000E+00 0. -1.
</event>
<event>
 4    1  0.1768739E+004  0.3182698E+02  0.7546771E-02  0.1404357E+00
         21   -1    0    0  501  502  0.00000000000E+00  0.00000000000E+00  0.20551364885E+03  0.20551364885E+03  0.00000000000E+00 0.  1.
         21   -1    0    0  502  503 -0.00000000000E+00 -0.00000000000E+00 -0.12241852185E+02  0.12241852185E+02  0.00000000000E+00 0. -1.
          2    1    1    2  501    0  0.18120305338E+02 -0.26165081071E+02  0.18078739381E+03  0.18356753170E+03  0.00000000000E+00 0.  1.
         -2    1    1    2    0  503 -0.18120305338E+02  0.26165081071E+02  0.12484402860E+02  0.34187969342E+02  0.00000000000E+00 0. -1.
</event>
<event>
 4    1  0.1768739E+004  0.2189704E+02  0.7546771E-02  0.1506833E+00
         21   -1    0    0  501  502  0.00000000000E+00  0.00000000000E+00  0.37920764386E+01  0.37920764386E+01  0.00000000000E+00 0. -1.
         21   -1    0    0  502  503 -0.00000000000E+00 -0.00000000000E+00 -0.14227469643E+03  0.14227469643E+03  0.00000000000E+00 0.  1.
          2    1    1    2  501    0  0.12351156650E+02 -0.18081185322E+02 -0.93604021830E+02  0.96131125220E+02  0.00000000000E+00 0.  1.
         -2    1    1    2    0  503 -0.12351156650E+02  0.18081185322E+02 -0.44878598166E+02  0.49935647654E+02  0.00000000000E+00 0. -1.
</event>
<event>
 4    1  0.1768739E+004  0.2476585E+02  0.7546771E-02  0.1471440E+00
         21   -1    0    0  503  502  0.00000000000E+00  0.00000000000E+00  0.18117946606E+02  0.18117946606E+02  0.00000000000E+00 0.  1.
         21   -1    0    0  501  503 -0.00000000000E+00 -0.00000000000E+00 -0.54240310832E+02  0.54240310832E+02  0.00000000000E+00 0. -1.
          2    1    1    2  501    0  0.20769473699E+02  0.13489861551E+02 -0.40241954453E+02  0.47252114245E+02  0.00000000000E+00 0. -1.
         -2    1    1    2    0  502 -0.20769473699E+02 -0.13489861551E+02  0.41195902269E+01  0.25106143194E+02  0.00000000000E+00 0.  1.
</event>
<event>
 4    1  0.1768739E+004  0.2129027E+02  0.7546771E-02  0.1515161E+00
         21   -1    0    0  503  502  0.00000000000E+00  0.00000000000E+00  0.21841208770E+01  0.21841208770E+01  0.00000000000E+00 0.  1.
         21   -1    0    0  501  503 -0.00000000000E+00 -0.00000000000E+00 -0.30252604199E+03  0.30252604199E+03  0.00000000000E+00 0. -1.
          2    1    1    2  501    0  0.14046891092E+01 -0.21243881487E+02 -0.23554445041E+03  0.23650468023E+03  0.00000000000E+00 0. -1.
         -2    1    1    2    0  502 -0.14046891092E+01  0.21243881487E+02 -0.64797470705E+02  0.68205482638E+02  0.00000000000E+00 0.  1.
</event>
<event>
 4    1  0.1768739E+004  0.2135501E+02  0.7546771E-02  0.1514256E+00
         21   -1    0    0  503  502  0.00000000000E+00  0.00000000000E+00  0.36318293264E+01  0.36318293264E+01  0.00000000000E+00 0.  1.
         21   -1    0    0  501  503 -0.00000000000E+00 -0.00000000000E+00 -0.18749795322E+03  0.18749795322E+03  0.00000000000E+00 0. -1.
          2    1    1    2  501    0 -0.20788135727E+02 -0.48877365559E+01 -0.14685619422E+03  0.14840073564E+03  0.00000000000E+00 0. -1.
         -2    1    1    2    0  502  0.20788135727E+02  0.48877365559E+01 -0.37009929671E+02  0.42729046911E+02  0.00000000000E+00 0.  1.
</event>
<event>
 4    1  0.1768739E+004  0.2561423E+02  0.7546771E-02  0.1462048E+00
         21   -1    0    0  501  502  0.00000000000E+00  0.00000000000E+00  0.26515699663E+02  0.26515699663E+02  0.00000000000E+00 0. -1.
         21   -1    0    0  502  503 -0.00000000000E+00 -0.00000000000E+00 -0.13467727681E+03  0.13467727681E+03  0.00000000000E+00 0.  1.
          2    1    1    2  501    0  0.24926782620E+02  0.58944142493E+01  0.18736536993E+02  0.31735570415E+02  0.00000000000E+00 0. -1.
         -2    1    1    2    0  503 -0.24926782620E+02 -0.58944142493E+01 -0.12689811414E+03  0.12945740606E+03  0.00000000000E+00 0.  1.
</event>
<event>
 4    1  0.1768739E+004  0.4073233E+02  0.7546771E-02  0.1344247E+00
         21   -1    0    0  501  502  0.00000000000E+00  0.00000000000E+00  0.16196694830E+03  0.16196694830E+03  0.00000000000E+00 0. -1.
         21   -1    0    0  502  503 -0.00000000000E+00 -0.00000000000E+00 -0.17449802119E+02  0.17449802119E+02  0.00000000000E+00 0.  1.
          2    1    1    2  501    0  0.35389233426E+02  0.20167418694E+02  0.12990751379E+03  0.13614361813E+03  0.00000000000E+00 0. -1.
         -2    1    1    2    0  503 -0.35389233426E+02 -0.20167418694E+02  0.14609632390E+02  0.43273132286E+02  0.00000000000E+00 0.  1.
</event>
<event>
 4    1  0.1768739E+004  0.2150201E+02  0.7546771E-02  0.1512217E+00
         21   -1    0    0  501  502  0.00000000000E+00  0.00000000000E+00  0.79296973882E+00  0.79296973882E+00  0.00000000000E+00 0.  1.
         21   -1    0    0  502  503 -0.00000000000E+00 -0.00000000000E+00 -0.61650846628E+03  0.61650846628E+03  0.00000000000E+00 0. -1.
          2    1    1    2  501    0 -0.12409587049E+02 -0.17559575731E+02 -0.37976741034E+03  0.38037563343E+03  0.00000000000E+00 0. -1.
         -2    1    1    2    0  503  0.12409587049E+02  0.17559575731E+02 -0.23594808620E+03  0.23692580259E+03  0.00000000000E+00 0.  1.
</event>
<event>
 4    1  0.1768739E+004  0.2395727E+02  0.7546771E-02  0.1480815E+00
         21   -1    0    0  503  502  0.00000000000E+00  0.00000000000E+00  0.66323449238E+02  0.66323449238E+02  0.00000000000E+00 0. -1.
         21   -1    0    0  501  503 -0.00000000000E+00 -0.00000000000E+00 -0.22901697594E+02  0.22901697594E+02  0.00000000000E+00 0.  1.
          2    1    1    2  501    0 -0.59774472915E+01  0.23199585847E+02 -0.13477453492E+02  0.27488041258E+02  0.00000000000E+00 0.  1.
         -2    1    1    2    0  502  0.59774472915E+01 -0.23199585847E+02  0.56899205136E+02  0.61737105574E+02  0.00000000000E+00 0. -1.
</event>
<event>
 4    1  0.1768739E+004  0.2346926E+02  0.7546771E-02  0.1486688E+00
         21   -1    0    0  501  502  0.00000000000E+00  0.00000000000E+00  0.12114233960E+03  0.12114233960E+03  0.00000000000E+00 0.  1.
         21   -1    0    0  502  503 -0.00000000000E+00 -0.00000000000E+00 -0.54676191087E+01  0.54676191087E+01  0.00000000000E+00 0. -1.
          2    1    1    2  501    0 -0.14169864607E+02 -0.18708850548E+02  0.83817015131E+02  0.87040784562E+02  0.00000000000E+00 0.  1.
         -2    1    1    2    0  503  0.14169864607E+02  0.18708850548E+02  0.31857705362E+02  0.39569174148E+02  0.00000000000E+00 0. -1.
</event>
<event>
 4    1  0.1768739E+004  0.3879370E+02  0.7546771E-02  0.1355703E+00
         21   -1    0    0  501  502  0.00000000000E+00  0.00000000000E+00  0.76874288583E+03  0.76874288583E+03  0.00000000000E+00 0.  1.
         21   -1    0    0  502  503 -0.00000000000E+00 -0.00000000000E+00 -0.19576796206E+01  0.19576796206E+01  0.00000000000E+00 0. -1.
          2    1    1    2  501    0  0.30268344400E+02 -0.24264757357E+02  0.38305446251E+03  0.38501385997E+03  0.00000000000E+00 0. -1.
         -2    1    1    2    0  503 -0.30268344400E+02  0.24264757357E+02  0.38373074370E+03  0.38568670548E+03  0.00000000000E+00 0.  1.
</event>
<event>
 4    1  0.1768739E+004  0.4851066E+02  0.7546771E-02  0.1304762E+00
         21   -1    0    0  501  502  0.00000000000E+00  0.00000000000E+00  0.11778073094E+03  0.11778073094E+03  0.00000000000E+00 0.  1.
         21   -1    0    0  502  503 -0.00000000000E+00 -0.00000000000E+00 -0.37131596950E+02  0.37131596950E+02  0.00000000000E+00 0. -1.
          2    1    1    2  501    0  0.27598422514E+01 -0.48432092382E+02  0.92966730848E+02  0.10486227800E+03  0.00000000000E+00 0.  1.
         -2    1    1    2    0  503 -0.27598422514E+01  0.48432092382E+02 -0.12317596860E+02  0.50050049892E+02  0.00000000000E+00 0. -1.
</event>
<event>
 4    1  0.1768739E+004  0.2132602E+02  0.7546771E-02  0.1514661E+00
         21   -1    0    0  503  502  0.00000000000E+00  0.00000000000E+00  0.34814137114E+01  0.34814137114E+01  0.00000000000E+00 0. -1.
         21   -1    0    0  501  503 -0.00000000000E+00 -0.00000000000E+00 -0.13300175785E+03  0.13300175785E+03  0.00000000000E+00 0.  1.
          2    1    1    2  501    0  0.12005035593E+02 -0.17626071429E+02 -0.55659552270E+02  0.59605243331E+02  0.00000000000E+00 0. -1.
         -2    1    1    2    0  502 -0.12005035593E+02  0.17626071429E+02 -0.73860791869E+02  0.76877928231E+02  0.00000000000E+00 0.  1.
</event>
<event>
 4    1  0.1768739E+004  0.2224864E+02  0.7546771E-02  0.1502155E+00
         21   -1    0    0  501  502  0.00000000000E+00  0.00000000000E+00  0.13610021014E+02  0.13610021014E+02  0.00000000000E+00 0.  1.
         21   -1    0    0  502  503 -0.00000000000E+00 -0.00000000000E+00 -0.36828088679E+02  0.36828088679E+02  0.00000000000E+00 0. -1.
          2    1    1    2  501    0 -0.22247877216E+02  0.18388251650E+00 -0.14420456967E+02  0.26513231273E+02  0.00000000000E+00 0.  1.
         -2    1    1    2    0  503  0.22247877216E+02 -0.18388251650E+00 -0.87976106971E+01  0.23924878419E+02  0.00000000000E+00 0. -1.
</event>
<event>
 4    1  0.1768739E+004  0.2063731E+02  0.7546771E-02  0.1524507E+00
         21   -1    0    0  501  502  0.00000000000E+00  0.00000000000E+00  0.13641586960E+01  0.13641586960E+01  0.00000000000E+00 0. -1.
         21   -1    0    0  502  503 -0.00000000000E+00 -0.00000000000E+00 -0.32829309808E+03  0.32829309808E+03  0.00000000000E+00 0.  1.
          2    1    1    2  501    0  0.16877984867E+02  0.11875695500E+02 -0.12697725160E+03  0.12864338670E+03  0.00000000000E+00 0.  1.
         -2    1    1    2    0  503 -0.16877984867E+02 -0.11875695500E+02 -0.19995168778E+03  0.20101387008E+03  0.00000000000E+00 0. -1.
</event>
<event>
 4    1  0.1768739E+004  0.3588286E+02  0.7546771E-02  0.1374461E+00
         21   -1    0    0  501  502  0.00000000000E+00  0.00000000000E+00  0.14033727348E+03  0.14033727348E+03  0.00000000000E+00 0.  1.
         21   -1    0    0  502  503 -0.00000000000E+00 -0.00000000000E+00 -0.16191855770E+02  0.16191855770E+02  0.00000000000E+00 0. -1.
          2    1    1    2  501    0 -0.35606506310E+02  0.44447807151E+01  0.11359456121E+03  0.11912725844E+03  0.00000000000E+00 0.  1.
         -2    1    1    2    0  503  0.35606506310E+02 -0.44447807151E+01  0.10550856501E+02  0.37401870811E+02  0.00000000000E+00 0. -1.
</event>
<event>
 4    1  0.1768739E+004  0.2207840E+02  0.7546771E-02  0.1504407E+00
         21   -1    0    0  501  502  0.00000000000E+00  0.00000000000E+00  0.91707047835E+00  0.91707047835E+00  0.00000000000E+00 0.  1.
         21   -1    0    0  502  503 -0.00000000000E+00 -0.00000000000E+00 -0.63661483477E+03  0.63661483477E+03  0.00000000000E+00 0. -1.
          2    1    1    2  501    0 -0.30366343928E+01  0.21868577716E+02 -0.18834240880E+03  0.18963206162E+03  0.00000000000E+00 0.  1.
         -2    1    1    2    0  503  0.30366343928E+01 -0.21868577716E+02 -0.44735535549E+03  0.44789984363E+03  0.00000000000E+00 0. -1.
</event>
<event>
 4    1  0.1768739E+004  0.2070016E+02  0.7546771E-02  0.1523589E+00
         21   -1    0    0  501  502  0.00000000000E+00  0.00000000000E+00  0.18691240100E+03  0.18691240100E+03  0.00000000000E+00 0. -1.
         21   -1    0    0  502  503 -0.00000000000E+00 -0.00000000000E+00 -0.23521926125E+01  0.23521926125E+01  0.00000000000E+00 0.  1.
          2    1    1    2  501    0  0.10499121508E+02 -0.17839981258E+02  0.10735544154E+03  0.10933291962E+03  0.00000000000E+00 0. -1.
         -2    1    1    2    0  503 -0.10499121508E+02  0.17839981258E+02  0.77204766843E+02  0.79931673991E+02  0.00000000000E+00 0.  1.
</event>
<event>
 4    1  0.1768739E+004  0.2285606E+02  0.7546771E-02  0.1494314E+00
         21   -1    0    0  503  502  0.00000000000E+00  0.00000000000E+00  0.27014811775E+02  0.27014811775E+02  0.00000000000E+00 0. -1.
         21   -1    0    0  501  503 -0.00000000000E+00 -0.00000000000E+00 -0.20519217147E+02  0.20519217147E+02  0.00000000000E+00 0.  1.
          2    1    1    2  501    0 -0.18829212571E+02  0.12956090897E+02 -0.24557733190E+01  0.22987613186E+02  0.00000000000E+00 0.  1.
         -2    1    1    2    0  502  0.18829212571E+02 -0.12956090897E+02  0.89513679465E+01  0.24546415736E+02  0.00000000000E+00 0. -1.
</event>
<event>
 4    1  0.1768739E+004  0.2431846E+02  0.7546771E-02  0.1476574E+00
         21   -1    0    0  501  502  0.00000000000E+00  0.00000000000E+00  0.91560386096E+03  0.91560386096E+03  0.00000000000E+00 0.  1.
         21   -1    0    0  502  503 -0.00000000000E+00 -0.00000000000E+00 -0.65351488378E+00  0.65351488378E+00  0.00000000000E+00 0. -1.
          2    1    1    2  501    0  0.75694873508E+01  0.23110393890E+02  0.50693189293E+03  0.50751485842E+03  0.00000000000E+00 0.  1.
         -2    1    1    2    0  503 -0.75694873508E+01 -0.23110393890E+02  0.40801845314E+03  0.40874251742E+03  0.00000000000E+00 0. -1.
</event>
<event>
 4    1  0.1768739E+004  0.2693588E+02  0.7546771E-02  0.1448253E+00
         21   -1    0    0  501  502  0.00000000000E+00  0.00000000000E+00  0.61665114131E+02  0.61665114131E+02  0.00000000000E+00 0.  1.
         21   -1    0    0  502  503 -0.00000000000E+00 -0.00000000000E+00 -0.15502136475E+02  0.15502136475E+02  0.00000000000E+00 0. -1.
          2    1    1    2  501    0  0.23957001917E+02 -0.12312747489E+02  0.42023587008E+02  0.49915163594E+02  0.00000000000E+00 0.  1.
         -2    1    1    2    0  503 -0.23957001917E+02  0.12312747489E+02  0.41393906485E+01  0.27252087012E+02  0.00000000000E+00 0. -1.
</event>
<event>
 4    1  0.1768739E+004  0.4637388E+02  0.7546771E-02  0.1314709E+00
         21   -1    0    0  501  502  0.00000000000E+00  0.00000000000E+00  0.15994702035E+02  0.15994702035E+02  0.00000000000E+00 0. -1.
         21   -1    0    0  502  503 -0.00000000000E+00 -0.00000000000E+00 -0.20263264841E+03  0.20263264841E+03  0.00000000000E+00 0.  1.
          2    1    1    2  501    0 -0.36905479616E+02  0.28080644677E+02 -0.29910558727E+02  0.55183136505E+02  0.00000000000E+00 0. -1.
         -2    1    1    2    0  503  0.36905479616E+02 -0.28080644677E+02 -0.15672738765E+03  0.16344421394E+03  0.00000000000E+00 0.  1.
</event>
<event>
 4    1  0.1768739E+004  0.2118512E+02  0.7546771E-02  0.1516638E+00
         21   -1    0    0  501  502  0.00000000000E+00  0.00000000000E+00  0.28993679620E+01  0.28993679620E+01  0.00000000000E+00 0.  1.
         21   -1    0    0  502  503 -0.00000000000E+00 -0.00000000000E+00 -0.16936981774E+03  0.16936981774E+03  0.00000000000E+00 0. -1.
          2    1    1    2  501    0 -0.20957420393E+02  0.30977239217E+01 -0.10850215207E+03  0.11055101251E+03  0.00000000000E+00 0.  1.
         -2    1    1    2    0  503  0.20957420393E+02 -0.30977239217E+01 -0.57968297707E+02  0.61718173191E+02  0.00000000000E+00 0. -1.
</event>
<event>
 4    1  0.1768739E+004  0.2415918E+02  0.7546771E-02  0.1478434E+00
         21   -1    0    0  503  502  0.00000000000E+00  0.00000000000E+00  0.79532854656E+02  0.79532854656E+02  0.00000000000E+00 0.  1.
         21   -1    0    0  501  503 -0.00000000000E+00 -0.00000000000E+00 -0.83429637054E+01  0.83429637054E+01  0.00000000000E+00 0. -1.
          2    1    1    2  501    0  0.10770905154E+02 -0.21625300767E+02  0.20350634659E+02  0.31588199729E+02  0.00000000000E+00 0. -1.
         -2    1    1    2    0  502 -0.10770905154E+02  0.21625300767E+02  0.50839256292E+02  0.56287618633E+02  0.00000000000E+00 0.  1.
</event>
<event>
 4    1  0.1768739E+004  0.2340564E+02  0.7546771E-02  0.1487466E+00
         21   -1    0    0  503  502  0.00000000000E+00  0.00000000000E+00  0.73352923392E+01  0.73352923392E+01  0.00000000000E+00 0. -1.
         21   -1    0    0  501  503 -0.00000000000E+00 -0.00000000000E+00 -0.74685768993E+02  0.74685768993E+02  0.00000000000E+00 0.  1.
          2    1    1    2  501    0 -0.22901916680E+02  0.48297111313E+01 -0.33910650596E+02  0.41203836243E+02  0.00000000000E+00 0.  1.
         -2    1    1    2    0  502  0.22901916680E+02 -0.48297111313E+01 -0.33439826057E+02  0.40817225089E+02  0.00000000000E+00 0. -1.
</event>
<event>
 4    1  0.1768739E+004  0.2070296E+02  0.7546771E-02  0.1523548E+00
         21   -1    0    0  503  502  0.00000000000E+00  0.00000000000E+00  0.11780651477E+03  0.11780651477E+03  0.00000000000E+00 0.  1.
         21   -1    0    0  501  503 -0.00000000000E+00 -0.00000000000E+00 -0.10894517945E+02  0.10894517945E+02  0.00000000000E+00 0. -1.
          2    1    1    2  501    0 -0.14728925930E+02  0.14548930000E+02  0.93851556022E+00  0.20724223379E+02  0.00000000000E+00 0. -1.
         -2    1    1    2    0  502  0.14728925930E+02 -0.14548930000E+02  0.10597348127E+03  0.10797680934E+03  0.00000000000E+00 0.  1.
</event>
<event>
 4    1  0.1768739E+004  0.2495311E+02  0.7546771E-02  0.1469329E+00
         21   -1    0    0  503  502  0.00000000000E+00  0.00000000000E+00  0.54254106564E+01  0.54254106564E+01  0.00000000000E+00 0. -1.
         21   -1    0    0  501  503 -0.00000000000E+00 -0.00000000000E+00 -0.26304600753E+03  0.26304600753E+03  0.00000000000E+00 0.  1.
          2    1    1    2  501    0 -0.12840063648E+02 -0.21396044029E+02 -0.22959441313E+03  0.23094642772E+03  0.00000000000E+00 0.  1.
         -2    1    1    2    0  502  0.12840063648E+02  0.21396044029E+02 -0.28026183746E+02  0.37524990472E+02  0.00000000000E+00 0. -1.
</event>
<event>
 4    1  0.1768739E+004  0.2341573E+02  0.7546771E-02  0.1487343E+00
         21   -1    0    0  503  502  0.00000000000E+00  0.00000000000E+00  0.56566404110E+02  0.56566404110E+02  0.00000000000E+00 0. -1.
         21   -1    0    0  501  503 -0.00000000000E+00 -0.00000000000E+00 -0.97174115801E+01  0.97174115801E+01  0.00000000000E+00 0.  1.
          2    1    1    2  501    0  0.20602361032E+02 -0.11128307676E+02  0.21762391479E+02  0.31967142423E+02  0.00000000000E+00 0.  1.
         -2    1    1    2    0  502 -0.20602361032E+02  0.11128307676E+02  0.25086601050E+02  0.34316673266E+02  0.00000000000E+00 0. -1.
</event>
<event>
 4    1  0.1768739E+004  0.2394336E+02  0.7546771E-02  0.1480980E+00
         21   -1    0    0  503  502  0.00000000000E+00  0.00000000000E+00  0.24767855184E+02  0.24767855184E+02  0.00000000000E+00 0. -1.
         21   -1    0    0  501  503 -0.00000000000E+00 -0.00000000000E+00 -0.27735823827E+02  0.27735823827E+02  0.00000000000E+00 0.  1.
          2    1    1    2  501    0  0.23907819730E+02 -0.13040585469E+01 -0.12162788566E+02  0.26855499225E+02  0.00000000000E+00 0.  1.
         -2    1    1    2    0  502 -0.23907819730E+02  0.13040585469E+01  0.91948199224E+01  0.25648179786E+02  0.00000000000E+00 0. -1.
</event>
<event>
 4    1  0.1768739E+004  0.3184792E+02  0.7546771E-02  0.1404190E+00
         21   -1    0    0  501  502  0.00000000000E+00  0.00000000000E+00  0.11037461140E+03  0.11037461140E+03  0.00000000000E+00 0. -1.
         21   -1    0    0  502  503 -0.00000000000E+00 -0.00000000000E+00 -0.20580520811E+02  0.20580520811E+02  0.00000000000E+00 0.  1.
          2    1    1    2  501    0 -0.31846572362E+02  0.29336032734E+00  0.93610081209E+02  0.98879409057E+02  0.00000000000E+00 0. -1.
         -2    1    1    2    0  503  0.31846572362E+02 -0.29336032734E+00 -0.38159906184E+01  0.32075723155E+02  0.00000000000E+00 0.  1.
</event>
<event>
 4    1  0.1768739E+004  0.2887383E+02  0.7546771E-02  0.1429642E+00
         21   -1    0    0  501  502  0.00000000000E+00  0.00000000000E+00  0.90283811783E+02  0.90283811783E+02  0.00000000000E+00 0.  1.
         21   -1    0    0  502  503 -0.00000000000E+00 -0.00000000000E+00 -0.11336305442E+02  0.11336305442E+02  0.00000000000E+00 0. -1.
          2    1    1    2  501    0  0.91298949167E+01 -0.27392393908E+02  0.61353475367E+02  0.67808164441E+02  0.00000000000E+00 0.  1.
         -2    1    1    2    0  503 -0.91298949167E+01  0.27392393908E+02  0.17594030975E+02  0.33811952785E+02  0.00000000000E+00 0. -1.
</event>
<event>
 4    1  0.1768739E+004  0.2054350E+02  0.7546771E-02  0.1525883E+00
         21   -1    0    0  501  502  0.00000000000E+00  0.00000000000E+00  0.28668284265E+01  0.28668284265E+01  0.00000000000E+00 0.  1.
         21   -1    0    0  502  503 -0.00000000000E+00 -0.00000000000E+00 -0.19868623110E+03  0.19868623110E+03  0.00000000000E+00 0. -1.
          2    1    1    2  501    0  0.19567929492E+02 -0.62555069921E+01 -0.46615883697E+02  0.50941886942E+02  0.00000000000E+00 0.  1.
         -2    1    1    2    0  503 -0.19567929492E+02  0.62555069921E+01 -0.14920351898E+03  0.15061117258E+03  0.00000000000E+00 0. -1.
</event>
<event>
 4    1  0.1768739E+004  0.2193325E+02  0.7546771E-02  0.1506346E+00
         21   -1    0    0  503  502  0.00000000000E+00  0.00000000000E+00  0.18344891073E+03  0.18344891073E+03  0.00000000000E+00 0. -1.
         21   -1    0    0  501  503 -0.00000000000E+00 -0.00000000000E+00 -0.58574037268E+01  0.58574037268E+01  0.00000000000E+00 0.  1.
          2    1    1    2  501    0 -0.21842523540E+02 -0.19928786035E+01  0.18452375560E+02  0.28662825463E+02  0.00000000000E+00 0.  1.
         -2    1    1    2    0  502  0.21842523540E+02  0.19928786035E+01  0.15913913144E+03  0.16064348899E+03  0.00000000000E+00 0. -1.
</event>
<event>
 4    1  0.1768739E+004  0.2024070E+02  0.7546771E-02  0.1530387E+00
         21   -1    0    0  501  502  0.00000000000E+00  0.00000000000E+00  0.12160653337E+02  0.12160653337E+02  0.00000000000E+00 0. -1.
         21   -1    0    0  502  503 -0.00000000000E+00 -0.00000000000E+00 -0.83805406143E+02  0.83805406143E+02  0.00000000000E+00 0.  1.
          2    1    1    2  501    0  0.12336845226E+02  0.16046439849E+02  0.12832328589E+01  0.20281337937E+02  0.00000000000E+00 0. -1.
         -2    1    1    2    0  503 -0.12336845226E+02 -0.16046439849E+02 -0.72927985665E+02  0.75684721543E+02  0.00000000000E+00 0.  1.
</event>
<event>
 4    1  0.1768739E+004  0.2565561E+02  0.7546771E-02  0.1461601E+00
         21   -1    0    0  501  502  0.00000000000E+00  0.00000000000E+00  0.17001254532E+03  0.17001254532E+03  0.00000000000E+00 0. -1.
         21   -1    0    0  502  503 -0.00000000000E+00 -0.00000000000E+00 -0.39525052609E+01  0.39525052609E+01  0.00000000000E+00 0.  1.
          2    1    1    2  501    0 -0.24182240362E+02 -0.85690988197E+01  0.70580638835E+02  0.75098846742E+02  0.00000000000E+00 0. -1.
         -2    1    1    2    0  503  0.24182240362E+02  0.85690988197E+01  0.95479401220E+02  0.98866203836E+02  0.00000000000E+00 0.  1.
</event>
<event>
 4    1  0.1768739E+004  0.2133624E+02  0.7546771E-02  0.1514518E+00
         21   -1    0    0  501  502  0.00000000000E+00  0.00000000000E+00  0.14409364089E+02  0.14409364089E+02  0.00000000000E+00 0. -1.
         21   -1    0    0  502  503 -0.00000000000E+00 -0.00000000000E+00 -0.16352386475E+03  0.16352386475E+03  0.00000000000E+00 0.  1.
          2    1    1    2  501    0  0.23306152074E+01 -0.21208570261E+02  0.53543221328E+01  0.21997817738E+02  0.00000000000E+00 0. -1.
         -2    1    1    2    0  503 -0.23306152074E+01  0.21208570261E+02 -0.15446882279E+03  0.15593541110E+03  0.00000000000E+00 0.  1.
</event>
<event>
 4    1  0.1768739E+004  0.2499221E+02  0.7546771E-02  0.1468891E+00
         21   -1    0    0  501  502  0.00000000000E+00  0.00000000000E+00  0.20072160573E+01  0.20072160573E+01  0.00000000000E+00 0.  1.
         21   -1    0    0  502  503 -0.00000000000E+00 -0.00000000000E+00 -0.31900356349E+03  0.31900356349E+03  0.00000000000E+00 0. -1.
          2    1    1    2  501    0 -0.14298014817E+02  0.20498225709E+02 -0.13336628567E+03  0.13568779105E+03  0.00000000000E+00 0.  1.
         -2    1    1    2    0  503  0.14298014817E+02 -0.20498225709E+02 -0.18363006175E+03  0.18532298850E+03  0.00000000000E+00 0. -1.
</event>
<event>
 4    1  0.1768739E+004  0.3292527E+02  0.7546771E-02  0.1395767E+00
         21   -1    0    0  503  502  0.00000000000E+00  0.00000000000E+00  0.62647538656E+03  0.62647538656E+03  0.00000000000E+00 0.  1.
         21   -1    0    0  501  503 -0.00000000000E+00 -0.00000000000E+00 -0.18250218034E+01  0.18250218034E+01  0.00000000000E+00 0. -1.
          2    1    1    2  501    0 -0.22895273225E+02 -0.23661781896E+02  0.38384460578E+03  0.38525414319E+03  0.00000000000E+00 0. -1.
         -2    1    1    2    0  502  0.22895273225E+02  0.23661781896E+02  0.24080575898E+03  0.24304626518E+03  0.00000000000E+00 0.  1.
</event>
<event>
 4    1  0.1768739E+004  0.3653466E+02  0.7546771E-02  0.1370084E+00
         21   -1    0    0  501  502  0.00000000000E+00  0.00000000000E+00  0.77660593143E+02  0.77660593143E+02  0.00000000000E+00 0. -1.
         21   -1    0    0  502  503 -0.00000000000E+00 -0.00000000000E+00 -0.24473933433E+02  0.24473933433E+02  0.00000000000E+00 0.  1.
          2    1    1    2  501    0 -0.28816292699E+02  0.22458912009E+02  0.54457879743E+02  0.65577756287E+02  0.00000000000E+00 0. -1.
         -2    1    1    2    0  503  0.28816292699E+02 -0.22458912009E+02 -0.12712200335E+01  0.36556770289E+02  0.00000000000E+00 0.  1.
</event>
<event>
 4    1  0.1768739E+004  0.2862185E+02  0.7546771E-02  0.1431963E+00
         21   -1    0    0  503  502  0.00000000000E+00  0.00000000000E+00  0.53049515739E+00  0.53049515739E+00  0.00000000000E+00 0.  1.
         21   -1    0    0  501  503 -0.00000000000E+00 -0.00000000000E+00 -0.15446460109E+04  0.15446460109E+04  0.00000000000E+00 0. -1.
          2    1    1    2  501    0 -0.26571427110E+02 -0.10638128981E+02 -0.75949386711E+03  0.76003298922E+03  0.00000000000E+00 0.  1.
         -2    1    1    2    0  502  0.26571427110E+02  0.10638128981E+02 -0.78462164862E+03  0.78514351682E+03  0.00000000000E+00 0. -1.
</event>
<event>
 4    1  0.1768739E+004  0.2598566E+02  0.7546771E-02  0.1458072E+00
         21   -1    0    0  503  502  0.00000000000E+00  0.00000000000E+00  0.30743424878E+02  0.30743424878E+02  0.00000000000E+00 0.  1.
         21   -1    0    0  501  503 -0.00000000000E+00 -0.00000000000E+00 -0.22884842472E+02  0.22884842472E+02  0.00000000000E+00 0. -1.
          2    1    1    2  501    0  0.56422795824E+01  0.25365705795E+02 -0.14489249241E+01  0.26026020303E+02  0.00000000000E+00 0.  1.
         -2    1    1    2    0  502 -0.56422795824E+01 -0.25365705795E+02  0.93075073302E+01  0.27602247048E+02  0.00000000000E+00 0. -1.
</event>
<event>
 4    1  0.1768739E+004  0.2720138E+02  0.7546771E-02  0.1445596E+00
         21   -1    0    0  503  502  0.00000000000E+00  0.00000000000E+00  0.58178599589E+02  0.58178599589E+02  0.00000000000E+00 0. -1.
         21   -1    0    0  501  503 -0.00000000000E+00 -0.00000000000E+00 -0.12934855715E+02  0.12934855715E+02  0.00000000000E+00 0.  1.
          2    1    1    2  501    0 -0.18230006116E+02  0.20188653408E+02  0.27225883568E+02  0.38485888134E+02  0.00000000000E+00 0. -1.
         -2    1    1    2    0  502  0.18230006116E+02 -0.20188653408E+02  0.18017860306E+02  0.32627567170E+02  0.00000000000E+00 0.  1.
</event>
<event>
 4    1  0.1768739E+004  0.2898482E+02  0.7546771E-02  0.1428628E+00
         21   -1    0    0  501  502  0.00000000000E+00  0.00000000000E+00  0.16812703864E+03  0.16812703864E+03  0.00000000000E+00 0.  1.
         21   -1    0    0  502  503 -0.00000000000E+00 -0.00000000000E+00 -0.52800955118E+01  0.52800955118E+01  0.00000000000E+00 0. -1.
          2    1    1    2  501    0  0.26476938641E+02 -0.11793696252E+02  0.10150209515E+03  0.10555943762E+03  0.00000000000E+00 0.  1.
         -2    1    1    2    0  503 -0.26476938641E+02  0.11793696252E+02  0.61344847984E+02  0.67847696536E+02  0.00000000000E+00 0. -1.
</event>
<event>
 4    1  0.1768739E+004  0.2775611E+02  0.7546771E-02  0.1440157E+00
         21   -1    0    0  503  502  0.00000000000E+00  0.00000000000E+00  0.32495645232E+02  0.32495645232E+02  0.00000000000E+00 0.  1.
         21   -1    0    0  501  503 -0.00000000000E+00 -0.00000000000E+00 -0.58437016490E+02  0.58437016490E+02  0.00000000000E+00 0. -1.
          2    1    1    2  501    0 -0.26909835016E+02 -0.68016607539E+01 -0.48021094202E+02  0.55465550551E+02  0.00000000000E+00 0. -1.
         -2    1    1    2    0  502  0.26909835016E+02  0.68016607539E+01  0.22079722944E+02  0.35467111172E+02  0.00000000000E+00 0.  1.
</event>
<event>
 4    1  0.1768739E+004  0.2038084E+02  0.7546771E-02  0.1528291E+00
         21   -1    0    0  503  502  0.00000000000E+00  0.00000000000E+00  0.16105093070E+02  0.16105093070E+02  0.00000000000E+00 0.  1.
         21   -1    0    0  501  503 -0.00000000000E+00 -0.00000000000E+00 -0.74411774248E+02  0.74411774248E+02  0.00000000000E+00 0. -1.
          2    1    1    2  501    0  0.20005733723E+02 -0.38922219834E+01 -0.65736921111E+02  0.68823844494E+02  0.00000000000E+00 0. -1.
         -2    1    1    2    0  502 -0.20005733723E+02  0.38922219834E+01  0.74302399336E+01  0.21693022824E+02  0.00000000000E+00 0.  1.
</event>
<event>
 4    1  0.1768739E+004  0.2398534E+02  0.7546771E-02  0.1480482E+00
         21   -1    0    0  503  502  0.00000000000E+00  0.00000000000E+00  0.27448995213E+02  0.27448995213E+02  0.00000000000E+00 0. -1.
         21   -1    0    0  501  503 -0.00000000000E+00 -0.00000000000E+00 -0.38043718263E+02  0.38043718263E+02  0.00000000000E+00 0.  1.
          2    1    1    2  501    0  0.12642100207E+02 -0.20383173911E+02 -0.27242012049E+02  0.36296331726E+02  0.00000000000E+00 0.  1.
         -2    1    1    2    0  502 -0.12642100207E+02  0.20383173911E+02  0.16647288998E+02  0.29196381750E+02  0.00000000000E+00 0. -1.
</event>
<event>
 4    1  0.1768739E+004  0.2470534E+02  0.7546771E-02  0.1472127E+00
         21   -1    0    0  503  502  0.00000000000E+00  0.00000000000E+00  0.41092088615E+02  0.41092088615E+02  0.00000000000E+00 0.  1.
         21   -1    0    0  501  503 -0.00000000000E+00 -0.00000000000E+00 -0.21725184969E+02  0.21725184969E+02  0.00000000000E+00 0. -1.
          2    1    1    2  501    0  0.22903710733E+02 -0.92614086887E+01 -0.79811915546E+01  0.25962532135E+02  0.00000000000E+00 0. -1.
         -2    1    1    2    0  502 -0.22903710733E+02  0.92614086887E+01  0.27348095200E+02  0.36854741450E+02  0.00000000000E+00 0.  1.
</event>
<event>
 4    1  0.1768739E+004  0.3272686E+02  0.7546771E-02  0.1397289E+00
         21   -1    0    0  501  502  0.00000000000E+00  0.00000000000E+00  0.93102982157E+01  0.93102982157E+01  0.00000000000E+00 0. -1.
         21   -1    0    0  502  503 -0.00000000000E+00 -0.00000000000E+00 -0.12777416905E+03  0.12777416905E+03  0.00000000000E+00 0.  1.
          2    1    1    2  501    0  0.21942274594E+02 -0.24281343813E+02 -0.37592811592E+02  0.49842417228E+02  0.00000000000E+00 0.  1.
         -2    1    1    2    0  503 -0.21942274594E+02  0.24281343813E+02 -0.80871059241E+02  0.87242050036E+02  0.00000000000E+00 0. -1.
</event>
<event>
 4    1  0.1768739E+004  0.6794597E+02  0.7546771E-02  0.1234989E+00
         21   -1    0    0  503  502  0.00000000000E+00  0.00000000000E+00  0.46492885204E+02  0.46492885204E+02  0.00000000000E+00 0. -1.
         21   -1    0    0  501  503 -0.00000000000E+00 -0.00000000000E+00 -0.26375251593E+03  0.26375251593E+03  0.00000000000E+00 0.  1.
          2    1    1    2  501    0 -0.67520829003E+02  0.75889883569E+01 -0.23111958649E+03  0.24090022489E+03  0.00000000000E+00 0.  1.
         -2    1    1    2    0  502  0.67520829003E+02 -0.75889883569E+01  0.13859955770E+02  0.69345176238E+02  0.00000000000E+00 0. -1.
</event>
<event>
 4    1  0.1768739E+004  0.2118808E+02  0.7546771E-02  0.1516596E+00
         21   -1    0    0  503  502  0.00000000000E+00  0.00000000000E+00  0.95902470294E+02  0.95902470294E+02  0.00000000000E+00 0. -1.
         21   -1    0    0  501  503 -0.00000000000E+00 -0.00000000000E+00 -0.26873728690E+02  0.26873728690E+02  0.00000000000E+00 0.  1.
          2    1    1    2  501    0 -0.16114291065E+02  0.13757333434E+02 -0.21271476246E+02  0.30023495823E+02  0.00000000000E+00 0.  1.
         -2    1    1    2    0  502  0.16114291065E+02 -0.13757333434E+02  0.90300217851E+02  0.92752703161E+02  0.00000000000E+00 0. -1.
</event>
<event>
 4    1  0.1768739E+004  0.2618729E+02  0.7546771E-02  0.1455947E+00
         21   -1    0    0  503  502  0.00000000000E+00  0.00000000000E+00  0.28800323686E+02  0.28800323686E+02  0.00000000000E+00 0. -1.
         21   -1    0    0  501  503 -0.00000000000E+00 -0.00000000000E+00 -0.24383353744E+02  0.24383353744E+02  0.00000000000E+00 0.  1.
          2    1    1    2  501    0  0.17394864711E+02 -0.19575306143E+02 -0.18644714518E+01  0.26253574665E+02  0.00000000000E+00 0.  1.
         -2    1    1    2    0  502 -0.17394864711E+02  0.19575306143E+02  0.62814413943E+01  0.26930102764E+02  0.00000000000E+00 0. -1.
</event>
<event>
 4    1  0.1768739E+004  0.2603319E+02  0.7546771E-02  0.1457569E+00
         21   -1    0    0  501  502  0.00000000000E+00  0.00000000000E+00  0.73674611420E+02  0.73674611420E+02  0.00000000000E+00 0.  1.
         21   -1    0    0  502  503 -0.00000000000E+00 -0.00000000000E+00 -0.13001791738E+02  0.13001791738E+02  0.00000000000E+00 0. -1.
          2    1    1    2  501    0  0.25921014936E+02  0.24140685027E+01  0.68981583266E+01  0.26931604674E+02  0.00000000000E+00 0. -1.
         -2    1    1    2    0  503 -0.25921014936E+02 -0.24140685027E+01  0.53774661355E+02  0.59744798484E+02  0.00000000000E+00 0.  1.
</event>
<event>
 4    1  0.1768739E+004  0.2188175E+02  0.7546771E-02  0.1507039E+00
         21   -1    0    0  501  502  0.00000000000E+00  0.00000000000E+00  0.54421457732E+01  0.54421457732E+01  0.00000000000E+00 0.  1.
         21   -1    0    0  502  503 -0.00000000000E+00 -0.00000000000E+00 -0.23513806248E+03  0.23513806248E+03  0.00000000000E+00 0. -1.
          2    1    1    2  501    0 -0.34119789432E+01 -0.21614101691E+02 -0.19687290963E+02  0.29434680526E+02  0.00000000000E+00 0.  1.
         -2    1    1    2    0  503  0.34119789432E+01  0.21614101691E+02 -0.21000862574E+03  0.21114552773E+03  0.00000000000E+00 0. -1.
</event>
<event>
 4    1  0.1768739E+004  0.2460818E+02  0.7546771E-02  0.1473235E+00
         21   -1    0    0  501  502  0.00000000000E+00  0.00000000000E+00  0.64215231050E+03  0.64215231050E+03  0.00000000000E+00 0. -1.
         21   -1    0    0  502  503 -0.00000000000E+00 -0.00000000000E+00 -0.15797334288E+01  0.15797334288E+01  0.00000000000E+00 0.  1.
          2    1    1    2  501    0  0.15333499167E+02  0.19246982831E+02  0.52462713795E+03  0.52520395697E+03  0.00000000000E+00 0. -1.
         -2    1    1    2    0  503 -0.15333499167E+02 -0.19246982831E+02  0.11594543912E+03  0.11852808696E+03  0.00000000000E+00 0.  1.
</event>
<event>
 4    1  0.1768739E+004  0.2219992E+02  0.7546771E-02  0.1502797E+00
         21   -1    0    0  501  502  0.00000000000E+00  0.00000000000E+00  0.26336943248E+01  0.26336943248E+01  0.00000000000E+00 0. -1.
         21   -1    0    0  502  503 -0.00000000000E+00 -0.00000000000E+00 -0.57375394777E+03  0.57375394777E+03  0.00000000000E+00 0.  1.
          2    1    1    2  501    0 -0.22196360470E+02 -0.39739516054E+00 -0.48985772056E+02  0.53781429926E+02  0.00000000000E+00 0. -1.
         -2    1    1    2    0  503  0.22196360470E+02  0.39739516054E+00 -0.52213448139E+03  0.52260621217E+03  0.00000000000E+00 0.  1.
</event>
<event>
 4    1  0.1768739E+004  0.2195265E+02  0.7546771E-02  0.1506086E+00
         21   -1    0    0  503  502  0.00000000000E+00  0.00000000000E+00  0.18859040380E+02  0.18859040380E+02  0.00000000000E+00 0.  1.
         21   -1    0    0  501  503 -0.00000000000E+00 -0.00000000000E+00 -0.47838928349E+02  0.47838928349E+02  0.00000000000E+00 0. -1.
          2    1    1    2  501    0  0.19392090400E+02 -0.10289099406E+02 -0.37251407821E+02  0.43238710912E+02  0.00000000000E+00 0. -1.
         -2    1    1    2    0  502 -0.19392090400E+02  0.10289099406E+02  0.82715198522E+01  0.23459257817E+02  0.00000000000E+00 0.  1.
</event>
<event>
 4    1  0.1768739E+004  0.2018825E+02  0.7546771E-02  0.1531177E+00
         21   -1    0    0  503  502  0.00000000000E+00  0.00000000000E+00  0.14597252709E+01  0.14597252709E+01  0.00000000000E+00 0. -1.
         21   -1    0    0  501  503 -0.00000000000E+00 -0.00000000000E+00 -0.28107337240E+03  0.28107337240E+03  0.00000000000E+00 0.  1.
          2    1    1    2  501    0 -0.19524534016E+02  0.51339962649E+01 -0.15131859048E+03  0.15265936320E+03  0.00000000000E+00 0. -1.
         -2    1    1    2    0  502  0.19524534016E+02 -0.51339962649E+01 -0.12829505665E+03  0.12987373448E+03  0.00000000000E+00 0.  1.
</event>
<event>
 4    1  0.1768739E+004  0.2247982E+02  0.7546771E-02  0.1499135E+00
         21   -1    0    0  503  502  0.00000000000E+00  0.00000000000E+00  0.26795593229E+03  0.26795593229E+03  0.00000000000E+00 0. -1.
         21   -1    0    0  501  503 -0.00000000000E+00 -0.00000000000E+00 -0.21522298703E+01  0.21522298703E+01  0.00000000000E+00 0.  1.
          2    1    1    2  501    0  0.16649483185E+02 -0.15104211735E+02  0.85394599706E+02  0.88303907963E+02  0.00000000000E+00 0.  1.
         -2    1    1    2    0  502 -0.16649483185E+02  0.15104211735E+02  0.18040910271E+03  0.18180425420E+03  0.00000000000E+00 0. -1.
</event>
<event>
 4    1  0.1768739E+004  0.3163418E+02  0.7546771E-02  0.1405908E+00
         21   -1    0    0  501  502  0.00000000000E+00  0.00000000000E+00  0.48481631758E+01  0.48481631758E+01  0.00000000000E+00 0. -1.
         21   -1    0    0  502  503 -0.00000000000E+00 -0.00000000000E+00 -0.27976857146E+03  0.27976857146E+03  0.00000000000E+00 0.  1.
          2    1    1    2  501    0 -0.81336095291E+01 -0.30570668946E+02 -0.64590156515E+02  0.71920857353E+02  0.00000000000E+00 0. -1.
         -2    1    1    2    0  503  0.81336095291E+01  0.30570668946E+02 -0.21033025177E+03  0.21269587728E+03  0.00000000000E+00 0.  1.
</event>
<event>
 4    1  0.1768739E+004  0.3933285E+02  0.7546771E-02  0.1352440E+00
         21   -1    0    0  503  502  0.00000000000E+00  0.00000000000E+00  0.92027118778E+01  0.92027118778E+01  0.00000000000E+00 0. -1.
         21   -1    0    0  501  503 -0.00000000000E+00 -0.00000000000E+00 -0.27382472428E+03  0.27382472428E+03  0.00000000000E+00 0.  1.
          2    1    1    2  501    0 -0.32696523809E+02  0.21863446099E+02 -0.22023933633E+03  0.22372402243E+03  0.00000000000E+00 0.  1.
         -2    1    1    2    0  502  0.32696523809E+02 -0.21863446099E+02 -0.44382676071E+02  0.59303413728E+02  0.00000000000E+00 0. -1.
</event>
<event>
 4    1  0.1768739E+004  0.2449767E+02  0.7546771E-02  0.1474502E+00
         21   -1    0    0  501  502  0.00000000000E+00  0.00000000000E+00  0.15996855050E+01  0.15996855050E+01  0.00000000000E+00 0. -1.
         21   -1    0    0  502  503 -0.00000000000E+00 -0.00000000000E+00 -0.54958059912E+03  0.54958059912E+03  0.00000000000E+00 0.  1.
          2    1    1    2  501    0  0.86731305357E+01  0.22910976223E+02 -0.42924646566E+03  0.42994495497E+03  0.00000000000E+00 0.  1.
         -2    1    1    2    0  503 -0.86731305357E+01 -0.22910976223E+02 -0.11873444796E+03  0.12123532965E+03  0.00000000000E+00 0. -1.
</event>
<event>
 4    1  0.1768739E+004  0.2388564E+02  0.7546771E-02  0.1481667E+00
         21   -1    0    0  503  502  0.00000000000E+00  0.00000000000E+00  0.14374849277E+02  0.14374849277E+02  0.00000000000E+00 0. -1.
         21   -1    0    0  501  503 -0.00000000000E+00 -0.00000000000E+00 -0.52708616704E+02  0.52708616704E+02  0.00000000000E+00 0.  1.
          2    1    1    2  501    0  0.12137642666E+02  0.20571859794E+02 -0.35837180538E+02  0.43067705927E+02  0.00000000000E+00 0.  1.
         -2    1    1    2    0  502 -0.12137642666E+02 -0.20571859794E+02 -0.24965868884E+01  0.24015760053E+02  0.00000000000E+00 0. -1.
</event>
<event>
 4    1  0.1768739E+004  0.2105101E+02  0.7546771E-02  0.1518538E+00
         21   -1    0    0  503  502  0.00000000000E+00  0.00000000000E+00  0.58880128129E+01  0.58880128129E+01  0.00000000000E+00 0. -1.
         21   -1    0    0  501  503 -0.00000000000E+00 -0.00000000000E+00 -0.82056301917E+02  0.82056301917E+02  0.00000000000E+00 0.  1.
          2    1    1    2  501    0  0.15246776241E+02 -0.14514851972E+02 -0.50736929276E+02  0.54930693659E+02  0.00000000000E+00 0.  1.
         -2    1    1    2    0  502 -0.15246776241E+02  0.14514851972E+02 -0.25431359829E+02  0.33013621071E+02  0.00000000000E+00 0. -1.
</event>
<event>
 4    1  0.1768739E+004  0.2829821E+02  0.7546771E-02  0.1434986E+00
         21   -1    0    0  501  502  0.00000000000E+00  0.00000000000E+00  0.49759380547E+01  0.49759380547E+01  0.00000000000E+00 0.  1.
         21   -1    0    0  502  503 -0.00000000000E+00 -0.00000000000E+00 -0.23915379447E+03  0.23915379447E+03  0.00000000000E+00 0. -1.
          2    1    1    2  501    0 -0.24424664402E+02  0.14290718113E+02 -0.18689854659E+03  0.18902871626E+03  0.00000000000E+00 0. -1.
         -2    1    1    2    0  503  0.24424664402E+02 -0.14290718113E+02 -0.47279309826E+02  0.55101016261E+02  0.00000000000E+00 0.  1.
</event>
<event>
 4    1  0.1768739E+004  0.2164252E+02  0.7546771E-02  0.1510286E+00
         21   -1    0    0  501  502  0.00000000000E+00  0.00000000000E+00  0.12711748238E+02  0.12711748238E+02  0.00000000000E+00 0.  1.
         21   -1    0    0  502  503 -0.00000000000E+00 -0.00000000000E+00 -0.41394297749E+02  0.41394297749E+02  0.00000000000E+00 0. -1.
          2    1    1    2  501    0 -0.67766138158E+01 -0.20554222395E+02 -0.53754694035E+01  0.22300094717E+02  0.00000000000E+00 0.  1.
         -2    1    1    2    0  503  0.67766138158E+01  0.20554222395E+02 -0.23307080108E+02  0.31805951270E+02  0.00000000000E+00 0. -1.
</event>
<event>
 4    1  0.1768739E+004  0.2240975E+02  0.7546771E-02  0.1500046E+00
         21   -1    0    0  501  502  0.00000000000E+00  0.00000000000E+00  0.32390687346E+02  0.32390687346E+02  0.00000000000E+00 0. -1.
         21   -1    0    0  502  503 -0.00000000000E+00 -0.00000000000E+00 -0.25248395261E+02  0.25248395261E+02  0.00000000000E+00 0.  1.
          2    1    1    2  501    0 -0.21003624332E+02 -0.78131121395E+01  0.21474712102E+02  0.31038044659E+02  0.00000000000E+00 0. -1.
         -2    1    1    2    0  503  0.21003624332E+02  0.78131121395E+01 -0.14332420016E+02  0.26601037948E+02  0.00000000000E+00 0.  1.
</event>
<event>
 4    1  0.1768739E+004  0.3897236E+02  0.7546771E-02  0.1354615E+00
         21   -1    0    0  503  502  0.00000000000E+00  0.00000000000E+00  0.15944986647E+03  0.15944986647E+03  0.00000000000E+00 0. -1.
         21   -1    0    0  501  503 -0.00000000000E+00 -0.00000000000E+00 -0.15342224202E+02  0.15342224202E+02  0.00000000000E+00 0.  1.
          2    1    1    2  501    0  0.25210555736E+02 -0.29719899681E+02  0.18241005219E+02  0.43029975935E+02  0.00000000000E+00 0. -1.
         -2    1    1    2    0  502 -0.25210555736E+02  0.29719899681E+02  0.12586663705E+03  0.13176211474E+03  0.00000000000E+00 0.  1.
</event>
<event>
 4    1  0.1768739E+004  0.2451208E+02  0.7546771E-02  0.1474336E+00
         21   -1    0    0  503  502  0.00000000000E+00  0.00000000000E+00  0.10199154423E+03  0.10199154423E+03  0.00000000000E+00 0.  1.
         21   -1    0    0  501  503 -0.00000000000E+00 -0.00000000000E+00 -0.64049715949E+01  0.64049715949E+01  0.00000000000E+00 0. -1.
          2    1    1    2  501    0  0.15642078754E+02  0.18872399843E+02  0.32441631377E+02  0.40660810986E+02  0.00000000000E+00 0. -1.
         -2    1    1    2    0  502 -0.15642078754E+02 -0.18872399843E+02  0.63144941254E+02  0.67735704836E+02  0.00000000000E+00 0.  1.
</event>
<event>
 4    1  0.1768739E+004  0.3609920E+02  0.7546771E-02  0.1372996E+00
         21   -1    0    0  503  502  0.00000000000E+00  0.00000000000E+00  0.69066341897E+01  0.69066341897E+01  0.00000000000E+00 0.  1.
         21   -1    0    0  501  503 -0.00000000000E+00 -0.00000000000E+00 -0.19232647462E+03  0.19232647462E+03  0.00000000000E+00 0. -1.
          2    1    1    2  501    0  0.10381510518E+02 -0.34574213492E+02 -0.10642433704E+03  0.11238012063E+03  0.00000000000E+00 0.  1.
         -2    1    1    2    0  502 -0.10381510518E+02  0.34574213492E+02 -0.78995503389E+02  0.86852988175E+02  0.00000000000E+00 0. -1.
</event>
<event>
 4    1  0.1768739E+004  0.2520385E+02  0.7546771E-02  0.1466536E+00
         21   -1    0    0  503  502  0.00000000000E+00  0.00000000000E+00  0.39419159107E+02  0.39419159107E+02  0.00000000000E+00 0.  1.
         21   -1    0    0  501  503 -0.00000000000E+00 -0.00000000000E+00 -0.16119198669E+02  0.16119198669E+02  0.00000000000E+00 0. -1.
          2    1    1    2  501    0  0.98304959861E+01 -0.23207661608E+02  0.12105594297E+02  0.27960322278E+02  0.00000000000E+00 0. -1.
         -2    1    1    2    0  502 -0.98304959861E+01  0.23207661608E+02  0.11194366142E+02  0.27578035498E+02  0.00000000000E+00 0.  1.
</event>
<event>
 4    1  0.1768739E+004  0.2332253E+02  0.7546771E-02  0.1488487E+00
         21   -1    0    0  501  502  0.00000000000E+00  0.00000000000E+00  0.26349792731E+02  0.26349792731E+02  0.00000000000E+00 0. -1.
         21   -1    0    0  502  503 -0.00000000000E+00 -0.00000000000E+00 -0.21489208263E+02  0.21489208263E+02  0.00000000000E+00 0.  1.
          2    1    1    2  501    0 -0.16926887775E+02  0.16044338439E+02 -0.23161193142E+01  0.23437250998E+02  0.00000000000E+00 0.  1.
         -2    1    1    2    0  503  0.16926887775E+02 -0.16044338439E+02  0.71767037815E+01  0.24401749996E+02  0.00000000000E+00 0. -1.
</event>
<event>
 4    1  0.1768739E+004  0.2834799E+02  0.7546771E-02  0.1434518E+00
         21   -1    0    0  501  502  0.00000000000E+00  0.00000000000E+00  0.15155479451E+02  0.15155479451E+02  0.00000000000E+00 0. -1.
         21   -1    0    0  502  503 -0.00000000000E+00 -0.00000000000E+00 -0.10615959446E+03  0.10615959446E+03  0.00000000000E+00 0.  1.
          2    1    1    2  501    0  0.16319167312E+02  0.23179586157E+02 -0.25882785267E+01  0.28465902794E+02  0.00000000000E+00 0. -1.
         -2    1    1    2    0  503 -0.16319167312E+02 -0.23179586157E+02 -0.88415836485E+02  0.92849171119E+02  0.00000000000E+00 0.  1.
</event>
<event>
 4    1  0.1768739E+004  0.3476525E+02  0.7546771E-02  0.1382221E+00
         21   -1    0    0  503  502  0.00000000000E+00  0.00000000000E+00  0.40090240582E+03  0.40090240582E+03  0.00000000000E+00 0.  1.
         21   -1    0    0  501  503 -0.00000000000E+00 -0.00000000000E+00 -0.45148865350E+01  0.45148865350E+01  0.00000000000E+00 0. -1.
          2    1    1    2  501    0 -0.32527034874E+02 -0.12272503048E+02  0.81347827682E+02  0.88465198792E+02  0.00000000000E+00 0. -1.
         -2    1    1    2    0  502  0.32527034874E+02  0.12272503048E+02  0.31503969161E+03  0.31695209357E+03  0.00000000000E+00 0.  1.
</event>
<event>
 4    1  0.1768739E+004  0.2106517E+02  0.7546771E-02  0.1518336E+00
         21   -1    0    0  503  502  0.00000000000E+00  0.00000000000E+00  0.51792681452E+02  0.51792681452E+02  0.00000000000E+00 0. -1.
         21   -1    0    0  501  503 -0.00000000000E+00 -0.00000000000E+00 -0.13526610634E+02  0.13526610634E+02  0.00000000000E+00 0.  1.
          2    1    1    2  501    0 -0.10341830458E+02  0.18351781453E+02 -0.64178290189E+00  0.21074943060E+02  0.00000000000E+00 0.  1.
         -2    1    1    2    0  502  0.10341830458E+02 -0.18351781453E+02  0.38907853719E+02  0.44244349026E+02  0.00000000000E+00 0. -1.
</event>
<event>
 4    1  0.1768739E+004  0.3133743E+02  0.7546771E-02  0.1408320E+00
         21   -1    0    0  501  502  0.00000000000E+00  0.00000000000E+00  0.65746248459E+02  0.65746248459E+02  0.00000000000E+00 0. -1.
         21   -1    0    0  502  503 -0.00000000000E+00 -0.00000000000E+00 -0.42071744828E+02  0.42071744828E+02  0.00000000000E+00 0.  1.
          2    1    1    2  501    0 -0.78799401626E+01 -0.30330532518E+02  0.55131572889E+02  0.63415494865E+02  0.00000000000E+00 0. -1.
         -2    1    1    2    0  503  0.78799401626E+01  0.30330532518E+02 -0.31457069258E+02  0.44402498422E+02  0.00000000000E+00 0.  1.
</event>
<event>
 4    1  0.1768739E+004  0.2132860E+02  0.7546771E-02  0.1514625E+00
         21   -1    0    0  501  502  0.00000000000E+00  0.00000000000E+00  0.23763515434E+01  0.23763515434E+01  0.00000000000E+00 0. -1.
         21   -1    0    0  502  503 -0.00000000000E+00 -0.00000000000E+00 -0.25214220145E+03  0.25214220145E+03  0.00000000000E+00 0.  1.
          2    1    1    2  501    0 -0.20436403265E+02  0.61043207524E+01 -0.62437856443E+02  0.65980263924E+02  0.00000000000E+00 0. -1.
         -2    1    1    2    0  503  0.20436403265E+02 -0.61043207524E+01 -0.18732799346E+03  0.18853828907E+03  0.00000000000E+00 0.  1.
</event>
<event>
 4    1  0.1768739E+004  0.3008567E+02  0.7546771E-02  0.1418853E+00
         21   -1    0    0  501  502  0.00000000000E+00  0.00000000000E+00  0.11401681810E+02  0.11401681810E+02  0.00000000000E+00 0. -1.
         21   -1    0    0  502  503 -0.00000000000E+00 -0.00000000000E+00 -0.13414337218E+03  0.13414337218E+03  0.00000000000E+00 0.  1.
          2    1    1    2  501    0  0.27395740772E+02  0.12434674304E+02 -0.10786510481E+03  0.11198226901E+03  0.00000000000E+00 0.  1.
         -2    1    1    2    0  503 -0.27395740772E+02 -0.12434674304E+02 -0.14876585560E+02  0.33562784977E+02  0.00000000000E+00 0. -1.
</event>
<event>
 4    1  0.1768739E+004  0.2213122E+02  0.7546771E-02  0.1503705E+00
         21   -1    0    0  503  502  0.00000000000E+00  0.00000000000E+00  0.48188914401E+01  0.48188914401E+01  0.00000000000E+00 0.  1.
         21   -1    0    0  501  503 -0.00000000000E+00 -0.00000000000E+00 -0.10207899629E+03  0.10207899629E+03  0.00000000000E+00 0. -1.
          2    1    1    2  501    0 -0.17263235410E+02 -0.13848169948E+02 -0.52136003513E+02  0.56638802689E+02  0.00000000000E+00 0.  1.
         -2    1    1    2    0  502  0.17263235410E+02  0.13848169948E+02 -0.45124101340E+02  0.50259085044E+02  0.00000000000E+00 0. -1.
</event>
<event>
 4    1  0.1768739E+004  0.2077108E+02  0.7546771E-02  0.1522559E+00
         21   -1    0    0  503  502  0.00000000000E+00  0.00000000000E+00  0.88774954737E+01  0.88774954737E+01  0.00000000000E+00 0. -1.
         21   -1    0    0  501  503 -0.00000000000E+00 -0.00000000000E+00 -0.13421507825E+03  0.13421507825E+03  0.00000000000E+00 0.  1.
          2    1    1    2  501    0 -0.10940120504E+02  0.17656482916E+02 -0.11981192422E+03  0.12159907405E+03  0.00000000000E+00 0.  1.
         -2    1    1    2    0  502  0.10940120504E+02 -0.17656482916E+02 -0.55256585584E+01  0.21493499671E+02  0.00000000000E+00 0. -1.
</event>
<event>
 4    1  0.1768739E+004  0.2296874E+02  0.7546771E-02  0.1492891E+00
         21   -1    0    0  501  502  0.00000000000E+00  0.00000000000E+00  0.19345843221E+02  0.19345843221E+02  0.00000000000E+00 0. -1.
         21   -1    0    0  502  503 -0.00000000000E+00 -0.00000000000E+00 -0.12201940584E+03  0.12201940584E+03  0.00000000000E+00 0.  1.
          2    1    1    2  501    0 -0.16694545324E+02  0.15775138170E+02  0.10948619324E+02  0.25444745882E+02  0.00000000000E+00 0. -1.
         -2    1    1    2    0  503  0.16694545324E+02 -0.15775138170E+02 -0.11362218195E+03  0.11592050318E+03  0.00000000000E+00 0.  1.
</event>
<event>
 4    1  0.1768739E+004  0.6202930E+02  0.7546771E-02  0.1253089E+00
         21   -1    0    0  503  502  0.00000000000E+00  0.00000000000E+00  0.17535553891E+02  0.17535553891E+02  0.00000000000E+00 0. -1.
         21   -1    0    0  501  503 -0.00000000000E+00 -0.00000000000E+00 -0.23330161071E+03  0.23330161071E+03  0.00000000000E+00 0.  1.
          2    1    1    2  501    0 -0.29716564193E+02  0.54447772842E+02 -0.13847716386E+03  0.15173516094E+03  0.00000000000E+00 0.  1.
         -2    1    1    2    0  502  0.29716564193E+02 -0.54447772842E+02 -0.77288892966E+02  0.99102003667E+02  0.00000000000E+00 0. -1.
</event>
<event>
 4    1  0.1768739E+004  0.2044970E+02  0.7546771E-02  0.1527269E+00
         21   -1    0    0  501  502  0.00000000000E+00  0.00000000000E+00  0.86045005475E+01  0.86045005475E+01  0.00000000000E+00 0. -1.
         21   -1    0    0  502  503 -0.00000000000E+00 -0.00000000000E+00 -0.49843841402E+02  0.49843841402E+02  0.00000000000E+00 0.  1.
          2    1    1    2  501    0  0.17071852020E+02  0.11257970889E+02 -0.25233794758E+02  0.32479754276E+02  0.00000000000E+00 0.  1.
         -2    1    1    2    0  503 -0.17071852020E+02 -0.11257970889E+02 -0.16005546096E+02  0.25968587673E+02  0.00000000000E+00 0. -1.
</event>
<event>
 4    1  0.1768739E+004  0.3326016E+02  0.7546771E-02  0.1393225E+00
         21   -1    0    0  503  502  0.00000000000E+00  0.00000000000E+00  0.24409381533E+03  0.24409381533E+03  0.00000000000E+00 0. -1.
         21   -1    0    0  501  503 -0.00000000000E+00 -0.00000000000E+00 -0.48146005902E+01  0.48146005902E+01  0.00000000000E+00 0.  1.
          2    1    1    2  501    0 -0.31370657055E+02 -0.11050799922E+02  0.89488738663E+02  0.95469747305E+02  0.00000000000E+00 0.  1.
         -2    1    1    2    0  502  0.31370657055E+02  0.11050799922E+02  0.14979047607E+03  0.15343866861E+03  0.00000000000E+00 0. -1.
</event>
<event>
 4    1  0.1768739E+004  0.2696342E+02  0.7546771E-02  0.1447976E+00
         21   -1    0    0  501  502  0.00000000000E+00  0.00000000000E+00  0.67064223050E+01  0.67064223050E+01  0.00000000000E+00 0. -1.
         21   -1    0    0  502  503 -0.00000000000E+00 -0.00000000000E+00 -0.11177782367E+03  0.11177782367E+03  0.00000000000E+00 0.  1.
          2    1    1    2  501    0 -0.25579298747E+02 -0.85279337121E+01 -0.42248636268E+02  0.50119591422E+02  0.00000000000E+00 0.  1.
         -2    1    1    2    0  503  0.25579298747E+02  0.85279337121E+01 -0.62822765100E+02  0.68364654556E+02  0.00000000000E+00 0. -1.
</event>
<event>
 4    1  0.1768739E+004  0.2397955E+02  0.7546771E-02  0.1480551E+00
         21   -1    0    0  501  502  0.00000000000E+00  0.00000000000E+00  0.14209812665E+03  0.14209812665E+03  0.00000000000E+00 0.  1.
         21   -1    0    0  502  503 -0.00000000000E+00 -0.00000000000E+00 -0.14598459099E+02  0.14598459099E+02  0.00000000000E+00 0. -1.
          2    1    1    2  501    0  0.20511577130E+02 -0.12421520410E+02  0.13035989646E+03  0.13254705418E+03  0.00000000000E+00 0.  1.
         -2    1    1    2    0  503 -0.20511577130E+02  0.12421520410E+02 -0.28602289107E+01  0.24149531571E+02  0.00000000000E+00 0. -1.
</event>
<event>
 4    1  0.1768739E+004  0.2210338E+02  0.7546771E-02  0.1504075E+00
         21   -1    0    0  501  502  0.00000000000E+00  0.00000000000E+00  0.15352760000E+02  0.15352760000E+02  0.00000000000E+00 0.  1.
         21   -1    0    0  502  503 -0.00000000000E+00 -0.00000000000E+00 -0.65814095519E+02  0.65814095519E+02  0.00000000000E+00 0. -1.
          2    1    1    2  501    0 -0.18123981958E+02  0.12652304617E+02  0.39353119724E+01  0.22450973575E+02  0.00000000000E+00 0.  1.
         -2    1    1    2    0  503  0.18123981958E+02 -0.12652304617E+02 -0.54396647491E+02  0.58715881944E+02  0.00000000000E+00 0. -1.
</event>
<event>
 4    1  0.1768739E+004  0.2125251E+02  0.7546771E-02  0.1515690E+00
         21   -1    0    0  501  502  0.00000000000E+00  0.00000000000E+00  0.82714148112E+01  0.82714148112E+01  0.00000000000E+00 0.  1.
         21   -1    0    0  502  503 -0.00000000000E+00 -0.00000000000E+00 -0.99390312101E+02  0.99390312101E+02  0.00000000000E+00 0. -1.
          2    1    1    2  501    0 -0.17705488331E+02 -0.11755197522E+02 -0.94249353860E+01  0.23248621310E+02  0.00000000000E+00 0.  1.
         -2    1    1    2    0  503  0.17705488331E+02  0.11755197522E+02 -0.81693961904E+02  0.84413105602E+02  0.00000000000E+00 0. -1.
</event>
<event>
 4    1  0.1768739E+004  0.2299849E+02  0.7546771E-02  0.1492517E+00
         21   -1    0    0  503  502  0.00000000000E+00  0.00000000000E+00  0.13860727527E+03  0.13860727527E+03  0.00000000000E+00 0. -1.
         21   -1    0    0  501  503 -0.00000000000E+00 -0.00000000000E+00 -0.26148026267E+02  0.26148026267E+02  0.00000000000E+00 0.  1.
          2    1    1    2  501    0 -0.12533176217E+02  0.19283413271E+02 -0.19899993149E+02  0.30412830529E+02  0.00000000000E+00 0.  1.
         -2    1    1    2    0  502  0.12533176217E+02 -0.19283413271E+02  0.13235924216E+03  0.13434247101E+03  0.00000000000E+00 0. -1.
</event>
<event>
 4    1  0.1768739E+004  0.2003534E+02  0.7546771E-02  0.1533496E+00
         21   -1    0    0  501  502  0.00000000000E+00  0.00000000000E+00  0.18071352091E+03  0.18071352091E+03  0.00000000000E+00 0.  1.
         21   -1    0    0  502  503 -0.00000000000E+00 -0.00000000000E+00 -0.23110686506E+01  0.23110686506E+01  0.00000000000E+00 0. -1.
          2    1    1    2  501    0 -0.96250205981E+01  0.17571961156E+02  0.10723930550E+03  0.10909483711E+03  0.00000000000E+00 0.  1.
         -2    1    1    2    0  503  0.96250205981E+01 -0.17571961156E+02  0.71163146759E+02  0.73929752449E+02  0.00000000000E+00 0. -1.
</event>
<event>
 4    1  0.1768739E+004  0.3061494E+02  0.7546771E-02  0.1414326E+00
         21   -1    0    0  501  502  0.00000000000E+00  0.00000000000E+00  0.17492945671E+03  0.17492945671E+03  0.00000000000E+00 0.  1.
         21   -1    0    0  502  503 -0.00000000000E+00 -0.00000000000E+00 -0.92471422303E+01  0.92471422303E+01  0.00000000000E+00 0. -1.
          2    1    1    2  501    0  0.26860226796E+02  0.14690228370E+02  0.14256211707E+03  0.14581231710E+03  0.00000000000E+00 0.  1.
         -2    1    1    2    0  503 -0.26860226796E+02 -0.14690228370E+02  0.23120197405E+02  0.38364281841E+02  0.00000000000E+00 0. -1.
</event>
<event>
 4    1  0.1768739E+004  0.5274004E+02  0.7546771E-02  0.1286710E+00
         21   -1    0    0  503  502  0.00000000000E+00  0.00000000000E+00  0.14776974094E+03  0.14776974094E+03  0.00000000000E+00 0. -1.
         21   -1    0    0  501  503 -0.00000000000E+00 -0.00000000000E+00 -0.19185586571E+02  0.19185586571E+02  0.00000000000E+00 0.  1.
          2    1    1    2  501    0 -0.30697685389E+02  0.42885468458E+02  0.52820569246E+02  0.74642640820E+02  0.00000000000E+00 0.  1.
         -2    1    1    2    0  502  0.30697685389E+02 -0.42885468458E+02  0.75763585119E+02  0.92312686686E+02  0.00000000000E+00 0. -1.
</event>
<event>
 4    1  0.1768739E+004  0.3451796E+02  0.7546771E-02  0.1383984E+00
         21   -1    0    0  503  502  0.00000000000E+00  0.00000000000E+00  0.24575553674E+03  0.24575553674E+03  0.00000000000E+00 0.  1.
         21   -1    0    0  501  503 -0.00000000000E+00 -0.00000000000E+00 -0.19912837846E+03  0.19912837846E+03  0.00000000000E+00 0. -1.
          2    1    1    2  501    0  0.39631348253E+01 -0.34289696477E+02 -0.19640374237E+03  0.19941394068E+03  0.00000000000E+00 0. -1.
         -2    1    1    2    0  502 -0.39631348253E+01  0.34289696477E+02  0.24303090064E+03  0.24546997452E+03  0.00000000000E+00 0.  1.
</event>
<event>
 4    1  0.1768739E+004  0.3500120E+02  0.7546771E-02  0.1380555E+00
         21   -1    0    0  501  502  0.00000000000E+00  0.00000000000E+00  0.84786635976E+02  0.84786635976E+02  0.00000000000E+00 0. -1.
         21   -1    0    0  502  503 -0.00000000000E+00 -0.00000000000E+00 -0.39271976453E+02  0.39271976453E+02  0.00000000000E+00 0.  1.
          2    1    1    2  501    0  0.34347187820E+02  0.67346101022E+01  0.72072694208E+02  0.80122141352E+02  0.00000000000E+00 0. -1.
         -2    1    1    2    0  503 -0.34347187820E+02 -0.67346101022E+01 -0.26558034685E+02  0.43936471077E+02  0.00000000000E+00 0.  1.
</event>
<event>
 4    1  0.1768739E+004  0.2318335E+02  0.7546771E-02  0.1490209E+00
         21   -1    0    0  503  502  0.00000000000E+00  0.00000000000E+00  0.59314804662E+02  0.59314804662E+02  0.00000000000E+00 0.  1.
         21   -1    0    0  501  503 -0.00000000000E+00 -0.00000000000E+00 -0.90847662218E+01  0.90847662218E+01  0.00000000000E+00 0. -1.
          2    1    1    2  501    0 -0.21924644356E+02 -0.75350908580E+01  0.23375857711E+02  0.32922611502E+02  0.00000000000E+00 0. -1.
         -2    1    1    2    0  502  0.21924644356E+02  0.75350908580E+01  0.26854180729E+02  0.35476959382E+02  0.00000000000E+00 0.  1.
</event>
<event>
 4    1  0.1768739E+004  0.2453287E+02  0.7546771E-02  0.1474098E+00
         21   -1    0    0  503  502  0.00000000000E+00  0.00000000000E+00  0.69291092922E+02  0.69291092922E+02  0.00000000000E+00 0.  1.
         21   -1    0    0  501  503 -0.00000000000E+00 -0.00000000000E+00 -0.25542517378E+02  0.25542517378E+02  0.00000000000E+00 0. -1.
          2    1    1    2  501    0  0.24049017433E+02  0.48483408541E+01 -0.16645555565E+02  0.29646857651E+02  0.00000000000E+00 0. -1.
         -2    1    1    2    0  502 -0.24049017433E+02 -0.48483408541E+01  0.60394131109E+02  0.65186752649E+02  0.00000000000E+00 0.  1.
</event>
<event>
 4    1  0.1768739E+004  0.2041260E+02  0.7546771E-02  0.1527819E+00
         21   -1    0    0  503  502  0.00000000000E+00  0.00000000000E+00  0.40721816138E+01  0.40721816138E+01  0.00000000000E+00 0. -1.
         21   -1    0    0  501  503 -0.00000000000E+00 -0.00000000000E+00 -0.15221891530E+03  0.15221891530E+03  0.00000000000E+00 0.  1.
          2    1    1    2  501    0  0.77279126492E+00  0.20397966751E+02 -0.11881442598E+03  0.12055514122E+03  0.00000000000E+00 0.  1.
         -2    1    1    2    0  502 -0.77279126492E+00 -0.20397966751E+02 -0.29332307709E+02  0.35735955696E+02  0.00000000000E+00 0. -1.
</event>
<event>
 4    1  0.1768739E+004  0.2608347E+02  0.7546771E-02  0.1457039E+00
         21   -1    0    0  503  502  0.00000000000E+00  0.00000000000E+00  0.10275998189E+02  0.10275998189E+02  0.00000000000E+00 0. -1.
         21   -1    0    0  501  503 -0.00000000000E+00 -0.00000000000E+00 -0.70218953748E+02  0.70218953748E+02  0.00000000000E+00 0.  1.
          2    1    1    2  501    0 -0.66585363110E+01  0.25219260665E+02 -0.39591305554E+02  0.47411166298E+02  0.00000000000E+00 0.  1.
         -2    1    1    2    0  502  0.66585363110E+01 -0.25219260665E+02 -0.20351650005E+02  0.33083785639E+02  0.00000000000E+00 0. -1.
</event>
<event>
 4    1  0.1768739E+004  0.4023710E+02  0.7546771E-02  0.1347102E+00
         21   -1    0    0  501  502  0.00000000000E+00  0.00000000000E+00  0.13579436498E+03  0.13579436498E+03  0.00000000000E+00 0.  1.
         21   -1    0    0  502  503 -0.00000000000E+00 -0.00000000000E+00 -0.12405742382E+02  0.12405742382E+02  0.00000000000E+00 0. -1.
          2    1    1    2  501    0  0.40076192036E+02 -0.35948199273E+01  0.76317365287E+02  0.86274933455E+02  0.00000000000E+00 0. -1.
         -2    1    1    2    0  503 -0.40076192036E+02  0.35948199273E+01  0.47071257306E+02  0.61925173902E+02  0.00000000000E+00 0.  1.
</event>
<event>
 4    1  0.1768739E+004  0.2206819E+02  0.7546771E-02  0.1504543E+00
         21   -1    0    0  503  502  0.00000000000E+00  0.00000000000E+00  0.49826836710E+01  0.49826836710E+01  0.00000000000E+00 0.  1.
         21   -1    0    0  501  503 -0.00000000000E+00 -0.00000000000E+00 -0.21517306129E+03  0.21517306129E+03  0.00000000000E+00 0. -1.
          2    1    1    2  501    0  0.22067085516E+02  0.22052230938E+00 -0.18641610018E+03  0.18771778632E+03  0.00000000000E+00 0. -1.
         -2    1    1    2    0  502 -0.22067085516E+02 -0.22052230938E+00 -0.23774277438E+02  0.32437958643E+02  0.00000000000E+00 0.  1.
</event>
<event>
 4    1  0.1768739E+004  0.3340765E+02  0.7546771E-02  0.1392117E+00
         21   -1    0    0  503  502  0.00000000000E+00  0.00000000000E+00  0.35515252471E+03  0.35515252471E+03  0.00000000000E+00 0.  1.
         21   -1    0    0  501  503 -0.00000000000E+00 -0.00000000000E+00 -0.31552661720E+01  0.31552661720E+01  0.00000000000E+00 0. -1.
          2    1    1    2  501    0 -0.29039879576E+02  0.16515333826E+02  0.16460808103E+03  0.16796395803E+03  0.00000000000E+00 0. -1.
         -2    1    1    2    0  502  0.29039879576E+02 -0.16515333826E+02  0.18738917751E+03  0.19034383285E+03  0.00000000000E+00 0.  1.
</event>
<event>
 4    1  0.1768739E+004  0.2093079E+02  0.7546771E-02  0.1520255E+00
         21   -1    0    0  503  502  0.00000000000E+00  0.00000000000E+00  0.43544874678E+01  0.43544874678E+01  0.00000000000E+00 0. -1.
         21   -1    0    0  501  503 -0.00000000000E+00 -0.00000000000E+00 -0.39384272727E+03  0.39384272727E+03  0.00000000000E+00 0.  1.
          2    1    1    2  501    0  0.16566696533E+02 -0.12792291458E+02 -0.36654057112E+03  0.36713769683E+03  0.00000000000E+00 0.  1.
         -2    1    1    2    0  502 -0.16566696533E+02  0.12792291458E+02 -0.22947668674E+02  0.31059517903E+02  0.00000000000E+00 0. -1.
</event>
<event>
 4    1  0.1768739E+004  0.3599320E+02  0.7546771E-02  0.1373712E+00
         21   -1    0    0  503  502  0.00000000000E+00  0.00000000000E+00  0.10097417766E+03  0.10097417766E+03  0.00000000000E+00 0.  1.
         21   -1    0    0  501  503 -0.00000000000E+00 -0.00000000000E+00 -0.19097411859E+02  0.19097411859E+02  0.00000000000E+00 0. -1.
          2    1    1    2  501    0 -0.35807050341E+02  0.36558927290E+01  0.65459334381E+01  0.36583598105E+02  0.00000000000E+00 0. -1.
         -2    1    1    2    0  502  0.35807050341E+02 -0.36558927290E+01  0.75330832360E+02  0.83487991410E+02  0.00000000000E+00 0.  1.
</event>
<event>
 4    1  0.1768739E+004  0.2104973E+02  0.7546771E-02  0.1518556E+00
         21   -1    0    0  503  502  0.00000000000E+00  0.00000000000E+00  0.26105359981E+03  0.26105359981E+03  0.00000000000E+00 0. -1.
         21   -1    0    0  501  503 -0.00000000000E+00 -0.00000000000E+00 -0.19949043527E+01  0.19949043527E+01  0.00000000000E+00 0.  1.
          2    1    1    2  501    0  0.55553072870E+01 -0.20303445089E+02  0.78730912401E+02  0.81496305984E+02  0.00000000000E+00 0. -1.
         -2    1    1    2    0  502 -0.55553072870E+01  0.20303445089E+02  0.18032778305E+03  0.18155219818E+03  0.00000000000E+00 0.  1.
</event>
<event>
 4    1  0.1768739E+004  0.2019498E+02  0.7546771E-02  0.1531076E+00
         21   -1    0    0  501  502  0.00000000000E+00  0.00000000000E+00  0.34042108089E+03  0.34042108089E+03  0.00000000000E+00 0. -1.
         21   -1    0    0  502  503 -0.00000000000E+00 -0.00000000000E+00 -0.34357711967E+01  0.34357711967E+01  0.00000000000E+00 0.  1.
          2    1    1    2  501    0 -0.16594840915E+02  0.11508634488E+02  0.30724480320E+03  0.30790778896E+03  0.00000000000E+00 0. -1.
         -2    1    1    2    0  503  0.16594840915E+02 -0.11508634488E+02  0.29740506495E+02  0.35949063122E+02  0.00000000000E+00 0.  1.
</event>
<event>
 4    1  0.1768739E+004  0.5958716E+02  0.7546771E-02  0.1261242E+00
         21   -1    0    0  503  502  0.00000000000E+00  0.00000000000E+00  0.11329495871E+03  0.11329495871E+03  0.00000000000E+00 0. -1.
         21   -1    0    0  501  503 -0.00000000000E+00 -0.00000000000E+00 -0.40190668205E+02  0.40190668205E+02  0.00000000000E+00 0.  1.
          2    1    1    2  501    0  0.12841523753E+02 -0.58186979004E+02  0.53820346930E+00  0.59589587353E+02  0.00000000000E+00 0.  1.
         -2    1    1    2    0  502 -0.12841523753E+02  0.58186979004E+02  0.72566087038E+02  0.93896039564E+02  0.00000000000E+00 0. -1.
</event>
<event>
 4    1  0.1768739E+004  0.2054393E+02  0.7546771E-02  0.1525877E+00
         21   -1    0    0  501  502  0.00000000000E+00  0.00000000000E+00  0.10194269417E+03  0.10194269417E+03  0.00000000000E+00 0. -1.
         21   -1    0    0  502  503 -0.00000000000E+00 -0.00000000000E+00 -0.19018583589E+02  0.19018583589E+02  0.00000000000E+00 0.  1.
          2    1    1    2  501    0 -0.16648750246E+02  0.12036280880E+02  0.94956245958E+02  0.97153186198E+02  0.00000000000E+00 0. -1.
         -2    1    1    2    0  503  0.16648750246E+02 -0.12036280880E+02 -0.12032135374E+02  0.23808091562E+02  0.00000000000E+00 0.  1.
</event>
<event>
 4    1  0.1768739E+004  0.3006742E+02  0.7546771E-02  0.1419011E+00
         21   -1    0    0  501  502  0.00000000000E+00  0.00000000000E+00  0.29917499870E+02  0.29917499870E+02  0.00000000000E+00 0.  1.
         21   -1    0    0  502  503 -0.00000000000E+00 -0.00000000000E+00 -0.11867417854E+03  0.11867417854E+03  0.00000000000E+00 0. -1.
          2    1    1    2  501    0 -0.25553683769E+01 -0.29958634705E+02  0.19764804392E+02  0.35981900917E+02  0.00000000000E+00 0.  1.
         -2    1    1    2    0  503  0.25553683769E+01  0.29958634705E+02 -0.10852148306E+03  0.11260977749E+03  0.00000000000E+00 0. -1.
</event>
<event>
 4    1  0.1768739E+004  0.2312266E+02  0.7546771E-02  0.1490964E+00
         21   -1    0    0  503  502  0.00000000000E+00  0.00000000000E+00  0.88939389633E+02  0.88939389633E+02  0.00000000000E+00 0.  1.
         21   -1    0    0  501  503 -0.00000000000E+00 -0.00000000000E+00 -0.89953862874E+01  0.89953862874E+01  0.00000000000E+00 0. -1.
          2    1    1    2  501    0 -0.41424764557E+01 -0.22748563130E+02  0.11769364353E+02  0.25945619533E+02  0.00000000000E+00 0. -1.
         -2    1    1    2    0  502  0.41424764557E+01  0.22748563130E+02  0.68174638992E+02  0.71989156388E+02  0.00000000000E+00 0.  1.
</event>
<event>
 4    1  0.1768739E+004  0.6449833E+02  0.7546771E-02  0.1245270E+00
         21   -1    0    0  501  502  0.00000000000E+00  0.00000000000E+00  0.30466573163E+02  0.30466573163E+02  0.00000000000E+00 0. -1.
         21   -1    0    0  502  503 -0.00000000000E+00 -0.00000000000E+00 -0.28066898325E+03  0.28066898325E+03  0.00000000000E+00 0.  1.
          2    1    1    2  501    0  0.64204517922E+02  0.61493762252E+01 -0.13622550572E+02  0.65921232040E+02  0.00000000000E+00 0. -1.
         -2    1    1    2    0  503 -0.64204517922E+02 -0.61493762252E+01 -0.23657985952E+03  0.24521432438E+03  0.00000000000E+00 0.  1.
</event>
<event>
 4    1  0.1768739E+004  0.3221662E+02  0.7546771E-02  0.1401264E+00
         21   -1    0    0  503  502  0.00000000000E+00  0.00000000000E+00  0.38347849429E+02  0.38347849429E+02  0.00000000000E+00 0. -1.
         21   -1    0    0  501  503 -0.00000000000E+00 -0.00000000000E+00 -0.42090881209E+02  0.42090881209E+02  0.00000000000E+00 0.  1.
          2    1    1    2  501    0 -0.30307596324E+02 -0.10925206885E+02 -0.25901383750E+02  0.41337540089E+02  0.00000000000E+00 0.  1.
         -2    1    1    2    0  502  0.30307596324E+02  0.10925206885E+02  0.22158351970E+02  0.39101190550E+02  0.00000000000E+00 0. -1.
</event>
<event>
 4    1  0.1768739E+004  0.2071614E+02  0.7546771E-02  0.1523356E+00
         21   -1    0    0  501  502  0.00000000000E+00  0.00000000000E+00  0.61687495354E+02  0.61687495354E+02  0.00000000000E+00 0.  1.
         21   -1    0    0  502  503 -0.00000000000E+00 -0.00000000000E+00 -0.31838378502E+02  0.31838378502E+02  0.00000000000E+00 0. -1.
          2    1    1    2  501    0 -0.47676910126E+01  0.20160052519E+02  0.56263914984E+02  0.59956540298E+02  0.00000000000E+00 0.  1.
         -2    1    1    2    0  503  0.47676910126E+01 -0.20160052519E+02 -0.26414798132E+02  0.33569333558E+02  0.00000000000E+00 0. -1.
</event>
<event>
 4    1  0.1768739E+004  0.3350736E+02  0.7546771E-02  0.1391372E+00
         21   -1    0    0  501  502  0.00000000000E+00  0.00000000000E+00  0.33697727589E+02  0.33697727589E+02  0.00000000000E+00 0.  1.
         21   -1    0    0  502  503 -0.00000000000E+00 -0.00000000000E+00 -0.33946956981E+02  0.33946956981E+02  0.00000000000E+00 0. -1.
          2    1    1    2  501    0  0.23163430054E+02  0.24211538591E+02  0.44789169601E+01  0.33805381079E+02  0.00000000000E+00 0.  1.
         -2    1    1    2    0  503 -0.23163430054E+02 -0.24211538591E+02 -0.47281463522E+01  0.33839303490E+02  0.00000000000E+00 0. -1.
</event>
<event>
 4    1  0.1768739E+004  0.2418906E+02  0.7546771E-02  0.1478083E+00
         21   -1    0    0  501  502  0.00000000000E+00  0.00000000000E+00  0.78434092320E+01  0.78434092320E+01  0.00000000000E+00 0. -1.
         21   -1    0    0  502  503 -0.00000000000E+00 -0.00000000000E+00 -0.95089528035E+02  0.95089528035E+02  0.00000000000E+00 0.  1.
          2    1    1    2  501    0  0.22280902874E+02  0.94165832253E+01 -0.19732058403E+02  0.31216418778E+02  0.00000000000E+00 0. -1.
         -2    1    1    2    0  503 -0.22280902874E+02 -0.94165832253E+01 -0.67514060400E+02  0.71716518489E+02  0.00000000000E+00 0.  1.
</event>
<event>
 4    1  0.1768739E+004  0.2114412E+02  0.7546771E-02  0.1517217E+00
         21   -1    0    0  503  502  0.00000000000E+00  0.00000000000E+00  0.82662980726E+00  0.82662980726E+00  0.00000000000E+00 0. -1.
         21   -1    0    0  501  503 -0.00000000000E+00 -0.00000000000E+00 -0.70931666771E+03  0.70931666771E+03  0.00000000000E+00 0.  1.
          2    1    1    2  501    0 -0.80631933127E+00  0.21128742528E+02 -0.52729304869E+03  0.52771681147E+03  0.00000000000E+00 0.  1.
         -2    1    1    2    0  502  0.80631933127E+00 -0.21128742528E+02 -0.18119698922E+03  0.18242648605E+03  0.00000000000E+00 0. -1.
</event>
<event>
 4    1  0.1768739E+004  0.2265983E+02  0.7546771E-02  0.1496814E+00
         21   -1    0    0  503  502  0.00000000000E+00  0.00000000000E+00  0.15138130679E+04  0.15138130679E+04  0.00000000000E+00 0.  1.
         21   -1    0    0  501  503 -0.00000000000E+00 -0.00000000000E+00 -0.13958263961E+01  0.13958263961E+01  0.00000000000E+00 0. -1.
          2    1    1    2  501    0 -0.19145055083E+02 -0.12121662559E+02  0.97050020226E+02  0.99660294316E+02  0.00000000000E+00 0. -1.
         -2    1    1    2    0  502  0.19145055083E+02  0.12121662559E+02  0.14153672213E+04  0.14155486000E+04  0.00000000000E+00 0.  1.
</event>
<event>
 4    1  0.1768739E+004  0.2703929E+02  0.7546771E-02  0.1447214E+00
         21   -1    0    0  501  502  0.00000000000E+00  0.00000000000E+00  0.19429389172E+02  0.19429389172E+02  0.00000000000E+00 0.  1.
         21   -1    0    0  502  503 -0.00000000000E+00 -0.00000000000E+00 -0.42271948636E+02  0.42271948636E+02  0.00000000000E+00 0. -1.
          2    1    1    2  501    0 -0.89187441059E+01 -0.25526048241E+02 -0.11977674573E+01  0.27065804664E+02  0.00000000000E+00 0.  1.
         -2    1    1    2    0  503  0.89187441059E+01  0.25526048241E+02 -0.21644792007E+02  0.34635533145E+02  0.00000000000E+00 0. -1.
</event>
<event>
 4    1  0.1768739E+004  0.2533219E+02  0.7546771E-02  0.1465121E+00
         21   -1    0    0  501  502  0.00000000000E+00  0.00000000000E+00  0.83595700724E+01  0.83595700724E+01  0.00000000000E+00 0.  1.
         21   -1    0    0  502  503 -0.00000000000E+00 -0.00000000000E+00 -0.78299884896E+02  0.78299884896E+02  0.00000000000E+00 0. -1.
          2    1    1    2  501    0  0.16761393573E+02  0.18994094238E+02 -0.41037311645E+02  0.48226350447E+02  0.00000000000E+00 0. -1.
         -2    1    1    2    0  503 -0.16761393573E+02 -0.18994094238E+02 -0.28903003178E+02  0.38433104521E+02  0.00000000000E+00 0.  1.
</event>
<event>
 4    1  0.1768739E+004  0.4157916E+02  0.7546771E-02  0.1339472E+00
         21   -1    0    0  503  502  0.00000000000E+00  0.00000000000E+00  0.48602966583E+03  0.48602966583E+03  0.00000000000E+00 0. -1.
         21   -1    0    0  501  503 -0.00000000000E+00 -0.00000000000E+00 -0.59989828037E+01  0.59989828037E+01  0.00000000000E+00 0.  1.
          2    1    1    2  501    0 -0.41563829497E+02  0.11289835261E+01  0.83055189759E+02  0.92881597058E+02  0.00000000000E+00 0.  1.
         -2    1    1    2    0  502  0.41563829497E+02 -0.11289835261E+01  0.39697549326E+03  0.39914705157E+03  0.00000000000E+00 0. -1.
</event>
<event>
 4    1  0.1768739E+004  0.2755038E+02  0.7546771E-02  0.1442156E+00
         21   -1    0    0  503  502  0.00000000000E+00  0.00000000000E+00  0.62416288437E+02  0.62416288437E+02  0.00000000000E+00 0. -1.
         21   -1    0    0  501  503 -0.00000000000E+00 -0.00000000000E+00 -0.13164372839E+02  0.13164372839E+02  0.00000000000E+00 0.  1.
          2    1    1    2  501    0  0.27100723762E+02  0.49572167244E+01  0.14191125601E+02  0.30990502931E+02  0.00000000000E+00 0. -1.
         -2    1    1    2    0  502 -0.27100723762E+02 -0.49572167244E+01  0.35060789996E+02  0.44590158345E+02  0.00000000000E+00 0.  1.
</event>
<event>
 4    1  0.1768739E+004  0.2290391E+02  0.7546771E-02  0.1493708E+00
         21   -1    0    0  501  502  0.00000000000E+00  0.00000000000E+00  0.80658638139E+00  0.80658638139E+00  0.00000000000E+00 0.  1.
         21   -1    0    0  502  503 -0.00000000000E+00 -0.00000000000E+00 -0.87818090410E+03  0.87818090410E+03  0.00000000000E+00 0. -1.
          2    1    1    2  501    0 -0.22645853263E+02 -0.34284542956E+01 -0.21484758622E+03  0.21606497697E+03  0.00000000000E+00 0.  1.
         -2    1    1    2    0  503  0.22645853263E+02  0.34284542956E+01 -0.66252673150E+03  0.66292251352E+03  0.00000000000E+00 0. -1.
</event>
<event>
 4    1  0.1768739E+004  0.2636194E+02  0.7546771E-02  0.1454125E+00
         21   -1    0    0  503  502  0.00000000000E+00  0.00000000000E+00  0.21384206486E+01  0.21384206486E+01  0.00000000000E+00 0.  1.
         21   -1    0    0  501  503 -0.00000000000E+00 -0.00000000000E+00 -0.85998153817E+03  0.85998153817E+03  0.00000000000E+00 0. -1.
          2    1    1    2  501    0 -0.24753064906E+02 -0.90685101858E+01 -0.76891387871E+03  0.76936565102E+03  0.00000000000E+00 0. -1.
         -2    1    1    2    0  502  0.24753064906E+02  0.90685101858E+01 -0.88929238806E+02  0.92754307792E+02  0.00000000000E+00 0.  1.
</event>
<event>
 4    1  0.1768739E+004  0.2021129E+02  0.7546771E-02  0.1530830E+00
         21   -1    0    0  503  502  0.00000000000E+00  0.00000000000E+00  0.21264160187E+02  0.21264160187E+02  0.00000000000E+00 0.  1.
         21   -1    0    0  501  503 -0.00000000000E+00 -0.00000000000E+00 -0.20151114974E+02  0.20151114974E+02  0.00000000000E+00 0. -1.
          2    1    1    2  501    0  0.12128574943E+01 -0.20174865713E+02  0.50303088272E+01  0.20827871632E+02  0.00000000000E+00 0.  1.
         -2    1    1    2    0  502 -0.12128574943E+01  0.20174865713E+02 -0.39172636141E+01  0.20587403529E+02  0.00000000000E+00 0. -1.
</event>
<event>
 4    1  0.1768739E+004  0.3367170E+02  0.7546771E-02  0.1390150E+00
         21   -1    0    0  501  502  0.00000000000E+00  0.00000000000E+00  0.14762962055E+02  0.14762962055E+02  0.00000000000E+00 0. -1.
         21   -1    0    0  502  503 -0.00000000000E+00 -0.00000000000E+00 -0.25829142113E+03  0.25829142113E+03  0.00000000000E+00 0.  1.
          2    1    1    2  501    0 -0.46595776907E+01  0.33347735128E+02 -0.73201790949E+01  0.34458208375E+02  0.00000000000E+00 0. -1.
         -2    1    1    2    0  503  0.46595776907E+01 -0.33347735128E+02 -0.23620827998E+03  0.23859617481E+03  0.00000000000E+00 0.  1.
</event>
<event>
 4    1  0.1768739E+004  0.4208495E+02  0.7546771E-02  0.1336683E+00
         21   -1    0    0  503  502  0.00000000000E+00  0.00000000000E+00  0.25797872677E+02  0.25797872677E+02  0.00000000000E+00 0. -1.
         21   -1    0    0  501  503 -0.00000000000E+00 -0.00000000000E+00 -0.85210078512E+02  0.85210078512E+02  0.00000000000E+00 0.  1.
          2    1    1    2  501    0  0.41731175350E+02 -0.54454038651E+01 -0.54171320142E+02  0.68597925225E+02  0.00000000000E+00 0.  1.
         -2    1    1    2    0  502 -0.41731175350E+02  0.54454038651E+01 -0.52408856932E+01  0.42410025963E+02  0.00000000000E+00 0. -1.
</event>
<event>
 4    1  0.1768739E+004  0.5227891E+02  0.7546771E-02  0.1288583E+00
         21   -1    0    0  503  502  0.00000000000E+00  0.00000000000E+00  0.13341433755E+03  0.13341433755E+03  0.00000000000E+00 0. -1.
         21   -1    0    0  501  503 -0.00000000000E+00 -0.00000000000E+00 -0.23496006944E+02  0.23496006944E+02  0.00000000000E+00 0.  1.
          2    1    1    2  501    0  0.51195104193E+02  0.10589908940E+02  0.26876999149E+02  0.58783143400E+02  0.00000000000E+00 0.  1.
         -2    1    1    2    0  502 -0.51195104193E+02 -0.10589908940E+02  0.83041331460E+02  0.98127201098E+02  0.00000000000E+00 0. -1.
</event>
<event>
 4    1  0.1768739E+004  0.3210671E+02  0.7546771E-02  0.1402131E+00
         21   -1    0    0  503  502  0.00000000000E+00  0.00000000000E+00  0.13967880292E+03  0.13967880292E+03  0.00000000000E+00 0. -1.
         21   -1    0    0  501  503 -0.00000000000E+00 -0.00000000000E+00 -0.73888739057E+01  0.73888739057E+01  0.00000000000E+00 0.  1.
          2    1    1    2  501    0 -0.20658085652E+02 -0.24578120581E+02  0.63607915153E+02  0.71251718465E+02  0.00000000000E+00 0. -1.
         -2    1    1    2    0  502  0.20658085652E+02  0.24578120581E+02  0.68682013859E+02  0.75815958358E+02  0.00000000000E+00 0.  1.
</event>
<event>
 4    1  0.1768739E+004  0.2192016E+02  0.7546771E-02  0.1506522E+00
         21   -1    0    0  503  502  0.00000000000E+00  0.00000000000E+00  0.19399578798E+02  0.19399578798E+02  0.00000000000E+00 0.  1.
         21   -1    0    0  501  503 -0.00000000000E+00 -0.00000000000E+00 -0.31808207738E+02  0.31808207738E+02  0.00000000000E+00 0. -1.
          2    1    1    2  501    0 -0.14103364866E+02 -0.16780598749E+02 -0.18249730061E+02  0.28522728520E+02  0.00000000000E+00 0. -1.
         -2    1    1    2    0  502  0.14103364866E+02  0.16780598749E+02  0.58411011213E+01  0.22685058017E+02  0.00000000000E+00 0.  1.
</event>
<event>
 4    1  0.1768739E+004  0.3720180E+02  0.7546771E-02  0.1365712E+00
         21   -1    0    0  501  502  0.00000000000E+00  0.00000000000E+00  0.19552937617E+03  0.19552937617E+03  0.00000000000E+00 0. -1.
         21   -1    0    0  502  503 -0.00000000000E+00 -0.00000000000E+00 -0.18670801755E+02  0.18670801755E+02  0.00000000000E+00 0.  1.
          2    1    1    2  501    0  0.17777984435E+02 -0.32678998848E+02  0.17282122236E+03  0.17677994398E+03  0.00000000000E+00 0. -1.
         -2    1    1    2    0  503 -0.17777984435E+02  0.32678998848E+02  0.40373520483E+01  0.37420233936E+02  0.00000000000E+00 0.  1.
</event>
<event>
 4    1  0.1768739E+004  0.2126649E+02  0.7546771E-02  0.1515494E+00
         21   -1    0    0  503  502  0.00000000000E+00  0.00000000000E+00  0.50550335627E+02  0.50550335627E+02  0.00000000000E+00 0. -1.
         21   -1    0    0  501  503 -0.00000000000E+00 -0.00000000000E+00 -0.98241099640E+01  0.98241099640E+01  0.00000000000E+00 0.  1.
          2    1    1    2  501    0  0.82181261298E+01 -0.19614436441E+02  0.11342143122E+02  0.24102031545E+02  0.00000000000E+00 0.  1.
         -2    1    1    2    0  502 -0.82181261298E+01  0.19614436441E+02  0.29384082541E+02  0.36272414046E+02  0.00000000000E+00 0. -1.
</event>
<event>
 4    1  0.1768739E+004  0.2024283E+02  0.7546771E-02  0.1530356E+00
         21   -1    0    0  501  502  0.00000000000E+00  0.00000000000E+00  0.25274488655E+01  0.25274488655E+01  0.00000000000E+00 0.  1.
         21   -1    0    0  502  503 -0.00000000000E+00 -0.00000000000E+00 -0.20779875318E+03  0.20779875318E+03  0.00000000000E+00 0. -1.
          2    1    1    2  501    0 -0.36513373339E+01 -0.19910793910E+02 -0.53334426939E+02  0.57046762182E+02  0.00000000000E+00 0.  1.
         -2    1    1    2    0  503  0.36513373339E+01  0.19910793910E+02 -0.15193687738E+03  0.15327943987E+03  0.00000000000E+00 0. -1.
</event>
<event>
 4    1  0.1768739E+004  0.5376521E+02  0.7546771E-02  0.1282624E+00
         21   -1    0    0  503  502  0.00000000000E+00  0.00000000000E+00  0.53542666662E+02  0.53542666662E+02  0.00000000000E+00 0.  1.
         21   -1    0    0  501  503 -0.00000000000E+00 -0.00000000000E+00 -0.13848470405E+03  0.13848470405E+03  0.00000000000E+00 0. -1.
          2    1    1    2  501    0  0.53761959959E+02  0.59146648916E+00 -0.11746913575E+03  0.12918860641E+03  0.00000000000E+00 0. -1.
         -2    1    1    2    0  502 -0.53761959959E+02 -0.59146648916E+00  0.32527098365E+02  0.62838764304E+02  0.00000000000E+00 0.  1.
</event>
<event>
 4    1  0.1768739E+004  0.3178885E+02  0.7546771E-02  0.1404663E+00
         21   -1    0    0  503  502  0.00000000000E+00  0.00000000000E+00  0.16833265785E+02  0.16833265785E+02  0.00000000000E+00 0. -1.
         21   -1    0    0  501  503 -0.00000000000E+00 -0.00000000000E+00 -0.78804470465E+02  0.78804470465E+02  0.00000000000E+00 0.  1.
          2    1    1    2  501    0 -0.31272882779E+02  0.57042086389E+01 -0.54324854072E+02  0.62942203357E+02  0.00000000000E+00 0.  1.
         -2    1    1    2    0  502  0.31272882779E+02 -0.57042086389E+01 -0.76463506081E+01  0.32695532892E+02  0.00000000000E+00 0. -1.
</event>
<event>
 4    1  0.1768739E+004  0.2174925E+02  0.7546771E-02  0.1508831E+00
         21   -1    0    0  501  502  0.00000000000E+00  0.00000000000E+00  0.40165748961E+02  0.40165748961E+02  0.00000000000E+00 0. -1.
         21   -1    0    0  502  503 -0.00000000000E+00 -0.00000000000E+00 -0.12038043964E+02  0.12038043964E+02  0.00000000000E+00 0.  1.
          2    1    1    2  501    0 -0.16955441353E+02  0.13621409113E+02  0.17907977272E+02  0.28173133082E+02  0.00000000000E+00 0. -1.
         -2    1    1    2    0  503  0.16955441353E+02 -0.13621409113E+02  0.10219727725E+02  0.24030659842E+02  0.00000000000E+00 0.  1.
</event>
<event>
 4    1  0.1768739E+004  0.2208487E+02  0.7546771E-02  0.1504321E+00
         21   -1    0    0  503  502  0.00000000000E+00  0.00000000000E+00  0.27582202645E+02  0.27582202645E+02  0.00000000000E+00 0. -1.
         21   -1    0    0  501  503 -0.00000000000E+00 -0.00000000000E+00 -0.17950613093E+02  0.17950613093E+02  0.00000000000E+00 0.  1.
          2    1    1    2  501    0 -0.20319870928E+02 -0.86512653970E+01  0.75945348205E+01  0.23354196767E+02  0.00000000000E+00 0. -1.
         -2    1    1    2    0  502  0.20319870928E+02  0.86512653970E+01  0.20370547316E+01  0.22178618972E+02  0.00000000000E+00 0.  1.
</event>
<event>
 4    1  0.1768739E+004  0.2521922E+02  0.7546771E-02  0.1466366E+00
         21   -1    0    0  501  502  0.00000000000E+00  0.00000000000E+00  0.23313003220E+02  0.23313003220E+02  0.00000000000E+00 0. -1.
         21   -1    0    0  502  503 -0.00000000000E+00 -0.00000000000E+00 -0.70995696219E+02  0.70995696219E+02  0.00000000000E+00 0.  1.
          2    1    1    2  501    0 -0.87807116690E+01 -0.23641242177E+02  0.13160035873E+02  0.28446366609E+02  0.00000000000E+00 0. -1.
         -2    1    1    2    0  503  0.87807116690E+01  0.23641242177E+02 -0.60842728872E+02  0.65862332829E+02  0.00000000000E+00 0.  1.
</event>
<event>
 4    1  0.1768739E+004  0.2143221E+02  0.7546771E-02  0.1513183E+00
         21   -1    0    0  503  502  0.00000000000E+00  0.00000000000E+00  0.46669857141E+02  0.46669857141E+02  0.00000000000E+00 0. -1.
         21   -1    0    0  501  503 -0.00000000000E+00 -0.00000000000E+00 -0.12868021964E+02  0.12868021964E+02  0.00000000000E+00 0.  1.
          2    1    1    2  501    0 -0.18282783875E+02 -0.11183888260E+02  0.24657864385E+01  0.21573586758E+02  0.00000000000E+00 0.  1.
         -2    1    1    2    0  502  0.18282783875E+02  0.11183888260E+02  0.31336048739E+02  0.37964292347E+02  0.00000000000E+00 0. -1.
</event>
<event>
 4    1  0.1768739E+004  0.2186980E+02  0.7546771E-02  0.1507200E+00
         21   -1    0    0  503  502  0.00000000000E+00  0.00000000000E+00  0.29534934097E+02  0.29534934097E+02  0.00000000000E+00 0.  1.
         21   -1    0    0  501  503 -0.00000000000E+00 -0.00000000000E+00 -0.22890286753E+02  0.22890286753E+02  0.00000000000E+00 0. -1.
          2    1    1    2  501    0  0.13799465698E+02  0.16966521116E+02 -0.10855264930E+02  0.24415668515E+02  0.00000000000E+00 0. -1.
         -2    1    1    2    0  502 -0.13799465698E+02 -0.16966521116E+02  0.17499912274E+02  0.28009552334E+02  0.00000000000E+00 0.  1.
</event>
<event>
 4    1  0.1768739E+004  0.3039297E+02  0.7546771E-02  0.1416212E+00
         21   -1    0    0  503  502  0.00000000000E+00  0.00000000000E+00  0.76101842476E+03  0.76101842476E+03  0.00000000000E+00 0.  1.
         21   -1    0    0  501  503 -0.00000000000E+00 -0.00000000000E+00 -0.59766297213E+01  0.59766297213E+01  0.00000000000E+00 0. -1.
          2    1    1    2  501    0  0.25407210303E+02  0.16679525786E+02  0.35174000280E+02  0.46485946387E+02  0.00000000000E+00 0. -1.
         -2    1    1    2    0  502 -0.25407210303E+02 -0.16679525786E+02  0.71986779476E+03  0.72050910810E+03  0.00000000000E+00 0.  1.
</event>
<event>
 4    1  0.1768739E+004  0.2984813E+02  0.7546771E-02  0.1420921E+00
         21   -1    0    0  501  502  0.00000000000E+00  0.00000000000E+00  0.26992613032E+03  0.26992613032E+03  0.00000000000E+00 0. -1.
         21   -1    0    0  502  503 -0.00000000000E+00 -0.00000000000E+00 -0.38961736408E+01  0.38961736408E+01  0.00000000000E+00 0.  1.
          2    1    1    2  501    0  0.27458025078E+02  0.11703312209E+02  0.18654501920E+03  0.18891785212E+03  0.00000000000E+00 0. -1.
         -2    1    1    2    0  503 -0.27458025078E+02 -0.11703312209E+02  0.79484937478E+02  0.84904451848E+02  0.00000000000E+00 0.  1.
</event>
<event>
 4    1  0.1768739E+004  0.2466157E+02  0.7546771E-02  0.1472625E+00
         21   -1    0    0  501  502  0.00000000000E+00  0.00000000000E+00  0.51804727950E+01  0.51804727950E+01  0.00000000000E+00 0. -1.
         21   -1    0    0  502  503 -0.00000000000E+00 -0.00000000000E+00 -0.65409597996E+03  0.65409597996E+03  0.00000000000E+00 0.  1.
          2    1    1    2  501    0 -0.14872351745E+02 -0.19672473663E+02 -0.25864104955E+02  0.35737165411E+02  0.00000000000E+00 0. -1.
         -2    1    1    2    0  503  0.14872351745E+02  0.19672473663E+02 -0.62305140221E+03  0.62353928735E+03  0.00000000000E+00 0.  1.
</event>
<event>
 4    1  0.1768739E+004  0.5800622E+02  0.7546771E-02  0.1266761E+00
         21   -1    0    0  501  502  0.00000000000E+00  0.00000000000E+00  0.21833992066E+02  0.21833992066E+02  0.00000000000E+00 0.  1.
         21   -1    0    0  502  503 -0.00000000000E+00 -0.00000000000E+00 -0.23705535656E+03  0.23705535656E+03  0.00000000000E+00 0. -1.
          2    1    1    2  501    0  0.56745243527E+02 -0.12029096597E+02 -0.31038840889E+02  0.65788536020E+02  0.00000000000E+00 0.  1.
         -2    1    1    2    0  503 -0.56745243527E+02  0.12029096597E+02 -0.18418252360E+03  0.19310081260E+03  0.00000000000E+00 0. -1.
</event>
<event>
 4    1  0.1768739E+004  0.2466166E+02  0.7546771E-02  0.1472624E+00
         21   -1    0    0  503  502  0.00000000000E+00  0.00000000000E+00  0.46038583607E+03  0.46038583607E+03  0.00000000000E+00 0.  1.
         21   -1    0    0  501  503 -0.00000000000E+00 -0.00000000000E+00 -0.18278950898E+01  0.18278950898E+01  0.00000000000E+00 0. -1.
          2    1    1    2  501    0 -0.17634277352E+02  0.17240358199E+02  0.10758468031E+03  0.11037509287E+03  0.00000000000E+00 0. -1.
         -2    1    1    2    0  502  0.17634277352E+02 -0.17240358199E+02  0.35097326067E+03  0.35183863829E+03  0.00000000000E+00 0.  1.
</event>
<event>
 4    1  0.1768739E+004  0.3825641E+02  0.7546771E-02  0.1359018E+00
         21   -1    0    0  501  502  0.00000000000E+00  0.00000000000E+00  0.32716585006E+02  0.32716585006E+02  0.00000000000E+00 0. -1.
         21   -1    0    0  502  503 -0.00000000000E+00 -0.00000000000E+00 -0.48606557532E+02  0.48606557532E+02  0.00000000000E+00 0.  1.
          2    1    1    2  501    0  0.52891413103E+00  0.38252755718E+02  0.35317823885E+01  0.38419091049E+02  0.00000000000E+00 0.  1.
         -2    1    1    2    0  503 -0.52891413103E+00 -0.38252755718E+02 -0.19421754914E+02  0.42904051489E+02  0.00000000000E+00 0. -1.
</event>
<event>
 4    1  0.1768739E+004  0.3226132E+02  0.7546771E-02  0.1400912E+00
         21   -1    0    0  503  502  0.00000000000E+00  0.00000000000E+00  0.15738399771E+02  0.15738399771E+02  0.00000000000E+00 0. -1.
         21   -1    0    0  501  503 -0.00000000000E+00 -0.00000000000E+00 -0.66147359696E+02  0.66147359696E+02  0.00000000000E+00 0.  1.
          2    1    1    2  501    0  0.93743730594E+01  0.30869307635E+02 -0.25852220686E+02  0.41341629606E+02  0.00000000000E+00 0. -1.
         -2    1    1    2    0  502 -0.93743730594E+01 -0.30869307635E+02 -0.24556739239E+02  0.40544129861E+02  0.00000000000E+00 0.  1.
</event>
<event>
 4    1  0.1768739E+004  0.2082451E+02  0.7546771E-02  0.1521785E+00
         21   -1    0    0  503  502  0.00000000000E+00  0.00000000000E+00  0.84178211347E+01  0.84178211347E+01  0.00000000000E+00 0.  1.
         21   -1    0    0  501  503 -0.00000000000E+00 -0.00000000000E+00 -0.59343715323E+02  0.59343715323E+02  0.00000000000E+00 0. -1.
          2    1    1    2  501    0 -0.18578956950E+02  0.94065243460E+01 -0.37767262743E+02  0.43128024261E+02  0.00000000000E+00 0. -1.
         -2    1    1    2    0  502  0.18578956950E+02 -0.94065243460E+01 -0.13158631446E+02  0.24633512197E+02  0.00000000000E+00 0.  1.
</event>
<event>
 4    1  0.1768739E+004  0.2163438E+02  0.7546771E-02  0.1510397E+00
         21   -1    0    0  503  502  0.00000000000E+00  0.00000000000E+00  0.17346159805E+02  0.17346159805E+02  0.00000000000E+00 0. -1.
         21   -1    0    0  501  503 -0.00000000000E+00 -0.00000000000E+00 -0.40692371848E+02  0.40692371848E+02  0.00000000000E+00 0.  1.
          2    1    1    2  501    0 -0.83457529278E+01 -0.19959835047E+02 -0.28517023330E+02  0.35794793290E+02  0.00000000000E+00 0.  1.
         -2    1    1    2    0  502  0.83457529278E+01  0.19959835047E+02  0.51708112868E+01  0.22243738364E+02  0.00000000000E+00 0. -1.
</event>
<event>
 4    1  0.1768739E+004  0.2365174E+02  0.7546771E-02  0.1484472E+00
         21   -1    0    0  501  502  0.00000000000E+00  0.00000000000E+00  0.54625744100E+03  0.54625744100E+03  0.00000000000E+00 0.  1.
         21   -1    0    0  502  503 -0.00000000000E+00 -0.00000000000E+00 -0.15022771478E+01  0.15022771478E+01  0.00000000000E+00 0. -1.
          2    1    1    2  501    0  0.23593332223E+02  0.16612110851E+01  0.11785432501E+03  0.12020418824E+03  0.00000000000E+00 0. -1.
         -2    1    1    2    0  503 -0.23593332223E+02 -0.16612110851E+01  0.42690083884E+03  0.42755552990E+03  0.00000000000E+00 0.  1.
</event>
<event>
 4    1  0.1768739E+004  0.2029304E+02  0.7546771E-02  0.1529602E+00
         21   -1    0    0  503  502  0.00000000000E+00  0.00000000000E+00  0.14956475871E+02  0.14956475871E+02  0.00000000000E+00 0. -1.
         21   -1    0    0  501  503 -0.00000000000E+00 -0.00000000000E+00 -0.28110787357E+02  0.28110787357E+02  0.00000000000E+00 0.  1.
          2    1    1    2  501    0  0.12793668809E+02 -0.15752129690E+02 -0.34919033811E+01  0.20591283121E+02  0.00000000000E+00 0. -1.
         -2    1    1    2    0  502 -0.12793668809E+02  0.15752129690E+02 -0.96624081058E+01  0.22475980107E+02  0.00000000000E+00 0.  1.
</event>
<event>
 4    1  0.1768739E+004  0.2393598E+02  0.7546771E-02  0.1481068E+00
         21   -1    0    0  503  502  0.00000000000E+00  0.00000000000E+00  0.29667139362E+03  0.29667139362E+03  0.00000000000E+00 0. -1.
         21   -1    0    0  501  503 -0.00000000000E+00 -0.00000000000E+00 -0.22654330574E+01  0.22654330574E+01  0.00000000000E+00 0.  1.
          2    1    1    2  501    0  0.22828893485E+02 -0.71953292886E+01  0.89791341896E+02  0.92926940232E+02  0.00000000000E+00 0.  1.
         -2    1    1    2    0  502 -0.22828893485E+02  0.71953292886E+01  0.20461461867E+03  0.20600988645E+03  0.00000000000E+00 0. -1.
</event>
<event>
 4    1  0.1768739E+004  0.2802500E+02  0.7546771E-02  0.1437575E+00
         21   -1    0    0  501  502  0.00000000000E+00  0.00000000000E+00  0.32411632956E+02  0.32411632956E+02  0.00000000000E+00 0. -1.
         21   -1    0    0  502  503 -0.00000000000E+00 -0.00000000000E+00 -0.26482255262E+02  0.26482255262E+02  0.00000000000E+00 0.  1.
          2    1    1    2  501    0  0.27657655064E+02  0.45226718043E+01  0.11548366874E+02  0.30311140218E+02  0.00000000000E+00 0.  1.
         -2    1    1    2    0  503 -0.27657655064E+02 -0.45226718043E+01 -0.56189891801E+01  0.28582748001E+02  0.00000000000E+00 0. -1.
</event>
<event>
 4    1  0.1768739E+004  0.2334065E+02  0.7546771E-02  0.1488264E+00
         21   -1    0    0  503  502  0.00000000000E+00  0.00000000000E+00  0.45600190439E+03  0.45600190439E+03  0.00000000000E+00 0.  1.
         21   -1    0    0  501  503 -0.00000000000E+00 -0.00000000000E+00 -0.44544185706E+01  0.44544185706E+01  0.00000000000E+00 0. -1.
          2    1    1    2  501    0  0.21834695801E+02 -0.82481579133E+01  0.28825140776E+02  0.37090090192E+02  0.00000000000E+00 0. -1.
         -2    1    1    2    0  502 -0.21834695801E+02  0.82481579133E+01  0.42272234504E+03  0.42336623277E+03  0.00000000000E+00 0.  1.
</event>
<event>
 4    1  0.1768739E+004  0.3388181E+02  0.7546771E-02  0.1388599E+00
         21   -1    0    0  503  502  0.00000000000E+00  0.00000000000E+00  0.19572156009E+03  0.19572156009E+03  0.00000000000E+00 0.  1.
         21   -1    0    0  501  503 -0.00000000000E+00 -0.00000000000E+00 -0.86904378693E+01  0.86904378693E+01  0.00000000000E+00 0. -1.
          2    1    1    2  501    0 -0.29743447532E+02 -0.16226647027E+02  0.35242070870E+02  0.48887424805E+02  0.00000000000E+00 0.  1.
         -2    1    1    2    0  502  0.29743447532E+02  0.16226647027E+02  0.15178905135E+03  0.15552457316E+03  0.00000000000E+00 0. -1.
</event>
<event>
 4    1  0.1768739E+004  0.2096675E+02  0.7546771E-02  0.1519740E+00
         21   -1    0    0  503  502  0.00000000000E+00  0.00000000000E+00  0.76727697876E+01  0.76727697876E+01  0.00000000000E+00 0. -1.
         21   -1    0    0  501  503 -0.00000000000E+00 -0.00000000000E+00 -0.63612567768E+02  0.63612567768E+02  0.00000000000E+00 0.  1.
          2    1    1    2  501    0 -0.56134558679E+01 -0.20201330221E+02 -0.39203106655E+02  0.44457712502E+02  0.00000000000E+00 0.  1.
         -2    1    1    2    0  502  0.56134558679E+01  0.20201330221E+02 -0.16736691325E+02  0.26827625053E+02  0.00000000000E+00 0. -1.
</event>
<event>
 4    1  0.1768739E+004  0.2058430E+02  0.7546771E-02  0.1525283E+00
         21   -1    0    0  503  502  0.00000000000E+00  0.00000000000E+00  0.13830457715E+04  0.13830457715E+04  0.00000000000E+00 0.  1.
         21   -1    0    0  501  503 -0.00000000000E+00 -0.00000000000E+00 -0.34552014144E+00  0.34552014144E+00  0.00000000000E+00 0. -1.
          2    1    1    2  501    0  0.69042873595E+01  0.19391862352E+02  0.92420536910E+03  0.92443457193E+03  0.00000000000E+00 0.  1.
         -2    1    1    2    0  502 -0.69042873595E+01 -0.19391862352E+02  0.45849488230E+03  0.45895671975E+03  0.00000000000E+00 0. -1.
</event>
<event>
 4    1  0.1768739E+004  0.2067725E+02  0.7546771E-02  0.1523923E+00
         21   -1    0    0  503  502  0.00000000000E+00  0.00000000000E+00  0.29217114150E+03  0.29217114150E+03  0.00000000000E+00 0. -1.
         21   -1    0    0  501  503 -0.00000000000E+00 -0.00000000000E+00 -0.29753131351E+01  0.29753131351E+01  0.00000000000E+00 0.  1.
          2    1    1    2  501    0 -0.69298805932E+01 -0.19481415881E+02  0.39398879924E+02  0.44495174447E+02  0.00000000000E+00 0.  1.
         -2    1    1    2    0  502  0.69298805932E+01  0.19481415881E+02  0.24979694844E+03  0.25065128019E+03  0.00000000000E+00 0. -1.
</event>
<event>
 4    1  0.1768739E+004  0.4008113E+02  0.7546771E-02  0.1348011E+00
         21   -1    0    0  503  502  0.00000000000E+00  0.00000000000E+00  0.20575225196E+03  0.20575225196E+03  0.00000000000E+00 0. -1.
         21   -1    0    0  501  503 -0.00000000000E+00 -0.00000000000E+00 -0.15059483987E+02  0.15059483987E+02  0.00000000000E+00 0.  1.
          2    1    1    2  501    0 -0.35130151186E+02 -0.19296883519E+02  0.18733301520E+02  0.44242895720E+02  0.00000000000E+00 0.  1.
         -2    1    1    2    0  502  0.35130151186E+02  0.19296883519E+02  0.17195946645E+03  0.17656884022E+03  0.00000000000E+00 0. -1.
</event>
<event>
 4    1  0.1768739E+004  0.3006825E+02  0.7546771E-02  0.1419004E+00
         21   -1    0    0  501  502  0.00000000000E+00  0.00000000000E+00  0.13132004380E+03  0.13132004380E+03  0.00000000000E+00 0. -1.
         21   -1    0    0  502  503 -0.00000000000E+00 -0.00000000000E+00 -0.29439933624E+02  0.29439933624E+02  0.00000000000E+00 0.  1.
          2    1    1    2  501    0 -0.28089616846E+02  0.10727206935E+02  0.12129638236E+03  0.12496764348E+03  0.00000000000E+00 0. -1.
         -2    1    1    2    0  503  0.28089616846E+02 -0.10727206935E+02 -0.19416272188E+02  0.35792333940E+02  0.00000000000E+00 0.  1.
</event>
<event>
 4    1  0.1768739E+004  0.2344451E+02  0.7546771E-02  0.1486991E+00
         21   -1    0    0  501  502  0.00000000000E+00  0.00000000000E+00  0.34438408786E+02  0.34438408786E+02  0.00000000000E+00 0. -1.
         21   -1    0    0  502  503 -0.00000000000E+00 -0.00000000000E+00 -0.20090005875E+02  0.20090005875E+02  0.00000000000E+00 0.  1.
          2    1    1    2  501    0 -0.13151591423E+02  0.19408267547E+02  0.19535544423E+02  0.30516924845E+02  0.00000000000E+00 0. -1.
         -2    1    1    2    0  503  0.13151591423E+02 -0.19408267547E+02 -0.51871415122E+01  0.24011489816E+02  0.00000000000E+00 0.  1.
</event>
<event>
 4    1  0.1768739E+004  0.3973996E+02  0.7546771E-02  0.1350016E+00
         21   -1    0    0  501  502  0.00000000000E+00  0.00000000000E+00  0.17572020194E+03  0.17572020194E+03  0.00000000000E+00 0. -1.
         21   -1    0    0  502  503 -0.00000000000E+00 -0.00000000000E+00 -0.90767184090E+01  0.90767184090E+01  0.00000000000E+00 0.  1.
          2    1    1    2  501    0 -0.14740104910E+02 -0.36905196637E+02  0.92488575772E+02  0.10066479464E+03  0.00000000000E+00 0. -1.
         -2    1    1    2    0  503  0.14740104910E+02  0.36905196637E+02  0.74154907758E+02  0.84132125708E+02  0.00000000000E+00 0.  1.
</event>
<event>
 4    1  0.1768739E+004  0.2162146E+02  0.7546771E-02  0.1510574E+00
         21   -1    0    0  503  502  0.00000000000E+00  0.00000000000E+00  0.97046225447E+02  0.97046225447E+02  0.00000000000E+00 0.  1.
         21   -1    0    0  501  503 -0.00000000000E+00 -0.00000000000E+00 -0.54723947970E+01  0.54723947970E+01  0.00000000000E+00 0. -1.
          2    1    1    2  501    0  0.13779425723E+02 -0.16661775278E+02  0.28049837662E+02  0.35415825862E+02  0.00000000000E+00 0. -1.
         -2    1    1    2    0  502 -0.13779425723E+02  0.16661775278E+02  0.63523992988E+02  0.67102794382E+02  0.00000000000E+00 0.  1.
</event>
<event>
 4    1  0.1768739E+004  0.2400512E+02  0.7546771E-02  0.1480248E+00
         21   -1    0    0  501  502  0.00000000000E+00  0.00000000000E+00  0.17566919023E+03  0.17566919023E+03  0.00000000000E+00 0.  1.
         21   -1    0    0  502  503 -0.00000000000E+00 -0.00000000000E+00 -0.82411708986E+01  0.82411708986E+01  0.00000000000E+00 0. -1.
          2    1    1    2  501    0  0.78410484920E+01  0.22688403910E+02  0.15505862244E+03  0.15690577461E+03  0.00000000000E+00 0.  1.
         -2    1    1    2    0  503 -0.78410484920E+01 -0.22688403910E+02  0.12369396889E+02  0.27004586515E+02  0.00000000000E+00 0. -1.
</event>
<event>
 4    1  0.1768739E+004  0.3265127E+02  0.7546771E-02  0.1397873E+00
         21   -1    0    0  501  502  0.00000000000E+00  0.00000000000E+00  0.36835236246E+01  0.36835236246E+01  0.00000000000E+00 0. -1.
         21   -1    0    0  502  503 -0.00000000000E+00 -0.00000000000E+00 -0.56820771821E+03  0.56820771821E+03  0.00000000000E+00 0.  1.
          2    1    1    2  501    0 -0.12776799288E+02  0.30047612776E+02 -0.81970639573E+02  0.88234298239E+02  0.00000000000E+00 0. -1.
         -2    1    1    2    0  503  0.12776799288E+02 -0.30047612776E+02 -0.48255355502E+03  0.48365694360E+03  0.00000000000E+00 0.  1.
</event>
<event>
 4    1  0.1768739E+004  0.2621341E+02  0.7546771E-02  0.1455674E+00
         21   -1    0    0  503  502  0.00000000000E+00  0.00000000000E+00  0.18601558205E+02  0.18601558205E+02  0.00000000000E+00 0. -1.
         21   -1    0    0  501  503 -0.00000000000E+00 -0.00000000000E+00 -0.88436106641E+02  0.88436106641E+02  0.00000000000E+00 0.  1.
          2    1    1    2  501    0 -0.12856998334E+02 -0.22843831692E+02 -0.75756611152E+02  0.80163627573E+02  0.00000000000E+00 0.  1.
         -2    1    1    2    0  502  0.12856998334E+02  0.22843831692E+02  0.59220627157E+01  0.26874037273E+02  0.00000000000E+00 0. -1.
</event>
<event>
 4    1  0.1768739E+004  0.2605475E+02  0.7546771E-02  0.1457342E+00
         21   -1    0    0  501  502  0.00000000000E+00  0.00000000000E+00  0.18968079180E+02  0.18968079180E+02  0.00000000000E+00 0. -1.
         21   -1    0    0  502  503 -0.00000000000E+00 -0.00000000000E+00 -0.63503977234E+02  0.63503977234E+02  0.00000000000E+00 0.  1.
          2    1    1    2  501    0 -0.12315980362E+02  0.22960106479E+02  0.49736816693E+01  0.26525221416E+02  0.00000000000E+00 0. -1.
         -2    1    1    2    0  503  0.12315980362E+02 -0.22960106479E+02 -0.49509579724E+02  0.55946834998E+02  0.00000000000E+00 0.  1.
</event>
<event>
 4    1  0.1768739E+004  0.2806866E+02  0.7546771E-02  0.1437159E+00
         21   -1    0    0  501  502  0.00000000000E+00  0.00000000000E+00  0.10637236518E+03  0.10637236518E+03  0.00000000000E+00 0.  1.
         21   -1    0    0  502  503 -0.00000000000E+00 -0.00000000000E+00 -0.14087339213E+02  0.14087339213E+02  0.00000000000E+00 0. -1.
          2    1    1    2  501    0  0.22371879094E+02 -0.16951365309E+02  0.87619953984E+02  0.92006011196E+02  0.00000000000E+00 0.  1.
         -2    1    1    2    0  503 -0.22371879094E+02  0.16951365309E+02  0.46650719845E+01  0.28453693199E+02  0.00000000000E+00 0. -1.
</event>
<event>
 4    1  0.1768739E+004  0.2688334E+02  0.7546771E-02  0.1448783E+00
         21   -1    0    0  501  502  0.00000000000E+00  0.00000000000E+00  0.85300907334E+02  0.85300907334E+02  0.00000000000E+00 0.  1.
         21   -1    0    0  502  503 -0.00000000000E+00 -0.00000000000E+00 -0.85944026265E+01  0.85944026265E+01  0.00000000000E+00 0. -1.
          2    1    1    2  501    0  0.42458191740E+01 -0.26545944938E+02  0.43943948585E+02  0.51514898722E+02  0.00000000000E+00 0.  1.
         -2    1    1    2    0  503 -0.42458191740E+01  0.26545944938E+02  0.32762556123E+02  0.42380411239E+02  0.00000000000E+00 0. -1.
</event>
<event>
 4    1  0.1768739E+004  0.2874276E+02  0.7546771E-02  0.1430846E+00
         21   -1    0    0  503  502  0.00000000000E+00  0.00000000000E+00  0.10349366436E+02  0.10349366436E+02  0.00000000000E+00 0. -1.
         21   -1    0    0  501  503 -0.00000000000E+00 -0.00000000000E+00 -0.29612689671E+03  0.29612689671E+03  0.00000000000E+00 0.  1.
          2    1    1    2  501    0  0.27242400819E+02  0.91650194393E+01 -0.27385439222E+03  0.27535862819E+03  0.00000000000E+00 0.  1.
         -2    1    1    2    0  502 -0.27242400819E+02 -0.91650194393E+01 -0.11923138051E+02  0.31117634947E+02  0.00000000000E+00 0. -1.
</event>
<event>
 4    1  0.1768739E+004  0.4358879E+02  0.7546771E-02  0.1328648E+00
         21   -1    0    0  503  502  0.00000000000E+00  0.00000000000E+00  0.98837749691E+01  0.98837749691E+01  0.00000000000E+00 0. -1.
         21   -1    0    0  501  503 -0.00000000000E+00 -0.00000000000E+00 -0.27513961397E+03  0.27513961397E+03  0.00000000000E+00 0.  1.
          2    1    1    2  501    0 -0.17742403704E+02  0.39814441327E+02 -0.21085729783E+03  0.21531554211E+03  0.00000000000E+00 0.  1.
         -2    1    1    2    0  502  0.17742403704E+02 -0.39814441327E+02 -0.54398541166E+02  0.69707846821E+02  0.00000000000E+00 0. -1.
</event>
<event>
 4    1  0.1768739E+004  0.2222811E+02  0.7546771E-02  0.1502425E+00
         21   -1    0    0  503  502  0.00000000000E+00  0.00000000000E+00  0.10284799150E+01  0.10284799150E+01  0.00000000000E+00 0. -1.
         21   -1    0    0  501  503 -0.00000000000E+00 -0.00000000000E+00 -0.10616295574E+04  0.10616295574E+04  0.00000000000E+00 0.  1.
          2    1    1    2  501    0 -0.20354684846E+02  0.89317306262E+01 -0.92344145440E+03  0.92370894156E+03  0.00000000000E+00 0.  1.
         -2    1    1    2    0  502  0.20354684846E+02 -0.89317306262E+01 -0.13715962306E+03  0.13894909573E+03  0.00000000000E+00 0. -1.
</event>
<event>
 4    1  0.1768739E+004  0.2474607E+02  0.7546771E-02  0.1471664E+00
         21   -1    0    0  503  502  0.00000000000E+00  0.00000000000E+00  0.33219557865E+03  0.33219557865E+03  0.00000000000E+00 0.  1.
         21   -1    0    0  501  503 -0.00000000000E+00 -0.00000000000E+00 -0.44691976255E+01  0.44691976255E+01  0.00000000000E+00 0. -1.
          2    1    1    2  501    0 -0.19790609049E+02  0.14855968041E+02  0.34835220817E+02  0.42730090128E+02  0.00000000000E+00 0. -1.
         -2    1    1    2    0  502  0.19790609049E+02 -0.14855968041E+02  0.29289116021E+03  0.29393468615E+03  0.00000000000E+00 0.  1.
</event>
<event>
 4    1  0.1768739E+004  0.2372798E+02  0.7546771E-02  0.1483554E+00
         21   -1    0    0  503  502  0.00000000000E+00  0.00000000000E+00  0.24763093353E+03  0.24763093353E+03  0.00000000000E+00 0. -1.
         21   -1    0    0  501  503 -0.00000000000E+00 -0.00000000000E+00 -0.28875236129E+01  0.28875236129E+01  0.00000000000E+00 0.  1.
          2    1    1    2  501    0 -0.84553136147E+01 -0.22170358087E+02  0.64615419974E+02  0.68834363543E+02  0.00000000000E+00 0.  1.
         -2    1    1    2    0  502  0.84553136147E+01  0.22170358087E+02  0.18012798994E+03  0.18168409359E+03  0.00000000000E+00 0. -1.
</event>
<event>
 4    1  0.1768739E+004  0.2012599E+02  0.7546771E-02  0.1532118E+00
         21   -1    0    0  501  502  0.00000000000E+00  0.00000000000E+00  0.79692570516E+02  0.79692570516E+02  0.00000000000E+00 0.  1.
         21   -1    0    0  502  503 -0.00000000000E+00 -0.00000000000E+00 -0.52152860437E+01  0.52152860437E+01  0.00000000000E+00 0. -1.
          2    1    1    2  501    0  0.33518760329E+00  0.20123195652E+02  0.44007075321E+02  0.48390887906E+02  0.00000000000E+00 0. -1.
         -2    1    1    2    0  503 -0.33518760329E+00 -0.20123195652E+02  0.30470209152E+02  0.36516968655E+02  0.00000000000E+00 0.  1.
</event>
<event>
 4    1  0.1768739E+004  0.2438887E+02  0.7546771E-02  0.1475758E+00
         21   -1    0    0  501  502  0.00000000000E+00  0.00000000000E+00  0.44541899443E+02  0.44541899443E+02  0.00000000000E+00 0.  1.
         21   -1    0    0  502  503 -0.00000000000E+00 -0.00000000000E+00 -0.44188659074E+02  0.44188659074E+02  0.00000000000E+00 0. -1.
          2    1    1    2  501    0  0.38504042499E+01 -0.24083008917E+02  0.37236728726E+02  0.44512817228E+02  0.00000000000E+00 0.  1.
         -2    1    1    2    0  503 -0.38504042499E+01  0.24083008917E+02 -0.36883488357E+02  0.44217741289E+02  0.00000000000E+00 0. -1.
</event>
<event>
 4    1  0.1768739E+004  0.2560770E+02  0.7546771E-02  0.1462119E+00
         21   -1    0    0  503  502  0.00000000000E+00  0.00000000000E+00  0.40345372516E+02  0.40345372516E+02  0.00000000000E+00 0. -1.
         21   -1    0    0  501  503 -0.00000000000E+00 -0.00000000000E+00 -0.16476601266E+02  0.16476601266E+02  0.00000000000E+00 0.  1.
          2    1    1    2  501    0  0.20666533163E+02 -0.15121128467E+02  0.86284919641E+01  0.27022305465E+02  0.00000000000E+00 0. -1.
         -2    1    1    2    0  502 -0.20666533163E+02  0.15121128467E+02  0.15240279285E+02  0.29799668317E+02  0.00000000000E+00 0.  1.
</event>
<event>
 4    1  0.1768739E+004  0.2005182E+02  0.7546771E-02  0.1533245E+00
         21   -1    0    0  503  502  0.00000000000E+00  0.00000000000E+00  0.52233857363E+03  0.52233857363E+03  0.00000000000E+00 0.  1.
         21   -1    0    0  501  503 -0.00000000000E+00 -0.00000000000E+00 -0.31652391583E+01  0.31652391583E+01  0.00000000000E+00 0. -1.
          2    1    1    2  501    0 -0.14640908544E+02 -0.13701072318E+02  0.31006383978E+02  0.36925214055E+02  0.00000000000E+00 0. -1.
         -2    1    1    2    0  502  0.14640908544E+02  0.13701072318E+02  0.48816695049E+03  0.48857859873E+03  0.00000000000E+00 0.  1.
</event>
<event>
 4    1  0.1768739E+004  0.2154923E+02  0.7546771E-02  0.1511566E+00
         21   -1    0    0  503  502  0.00000000000E+00  0.00000000000E+00  0.78503294636E+01  0.78503294636E+01  0.00000000000E+00 0. -1.
         21   -1    0    0  501  503 -0.00000000000E+00 -0.00000000000E+00 -0.76223361404E+02  0.76223361404E+02  0.00000000000E+00 0.  1.
          2    1    1    2  501    0  0.19098040017E+02  0.99816908262E+01 -0.54079936353E+02  0.58215193895E+02  0.00000000000E+00 0.  1.
         -2    1    1    2    0  502 -0.19098040017E+02 -0.99816908262E+01 -0.14293095587E+02  0.25858496973E+02  0.00000000000E+00 0. -1.
</event>
<event>
 4    1  0.1768739E+004  0.2124915E+02  0.7546771E-02  0.1515737E+00
         21   -1    0    0  501  502  0.00000000000E+00  0.00000000000E+00  0.17158617328E+01  0.17158617328E+01  0.00000000000E+00 0. -1.
         21   -1    0    0  502  503 -0.00000000000E+00 -0.00000000000E+00 -0.44845193076E+03  0.44845193076E+03  0.00000000000E+00 0.  1.
          2    1    1    2  501    0 -0.17663724726E+02  0.11811826232E+02 -0.78681462773E+02  0.81500300578E+02  0.00000000000E+00 0. -1.
         -2    1    1    2    0  503  0.17663724726E+02 -0.11811826232E+02 -0.36805460625E+03  0.36866749191E+03  0.00000000000E+00 0.  1.
</event>
<event>
 4    1  0.1768739E+004  0.2053858E+02  0.7546771E-02  0.1525956E+00
         21   -1    0    0  503  502  0.00000000000E+00  0.00000000000E+00  0.15700984146E+02  0.15700984146E+02  0.00000000000E+00 0.  1.
         21   -1    0    0  501  503 -0.00000000000E+00 -0.00000000000E+00 -0.29776469492E+02  0.29776469492E+02  0.00000000000E+00 0. -1.
          2    1    1    2  501    0  0.15053372134E+02 -0.13972451781E+02 -0.14145945811E+02  0.24938749052E+02  0.00000000000E+00 0. -1.
         -2    1    1    2    0  502 -0.15053372134E+02  0.13972451781E+02  0.70460464803E-01  0.20538704586E+02  0.00000000000E+00 0.  1.
</event>
<event>
 4    1  0.1768739E+004  0.2405544E+02  0.7546771E-02  0.1479654E+00
         21   -1    0    0  501  502  0.00000000000E+00  0.00000000000E+00  0.46334650070E+01  0.46334650070E+01  0.00000000000E+00 0. -1.
         21   -1    0    0  502  503 -0.00000000000E+00 -0.00000000000E+00 -0.12862797412E+03  0.12862797412E+03  0.00000000000E+00 0.  1.
          2    1    1    2  501    0  0.12523143075E+02 -0.20538623227E+02 -0.50635605947E+02  0.56059153991E+02  0.00000000000E+00 0.  1.
         -2    1    1    2    0  503 -0.12523143075E+02  0.20538623227E+02 -0.73358903163E+02  0.77202285133E+02  0.00000000000E+00 0. -1.
</event>
<event>
 4    1  0.1768739E+004  0.2269241E+02  0.7546771E-02  0.1496397E+00
         21   -1    0    0  503  502  0.00000000000E+00  0.00000000000E+00  0.19080743815E+02  0.19080743815E+02  0.00000000000E+00 0.  1.
         21   -1    0    0  501  503 -0.00000000000E+00 -0.00000000000E+00 -0.41052231597E+02  0.41052231597E+02  0.00000000000E+00 0. -1.
          2    1    1    2  501    0  0.17580817396E+02 -0.14347836122E+02 -0.28584291457E+02  0.36496674641E+02  0.00000000000E+00 0. -1.
         -2    1    1    2    0  502 -0.17580817396E+02  0.14347836122E+02  0.66128036750E+01  0.23636300771E+02  0.00000000000E+00 0.  1.
</event>
<event>
 4    1  0.1768739E+004  0.2142265E+02  0.7546771E-02  0.1513315E+00
         21   -1    0    0  501  502  0.00000000000E+00  0.00000000000E+00  0.77826438315E+02  0.77826438315E+02  0.00000000000E+00 0. -1.
         21   -1    0    0  502  503 -0.00000000000E+00 -0.00000000000E+00 -0.63318080690E+01  0.63318080690E+01  0.00000000000E+00 0.  1.
          2    1    1    2  501    0 -0.18556197457E+02  0.10705019096E+02  0.24718407387E+02  0.32709777769E+02  0.00000000000E+00 0.  1.
         -2    1    1    2    0  503  0.18556197457E+02 -0.10705019096E+02  0.46776222859E+02  0.51448468616E+02  0.00000000000E+00 0. -1.
</event>
<event>
 4    1  0.1768739E+004  0.2986970E+02  0.7546771E-02  0.1420732E+00
         21   -1    0    0  501  502  0.00000000000E+00  0.00000000000E+00  0.67345276698E+02  0.67345276698E+02  0.00000000000E+00 0. -1.
         21   -1    0    0  502  503 -0.00000000000E+00 -0.00000000000E+00 -0.16460018742E+02  0.16460018742E+02  0.00000000000E+00 0.  1.
          2    1    1    2  501    0 -0.29337412560E+02 -0.56138657539E+01  0.43952622414E+02  0.53141624754E+02  0.00000000000E+00 0. -1.
         -2    1    1    2    0  503  0.29337412560E+02  0.56138657539E+01  0.69326355426E+01  0.30663670687E+02  0.00000000000E+00 0.  1.
</event>
<event>
 4    1  0.1768739E+004  0.2030012E+02  0.7546771E-02  0.1529496E+00
         21   -1    0    0  501  502  0.00000000000E+00  0.00000000000E+00  0.67013531395E+01  0.67013531395E+01  0.00000000000E+00 0.  1.
         21   -1    0    0  502  503 -0.00000000000E+00 -0.00000000000E+00 -0.73442892385E+02  0.73442892385E+02  0.00000000000E+00 0. -1.
          2    1    1    2  501    0 -0.13579500188E+02  0.15089466710E+02 -0.17207606733E+02  0.26611962731E+02  0.00000000000E+00 0.  1.
         -2    1    1    2    0  503  0.13579500188E+02 -0.15089466710E+02 -0.49533932512E+02  0.53532282793E+02  0.00000000000E+00 0. -1.
</event>
<event>
 4    1  0.1768739E+004  0.2182699E+02  0.7546771E-02  0.1507777E+00
         21   -1    0    0  501  502  0.00000000000E+00  0.00000000000E+00  0.11894383879E+01  0.11894383879E+01  0.00000000000E+00 0. -1.
         21   -1    0    0  502  503 -0.00000000000E+00 -0.00000000000E+00 -0.40308983758E+03  0.40308983758E+03  0.00000000000E+00 0.  1.
          2    1    1    2  501    0 -0.42197681083E-01  0.21826946220E+02 -0.18487236424E+03  0.18615640849E+03  0.00000000000E+00 0.  1.
         -2    1    1    2    0  503  0.42197681083E-01 -0.21826946220E+02 -0.21702803495E+03  0.21812286748E+03  0.00000000000E+00 0. -1.
</event>
<event>
 4    1  0.1768739E+004  0.2023597E+02  0.7546771E-02  0.1530459E+00
         21   -1    0    0  501  502  0.00000000000E+00  0.00000000000E+00  0.32351046227E+02  0.32351046227E+02  0.00000000000E+00 0.  1.
         21   -1    0    0  502  503 -0.00000000000E+00 -0.00000000000E+00 -0.16866090204E+02  0.16866090204E+02  0.00000000000E+00 0. -1.
          2    1    1    2  501    0 -0.18725420402E+02 -0.76715758242E+01  0.20034682861E+02  0.28476006781E+02  0.00000000000E+00 0.  1.
         -2    1    1    2    0  503  0.18725420402E+02  0.76715758242E+01 -0.45497268387E+01  0.20741129650E+02  0.00000000000E+00 0. -1.
</event>
<event>
 4    1  0.1768739E+004  0.2306941E+02  0.7546771E-02  0.1491628E+00
         21   -1    0    0  501  502  0.00000000000E+00  0.00000000000E+00  0.13876387833E+03  0.13876387833E+03  0.00000000000E+00 0.  1.
         21   -1    0    0  502  503 -0.00000000000E+00 -0.00000000000E+00 -0.15944077425E+02  0.15944077425E+02  0.00000000000E+00 0. -1.
          2    1    1    2  501    0  0.12912207644E+02 -0.19117342892E+02  0.12882132673E+03  0.13087066947E+03  0.00000000000E+00 0.  1.
         -2    1    1    2    0  503 -0.12912207644E+02  0.19117342892E+02 -0.60015258246E+01  0.23837286291E+02  0.00000000000E+00 0. -1.
</event>
<event>
 4    1  0.1768739E+004  0.2019031E+02  0.7546771E-02  0.1531146E+00
         21   -1    0    0  501  502  0.00000000000E+00  0.00000000000E+00  0.55849445104E+01  0.55849445104E+01  0.00000000000E+00 0. -1.
         21   -1    0    0  502  503 -0.00000000000E+00 -0.00000000000E+00 -0.13070901719E+03  0.13070901719E+03  0.00000000000E+00 0.  1.
          2    1    1    2  501    0  0.12587138726E+02 -0.15786461939E+02 -0.17277381935E+02  0.26573602849E+02  0.00000000000E+00 0. -1.
         -2    1    1    2    0  503 -0.12587138726E+02  0.15786461939E+02 -0.10784669075E+03  0.10972035885E+03  0.00000000000E+00 0.  1.
</event>
<event>
 4    1  0.1768739E+004  0.2015633E+02  0.7546771E-02  0.1531659E+00
         21   -1    0    0  501  502  0.00000000000E+00  0.00000000000E+00  0.32903674936E+01  0.32903674936E+01  0.00000000000E+00 0. -1.
         21   -1    0    0  502  503 -0.00000000000E+00 -0.00000000000E+00 -0.14646890074E+03  0.14646890074E+03  0.00000000000E+00 0.  1.
          2    1    1    2  501    0 -0.16290861715E+02 -0.11869514967E+02 -0.10125799627E+03  0.10324465782E+03  0.00000000000E+00 0. -1.
         -2    1    1    2    0  503  0.16290861715E+02  0.11869514967E+02 -0.41920536975E+02  0.46514610407E+02  0.00000000000E+00 0.  1.
</event>
<event>
 4    1  0.1768739E+004  0.2316600E+02  0.7546771E-02  0.1490424E+00
         21   -1    0    0  503  502  0.00000000000E+00  0.00000000000E+00  0.23238635863E+01  0.23238635863E+01  0.00000000000E+00 0. -1.
         21   -1    0    0  501  503 -0.00000000000E+00 -0.00000000000E+00 -0.37670408562E+03  0.37670408562E+03  0.00000000000E+00 0.  1.
          2    1    1    2  501    0  0.17558649536E+02 -0.15111505749E+02 -0.30507884074E+03  0.30595712583E+03  0.00000000000E+00 0.  1.
         -2    1    1    2    0  502 -0.17558649536E+02  0.15111505749E+02 -0.69301381292E+02  0.73070823374E+02  0.00000000000E+00 0. -1.
</event>
<event>
 4    1  0.1768739E+004  0.2175261E+02  0.7546771E-02  0.1508785E+00
         21   -1    0    0  501  502  0.00000000000E+00  0.00000000000E+00  0.34489808253E+01  0.34489808253E+01  0.00000000000E+00 0. -1.
         21   -1    0    0  502  503 -0.00000000000E+00 -0.00000000000E+00 -0.24270353903E+03  0.24270353903E+03  0.00000000000E+00 0.  1.
          2    1    1    2  501    0 -0.22676904191E+01 -0.21634083806E+02 -0.38478092467E+02  0.44201126703E+02  0.00000000000E+00 0. -1.
         -2    1    1    2    0  503  0.22676904191E+01  0.21634083806E+02 -0.20077646574E+03  0.20195139316E+03  0.00000000000E+00 0.  1.
</event>
<event>
 4    1  0.1768739E+004  0.2820436E+02  0.7546771E-02  0.1435871E+00
         21   -1    0    0  503  502  0.00000000000E+00  0.00000000000E+00  0.81794406018E+03  0.81794406018E+03  0.00000000000E+00 0. -1.
         21   -1    0    0  501  503 -0.00000000000E+00 -0.00000000000E+00 -0.99799835746E+00  0.99799835746E+00  0.00000000000E+00 0.  1.
          2    1    1    2  501    0 -0.27864348562E+02 -0.43662608551E+01  0.47386792741E+03  0.47470653964E+03  0.00000000000E+00 0. -1.
         -2    1    1    2    0  502  0.27864348562E+02  0.43662608551E+01  0.34307813441E+03  0.34423551889E+03  0.00000000000E+00 0.  1.
</event>
<event>
 4    1  0.1768739E+004  0.2729502E+02  0.7546771E-02  0.1444667E+00
         21   -1    0    0  503  502  0.00000000000E+00  0.00000000000E+00  0.21462044764E+02  0.21462044764E+02  0.00000000000E+00 0. -1.
         21   -1    0    0  501  503 -0.00000000000E+00 -0.00000000000E+00 -0.36511285841E+02  0.36511285841E+02  0.00000000000E+00 0.  1.
          2    1    1    2  501    0 -0.26537720436E+02  0.63849475335E+01 -0.10921299023E+01  0.27316861252E+02  0.00000000000E+00 0. -1.
         -2    1    1    2    0  502  0.26537720436E+02 -0.63849475335E+01 -0.13957111175E+02  0.30656469354E+02  0.00000000000E+00 0.  1.
</event>
<event>
 4    1  0.1768739E+004  0.2017194E+02  0.7546771E-02  0.1531423E+00
         21   -1    0    0  503  502  0.00000000000E+00  0.00000000000E+00  0.16509874431E+02  0.16509874431E+02  0.00000000000E+00 0. -1.
         21   -1    0    0  501  503 -0.00000000000E+00 -0.00000000000E+00 -0.47106196539E+02  0.47106196539E+02  0.00000000000E+00 0.  1.
          2    1    1    2  501    0  0.84123443525E+01  0.18334105969E+02 -0.37261678913E+02  0.42371449050E+02  0.00000000000E+00 0.  1.
         -2    1    1    2    0  502 -0.84123443525E+01 -0.18334105969E+02  0.66653568053E+01  0.21244621920E+02  0.00000000000E+00 0. -1.
</event>
<event>
 4    1  0.1768739E+004  0.2224515E+02  0.7546771E-02  0.1502201E+00
         21   -1    0    0  501  502  0.00000000000E+00  0.00000000000E+00  0.14795544392E+03  0.14795544392E+03  0.00000000000E+00 0. -1.
         21   -1    0    0  502  503 -0.00000000000E+00 -0.00000000000E+00 -0.37555840205E+02  0.37555840205E+02  0.00000000000E+00 0.  1.
          2    1    1    2  501    0  0.15920113796E+02  0.15536947592E+02  0.14372893648E+03  0.14544020745E+03  0.00000000000E+00 0. -1.
         -2    1    1    2    0  503 -0.15920113796E+02 -0.15536947592E+02 -0.33329332758E+02  0.40071076675E+02  0.00000000000E+00 0.  1.
</event>
<event>
 4    1  0.1768739E+004  0.2294451E+02  0.7546771E-02  0.1493196E+00
         21   -1    0    0  501  502  0.00000000000E+00  0.00000000000E+00  0.33104320513E+01  0.33104320513E+01  0.00000000000E+00 0.  1.
         21   -1    0    0  502  503 -0.00000000000E+00 -0.00000000000E+00 -0.16055026723E+03  0.16055026723E+03  0.00000000000E+00 0. -1.
          2    1    1    2  501    0  0.17243548688E+02 -0.15136400638E+02 -0.86598374280E+02  0.89586433256E+02  0.00000000000E+00 0. -1.
         -2    1    1    2    0  503 -0.17243548688E+02  0.15136400638E+02 -0.70641460901E+02  0.74274266027E+02  0.00000000000E+00 0.  1.
</event>
<event>
 4    1  0.1768739E+004  0.4414813E+02  0.7546771E-02  0.1325754E+00
         21   -1    0    0  503  502  0.00000000000E+00  0.00000000000E+00  0.42149992831E+01  0.42149992831E+01  0.00000000000E+00 0. -1.
         21   -1    0    0  501  503 -0.00000000000E+00 -0.00000000000E+00 -0.48878862153E+03  0.48878862153E+03  0.00000000000E+00 0.  1.
          2    1    1    2  501    0  0.27009697459E+02 -0.34921826337E+02 -0.29955135777E+03  0.30278717551E+03  0.00000000000E+00 0.  1.
         -2    1    1    2    0  502 -0.27009697459E+02  0.34921826337E+02 -0.18502226448E+03  0.19021644531E+03  0.00000000000E+00 0. -1.
</event>
<event>
 4    1  0.1768739E+004  0.4359354E+02  0.7546771E-02  0.1328624E+00
         21   -1    0    0  503  502  0.00000000000E+00  0.00000000000E+00  0.34200561556E+02  0.34200561556E+02  0.00000000000E+00 0. -1.
         21   -1    0    0  501  503 -0.00000000000E+00 -0.00000000000E+00 -0.56256532488E+02  0.56256532488E+02  0.00000000000E+00 0.  1.
          2    1    1    2  501    0  0.32839380701E+02 -0.28670052734E+02 -0.60179528893E+01  0.44006960876E+02  0.00000000000E+00 0. -1.
         -2    1    1    2    0  502 -0.32839380701E+02  0.28670052734E+02 -0.16038018043E+02  0.46450133168E+02  0.00000000000E+00 0.  1.
</event>
<event>
 4    1  0.1768739E+004  0.2254315E+02  0.7546771E-02  0.1498316E+00
         21   -1    0    0  503  502  0.00000000000E+00  0.00000000000E+00  0.18006072865E+02  0.18006072865E+02  0.00000000000E+00 0. -1.
         21   -1    0    0  501  503 -0.00000000000E+00 -0.00000000000E+00 -0.59019388763E+02  0.59019388763E+02  0.00000000000E+00 0.  1.
          2    1    1    2  501    0 -0.22495335833E+02  0.14674710305E+01 -0.48326434778E+02  0.53325771479E+02  0.00000000000E+00 0.  1.
         -2    1    1    2    0  502  0.22495335833E+02 -0.14674710305E+01  0.73131188795E+01  0.23699690150E+02  0.00000000000E+00 0. -1.
</event>
<event>
 4    1  0.1768739E+004  0.2532046E+02  0.7546771E-02  0.1465250E+00
         21   -1    0    0  501  502  0.00000000000E+00  0.00000000000E+00  0.11948787172E+03  0.11948787172E+03  0.00000000000E+00 0. -1.
         21   -1    0    0  502  503 -0.00000000000E+00 -0.00000000000E+00 -0.11251103203E+02  0.11251103203E+02  0.00000000000E+00 0.  1.
          2    1    1    2  501    0 -0.36503233023E+01 -0.25055958499E+02  0.10139743764E+03  0.10451108207E+03  0.00000000000E+00 0. -1.
         -2    1    1    2    0  503  0.36503233023E+01  0.25055958499E+02  0.68393308799E+01  0.26227892851E+02  0.00000000000E+00 0.  1.
</event>
<event>
 4    1  0.1768739E+004  0.2342970E+02  0.7546771E-02  0.1487172E+00
         21   -1    0    0  501  502  0.00000000000E+00  0.00000000000E+00  0.20975226735E+02  0.20975226735E+02  0.00000000000E+00 0.  1.
         21   -1    0    0  502  503 -0.00000000000E+00 -0.00000000000E+00 -0.10925949692E+03  0.10925949692E+03  0.00000000000E+00 0. -1.
          2    1    1    2  501    0 -0.28658039431E+01 -0.23253770799E+02  0.12643259732E+02  0.26623348874E+02  0.00000000000E+00 0.  1.
         -2    1    1    2    0  503  0.28658039431E+01  0.23253770799E+02 -0.10092752992E+03  0.10361137478E+03  0.00000000000E+00 0. -1.
</event>
<event>
 4    1  0.1768739E+004  0.2430395E+02  0.7546771E-02  0.1476743E+00
         21   -1    0    0  503  502  0.00000000000E+00  0.00000000000E+00  0.15504136005E+03  0.15504136005E+03  0.00000000000E+00 0.  1.
         21   -1    0    0  501  503 -0.00000000000E+00 -0.00000000000E+00 -0.68702110033E+01  0.68702110033E+01  0.00000000000E+00 0. -1.
          2    1    1    2  501    0  0.74096984707E+01  0.23146881510E+02  0.20053659608E+02  0.31509221169E+02  0.00000000000E+00 0. -1.
         -2    1    1    2    0  502 -0.74096984707E+01 -0.23146881510E+02  0.12811748944E+03  0.13040234988E+03  0.00000000000E+00 0.  1.
</event>
<event>
 4    1  0.1768739E+004  0.2128331E+02  0.7546771E-02  0.1515258E+00
         21   -1    0    0  503  502  0.00000000000E+00  0.00000000000E+00  0.17663870555E+03  0.17663870555E+03  0.00000000000E+00 0. -1.
         21   -1    0    0  501  503 -0.00000000000E+00 -0.00000000000E+00 -0.26459313733E+01  0.26459313733E+01  0.00000000000E+00 0.  1.
          2    1    1    2  501    0  0.20224956686E+02  0.66279884762E+01  0.71264402922E+02  0.74374688087E+02  0.00000000000E+00 0.  1.
         -2    1    1    2    0  502 -0.20224956686E+02 -0.66279884762E+01  0.10272837125E+03  0.10490994883E+03  0.00000000000E+00 0. -1.
</event>
<event>
 4    1  0.1768739E+004  0.2178814E+02  0.7546771E-02  0.1508303E+00
         21   -1    0    0  501  502  0.00000000000E+00  0.00000000000E+00  0.27858504580E+02  0.27858504580E+02  0.00000000000E+00 0.  1.
         21   -1    0    0  502  503 -0.00000000000E+00 -0.00000000000E+00 -0.22557493496E+02  0.22557493496E+02  0.00000000000E+00 0. -1.
          2    1    1    2  501    0 -0.11024408066E+02 -0.18793233050E+02  0.15116981872E+02  0.26518791876E+02  0.00000000000E+00 0.  1.
         -2    1    1    2    0  503  0.11024408066E+02  0.18793233050E+02 -0.98159707879E+01  0.23897206200E+02  0.00000000000E+00 0. -1.
</event>
<event>
 4    1  0.1768739E+004  0.3451785E+02  0.7546771E-02  0.1383985E+00
         21   -1    0    0  501  502  0.00000000000E+00  0.00000000000E+00  0.54074975945E+02  0.54074975945E+02  0.00000000000E+00 0. -1.
         21   -1    0    0  502  503 -0.00000000000E+00 -0.00000000000E+00 -0.49078056546E+02  0.49078056546E+02  0.00000000000E+00 0.  1.
          2    1    1    2  501    0 -0.16100998152E+01 -0.34480280700E+02  0.40784910703E+02  0.53431181155E+02  0.00000000000E+00 0. -1.
         -2    1    1    2    0  503  0.16100998152E+01  0.34480280700E+02 -0.35787991304E+02  0.49721851335E+02  0.00000000000E+00 0.  1.
</event>
<event>
 4    1  0.1768739E+004  0.2556015E+02  0.7546771E-02  0.1462634E+00
         21   -1    0    0  501  502  0.00000000000E+00  0.00000000000E+00  0.84872228739E+02  0.84872228739E+02  0.00000000000E+00 0. -1.
         21   -1    0    0  502  503 -0.00000000000E+00 -0.00000000000E+00 -0.79668690228E+01  0.79668690228E+01  0.00000000000E+00 0.  1.
          2    1    1    2  501    0 -0.20418372698E+02  0.15375664891E+02  0.46985037519E+02  0.53487519714E+02  0.00000000000E+00 0. -1.
         -2    1    1    2    0  503  0.20418372698E+02 -0.15375664891E+02  0.29920322196E+02  0.39351578047E+02  0.00000000000E+00 0.  1.
</event>
<event>
 4    1  0.1768739E+004  0.2163880E+02  0.7546771E-02  0.1510337E+00
         21   -1    0    0  503  502  0.00000000000E+00  0.00000000000E+00  0.60847252069E+03  0.60847252069E+03  0.00000000000E+00 0.  1.
         21   -1    0    0  501  503 -0.00000000000E+00 -0.00000000000E+00 -0.25911714752E+01  0.25911714752E+01  0.00000000000E+00 0. -1.
          2    1    1    2  501    0  0.18432817992E+02 -0.11334411257E+02  0.46763813864E+02  0.51527584310E+02  0.00000000000E+00 0. -1.
         -2    1    1    2    0  502 -0.18432817992E+02  0.11334411257E+02  0.55911753535E+03  0.55953610786E+03  0.00000000000E+00 0.  1.
</event>
<event>
 4    1  0.1768739E+004  0.2355997E+02  0.7546771E-02  0.1485584E+00
         21   -1    0    0  503  502  0.00000000000E+00  0.00000000000E+00  0.41764058913E+02  0.41764058913E+02  0.00000000000E+00 0. -1.
         21   -1    0    0  501  503 -0.00000000000E+00 -0.00000000000E+00 -0.15809791880E+02  0.15809791880E+02  0.00000000000E+00 0.  1.
          2    1    1    2  501    0  0.15833798511E+02 -0.17446006325E+02  0.24468106999E+02  0.33967051272E+02  0.00000000000E+00 0. -1.
         -2    1    1    2    0  502 -0.15833798511E+02  0.17446006325E+02  0.14861600334E+01  0.23606799521E+02  0.00000000000E+00 0.  1.
</event>
<event>
 4    1  0.1768739E+004  0.2754636E+02  0.7546771E-02  0.1442196E+00
         21   -1    0    0  503  502  0.00000000000E+00  0.00000000000E+00  0.17827241124E+02  0.17827241124E+02  0.00000000000E+00 0.  1.
         21   -1    0    0  501  503 -0.00000000000E+00 -0.00000000000E+00 -0.70389191753E+02  0.70389191753E+02  0.00000000000E+00 0. -1.
          2    1    1    2  501    0  0.19725228500E+02 -0.19228029404E+02 -0.54013170607E+02  0.60631875719E+02  0.00000000000E+00 0. -1.
         -2    1    1    2    0  502 -0.19725228500E+02  0.19228029404E+02  0.14512199785E+01  0.27584557158E+02  0.00000000000E+00 0.  1.
</event>
<event>
 4    1  0.1768739E+004  0.2164828E+02  0.7546771E-02  0.1510207E+00
         21   -1    0    0  503  502  0.00000000000E+00  0.00000000000E+00  0.14402804714E+03  0.14402804714E+03  0.00000000000E+00 0. -1.
         21   -1    0    0  501  503 -0.00000000000E+00 -0.00000000000E+00 -0.39116294348E+01  0.39116294348E+01  0.00000000000E+00 0.  1.
          2    1    1    2  501    0 -0.17052993983E+02 -0.13335786809E+02  0.39725511729E+02  0.45241176993E+02  0.00000000000E+00 0.  1.
         -2    1    1    2    0  502  0.17052993983E+02  0.13335786809E+02  0.10039090598E+03  0.10269849958E+03  0.00000000000E+00 0. -1.
</event>
<event>
 4    1  0.1768739E+004  0.2375001E+02  0.7546771E-02  0.1483289E+00
         21   -1    0    0  501  502  0.00000000000E+00  0.00000000000E+00  0.45538650869E+02  0.45538650869E+02  0.00000000000E+00 0.  1.
         21   -1    0    0  502  503 -0.00000000000E+00 -0.00000000000E+00 -0.24017235187E+02  0.24017235187E+02  0.00000000000E+00 0. -1.
          2    1    1    2  501    0 -0.20467980073E+02  0.12046775283E+02  0.34962447419E+02  0.42266248148E+02  0.00000000000E+00 0.  1.
         -2    1    1    2    0  503  0.20467980073E+02 -0.12046775283E+02 -0.13441031737E+02  0.27289637908E+02  0.00000000000E+00 0. -1.
</event>
<event>
 4    1  0.1768739E+004  0.2412458E+02  0.7546771E-02  0.1478840E+00
         21   -1    0    0  501  502  0.00000000000E+00  0.00000000000E+00  0.85423646799E+01  0.85423646799E+01  0.00000000000E+00 0. -1.
         21   -1    0    0  502  503 -0.00000000000E+00 -0.00000000000E+00 -0.33839063522E+03  0.33839063522E+03  0.00000000000E+00 0.  1.
          2    1    1    2  501    0  0.20579037182E+02  0.12589618291E+02 -0.99006585535E+01  0.26077160502E+02  0.00000000000E+00 0. -1.
         -2    1    1    2    0  503 -0.20579037182E+02 -0.12589618291E+02 -0.31994761198E+03  0.32085583940E+03  0.00000000000E+00 0.  1.
</event>
<event>
 4    1  0.1768739E+004  0.2179388E+02  0.7546771E-02  0.1508225E+00
         21   -1    0    0  503  502  0.00000000000E+00  0.00000000000E+00  0.33221682228E+03  0.33221682228E+03  0.00000000000E+00 0. -1.
         21   -1    0    0  501  503 -0.00000000000E+00 -0.00000000000E+00 -0.14624941455E+01  0.14624941455E+01  0.00000000000E+00 0.  1.
          2    1    1    2  501    0  0.34052197550E+00  0.21791222349E+02  0.14039719713E+03  0.14207866233E+03  0.00000000000E+00 0.  1.
         -2    1    1    2    0  502 -0.34052197550E+00 -0.21791222349E+02  0.19035713100E+03  0.19160065410E+03  0.00000000000E+00 0. -1.
</event>
<event>
 4    1  0.1768739E+004  0.2820088E+02  0.7546771E-02  0.1435904E+00
         21   -1    0    0  503  502  0.00000000000E+00  0.00000000000E+00  0.23717780290E+03  0.23717780290E+03  0.00000000000E+00 0.  1.
         21   -1    0    0  501  503 -0.00000000000E+00 -0.00000000000E+00 -0.34314247001E+01  0.34314247001E+01  0.00000000000E+00 0. -1.
          2    1    1    2  501    0 -0.18630435493E+02 -0.21170651015E+02  0.98701608862E+02  0.10265133795E+03  0.00000000000E+00 0.  1.
         -2    1    1    2    0  502  0.18630435493E+02  0.21170651015E+02  0.13504476934E+03  0.13795788965E+03  0.00000000000E+00 0. -1.
</event>
<event>
 4    1  0.1768739E+004  0.2370134E+02  0.7546771E-02  0.1483874E+00
         21   -1    0    0  501  502  0.00000000000E+00  0.00000000000E+00  0.20515338412E+02  0.20515338412E+02  0.00000000000E+00 0. -1.
         21   -1    0    0  502  503 -0.00000000000E+00 -0.00000000000E+00 -0.44187692274E+02  0.44187692274E+02  0.00000000000E+00 0.  1.
          2    1    1    2  501    0 -0.69159671771E+01  0.22669866151E+02  0.81150972064E+01  0.25052110409E+02  0.00000000000E+00 0. -1.
         -2    1    1    2    0  503  0.69159671771E+01 -0.22669866151E+02 -0.31787451069E+02  0.39650920276E+02  0.00000000000E+00 0.  1.
</event>
<event>
 4    1  0.1768739E+004  0.2528485E+02  0.7546771E-02  0.1465642E+00
         21   -1    0    0  501  502  0.00000000000E+00  0.00000000000E+00  0.43297153342E+02  0.43297153342E+02  0.00000000000E+00 0.  1.
         21   -1    0    0  502  503 -0.00000000000E+00 -0.00000000000E+00 -0.17115865607E+02  0.17115865607E+02  0.00000000000E+00 0. -1.
          2    1    1    2  501    0 -0.49240301402E-01 -0.25284797172E+02  0.18981288032E+01  0.25355991118E+02  0.00000000000E+00 0.  1.
         -2    1    1    2    0  503  0.49240301402E-01  0.25284797172E+02  0.24283158931E+02  0.35057027830E+02  0.00000000000E+00 0. -1.
</event>
<event>
 4    1  0.1768739E+004  0.2091634E+02  0.7546771E-02  0.1520463E+00
         21   -1    0    0  501  502  0.00000000000E+00  0.00000000000E+00  0.51881809976E+01  0.51881809976E+01  0.00000000000E+00 0. -1.
         21   -1    0    0  502  503 -0.00000000000E+00 -0.00000000000E+00 -0.84325118068E+02  0.84325118068E+02  0.00000000000E+00 0.  1.
          2    1    1    2  501    0 -0.17697260639E+02 -0.11149009883E+02 -0.39519689195E+02  0.44713524683E+02  0.00000000000E+00 0.  1.
         -2    1    1    2    0  503  0.17697260639E+02  0.11149009883E+02 -0.39617247875E+02  0.44799774382E+02  0.00000000000E+00 0. -1.
</event>
<event>
 4    1  0.1768739E+004  0.2060160E+02  0.7546771E-02  0.1525030E+00
         21   -1    0    0  503  502  0.00000000000E+00  0.00000000000E+00  0.19584497575E+03  0.19584497575E+03  0.00000000000E+00 0.  1.
         21   -1    0    0  501  503 -0.00000000000E+00 -0.00000000000E+00 -0.15379009710E+02  0.15379009710E+02  0.00000000000E+00 0. -1.
          2    1    1    2  501    0 -0.56869605924E+01  0.19801121361E+02 -0.76553622864E+01  0.21977954856E+02  0.00000000000E+00 0. -1.
         -2    1    1    2    0  502  0.56869605924E+01 -0.19801121361E+02  0.18812132833E+03  0.18924603061E+03  0.00000000000E+00 0.  1.
</event>
<event>
 4    1  0.1768739E+004  0.2485646E+02  0.7546771E-02  0.1470416E+00
         21   -1    0    0  501  502  0.00000000000E+00  0.00000000000E+00  0.31562747432E+02  0.31562747432E+02  0.00000000000E+00 0. -1.
         21   -1    0    0  502  503 -0.00000000000E+00 -0.00000000000E+00 -0.20902780427E+02  0.20902780427E+02  0.00000000000E+00 0.  1.
          2    1    1    2  501    0  0.19841731845E+02 -0.14971623465E+02  0.11941321260E+02  0.27576058188E+02  0.00000000000E+00 0.  1.
         -2    1    1    2    0  503 -0.19841731845E+02  0.14971623465E+02 -0.12813542546E+01  0.24889469671E+02  0.00000000000E+00 0. -1.
</event>
<event>
 4    1  0.1768739E+004  0.3151527E+02  0.7546771E-02  0.1406870E+00
         21   -1    0    0  501  502  0.00000000000E+00  0.00000000000E+00  0.10154128547E+02  0.10154128547E+02  0.00000000000E+00 0. -1.
         21   -1    0    0  502  503 -0.00000000000E+00 -0.00000000000E+00 -0.10372443465E+04  0.10372443465E+04  0.00000000000E+00 0.  1.
          2    1    1    2  501    0  0.31218263014E+02  0.43164912153E+01 -0.15149985357E+02  0.34967614994E+02  0.00000000000E+00 0. -1.
         -2    1    1    2    0  503 -0.31218263014E+02 -0.43164912153E+01 -0.10119402326E+04  0.10124308601E+04  0.00000000000E+00 0.  1.
</event>
<event>
 4    1  0.1768739E+004  0.2503555E+02  0.7546771E-02  0.1468406E+00
         21   -1    0    0  503  502  0.00000000000E+00  0.00000000000E+00  0.36675099896E+01  0.36675099896E+01  0.00000000000E+00 0. -1.
         21   -1    0    0  501  503 -0.00000000000E+00 -0.00000000000E+00 -0.17133746118E+03  0.17133746118E+03  0.00000000000E+00 0.  1.
          2    1    1    2  501    0 -0.24050436052E+02 -0.69537935272E+01 -0.88254679565E+02  0.91736945577E+02  0.00000000000E+00 0.  1.
         -2    1    1    2    0  502  0.24050436052E+02  0.69537935272E+01 -0.79415271620E+02  0.83268025587E+02  0.00000000000E+00 0. -1.
</event>
<event>
 4    1  0.1768739E+004  0.2235205E+02  0.7546771E-02  0.1500799E+00
         21   -1    0    0  501  502  0.00000000000E+00  0.00000000000E+00  0.63837939426E+03  0.63837939426E+03  0.00000000000E+00 0. -1.
         21   -1    0    0  502  503 -0.00000000000E+00 -0.00000000000E+00 -0.62560565066E+01  0.62560565066E+01  0.00000000000E+00 0.  1.
          2    1    1    2  501    0  0.92870040882E+01 -0.20331392330E+02  0.61754517690E+03  0.61794956062E+03  0.00000000000E+00 0. -1.
         -2    1    1    2    0  503 -0.92870040882E+01  0.20331392330E+02  0.14578160853E+02  0.26685890146E+02  0.00000000000E+00 0.  1.
</event>
<event>
 4    1  0.1768739E+004  0.2128420E+02  0.7546771E-02  0.1515246E+00
         21   -1    0    0  501  502  0.00000000000E+00  0.00000000000E+00  0.24690886471E+02  0.24690886471E+02  0.00000000000E+00 0.  1.
         21   -1    0    0  502  503 -0.00000000000E+00 -0.00000000000E+00 -0.29964940822E+02  0.29964940822E+02  0.00000000000E+00 0. -1.
          2    1    1    2  501    0 -0.69440013903E+01 -0.20119595087E+02  0.14378839486E+02  0.25685955048E+02  0.00000000000E+00 0.  1.
         -2    1    1    2    0  503  0.69440013903E+01  0.20119595087E+02 -0.19652893837E+02  0.28969872246E+02  0.00000000000E+00 0. -1.
</event>
<event>
 4    1  0.1768739E+004  0.2670475E+02  0.7546771E-02  0.1450597E+00
         21   -1    0    0  501  502  0.00000000000E+00  0.00000000000E+00  0.17366804391E+01  0.17366804391E+01  0.00000000000E+00 0.  1.
         21   -1    0    0  502  503 -0.00000000000E+00 -0.00000000000E+00 -0.47124871430E+03  0.47124871430E+03  0.00000000000E+00 0. -1.
          2    1    1    2  501    0 -0.26516154455E+02 -0.31681528125E+01 -0.14994070910E+03  0.15230022943E+03  0.00000000000E+00 0.  1.
         -2    1    1    2    0  503  0.26516154455E+02  0.31681528125E+01 -0.31957132477E+03  0.32068516531E+03  0.00000000000E+00 0. -1.
</event>
<event>
 4    1  0.1768739E+004  0.2229617E+02  0.7546771E-02  0.1501530E+00
         21   -1    0    0  503  502  0.00000000000E+00  0.00000000000E+00  0.16852674485E+03  0.16852674485E+03  0.00000000000E+00 0.  1.
         21   -1    0    0  501  503 -0.00000000000E+00 -0.00000000000E+00 -0.65046828844E+01  0.65046828844E+01  0.00000000000E+00 0. -1.
          2    1    1    2  501    0 -0.15087325368E+02  0.16416208940E+02  0.16313762320E+02  0.27627126954E+02  0.00000000000E+00 0. -1.
         -2    1    1    2    0  502  0.15087325368E+02 -0.16416208940E+02  0.14570829965E+03  0.14740430078E+03  0.00000000000E+00 0.  1.
</event>
<event>
 4    1  0.1768739E+004  0.2649805E+02  0.7546771E-02  0.1452716E+00
         21   -1    0    0  501  502  0.00000000000E+00  0.00000000000E+00  0.14746995136E+01  0.14746995136E+01  0.00000000000E+00 0.  1.
         21   -1    0    0  502  503 -0.00000000000E+00 -0.00000000000E+00 -0.52081803589E+03  0.52081803589E+03  0.00000000000E+00 0. -1.
          2    1    1    2  501    0  0.18668414394E+02 -0.18805240732E+02 -0.18317493471E+03  0.18508161303E+03  0.00000000000E+00 0. -1.
         -2    1    1    2    0  503 -0.18668414394E+02  0.18805240732E+02 -0.33616840166E+03  0.33721112237E+03  0.00000000000E+00 0.  1.
</event>
<event>
 4    1  0.1768739E+004  0.2782996E+02  0.7546771E-02  0.1439445E+00
         21   -1    0    0  501  502  0.00000000000E+00  0.00000000000E+00  0.29731105240E+01  0.29731105240E+01  0.00000000000E+00 0.  1.
         21   -1    0    0  502  503 -0.00000000000E+00 -0.00000000000E+00 -0.50139936331E+03  0.50139936331E+03  0.00000000000E+00 0. -1.
          2    1    1    2  501    0  0.79575391970E+01 -0.26668039720E+02 -0.74412156779E+02  0.79446056221E+02  0.00000000000E+00 0.  1.
         -2    1    1    2    0  503 -0.79575391970E+01  0.26668039720E+02 -0.42401409601E+03  0.42492641762E+03  0.00000000000E+00 0. -1.
</event>
<event>
 4    1  0.1768739E+004  0.3151645E+02  0.7546771E-02  0.1406861E+00
         21   -1    0    0  501  502  0.00000000000E+00  0.00000000000E+00  0.86261866132E+02  0.86261866132E+02  0.00000000000E+00 0.  1.
         21   -1    0    0  502  503 -0.00000000000E+00 -0.00000000000E+00 -0.85084924062E+02  0.85084924062E+02  0.00000000000E+00 0. -1.
          2    1    1    2  501    0  0.29060564900E+02  0.12197144332E+02  0.80254003104E+02  0.86220599489E+02  0.00000000000E+00 0.  1.
         -2    1    1    2    0  503 -0.29060564900E+02 -0.12197144332E+02 -0.79077061034E+02  0.85126190705E+02  0.00000000000E+00 0. -1.
</event>
<event>
 4    1  0.1768739E+004  0.2134838E+02  0.7546771E-02  0.1514349E+00
         21   -1    0    0  501  502  0.00000000000E+00  0.00000000000E+00  0.61377305897E+03  0.61377305897E+03  0.00000000000E+00 0.  1.
         21   -1    0    0  502  503 -0.00000000000E+00 -0.00000000000E+00 -0.78077838616E+00  0.78077838616E+00  0.00000000000E+00 0. -1.
          2    1    1    2  501    0  0.14934330937E+02  0.15255138125E+02  0.23849858207E+03  0.23945213953E+03  0.00000000000E+00 0.  1.
         -2    1    1    2    0  503 -0.14934330937E+02 -0.15255138125E+02  0.37449369852E+03  0.37510169782E+03  0.00000000000E+00 0. -1.
</event>
<event>
 4    1  0.1768739E+004  0.2110742E+02  0.7546771E-02  0.1517737E+00
         21   -1    0    0  503  502  0.00000000000E+00  0.00000000000E+00  0.48347246425E+02  0.48347246425E+02  0.00000000000E+00 0. -1.
         21   -1    0    0  501  503 -0.00000000000E+00 -0.00000000000E+00 -0.33733466687E+02  0.33733466687E+02  0.00000000000E+00 0.  1.
          2    1    1    2  501    0 -0.96087811107E+01 -0.18793465927E+02 -0.27681721994E+02  0.34810928866E+02  0.00000000000E+00 0.  1.
         -2    1    1    2    0  502  0.96087811107E+01  0.18793465927E+02  0.42295501732E+02  0.47269784246E+02  0.00000000000E+00 0. -1.
</event>
<event>
 4    1  0.1768739E+004  0.2894277E+02  0.7546771E-02  0.1429012E+00
         21   -1    0    0  503  502  0.00000000000E+00  0.00000000000E+00  0.10455344137E+02  0.10455344137E+02  0.00000000000E+00 0. -1.
         21   -1    0    0  501  503 -0.00000000000E+00 -0.00000000000E+00 -0.11762223994E+03  0.11762223994E+03  0.00000000000E+00 0.  1.
          2    1    1    2  501    0  0.25261659817E+02  0.14125597865E+02 -0.89743247586E+02  0.94294933369E+02  0.00000000000E+00 0.  1.
         -2    1    1    2    0  502 -0.25261659817E+02 -0.14125597865E+02 -0.17423648220E+02  0.33782650711E+02  0.00000000000E+00 0. -1.
</event>
<event>
 4    1  0.1768739E+004  0.2469852E+02  0.7546771E-02  0.1472204E+00
         21   -1    0    0  501  502  0.00000000000E+00  0.00000000000E+00  0.36033955188E+02  0.36033955188E+02  0.00000000000E+00 0. -1.
         21   -1    0    0  502  503 -0.00000000000E+00 -0.00000000000E+00 -0.19660577302E+02  0.19660577302E+02  0.00000000000E+00 0.  1.
          2    1    1    2  501    0 -0.60191893175E+00  0.24691188602E+02  0.18566632461E+02  0.30898817808E+02  0.00000000000E+00 0. -1.
         -2    1    1    2    0  503  0.60191893175E+00 -0.24691188602E+02 -0.21932545755E+01  0.24795714682E+02  0.00000000000E+00 0.  1.
</event>
<event>
 4    1  0.1768739E+004  0.2001383E+02  0.7546771E-02  0.1533824E+00
         21   -1    0    0  501  502  0.00000000000E+00  0.00000000000E+00  0.10002141887E+02  0.10002141887E+02  0.00000000000E+00 0.  1.
         21   -1    0    0  502  503 -0.00000000000E+00 -0.00000000000E+00 -0.44252455560E+02  0.44252455560E+02  0.00000000000E+00 0. -1.
          2    1    1    2  501    0  0.19487575011E+02  0.45593536123E+01 -0.87622502539E+01  0.21847890394E+02  0.00000000000E+00 0.  1.
         -2    1    1    2    0  503 -0.19487575011E+02 -0.45593536123E+01 -0.25488063419E+02  0.32406707053E+02  0.00000000000E+00 0. -1.
</event>
<event>
 4    1  0.1768739E+004  0.3508435E+02  0.7546771E-02  0.1379971E+00
         21   -1    0    0  501  502  0.00000000000E+00  0.00000000000E+00  0.57102021072E+02  0.57102021072E+02  0.00000000000E+00 0.  1.
         21   -1    0    0  502  503 -0.00000000000E+00 -0.00000000000E+00 -0.40691076155E+02  0.40691076155E+02  0.00000000000E+00 0. -1.
          2    1    1    2  501    0  0.10783871232E+02  0.33385920302E+02  0.41735944180E+02  0.54523394885E+02  0.00000000000E+00 0.  1.
         -2    1    1    2    0  503 -0.10783871232E+02 -0.33385920302E+02 -0.25324999263E+02  0.43269702343E+02  0.00000000000E+00 0. -1.
</event>
<event>
 4    1  0.1768739E+004  0.2072702E+02  0.7546771E-02  0.1523198E+00
         21   -1    0    0  501  502  0.00000000000E+00  0.00000000000E+00  0.84649091193E+02  0.84649091193E+02  0.00000000000E+00 0. -1.
         21   -1    0    0  502  503 -0.00000000000E+00 -0.00000000000E+00 -0.82427359909E+01  0.82427359909E+01  0.00000000000E+00 0.  1.
          2    1    1    2  501    0  0.15835400085E+02 -0.13373463357E+02  0.66995316580E+02  0.70128324247E+02  0.00000000000E+00 0. -1.
         -2    1    1    2    0  503 -0.15835400085E+02  0.13373463357E+02  0.94110386220E+01  0.22763502937E+02  0.00000000000E+00 0.  1.
</event>
<event>
 4    1  0.1768739E+004  0.2151154E+02  0.7546771E-02  0.1512085E+00
         21   -1    0    0  503  502  0.00000000000E+00  0.00000000000E+00  0.95714322551E+03  0.95714322551E+03  0.00000000000E+00 0.  1.
         21   -1    0    0  501  503 -0.00000000000E+00 -0.00000000000E+00 -0.12839412799E+01  0.12839412799E+01  0.00000000000E+00 0. -1.
          2    1    1    2  501    0  0.76573959274E+01 -0.20102503597E+02  0.99547652367E+02  0.10184538014E+03  0.00000000000E+00 0. -1.
         -2    1    1    2    0  502 -0.76573959274E+01  0.20102503597E+02  0.85631163187E+03  0.85658178666E+03  0.00000000000E+00 0.  1.
</event>
<event>
 4    1  0.1768739E+004  0.3036199E+02  0.7546771E-02  0.1416476E+00
         21   -1    0    0  501  502  0.00000000000E+00  0.00000000000E+00  0.29747772812E+02  0.29747772812E+02  0.00000000000E+00 0. -1.
         21   -1    0    0  502  503 -0.00000000000E+00 -0.00000000000E+00 -0.35632391207E+02  0.35632391207E+02  0.00000000000E+00 0.  1.
          2    1    1    2  501    0 -0.26819554694E+02  0.14232434423E+02 -0.14743230760E+02  0.33752237805E+02  0.00000000000E+00 0.  1.
         -2    1    1    2    0  503  0.26819554694E+02 -0.14232434423E+02  0.88586123646E+01  0.31627926215E+02  0.00000000000E+00 0. -1.
</event>
<event>
 4    1  0.1768739E+004  0.2141132E+02  0.7546771E-02  0.1513473E+00
         21   -1    0    0  501  502  0.00000000000E+00  0.00000000000E+00  0.15163607430E+02  0.15163607430E+02  0.00000000000E+00 0.  1.
         21   -1    0    0  502  503 -0.00000000000E+00 -0.00000000000E+00 -0.31438780015E+02  0.31438780015E+02  0.00000000000E+00 0. -1.
          2    1    1    2  501    0 -0.88358844835E+01 -0.19503117246E+02 -0.35746686871E+01  0.21707664387E+02  0.00000000000E+00 0.  1.
         -2    1    1    2    0  503  0.88358844835E+01  0.19503117246E+02 -0.12700503897E+02  0.24894723059E+02  0.00000000000E+00 0. -1.
</event>
<event>
 4    1  0.1768739E+004  0.2203115E+02  0.7546771E-02  0.1505036E+00
         21   -1    0    0  503  502  0.00000000000E+00  0.00000000000E+00  0.36690488387E+01  0.36690488387E+01  0.00000000000E+00 0.  1.
         21   -1    0    0  501  503 -0.00000000000E+00 -0.00000000000E+00 -0.14406965927E+03  0.14406965927E+03  0.00000000000E+00 0. -1.
          2    1    1    2  501    0  0.17540665927E+02 -0.13330297291E+02 -0.91324393776E+02  0.93944221139E+02  0.00000000000E+00 0. -1.
         -2    1    1    2    0  502 -0.17540665927E+02  0.13330297291E+02 -0.49076216655E+02  0.53794486968E+02  0.00000000000E+00 0.  1.
</event>
<event>
 4    1  0.1768739E+004  0.2268499E+02  0.7546771E-02  0.1496492E+00
         21   -1    0    0  501  502  0.00000000000E+00  0.00000000000E+00  0.10140573652E+01  0.10140573652E+01  0.00000000000E+00 0.  1.
         21   -1    0    0  502  503 -0.00000000000E+00 -0.00000000000E+00 -0.59563321478E+03  0.59563321478E+03  0.00000000000E+00 0. -1.
          2    1    1    2  501    0  0.17630912982E+02 -0.14274441472E+02 -0.18253926259E+03  0.18394344554E+03  0.00000000000E+00 0.  1.
         -2    1    1    2    0  503 -0.17630912982E+02  0.14274441472E+02 -0.41207989483E+03  0.41270382661E+03  0.00000000000E+00 0. -1.
</event>
<event>
 4    1  0.1768739E+004  0.2421787E+02  0.7546771E-02  0.1477746E+00
         21   -1    0    0  503  502  0.00000000000E+00  0.00000000000E+00  0.21623130042E+02  0.21623130042E+02  0.00000000000E+00 0.  1.
         21   -1    0    0  501  503 -0.00000000000E+00 -0.00000000000E+00 -0.34864589611E+02  0.34864589611E+02  0.00000000000E+00 0. -1.
          2    1    1    2  501    0 -0.77114753277E+01 -0.22957317570E+02 -0.19928933356E+02  0.31363476632E+02  0.00000000000E+00 0. -1.
         -2    1    1    2    0  502  0.77114753277E+01  0.22957317570E+02  0.66874737867E+01  0.25124243021E+02  0.00000000000E+00 0.  1.
</event>
<event>
 4    1  0.1768739E+004  0.2888476E+02  0.7546771E-02  0.1429542E+00
         21   -1    0    0  501  502  0.00000000000E+00  0.00000000000E+00  0.15389652302E+01  0.15389652302E+01  0.00000000000E+00 0.  1.
         21   -1    0    0  502  503 -0.00000000000E+00 -0.00000000000E+00 -0.55213395633E+03  0.55213395633E+03  0.00000000000E+00 0. -1.
          2    1    1    2  501    0  0.13903589823E+02  0.25318365100E+02 -0.23804605894E+03  0.23979210913E+03  0.00000000000E+00 0.  1.
         -2    1    1    2    0  503 -0.13903589823E+02 -0.25318365100E+02 -0.31254893216E+03  0.31388081243E+03  0.00000000000E+00 0. -1.
</event>
<event>
 4    1  0.1768739E+004  0.2277117E+02  0.7546771E-02  0.1495392E+00
         21   -1    0    0  501  502  0.00000000000E+00  0.00000000000E+00  0.93839231795E+01  0.93839231795E+01  0.00000000000E+00 0. -1.
         21   -1    0    0  502  503 -0.00000000000E+00 -0.00000000000E+00 -0.12595078520E+03  0.12595078520E+03  0.00000000000E+00 0.  1.
          2    1    1    2  501    0 -0.20139986852E+02  0.10625769497E+02 -0.75878819731E+01  0.24002124919E+02  0.00000000000E+00 0. -1.
         -2    1    1    2    0  503  0.20139986852E+02 -0.10625769497E+02 -0.10897898005E+03  0.11133258346E+03  0.00000000000E+00 0.  1.
</event>
<event>
 4    1  0.1768739E+004  0.2096457E+02  0.7546771E-02  0.1519771E+00
         21   -1    0    0  503  502  0.00000000000E+00  0.00000000000E+00  0.63280008932E+02  0.63280008932E+02  0.00000000000E+00 0.  1.
         21   -1    0    0  501  503 -0.00000000000E+00 -0.00000000000E+00 -0.77409553741E+01  0.77409553741E+01  0.00000000000E+00 0. -1.
          2    1    1    2  501    0  0.13720357462E+02 -0.15851346275E+02  0.16386488399E+02  0.26608840442E+02  0.00000000000E+00 0. -1.
         -2    1    1    2    0  502 -0.13720357462E+02  0.15851346275E+02  0.39152565160E+02  0.44412123865E+02  0.00000000000E+00 0.  1.
</event>
<event>
 4    1  0.1768739E+004  0.2089963E+02  0.7546771E-02  0.1520703E+00
         21   -1    0    0  503  502  0.00000000000E+00  0.00000000000E+00  0.18819785407E+03  0.18819785407E+03  0.00000000000E+00 0.  1.
         21   -1    0    0  501  503 -0.00000000000E+00 -0.00000000000E+00 -0.19750481470E+02  0.19750481470E+02  0.00000000000E+00 0. -1.
          2    1    1    2  501    0  0.17075831805E+02 -0.12050335617E+02 -0.13450471866E+02  0.24853768602E+02  0.00000000000E+00 0. -1.
         -2    1    1    2    0  502 -0.17075831805E+02  0.12050335617E+02  0.18189784447E+03  0.18309456694E+03  0.00000000000E+00 0.  1.
</event>
<event>
 4    1  0.1768739E+004  0.2014166E+02  0.7546771E-02  0.1531881E+00
         21   -1    0    0  501  502  0.00000000000E+00  0.00000000000E+00  0.61446698196E+03  0.61446698196E+03  0.00000000000E+00 0. -1.
         21   -1    0    0  502  503 -0.00000000000E+00 -0.00000000000E+00 -0.11994497977E+01  0.11994497977E+01  0.00000000000E+00 0.  1.
          2    1    1    2  501    0 -0.79320643279E+01  0.18514011981E+02  0.51303366820E+03  0.51342889575E+03  0.00000000000E+00 0. -1.
         -2    1    1    2    0  503  0.79320643279E+01 -0.18514011981E+02  0.10023386396E+03  0.10223753601E+03  0.00000000000E+00 0.  1.
</event>
<event>
 4    1  0.1768739E+004  0.2377719E+02  0.7546771E-02  0.1482963E+00
         21   -1    0    0  501  502  0.00000000000E+00  0.00000000000E+00  0.11082591866E+03  0.11082591866E+03  0.00000000000E+00 0. -1.
         21   -1    0    0  502  503 -0.00000000000E+00 -0.00000000000E+00 -0.14342638131E+02  0.14342638131E+02  0.00000000000E+00 0.  1.
          2    1    1    2  501    0 -0.20312062542E+02  0.12360217714E+02  0.98478033836E+02  0.10130783787E+03  0.00000000000E+00 0. -1.
         -2    1    1    2    0  503  0.20312062542E+02 -0.12360217714E+02 -0.19947533027E+01  0.23860718920E+02  0.00000000000E+00 0.  1.
</event>
<event>
 4    1  0.1768739E+004  0.3331280E+02  0.7546771E-02  0.1392829E+00
         21   -1    0    0  503  502  0.00000000000E+00  0.00000000000E+00  0.24273351712E+03  0.24273351712E+03  0.00000000000E+00 0.  1.
         21   -1    0    0  501  503 -0.00000000000E+00 -0.00000000000E+00 -0.57773453897E+01  0.57773453897E+01  0.00000000000E+00 0. -1.
          2    1    1    2  501    0  0.19038754511E+02  0.27336217095E+02  0.61719348686E+02  0.70135732267E+02  0.00000000000E+00 0. -1.
         -2    1    1    2    0  502 -0.19038754511E+02 -0.27336217095E+02  0.17523682304E+03  0.17837513024E+03  0.00000000000E+00 0.  1.
</event>
<event>
 4    1  0.1768739E+004  0.2280389E+02  0.7546771E-02  0.1494975E+00
         21   -1    0    0  503  502  0.00000000000E+00  0.00000000000E+00  0.33976054736E+02  0.33976054736E+02  0.00000000000E+00 0.  1.
         21   -1    0    0  501  503 -0.00000000000E+00 -0.00000000000E+00 -0.15603417758E+02  0.15603417758E+02  0.00000000000E+00 0. -1.
          2    1    1    2  501    0  0.19195264425E+02 -0.12310942381E+02  0.57604146890E+01  0.23520201020E+02  0.00000000000E+00 0. -1.
         -2    1    1    2    0  502 -0.19195264425E+02  0.12310942381E+02  0.12612222289E+02  0.26059271473E+02  0.00000000000E+00 0.  1.
</event>
<event>
 4    1  0.1768739E+004  0.2055839E+02  0.7546771E-02  0.1525664E+00
         21   -1    0    0  501  502  0.00000000000E+00  0.00000000000E+00  0.69336001325E+03  0.69336001325E+03  0.00000000000E+00 0.  1.
         21   -1    0    0  502  503 -0.00000000000E+00 -0.00000000000E+00 -0.65933781785E+00  0.65933781785E+00  0.00000000000E+00 0. -1.
          2    1    1    2  501    0  0.20172382350E+02 -0.39651642825E+01  0.44169285048E+03  0.44217103218E+03  0.00000000000E+00 0.  1.
         -2    1    1    2    0  503 -0.20172382350E+02  0.39651642825E+01  0.25100782496E+03  0.25184831889E+03  0.00000000000E+00 0. -1.
</event>
<event>
 4    1  0.1768739E+004  0.2464792E+02  0.7546771E-02  0.1472781E+00
         21   -1    0    0  503  502  0.00000000000E+00  0.00000000000E+00  0.19184818651E+02  0.19184818651E+02  0.00000000000E+00 0.  1.
         21   -1    0    0  501  503 -0.00000000000E+00 -0.00000000000E+00 -0.31724869047E+02  0.31724869047E+02  0.00000000000E+00 0. -1.
          2    1    1    2  501    0  0.23274819437E+02 -0.81119029697E+01 -0.51801933192E+01  0.25186396972E+02  0.00000000000E+00 0. -1.
         -2    1    1    2    0  502 -0.23274819437E+02  0.81119029697E+01 -0.73598570774E+01  0.25723290726E+02  0.00000000000E+00 0.  1.
</event>
<event>
 4    1  0.1768739E+004  0.2158558E+02  0.7546771E-02  0.1511066E+00
         21   -1    0    0  503  502  0.00000000000E+00  0.00000000000E+00  0.51628848449E+03  0.51628848449E+03  0.00000000000E+00 0.  1.
         21   -1    0    0  501  503 -0.00000000000E+00 -0.00000000000E+00 -0.90398525882E+00  0.90398525882E+00  0.00000000000E+00 0. -1.
          2    1    1    2  501    0  0.12338846876E+02 -0.17711304416E+02  0.26826208554E+03  0.26912912140E+03  0.00000000000E+00 0. -1.
         -2    1    1    2    0  502 -0.12338846876E+02  0.17711304416E+02  0.24712241369E+03  0.24806334835E+03  0.00000000000E+00 0.  1.
</event>
<event>
 4    1  0.1768739E+004  0.2152549E+02  0.7546771E-02  0.1511893E+00
         21   -1    0    0  501  502  0.00000000000E+00  0.00000000000E+00  0.42710644076E+02  0.42710644076E+02  0.00000000000E+00 0. -1.
         21   -1    0    0  502  503 -0.00000000000E+00 -0.00000000000E+00 -0.10912866160E+02  0.10912866160E+02  0.00000000000E+00 0.  1.
          2    1    1    2  501    0 -0.16817520567E+02 -0.13435694794E+02  0.17957846898E+02  0.28032680176E+02  0.00000000000E+00 0.  1.
         -2    1    1    2    0  503  0.16817520567E+02  0.13435694794E+02  0.13839931018E+02  0.25590830060E+02  0.00000000000E+00 0. -1.
</event>
<event>
 4    1  0.1768739E+004  0.3461979E+02  0.7546771E-02  0.1383256E+00
         21   -1    0    0  503  502  0.00000000000E+00  0.00000000000E+00  0.49564881025E+02  0.49564881025E+02  0.00000000000E+00 0.  1.
         21   -1    0    0  501  503 -0.00000000000E+00 -0.00000000000E+00 -0.29355539144E+03  0.29355539144E+03  0.00000000000E+00 0. -1.
          2    1    1    2  501    0  0.34491997303E+02 -0.29718412153E+01 -0.28633760166E+03  0.28842286983E+03  0.00000000000E+00 0. -1.
         -2    1    1    2    0  502 -0.34491997303E+02  0.29718412153E+01  0.42347091243E+02  0.54697402634E+02  0.00000000000E+00 0.  1.
</event>
<event>
 4    1  0.1768739E+004  0.2360418E+02  0.7546771E-02  0.1485048E+00
         21   -1    0    0  501  502  0.00000000000E+00  0.00000000000E+00  0.80994790120E+03  0.80994790120E+03  0.00000000000E+00 0.  1.
         21   -1    0    0  502  503 -0.00000000000E+00 -0.00000000000E+00 -0.80842479469E+00  0.80842479469E+00  0.00000000000E+00 0. -1.
          2    1    1    2  501    0  0.63010406293E+01 -0.22747614895E+02  0.56109780747E+03  0.56159407640E+03  0.00000000000E+00 0.  1.
         -2    1    1    2    0  503 -0.63010406293E+01  0.22747614895E+02  0.24804166894E+03  0.24916224960E+03  0.00000000000E+00 0. -1.
</event>
<event>
 4    1  0.1768739E+004  0.3203661E+02  0.7546771E-02  0.1402686E+00
         21   -1    0    0  501  502  0.00000000000E+00  0.00000000000E+00  0.47576419389E+02  0.47576419389E+02  0.00000000000E+00 0. -1.
         21   -1    0    0  502  503 -0.00000000000E+00 -0.00000000000E+00 -0.37105030295E+02  0.37105030295E+02  0.00000000000E+00 0.  1.
          2    1    1    2  501    0  0.24956543263E+02 -0.20087690040E+02  0.32630132835E+02  0.45728217892E+02  0.00000000000E+00 0. -1.
         -2    1    1    2    0  503 -0.24956543263E+02  0.20087690040E+02 -0.22158743741E+02  0.38953231791E+02  0.00000000000E+00 0.  1.
</event>
<event>
 4    1  0.1768739E+004  0.2183093E+02  0.7546771E-02  0.1507724E+00
         21   -1    0    0  503  502  0.00000000000E+00  0.00000000000E+00  0.84053297428E+02  0.84053297428E+02  0.00000000000E+00 0. -1.
         21   -1    0    0  501  503 -0.00000000000E+00 -0.00000000000E+00 -0.62739249321E+01  0.62739249321E+01  0.00000000000E+00 0.  1.
          2    1    1    2  501    0  0.21289097601E+02 -0.48336332867E+01  0.24878386203E+02  0.33098697671E+02  0.00000000000E+00 0. -1.
         -2    1    1    2    0  502 -0.21289097601E+02  0.48336332867E+01  0.52900986293E+02  0.57228524689E+02  0.00000000000E+00 0.  1.
</event>
<event>
 4    1  0.1768739E+004  0.2385156E+02  0.7546771E-02  0.1482073E+00
         21   -1    0    0  501  502  0.00000000000E+00  0.00000000000E+00  0.56495556639E+03  0.56495556639E+03  0.00000000000E+00 0.  1.
         21   -1    0    0  502  503 -0.00000000000E+00 -0.00000000000E+00 -0.28139250482E+01  0.28139250482E+01  0.00000000000E+00 0. -1.
          2    1    1    2  501    0  0.23730852449E+02  0.23965274806E+01  0.50855895354E+03  0.50911796858E+03  0.00000000000E+00 0.  1.
         -2    1    1    2    0  503 -0.23730852449E+02 -0.23965274806E+01  0.53582687803E+02  0.58651522863E+02  0.00000000000E+00 0. -1.
</event>
<event>
 4    1  0.1768739E+004  0.3068608E+02  0.7546771E-02  0.1413726E+00
         21   -1    0    0  501  502  0.00000000000E+00  0.00000000000E+00  0.11865730282E+03  0.11865730282E+03  0.00000000000E+00 0. -1.
         21   -1    0    0  502  503 -0.00000000000E+00 -0.00000000000E+00 -0.93777848108E+01  0.93777848108E+01  0.00000000000E+00 0.  1.
          2    1    1    2  501    0 -0.19067835756E+02 -0.24042735105E+02  0.79743344608E+02  0.85443762095E+02  0.00000000000E+00 0. -1.
         -2    1    1    2    0  503  0.19067835756E+02  0.24042735105E+02  0.29536173404E+02  0.42591325538E+02  0.00000000000E+00 0.  1.
</event>
<event>
 4    1  0.1768739E+004  0.2145290E+02  0.7546771E-02  0.1512896E+00
         21   -1    0    0  501  502  0.00000000000E+00  0.00000000000E+00  0.13845025993E+03  0.13845025993E+03  0.00000000000E+00 0.  1.
         21   -1    0    0  502  503 -0.00000000000E+00 -0.00000000000E+00 -0.53617533551E+01  0.53617533551E+01  0.00000000000E+00 0. -1.
          2    1    1    2  501    0 -0.16215928777E+02 -0.14045307651E+02  0.11087177381E+03  0.11292819506E+03  0.00000000000E+00 0. -1.
         -2    1    1    2    0  503  0.16215928777E+02  0.14045307651E+02  0.22216732769E+02  0.30883818223E+02  0.00000000000E+00 0.  1.
</event>
<event>
 4    1  0.1768739E+004  0.2022438E+02  0.7546771E-02  0.1530633E+00
         21   -1    0    0  503  502  0.00000000000E+00  0.00000000000E+00  0.25147075176E+02  0.25147075176E+02  0.00000000000E+00 0. -1.
         21   -1    0    0  501  503 -0.00000000000E+00 -0.00000000000E+00 -0.38982577938E+02  0.38982577938E+02  0.00000000000E+00 0.  1.
          2    1    1    2  501    0  0.18391051640E+02  0.84139567389E+01 -0.31395500924E+02  0.37345721665E+02  0.00000000000E+00 0.  1.
         -2    1    1    2    0  502 -0.18391051640E+02 -0.84139567389E+01  0.17559998162E+02  0.26783931449E+02  0.00000000000E+00 0. -1.
</event>
<event>
 4    1  0.1768739E+004  0.2739749E+02  0.7546771E-02  0.1443656E+00
         21   -1    0    0  501  502  0.00000000000E+00  0.00000000000E+00  0.52319053037E+01  0.52319053037E+01  0.00000000000E+00 0. -1.
         21   -1    0    0  502  503 -0.00000000000E+00 -0.00000000000E+00 -0.19321137578E+03  0.19321137578E+03  0.00000000000E+00 0.  1.
          2    1    1    2  501    0 -0.18786521276E+02 -0.19942139390E+02 -0.43645674435E+02  0.51532195781E+02  0.00000000000E+00 0. -1.
         -2    1    1    2    0  503  0.18786521276E+02  0.19942139390E+02 -0.14433379604E+03  0.14691108530E+03  0.00000000000E+00 0.  1.
</event>
<event>
 4    1  0.1768739E+004  0.3713052E+02  0.7546771E-02  0.1366174E+00
         21   -1    0    0  503  502  0.00000000000E+00  0.00000000000E+00  0.61231255980E+02  0.61231255980E+02  0.00000000000E+00 0.  1.
         21   -1    0    0  501  503 -0.00000000000E+00 -0.00000000000E+00 -0.31588490636E+02  0.31588490636E+02  0.00000000000E+00 0. -1.
          2    1    1    2  501    0 -0.22027565425E+02 -0.29890831772E+02 -0.10050699293E+02  0.38466765121E+02  0.00000000000E+00 0. -1.
         -2    1    1    2    0  502  0.22027565425E+02  0.29890831772E+02  0.39693464637E+02  0.54352981496E+02  0.00000000000E+00 0.  1.
</event>
<event>
 4    1  0.1768739E+004  0.2637062E+02  0.7546771E-02  0.1454035E+00
         21   -1    0    0  503  502  0.00000000000E+00  0.00000000000E+00  0.26258552661E+02  0.26258552661E+02  0.00000000000E+00 0. -1.
         21   -1    0    0  501  503 -0.00000000000E+00 -0.00000000000E+00 -0.35710746583E+02  0.35710746583E+02  0.00000000000E+00 0.  1.
          2    1    1    2  501    0  0.26220847472E+02  0.28065167621E+01 -0.20476484874E+02  0.33387060537E+02  0.00000000000E+00 0.  1.
         -2    1    1    2    0  502 -0.26220847472E+02 -0.28065167621E+01  0.11024290952E+02  0.28582238707E+02  0.00000000000E+00 0. -1.
</event>
<event>
 4    1  0.1768739E+004  0.2515267E+02  0.7546771E-02  0.1467103E+00
         21   -1    0    0  503  502  0.00000000000E+00  0.00000000000E+00  0.27268070535E+02  0.27268070535E+02  0.00000000000E+00 0. -1.
         21   -1    0    0  501  503 -0.00000000000E+00 -0.00000000000E+00 -0.54042849446E+02  0.54042849446E+02  0.00000000000E+00 0.  1.
          2    1    1    2  501    0 -0.24046612256E+02  0.73768090245E+01 -0.44100039334E+02  0.50768792990E+02  0.00000000000E+00 0.  1.
         -2    1    1    2    0  502  0.24046612256E+02 -0.73768090245E+01  0.17325260423E+02  0.30542126990E+02  0.00000000000E+00 0. -1.
</event>
<event>
 4    1  0.1768739E+004  0.3323210E+02  0.7546771E-02  0.1393437E+00
         21   -1    0    0  501  502  0.00000000000E+00  0.00000000000E+00  0.14027622679E+01  0.14027622679E+01  0.00000000000E+00 0. -1.
         21   -1    0    0  502  503 -0.00000000000E+00 -0.00000000000E+00 -0.13864990522E+04  0.13864990522E+04  0.00000000000E+00 0.  1.
          2    1    1    2  501    0 -0.83288326492E+01  0.32171464440E+02 -0.23634293362E+03  0.23866787561E+03  0.00000000000E+00 0. -1.
         -2    1    1    2    0  503  0.83288326492E+01 -0.32171464440E+02 -0.11487533563E+04  0.11492339389E+04  0.00000000000E+00 0.  1.
</event>
<event>
 4    1  0.1768739E+004  0.2282145E+02  0.7546771E-02  0.1494752E+00
         21   -1    0    0  503  502  0.00000000000E+00  0.00000000000E+00  0.99858157901E+02  0.99858157901E+02  0.00000000000E+00 0.  1.
         21   -1    0    0  501  503 -0.00000000000E+00 -0.00000000000E+00 -0.95233286726E+01  0.95233286726E+01  0.00000000000E+00 0. -1.
          2    1    1    2  501    0 -0.19430378577E+02  0.11969917293E+02  0.83846425336E+01  0.24312975179E+02  0.00000000000E+00 0. -1.
         -2    1    1    2    0  502  0.19430378577E+02 -0.11969917293E+02  0.81950186694E+02  0.85068511395E+02  0.00000000000E+00 0.  1.
</event>
<event>
 4    1  0.1768739E+004  0.3043676E+02  0.7546771E-02  0.1415838E+00
         21   -1    0    0  501  502  0.00000000000E+00  0.00000000000E+00  0.61209080214E+02  0.61209080214E+02  0.00000000000E+00 0. -1.
         21   -1    0    0  502  503 -0.00000000000E+00 -0.00000000000E+00 -0.36629526933E+02  0.36629526933E+02  0.00000000000E+00 0.  1.
          2    1    1    2  501    0 -0.19876768248E+02  0.23050172076E+02  0.49763691421E+02  0.58333706659E+02  0.00000000000E+00 0. -1.
         -2    1    1    2    0  503  0.19876768248E+02 -0.23050172076E+02 -0.25184138140E+02  0.39504900488E+02  0.00000000000E+00 0.  1.
</event>
<event>
 4    1  0.1768739E+004  0.2366993E+02  0.7546771E-02  0.1484253E+00
         21   -1    0    0  501  502  0.00000000000E+00  0.00000000000E+00  0.43785648024E+02  0.43785648024E+02  0.00000000000E+00 0.  1.
         21   -1    0    0  502  503 -0.00000000000E+00 -0.00000000000E+00 -0.35784565246E+02  0.35784565246E+02  0.00000000000E+00 0. -1.
          2    1    1    2  501    0  0.23627220228E+02  0.14213134170E+01  0.35888882556E+02  0.42991598698E+02  0.00000000000E+00 0.  1.
         -2    1    1    2    0  503 -0.23627220228E+02 -0.14213134170E+01 -0.27887799779E+02  0.36578614572E+02  0.00000000000E+00 0. -1.
</event>
<event>
 4    1  0.1768739E+004  0.2726946E+02  0.7546771E-02  0.1444920E+00
         21   -1    0    0  503  502  0.00000000000E+00  0.00000000000E+00  0.35877270860E+03  0.35877270860E+03  0.00000000000E+00 0.  1.
         21   -1    0    0  501  503 -0.00000000000E+00 -0.00000000000E+00 -0.25921041340E+01  0.25921041340E+01  0.00000000000E+00 0. -1.
          2    1    1    2  501    0  0.26296777478E+02 -0.72182466637E+01  0.97209079587E+02  0.10096152111E+03  0.00000000000E+00 0.  1.
         -2    1    1    2    0  502 -0.26296777478E+02  0.72182466637E+01  0.25897152488E+03  0.26040329162E+03  0.00000000000E+00 0. -1.
</event>
<event>
 4    1  0.1768739E+004  0.3320474E+02  0.7546771E-02  0.1393644E+00
         21   -1    0    0  501  502  0.00000000000E+00  0.00000000000E+00  0.45150859908E+01  0.45150859908E+01  0.00000000000E+00 0.  1.
         21   -1    0    0  502  503 -0.00000000000E+00 -0.00000000000E+00 -0.24671077333E+03  0.24671077333E+03  0.00000000000E+00 0. -1.
          2    1    1    2  501    0  0.33204668611E+02  0.66970875746E-01 -0.10840940141E+03  0.11338056631E+03  0.00000000000E+00 0.  1.
         -2    1    1    2    0  503 -0.33204668611E+02 -0.66970875746E-01 -0.13378628593E+03  0.13784529301E+03  0.00000000000E+00 0. -1.
</event>
<event>
 4    1  0.1768739E+004  0.2736113E+02  0.7546771E-02  0.1444014E+00
         21   -1    0    0  503  502  0.00000000000E+00  0.00000000000E+00  0.42496683242E+02  0.42496683242E+02  0.00000000000E+00 0.  1.
         21   -1    0    0  501  503 -0.00000000000E+00 -0.00000000000E+00 -0.37011914411E+02  0.37011914411E+02  0.00000000000E+00 0. -1.
          2    1    1    2  501    0 -0.24338919380E+02  0.12499938036E+02 -0.26035963002E+02  0.37769072228E+02  0.00000000000E+00 0. -1.
         -2    1    1    2    0  502  0.24338919380E+02 -0.12499938036E+02  0.31520731833E+02  0.41739525426E+02  0.00000000000E+00 0.  1.
</event>
<event>
 4    1  0.1768739E+004  0.2512427E+02  0.7546771E-02  0.1467418E+00
         21   -1    0    0  501  502  0.00000000000E+00  0.00000000000E+00  0.11651348602E+01  0.11651348602E+01  0.00000000000E+00 0.  1.
         21   -1    0    0  502  503 -0.00000000000E+00 -0.00000000000E+00 -0.67173958809E+03  0.67173958809E+03  0.00000000000E+00 0. -1.
          2    1    1    2  501    0 -0.34802083905E+01  0.24882060393E+02 -0.18729017555E+03  0.18896782434E+03  0.00000000000E+00 0. -1.
         -2    1    1    2    0  503  0.34802083905E+01 -0.24882060393E+02 -0.48328427768E+03  0.48393689861E+03  0.00000000000E+00 0.  1.
</event>
<event>
 4    1  0.1768739E+004  0.3068966E+02  0.7546771E-02  0.1413696E+00
         21   -1    0    0  503  502  0.00000000000E+00  0.00000000000E+00  0.99888959489E+03  0.99888959489E+03  0.00000000000E+00 0.  1.
         21   -1    0    0  501  503 -0.00000000000E+00 -0.00000000000E+00 -0.12746698697E+01  0.12746698697E+01  0.00000000000E+00 0. -1.
          2    1    1    2  501    0 -0.28072560558E+02  0.12401071777E+02  0.24367866503E+03  0.24560363806E+03  0.00000000000E+00 0. -1.
         -2    1    1    2    0  502  0.28072560558E+02 -0.12401071777E+02  0.75393625999E+03  0.75456062670E+03  0.00000000000E+00 0.  1.
</event>
<event>
 4    1  0.1768739E+004  0.3207747E+02  0.7546771E-02  0.1402362E+00
         21   -1    0    0  501  502  0.00000000000E+00  0.00000000000E+00  0.10621637965E+03  0.10621637965E+03  0.00000000000E+00 0.  1.
         21   -1    0    0  502  503 -0.00000000000E+00 -0.00000000000E+00 -0.13562213533E+02  0.13562213533E+02  0.00000000000E+00 0. -1.
          2    1    1    2  501    0  0.15420347842E+02  0.28127870975E+02  0.78338682698E+02  0.84651718588E+02  0.00000000000E+00 0.  1.
         -2    1    1    2    0  503 -0.15420347842E+02 -0.28127870975E+02  0.14315483417E+02  0.35126874592E+02  0.00000000000E+00 0. -1.
</event>
<event>
 4    1  0.1768739E+004  0.2385927E+02  0.7546771E-02  0.1481981E+00
         21   -1    0    0  501  502  0.00000000000E+00  0.00000000000E+00  0.92752217231E+01  0.92752217231E+01  0.00000000000E+00 0. -1.
         21   -1    0    0  502  503 -0.00000000000E+00 -0.00000000000E+00 -0.42134553736E+03  0.42134553736E+03  0.00000000000E+00 0.  1.
          2    1    1    2  501    0 -0.62617336346E+01  0.23022931190E+02 -0.70231048976E+01  0.24871442884E+02  0.00000000000E+00 0. -1.
         -2    1    1    2    0  503  0.62617336346E+01 -0.23022931190E+02 -0.40504721074E+03  0.40574931620E+03  0.00000000000E+00 0.  1.
</event>
<event>
 4    1  0.1768739E+004  0.2513439E+02  0.7546771E-02  0.1467305E+00
         21   -1    0    0  501  502  0.00000000000E+00  0.00000000000E+00  0.54974151511E+03  0.54974151511E+03  0.00000000000E+00 0. -1.
         21   -1    0    0  502  503 -0.00000000000E+00 -0.00000000000E+00 -0.15647699341E+01  0.15647699341E+01  0.00000000000E+00 0.  1.
          2    1    1    2  501    0  0.12807044532E+02  0.21626773088E+02  0.41615227997E+03  0.41691061131E+03  0.00000000000E+00 0. -1.
         -2    1    1    2    0  503 -0.12807044532E+02 -0.21626773088E+02  0.13202446521E+03  0.13439567373E+03  0.00000000000E+00 0.  1.
</event>
<event>
 4    1  0.1768739E+004  0.3100027E+02  0.7546771E-02  0.1411099E+00
         21   -1    0    0  501  502  0.00000000000E+00  0.00000000000E+00  0.17030710107E+02  0.17030710107E+02  0.00000000000E+00 0.  1.
         21   -1    0    0  502  503 -0.00000000000E+00 -0.00000000000E+00 -0.59206793042E+02  0.59206793042E+02  0.00000000000E+00 0. -1.
          2    1    1    2  501    0  0.23817865068E+02 -0.19842533614E+02 -0.12830616678E+02  0.33550582125E+02  0.00000000000E+00 0.  1.
         -2    1    1    2    0  503 -0.23817865068E+02  0.19842533614E+02 -0.29345466258E+02  0.42686921024E+02  0.00000000000E+00 0. -1.
</event>
<event>
 4    1  0.1768739E+004  0.3008181E+02  0.7546771E-02  0.1418887E+00
         21   -1    0    0  503  502  0.00000000000E+00  0.00000000000E+00  0.17403669580E+02  0.17403669580E+02  0.00000000000E+00 0. -1.
         21   -1    0    0  501  503 -0.00000000000E+00 -0.00000000000E+00 -0.55964495399E+02  0.55964495399E+02  0.00000000000E+00 0.  1.
          2    1    1    2  501    0  0.29726559758E+02  0.46094266231E+01 -0.29049484183E+02  0.41818509061E+02  0.00000000000E+00 0.  1.
         -2    1    1    2    0  502 -0.29726559758E+02 -0.46094266231E+01 -0.95113416356E+01  0.31549655918E+02  0.00000000000E+00 0. -1.
</event>
<event>
 4    1  0.1768739E+004  0.2560654E+02  0.7546771E-02  0.1462131E+00
         21   -1    0    0  501  502  0.00000000000E+00  0.00000000000E+00  0.71559753483E+02  0.71559753483E+02  0.00000000000E+00 0.  1.
         21   -1    0    0  502  503 -0.00000000000E+00 -0.00000000000E+00 -0.92325707317E+01  0.92325707317E+01  0.00000000000E+00 0. -1.
          2    1    1    2  501    0 -0.23528716641E+02 -0.10104166921E+02  0.34672817405E+02  0.43103352105E+02  0.00000000000E+00 0.  1.
         -2    1    1    2    0  503  0.23528716641E+02  0.10104166921E+02  0.27654365346E+02  0.37688972109E+02  0.00000000000E+00 0. -1.
</event>
<event>
 4    1  0.1768739E+004  0.2315364E+02  0.7546771E-02  0.1490578E+00
         21   -1    0    0  503  502  0.00000000000E+00  0.00000000000E+00  0.23966926091E+03  0.23966926091E+03  0.00000000000E+00 0.  1.
         21   -1    0    0  501  503 -0.00000000000E+00 -0.00000000000E+00 -0.23737005137E+01  0.23737005137E+01  0.00000000000E+00 0. -1.
          2    1    1    2  501    0  0.19074858820E+02 -0.13124049010E+02  0.14771213268E+03  0.14951576854E+03  0.00000000000E+00 0.  1.
         -2    1    1    2    0  502 -0.19074858820E+02  0.13124049010E+02  0.89583427721E+02  0.92527192888E+02  0.00000000000E+00 0. -1.
</event>
<event>
 4    1  0.1768739E+004  0.2705458E+02  0.7546771E-02  0.1447061E+00
         21   -1    0    0  503  502  0.00000000000E+00  0.00000000000E+00  0.87996451320E+01  0.87996451320E+01  0.00000000000E+00 0.  1.
         21   -1    0    0  501  503 -0.00000000000E+00 -0.00000000000E+00 -0.85762377647E+02  0.85762377647E+02  0.00000000000E+00 0. -1.
          2    1    1    2  501    0 -0.15436677632E+02  0.22218447141E+02 -0.30276204627E+02  0.40602942951E+02  0.00000000000E+00 0.  1.
         -2    1    1    2    0  502  0.15436677632E+02 -0.22218447141E+02 -0.46686527888E+02  0.53959079828E+02  0.00000000000E+00 0. -1.
</event>
<event>
 4    1  0.1768739E+004  0.2043033E+02  0.7546771E-02  0.1527556E+00
         21   -1    0    0  501  502  0.00000000000E+00  0.00000000000E+00  0.23954188357E+03  0.23954188357E+03  0.00000000000E+00 0.  1.
         21   -1    0    0  502  503 -0.00000000000E+00 -0.00000000000E+00 -0.99158249038E+01  0.99158249038E+01  0.00000000000E+00 0. -1.
          2    1    1    2  501    0  0.44968177600E+00  0.20425384414E+02  0.22805365068E+03  0.22896695424E+03  0.00000000000E+00 0.  1.
         -2    1    1    2    0  503 -0.44968177600E+00 -0.20425384414E+02  0.15724079771E+01  0.20490754232E+02  0.00000000000E+00 0. -1.
</event>
<event>
 4    1  0.1768739E+004  0.3275731E+02  0.7546771E-02  0.1397055E+00
         21   -1    0    0  503  502  0.00000000000E+00  0.00000000000E+00  0.71568692812E+03  0.71568692812E+03  0.00000000000E+00 0. -1.
         21   -1    0    0  501  503 -0.00000000000E+00 -0.00000000000E+00 -0.31027245229E+01  0.31027245229E+01  0.00000000000E+00 0.  1.
          2    1    1    2  501    0 -0.32139481292E+02  0.63320794716E+01  0.97933939196E+02  0.10326711933E+03  0.00000000000E+00 0.  1.
         -2    1    1    2    0  502  0.32139481292E+02 -0.63320794716E+01  0.61465026440E+03  0.61552253331E+03  0.00000000000E+00 0. -1.
</event>
<event>
 4    1  0.1768739E+004  0.2024906E+02  0.7546771E-02  0.1530262E+00
         21   -1    0    0  501  502  0.00000000000E+00  0.00000000000E+00  0.47192973364E+01  0.47192973364E+01  0.00000000000E+00 0.  1.
         21   -1    0    0  502  503 -0.00000000000E+00 -0.00000000000E+00 -0.10995464783E+03  0.10995464783E+03  0.00000000000E+00 0. -1.
          2    1    1    2  501    0 -0.30041406020E+01 -0.20024973185E+02 -0.78882339499E+02  0.81439842195E+02  0.00000000000E+00 0. -1.
         -2    1    1    2    0  503  0.30041406020E+01  0.20024973185E+02 -0.26353010991E+02  0.33234102968E+02  0.00000000000E+00 0.  1.
</event>
<event>
 4    1  0.1768739E+004  0.2784502E+02  0.7546771E-02  0.1439300E+00
         21   -1    0    0  501  502  0.00000000000E+00  0.00000000000E+00  0.37056967472E+02  0.37056967472E+02  0.00000000000E+00 0. -1.
         21   -1    0    0  502  503 -0.00000000000E+00 -0.00000000000E+00 -0.33146566871E+02  0.33146566871E+02  0.00000000000E+00 0.  1.
          2    1    1    2  501    0  0.25863612504E+02  0.10315947813E+02  0.23271291910E+02  0.36289092827E+02  0.00000000000E+00 0. -1.
         -2    1    1    2    0  503 -0.25863612504E+02 -0.10315947813E+02 -0.19360891309E+02  0.33914441516E+02  0.00000000000E+00 0.  1.
</event>
<event>
 4    1  0.1768739E+004  0.6191663E+02  0.7546771E-02  0.1253456E+00
         21   -1    0    0  503  502  0.00000000000E+00  0.00000000000E+00  0.16743875208E+02  0.16743875208E+02  0.00000000000E+00 0.  1.
         21   -1    0    0  501  503 -0.00000000000E+00 -0.00000000000E+00 -0.23646600003E+03  0.23646600003E+03  0.00000000000E+00 0. -1.
          2    1    1    2  501    0  0.52561122471E+02 -0.32726097043E+02 -0.13241827889E+03  0.14617889590E+03  0.00000000000E+00 0.  1.
         -2    1    1    2    0  502 -0.52561122471E+02  0.32726097043E+02 -0.87303845936E+02  0.10703097934E+03  0.00000000000E+00 0. -1.
</event>
<event>
 4    1  0.1768739E+004  0.2099937E+02  0.7546771E-02  0.1519274E+00
         21   -1    0    0  501  502  0.00000000000E+00  0.00000000000E+00  0.25940968253E+02  0.25940968253E+02  0.00000000000E+00 0.  1.
         21   -1    0    0  502  503 -0.00000000000E+00 -0.00000000000E+00 -0.17858292128E+02  0.17858292128E+02  0.00000000000E+00 0. -1.
          2    1    1    2  501    0 -0.85429441000E+01  0.19183112445E+02 -0.76214516935E+00  0.21013199714E+02  0.00000000000E+00 0. -1.
         -2    1    1    2    0  503  0.85429441000E+01 -0.19183112445E+02  0.88448212946E+01  0.22786060666E+02  0.00000000000E+00 0.  1.
</event>
<event>
 4    1  0.1768739E+004  0.2277959E+02  0.7546771E-02  0.1495284E+00
         21   -1    0    0  503  502  0.00000000000E+00  0.00000000000E+00  0.75641148000E+01  0.75641148000E+01  0.00000000000E+00 0. -1.
         21   -1    0    0  501  503 -0.00000000000E+00 -0.00000000000E+00 -0.11252826964E+03  0.11252826964E+03  0.00000000000E+00 0.  1.
          2    1    1    2  501    0 -0.81540747515E+01  0.21270190305E+02 -0.89998298200E+02  0.92836434710E+02  0.00000000000E+00 0.  1.
         -2    1    1    2    0  502  0.81540747515E+01 -0.21270190305E+02 -0.14965856636E+02  0.27255949726E+02  0.00000000000E+00 0. -1.
</event>
<event>
 4    1  0.1768739E+004  0.2123857E+02  0.7546771E-02  0.1515886E+00
         21   -1    0    0  501  502  0.00000000000E+00  0.00000000000E+00  0.83772716959E+02  0.83772716959E+02  0.00000000000E+00 0.  1.
         21   -1    0    0  502  503 -0.00000000000E+00 -0.00000000000E+00 -0.38639354115E+02  0.38639354115E+02  0.00000000000E+00 0. -1.
          2    1    1    2  501    0  0.88279739211E+01 -0.19316925332E+02  0.79348153427E+02  0.82141379220E+02  0.00000000000E+00 0.  1.
         -2    1    1    2    0  503 -0.88279739211E+01  0.19316925332E+02 -0.34214790583E+02  0.40270691855E+02  0.00000000000E+00 0. -1.
</event>
<event>
 4    1  0.1768739E+004  0.2672181E+02  0.7546771E-02  0.1450423E+00
         21   -1    0    0  503  502  0.00000000000E+00  0.00000000000E+00  0.46490614262E+03  0.46490614262E+03  0.00000000000E+00 0. -1.
         21   -1    0    0  501  503 -0.00000000000E+00 -0.00000000000E+00 -0.58497229110E+01  0.58497229110E+01  0.00000000000E+00 0.  1.
          2    1    1    2  501    0  0.22712349706E+02 -0.14078499586E+02  0.27399202600E+02  0.38272330513E+02  0.00000000000E+00 0.  1.
         -2    1    1    2    0  502 -0.22712349706E+02  0.14078499586E+02  0.43165721710E+03  0.43248353501E+03  0.00000000000E+00 0. -1.
</event>
<event>
 4    1  0.1768739E+004  0.2165653E+02  0.7546771E-02  0.1510094E+00
         21   -1    0    0  503  502  0.00000000000E+00  0.00000000000E+00  0.24424157805E+02  0.24424157805E+02  0.00000000000E+00 0.  1.
         21   -1    0    0  501  503 -0.00000000000E+00 -0.00000000000E+00 -0.25857549398E+02  0.25857549398E+02  0.00000000000E+00 0. -1.
          2    1    1    2  501    0 -0.19725744917E+02 -0.89386842680E+01 -0.13471145157E+02  0.25504447471E+02  0.00000000000E+00 0. -1.
         -2    1    1    2    0  502  0.19725744917E+02  0.89386842680E+01  0.12037753564E+02  0.24777259732E+02  0.00000000000E+00 0.  1.
</event>
<event>
 4    1  0.1768739E+004  0.2859264E+02  0.7546771E-02  0.1432234E+00
         21   -1    0    0  501  502  0.00000000000E+00  0.00000000000E+00  0.64373605352E+01  0.64373605352E+01  0.00000000000E+00 0. -1.
         21   -1    0    0  502  503 -0.00000000000E+00 -0.00000000000E+00 -0.13359059121E+03  0.13359059121E+03  0.00000000000E+00 0.  1.
          2    1    1    2  501    0  0.23527054395E+02 -0.16248589952E+02 -0.48024523973E+02  0.55891805005E+02  0.00000000000E+00 0. -1.
         -2    1    1    2    0  503 -0.23527054395E+02  0.16248589952E+02 -0.79128706701E+02  0.84136146739E+02  0.00000000000E+00 0.  1.
</event>
<event>
 4    1  0.1768739E+004  0.2950866E+02  0.7546771E-02  0.1423915E+00
         21   -1    0    0  503  502  0.00000000000E+00  0.00000000000E+00  0.62111643803E+01  0.62111643803E+01  0.00000000000E+00 0. -1.
         21   -1    0    0  501  503 -0.00000000000E+00 -0.00000000000E+00 -0.28992937568E+03  0.28992937568E+03  0.00000000000E+00 0.  1.
          2    1    1    2  501    0 -0.19833599879E+02 -0.21849238525E+02 -0.24826988340E+03  0.25001739122E+03  0.00000000000E+00 0.  1.
         -2    1    1    2    0  502  0.19833599879E+02  0.21849238525E+02 -0.35448327904E+02  0.46123148846E+02  0.00000000000E+00 0. -1.
</event>
<event>
 4    1  0.1768739E+004  0.2557929E+02  0.7546771E-02  0.1462426E+00
         21   -1    0    0  503  502  0.00000000000E+00  0.00000000000E+00  0.25980916385E+01  0.25980916385E+01  0.00000000000E+00 0.  1.
         21   -1    0    0  501  503 -0.00000000000E+00 -0.00000000000E+00 -0.36769754818E+03  0.36769754818E+03  0.00000000000E+00 0. -1.
          2    1    1    2  501    0 -0.17374487189E+02  0.18773043542E+02 -0.28647899816E+03  0.28761869959E+03  0.00000000000E+00 0. -1.
         -2    1    1    2    0  502  0.17374487189E+02 -0.18773043542E+02 -0.78620458385E+02  0.82676940229E+02  0.00000000000E+00 0.  1.
</event>
<event>
 4    1  0.1768739E+004  0.3789031E+02  0.7546771E-02  0.1361313E+00
         21   -1    0    0  503  502  0.00000000000E+00  0.00000000000E+00  0.58058047797E+03  0.58058047797E+03  0.00000000000E+00 0. -1.
         21   -1    0    0  501  503 -0.00000000000E+00 -0.00000000000E+00 -0.82886194065E+01  0.82886194065E+01  0.00000000000E+00 0.  1.
          2    1    1    2  501    0 -0.36570433299E+02 -0.99135787657E+01  0.39512420456E+02  0.54744013426E+02  0.00000000000E+00 0.  1.
         -2    1    1    2    0  502  0.36570433299E+02  0.99135787657E+01  0.53277943811E+03  0.53412508395E+03  0.00000000000E+00 0. -1.
</event>
<event>
 4    1  0.1768739E+004  0.2435130E+02  0.7546771E-02  0.1476193E+00
         21   -1    0    0  501  502  0.00000000000E+00  0.00000000000E+00  0.44513858789E+02  0.44513858789E+02  0.00000000000E+00 0.  1.
         21   -1    0    0  502  503 -0.00000000000E+00 -0.00000000000E+00 -0.13772974888E+02  0.13772974888E+02  0.00000000000E+00 0. -1.
          2    1    1    2  501    0  0.24322126398E+02  0.11915588531E+01  0.20647662413E+02  0.31926659834E+02  0.00000000000E+00 0. -1.
         -2    1    1    2    0  503 -0.24322126398E+02 -0.11915588531E+01  0.10093221488E+02  0.26360173843E+02  0.00000000000E+00 0.  1.
</event>
<event>
 4    1  0.1768739E+004  0.2364247E+02  0.7546771E-02  0.1484584E+00
         21   -1    0    0  503  502  0.00000000000E+00  0.00000000000E+00  0.99807435809E+00  0.99807435809E+00  0.00000000000E+00 0.  1.
         21   -1    0    0  501  503 -0.00000000000E+00 -0.00000000000E+00 -0.10985601335E+04  0.10985601335E+04  0.00000000000E+00 0. -1.
          2    1    1    2  501    0 -0.20377776600E+02  0.11988014939E+02 -0.93370537342E+03  0.93400465236E+03  0.00000000000E+00 0. -1.
         -2    1    1    2    0  502  0.20377776600E+02 -0.11988014939E+02 -0.16385668567E+03  0.16555355545E+03  0.00000000000E+00 0.  1.
</event>
<event>
 4    1  0.1768739E+004  0.2499726E+02  0.7546771E-02  0.1468834E+00
         21   -1    0    0  501  502  0.00000000000E+00  0.00000000000E+00  0.24660329435E+02  0.24660329435E+02  0.00000000000E+00 0. -1.
         21   -1    0    0  502  503 -0.00000000000E+00 -0.00000000000E+00 -0.26798507109E+02  0.26798507109E+02  0.00000000000E+00 0.  1.
          2    1    1    2  501    0  0.24511413852E+02  0.49044220850E+01  0.49358679107E+01  0.25479904966E+02  0.00000000000E+00 0. -1.
         -2    1    1    2    0  503 -0.24511413852E+02 -0.49044220850E+01 -0.70740455845E+01  0.25978931579E+02  0.00000000000E+00 0.  1.
</event>
<event>
 4    1  0.1768739E+004  0.2850209E+02  0.7546771E-02  0.1433076E+00
         21   -1    0    0  501  502  0.00000000000E+00  0.00000000000E+00  0.30037223298E+03  0.30037223298E+03  0.00000000000E+00 0.  1.
         21   -1    0    0  502  503 -0.00000000000E+00 -0.00000000000E+00 -0.10639648373E+02  0.10639648373E+02  0.00000000000E+00 0. -1.
          2    1    1    2  501    0  0.28492836958E+02 -0.72608105101E+00  0.27916126557E+03  0.28061251068E+03  0.00000000000E+00 0.  1.
         -2    1    1    2    0  503 -0.28492836958E+02  0.72608105101E+00  0.10571319038E+02  0.30399370681E+02  0.00000000000E+00 0. -1.
</event>
<event>
 4    1  0.1768739E+004  0.2189348E+02  0.7546771E-02  0.1506881E+00
         21   -1    0    0  501  502  0.00000000000E+00  0.00000000000E+00  0.42663484399E+02  0.42663484399E+02  0.00000000000E+00 0.  1.
         21   -1    0    0  502  503 -0.00000000000E+00 -0.00000000000E+00 -0.22178983797E+02  0.22178983797E+02  0.00000000000E+00 0. -1.
          2    1    1    2  501    0 -0.20567599828E+02 -0.75032306961E+01  0.33016614489E+02  0.39615924397E+02  0.00000000000E+00 0.  1.
         -2    1    1    2    0  503  0.20567599828E+02  0.75032306961E+01 -0.12532113886E+02  0.25226543798E+02  0.00000000000E+00 0. -1.
</event>
<event>
 4    1  0.1768739E+004  0.2056433E+02  0.7546771E-02  0.1525577E+00
         21   -1    0    0  503  502  0.00000000000E+00  0.00000000000E+00  0.48491967600E+02  0.48491967600E+02  0.00000000000E+00 0. -1.
         21   -1    0    0  501  503 -0.00000000000E+00 -0.00000000000E+00 -0.90476668123E+01  0.90476668123E+01  0.00000000000E+00 0.  1.
          2    1    1    2  501    0 -0.19491432008E+02  0.65556006354E+01  0.25189944459E+02  0.32518073794E+02  0.00000000000E+00 0. -1.
         -2    1    1    2    0  502  0.19491432008E+02 -0.65556006354E+01  0.14254356329E+02  0.25021560618E+02  0.00000000000E+00 0.  1.
</event>
<event>
 4    1  0.1768739E+004  0.3150824E+02  0.7546771E-02  0.1406927E+00
         21   -1    0    0  501  502  0.00000000000E+00  0.00000000000E+00  0.35364299988E+02  0.35364299988E+02  0.00000000000E+00 0. -1.
         21   -1    0    0  502  503 -0.00000000000E+00 -0.00000000000E+00 -0.31137496701E+02  0.31137496701E+02  0.00000000000E+00 0.  1.
          2    1    1    2  501    0  0.31247123049E+02 -0.40480168320E+01  0.12545384624E+02  0.33913947196E+02  0.00000000000E+00 0.  1.
         -2    1    1    2    0  503 -0.31247123049E+02  0.40480168320E+01 -0.83185813373E+01  0.32587849493E+02  0.00000000000E+00 0. -1.
</event>
<event>
 4    1  0.1768739E+004  0.2967392E+02  0.7546771E-02  0.1422452E+00
         21   -1    0    0  501  502  0.00000000000E+00  0.00000000000E+00  0.18140432477E+02  0.18140432477E+02  0.00000000000E+00 0.  1.
         21   -1    0    0  502  503 -0.00000000000E+00 -0.00000000000E+00 -0.12259901940E+03  0.12259901940E+03  0.00000000000E+00 0. -1.
          2    1    1    2  501    0  0.10560356932E+02  0.27731211907E+02  0.24635605869E+01  0.29776003478E+02  0.00000000000E+00 0.  1.
         -2    1    1    2    0  503 -0.10560356932E+02 -0.27731211907E+02 -0.10692214751E+03  0.11096344840E+03  0.00000000000E+00 0. -1.
</event>
<event>
 4    1  0.1768739E+004  0.2989169E+02  0.7546771E-02  0.1420540E+00
         21   -1    0    0  501  502  0.00000000000E+00  0.00000000000E+00  0.68894308176E+01  0.68894308176E+01  0.00000000000E+00 0.  1.
         21   -1    0    0  502  503 -0.00000000000E+00 -0.00000000000E+00 -0.17369423179E+03  0.17369423179E+03  0.00000000000E+00 0. -1.
          2    1    1    2  501    0  0.26386118585E+02  0.14045855995E+02 -0.37957361494E+02  0.48314331375E+02  0.00000000000E+00 0.  1.
         -2    1    1    2    0  503 -0.26386118585E+02 -0.14045855995E+02 -0.12884743948E+03  0.13226933124E+03  0.00000000000E+00 0. -1.
</event>
<event>
 4    1  0.1768739E+004  0.4666638E+02  0.7546771E-02  0.1313311E+00
         21   -1    0    0  503  502  0.00000000000E+00  0.00000000000E+00  0.55409243900E+02  0.55409243900E+02  0.00000000000E+00 0. -1.
         21   -1    0    0  501  503 -0.00000000000E+00 -0.00000000000E+00 -0.62956183227E+02  0.62956183227E+02  0.00000000000E+00 0.  1.
          2    1    1    2  501    0  0.44669733707E+02 -0.13504285285E+02 -0.40049541924E+02  0.61495663578E+02  0.00000000000E+00 0.  1.
         -2    1    1    2    0  502 -0.44669733707E+02  0.13504285285E+02  0.32502602598E+02  0.56869763549E+02  0.00000000000E+00 0. -1.
</event>
<event>
 4    1  0.1768739E+004  0.2089619E+02  0.7546771E-02  0.1520752E+00
         21   -1    0    0  503  502  0.00000000000E+00  0.00000000000E+00  0.87418011454E+02  0.87418011454E+02  0.00000000000E+00 0. -1.
         21   -1    0    0  501  503 -0.00000000000E+00 -0.00000000000E+00 -0.11964132862E+03  0.11964132862E+03  0.00000000000E+00 0.  1.
          2    1    1    2  501    0  0.20181062344E+02  0.54199125032E+01 -0.11745712845E+03  0.11930141556E+03  0.00000000000E+00 0.  1.
         -2    1    1    2    0  502 -0.20181062344E+02 -0.54199125032E+01  0.85233811289E+02  0.87757924518E+02  0.00000000000E+00 0. -1.
</event>
<event>
 4    1  0.1768739E+004  0.2257607E+02  0.7546771E-02  0.1497891E+00
         21   -1    0    0  501  502  0.00000000000E+00  0.00000000000E+00  0.58935858076E+03  0.58935858076E+03  0.00000000000E+00 0. -1.
         21   -1    0    0  502  503 -0.00000000000E+00 -0.00000000000E+00 -0.11826123658E+02  0.11826123658E+02  0.00000000000E+00 0.  1.
          2    1    1    2  501    0  0.17220232273E+02  0.14599408472E+02  0.57815931942E+03  0.57859992893E+03  0.00000000000E+00 0. -1.
         -2    1    1    2    0  503 -0.17220232273E+02 -0.14599408472E+02 -0.62686232214E+00  0.22584775483E+02  0.00000000000E+00 0.  1.
</event>
<event>
 4    1  0.1768739E+004  0.2129632E+02  0.7546771E-02  0.1515076E+00
         21   -1    0    0  503  502  0.00000000000E+00  0.00000000000E+00  0.55990664010E+02  0.55990664010E+02  0.00000000000E+00 0.  1.
         21   -1    0    0  501  503 -0.00000000000E+00 -0.00000000000E+00 -0.17197600079E+02  0.17197600079E+02  0.00000000000E+00 0. -1.
          2    1    1    2  501    0 -0.15148739751E+02 -0.14968256978E+02 -0.72191292332E+01  0.22486637363E+02  0.00000000000E+00 0. -1.
         -2    1    1    2    0  502  0.15148739751E+02  0.14968256978E+02  0.46012193164E+02  0.50701626727E+02  0.00000000000E+00 0.  1.
</event>
<event>
 4    1  0.1768739E+004  0.3181681E+02  0.7546771E-02  0.1404439E+00
         21   -1    0    0  503  502  0.00000000000E+00  0.00000000000E+00  0.11055214230E+02  0.11055214230E+02  0.00000000000E+00 0.  1.
         21   -1    0    0  501  503 -0.00000000000E+00 -0.00000000000E+00 -0.92644987840E+02  0.92644987840E+02  0.00000000000E+00 0. -1.
          2    1    1    2  501    0 -0.23820989390E+02 -0.21091944003E+02 -0.46383944438E+02  0.56247488290E+02  0.00000000000E+00 0.  1.
         -2    1    1    2    0  502  0.23820989390E+02  0.21091944003E+02 -0.35205829172E+02  0.47452713780E+02  0.00000000000E+00 0. -1.
</event>
<event>
 4    1  0.1768739E+004  0.2007940E+02  0.7546771E-02  0.1532825E+00
         21   -1    0    0  503  502  0.00000000000E+00  0.00000000000E+00  0.72791849575E+01  0.72791849575E+01  0.00000000000E+00 0.  1.
         21   -1    0    0  501  503 -0.00000000000E+00 -0.00000000000E+00 -0.71139840809E+02  0.71139840809E+02  0.00000000000E+00 0. -1.
          2    1    1    2  501    0  0.10574259370E+02 -0.17069486733E+02 -0.50380281465E+02  0.54234261303E+02  0.00000000000E+00 0. -1.
         -2    1    1    2    0  502 -0.10574259370E+02  0.17069486733E+02 -0.13480374386E+02  0.24184764464E+02  0.00000000000E+00 0.  1.
</event>
<event>
 4    1  0.1768739E+004  0.2728974E+02  0.7546771E-02  0.1444719E+00
         21   -1    0    0  503  502  0.00000000000E+00  0.00000000000E+00  0.16333111936E+01  0.16333111936E+01  0.00000000000E+00 0. -1.
         21   -1    0    0  501  503 -0.00000000000E+00 -0.00000000000E+00 -0.68529596769E+03  0.68529596769E+03  0.00000000000E+00 0.  1.
          2    1    1    2  501    0 -0.25050747843E+02  0.10825433901E+02 -0.54052127383E+03  0.54120973518E+03  0.00000000000E+00 0.  1.
         -2    1    1    2    0  502  0.25050747843E+02 -0.10825433901E+02 -0.14314138266E+03  0.14571954371E+03  0.00000000000E+00 0. -1.
</event>
<event>
 4    1  0.1768739E+004  0.2317762E+02  0.7546771E-02  0.1490280E+00
         21   -1    0    0  501  502  0.00000000000E+00  0.00000000000E+00  0.99801194518E+01  0.99801194518E+01  0.00000000000E+00 0. -1.
         21   -1    0    0  502  503 -0.00000000000E+00 -0.00000000000E+00 -0.10585618809E+03  0.10585618809E+03  0.00000000000E+00 0.  1.
          2    1    1    2  501    0  0.22937801063E+02  0.33255695922E+01 -0.73330664251E+01  0.24309997818E+02  0.00000000000E+00 0. -1.
         -2    1    1    2    0  503 -0.22937801063E+02 -0.33255695922E+01 -0.88543002214E+02  0.91526309724E+02  0.00000000000E+00 0.  1.
</event>
<event>
 4    1  0.1768739E+004  0.2470418E+02  0.7546771E-02  0.1472140E+00
         21   -1    0    0  501  502  0.00000000000E+00  0.00000000000E+00  0.70198761490E+03  0.70198761490E+03  0.00000000000E+00 0. -1.
         21   -1    0    0  502  503 -0.00000000000E+00 -0.00000000000E+00 -0.90898255477E+00  0.90898255477E+00  0.00000000000E+00 0.  1.
          2    1    1    2  501    0  0.23321515578E+02  0.81488180986E+01  0.27718476699E+03  0.27828347306E+03  0.00000000000E+00 0.  1.
         -2    1    1    2    0  503 -0.23321515578E+02 -0.81488180986E+01  0.42389386535E+03  0.42461312439E+03  0.00000000000E+00 0. -1.
</event>
<event>
 4    1  0.1768739E+004  0.2181185E+02  0.7546771E-02  0.1507982E+00
         21   -1    0    0  503  502  0.00000000000E+00  0.00000000000E+00  0.12884870317E+04  0.12884870317E+04  0.00000000000E+00 0. -1.
         21   -1    0    0  501  503 -0.00000000000E+00 -0.00000000000E+00 -0.51746514066E+00  0.51746514066E+00  0.00000000000E+00 0.  1.
          2    1    1    2  501    0  0.11292114894E+02  0.18661327427E+02  0.29904021094E+03  0.29983462902E+03  0.00000000000E+00 0.  1.
         -2    1    1    2    0  502 -0.11292114894E+02 -0.18661327427E+02  0.98892935565E+03  0.98916986785E+03  0.00000000000E+00 0. -1.
</event>
<event>
 4    1  0.1768739E+004  0.4779093E+02  0.7546771E-02  0.1308045E+00
         21   -1    0    0  501  502  0.00000000000E+00  0.00000000000E+00  0.22182709479E+03  0.22182709479E+03  0.00000000000E+00 0. -1.
         21   -1    0    0  502  503 -0.00000000000E+00 -0.00000000000E+00 -0.10601427421E+02  0.10601427421E+02  0.00000000000E+00 0.  1.
          2    1    1    2  501    0 -0.73288626023E+01 -0.47225638198E+02  0.12533245896E+03  0.13413500065E+03  0.00000000000E+00 0. -1.
         -2    1    1    2    0  503  0.73288626023E+01  0.47225638198E+02  0.85893208401E+02  0.98293521555E+02  0.00000000000E+00 0.  1.
</event>
<event>
 4    1  0.1768739E+004  0.3508683E+02  0.7546771E-02  0.1379954E+00
         21   -1    0    0  503  502  0.00000000000E+00  0.00000000000E+00  0.14805924085E+02  0.14805924085E+02  0.00000000000E+00 0. -1.
         21   -1    0    0  501  503 -0.00000000000E+00 -0.00000000000E+00 -0.14795737928E+03  0.14795737928E+03  0.00000000000E+00 0.  1.
          2    1    1    2  501    0  0.33372207180E+02  0.10834273529E+02 -0.12043698655E+03  0.12544382577E+03  0.00000000000E+00 0.  1.
         -2    1    1    2    0  502 -0.33372207180E+02 -0.10834273529E+02 -0.12714468645E+02  0.37319477594E+02  0.00000000000E+00 0. -1.
</event>
<event>
 4    1  0.1768739E+004  0.2775288E+02  0.7546771E-02  0.1440188E+00
         21   -1    0    0  501  502  0.00000000000E+00  0.00000000000E+00  0.43063047010E+02  0.43063047010E+02  0.00000000000E+00 0. -1.
         21   -1    0    0  502  503 -0.00000000000E+00 -0.00000000000E+00 -0.17959920597E+02  0.17959920597E+02  0.00000000000E+00 0.  1.
          2    1    1    2  501    0  0.14107556159E+02 -0.23899775416E+02  0.14510027491E+02  0.31317140730E+02  0.00000000000E+00 0.  1.
         -2    1    1    2    0  503 -0.14107556159E+02  0.23899775416E+02  0.10593098922E+02  0.29705826878E+02  0.00000000000E+00 0. -1.
</event>
<event>
 4    1  0.1768739E+004  0.2314311E+02  0.7546771E-02  0.1490709E+00
         21   -1    0    0  501  502  0.00000000000E+00  0.00000000000E+00  0.80672868096E+02  0.80672868096E+02  0.00000000000E+00 0. -1.
         21   -1    0    0  502  503 -0.00000000000E+00 -0.00000000000E+00 -0.94987427655E+01  0.94987427655E+01  0.00000000000E+00 0.  1.
          2    1    1    2  501    0 -0.10175169219E+02 -0.20786286325E+02  0.60324495738E+02  0.64611520288E+02  0.00000000000E+00 0. -1.
         -2    1    1    2    0  503  0.10175169219E+02  0.20786286325E+02  0.10849629592E+02  0.25560090573E+02  0.00000000000E+00 0.  1.
</event>
<event>
 4    1  0.1768739E+004  0.2063461E+02  0.7546771E-02  0.1524546E+00
         21   -1    0    0  503  502  0.00000000000E+00  0.00000000000E+00  0.25635598245E+01  0.25635598245E+01  0.00000000000E+00 0.  1.
         21   -1    0    0  501  503 -0.00000000000E+00 -0.00000000000E+00 -0.23874037963E+03  0.23874037963E+03  0.00000000000E+00 0. -1.
          2    1    1    2  501    0 -0.86153802435E+00 -0.20616614222E+02 -0.18464394038E+03  0.18579335766E+03  0.00000000000E+00 0. -1.
         -2    1    1    2    0  502  0.86153802435E+00  0.20616614222E+02 -0.51532879419E+02  0.55510581793E+02  0.00000000000E+00 0.  1.
</event>
<event>
 4    1  0.1768739E+004  0.2194998E+02  0.7546771E-02  0.1506122E+00
         21   -1    0    0  501  502  0.00000000000E+00  0.00000000000E+00  0.10054236453E+02  0.10054236453E+02  0.00000000000E+00 0.  1.
         21   -1    0    0  502  503 -0.00000000000E+00 -0.00000000000E+00 -0.74387398942E+02  0.74387398942E+02  0.00000000000E+00 0. -1.
          2    1    1    2  501    0 -0.21940858060E+02  0.63282561798E+00 -0.69822528385E+01  0.23033748618E+02  0.00000000000E+00 0.  1.
         -2    1    1    2    0  503  0.21940858060E+02 -0.63282561798E+00 -0.57350909651E+02  0.61407886777E+02  0.00000000000E+00 0. -1.
</event>
<event>
 4    1  0.1768739E+004  0.2101482E+02  0.7546771E-02  0.1519053E+00
         21   -1    0    0  501  502  0.00000000000E+00  0.00000000000E+00  0.14423804623E+02  0.14423804623E+02  0.00000000000E+00 0.  1.
         21   -1    0    0  502  503 -0.00000000000E+00 -0.00000000000E+00 -0.30951133093E+02  0.30951133093E+02  0.00000000000E+00 0. -1.
          2    1    1    2  501    0  0.18059822243E+02  0.10745494285E+02 -0.10618673220E+02  0.23545255315E+02  0.00000000000E+00 0.  1.
         -2    1    1    2    0  503 -0.18059822243E+02 -0.10745494285E+02 -0.59086552489E+01  0.21829682401E+02  0.00000000000E+00 0. -1.
</event>
<event>
 4    1  0.1768739E+004  0.4561538E+02  0.7546771E-02  0.1318391E+00
         21   -1    0    0  503  502  0.00000000000E+00  0.00000000000E+00  0.31040692218E+02  0.31040692218E+02  0.00000000000E+00 0.  1.
         21   -1    0    0  501  503 -0.00000000000E+00 -0.00000000000E+00 -0.12142638717E+03  0.12142638717E+03  0.00000000000E+00 0. -1.
          2    1    1    2  501    0  0.31683389206E+02 -0.32816541089E+02 -0.96215270978E+02  0.10648070666E+03  0.00000000000E+00 0. -1.
         -2    1    1    2    0  502 -0.31683389206E+02  0.32816541089E+02  0.58295760240E+01  0.45986372734E+02  0.00000000000E+00 0.  1.
</event>
<event>
 4    1  0.1768739E+004  0.2718292E+02  0.7546771E-02  0.1445779E+00
         21   -1    0    0  501  502  0.00000000000E+00  0.00000000000E+00  0.88545020637E+03  0.88545020637E+03  0.00000000000E+00 0.  1.
         21   -1    0    0  502  503 -0.00000000000E+00 -0.00000000000E+00 -0.14334186069E+01  0.14334186069E+01  0.00000000000E+00 0. -1.
          2    1    1    2  501    0  0.74207851929E+01 -0.26150393028E+02  0.72864577862E+03  0.72915264644E+03  0.00000000000E+00 0.  1.
         -2    1    1    2    0  503 -0.74207851929E+01  0.26150393028E+02  0.15537100914E+03  0.15773097854E+03  0.00000000000E+00 0. -1.
</event>
<event>
 4    1  0.1768739E+004  0.4214511E+02  0.7546771E-02  0.1336354E+00
         21   -1    0    0  501  502  0.00000000000E+00  0.00000000000E+00  0.82033517485E+01  0.82033517485E+01  0.00000000000E+00 0. -1.
         21   -1    0    0  502  503 -0.00000000000E+00 -0.00000000000E+00 -0.45767489550E+03  0.45767489550E+03  0.00000000000E+00 0.  1.
          2    1    1    2  501    0 -0.27243823456E+02 -0.32155632363E+02 -0.55648997173E+02  0.69807030416E+02  0.00000000000E+00 0. -1.
         -2    1    1    2    0  503  0.27243823456E+02  0.32155632363E+02 -0.39382254658E+03  0.39607121683E+03  0.00000000000E+00 0.  1.
</event>
<event>
 4    1  0.1768739E+004  0.2488637E+02  0.7546771E-02  0.1470079E+00
         21   -1    0    0  503  502  0.00000000000E+00  0.00000000000E+00  0.11589625754E+04  0.11589625754E+04  0.00000000000E+00 0. -1.
         21   -1    0    0  501  503 -0.00000000000E+00 -0.00000000000E+00 -0.21350595092E+01  0.21350595092E+01  0.00000000000E+00 0.  1.
          2    1    1    2  501    0 -0.11859554945E+02  0.21878808496E+02  0.75740972073E+02  0.79724689747E+02  0.00000000000E+00 0.  1.
         -2    1    1    2    0  502  0.11859554945E+02 -0.21878808496E+02  0.10810865438E+04  0.10813729452E+04  0.00000000000E+00 0. -1.
</event>
<event>
 4    1  0.1768739E+004  0.3321115E+02  0.7546771E-02  0.1393595E+00
         21   -1    0    0  501  502  0.00000000000E+00  0.00000000000E+00  0.12222322070E+03  0.12222322070E+03  0.00000000000E+00 0. -1.
         21   -1    0    0  502  503 -0.00000000000E+00 -0.00000000000E+00 -0.13363997914E+02  0.13363997914E+02  0.00000000000E+00 0.  1.
          2    1    1    2  501    0 -0.22265691031E+02  0.24641818560E+02  0.93061844377E+02  0.98810359264E+02  0.00000000000E+00 0. -1.
         -2    1    1    2    0  503  0.22265691031E+02 -0.24641818560E+02  0.15797378407E+02  0.36776859349E+02  0.00000000000E+00 0.  1.
</event>
<event>
 4    1  0.1768739E+004  0.2001066E+02  0.7546771E-02  0.1533873E+00
         21   -1    0    0  503  502  0.00000000000E+00  0.00000000000E+00  0.65007318931E+01  0.65007318931E+01  0.00000000000E+00 0. -1.
         21   -1    0    0  501  503 -0.00000000000E+00 -0.00000000000E+00 -0.64446928557E+02  0.64446928557E+02  0.00000000000E+00 0.  1.
          2    1    1    2  501    0  0.16438621366E+01  0.19943020183E+02 -0.36432691048E+02  0.41566420506E+02  0.00000000000E+00 0.  1.
         -2    1    1    2    0  502 -0.16438621366E+01 -0.19943020183E+02 -0.21513505616E+02  0.29381239943E+02  0.00000000000E+00 0. -1.
</event>
<event>
 4    1  0.1768739E+004  0.3524251E+02  0.7546771E-02  0.1378866E+00
         21   -1    0    0  501  502  0.00000000000E+00  0.00000000000E+00  0.22939857844E+02  0.22939857844E+02  0.00000000000E+00 0. -1.
         21   -1    0    0  502  503 -0.00000000000E+00 -0.00000000000E+00 -0.63416230200E+02  0.63416230200E+02  0.00000000000E+00 0.  1.
          2    1    1    2  501    0 -0.35079522577E+02  0.33855503843E+01 -0.37270827581E+01  0.35439046284E+02  0.00000000000E+00 0. -1.
         -2    1    1    2    0  503  0.35079522577E+02 -0.33855503843E+01 -0.36749289597E+02  0.50917041760E+02  0.00000000000E+00 0.  1.
</event>
<event>
 4    1  0.1768739E+004  0.2131072E+02  0.7546771E-02  0.1514875E+00
         21   -1    0    0  503  502  0.00000000000E+00  0.00000000000E+00  0.16350134592E+02  0.16350134592E+02  0.00000000000E+00 0.  1.
         21   -1    0    0  501  503 -0.00000000000E+00 -0.00000000000E+00 -0.49341969336E+02  0.49341969336E+02  0.00000000000E+00 0. -1.
          2    1    1    2  501    0 -0.35850333213E+01  0.21007004115E+02 -0.38210732419E+02  0.43751648629E+02  0.00000000000E+00 0. -1.
         -2    1    1    2    0  502  0.35850333213E+01 -0.21007004115E+02  0.52188976748E+01  0.21940455299E+02  0.00000000000E+00 0.  1.
</event>
<event>
 4    1  0.1768739E+004  0.2751220E+02  0.7546771E-02  0.1442530E+00
         21   -1    0    0  501  502  0.00000000000E+00  0.00000000000E+00  0.42194125731E+02  0.42194125731E+02  0.00000000000E+00 0. -1.
         21   -1    0    0  502  503 -0.00000000000E+00 -0.00000000000E+00 -0.21780482334E+02  0.21780482334E+02  0.00000000000E+00 0.  1.
          2    1    1    2  501    0  0.22726124153E+02  0.15506264239E+02  0.23640427629E+02  0.36273830348E+02  0.00000000000E+00 0.  1.
         -2    1    1    2    0  503 -0.22726124153E+02 -0.15506264239E+02 -0.32267842322E+01  0.27700777717E+02  0.00000000000E+00 0. -1.
</event>
<event>
 4    1  0.1768739E+004  0.2506033E+02  0.7546771E-02  0.1468130E+00
         21   -1    0    0  501  502  0.00000000000E+00  0.00000000000E+00  0.15047051186E+02  0.15047051186E+02  0.00000000000E+00 0.  1.
         21   -1    0    0  502  503 -0.00000000000E+00 -0.00000000000E+00 -0.42022718370E+02  0.42022718370E+02  0.00000000000E+00 0. -1.
          2    1    1    2  501    0  0.33990291162E+01  0.24828748791E+02 -0.15840351353E+02  0.29646869927E+02  0.00000000000E+00 0. -1.
         -2    1    1    2    0  503 -0.33990291162E+01 -0.24828748791E+02 -0.11135315830E+02  0.27422899630E+02  0.00000000000E+00 0.  1.
</event>
<event>
 4    1  0.1768739E+004  0.2044410E+02  0.7546771E-02  0.1527352E+00
         21   -1    0    0  503  502  0.00000000000E+00  0.00000000000E+00  0.11157883174E+02  0.11157883174E+02  0.00000000000E+00 0.  1.
         21   -1    0    0  501  503 -0.00000000000E+00 -0.00000000000E+00 -0.52126440974E+02  0.52126440974E+02  0.00000000000E+00 0. -1.
          2    1    1    2  501    0 -0.13247707614E+02  0.15571109738E+02 -0.37269105138E+02  0.42508204070E+02  0.00000000000E+00 0. -1.
         -2    1    1    2    0  502  0.13247707614E+02 -0.15571109738E+02 -0.36994526620E+01  0.20776120078E+02  0.00000000000E+00 0.  1.
</event>
<event>
 4    1  0.1768739E+004  0.2648940E+02  0.7546771E-02  0.1452806E+00
         21   -1    0    0  503  502  0.00000000000E+00  0.00000000000E+00  0.38616167413E+01  0.38616167413E+01  0.00000000000E+00 0. -1.
         21   -1    0    0  501  503 -0.00000000000E+00 -0.00000000000E+00 -0.19843820685E+03  0.19843820685E+03  0.00000000000E+00 0.  1.
          2    1    1    2  501    0  0.26464280531E+02 -0.11532464572E+01 -0.67918657487E+02  0.72901523690E+02  0.00000000000E+00 0.  1.
         -2    1    1    2    0  502 -0.26464280531E+02  0.11532464572E+01 -0.12665793262E+03  0.12939829990E+03  0.00000000000E+00 0. -1.
</event>
<event>
 4    1  0.1768739E+004  0.4997610E+02  0.7546771E-02  0.1298276E+00
         21   -1    0    0  501  502  0.00000000000E+00  0.00000000000E+00  0.11559472867E+02  0.11559472867E+02  0.00000000000E+00 0.  1.
         21   -1    0    0  502  503 -0.00000000000E+00 -0.00000000000E+00 -0.25055988388E+03  0.25055988388E+03  0.00000000000E+00 0. -1.
          2    1    1    2  501    0  0.48704762814E+02 -0.11200733667E+02 -0.70872511667E+02  0.86720950556E+02  0.00000000000E+00 0.  1.
         -2    1    1    2    0  503 -0.48704762814E+02  0.11200733667E+02 -0.16812789934E+03  0.17539840619E+03  0.00000000000E+00 0. -1.
</event>
<event>
 4    1  0.1768739E+004  0.2585850E+02  0.7546771E-02  0.1459424E+00
         21   -1    0    0  501  502  0.00000000000E+00  0.00000000000E+00  0.51859293927E+03  0.51859293927E+03  0.00000000000E+00 0. -1.
         21   -1    0    0  502  503 -0.00000000000E+00 -0.00000000000E+00 -0.18080162655E+01  0.18080162655E+01  0.00000000000E+00 0.  1.
          2    1    1    2  501    0 -0.18035916758E+02 -0.18530186554E+02  0.39775285971E+03  0.39859252315E+03  0.00000000000E+00 0. -1.
         -2    1    1    2    0  503  0.18035916758E+02  0.18530186554E+02  0.11903206329E+03  0.12180843238E+03  0.00000000000E+00 0.  1.
</event>
<event>
 4    1  0.1768739E+004  0.2382861E+02  0.7546771E-02  0.1482347E+00
         21   -1    0    0  501  502  0.00000000000E+00  0.00000000000E+00  0.90574804525E+02  0.90574804525E+02  0.00000000000E+00 0.  1.
         21   -1    0    0  502  503 -0.00000000000E+00 -0.00000000000E+00 -0.94763307992E+01  0.94763307992E+01  0.00000000000E+00 0. -1.
          2    1    1    2  501    0 -0.17425798679E+02  0.16252508218E+02  0.69653190758E+02  0.73616366833E+02  0.00000000000E+00 0.  1.
         -2    1    1    2    0  503  0.17425798679E+02 -0.16252508218E+02  0.11445282968E+02  0.26434768491E+02  0.00000000000E+00 0. -1.
</event>
<event>
 4    1  0.1768739E+004  0.2263688E+02  0.7546771E-02  0.1497109E+00
         21   -1    0    0  503  502  0.00000000000E+00  0.00000000000E+00  0.36439275282E+01  0.36439275282E+01  0.00000000000E+00 0.  1.
         21   -1    0    0  501  503 -0.00000000000E+00 -0.00000000000E+00 -0.11781095310E+04  0.11781095310E+04  0.00000000000E+00 0. -1.
          2    1    1    2  501    0 -0.16865877826E+02  0.15098698472E+02 -0.11417241784E+04  0.11419485663E+04  0.00000000000E+00 0. -1.
         -2    1    1    2    0  502  0.16865877826E+02 -0.15098698472E+02 -0.32741425128E+02  0.39804892284E+02  0.00000000000E+00 0.  1.
</event>
<event>
 4    1  0.1768739E+004  0.2566803E+02  0.7546771E-02  0.1461467E+00
         21   -1    0    0  503  502  0.00000000000E+00  0.00000000000E+00  0.79491442565E+01  0.79491442565E+01  0.00000000000E+00 0.  1.
         21   -1    0    0  501  503 -0.00000000000E+00 -0.00000000000E+00 -0.27616609265E+03  0.27616609265E+03  0.00000000000E+00 0. -1.
          2    1    1    2  501    0  0.33903970007E+01  0.25443137107E+02 -0.25295224221E+03  0.25425122391E+03  0.00000000000E+00 0. -1.
         -2    1    1    2    0  502 -0.33903970007E+01 -0.25443137107E+02 -0.15264706180E+02  0.29864012999E+02  0.00000000000E+00 0.  1.
</event>
<event>
 4    1  0.1768739E+004  0.2209664E+02  0.7546771E-02  0.1504164E+00
         21   -1    0    0  501  502  0.00000000000E+00  0.00000000000E+00  0.65425992714E+02  0.65425992714E+02  0.00000000000E+00 0.  1.
         21   -1    0    0  502  503 -0.00000000000E+00 -0.00000000000E+00 -0.92702985437E+01  0.92702985437E+01  0.00000000000E+00 0. -1.
          2    1    1    2  501    0  0.43314321950E+01  0.21667955752E+02  0.44569349380E+02  0.49746241219E+02  0.00000000000E+00 0.  1.
         -2    1    1    2    0  503 -0.43314321950E+01 -0.21667955752E+02  0.11586344790E+02  0.24950050038E+02  0.00000000000E+00 0. -1.
</event>
<event>
 4    1  0.1768739E+004  0.2716020E+02  0.7546771E-02  0.1446006E+00
         21   -1    0    0  501  502  0.00000000000E+00  0.00000000000E+00  0.17860061294E+03  0.17860061294E+03  0.00000000000E+00 0. -1.
         21   -1    0    0  502  503 -0.00000000000E+00 -0.00000000000E+00 -0.44651514252E+01  0.44651514252E+01  0.00000000000E+00 0.  1.
          2    1    1    2  501    0  0.13520748795E+02 -0.23555587061E+02  0.11213327067E+03  0.11537567647E+03  0.00000000000E+00 0. -1.
         -2    1    1    2    0  503 -0.13520748795E+02  0.23555587061E+02  0.62002190846E+02  0.67690087896E+02  0.00000000000E+00 0.  1.
</event>
<event>
 4    1  0.1768739E+004  0.4514406E+02  0.7546771E-02  0.1320721E+00
         21   -1    0    0  503  502  0.00000000000E+00  0.00000000000E+00  0.10043650218E+03  0.10043650218E+03  0.00000000000E+00 0. -1.
         21   -1    0    0  501  503 -0.00000000000E+00 -0.00000000000E+00 -0.67224991855E+02  0.67224991855E+02  0.00000000000E+00 0.  1.
          2    1    1    2  501    0  0.45104177226E+02 -0.18972233998E+01 -0.53439764078E+02  0.69955661991E+02  0.00000000000E+00 0.  1.
         -2    1    1    2    0  502 -0.45104177226E+02  0.18972233998E+01  0.86651274403E+02  0.97705832045E+02  0.00000000000E+00 0. -1.
</event>
<event>
 4    1  0.1768739E+004  0.2187874E+02  0.7546771E-02  0.1507079E+00
         21   -1    0    0  501  502  0.00000000000E+00  0.00000000000E+00  0.10709267093E+02  0.10709267093E+02  0.00000000000E+00 0.  1.
         21   -1    0    0  502  503 -0.00000000000E+00 -0.00000000000E+00 -0.62830832834E+02  0.62830832834E+02  0.00000000000E+00 0. -1.
          2    1    1    2  501    0 -0.78812685098E+00 -0.21864540164E+02 -0.63072571786E+01  0.22769733279E+02  0.00000000000E+00 0.  1.
         -2    1    1    2    0  503  0.78812685098E+00  0.21864540164E+02 -0.45814308563E+02  0.50770366648E+02  0.00000000000E+00 0. -1.
</event>
<event>
 4    1  0.1768739E+004  0.2246334E+02  0.7546771E-02  0.1499349E+00
         21   -1    0    0  503  502  0.00000000000E+00  0.00000000000E+00  0.41780292210E+02  0.41780292210E+02  0.00000000000E+00 0. -1.
         21   -1    0    0  501  503 -0.00000000000E+00 -0.00000000000E+00 -0.40404026367E+02  0.40404026367E+02  0.00000000000E+00 0.  1.
          2    1    1    2  501    0 -0.20288115043E+02 -0.96433321502E+01 -0.33718589420E+02  0.40515981284E+02  0.00000000000E+00 0.  1.
         -2    1    1    2    0  502  0.20288115043E+02  0.96433321502E+01  0.35094855262E+02  0.41668337294E+02  0.00000000000E+00 0. -1.
</event>
<event>
 4    1  0.1768739E+004  0.2003233E+02  0.7546771E-02  0.1533542E+00
         21   -1    0    0  501  502  0.00000000000E+00  0.00000000000E+00  0.49388011232E+02  0.49388011232E+02  0.00000000000E+00 0.  1.
         21   -1    0    0  502  503 -0.00000000000E+00 -0.00000000000E+00 -0.13509885463E+02  0.13509885463E+02  0.00000000000E+00 0. -1.
          2    1    1    2  501    0  0.14770607364E+02  0.13532316980E+02  0.37793371465E+02  0.42774213861E+02  0.00000000000E+00 0.  1.
         -2    1    1    2    0  503 -0.14770607364E+02 -0.13532316980E+02 -0.19152456951E+01  0.20123682834E+02  0.00000000000E+00 0. -1.
</event>
<event>
 4    1  0.1768739E+004  0.2045921E+02  0.7546771E-02  0.1527128E+00
         21   -1    0    0  501  502  0.00000000000E+00  0.00000000000E+00  0.26898078212E+01  0.26898078212E+01  0.00000000000E+00 0.  1.
         21   -1    0    0  502  503 -0.00000000000E+00 -0.00000000000E+00 -0.56437354558E+03  0.56437354558E+03  0.00000000000E+00 0. -1.
          2    1    1    2  501    0  0.20402722417E+02 -0.15193040748E+01 -0.39545541259E+02  0.44524478665E+02  0.00000000000E+00 0.  1.
         -2    1    1    2    0  503 -0.20402722417E+02  0.15193040748E+01 -0.52213819650E+03  0.52253887474E+03  0.00000000000E+00 0. -1.
</event>
<event>
 4    1  0.1768739E+004  0.2910584E+02  0.7546771E-02  0.1427529E+00
         21   -1    0    0  501  502  0.00000000000E+00  0.00000000000E+00  0.29616986104E+02  0.29616986104E+02  0.00000000000E+00 0. -1.
         21   -1    0    0  502  503 -0.00000000000E+00 -0.00000000000E+00 -0.31235280350E+02  0.31235280350E+02  0.00000000000E+00 0.  1.
          2    1    1    2  501    0  0.32856068178E+00  0.29103985105E+02 -0.96409151850E+01  0.30661003681E+02  0.00000000000E+00 0.  1.
         -2    1    1    2    0  503 -0.32856068178E+00 -0.29103985105E+02  0.80226209395E+01  0.30191262773E+02  0.00000000000E+00 0. -1.
</event>
<event>
 4    1  0.1768739E+004  0.2039813E+02  0.7546771E-02  0.1528034E+00
         21   -1    0    0  503  502  0.00000000000E+00  0.00000000000E+00  0.17617335197E+02  0.17617335197E+02  0.00000000000E+00 0.  1.
         21   -1    0    0  501  503 -0.00000000000E+00 -0.00000000000E+00 -0.29113238849E+02  0.29113238849E+02  0.00000000000E+00 0. -1.
          2    1    1    2  501    0 -0.11631784084E+02 -0.16756646795E+02 -0.15899329820E+02  0.25862565640E+02  0.00000000000E+00 0. -1.
         -2    1    1    2    0  502  0.11631784084E+02  0.16756646795E+02  0.44034261682E+01  0.20868008405E+02  0.00000000000E+00 0.  1.
</event>
<event>
 4    1  0.1768739E+004  0.2291856E+02  0.7546771E-02  0.1493523E+00
         21   -1    0    0  503  502  0.00000000000E+00  0.00000000000E+00  0.35462971196E+01  0.35462971196E+01  0.00000000000E+00 0.  1.
         21   -1    0    0  501  503 -0.00000000000E+00 -0.00000000000E+00 -0.24391832032E+03  0.24391832032E+03  0.00000000000E+00 0. -1.
          2    1    1    2  501    0  0.11761285170E+02 -0.19670605251E+02 -0.19773046025E+03  0.19905425253E+03  0.00000000000E+00 0. -1.
         -2    1    1    2    0  502 -0.11761285170E+02  0.19670605251E+02 -0.42641562950E+02  0.48410364909E+02  0.00000000000E+00 0.  1.
</event>
<event>
 4    1  0.1768739E+004  0.3506136E+02  0.7546771E-02  0.1380132E+00
         21   -1    0    0  501  502  0.00000000000E+00  0.00000000000E+00  0.20387340259E+02  0.20387340259E+02  0.00000000000E+00 0. -1.
         21   -1    0    0  502  503 -0.00000000000E+00 -0.00000000000E+00 -0.60323398931E+02  0.60323398931E+02  0.00000000000E+00 0.  1.
          2    1    1    2  501    0  0.61975204868E+01 -0.34509265389E+02 -0.20809726232E+02  0.40771845233E+02  0.00000000000E+00 0.  1.
         -2    1    1    2    0  503 -0.61975204868E+01  0.34509265389E+02 -0.19126332440E+02  0.39938893957E+02  0.00000000000E+00 0. -1.
</event>
<event>
 4    1  0.1768739E+004  0.3311587E+02  0.7546771E-02  0.1394316E+00
         21   -1    0    0  501  502  0.00000000000E+00  0.00000000000E+00  0.86198469691E+01  0.86198469691E+01  0.00000000000E+00 0. -1.
         21   -1    0    0  502  503 -0.00000000000E+00 -0.00000000000E+00 -0.14051833419E+03  0.14051833419E+03  0.00000000000E+00 0.  1.
          2    1    1    2  501    0 -0.39162599926E+01  0.32883490731E+02 -0.43013788064E+02  0.54284869150E+02  0.00000000000E+00 0. -1.
         -2    1    1    2    0  503  0.39162599926E+01 -0.32883490731E+02 -0.88884699157E+02  0.94853312010E+02  0.00000000000E+00 0.  1.
</event>
<event>
 4    1  0.1768739E+004  0.3392894E+02  0.7546771E-02  0.1388253E+00
         21   -1    0    0  501  502  0.00000000000E+00  0.00000000000E+00  0.96188293470E+02  0.96188293470E+02  0.00000000000E+00 0. -1.
         21   -1    0    0  502  503 -0.00000000000E+00 -0.00000000000E+00 -0.43684966482E+02  0.43684966482E+02  0.00000000000E+00 0.  1.
          2    1    1    2  501    0 -0.29369639393E+02 -0.16988144028E+02  0.85843276585E+02  0.92305150942E+02  0.00000000000E+00 0. -1.
         -2    1    1    2    0  503  0.29369639393E+02  0.16988144028E+02 -0.33339949598E+02  0.47568109010E+02  0.00000000000E+00 0.  1.
</event>
<event>
 4    1  0.1768739E+004  0.4074876E+02  0.7546771E-02  0.1344153E+00
         21   -1    0    0  503  502  0.00000000000E+00  0.00000000000E+00  0.32622955170E+01  0.32622955170E+01  0.00000000000E+00 0.  1.
         21   -1    0    0  501  503 -0.00000000000E+00 -0.00000000000E+00 -0.66498913475E+03  0.66498913475E+03  0.00000000000E+00 0. -1.
          2    1    1    2  501    0  0.19619333722E+02  0.35714743614E+02 -0.49269749201E+03  0.49437969194E+03  0.00000000000E+00 0. -1.
         -2    1    1    2    0  502 -0.19619333722E+02 -0.35714743614E+02 -0.16902934722E+03  0.17387173833E+03  0.00000000000E+00 0.  1.
</event>
<event>
 4    1  0.1768739E+004  0.3215134E+02  0.7546771E-02  0.1401778E+00
         21   -1    0    0  503  502  0.00000000000E+00  0.00000000000E+00  0.19662137534E+03  0.19662137534E+03  0.00000000000E+00 0. -1.
         21   -1    0    0  501  503 -0.00000000000E+00 -0.00000000000E+00 -0.52658274825E+01  0.52658274825E+01  0.00000000000E+00 0.  1.
          2    1    1    2  501    0  0.64562792816E+01  0.31496432839E+02  0.99726251827E+02  0.10478088627E+03  0.00000000000E+00 0.  1.
         -2    1    1    2    0  502 -0.64562792816E+01 -0.31496432839E+02  0.91629296034E+02  0.97106316557E+02  0.00000000000E+00 0. -1.
</event>
<event>
 4    1  0.1768739E+004  0.5274770E+02  0.7546771E-02  0.1286680E+00
         21   -1    0    0  501  502  0.00000000000E+00  0.00000000000E+00  0.21110832014E+03  0.21110832014E+03  0.00000000000E+00 0.  1.
         21   -1    0    0  502  503 -0.00000000000E+00 -0.00000000000E+00 -0.16273431025E+02  0.16273431025E+02  0.00000000000E+00 0. -1.
          2    1    1    2  501    0  0.50562763543E+02 -0.15024209814E+02  0.14698932945E+03  0.15616716335E+03  0.00000000000E+00 0.  1.
         -2    1    1    2    0  503 -0.50562763543E+02  0.15024209814E+02  0.47845559669E+02  0.71214587815E+02  0.00000000000E+00 0. -1.
</event>
<event>
 4    1  0.1768739E+004  0.2284089E+02  0.7546771E-02  0.1494506E+00
         21   -1    0    0  501  502  0.00000000000E+00  0.00000000000E+00  0.10215524086E+03  0.10215524086E+03  0.00000000000E+00 0. -1.
         21   -1    0    0  502  503 -0.00000000000E+00 -0.00000000000E+00 -0.76060809831E+01  0.76060809831E+01  0.00000000000E+00 0.  1.
          2    1    1    2  501    0  0.20452305377E+02 -0.10169039109E+02  0.78732469946E+02  0.81978704402E+02  0.00000000000E+00 0. -1.
         -2    1    1    2    0  503 -0.20452305377E+02  0.10169039109E+02  0.15816689936E+02  0.27782617446E+02  0.00000000000E+00 0.  1.
</event>
<event>
 4    1  0.1768739E+004  0.3170843E+02  0.7546771E-02  0.1405309E+00
         21   -1    0    0  501  502  0.00000000000E+00  0.00000000000E+00  0.13777189586E+02  0.13777189586E+02  0.00000000000E+00 0.  1.
         21   -1    0    0  502  503 -0.00000000000E+00 -0.00000000000E+00 -0.28996379117E+03  0.28996379117E+03  0.00000000000E+00 0. -1.
          2    1    1    2  501    0 -0.17168096059E+02  0.26658600339E+02 -0.67168016001E+01  0.32412033538E+02  0.00000000000E+00 0.  1.
         -2    1    1    2    0  503  0.17168096059E+02 -0.26658600339E+02 -0.26946979998E+03  0.27132894722E+03  0.00000000000E+00 0. -1.
</event>
<event>
 4    1  0.1768739E+004  0.2409980E+02  0.7546771E-02  0.1479131E+00
         21   -1    0    0  503  502  0.00000000000E+00  0.00000000000E+00  0.48331303233E+01  0.48331303233E+01  0.00000000000E+00 0.  1.
         21   -1    0    0  501  503 -0.00000000000E+00 -0.00000000000E+00 -0.20222878827E+03  0.20222878827E+03  0.00000000000E+00 0. -1.
          2    1    1    2  501    0 -0.23579496336E+02 -0.49807371450E+01 -0.16464703788E+03  0.16640146476E+03  0.00000000000E+00 0. -1.
         -2    1    1    2    0  502  0.23579496336E+02  0.49807371450E+01 -0.32748620061E+02  0.40660453832E+02  0.00000000000E+00 0.  1.
</event>
<event>
 4    1  0.1768739E+004  0.3348967E+02  0.7546771E-02  0.1391504E+00
         21   -1    0    0  503  502  0.00000000000E+00  0.00000000000E+00  0.52014537073E+01  0.52014537073E+01  0.00000000000E+00 0. -1.
         21   -1    0    0  501  503 -0.00000000000E+00 -0.00000000000E+00 -0.39058475330E+03  0.39058475330E+03  0.00000000000E+00 0.  1.
          2    1    1    2  501    0 -0.12541764300E+01  0.33466181156E+02 -0.32513902003E+03  0.32685920606E+03  0.00000000000E+00 0.  1.
         -2    1    1    2    0  502  0.12541764300E+01 -0.33466181156E+02 -0.60244279564E+02  0.68927000950E+02  0.00000000000E+00 0. -1.
</event>
<event>
 4    1  0.1768739E+004  0.3402955E+02  0.7546771E-02  0.1387517E+00
         21   -1    0    0  503  502  0.00000000000E+00  0.00000000000E+00  0.10675800426E+04  0.10675800426E+04  0.00000000000E+00 0.  1.
         21   -1    0    0  501  503 -0.00000000000E+00 -0.00000000000E+00 -0.63171986428E+01  0.63171986428E+01  0.00000000000E+00 0. -1.
          2    1    1    2  501    0  0.29809171281E+02  0.16414117995E+02  0.41951160506E+02  0.54017680715E+02  0.00000000000E+00 0. -1.
         -2    1    1    2    0  502 -0.29809171281E+02 -0.16414117995E+02  0.10193116835E+04  0.10198795606E+04  0.00000000000E+00 0.  1.
</event>
<event>
 4    1  0.1768739E+004  0.2792368E+02  0.7546771E-02  0.1438544E+00
         21   -1    0    0  503  502  0.00000000000E+00  0.00000000000E+00  0.18703681683E+03  0.18703681683E+03  0.00000000000E+00 0. -1.
         21   -1    0    0  501  503 -0.00000000000E+00 -0.00000000000E+00 -0.77904102115E+01  0.77904102115E+01  0.00000000000E+00 0.  1.
          2    1    1    2  501    0 -0.27886895786E+02 -0.14327840447E+01  0.23205132359E+02  0.36307161752E+02  0.00000000000E+00 0.  1.
         -2    1    1    2    0  502  0.27886895786E+02  0.14327840447E+01  0.15604127426E+03  0.15852006529E+03  0.00000000000E+00 0. -1.
</event>
<event>
 4    1  0.1768739E+004  0.2066931E+02  0.7546771E-02  0.1524039E+00
         21   -1    0    0  503  502  0.00000000000E+00  0.00000000000E+00  0.31838178701E+01  0.31838178701E+01  0.00000000000E+00 0. -1.
         21   -1    0    0  501  503 -0.00000000000E+00 -0.00000000000E+00 -0.51972436916E+03  0.51972436916E+03  0.00000000000E+00 0.  1.
          2    1    1    2  501    0 -0.15009818954E+02 -0.14210057751E+02 -0.48345727094E+03  0.48389890807E+03  0.00000000000E+00 0.  1.
         -2    1    1    2    0  502  0.15009818954E+02  0.14210057751E+02 -0.33083280353E+02  0.39009278964E+02  0.00000000000E+00 0. -1.
</event>
<event>
 4    1  0.1768739E+004  0.2246430E+02  0.7546771E-02  0.1499337E+00
         21   -1    0    0  501  502  0.00000000000E+00  0.00000000000E+00  0.13923664426E+02  0.13923664426E+02  0.00000000000E+00 0.  1.
         21   -1    0    0  502  503 -0.00000000000E+00 -0.00000000000E+00 -0.37516608922E+02  0.37516608922E+02  0.00000000000E+00 0. -1.
          2    1    1    2  501    0  0.16224522865E+02  0.15537366586E+02 -0.70588244936E+01  0.23547227137E+02  0.00000000000E+00 0.  1.
         -2    1    1    2    0  503 -0.16224522865E+02 -0.15537366586E+02 -0.16534120003E+02  0.27893046210E+02  0.00000000000E+00 0. -1.
</event>
<event>
 4    1  0.1768739E+004  0.2528192E+02  0.7546771E-02  0.1465674E+00
         21   -1    0    0  501  502  0.00000000000E+00  0.00000000000E+00  0.80489196633E+02  0.80489196633E+02  0.00000000000E+00 0.  1.
         21   -1    0    0  502  503 -0.00000000000E+00 -0.00000000000E+00 -0.79754653854E+01  0.79754653854E+01  0.00000000000E+00 0. -1.
          2    1    1    2  501    0 -0.20012990458E+02 -0.15448486113E+02  0.33354805823E+02  0.41853537267E+02  0.00000000000E+00 0.  1.
         -2    1    1    2    0  503  0.20012990458E+02  0.15448486113E+02  0.39158925424E+02  0.46611124751E+02  0.00000000000E+00 0. -1.
</event>
<event>
 4    1  0.1768739E+004  0.5808356E+02  0.7546771E-02  0.1266487E+00
         21   -1    0    0  503  502  0.00000000000E+00  0.00000000000E+00  0.55219578686E+03  0.55219578686E+03  0.00000000000E+00 0. -1.
         21   -1    0    0  501  503 -0.00000000000E+00 -0.00000000000E+00 -0.40590343822E+02  0.40590343822E+02  0.00000000000E+00 0.  1.
          2    1    1    2  501    0 -0.42695972442E+01  0.57926425995E+02 -0.17374781001E+02  0.60626589085E+02  0.00000000000E+00 0.  1.
         -2    1    1    2    0  502  0.42695972442E+01 -0.57926425995E+02  0.52898022404E+03  0.53215954160E+03  0.00000000000E+00 0. -1.
</event>
<event>
 4    1  0.1768739E+004  0.2030887E+02  0.7546771E-02  0.1529365E+00
         21   -1    0    0  503  502  0.00000000000E+00  0.00000000000E+00  0.22924176036E+02  0.22924176036E+02  0.00000000000E+00 0. -1.
         21   -1    0    0  501  503 -0.00000000000E+00 -0.00000000000E+00 -0.27323953083E+02  0.27323953083E+02  0.00000000000E+00 0.  1.
          2    1    1    2  501    0 -0.16934100360E+02 -0.11210993325E+02 -0.16882593831E+02  0.26409697098E+02  0.00000000000E+00 0.  1.
         -2    1    1    2    0  502  0.16934100360E+02  0.11210993325E+02  0.12482816785E+02  0.23838432021E+02  0.00000000000E+00 0. -1.
</event>
<event>
 4    1  0.1768739E+004  0.4261287E+02  0.7546771E-02  0.1333819E+00
         21   -1    0    0  503  502  0.00000000000E+00  0.00000000000E+00  0.94964827904E+02  0.94964827904E+02  0.00000000000E+00 0.  1.
         21   -1    0    0  501  503 -0.00000000000E+00 -0.00000000000E+00 -0.23351190401E+02  0.23351190401E+02  0.00000000000E+00 0. -1.
          2    1    1    2  501    0 -0.39311494221E+02 -0.16445756584E+02  0.10628854708E+02  0.43918436219E+02  0.00000000000E+00 0. -1.
         -2    1    1    2    0  502  0.39311494221E+02  0.16445756584E+02  0.60984782796E+02  0.74397582086E+02  0.00000000000E+00 0.  1.
</event>
<event>
 4    1  0.1768739E+004  0.2314169E+02  0.7546771E-02  0.1490727E+00
         21   -1    0    0  503  502  0.00000000000E+00  0.00000000000E+00  0.56795420485E+01  0.56795420485E+01  0.00000000000E+00 0.  1.
         21   -1    0    0  501  503 -0.00000000000E+00 -0.00000000000E+00 -0.10537803667E+03  0.10537803667E+03  0.00000000000E+00 0. -1.
          2    1    1    2  501    0 -0.22732945375E+02  0.43302530721E+01 -0.67859616853E+02  0.71697039664E+02  0.00000000000E+00 0.  1.
         -2    1    1    2    0  502  0.22732945375E+02 -0.43302530721E+01 -0.31838877767E+02  0.39360539054E+02  0.00000000000E+00 0. -1.
</event>
<event>
 4    1  0.1768739E+004  0.2946680E+02  0.7546771E-02  0.1424287E+00
         21   -1    0    0  503  502  0.00000000000E+00  0.00000000000E+00  0.40015405546E+02  0.40015405546E+02  0.00000000000E+00 0.  1.
         21   -1    0    0  501  503 -0.00000000000E+00 -0.00000000000E+00 -0.35135027963E+02  0.35135027963E+02  0.00000000000E+00 0. -1.
          2    1    1    2  501    0  0.29466251028E+02 -0.17943324899E+00 -0.20796147657E+02  0.36066215539E+02  0.00000000000E+00 0.  1.
         -2    1    1    2    0  502 -0.29466251028E+02  0.17943324899E+00  0.25676525240E+02  0.39084217970E+02  0.00000000000E+00 0. -1.
</event>
<event>
 4    1  0.1768739E+004  0.3177150E+02  0.7546771E-02  0.1404802E+00
         21   -1    0    0  501  502  0.00000000000E+00  0.00000000000E+00  0.87256834229E+01  0.87256834229E+01  0.00000000000E+00 0. -1.
         21   -1    0    0  502  503 -0.00000000000E+00 -0.00000000000E+00 -0.12027485136E+03  0.12027485136E+03  0.00000000000E+00 0.  1.
          2    1    1    2  501    0  0.30827237210E+02  0.76882706929E+01 -0.43174087653E+02  0.53604383262E+02  0.00000000000E+00 0.  1.
         -2    1    1    2    0  503 -0.30827237210E+02 -0.76882706929E+01 -0.68375080283E+02  0.75396151520E+02  0.00000000000E+00 0. -1.
</event>
<event>
 4    1  0.1768739E+004  0.2503038E+02  0.7546771E-02  0.1468464E+00
         21   -1    0    0  503  502  0.00000000000E+00  0.00000000000E+00  0.39205571755E+02  0.39205571755E+02  0.00000000000E+00 0. -1.
         21   -1    0    0  501  503 -0.00000000000E+00 -0.00000000000E+00 -0.17735560250E+02  0.17735560250E+02  0.00000000000E+00 0.  1.
          2    1    1    2  501    0  0.24555763067E+02  0.48512437463E+01  0.17785931241E+01  0.25093494360E+02  0.00000000000E+00 0.  1.
         -2    1    1    2    0  502 -0.24555763067E+02 -0.48512437463E+01  0.19691418381E+02  0.31847637645E+02  0.00000000000E+00 0. -1.
</event>
<event>
 4    1  0.1768739E+004  0.2218497E+02  0.7546771E-02  0.1502994E+00
         21   -1    0    0  503  502  0.00000000000E+00  0.00000000000E+00  0.32836933091E+02  0.32836933091E+02  0.00000000000E+00 0.  1.
         21   -1    0    0  501  503 -0.00000000000E+00 -0.00000000000E+00 -0.16145085510E+02  0.16145085510E+02  0.00000000000E+00 0. -1.
          2    1    1    2  501    0 -0.14269731954E+02 -0.16986690808E+02  0.14901262657E+02  0.26724904929E+02  0.00000000000E+00 0.  1.
         -2    1    1    2    0  502  0.14269731954E+02  0.16986690808E+02  0.17905849235E+01  0.22257113673E+02  0.00000000000E+00 0. -1.
</event>
<event>
 4    1  0.1768739E+004  0.2580095E+02  0.7546771E-02  0.1460039E+00
         21   -1    0    0  503  502  0.00000000000E+00  0.00000000000E+00  0.78298514525E+01  0.78298514525E+01  0.00000000000E+00 0. -1.
         21   -1    0    0  501  503 -0.00000000000E+00 -0.00000000000E+00 -0.44261432239E+03  0.44261432239E+03  0.00000000000E+00 0.  1.
          2    1    1    2  501    0  0.24953927247E+02 -0.65567086513E+01 -0.41983112505E+03  0.42062318348E+03  0.00000000000E+00 0.  1.
         -2    1    1    2    0  502 -0.24953927247E+02  0.65567086513E+01 -0.14953345885E+02  0.29820990368E+02  0.00000000000E+00 0. -1.
</event>
<event>
 4    1  0.1768739E+004  0.2751425E+02  0.7546771E-02  0.1442510E+00
         21   -1    0    0  501  502  0.00000000000E+00  0.00000000000E+00  0.40539534258E+01  0.40539534258E+01  0.00000000000E+00 0.  1.
         21   -1    0    0  502  503 -0.00000000000E+00 -0.00000000000E+00 -0.20267664105E+03  0.20267664105E+03  0.00000000000E+00 0. -1.
          2    1    1    2  501    0  0.27060177499E+02 -0.49780370230E+01 -0.70326207277E+02  0.75516948355E+02  0.00000000000E+00 0.  1.
         -2    1    1    2    0  503 -0.27060177499E+02  0.49780370230E+01 -0.12829648035E+03  0.13121364613E+03  0.00000000000E+00 0. -1.
</event>
<event>
 4    1  0.1768739E+004  0.4817138E+02  0.7546771E-02  0.1306301E+00
         21   -1    0    0  503  502  0.00000000000E+00  0.00000000000E+00  0.90139995756E+01  0.90139995756E+01  0.00000000000E+00 0.  1.
         21   -1    0    0  501  503 -0.00000000000E+00 -0.00000000000E+00 -0.27990072724E+03  0.27990072724E+03  0.00000000000E+00 0. -1.
          2    1    1    2  501    0 -0.19352112636E+02  0.44113241118E+02 -0.17637293881E+03  0.18283297254E+03  0.00000000000E+00 0. -1.
         -2    1    1    2    0  502  0.19352112636E+02 -0.44113241118E+02 -0.94513788853E+02  0.10608175427E+03  0.00000000000E+00 0.  1.
</event>
<event>
 4    1  0.1768739E+004  0.2653332E+02  0.7546771E-02  0.1452353E+00
         21   -1    0    0  503  502  0.00000000000E+00  0.00000000000E+00  0.35253760051E+01  0.35253760051E+01  0.00000000000E+00 0. -1.
         21   -1    0    0  501  503 -0.00000000000E+00 -0.00000000000E+00 -0.21060177172E+03  0.21060177172E+03  0.00000000000E+00 0.  1.
          2    1    1    2  501    0  0.22321706455E+02  0.14344290180E+02 -0.12789729776E+03  0.13062058037E+03  0.00000000000E+00 0.  1.
         -2    1    1    2    0  502 -0.22321706455E+02 -0.14344290180E+02 -0.79179097954E+02  0.83506567362E+02  0.00000000000E+00 0. -1.
</event>
<event>
 4    1  0.1768739E+004  0.3301333E+02  0.7546771E-02  0.1395095E+00
         21   -1    0    0  501  502  0.00000000000E+00  0.00000000000E+00  0.15986879765E+02  0.15986879765E+02  0.00000000000E+00 0.  1.
         21   -1    0    0  502  503 -0.00000000000E+00 -0.00000000000E+00 -0.68693424756E+02  0.68693424756E+02  0.00000000000E+00 0. -1.
          2    1    1    2  501    0 -0.45334904150E+01  0.32700568747E+02 -0.30037212213E+02  0.44633102617E+02  0.00000000000E+00 0. -1.
         -2    1    1    2    0  503  0.45334904150E+01 -0.32700568747E+02 -0.22669332778E+02  0.40047201904E+02  0.00000000000E+00 0.  1.
</event>
<event>
 4    1  0.1768739E+004  0.2247258E+02  0.7546771E-02  0.1499229E+00
         21   -1    0    0  503  502  0.00000000000E+00  0.00000000000E+00  0.29040885708E+03  0.29040885708E+03  0.00000000000E+00 0. -1.
         21   -1    0    0  501  503 -0.00000000000E+00 -0.00000000000E+00 -0.36004578457E+01  0.36004578457E+01  0.00000000000E+00 0.  1.
          2    1    1    2  501    0 -0.20736742141E+02  0.86605179075E+01  0.37702876973E+02  0.43892185832E+02  0.00000000000E+00 0.  1.
         -2    1    1    2    0  502  0.20736742141E+02 -0.86605179075E+01  0.24910552226E+03  0.25011712909E+03  0.00000000000E+00 0. -1.
</event>
<event>
 4    1  0.1768739E+004  0.2358035E+02  0.7546771E-02  0.1485336E+00
         21   -1    0    0  503  502  0.00000000000E+00  0.00000000000E+00  0.18115798390E+01  0.18115798390E+01  0.00000000000E+00 0. -1.
         21   -1    0    0  501  503 -0.00000000000E+00 -0.00000000000E+00 -0.31747633682E+03  0.31747633682E+03  0.00000000000E+00 0.  1.
          2    1    1    2  501    0 -0.13106923919E+02 -0.19602074301E+02 -0.18692585776E+03  0.18840729569E+03  0.00000000000E+00 0.  1.
         -2    1    1    2    0  502  0.13106923919E+02  0.19602074301E+02 -0.12873889923E+03  0.13088062097E+03  0.00000000000E+00 0. -1.
</event>
<event>
 4    1  0.1768739E+004  0.2985171E+02  0.7546771E-02  0.1420890E+00
         21   -1    0    0  503  502  0.00000000000E+00  0.00000000000E+00  0.63185523379E+03  0.63185523379E+03  0.00000000000E+00 0.  1.
         21   -1    0    0  501  503 -0.00000000000E+00 -0.00000000000E+00 -0.14109224205E+01  0.14109224205E+01  0.00000000000E+00 0. -1.
          2    1    1    2  501    0  0.27177210552E+02 -0.12350047514E+02  0.32170981122E+03  0.32309182454E+03  0.00000000000E+00 0. -1.
         -2    1    1    2    0  502 -0.27177210552E+02  0.12350047514E+02  0.30873450015E+03  0.31017433167E+03  0.00000000000E+00 0.  1.
</event>
<event>
 4    1  0.1768739E+004  0.2704127E+02  0.7546771E-02  0.1447194E+00
         21   -1    0    0  501  502  0.00000000000E+00  0.00000000000E+00  0.40600940599E+02  0.40600940599E+02  0.00000000000E+00 0.  1.
         21   -1    0    0  502  503 -0.00000000000E+00 -0.00000000000E+00 -0.37931228764E+02  0.37931228764E+02  0.00000000000E+00 0. -1.
          2    1    1    2  501    0 -0.20579216367E+02  0.17542123509E+02  0.29790947086E+02  0.40233453391E+02  0.00000000000E+00 0.  1.
         -2    1    1    2    0  503  0.20579216367E+02 -0.17542123509E+02 -0.27121235251E+02  0.38298715972E+02  0.00000000000E+00 0. -1.
</event>
<event>
 4    1  0.1768739E+004  0.2007000E+02  0.7546771E-02  0.1532968E+00
         21   -1    0    0  503  502  0.00000000000E+00  0.00000000000E+00  0.25404961661E+03  0.25404961661E+03  0.00000000000E+00 0.  1.
         21   -1    0    0  501  503 -0.00000000000E+00 -0.00000000000E+00 -0.30710006600E+01  0.30710006600E+01  0.00000000000E+00 0. -1.
          2    1    1    2  501    0 -0.53975495671E+01  0.19330575839E+02  0.36076820652E+02  0.41283673431E+02  0.00000000000E+00 0. -1.
         -2    1    1    2    0  502  0.53975495671E+01 -0.19330575839E+02  0.21490179530E+03  0.21583694384E+03  0.00000000000E+00 0.  1.
</event>
<event>
 4    1  0.1768739E+004  0.2136313E+02  0.7546771E-02  0.1514143E+00
         21   -1    0    0  501  502  0.00000000000E+00  0.00000000000E+00  0.50316879272E+02  0.50316879272E+02  0.00000000000E+00 0.  1.
         21   -1    0    0  502  503 -0.00000000000E+00 -0.00000000000E+00 -0.10500653093E+02  0.10500653093E+02  0.00000000000E+00 0. -1.
          2    1    1    2  501    0 -0.16873101519E+02 -0.13102739815E+02  0.31131654325E+02  0.37756631822E+02  0.00000000000E+00 0.  1.
         -2    1    1    2    0  503  0.16873101519E+02  0.13102739815E+02  0.86845718541E+01  0.23060900542E+02  0.00000000000E+00 0. -1.
</event>
<event>
 4    1  0.1768739E+004  0.2134917E+02  0.7546771E-02  0.1514338E+00
         21   -1    0    0  503  502  0.00000000000E+00  0.00000000000E+00  0.67003902249E+01  0.67003902249E+01  0.00000000000E+00 0.  1.
         21   -1    0    0  501  503 -0.00000000000E+00 -0.00000000000E+00 -0.20638036445E+03  0.20638036445E+03  0.00000000000E+00 0. -1.
          2    1    1    2  501    0 -0.13862362763E+02  0.16236436463E+02 -0.18707276480E+03  0.18828703168E+03  0.00000000000E+00 0. -1.
         -2    1    1    2    0  502  0.13862362763E+02 -0.16236436463E+02 -0.12607209430E+02  0.24793722996E+02  0.00000000000E+00 0.  1.
</event>
<event>
 4    1  0.1768739E+004  0.2409639E+02  0.7546771E-02  0.1479171E+00
         21   -1    0    0  501  502  0.00000000000E+00  0.00000000000E+00  0.26313139363E+03  0.26313139363E+03  0.00000000000E+00 0.  1.
         21   -1    0    0  502  503 -0.00000000000E+00 -0.00000000000E+00 -0.31613974406E+01  0.31613974406E+01  0.00000000000E+00 0. -1.
          2    1    1    2  501    0 -0.19518950492E+02 -0.14129630577E+02  0.20315561403E+03  0.20457966516E+03  0.00000000000E+00 0.  1.
         -2    1    1    2    0  503  0.19518950492E+02  0.14129630577E+02  0.56814382168E+02  0.61713125910E+02  0.00000000000E+00 0. -1.
</event>
<event>
 4    1  0.1768739E+004  0.3345474E+02  0.7546771E-02  0.1391765E+00
         21   -1    0    0  503  502  0.00000000000E+00  0.00000000000E+00  0.21130253123E+01  0.21130253123E+01  0.00000000000E+00 0.  1.
         21   -1    0    0  501  503 -0.00000000000E+00 -0.00000000000E+00 -0.53183863314E+03  0.53183863314E+03  0.00000000000E+00 0. -1.
          2    1    1    2  501    0 -0.30679800142E+02  0.13340516364E+02 -0.24783967870E+03  0.25008743641E+03  0.00000000000E+00 0.  1.
         -2    1    1    2    0  502  0.30679800142E+02 -0.13340516364E+02 -0.28188592914E+03  0.28386422205E+03  0.00000000000E+00 0. -1.
</event>
<event>
 4    1  0.1768739E+004  0.2195757E+02  0.7546771E-02  0.1506020E+00
         21   -1    0    0  501  502  0.00000000000E+00  0.00000000000E+00  0.74825774716E+02  0.74825774716E+02  0.00000000000E+00 0. -1.
         21   -1    0    0  502  503 -0.00000000000E+00 -0.00000000000E+00 -0.64738566148E+01  0.64738566148E+01  0.00000000000E+00 0.  1.
          2    1    1    2  501    0 -0.12132729618E+02 -0.18301137357E+02  0.31389241876E+02  0.38306908803E+02  0.00000000000E+00 0.  1.
         -2    1    1    2    0  503  0.12132729618E+02  0.18301137357E+02  0.36962676226E+02  0.42992722528E+02  0.00000000000E+00 0. -1.
</event>
<event>
 4    1  0.1768739E+004  0.3243780E+02  0.7546771E-02  0.1399530E+00
         21   -1    0    0  501  502  0.00000000000E+00  0.00000000000E+00  0.12217882183E+03  0.12217882183E+03  0.00000000000E+00 0. -1.
         21   -1    0    0  502  503 -0.00000000000E+00 -0.00000000000E+00 -0.13530925786E+02  0.13530925786E+02  0.00000000000E+00 0.  1.
          2    1    1    2  501    0 -0.20739015433E+02 -0.24942020011E+02  0.13412028407E+02  0.35101191281E+02  0.00000000000E+00 0.  1.
         -2    1    1    2    0  503  0.20739015433E+02  0.24942020011E+02  0.95235867633E+02  0.10060855633E+03  0.00000000000E+00 0. -1.
</event>
<event>
 4    1  0.1768739E+004  0.2068523E+02  0.7546771E-02  0.1523807E+00
         21   -1    0    0  501  502  0.00000000000E+00  0.00000000000E+00  0.34133735570E+02  0.34133735570E+02  0.00000000000E+00 0. -1.
         21   -1    0    0  502  503 -0.00000000000E+00 -0.00000000000E+00 -0.25419323156E+02  0.25419323156E+02  0.00000000000E+00 0.  1.
          2    1    1    2  501    0  0.71729399049E-01 -0.20685103406E+02  0.25556277249E+02  0.32878594174E+02  0.00000000000E+00 0. -1.
         -2    1    1    2    0  503 -0.71729399049E-01  0.20685103406E+02 -0.16841864835E+02  0.26674464552E+02  0.00000000000E+00 0.  1.
</event>
<event>
 4    1  0.1768739E+004  0.2078764E+02  0.7546771E-02  0.1522318E+00
         21   -1    0    0  501  502  0.00000000000E+00  0.00000000000E+00  0.55770040126E+03  0.55770040126E+03  0.00000000000E+00 0. -1.
         21   -1    0    0  502  503 -0.00000000000E+00 -0.00000000000E+00 -0.22595453026E+01  0.22595453026E+01  0.00000000000E+00 0.  1.
          2    1    1    2  501    0  0.12214203284E+02 -0.16820801677E+02  0.50467409954E+03  0.50510204205E+03  0.00000000000E+00 0. -1.
         -2    1    1    2    0  503 -0.12214203284E+02  0.16820801677E+02  0.50766756410E+02  0.54857904511E+02  0.00000000000E+00 0.  1.
</event>
<event>
 4    1  0.1768739E+004  0.2064831E+02  0.7546771E-02  0.1524346E+00
         21   -1    0    0  503  502  0.00000000000E+00  0.00000000000E+00  0.28340112510E+01  0.28340112510E+01  0.00000000000E+00 0.  1.
         21   -1    0    0  501  503 -0.00000000000E+00 -0.00000000000E+00 -0.17165540894E+03  0.17165540894E+03  0.00000000000E+00 0. -1.
          2    1    1    2  501    0  0.32803670988E+01 -0.20386067180E+02 -0.11508128025E+03  0.11691900448E+03  0.00000000000E+00 0. -1.
         -2    1    1    2    0  502 -0.32803670988E+01  0.20386067180E+02 -0.53740117431E+02  0.57570415709E+02  0.00000000000E+00 0.  1.
</event>
<event>
 4    1  0.1768739E+004  0.3383683E+02  0.7546771E-02  0.1388930E+00
         21   -1    0    0  501  502  0.00000000000E+00  0.00000000000E+00  0.36705422672E+03  0.36705422672E+03  0.00000000000E+00 0.  1.
         21   -1    0    0  502  503 -0.00000000000E+00 -0.00000000000E+00 -0.10479637527E+02  0.10479637527E+02  0.00000000000E+00 0. -1.
          2    1    1    2  501    0 -0.33694424594E+02  0.31010801179E+01  0.33648616000E+03  0.33818318529E+03  0.00000000000E+00 0.  1.
         -2    1    1    2    0  503  0.33694424594E+02 -0.31010801179E+01  0.20088429200E+02  0.39350678957E+02  0.00000000000E+00 0. -1.
</event>
<event>
 4    1  0.1768739E+004  0.2506936E+02  0.7546771E-02  0.1468029E+00
         21   -1    0    0  503  502  0.00000000000E+00  0.00000000000E+00  0.72558239996E+02  0.72558239996E+02  0.00000000000E+00 0.  1.
         21   -1    0    0  501  503 -0.00000000000E+00 -0.00000000000E+00 -0.14042497971E+02  0.14042497971E+02  0.00000000000E+00 0. -1.
          2    1    1    2  501    0  0.24874861168E+02  0.31167400433E+01  0.56061616919E+02  0.61411543525E+02  0.00000000000E+00 0. -1.
         -2    1    1    2    0  502 -0.24874861168E+02 -0.31167400433E+01  0.24541251064E+01  0.25189194443E+02  0.00000000000E+00 0.  1.
</event>
<event>
 4    1  0.1768739E+004  0.3307563E+02  0.7546771E-02  0.1394621E+00
         21   -1    0    0  503  502  0.00000000000E+00  0.00000000000E+00  0.43219623406E+02  0.43219623406E+02  0.00000000000E+00 0.  1.
         21   -1    0    0  501  503 -0.00000000000E+00 -0.00000000000E+00 -0.31809410783E+02  0.31809410783E+02  0.00000000000E+00 0. -1.
          2    1    1    2  501    0  0.23401281599E+02 -0.23374710667E+02 -0.11248992882E+02  0.34936183537E+02  0.00000000000E+00 0. -1.
         -2    1    1    2    0  502 -0.23401281599E+02  0.23374710667E+02  0.22659205506E+02  0.40092850652E+02  0.00000000000E+00 0.  1.
</event>
<event>
 4    1  0.1768739E+004  0.2184471E+02  0.7546771E-02  0.1507538E+00
         21   -1    0    0  503  502  0.00000000000E+00  0.00000000000E+00  0.38254379018E+02  0.38254379018E+02  0.00000000000E+00 0. -1.
         21   -1    0    0  501  503 -0.00000000000E+00 -0.00000000000E+00 -0.12624080029E+02  0.12624080029E+02  0.00000000000E+00 0.  1.
          2    1    1    2  501    0 -0.21424403813E+02 -0.42645372529E+01  0.10042916898E+02  0.24042702356E+02  0.00000000000E+00 0.  1.
         -2    1    1    2    0  502  0.21424403813E+02  0.42645372529E+01  0.15587382091E+02  0.26835756691E+02  0.00000000000E+00 0. -1.
</event>
<event>
 4    1  0.1768739E+004  0.2087362E+02  0.7546771E-02  0.1521077E+00
         21   -1    0    0  503  502  0.00000000000E+00  0.00000000000E+00  0.27094711441E+03  0.27094711441E+03  0.00000000000E+00 0. -1.
         21   -1    0    0  501  503 -0.00000000000E+00 -0.00000000000E+00 -0.27316000080E+01  0.27316000080E+01  0.00000000000E+00 0.  1.
          2    1    1    2  501    0 -0.60531611043E+00  0.20864843683E+02  0.46349012940E+02  0.50832461184E+02  0.00000000000E+00 0.  1.
         -2    1    1    2    0  502  0.60531611043E+00 -0.20864843683E+02  0.22186650146E+03  0.22284625324E+03  0.00000000000E+00 0. -1.
</event>
<event>
 4    1  0.1768739E+004  0.2805403E+02  0.7546771E-02  0.1437298E+00
         21   -1    0    0  501  502  0.00000000000E+00  0.00000000000E+00  0.18569610043E+02  0.18569610043E+02  0.00000000000E+00 0. -1.
         21   -1    0    0  502  503 -0.00000000000E+00 -0.00000000000E+00 -0.44724976389E+02  0.44724976389E+02  0.00000000000E+00 0.  1.
          2    1    1    2  501    0  0.15783149829E+02 -0.23193118445E+02 -0.20320188409E+02  0.34640130177E+02  0.00000000000E+00 0. -1.
         -2    1    1    2    0  503 -0.15783149829E+02  0.23193118445E+02 -0.58351779371E+01  0.28654456255E+02  0.00000000000E+00 0.  1.
</event>
<event>
 4    1  0.1768739E+004  0.6545421E+02  0.7546771E-02  0.1242348E+00
         21   -1    0    0  503  502  0.00000000000E+00  0.00000000000E+00  0.16871977224E+02  0.16871977224E+02  0.00000000000E+00 0.  1.
         21   -1    0    0  501  503 -0.00000000000E+00 -0.00000000000E+00 -0.64498122522E+03  0.64498122522E+03  0.00000000000E+00 0. -1.
          2    1    1    2  501    0 -0.13813435842E+02  0.63980013808E+02 -0.57173215331E+03  0.57546668740E+03  0.00000000000E+00 0. -1.
         -2    1    1    2    0  502  0.13813435842E+02 -0.63980013808E+02 -0.56377094687E+02  0.86386515047E+02  0.00000000000E+00 0.  1.
</event>
<event>
 4    1  0.1768739E+004  0.3951129E+02  0.7546771E-02  0.1351374E+00
         21   -1    0    0  501  502  0.00000000000E+00  0.00000000000E+00  0.20203750247E+03  0.20203750247E+03  0.00000000000E+00 0.  1.
         21   -1    0    0  502  503 -0.00000000000E+00 -0.00000000000E+00 -0.77465923990E+01  0.77465923990E+01  0.00000000000E+00 0. -1.
          2    1    1    2  501    0 -0.38759877736E+02 -0.76690126754E+01  0.10242182746E+03  0.10977874392E+03  0.00000000000E+00 0.  1.
         -2    1    1    2    0  503  0.38759877736E+02  0.76690126754E+01  0.91869082610E+02  0.10000535094E+03  0.00000000000E+00 0. -1.
</event>
<event>
 4    1  0.1768739E+004  0.2254756E+02  0.7546771E-02  0.1498259E+00
         21   -1    0    0  501  502  0.00000000000E+00  0.00000000000E+00  0.10758341169E+03  0.10758341169E+03  0.00000000000E+00 0. -1.
         21   -1    0    0  502  503 -0.00000000000E+00 -0.00000000000E+00 -0.50633405168E+02  0.50633405168E+02  0.00000000000E+00 0.  1.
          2    1    1    2  501    0  0.11059150153E+02 -0.19649116829E+02  0.10380145347E+03  0.10622209910E+03  0.00000000000E+00 0. -1.
         -2    1    1    2    0  503 -0.11059150153E+02  0.19649116829E+02 -0.46851446946E+02  0.51994717762E+02  0.00000000000E+00 0.  1.
</event>
<event>
 4    1  0.1768739E+004  0.3365508E+02  0.7546771E-02  0.1390273E+00
         21   -1    0    0  501  502  0.00000000000E+00  0.00000000000E+00  0.24893334727E+03  0.24893334727E+03  0.00000000000E+00 0.  1.
         21   -1    0    0  502  503 -0.00000000000E+00 -0.00000000000E+00 -0.50484154452E+01  0.50484154452E+01  0.00000000000E+00 0. -1.
          2    1    1    2  501    0 -0.32552170546E+02 -0.85452013466E+01  0.16184128431E+03  0.16530355586E+03  0.00000000000E+00 0. -1.
         -2    1    1    2    0  503  0.32552170546E+02  0.85452013466E+01  0.82043647513E+02  0.88678206852E+02  0.00000000000E+00 0.  1.
</event>
<event>
 4    1  0.1768739E+004  0.2311660E+02  0.7546771E-02  0.1491039E+00
         21   -1    0    0  501  502  0.00000000000E+00  0.00000000000E+00  0.25087331116E+01  0.25087331116E+01  0.00000000000E+00 0. -1.
         21   -1    0    0  502  503 -0.00000000000E+00 -0.00000000000E+00 -0.69864394596E+03  0.69864394596E+03  0.00000000000E+00 0.  1.
          2    1    1    2  501    0 -0.17650006113E+02 -0.14928310483E+02 -0.55779860050E+02  0.60380211633E+02  0.00000000000E+00 0. -1.
         -2    1    1    2    0  503  0.17650006113E+02  0.14928310483E+02 -0.64035535280E+03  0.64077246744E+03  0.00000000000E+00 0.  1.
</event>
<event>
 4    1  0.1768739E+004  0.2641455E+02  0.7546771E-02  0.1453579E+00
         21   -1    0    0  501  502  0.00000000000E+00  0.00000000000E+00  0.81122657709E+02  0.81122657709E+02  0.00000000000E+00 0. -1.
         21   -1    0    0  502  503 -0.00000000000E+00 -0.00000000000E+00 -0.91880864090E+01  0.91880864090E+01  0.00000000000E+00 0.  1.
          2    1    1    2  501    0  0.25336900852E+02 -0.74679116916E+01  0.47382475541E+02  0.54247831645E+02  0.00000000000E+00 0. -1.
         -2    1    1    2    0  503 -0.25336900852E+02  0.74679116916E+01  0.24552095759E+02  0.36062912472E+02  0.00000000000E+00 0.  1.
</event>
<event>
 4    1  0.1768739E+004  0.2130458E+02  0.7546771E-02  0.1514960E+00
         21   -1    0    0  503  502  0.00000000000E+00  0.00000000000E+00  0.44446724973E+01  0.44446724973E+01  0.00000000000E+00 0. -1.
         21   -1    0    0  501  503 -0.00000000000E+00 -0.00000000000E+00 -0.12306206207E+03  0.12306206207E+03  0.00000000000E+00 0.  1.
          2    1    1    2  501    0 -0.16105113899E+02 -0.13946699878E+02 -0.85609073934E+02  0.88220171566E+02  0.00000000000E+00 0.  1.
         -2    1    1    2    0  502  0.16105113899E+02  0.13946699878E+02 -0.33008315639E+02  0.39286563002E+02  0.00000000000E+00 0. -1.
</event>
<event>
 4    1  0.1768739E+004  0.2153395E+02  0.7546771E-02  0.1511776E+00
         21   -1    0    0  501  502  0.00000000000E+00  0.00000000000E+00  0.47275017672E+02  0.47275017672E+02  0.00000000000E+00 0. -1.
         21   -1    0    0  502  503 -0.00000000000E+00 -0.00000000000E+00 -0.14277689799E+02  0.14277689799E+02  0.00000000000E+00 0.  1.
          2    1    1    2  501    0 -0.20814742565E+02 -0.55188231178E+01  0.33716885856E+02  0.40006740788E+02  0.00000000000E+00 0.  1.
         -2    1    1    2    0  503  0.20814742565E+02  0.55188231178E+01 -0.71955798240E+00  0.21545966684E+02  0.00000000000E+00 0. -1.
</event>
<event>
 4    1  0.1768739E+004  0.3060966E+02  0.7546771E-02  0.1414371E+00
         21   -1    0    0  503  502  0.00000000000E+00  0.00000000000E+00  0.13257499356E+02  0.13257499356E+02  0.00000000000E+00 0. -1.
         21   -1    0    0  501  503 -0.00000000000E+00 -0.00000000000E+00 -0.11795709231E+03  0.11795709231E+03  0.00000000000E+00 0.  1.
          2    1    1    2  501    0 -0.28503754943E+02  0.11157395409E+02 -0.10811741308E+02  0.32462983047E+02  0.00000000000E+00 0. -1.
         -2    1    1    2    0  502  0.28503754943E+02 -0.11157395409E+02 -0.93887851645E+02  0.98751608618E+02  0.00000000000E+00 0.  1.
</event>
<event>
 4    1  0.1768739E+004  0.2246713E+02  0.7546771E-02  0.1499300E+00
         21   -1    0    0  503  502  0.00000000000E+00  0.00000000000E+00  0.15265934223E+04  0.15265934223E+04  0.00000000000E+00 0. -1.
         21   -1    0    0  501  503 -0.00000000000E+00 -0.00000000000E+00 -0.91320302440E+00  0.91320302440E+00  0.00000000000E+00 0.  1.
          2    1    1    2  501    0 -0.19636492884E+02  0.10916967009E+02  0.15283115093E+03  0.15447372824E+03  0.00000000000E+00 0.  1.
         -2    1    1    2    0  502  0.19636492884E+02 -0.10916967009E+02  0.13728490684E+04  0.13730328971E+04  0.00000000000E+00 0. -1.
</event>
<event>
 4    1  0.1768739E+004  0.2462190E+02  0.7546771E-02  0.1473078E+00
         21   -1    0    0  501  502  0.00000000000E+00  0.00000000000E+00  0.43274114588E+03  0.43274114588E+03  0.00000000000E+00 0.  1.
         21   -1    0    0  502  503 -0.00000000000E+00 -0.00000000000E+00 -0.14861488447E+01  0.14861488447E+01  0.00000000000E+00 0. -1.
          2    1    1    2  501    0 -0.76435347570E+01 -0.23405433782E+02  0.26761945396E+03  0.26874971645E+03  0.00000000000E+00 0. -1.
         -2    1    1    2    0  503  0.76435347570E+01  0.23405433782E+02  0.16363554307E+03  0.16547757827E+03  0.00000000000E+00 0.  1.
</event>
<event>
 4    1  0.1768739E+004  0.2858775E+02  0.7546771E-02  0.1432279E+00
         21   -1    0    0  503  502  0.00000000000E+00  0.00000000000E+00  0.17179064993E+02  0.17179064993E+02  0.00000000000E+00 0.  1.
         21   -1    0    0  501  503 -0.00000000000E+00 -0.00000000000E+00 -0.12564864463E+03  0.12564864463E+03  0.00000000000E+00 0. -1.
          2    1    1    2  501    0 -0.14169677269E+02 -0.24829011619E+02 -0.11052869478E+03  0.11416589658E+03  0.00000000000E+00 0.  1.
         -2    1    1    2    0  502  0.14169677269E+02  0.24829011619E+02  0.20591151411E+01  0.28661813045E+02  0.00000000000E+00 0. -1.
</event>
<event>
 4    1  0.1768739E+004  0.2487015E+02  0.7546771E-02  0.1470261E+00
         21   -1    0    0  501  502  0.00000000000E+00  0.00000000000E+00  0.58916578935E+01  0.58916578935E+01  0.00000000000E+00 0. -1.
         21   -1    0    0  502  503 -0.00000000000E+00 -0.00000000000E+00 -0.13402322919E+03  0.13402322919E+03  0.00000000000E+00 0.  1.
          2    1    1    2  501    0  0.28956610599E+01  0.24701003175E+02 -0.31501369995E+02  0.40135529427E+02  0.00000000000E+00 0. -1.
         -2    1    1    2    0  503 -0.28956610599E+01 -0.24701003175E+02 -0.96630201296E+02  0.99779357652E+02  0.00000000000E+00 0.  1.
</event>
<event>
 4    1  0.1768739E+004  0.2195060E+02  0.7546771E-02  0.1506113E+00
         21   -1    0    0  501  502  0.00000000000E+00  0.00000000000E+00  0.10922055846E+02  0.10922055846E+02  0.00000000000E+00 0. -1.
         21   -1    0    0  502  503 -0.00000000000E+00 -0.00000000000E+00 -0.55208452982E+02  0.55208452982E+02  0.00000000000E+00 0.  1.
          2    1    1    2  501    0  0.78080649549E+01  0.20514940750E+02 -0.73214804819E+01  0.23139419802E+02  0.00000000000E+00 0. -1.
         -2    1    1    2    0  503 -0.78080649549E+01 -0.20514940750E+02 -0.36964916654E+02  0.42991089025E+02  0.00000000000E+00 0.  1.
</event>
<event>
 4    1  0.1768739E+004  0.2994834E+02  0.7546771E-02  0.1420046E+00
         21   -1    0    0  501  502  0.00000000000E+00  0.00000000000E+00  0.79565663955E+02  0.79565663955E+02  0.00000000000E+00 0.  1.
         21   -1    0    0  502  503 -0.00000000000E+00 -0.00000000000E+00 -0.11277953186E+02  0.11277953186E+02  0.00000000000E+00 0. -1.
          2    1    1    2  501    0  0.11477940373E+02  0.27661521165E+02  0.35143886584E+02  0.46173538229E+02  0.00000000000E+00 0. -1.
         -2    1    1    2    0  503 -0.11477940373E+02 -0.27661521165E+02  0.33143824185E+02  0.44670078911E+02  0.00000000000E+00 0.  1.
</event>
<event>
 4    1  0.1768739E+004  0.2061550E+02  0.7546771E-02  0.1524826E+00
         21   -1    0    0  503  502  0.00000000000E+00  0.00000000000E+00  0.10555571784E+03  0.10555571784E+03  0.00000000000E+00 0. -1.
         21   -1    0    0  501  503 -0.00000000000E+00 -0.00000000000E+00 -0.60459955309E+01  0.60459955309E+01  0.00000000000E+00 0.  1.
          2    1    1    2  501    0 -0.20296937946E+02 -0.36101488798E+01  0.82006369603E+02  0.84557929967E+02  0.00000000000E+00 0. -1.
         -2    1    1    2    0  502  0.20296937946E+02  0.36101488798E+01  0.17503352711E+02  0.27043783408E+02  0.00000000000E+00 0.  1.
</event>
<event>
 4    1  0.1768739E+004  0.5375362E+02  0.7546771E-02  0.1282670E+00
         21   -1    0    0  503  502  0.00000000000E+00  0.00000000000E+00  0.78885308915E+01  0.78885308915E+01  0.00000000000E+00 0. -1.
         21   -1    0    0  501  503 -0.00000000000E+00 -0.00000000000E+00 -0.73005536990E+03  0.73005536990E+03  0.00000000000E+00 0.  1.
          2    1    1    2  501    0 -0.73704194032E+01 -0.53245926972E+02 -0.62153621055E+03  0.62385632388E+03  0.00000000000E+00 0.  1.
         -2    1    1    2    0  502  0.73704194032E+01  0.53245926972E+02 -0.10063062846E+03  0.11408757691E+03  0.00000000000E+00 0. -1.
</event>
<event>
 4    1  0.1768739E+004  0.7288866E+02  0.7546771E-02  0.1221395E+00
         21   -1    0    0  501  502  0.00000000000E+00  0.00000000000E+00  0.46089660261E+02  0.46089660261E+02  0.00000000000E+00 0.  1.
         21   -1    0    0  502  503 -0.00000000000E+00 -0.00000000000E+00 -0.16969141731E+03  0.16969141731E+03  0.00000000000E+00 0. -1.
          2    1    1    2  501    0 -0.63314405838E+02  0.36111533233E+02 -0.70130176301E+00  0.72892034155E+02  0.00000000000E+00 0.  1.
         -2    1    1    2    0  503  0.63314405838E+02 -0.36111533233E+02 -0.12290045529E+03  0.14288904342E+03  0.00000000000E+00 0. -1.
</event>
<event>
 4    1  0.1768739E+004  0.2013271E+02  0.7546771E-02  0.1532017E+00
         21   -1    0    0  503  502  0.00000000000E+00  0.00000000000E+00  0.12292266825E+02  0.12292266825E+02  0.00000000000E+00 0. -1.
         21   -1    0    0  501  503 -0.00000000000E+00 -0.00000000000E+00 -0.33694258965E+02  0.33694258965E+02  0.00000000000E+00 0.  1.
          2    1    1    2  501    0 -0.11610720847E+01 -0.20099197555E+02 -0.14062639690E+02  0.24557761824E+02  0.00000000000E+00 0. -1.
         -2    1    1    2    0  502  0.11610720847E+01  0.20099197555E+02 -0.73393524500E+01  0.21428763966E+02  0.00000000000E+00 0.  1.
</event>
<event>
 4    1  0.1768739E+004  0.2405887E+02  0.7546771E-02  0.1479613E+00
         21   -1    0    0  501  502  0.00000000000E+00  0.00000000000E+00  0.60861843604E+03  0.60861843604E+03  0.00000000000E+00 0.  1.
         21   -1    0    0  502  503 -0.00000000000E+00 -0.00000000000E+00 -0.15213963446E+01  0.15213963446E+01  0.00000000000E+00 0. -1.
          2    1    1    2  501    0 -0.12931531200E+02  0.20288039488E+02  0.49033523180E+03  0.49092511506E+03  0.00000000000E+00 0.  1.
         -2    1    1    2    0  503  0.12931531200E+02 -0.20288039488E+02  0.11676180789E+03  0.11921471733E+03  0.00000000000E+00 0. -1.
</event>
<event>
 4    1  0.1768739E+004  0.3850798E+02  0.7546771E-02  0.1357458E+00
         21   -1    0    0  501  502  0.00000000000E+00  0.00000000000E+00  0.12702879802E+03  0.12702879802E+03  0.00000000000E+00 0.  1.
         21   -1    0    0  502  503 -0.00000000000E+00 -0.00000000000E+00 -0.15132367438E+02  0.15132367438E+02  0.00000000000E+00 0. -1.
          2    1    1    2  501    0 -0.32778310780E+02  0.20210068138E+02  0.21964759154E+02  0.44331875174E+02  0.00000000000E+00 0. -1.
         -2    1    1    2    0  503  0.32778310780E+02 -0.20210068138E+02  0.89931671428E+02  0.97829290285E+02  0.00000000000E+00 0.  1.
</event>
<event>
 4    1  0.1768739E+004  0.2974036E+02  0.7546771E-02  0.1421866E+00
         21   -1    0    0  501  502  0.00000000000E+00  0.00000000000E+00  0.93700588498E+03  0.93700588498E+03  0.00000000000E+00 0. -1.
         21   -1    0    0  502  503 -0.00000000000E+00 -0.00000000000E+00 -0.17020124356E+01  0.17020124356E+01  0.00000000000E+00 0.  1.
          2    1    1    2  501    0  0.27962270379E+02 -0.10129192469E+02  0.78088735692E+03  0.78145348761E+03  0.00000000000E+00 0. -1.
         -2    1    1    2    0  503 -0.27962270379E+02  0.10129192469E+02  0.15441651563E+03  0.15725440980E+03  0.00000000000E+00 0.  1.
</event>
<event>
 4    1  0.1768739E+004  0.2203209E+02  0.7546771E-02  0.1505023E+00
         21   -1    0    0  503  502  0.00000000000E+00  0.00000000000E+00  0.81544902843E+01  0.81544902843E+01  0.00000000000E+00 0.  1.
         21   -1    0    0  501  503 -0.00000000000E+00 -0.00000000000E+00 -0.70776752659E+02  0.70776752659E+02  0.00000000000E+00 0. -1.
          2    1    1    2  501    0  0.12195982653E+02  0.18348600286E+02 -0.47045280429E+02  0.51948739504E+02  0.00000000000E+00 0. -1.
         -2    1    1    2    0  502 -0.12195982653E+02 -0.18348600286E+02 -0.15576981945E+02  0.26982503439E+02  0.00000000000E+00 0.  1.
</event>
<event>
 4    1  0.1768739E+004  0.2322749E+02  0.7546771E-02  0.1489661E+00
         21   -1    0    0  503  502  0.00000000000E+00  0.00000000000E+00  0.21604668187E+02  0.21604668187E+02  0.00000000000E+00 0.  1.
         21   -1    0    0  501  503 -0.00000000000E+00 -0.00000000000E+00 -0.25519203819E+02  0.25519203819E+02  0.00000000000E+00 0. -1.
          2    1    1    2  501    0 -0.22733699782E+02  0.47639325387E+01  0.14923534221E+01  0.23275379218E+02  0.00000000000E+00 0. -1.
         -2    1    1    2    0  502  0.22733699782E+02 -0.47639325387E+01 -0.54068890538E+01  0.23848492788E+02  0.00000000000E+00 0.  1.
</event>
<event>
 4    1  0.1768739E+004  0.3636942E+02  0.7546771E-02  0.1371183E+00
         21   -1    0    0  501  502  0.00000000000E+00  0.00000000000E+00  0.17642652248E+02  0.17642652248E+02  0.00000000000E+00 0.  1.
         21   -1    0    0  502  503 -0.00000000000E+00 -0.00000000000E+00 -0.79006681577E+02  0.79006681577E+02  0.00000000000E+00 0. -1.
          2    1    1    2  501    0  0.28858534123E+02 -0.22134132005E+02 -0.19763829360E+02  0.41392556605E+02  0.00000000000E+00 0. -1.
         -2    1    1    2    0  503 -0.28858534123E+02  0.22134132005E+02 -0.41600199969E+02  0.55256777221E+02  0.00000000000E+00 0.  1.
</event>
<event>
 4    1  0.1768739E+004  0.3161854E+02  0.7546771E-02  0.1406034E+00
         21   -1    0    0  503  502  0.00000000000E+00  0.00000000000E+00  0.37568156605E+03  0.37568156605E+03  0.00000000000E+00 0. -1.
         21   -1    0    0  501  503 -0.00000000000E+00 -0.00000000000E+00 -0.42523127265E+01  0.42523127265E+01  0.00000000000E+00 0.  1.
          2    1    1    2  501    0  0.29206062988E+02 -0.12113552326E+02  0.69508947879E+02  0.76362465259E+02  0.00000000000E+00 0.  1.
         -2    1    1    2    0  502 -0.29206062988E+02  0.12113552326E+02  0.30192030545E+03  0.30357141352E+03  0.00000000000E+00 0. -1.
</event>
<event>
 4    1  0.1768739E+004  0.2432269E+02  0.7546771E-02  0.1476525E+00
         21   -1    0    0  503  502  0.00000000000E+00  0.00000000000E+00  0.23089977089E+02  0.23089977089E+02  0.00000000000E+00 0. -1.
         21   -1    0    0  501  503 -0.00000000000E+00 -0.00000000000E+00 -0.71330167740E+02  0.71330167740E+02  0.00000000000E+00 0.  1.
          2    1    1    2  501    0  0.93522110180E+01  0.22452829838E+02 -0.61911988501E+02  0.66518326338E+02  0.00000000000E+00 0.  1.
         -2    1    1    2    0  502 -0.93522110180E+01 -0.22452829838E+02  0.13671797851E+02  0.27901818491E+02  0.00000000000E+00 0. -1.
</event>
<event>
 4    1  0.1768739E+004  0.2317708E+02  0.7546771E-02  0.1490286E+00
         21   -1    0    0  503  502  0.00000000000E+00  0.00000000000E+00  0.38917324711E+02  0.38917324711E+02  0.00000000000E+00 0. -1.
         21   -1    0    0  501  503 -0.00000000000E+00 -0.00000000000E+00 -0.15254934789E+02  0.15254934789E+02  0.00000000000E+00 0.  1.
          2    1    1    2  501    0 -0.19742766216E+02 -0.12140858507E+02  0.20187414403E+02  0.30736118223E+02  0.00000000000E+00 0.  1.
         -2    1    1    2    0  502  0.19742766216E+02  0.12140858507E+02  0.34749755186E+01  0.23436141278E+02  0.00000000000E+00 0. -1.
</event>
<event>
 4    1  0.1768739E+004  0.2480398E+02  0.7546771E-02  0.1471008E+00
         21   -1    0    0  501  502  0.00000000000E+00  0.00000000000E+00  0.22532309560E+02  0.22532309560E+02  0.00000000000E+00 0.  1.
         21   -1    0    0  502  503 -0.00000000000E+00 -0.00000000000E+00 -0.51541391577E+02  0.51541391577E+02  0.00000000000E+00 0. -1.
          2    1    1    2  501    0 -0.22681730209E+01 -0.24700061162E+02  0.10893064650E+02  0.27090523947E+02  0.00000000000E+00 0.  1.
         -2    1    1    2    0  503  0.22681730209E+01  0.24700061162E+02 -0.39902146666E+02  0.46983177190E+02  0.00000000000E+00 0. -1.
</event>
<event>
 4    1  0.1768739E+004  0.2483117E+02  0.7546771E-02  0.1470701E+00
         21   -1    0    0  501  502  0.00000000000E+00  0.00000000000E+00  0.18221591386E+03  0.18221591386E+03  0.00000000000E+00 0.  1.
         21   -1    0    0  502  503 -0.00000000000E+00 -0.00000000000E+00 -0.44317733265E+01  0.44317733265E+01  0.00000000000E+00 0. -1.
          2    1    1    2  501    0  0.21434687506E+02 -0.12535589046E+02  0.13427303431E+03  0.13654975124E+03  0.00000000000E+00 0. -1.
         -2    1    1    2    0  503 -0.21434687506E+02  0.12535589046E+02  0.43511106225E+02  0.50097935947E+02  0.00000000000E+00 0.  1.
</event>
<event>
 4    1  0.1768739E+004  0.2784822E+02  0.7546771E-02  0.1439269E+00
         21   -1    0    0  503  502  0.00000000000E+00  0.00000000000E+00  0.12687898147E+03  0.12687898147E+03  0.00000000000E+00 0. -1.
         21   -1    0    0  501  503 -0.00000000000E+00 -0.00000000000E+00 -0.23738422702E+02  0.23738422702E+02  0.00000000000E+00 0.  1.
          2    1    1    2  501    0 -0.26962125593E+02 -0.69690260388E+01 -0.13322670552E+02  0.30870974896E+02  0.00000000000E+00 0.  1.
         -2    1    1    2    0  502  0.26962125593E+02  0.69690260388E+01  0.11646322932E+03  0.11974642928E+03  0.00000000000E+00 0. -1.
</event>
<event>
 4    1  0.1768739E+004  0.2062524E+02  0.7546771E-02  0.1524683E+00
         21   -1    0    0  501  502  0.00000000000E+00  0.00000000000E+00  0.28687824946E+03  0.28687824946E+03  0.00000000000E+00 0.  1.
         21   -1    0    0  502  503 -0.00000000000E+00 -0.00000000000E+00 -0.19968396233E+01  0.19968396233E+01  0.00000000000E+00 0. -1.
          2    1    1    2  501    0  0.26485547957E+01  0.20454480666E+02  0.21571994429E+03  0.21670370321E+03  0.00000000000E+00 0.  1.
         -2    1    1    2    0  503 -0.26485547957E+01 -0.20454480666E+02  0.69161465543E+02  0.72171385866E+02  0.00000000000E+00 0. -1.
</event>
<event>
 4    1  0.1768739E+004  0.2100338E+02  0.7546771E-02  0.1519217E+00
         21   -1    0    0  501  502  0.00000000000E+00  0.00000000000E+00  0.34355445177E+02  0.34355445177E+02  0.00000000000E+00 0. -1.
         21   -1    0    0  502  503 -0.00000000000E+00 -0.00000000000E+00 -0.12983761303E+02  0.12983761303E+02  0.00000000000E+00 0.  1.
          2    1    1    2  501    0  0.16728373385E+02  0.12700524601E+02  0.81997112773E+01  0.22547218593E+02  0.00000000000E+00 0. -1.
         -2    1    1    2    0  503 -0.16728373385E+02 -0.12700524601E+02  0.13171972597E+02  0.24791987886E+02  0.00000000000E+00 0.  1.
</event>
<event>
 4    1  0.1768739E+004  0.4562884E+02  0.7546771E-02  0.1318325E+00
         21   -1    0    0  501  502  0.00000000000E+00  0.00000000000E+00  0.56608477358E+02  0.56608477358E+02  0.00000000000E+00 0. -1.
         21   -1    0    0  502  503 -0.00000000000E+00 -0.00000000000E+00 -0.43344464646E+02  0.43344464646E+02  0.00000000000E+00 0.  1.
          2    1    1    2  501    0  0.43871234300E+02 -0.12542175544E+02  0.26082848313E+02  0.52557647802E+02  0.00000000000E+00 0.  1.
         -2    1    1    2    0  503 -0.43871234300E+02  0.12542175544E+02 -0.12818835601E+02  0.47395294203E+02  0.00000000000E+00 0. -1.
</event>
<event>
 4    1  0.1768739E+004  0.2210026E+02  0.7546771E-02  0.1504116E+00
         21   -1    0    0  501  502  0.00000000000E+00  0.00000000000E+00  0.34014826123E+02  0.34014826123E+02  0.00000000000E+00 0.  1.
         21   -1    0    0  502  503 -0.00000000000E+00 -0.00000000000E+00 -0.15377165359E+02  0.15377165359E+02  0.00000000000E+00 0. -1.
          2    1    1    2  501    0  0.22097504634E+02  0.34881503804E+00  0.15673338162E+02  0.27093816861E+02  0.00000000000E+00 0.  1.
         -2    1    1    2    0  503 -0.22097504634E+02 -0.34881503804E+00  0.29643226027E+01  0.22298174622E+02  0.00000000000E+00 0. -1.
</event>
<event>
 4    1  0.1768739E+004  0.2794413E+02  0.7546771E-02  0.1438348E+00
         21   -1    0    0  503  502  0.00000000000E+00  0.00000000000E+00  0.15489726777E+02  0.15489726777E+02  0.00000000000E+00 0. -1.
         21   -1    0    0  501  503 -0.00000000000E+00 -0.00000000000E+00 -0.12928829452E+03  0.12928829452E+03  0.00000000000E+00 0.  1.
          2    1    1    2  501    0 -0.25676393884E+02  0.11027105267E+02 -0.11344050649E+03  0.11683160003E+03  0.00000000000E+00 0.  1.
         -2    1    1    2    0  502  0.25676393884E+02 -0.11027105267E+02 -0.35806124939E+00  0.27946421261E+02  0.00000000000E+00 0. -1.
</event>
<event>
 4    1  0.1768739E+004  0.2499291E+02  0.7546771E-02  0.1468883E+00
         21   -1    0    0  501  502  0.00000000000E+00  0.00000000000E+00  0.20945885483E+02  0.20945885483E+02  0.00000000000E+00 0.  1.
         21   -1    0    0  502  503 -0.00000000000E+00 -0.00000000000E+00 -0.31234322469E+02  0.31234322469E+02  0.00000000000E+00 0. -1.
          2    1    1    2  501    0  0.19731279580E+02 -0.15340213291E+02  0.40390625877E+00  0.24996173266E+02  0.00000000000E+00 0.  1.
         -2    1    1    2    0  503 -0.19731279580E+02  0.15340213291E+02 -0.10692343245E+02  0.27184034685E+02  0.00000000000E+00 0. -1.
</event>
<event>
 4    1  0.1768739E+004  0.4731333E+02  0.7546771E-02  0.1310261E+00
         21   -1    0    0  503  502  0.00000000000E+00  0.00000000000E+00  0.29076048506E+01  0.29076048506E+01  0.00000000000E+00 0. -1.
         21   -1    0    0  501  503 -0.00000000000E+00 -0.00000000000E+00 -0.81119060302E+03  0.81119060302E+03  0.00000000000E+00 0.  1.
          2    1    1    2  501    0  0.36070570821E+02 -0.30618046567E+02 -0.49598247644E+03  0.49823404921E+03  0.00000000000E+00 0.  1.
         -2    1    1    2    0  502 -0.36070570821E+02  0.30618046567E+02 -0.31230052173E+03  0.31586415866E+03  0.00000000000E+00 0. -1.
</event>
<event>
 4    1  0.1768739E+004  0.4067929E+02  0.7546771E-02  0.1344551E+00
         21   -1    0    0  503  502  0.00000000000E+00  0.00000000000E+00  0.34686202635E+02  0.34686202635E+02  0.00000000000E+00 0. -1.
         21   -1    0    0  501  503 -0.00000000000E+00 -0.00000000000E+00 -0.59679228163E+02  0.59679228163E+02  0.00000000000E+00 0.  1.
          2    1    1    2  501    0 -0.40489679175E+02  0.39230570852E+01 -0.33628640507E+02  0.52779635835E+02  0.00000000000E+00 0.  1.
         -2    1    1    2    0  502  0.40489679175E+02 -0.39230570852E+01  0.86356149785E+01  0.41585794962E+02  0.00000000000E+00 0. -1.
</event>
<event>
 4    1  0.1768739E+004  0.2348199E+02  0.7546771E-02  0.1486533E+00
         21   -1    0    0  501  502  0.00000000000E+00  0.00000000000E+00  0.18143070492E+01  0.18143070492E+01  0.00000000000E+00 0. -1.
         21   -1    0    0  502  503 -0.00000000000E+00 -0.00000000000E+00 -0.45574991784E+03  0.45574991784E+03  0.00000000000E+00 0.  1.
          2    1    1    2  501    0  0.17514061892E+02  0.15641658746E+02 -0.94918014589E+02  0.97779513938E+02  0.00000000000E+00 0. -1.
         -2    1    1    2    0  503 -0.17514061892E+02 -0.15641658746E+02 -0.35901759620E+03  0.35978471095E+03  0.00000000000E+00 0.  1.
</event>
<event>
 4    1  0.1768739E+004  0.2054014E+02  0.7546771E-02  0.1525933E+00
         21   -1    0    0  503  502  0.00000000000E+00  0.00000000000E+00  0.92593075943E+03  0.92593075943E+03  0.00000000000E+00 0.  1.
         21   -1    0    0  501  503 -0.00000000000E+00 -0.00000000000E+00 -0.17763146819E+01  0.17763146819E+01  0.00000000000E+00 0. -1.
          2    1    1    2  501    0  0.18556611592E+02  0.88062168881E+01  0.62116130482E+02  0.65424085440E+02  0.00000000000E+00 0. -1.
         -2    1    1    2    0  502 -0.18556611592E+02 -0.88062168881E+01  0.86203831426E+03  0.86228298867E+03  0.00000000000E+00 0.  1.
</event>
<event>
 4    1  0.1768739E+004  0.4746827E+02  0.7546771E-02  0.1309539E+00
         21   -1    0    0  501  502  0.00000000000E+00  0.00000000000E+00  0.11291916500E+03  0.11291916500E+03  0.00000000000E+00 0. -1.
         21   -1    0    0  502  503 -0.00000000000E+00 -0.00000000000E+00 -0.35990913820E+02  0.35990913820E+02  0.00000000000E+00 0.  1.
          2    1    1    2  501    0  0.47065442438E+02 -0.61709500291E+01  0.88163665175E+02  0.10013025693E+03  0.00000000000E+00 0. -1.
         -2    1    1    2    0  503 -0.47065442438E+02  0.61709500291E+01 -0.11235413992E+02  0.48779821891E+02  0.00000000000E+00 0.  1.
</event>
<event>
 4    1  0.1768739E+004  0.2320637E+02  0.7546771E-02  0.1489923E+00
         21   -1    0    0  503  502  0.00000000000E+00  0.00000000000E+00  0.52991768726E+00  0.52991768726E+00  0.00000000000E+00 0. -1.
         21   -1    0    0  501  503 -0.00000000000E+00 -0.00000000000E+00 -0.10588932901E+04  0.10588932901E+04  0.00000000000E+00 0.  1.
          2    1    1    2  501    0  0.16229814686E+02  0.16587010660E+02 -0.63546666033E+03  0.63589025170E+03  0.00000000000E+00 0.  1.
         -2    1    1    2    0  502 -0.16229814686E+02 -0.16587010660E+02 -0.42289671205E+03  0.42353295606E+03  0.00000000000E+00 0. -1.
</event>
<event>
 4    1  0.1768739E+004  0.2211266E+02  0.7546771E-02  0.1503951E+00
         21   -1    0    0  501  502  0.00000000000E+00  0.00000000000E+00  0.84504410737E+01  0.84504410737E+01  0.00000000000E+00 0. -1.
         21   -1    0    0  502  503 -0.00000000000E+00 -0.00000000000E+00 -0.60112146062E+02  0.60112146062E+02  0.00000000000E+00 0.  1.
          2    1    1    2  501    0 -0.10242156411E+02 -0.19597655786E+02 -0.32461592013E+02  0.39277536026E+02  0.00000000000E+00 0. -1.
         -2    1    1    2    0  503  0.10242156411E+02  0.19597655786E+02 -0.19200112975E+02  0.29285051110E+02  0.00000000000E+00 0.  1.
</event>
<event>
 4    1  0.1768739E+004  0.4863429E+02  0.7546771E-02  0.1304205E+00
         21   -1    0    0  503  502  0.00000000000E+00  0.00000000000E+00  0.82288047295E+01  0.82288047295E+01  0.00000000000E+00 0.  1.
         21   -1    0    0  501  503 -0.00000000000E+00 -0.00000000000E+00 -0.45087411925E+03  0.45087411925E+03  0.00000000000E+00 0. -1.
          2    1    1    2  501    0 -0.11709238928E+02  0.47203686637E+02 -0.35952731984E+03  0.36280185780E+03  0.00000000000E+00 0. -1.
         -2    1    1    2    0  502  0.11709238928E+02 -0.47203686637E+02 -0.83117994678E+02  0.96301066181E+02  0.00000000000E+00 0.  1.
</event>
<event>
 4    1  0.1768739E+004  0.2096678E+02  0.7546771E-02  0.1519740E+00
         21   -1    0    0  501  502  0.00000000000E+00  0.00000000000E+00  0.14946270589E+03  0.14946270589E+03  0.00000000000E+00 0.  1.
         21   -1    0    0  502  503 -0.00000000000E+00 -0.00000000000E+00 -0.53485078082E+01  0.53485078082E+01  0.00000000000E+00 0. -1.
          2    1    1    2  501    0 -0.10011497357E+02 -0.18422156742E+02  0.12398707916E+03  0.12574737269E+03  0.00000000000E+00 0.  1.
         -2    1    1    2    0  503  0.10011497357E+02  0.18422156742E+02  0.20127118920E+02  0.29063841012E+02  0.00000000000E+00 0. -1.
</event>
<event>
 4    1  0.1768739E+004  0.2002713E+02  0.7546771E-02  0.1533621E+00
         21   -1    0    0  501  502  0.00000000000E+00  0.00000000000E+00  0.87807064103E+02  0.87807064103E+02  0.00000000000E+00 0.  1.
         21   -1    0    0  502  503 -0.00000000000E+00 -0.00000000000E+00 -0.19575140091E+03  0.19575140091E+03  0.00000000000E+00 0. -1.
          2    1    1    2  501    0  0.18438334442E+02 -0.78175216619E+01  0.86143109018E+02  0.88440494420E+02  0.00000000000E+00 0.  1.
         -2    1    1    2    0  503 -0.18438334442E+02  0.78175216619E+01 -0.19408744582E+03  0.19511797059E+03  0.00000000000E+00 0. -1.
</event>
<event>
 4    1  0.1768739E+004  0.3353858E+02  0.7546771E-02  0.1391139E+00
         21   -1    0    0  501  502  0.00000000000E+00  0.00000000000E+00  0.12174490380E+03  0.12174490380E+03  0.00000000000E+00 0. -1.
         21   -1    0    0  502  503 -0.00000000000E+00 -0.00000000000E+00 -0.70296541138E+02  0.70296541138E+02  0.00000000000E+00 0.  1.
          2    1    1    2  501    0 -0.19491914581E+02 -0.27292891159E+02  0.11521255390E+03  0.11999487163E+03  0.00000000000E+00 0. -1.
         -2    1    1    2    0  503  0.19491914581E+02  0.27292891159E+02 -0.63764191234E+02  0.72046573309E+02  0.00000000000E+00 0.  1.
</event>
<event>
 4    1  0.1768739E+004  0.2279038E+02  0.7546771E-02  0.1495147E+00
         21   -1    0    0  501  502  0.00000000000E+00  0.00000000000E+00  0.11301578263E+02  0.11301578263E+02  0.00000000000E+00 0. -1.
         21   -1    0    0  502  503 -0.00000000000E+00 -0.00000000000E+00 -0.54559171755E+02  0.54559171755E+02  0.00000000000E+00 0.  1.
          2    1    1    2  501    0 -0.11890693926E+02  0.19442554630E+02 -0.85540416506E+01  0.24342825660E+02  0.00000000000E+00 0. -1.
         -2    1    1    2    0  503  0.11890693926E+02 -0.19442554630E+02 -0.34703551841E+02  0.41517924358E+02  0.00000000000E+00 0.  1.
</event>
<event>
 4    1  0.1768739E+004  0.2372248E+02  0.7546771E-02  0.1483620E+00
         21   -1    0    0  503  502  0.00000000000E+00  0.00000000000E+00  0.69902138385E+03  0.69902138385E+03  0.00000000000E+00 0.  1.
         21   -1    0    0  501  503 -0.00000000000E+00 -0.00000000000E+00 -0.17334579738E+01  0.17334579738E+01  0.00000000000E+00 0. -1.
          2    1    1    2  501    0  0.21868063680E+02  0.91947779173E+01  0.92227516311E+02  0.95229569541E+02  0.00000000000E+00 0. -1.
         -2    1    1    2    0  502 -0.21868063680E+02 -0.91947779173E+01  0.60506040957E+03  0.60552527228E+03  0.00000000000E+00 0.  1.
</event>
<event>
 4    1  0.1768739E+004  0.3335017E+02  0.7546771E-02  0.1392548E+00
         21   -1    0    0  503  502  0.00000000000E+00  0.00000000000E+00  0.18216554538E+02  0.18216554538E+02  0.00000000000E+00 0. -1.
         21   -1    0    0  501  503 -0.00000000000E+00 -0.00000000000E+00 -0.61056227380E+02  0.61056227380E+02  0.00000000000E+00 0.  1.
          2    1    1    2  501    0 -0.25485137961E+02 -0.21511423690E+02 -0.21393530265E+02  0.39622174893E+02  0.00000000000E+00 0. -1.
         -2    1    1    2    0  502  0.25485137961E+02  0.21511423690E+02 -0.21446142577E+02  0.39650607026E+02  0.00000000000E+00 0.  1.
</event>
<event>
 4    1  0.1768739E+004  0.2864384E+02  0.7546771E-02  0.1431759E+00
         21   -1    0    0  503  502  0.00000000000E+00  0.00000000000E+00  0.41537037297E+02  0.41537037297E+02  0.00000000000E+00 0.  1.
         21   -1    0    0  501  503 -0.00000000000E+00 -0.00000000000E+00 -0.38831955235E+02  0.38831955235E+02  0.00000000000E+00 0. -1.
          2    1    1    2  501    0 -0.10670408267E+02 -0.26582178608E+02 -0.26814698098E+02  0.39236435442E+02  0.00000000000E+00 0. -1.
         -2    1    1    2    0  502  0.10670408267E+02  0.26582178608E+02  0.29519780159E+02  0.41132557090E+02  0.00000000000E+00 0.  1.
</event>
<event>
 4    1  0.1768739E+004  0.3942763E+02  0.7546771E-02  0.1351873E+00
         21   -1    0    0  501  502  0.00000000000E+00  0.00000000000E+00  0.25382981158E+02  0.25382981158E+02  0.00000000000E+00 0. -1.
         21   -1    0    0  502  503 -0.00000000000E+00 -0.00000000000E+00 -0.68346340521E+02  0.68346340521E+02  0.00000000000E+00 0.  1.
          2    1    1    2  501    0  0.14264523122E+02 -0.36756782909E+02 -0.63735823205E+01  0.39939457449E+02  0.00000000000E+00 0.  1.
         -2    1    1    2    0  503 -0.14264523122E+02  0.36756782909E+02 -0.36589777043E+02  0.53789864229E+02  0.00000000000E+00 0. -1.
</event>
<event>
 4    1  0.1768739E+004  0.3224590E+02  0.7546771E-02  0.1401033E+00
         21   -1    0    0  503  502  0.00000000000E+00  0.00000000000E+00  0.64886433468E+02  0.64886433468E+02  0.00000000000E+00 0. -1.
         21   -1    0    0  501  503 -0.00000000000E+00 -0.00000000000E+00 -0.18710294055E+02  0.18710294055E+02  0.00000000000E+00 0.  1.
          2    1    1    2  501    0 -0.32135289456E+02 -0.26685399301E+01  0.72528597472E+01  0.33051503874E+02  0.00000000000E+00 0.  1.
         -2    1    1    2    0  502  0.32135289456E+02  0.26685399301E+01  0.38923279666E+02  0.50545223650E+02  0.00000000000E+00 0. -1.
</event>
<event>
 4    1  0.1768739E+004  0.3694188E+02  0.7546771E-02  0.1367402E+00
         21   -1    0    0  501  502  0.00000000000E+00  0.00000000000E+00  0.67835487614E+02  0.67835487614E+02  0.00000000000E+00 0. -1.
         21   -1    0    0  502  503 -0.00000000000E+00 -0.00000000000E+00 -0.20522432084E+02  0.20522432084E+02  0.00000000000E+00 0.  1.
          2    1    1    2  501    0  0.34782305937E+02 -0.12445620758E+02  0.29859777822E+02  0.47500616984E+02  0.00000000000E+00 0. -1.
         -2    1    1    2    0  503 -0.34782305937E+02  0.12445620758E+02  0.17453277708E+02  0.40857302714E+02  0.00000000000E+00 0.  1.
</event>
<event>
 4    1  0.1768739E+004  0.2947080E+02  0.7546771E-02  0.1424252E+00
         21   -1    0    0  503  502  0.00000000000E+00  0.00000000000E+00  0.27588347784E+02  0.27588347784E+02  0.00000000000E+00 0. -1.
         21   -1    0    0  501  503 -0.00000000000E+00 -0.00000000000E+00 -0.19616832821E+03  0.19616832821E+03  0.00000000000E+00 0.  1.
          2    1    1    2  501    0  0.20426996339E+02 -0.21243018560E+02 -0.18679869189E+03  0.18910917299E+03  0.00000000000E+00 0.  1.
         -2    1    1    2    0  502 -0.20426996339E+02  0.21243018560E+02  0.18218711465E+02  0.34647503004E+02  0.00000000000E+00 0. -1.
</event>
<event>
 4    1  0.1768739E+004  0.3800325E+02  0.7546771E-02  0.1360601E+00
         21   -1    0    0  501  502  0.00000000000E+00  0.00000000000E+00  0.70688888246E+02  0.70688888246E+02  0.00000000000E+00 0.  1.
         21   -1    0    0  502  503 -0.00000000000E+00 -0.00000000000E+00 -0.71912659938E+03  0.71912659938E+03  0.00000000000E+00 0. -1.
          2    1    1    2  501    0 -0.22115341501E+02  0.30905645397E+02  0.65038623908E+02  0.75327749515E+02  0.00000000000E+00 0.  1.
         -2    1    1    2    0  503  0.22115341501E+02 -0.30905645397E+02 -0.71347633505E+03  0.71448773812E+03  0.00000000000E+00 0. -1.
</event>
<event>
 4    1  0.1768739E+004  0.2902492E+02  0.7546771E-02  0.1428263E+00
         21   -1    0    0  501  502  0.00000000000E+00  0.00000000000E+00  0.45088360635E+01  0.45088360635E+01  0.00000000000E+00 0. -1.
         21   -1    0    0  502  503 -0.00000000000E+00 -0.00000000000E+00 -0.30876308646E+03  0.30876308646E+03  0.00000000000E+00 0.  1.
          2    1    1    2  501    0  0.28597522061E+02 -0.49626299848E+01 -0.53699767793E+02  0.61041879275E+02  0.00000000000E+00 0. -1.
         -2    1    1    2    0  503 -0.28597522061E+02  0.49626299848E+01 -0.25055448261E+03  0.25223004325E+03  0.00000000000E+00 0.  1.
</event>
<event>
 4    1  0.1768739E+004  0.2228623E+02  0.7546771E-02  0.1501661E+00
         21   -1    0    0  501  502  0.00000000000E+00  0.00000000000E+00  0.38908395114E+03  0.38908395114E+03  0.00000000000E+00 0. -1.
         21   -1    0    0  502  503 -0.00000000000E+00 -0.00000000000E+00 -0.23092723765E+01  0.23092723765E+01  0.00000000000E+00 0.  1.
          2    1    1    2  501    0  0.18465435756E+02  0.12478122919E+02  0.32425806723E+03  0.32502303000E+03  0.00000000000E+00 0. -1.
         -2    1    1    2    0  503 -0.18465435756E+02 -0.12478122919E+02  0.62516611536E+02  0.66370193515E+02  0.00000000000E+00 0.  1.
</event>
<event>
 4    1  0.1768739E+004  0.2054221E+02  0.7546771E-02  0.1525902E+00
         21   -1    0    0  501  502  0.00000000000E+00  0.00000000000E+00  0.16946564634E+03  0.16946564634E+03  0.00000000000E+00 0.  1.
         21   -1    0    0  502  503 -0.00000000000E+00 -0.00000000000E+00 -0.47133896205E+01  0.47133896205E+01  0.00000000000E+00 0. -1.
          2    1    1    2  501    0  0.17580089437E+02 -0.10626521676E+02  0.14218966517E+03  0.14366587413E+03  0.00000000000E+00 0.  1.
         -2    1    1    2    0  503 -0.17580089437E+02  0.10626521676E+02  0.22562591542E+02  0.30513161826E+02  0.00000000000E+00 0. -1.
</event>
<event>
 4    1  0.1768739E+004  0.4151812E+02  0.7546771E-02  0.1339812E+00
         21   -1    0    0  501  502  0.00000000000E+00  0.00000000000E+00  0.22341317257E+01  0.22341317257E+01  0.00000000000E+00 0. -1.
         21   -1    0    0  502  503 -0.00000000000E+00 -0.00000000000E+00 -0.78564745840E+03  0.78564745840E+03  0.00000000000E+00 0.  1.
          2    1    1    2  501    0 -0.23146002790E+00  0.41517476006E+02 -0.33894503627E+03  0.34147839170E+03  0.00000000000E+00 0.  1.
         -2    1    1    2    0  503  0.23146002790E+00 -0.41517476006E+02 -0.44446829040E+03  0.44640319842E+03  0.00000000000E+00 0. -1.
</event>
<event>
 4    1  0.1768739E+004  0.2447782E+02  0.7546771E-02  0.1474731E+00
         21   -1    0    0  503  502  0.00000000000E+00  0.00000000000E+00  0.16542739797E+02  0.16542739797E+02  0.00000000000E+00 0.  1.
         21   -1    0    0  501  503 -0.00000000000E+00 -0.00000000000E+00 -0.41075188914E+02  0.41075188914E+02  0.00000000000E+00 0. -1.
          2    1    1    2  501    0 -0.21845021227E+02  0.11043491081E+02 -0.22171802582E+02  0.33026542014E+02  0.00000000000E+00 0.  1.
         -2    1    1    2    0  502  0.21845021227E+02 -0.11043491081E+02 -0.23606465341E+01  0.24591386697E+02  0.00000000000E+00 0. -1.
</event>
<event>
 4    1  0.1768739E+004  0.3912066E+02  0.7546771E-02  0.1353717E+00
         21   -1    0    0  503  502  0.00000000000E+00  0.00000000000E+00  0.15417880389E+03  0.15417880389E+03  0.00000000000E+00 0.  1.
         21   -1    0    0  501  503 -0.00000000000E+00 -0.00000000000E+00 -0.12116364598E+02  0.12116364598E+02  0.00000000000E+00 0. -1.
          2    1    1    2  501    0  0.37772303460E+02 -0.10182287849E+02  0.35681058685E+02  0.52948690667E+02  0.00000000000E+00 0. -1.
         -2    1    1    2    0  502 -0.37772303460E+02  0.10182287849E+02  0.10638138060E+03  0.11334647782E+03  0.00000000000E+00 0.  1.
</event>
<event>
 4    1  0.1768739E+004  0.5821516E+02  0.7546771E-02  0.1266020E+00
         21   -1    0    0  503  502  0.00000000000E+00  0.00000000000E+00  0.22075633411E+02  0.22075633411E+02  0.00000000000E+00 0. -1.
         21   -1    0    0  501  503 -0.00000000000E+00 -0.00000000000E+00 -0.15357532096E+03  0.15357532096E+03  0.00000000000E+00 0.  1.
          2    1    1    2  501    0 -0.35805487885E+02  0.45901759433E+02 -0.67448336393E+02  0.89097040152E+02  0.00000000000E+00 0. -1.
         -2    1    1    2    0  502  0.35805487885E+02 -0.45901759433E+02 -0.64051351154E+02  0.86553914217E+02  0.00000000000E+00 0.  1.
</event>
<event>
 4    1  0.1768739E+004  0.2680141E+02  0.7546771E-02  0.1449613E+00
         21   -1    0    0  501  502  0.00000000000E+00  0.00000000000E+00  0.31938670249E+01  0.31938670249E+01  0.00000000000E+00 0.  1.
         21   -1    0    0  502  503 -0.00000000000E+00 -0.00000000000E+00 -0.27276146106E+03  0.27276146106E+03  0.00000000000E+00 0. -1.
          2    1    1    2  501    0 -0.15693760715E+02 -0.21726050437E+02 -0.76988915392E+02  0.81520601606E+02  0.00000000000E+00 0.  1.
         -2    1    1    2    0  503  0.15693760715E+02  0.21726050437E+02 -0.19257867864E+03  0.19443472648E+03  0.00000000000E+00 0. -1.
</event>
<event>
 4    1  0.1768739E+004  0.2661073E+02  0.7546771E-02  0.1451558E+00
         21   -1    0    0  501  502  0.00000000000E+00  0.00000000000E+00  0.72768987037E+01  0.72768987037E+01  0.00000000000E+00 0. -1.
         21   -1    0    0  502  503 -0.00000000000E+00 -0.00000000000E+00 -0.11088813512E+03  0.11088813512E+03  0.00000000000E+00 0.  1.
          2    1    1    2  501    0  0.26466370642E+01 -0.26478787201E+02 -0.31132704942E+02  0.40955783186E+02  0.00000000000E+00 0. -1.
         -2    1    1    2    0  503 -0.26466370642E+01  0.26478787201E+02 -0.72478531472E+02  0.77209250636E+02  0.00000000000E+00 0.  1.
</event>
<event>
 4    1  0.1768739E+004  0.2170303E+02  0.7546771E-02  0.1509460E+00
         21   -1    0    0  501  502  0.00000000000E+00  0.00000000000E+00  0.28705228318E+03  0.28705228318E+03  0.00000000000E+00 0. -1.
         21   -1    0    0  502  503 -0.00000000000E+00 -0.00000000000E+00 -0.73527578369E+01  0.73527578369E+01  0.00000000000E+00 0.  1.
          2    1    1    2  501    0 -0.99851603729E+01 -0.19269617255E+02  0.26959133084E+03  0.27046350446E+03  0.00000000000E+00 0. -1.
         -2    1    1    2    0  503  0.99851603729E+01  0.19269617255E+02  0.10108194500E+02  0.23941536561E+02  0.00000000000E+00 0.  1.
</event>
<event>
 4    1  0.1768739E+004  0.3240379E+02  0.7546771E-02  0.1399796E+00
         21   -1    0    0  503  502  0.00000000000E+00  0.00000000000E+00  0.62409473295E+02  0.62409473295E+02  0.00000000000E+00 0. -1.
         21   -1    0    0  501  503 -0.00000000000E+00 -0.00000000000E+00 -0.29796942017E+02  0.29796942017E+02  0.00000000000E+00 0.  1.
          2    1    1    2  501    0  0.31947800074E+02  0.54169859200E+01 -0.14113568312E+02  0.35344001988E+02  0.00000000000E+00 0.  1.
         -2    1    1    2    0  502 -0.31947800074E+02 -0.54169859200E+01  0.46726099590E+02  0.56862413323E+02  0.00000000000E+00 0. -1.
</event>
<event>
 4    1  0.1768739E+004  0.2127033E+02  0.7546771E-02  0.1515440E+00
         21   -1    0    0  503  502  0.00000000000E+00  0.00000000000E+00  0.41457641505E+01  0.41457641505E+01  0.00000000000E+00 0. -1.
         21   -1    0    0  501  503 -0.00000000000E+00 -0.00000000000E+00 -0.11204171317E+03  0.11204171317E+03  0.00000000000E+00 0.  1.
          2    1    1    2  501    0  0.28884834240E+01  0.21073286848E+02 -0.63313292033E+02  0.66790715695E+02  0.00000000000E+00 0.  1.
         -2    1    1    2    0  502 -0.28884834240E+01 -0.21073286848E+02 -0.44582656984E+02  0.49396761623E+02  0.00000000000E+00 0. -1.
</event>
<event>
 4    1  0.1768739E+004  0.3513252E+02  0.7546771E-02  0.1379634E+00
         21   -1    0    0  501  502  0.00000000000E+00  0.00000000000E+00  0.22305980149E+03  0.22305980149E+03  0.00000000000E+00 0. -1.
         21   -1    0    0  502  503 -0.00000000000E+00 -0.00000000000E+00 -0.11891414419E+02  0.11891414419E+02  0.00000000000E+00 0.  1.
          2    1    1    2  501    0 -0.30288535695E+02  0.17801637932E+02  0.19148346143E+03  0.19467976193E+03  0.00000000000E+00 0. -1.
         -2    1    1    2    0  503  0.30288535695E+02 -0.17801637932E+02  0.19684925650E+02  0.40271453977E+02  0.00000000000E+00 0.  1.
</event>
<event>
 4    1  0.1768739E+004  0.2116088E+02  0.7546771E-02  0.1516980E+00
         21   -1    0    0  501  502  0.00000000000E+00  0.00000000000E+00  0.57026837650E+01  0.57026837650E+01  0.00000000000E+00 0.  1.
         21   -1    0    0  502  503 -0.00000000000E+00 -0.00000000000E+00 -0.13217564595E+03  0.13217564595E+03  0.00000000000E+00 0. -1.
          2    1    1    2  501    0 -0.18077144080E+02  0.10999982255E+02 -0.19313448214E+02  0.28649468226E+02  0.00000000000E+00 0. -1.
         -2    1    1    2    0  503  0.18077144080E+02 -0.10999982255E+02 -0.10715951397E+03  0.10922886149E+03  0.00000000000E+00 0.  1.
</event>
<event>
 4    1  0.1768739E+004  0.2366804E+02  0.7546771E-02  0.1484276E+00
         21   -1    0    0  501  502  0.00000000000E+00  0.00000000000E+00  0.40102406629E+01  0.40102406629E+01  0.00000000000E+00 0.  1.
         21   -1    0    0  502  503 -0.00000000000E+00 -0.00000000000E+00 -0.14627670159E+03  0.14627670159E+03  0.00000000000E+00 0. -1.
          2    1    1    2  501    0 -0.65199048275E+01  0.22752298814E+02 -0.55183444935E+02  0.60044890334E+02  0.00000000000E+00 0. -1.
         -2    1    1    2    0  503  0.65199048275E+01 -0.22752298814E+02 -0.87083015992E+02  0.90242051919E+02  0.00000000000E+00 0.  1.
</event>
<event>
 4    1  0.1768739E+004  0.2435598E+02  0.7546771E-02  0.1476139E+00
         21   -1    0    0  501  502  0.00000000000E+00  0.00000000000E+00  0.63775797780E+02  0.63775797780E+02  0.00000000000E+00 0.  1.
         21   -1    0    0  502  503 -0.00000000000E+00 -0.00000000000E+00 -0.12347569839E+02  0.12347569839E+02  0.00000000000E+00 0. -1.
          2    1    1    2  501    0 -0.74418123638E+01  0.23191231331E+02  0.44618544703E+02  0.50833338601E+02  0.00000000000E+00 0.  1.
         -2    1    1    2    0  503  0.74418123638E+01 -0.23191231331E+02  0.68096832390E+01  0.25290029018E+02  0.00000000000E+00 0. -1.
</event>
<event>
 4    1  0.1768739E+004  0.3690934E+02  0.7546771E-02  0.1367615E+00
         21   -1    0    0  503  502  0.00000000000E+00  0.00000000000E+00  0.45508062548E+03  0.45508062548E+03  0.00000000000E+00 0. -1.
         21   -1    0    0  501  503 -0.00000000000E+00 -0.00000000000E+00 -0.32310389332E+01  0.32310389332E+01  0.00000000000E+00 0.  1.
          2    1    1    2  501    0 -0.20546776086E+01  0.36852108704E+02  0.16379562321E+03  0.16790266763E+03  0.00000000000E+00 0.  1.
         -2    1    1    2    0  502  0.20546776086E+01 -0.36852108704E+02  0.28805396334E+03  0.29040899678E+03  0.00000000000E+00 0. -1.
</event>
<event>
 4    1  0.1768739E+004  0.2016143E+02  0.7546771E-02  0.1531582E+00
         21   -1    0    0  501  502  0.00000000000E+00  0.00000000000E+00  0.13148661299E+02  0.13148661299E+02  0.00000000000E+00 0.  1.
         21   -1    0    0  502  503 -0.00000000000E+00 -0.00000000000E+00 -0.42271765992E+02  0.42271765992E+02  0.00000000000E+00 0. -1.
          2    1    1    2  501    0  0.16393767094E+02  0.11735749417E+02 -0.19829802154E+00  0.20162408984E+02  0.00000000000E+00 0.  1.
         -2    1    1    2    0  503 -0.16393767094E+02 -0.11735749417E+02 -0.28924806672E+02  0.35258018307E+02  0.00000000000E+00 0. -1.
</event>
<event>
 4    1  0.1768739E+004  0.2463277E+02  0.7546771E-02  0.1472954E+00
         21   -1    0    0  503  502  0.00000000000E+00  0.00000000000E+00  0.15048235266E+02  0.15048235266E+02  0.00000000000E+00 0. -1.
         21   -1    0    0  501  503 -0.00000000000E+00 -0.00000000000E+00 -0.40428932664E+02  0.40428932664E+02  0.00000000000E+00 0.  1.
          2    1    1    2  501    0 -0.51156087901E+01  0.24095726987E+02 -0.11263144091E+02  0.27085640608E+02  0.00000000000E+00 0. -1.
         -2    1    1    2    0  502  0.51156087901E+01 -0.24095726987E+02 -0.14117553307E+02  0.28391527322E+02  0.00000000000E+00 0.  1.
</event>
<event>
 4    1  0.1768739E+004  0.3269709E+02  0.7546771E-02  0.1397519E+00
         21   -1    0    0  501  502  0.00000000000E+00  0.00000000000E+00  0.18375495251E+02  0.18375495251E+02  0.00000000000E+00 0.  1.
         21   -1    0    0  502  503 -0.00000000000E+00 -0.00000000000E+00 -0.14565305417E+03  0.14565305417E+03  0.00000000000E+00 0. -1.
          2    1    1    2  501    0  0.10969928925E+02  0.30801952215E+02 -0.81543648937E-01  0.32697190250E+02  0.00000000000E+00 0.  1.
         -2    1    1    2    0  503 -0.10969928925E+02 -0.30801952215E+02 -0.12719601527E+03  0.13133135917E+03  0.00000000000E+00 0. -1.
</event>
<event>
 4    1  0.1768739E+004  0.3326888E+02  0.7546771E-02  0.1393160E+00
         21   -1    0    0  503  502  0.00000000000E+00  0.00000000000E+00  0.76536297949E+02  0.76536297949E+02  0.00000000000E+00 0.  1.
         21   -1    0    0  501  503 -0.00000000000E+00 -0.00000000000E+00 -0.80361081229E+02  0.80361081229E+02  0.00000000000E+00 0. -1.
          2    1    1    2  501    0 -0.17929705077E+02  0.28023993956E+02 -0.72952663310E+02  0.80180481699E+02  0.00000000000E+00 0. -1.
         -2    1    1    2    0  502  0.17929705077E+02 -0.28023993956E+02  0.69127880030E+02  0.76716897479E+02  0.00000000000E+00 0.  1.
</event>
<event>
 4    1  0.1768739E+004  0.2426730E+02  0.7546771E-02  0.1477170E+00
         21   -1    0    0  501  502  0.00000000000E+00  0.00000000000E+00  0.23952579363E+01  0.23952579363E+01  0.00000000000E+00 0. -1.
         21   -1    0    0  502  503 -0.00000000000E+00 -0.00000000000E+00 -0.12378717715E+04  0.12378717715E+04  0.00000000000E+00 0.  1.
          2    1    1    2  501    0  0.16614702274E+02  0.17687662008E+02 -0.62594503841E+02  0.67133997573E+02  0.00000000000E+00 0. -1.
         -2    1    1    2    0  503 -0.16614702274E+02 -0.17687662008E+02 -0.11728820097E+04  0.11731330319E+04  0.00000000000E+00 0.  1.
</event>
<event>
 4    1  0.1768739E+004  0.3674287E+02  0.7546771E-02  0.1368708E+00
         21   -1    0    0  501  502  0.00000000000E+00  0.00000000000E+00  0.18255693740E+02  0.18255693740E+02  0.00000000000E+00 0. -1.
         21   -1    0    0  502  503 -0.00000000000E+00 -0.00000000000E+00 -0.11436730110E+03  0.11436730110E+03  0.00000000000E+00 0.  1.
          2    1    1    2  501    0  0.11310530056E+02  0.34958693466E+02 -0.86361515621E+01  0.37744157863E+02  0.00000000000E+00 0. -1.
         -2    1    1    2    0  503 -0.11310530056E+02 -0.34958693466E+02 -0.87475455801E+02  0.94878836979E+02  0.00000000000E+00 0.  1.
</event>
<event>
 4    1  0.1768739E+004  0.2000472E+02  0.7546771E-02  0.1533963E+00
         21   -1    0    0  503  502  0.00000000000E+00  0.00000000000E+00  0.11428131050E+02  0.11428131050E+02  0.00000000000E+00 0. -1.
         21   -1    0    0  501  503 -0.00000000000E+00 -0.00000000000E+00 -0.95519606256E+02  0.95519606256E+02  0.00000000000E+00 0.  1.
          2    1    1    2  501    0  0.38424892508E+01 -0.19632216974E+02 -0.84603551035E+02  0.86936468266E+02  0.00000000000E+00 0.  1.
         -2    1    1    2    0  502 -0.38424892508E+01  0.19632216974E+02  0.51207582801E+00  0.20011269040E+02  0.00000000000E+00 0. -1.
</event>
<event>
 4    1  0.1768739E+004  0.2987679E+02  0.7546771E-02  0.1420670E+00
         21   -1    0    0  503  502  0.00000000000E+00  0.00000000000E+00  0.66147379787E+03  0.66147379787E+03  0.00000000000E+00 0.  1.
         21   -1    0    0  501  503 -0.00000000000E+00 -0.00000000000E+00 -0.14063224500E+01  0.14063224500E+01  0.00000000000E+00 0. -1.
          2    1    1    2  501    0 -0.28388133973E+02  0.93132451644E+01  0.26337891428E+03  0.26506805762E+03  0.00000000000E+00 0.  1.
         -2    1    1    2    0  502  0.28388133973E+02 -0.93132451644E+01  0.39668856115E+03  0.39781206270E+03  0.00000000000E+00 0. -1.
</event>
<event>
 4    1  0.1768739E+004  0.4725701E+02  0.7546771E-02  0.1310524E+00
         21   -1    0    0  503  502  0.00000000000E+00  0.00000000000E+00  0.11350356470E+02  0.11350356470E+02  0.00000000000E+00 0.  1.
         21   -1    0    0  501  503 -0.00000000000E+00 -0.00000000000E+00 -0.35554362208E+03  0.35554362208E+03  0.00000000000E+00 0. -1.
          2    1    1    2  501    0  0.47254496697E+02  0.48780917340E+00 -0.29469241126E+03  0.29845743862E+03  0.00000000000E+00 0. -1.
         -2    1    1    2    0  502 -0.47254496697E+02 -0.48780917340E+00 -0.49500854353E+02  0.68436539930E+02  0.00000000000E+00 0.  1.
</event>
<event>
 4    1  0.1768739E+004  0.2854476E+02  0.7546771E-02  0.1432679E+00
         21   -1    0    0  503  502  0.00000000000E+00  0.00000000000E+00  0.29275342833E+02  0.29275342833E+02  0.00000000000E+00 0.  1.
         21   -1    0    0  501  503 -0.00000000000E+00 -0.00000000000E+00 -0.21508723407E+03  0.21508723407E+03  0.00000000000E+00 0. -1.
          2    1    1    2  501    0  0.80825277249E+01  0.27376557287E+02 -0.20690832051E+03  0.20886803547E+03  0.00000000000E+00 0. -1.
         -2    1    1    2    0  502 -0.80825277249E+01 -0.27376557287E+02  0.21096429276E+02  0.35494541433E+02  0.00000000000E+00 0.  1.
</event>
<event>
 4    1  0.1768739E+004  0.3649297E+02  0.7546771E-02  0.1370360E+00
         21   -1    0    0  503  502  0.00000000000E+00  0.00000000000E+00  0.11019997809E+02  0.11019997809E+02  0.00000000000E+00 0. -1.
         21   -1    0    0  501  503 -0.00000000000E+00 -0.00000000000E+00 -0.24873165471E+03  0.24873165471E+03  0.00000000000E+00 0.  1.
          2    1    1    2  501    0 -0.20406189206E+02  0.30254328365E+02 -0.21198194828E+03  0.21510017048E+03  0.00000000000E+00 0.  1.
         -2    1    1    2    0  502  0.20406189206E+02 -0.30254328365E+02 -0.25729708619E+02  0.44651482040E+02  0.00000000000E+00 0. -1.
</event>
<event>
 4    1  0.1768739E+004  0.4604152E+02  0.7546771E-02  0.1316312E+00
         21   -1    0    0  501  502  0.00000000000E+00  0.00000000000E+00  0.64265354713E+02  0.64265354713E+02  0.00000000000E+00 0. -1.
         21   -1    0    0  502  503 -0.00000000000E+00 -0.00000000000E+00 -0.62623968843E+02  0.62623968843E+02  0.00000000000E+00 0.  1.
          2    1    1    2  501    0  0.34148294689E+02  0.30882291088E+02  0.44467553167E+02  0.64009258843E+02  0.00000000000E+00 0. -1.
         -2    1    1    2    0  503 -0.34148294689E+02 -0.30882291088E+02 -0.42826167296E+02  0.62880064713E+02  0.00000000000E+00 0.  1.
</event>
<event>
 4    1  0.1768739E+004  0.2102285E+02  0.7546771E-02  0.1518939E+00
         21   -1    0    0  501  502  0.00000000000E+00  0.00000000000E+00  0.58353246347E+02  0.58353246347E+02  0.00000000000E+00 0.  1.
         21   -1    0    0  502  503 -0.00000000000E+00 -0.00000000000E+00 -0.11996864845E+02  0.11996864845E+02  0.00000000000E+00 0. -1.
          2    1    1    2  501    0 -0.58245077875E+01  0.20199882334E+02  0.44536109402E+02  0.49248605848E+02  0.00000000000E+00 0.  1.
         -2    1    1    2    0  503  0.58245077875E+01 -0.20199882334E+02  0.18202720999E+01  0.21101505344E+02  0.00000000000E+00 0. -1.
</event>
<event>
 4    1  0.1768739E+004  0.3987456E+02  0.7546771E-02  0.1349222E+00
         21   -1    0    0  501  502  0.00000000000E+00  0.00000000000E+00  0.15106204964E+03  0.15106204964E+03  0.00000000000E+00 0. -1.
         21   -1    0    0  502  503 -0.00000000000E+00 -0.00000000000E+00 -0.29850306398E+02  0.29850306398E+02  0.00000000000E+00 0.  1.
          2    1    1    2  501    0 -0.26927235640E+02 -0.29409258050E+02  0.13338772879E+03  0.13922020927E+03  0.00000000000E+00 0. -1.
         -2    1    1    2    0  503  0.26927235640E+02  0.29409258050E+02 -0.12175985543E+02  0.41692146769E+02  0.00000000000E+00 0.  1.
</event>
<event>
 4    1  0.1768739E+004  0.3591645E+02  0.7546771E-02  0.1374232E+00
         21   -1    0    0  503  502  0.00000000000E+00  0.00000000000E+00  0.65633413827E+02  0.65633413827E+02  0.00000000000E+00 0.  1.
         21   -1    0    0  501  503 -0.00000000000E+00 -0.00000000000E+00 -0.81488925739E+02  0.81488925739E+02  0.00000000000E+00 0. -1.
          2    1    1    2  501    0  0.35771634688E+02  0.32220845122E+01 -0.72006576610E+02  0.80467004120E+02  0.00000000000E+00 0. -1.
         -2    1    1    2    0  502 -0.35771634688E+02 -0.32220845122E+01  0.56151064698E+02  0.66655335447E+02  0.00000000000E+00 0.  1.
</event>
<event>
 4    1  0.1768739E+004  0.2130506E+02  0.7546771E-02  0.1514954E+00
         21   -1    0    0  501  502  0.00000000000E+00  0.00000000000E+00  0.26235326111E+01  0.26235326111E+01  0.00000000000E+00 0. -1.
         21   -1    0    0  502  503 -0.00000000000E+00 -0.00000000000E+00 -0.74631385500E+03  0.74631385500E+03  0.00000000000E+00 0.  1.
          2    1    1    2  501    0 -0.17789643453E+02 -0.11723225798E+02 -0.43639527820E+02  0.48562473430E+02  0.00000000000E+00 0. -1.
         -2    1    1    2    0  503  0.17789643453E+02  0.11723225798E+02 -0.70005079457E+03  0.70037491418E+03  0.00000000000E+00 0.  1.
</event>
<event>
 4    1  0.1768739E+004  0.2002916E+02  0.7546771E-02  0.1533590E+00
         21   -1    0    0  503  502  0.00000000000E+00  0.00000000000E+00  0.28571486986E+01  0.28571486986E+01  0.00000000000E+00 0.  1.
         21   -1    0    0  501  503 -0.00000000000E+00 -0.00000000000E+00 -0.40730940444E+03  0.40730940444E+03  0.00000000000E+00 0. -1.
          2    1    1    2  501    0 -0.96527173831E+01  0.17549704899E+02 -0.36823958690E+03  0.36878389397E+03  0.00000000000E+00 0. -1.
         -2    1    1    2    0  502  0.96527173831E+01 -0.17549704899E+02 -0.36212668847E+02  0.41382659170E+02  0.00000000000E+00 0.  1.
</event>
<event>
 4    1  0.1768739E+004  0.5735353E+02  0.7546771E-02  0.1269100E+00
         21   -1    0    0  503  502  0.00000000000E+00  0.00000000000E+00  0.12721728946E+04  0.12721728946E+04  0.00000000000E+00 0.  1.
         21   -1    0    0  501  503 -0.00000000000E+00 -0.00000000000E+00 -0.31806867440E+01  0.31806867440E+01  0.00000000000E+00 0. -1.
          2    1    1    2  501    0  0.56389253258E+02  0.10472775241E+02  0.35869082792E+03  0.36324721188E+03  0.00000000000E+00 0. -1.
         -2    1    1    2    0  502 -0.56389253258E+02 -0.10472775241E+02  0.91030137990E+03  0.91210636943E+03  0.00000000000E+00 0.  1.
</event>
<event>
 4    1  0.1768739E+004  0.2521040E+02  0.7546771E-02  0.1466463E+00
         21   -1    0    0  501  502  0.00000000000E+00  0.00000000000E+00  0.13366184393E+02  0.13366184393E+02  0.00000000000E+00 0.  1.
         21   -1    0    0  502  503 -0.00000000000E+00 -0.00000000000E+00 -0.23224755826E+03  0.23224755826E+03  0.00000000000E+00 0. -1.
          2    1    1    2  501    0  0.14910002226E+02  0.20328698541E+02  0.75290269711E-01  0.25210510097E+02  0.00000000000E+00 0.  1.
         -2    1    1    2    0  503 -0.14910002226E+02 -0.20328698541E+02 -0.21895666414E+03  0.22040323256E+03  0.00000000000E+00 0. -1.
</event>
<event>
 4    1  0.1768739E+004  0.4657648E+02  0.7546771E-02  0.1313739E+00
         21   -1    0    0  501  502  0.00000000000E+00  0.00000000000E+00  0.13509770380E+02  0.13509770380E+02  0.00000000000E+00 0.  1.
         21   -1    0    0  502  503 -0.00000000000E+00 -0.00000000000E+00 -0.30904256999E+03  0.30904256999E+03  0.00000000000E+00 0. -1.
          2    1    1    2  501    0 -0.89523001414E+01  0.45708037855E+02 -0.35984151543E+02  0.58857689087E+02  0.00000000000E+00 0.  1.
         -2    1    1    2    0  503  0.89523001414E+01 -0.45708037855E+02 -0.25954864806E+03  0.26369465128E+03  0.00000000000E+00 0. -1.
</event>
<event>
 4    1  0.1768739E+004  0.4500591E+02  0.7546771E-02  0.1321410E+00
         21   -1    0    0  501  502  0.00000000000E+00  0.00000000000E+00  0.72814997189E+01  0.72814997189E+01  0.00000000000E+00 0.  1.
         21   -1    0    0  502  503 -0.00000000000E+00 -0.00000000000E+00 -0.28243053061E+03  0.28243053061E+03  0.00000000000E+00 0. -1.
          2    1    1    2  501    0 -0.12481844228E+02 -0.43240442955E+02 -0.11979379076E+03  0.12796907692E+03  0.00000000000E+00 0.  1.
         -2    1    1    2    0  503  0.12481844228E+02  0.43240442955E+02 -0.15535524014E+03  0.16174295342E+03  0.00000000000E+00 0. -1.
</event>
<event>
 4    1  0.1768739E+004  0.2727802E+02  0.7546771E-02  0.1444835E+00
         21   -1    0    0  501  502  0.00000000000E+00  0.00000000000E+00  0.51299923794E+02  0.51299923794E+02  0.00000000000E+00 0. -1.
         21   -1    0    0  502  503 -0.00000000000E+00 -0.00000000000E+00 -0.21671914567E+02  0.21671914567E+02  0.00000000000E+00 0.  1.
          2    1    1    2  501    0 -0.58979167386E+01  0.26632782797E+02  0.35796229524E+02  0.45005117370E+02  0.00000000000E+00 0. -1.
         -2    1    1    2    0  503  0.58979167386E+01 -0.26632782797E+02 -0.61682202971E+01  0.27966720991E+02  0.00000000000E+00 0.  1.
</event>
<event>
 4    1  0.1768739E+004  0.3588119E+02  0.7546771E-02  0.1374472E+00
         21   -1    0    0  503  502  0.00000000000E+00  0.00000000000E+00  0.94230699295E+02  0.94230699295E+02  0.00000000000E+00 0. -1.
         21   -1    0    0  501  503 -0.00000000000E+00 -0.00000000000E+00 -0.36873254313E+02  0.36873254313E+02  0.00000000000E+00 0.  1.
          2    1    1    2  501    0 -0.30578554787E+02 -0.18772636816E+02 -0.23329428253E+02  0.42798622974E+02  0.00000000000E+00 0.  1.
         -2    1    1    2    0  502  0.30578554787E+02  0.18772636816E+02  0.80686873235E+02  0.88305330633E+02  0.00000000000E+00 0. -1.
</event>
<event>
 4    1  0.1768739E+004  0.2240908E+02  0.7546771E-02  0.1500055E+00
         21   -1    0    0  501  502  0.00000000000E+00  0.00000000000E+00  0.13883174309E+02  0.13883174309E+02  0.00000000000E+00 0.  1.
         21   -1    0    0  502  503 -0.00000000000E+00 -0.00000000000E+00 -0.36572955440E+02  0.36572955440E+02  0.00000000000E+00 0. -1.
          2    1    1    2  501    0  0.22409067545E+02  0.21027024291E-01 -0.86997236824E+01  0.24038551173E+02  0.00000000000E+00 0.  1.
         -2    1    1    2    0  503 -0.22409067545E+02 -0.21027024291E-01 -0.13990057448E+02  0.26417578575E+02  0.00000000000E+00 0. -1.
</event>
<event>
 4    1  0.1768739E+004  0.2732981E+02  0.7546771E-02  0.1444323E+00
         21   -1    0    0  503  502  0.00000000000E+00  0.00000000000E+00  0.53524922855E+02  0.53524922855E+02  0.00000000000E+00 0. -1.
         21   -1    0    0  501  503 -0.00000000000E+00 -0.00000000000E+00 -0.14207892490E+02  0.14207892490E+02  0.00000000000E+00 0.  1.
          2    1    1    2  501    0 -0.20533234060E+01  0.27252567976E+02  0.15136624017E+02  0.31241574623E+02  0.00000000000E+00 0.  1.
         -2    1    1    2    0  502  0.20533234060E+01 -0.27252567976E+02  0.24180406348E+02  0.36491240722E+02  0.00000000000E+00 0. -1.
</event>
<event>
 4    1  0.1768739E+004  0.4918484E+02  0.7546771E-02  0.1301746E+00
         21   -1    0    0  501  502  0.00000000000E+00  0.00000000000E+00  0.48212936947E+02  0.48212936947E+02  0.00000000000E+00 0. -1.
         21   -1    0    0  502  503 -0.00000000000E+00 -0.00000000000E+00 -0.51624616774E+02  0.51624616774E+02  0.00000000000E+00 0.  1.
          2    1    1    2  501    0  0.43296104523E+02 -0.23336570777E+02 -0.10066929887E+02  0.50204494618E+02  0.00000000000E+00 0.  1.
         -2    1    1    2    0  503 -0.43296104523E+02  0.23336570777E+02  0.66552500599E+01  0.49633059103E+02  0.00000000000E+00 0. -1.
</event>
<event>
 4    1  0.1768739E+004  0.2306645E+02  0.7546771E-02  0.1491665E+00
         21   -1    0    0  501  502  0.00000000000E+00  0.00000000000E+00  0.38245908610E+02  0.38245908610E+02  0.00000000000E+00 0.  1.
         21   -1    0    0  502  503 -0.00000000000E+00 -0.00000000000E+00 -0.66890175950E+02  0.66890175950E+02  0.00000000000E+00 0. -1.
          2    1    1    2  501    0 -0.12232623009E+02 -0.19555662688E+02  0.32461166824E+02  0.39821958269E+02  0.00000000000E+00 0.  1.
         -2    1    1    2    0  503  0.12232623009E+02  0.19555662688E+02 -0.61105434164E+02  0.65314126291E+02  0.00000000000E+00 0. -1.
</event>
<event>
 4    1  0.1768739E+004  0.2295069E+02  0.7546771E-02  0.1493118E+00
         21   -1    0    0  501  502  0.00000000000E+00  0.00000000000E+00  0.11990908244E+01  0.11990908244E+01  0.00000000000E+00 0. -1.
         21   -1    0    0  502  503 -0.00000000000E+00 -0.00000000000E+00 -0.46543539951E+03  0.46543539951E+03  0.00000000000E+00 0.  1.
          2    1    1    2  501    0 -0.22456281709E+00 -0.22949587187E+02 -0.28742973496E+03  0.28834456215E+03  0.00000000000E+00 0.  1.
         -2    1    1    2    0  503  0.22456281709E+00  0.22949587187E+02 -0.17680657373E+03  0.17828992819E+03  0.00000000000E+00 0. -1.
</event>
<event>
 4    1  0.1768739E+004  0.2081389E+02  0.7546771E-02  0.1521939E+00
         21   -1    0    0  503  502  0.00000000000E+00  0.00000000000E+00  0.15307098557E+01  0.15307098557E+01  0.00000000000E+00 0. -1.
         21   -1    0    0  501  503 -0.00000000000E+00 -0.00000000000E+00 -0.51094899769E+03  0.51094899769E+03  0.00000000000E+00 0.  1.
          2    1    1    2  501    0 -0.18813975034E+02  0.89023732738E+01 -0.42585245543E+03  0.42636079991E+03  0.00000000000E+00 0.  1.
         -2    1    1    2    0  502  0.18813975034E+02 -0.89023732738E+01 -0.83565832404E+02  0.86118907633E+02  0.00000000000E+00 0. -1.
</event>
<event>
 4    1  0.1768739E+004  0.2601473E+02  0.7546771E-02  0.1457764E+00
         21   -1    0    0  503  502  0.00000000000E+00  0.00000000000E+00  0.81111052286E+02  0.81111052286E+02  0.00000000000E+00 0. -1.
         21   -1    0    0  501  503 -0.00000000000E+00 -0.00000000000E+00 -0.84954274442E+01  0.84954274442E+01  0.00000000000E+00 0.  1.
          2    1    1    2  501    0  0.24921097168E+02  0.74635981861E+01  0.30320289376E+02  0.39951049170E+02  0.00000000000E+00 0.  1.
         -2    1    1    2    0  502 -0.24921097168E+02 -0.74635981861E+01  0.42295335466E+02  0.49655430560E+02  0.00000000000E+00 0. -1.
</event>
<event>
 4    1  0.1768739E+004  0.3256932E+02  0.7546771E-02  0.1398507E+00
         21   -1    0    0  503  502  0.00000000000E+00  0.00000000000E+00  0.16228044702E+02  0.16228044702E+02  0.00000000000E+00 0.  1.
         21   -1    0    0  501  503 -0.00000000000E+00 -0.00000000000E+00 -0.92719156448E+02  0.92719156448E+02  0.00000000000E+00 0. -1.
          2    1    1    2  501    0  0.72480941603E+01 -0.31752569137E+02 -0.67832899660E+02  0.75246679608E+02  0.00000000000E+00 0. -1.
         -2    1    1    2    0  502 -0.72480941603E+01  0.31752569137E+02 -0.86582120858E+01  0.33700521543E+02  0.00000000000E+00 0.  1.
</event>
<event>
 4    1  0.1768739E+004  0.2711061E+02  0.7546771E-02  0.1446500E+00
         21   -1    0    0  501  502  0.00000000000E+00  0.00000000000E+00  0.15434050137E+02  0.15434050137E+02  0.00000000000E+00 0. -1.
         21   -1    0    0  502  503 -0.00000000000E+00 -0.00000000000E+00 -0.48554786498E+02  0.48554786498E+02  0.00000000000E+00 0.  1.
          2    1    1    2  501    0 -0.26758703351E+02  0.43539301836E+01 -0.20997290407E+02  0.34290977202E+02  0.00000000000E+00 0.  1.
         -2    1    1    2    0  503  0.26758703351E+02 -0.43539301836E+01 -0.12123445955E+02  0.29697859433E+02  0.00000000000E+00 0. -1.
</event>
<event>
 4    1  0.1768739E+004  0.2438730E+02  0.7546771E-02  0.1475776E+00
         21   -1    0    0  501  502  0.00000000000E+00  0.00000000000E+00  0.49847730331E+01  0.49847730331E+01  0.00000000000E+00 0. -1.
         21   -1    0    0  502  503 -0.00000000000E+00 -0.00000000000E+00 -0.15051929194E+03  0.15051929194E+03  0.00000000000E+00 0.  1.
          2    1    1    2  501    0  0.13915722920E+02 -0.20027306081E+02 -0.37363631620E+02  0.44618172319E+02  0.00000000000E+00 0. -1.
         -2    1    1    2    0  503 -0.13915722920E+02  0.20027306081E+02 -0.10817088728E+03  0.11088589265E+03  0.00000000000E+00 0.  1.
</event>
<event>
 4    1  0.1768739E+004  0.2547912E+02  0.7546771E-02  0.1463514E+00
         21   -1    0    0  501  502  0.00000000000E+00  0.00000000000E+00  0.27733967509E+03  0.27733967509E+03  0.00000000000E+00 0.  1.
         21   -1    0    0  502  503 -0.00000000000E+00 -0.00000000000E+00 -0.23631760375E+01  0.23631760375E+01  0.00000000000E+00 0. -1.
          2    1    1    2  501    0 -0.14211108612E+02  0.21147813477E+02  0.12386759090E+03  0.12646092558E+03  0.00000000000E+00 0. -1.
         -2    1    1    2    0  503  0.14211108612E+02 -0.21147813477E+02  0.15110890815E+03  0.15324192554E+03  0.00000000000E+00 0.  1.
</event>
<event>
 4    1  0.1768739E+004  0.2612604E+02  0.7546771E-02  0.1456590E+00
         21   -1    0    0  501  502  0.00000000000E+00  0.00000000000E+00  0.98740676403E+01  0.98740676403E+01  0.00000000000E+00 0. -1.
         21   -1    0    0  502  503 -0.00000000000E+00 -0.00000000000E+00 -0.48722551786E+03  0.48722551786E+03  0.00000000000E+00 0.  1.
          2    1    1    2  501    0  0.25697848235E+02  0.47107068120E+01 -0.84322043206E+01  0.27453091489E+02  0.00000000000E+00 0. -1.
         -2    1    1    2    0  503 -0.25697848235E+02 -0.47107068120E+01 -0.46891924590E+03  0.46964649401E+03  0.00000000000E+00 0.  1.
</event>
<event>
 4    1  0.1768739E+004  0.2413656E+02  0.7546771E-02  0.1478699E+00
         21   -1    0    0  501  502  0.00000000000E+00  0.00000000000E+00  0.18915351679E+01  0.18915351679E+01  0.00000000000E+00 0.  1.
         21   -1    0    0  502  503 -0.00000000000E+00 -0.00000000000E+00 -0.44683201028E+03  0.44683201028E+03  0.00000000000E+00 0. -1.
          2    1    1    2  501    0  0.20184557795E+01 -0.24052018471E+02 -0.97404801143E+02  0.10035073015E+03  0.00000000000E+00 0.  1.
         -2    1    1    2    0  503 -0.20184557795E+01  0.24052018471E+02 -0.34753567397E+03  0.34837281530E+03  0.00000000000E+00 0. -1.
</event>
<event>
 4    1  0.1768739E+004  0.4243726E+02  0.7546771E-02  0.1334766E+00
         21   -1    0    0  501  502  0.00000000000E+00  0.00000000000E+00  0.36959950396E+04  0.36959950396E+04  0.00000000000E+00 0.  1.
         21   -1    0    0  502  503 -0.00000000000E+00 -0.00000000000E+00 -0.63244098948E+00  0.63244098948E+00  0.00000000000E+00 0. -1.
          2    1    1    2  501    0  0.25437230190E+02  0.33968639767E+02  0.27332377762E+04  0.27335672046E+04  0.00000000000E+00 0.  1.
         -2    1    1    2    0  503 -0.25437230190E+02 -0.33968639767E+02  0.96212482244E+03  0.96306027596E+03  0.00000000000E+00 0. -1.
</event>
<event>
 4    1  0.1768739E+004  0.4052071E+02  0.7546771E-02  0.1345461E+00
         21   -1    0    0  501  502  0.00000000000E+00  0.00000000000E+00  0.19864633124E+01  0.19864633124E+01  0.00000000000E+00 0.  1.
         21   -1    0    0  502  503 -0.00000000000E+00 -0.00000000000E+00 -0.91835322872E+03  0.91835322872E+03  0.00000000000E+00 0. -1.
          2    1    1    2  501    0 -0.23081085226E+02 -0.33304523648E+02 -0.31269692809E+03  0.31531142800E+03  0.00000000000E+00 0.  1.
         -2    1    1    2    0  503  0.23081085226E+02  0.33304523648E+02 -0.60366983732E+03  0.60502826404E+03  0.00000000000E+00 0. -1.
</event>
<event>
 4    1  0.1768739E+004  0.2817011E+02  0.7546771E-02  0.1436195E+00
         21   -1    0    0  503  502  0.00000000000E+00  0.00000000000E+00  0.38902529758E+02  0.38902529758E+02  0.00000000000E+00 0. -1.
         21   -1    0    0  501  503 -0.00000000000E+00 -0.00000000000E+00 -0.81061174545E+02  0.81061174545E+02  0.00000000000E+00 0.  1.
          2    1    1    2  501    0 -0.24458142265E+02  0.13976925605E+02 -0.72968170080E+02  0.78217063466E+02  0.00000000000E+00 0.  1.
         -2    1    1    2    0  502  0.24458142265E+02 -0.13976925605E+02  0.30809525293E+02  0.41746640837E+02  0.00000000000E+00 0. -1.
</event>
<event>
 4    1  0.1768739E+004  0.2244167E+02  0.7546771E-02  0.1499631E+00
         21   -1    0    0  501  502  0.00000000000E+00  0.00000000000E+00  0.21594836641E+01  0.21594836641E+01  0.00000000000E+00 0. -1.
         21   -1    0    0  502  503 -0.00000000000E+00 -0.00000000000E+00 -0.60650015244E+03  0.60650015244E+03  0.00000000000E+00 0.  1.
          2    1    1    2  501    0 -0.11952034023E+02 -0.18994136344E+02 -0.63417665300E+02  0.67271305955E+02  0.00000000000E+00 0. -1.
         -2    1    1    2    0  503  0.11952034023E+02  0.18994136344E+02 -0.54092300348E+03  0.54138833015E+03  0.00000000000E+00 0.  1.
</event>
<event>
 4    1  0.1768739E+004  0.3092864E+02  0.7546771E-02  0.1411694E+00
         21   -1    0    0  503  502  0.00000000000E+00  0.00000000000E+00  0.21313368649E+03  0.21313368649E+03  0.00000000000E+00 0.  1.
         21   -1    0    0  501  503 -0.00000000000E+00 -0.00000000000E+00 -0.99594915905E+01  0.99594915905E+01  0.00000000000E+00 0. -1.
          2    1    1    2  501    0 -0.28847537696E+02 -0.11153479504E+02  0.18910275960E+02  0.36251607869E+02  0.00000000000E+00 0. -1.
         -2    1    1    2    0  502  0.28847537696E+02  0.11153479504E+02  0.18426391894E+03  0.18684157021E+03  0.00000000000E+00 0.  1.
</event>
<event>
 4    1  0.1768739E+004  0.2653642E+02  0.7546771E-02  0.1452321E+00
         21   -1    0    0  503  502  0.00000000000E+00  0.00000000000E+00  0.75359598425E+02  0.75359598425E+02  0.00000000000E+00 0. -1.
         21   -1    0    0  501  503 -0.00000000000E+00 -0.00000000000E+00 -0.16612471594E+02  0.16612471594E+02  0.00000000000E+00 0.  1.
          2    1    1    2  501    0 -0.17878666317E+02 -0.19609557948E+02 -0.10438241184E+01  0.26556939601E+02  0.00000000000E+00 0.  1.
         -2    1    1    2    0  502  0.17878666317E+02  0.19609557948E+02  0.59790950950E+02  0.65415130418E+02  0.00000000000E+00 0. -1.
</event>
<event>
 4    1  0.1768739E+004  0.2613353E+02  0.7546771E-02  0.1456512E+00
         21   -1    0    0  501  502  0.00000000000E+00  0.00000000000E+00  0.25662421226E+02  0.25662421226E+02  0.00000000000E+00 0.  1.
         21   -1    0    0  502  503 -0.00000000000E+00 -0.00000000000E+00 -0.33725600403E+02  0.33725600403E+02  0.00000000000E+00 0. -1.
          2    1    1    2  501    0  0.75802288090E+01  0.25010026054E+02  0.96046489589E+01  0.27842603213E+02  0.00000000000E+00 0.  1.
         -2    1    1    2    0  503 -0.75802288090E+01 -0.25010026054E+02 -0.17667828135E+02  0.31545418416E+02  0.00000000000E+00 0. -1.
</event>
<event>
 4    1  0.1768739E+004  0.4938280E+02  0.7546771E-02  0.1300871E+00
         21   -1    0    0  501  502  0.00000000000E+00  0.00000000000E+00  0.75470773895E+01  0.75470773895E+01  0.00000000000E+00 0. -1.
         21   -1    0    0  502  503 -0.00000000000E+00 -0.00000000000E+00 -0.46602637802E+03  0.46602637802E+03  0.00000000000E+00 0.  1.
          2    1    1    2  501    0  0.32184527055E+02 -0.37454204149E+02 -0.98119953336E+02  0.10984619444E+03  0.00000000000E+00 0. -1.
         -2    1    1    2    0  503 -0.32184527055E+02  0.37454204149E+02 -0.36035934729E+03  0.36372726097E+03  0.00000000000E+00 0.  1.
</event>
<event>
 4    1  0.1768739E+004  0.2008490E+02  0.7546771E-02  0.1532742E+00
         21   -1    0    0  501  502  0.00000000000E+00  0.00000000000E+00  0.82894925472E+02  0.82894925472E+02  0.00000000000E+00 0. -1.
         21   -1    0    0  502  503 -0.00000000000E+00 -0.00000000000E+00 -0.36801045126E+02  0.36801045126E+02  0.00000000000E+00 0.  1.
          2    1    1    2  501    0  0.53181411849E+01  0.19368033579E+02  0.78797626747E+02  0.81317091263E+02  0.00000000000E+00 0. -1.
         -2    1    1    2    0  503 -0.53181411849E+01 -0.19368033579E+02 -0.32703746401E+02  0.38378879335E+02  0.00000000000E+00 0.  1.
</event>
<event>
 4    1  0.1768739E+004  0.2230090E+02  0.7546771E-02  0.1501468E+00
         21   -1    0    0  503  502  0.00000000000E+00  0.00000000000E+00  0.15741199702E+03  0.15741199702E+03  0.00000000000E+00 0.  1.
         21   -1    0    0  501  503 -0.00000000000E+00 -0.00000000000E+00 -0.32462064086E+01  0.32462064086E+01  0.00000000000E+00 0. -1.
          2    1    1    2  501    0  0.21654766970E+02 -0.53292962797E+01  0.63948346515E+02  0.67725337603E+02  0.00000000000E+00 0. -1.
         -2    1    1    2    0  502 -0.21654766970E+02  0.53292962797E+01  0.90217444100E+02  0.92932865830E+02  0.00000000000E+00 0.  1.
</event>
<event>
 4    1  0.1768739E+004  0.2000145E+02  0.7546771E-02  0.1534013E+00
         21   -1    0    0  503  502  0.00000000000E+00  0.00000000000E+00  0.50436609917E+02  0.50436609917E+02  0.00000000000E+00 0.  1.
         21   -1    0    0  501  503 -0.00000000000E+00 -0.00000000000E+00 -0.62135099355E+02  0.62135099355E+02  0.00000000000E+00 0. -1.
          2    1    1    2  501    0 -0.86698159197E+01 -0.18024765920E+02 -0.58419882635E+02  0.61749012799E+02  0.00000000000E+00 0. -1.
         -2    1    1    2    0  502  0.86698159197E+01  0.18024765920E+02  0.46721393197E+02  0.50822696473E+02  0.00000000000E+00 0.  1.
</event>
<event>
 4    1  0.1768739E+004  0.2530261E+02  0.7546771E-02  0.1465446E+00
         21   -1    0    0  503  502  0.00000000000E+00  0.00000000000E+00  0.15954639956E+04  0.15954639956E+04  0.00000000000E+00 0. -1.
         21   -1    0    0  501  503 -0.00000000000E+00 -0.00000000000E+00 -0.40599250021E+00  0.40599250021E+00  0.00000000000E+00 0.  1.
          2    1    1    2  501    0  0.69477034743E+01 -0.24330051772E+02  0.88352957312E+03  0.88389180819E+03  0.00000000000E+00 0. -1.
         -2    1    1    2    0  502 -0.69477034743E+01  0.24330051772E+02  0.71152843000E+03  0.71197817993E+03  0.00000000000E+00 0.  1.
</event>
<event>
 4    1  0.1768739E+004  0.2833648E+02  0.7546771E-02  0.1434626E+00
         21   -1    0    0  503  502  0.00000000000E+00  0.00000000000E+00  0.41861592630E+03  0.41861592630E+03  0.00000000000E+00 0.  1.
         21   -1    0    0  501  503 -0.00000000000E+00 -0.00000000000E+00 -0.48788655546E+01  0.48788655546E+01  0.00000000000E+00 0. -1.
          2    1    1    2  501    0  0.24119539565E+02  0.14872918933E+02  0.41915940507E+02  0.50595473859E+02  0.00000000000E+00 0. -1.
         -2    1    1    2    0  502 -0.24119539565E+02 -0.14872918933E+02  0.37182112024E+03  0.37289931799E+03  0.00000000000E+00 0.  1.
</event>
<event>
 4    1  0.1768739E+004  0.2174379E+02  0.7546771E-02  0.1508905E+00
         21   -1    0    0  501  502  0.00000000000E+00  0.00000000000E+00  0.30909599377E+02  0.30909599377E+02  0.00000000000E+00 0.  1.
         21   -1    0    0  502  503 -0.00000000000E+00 -0.00000000000E+00 -0.15588375878E+02  0.15588375878E+02  0.00000000000E+00 0. -1.
          2    1    1    2  501    0 -0.18405765803E+02 -0.11576715231E+02  0.10844741539E+02  0.24298168025E+02  0.00000000000E+00 0. -1.
         -2    1    1    2    0  503  0.18405765803E+02  0.11576715231E+02  0.44764819600E+01  0.22199807230E+02  0.00000000000E+00 0.  1.
</event>
<event>
 4    1  0.1768739E+004  0.2588593E+02  0.7546771E-02  0.1459132E+00
         21   -1    0    0  503  502  0.00000000000E+00  0.00000000000E+00  0.28868976026E+03  0.28868976026E+03  0.00000000000E+00 0. -1.
         21   -1    0    0  501  503 -0.00000000000E+00 -0.00000000000E+00 -0.65594948167E+01  0.65594948167E+01  0.00000000000E+00 0.  1.
          2    1    1    2  501    0  0.13542427803E+02  0.22060916089E+02  0.22399846752E+02  0.34232068357E+02  0.00000000000E+00 0.  1.
         -2    1    1    2    0  502 -0.13542427803E+02 -0.22060916089E+02  0.25973041869E+03  0.26101718672E+03  0.00000000000E+00 0. -1.
</event>
<event>
 4    1  0.1768739E+004  0.2112546E+02  0.7546771E-02  0.1517481E+00
         21   -1    0    0  501  502  0.00000000000E+00  0.00000000000E+00  0.45252690673E+02  0.45252690673E+02  0.00000000000E+00 0. -1.
         21   -1    0    0  502  503 -0.00000000000E+00 -0.00000000000E+00 -0.10721360005E+02  0.10721360005E+02  0.00000000000E+00 0.  1.
          2    1    1    2  501    0 -0.16873393378E+02 -0.12711155513E+02  0.25188917789E+02  0.32875012668E+02  0.00000000000E+00 0. -1.
         -2    1    1    2    0  503  0.16873393378E+02  0.12711155513E+02  0.93424128796E+01  0.23099038009E+02  0.00000000000E+00 0.  1.
</event>
<event>
 4    1  0.1768739E+004  0.2376491E+02  0.7546771E-02  0.1483110E+00
         21   -1    0    0  503  502  0.00000000000E+00  0.00000000000E+00  0.17002440749E+01  0.17002440749E+01  0.00000000000E+00 0. -1.
         21   -1    0    0  501  503 -0.00000000000E+00 -0.00000000000E+00 -0.50639507726E+03  0.50639507726E+03  0.00000000000E+00 0.  1.
          2    1    1    2  501    0 -0.13235865049E+02 -0.19737856067E+02 -0.40136072399E+03  0.40206367884E+03  0.00000000000E+00 0.  1.
         -2    1    1    2    0  502  0.13235865049E+02  0.19737856067E+02 -0.10333410920E+03  0.10603164249E+03  0.00000000000E+00 0. -1.
</event>
<event>
 4    1  0.1768739E+004  0.2268182E+02  0.7546771E-02  0.1496533E+00
         21   -1    0    0  503  502  0.00000000000E+00  0.00000000000E+00  0.84886493472E+02  0.84886493472E+02  0.00000000000E+00 0. -1.
         21   -1    0    0  501  503 -0.00000000000E+00 -0.00000000000E+00 -0.93371543094E+01  0.93371543094E+01  0.00000000000E+00 0.  1.
          2    1    1    2  501    0 -0.21315161611E+02 -0.77542930793E+01  0.65682732979E+02  0.69488751516E+02  0.00000000000E+00 0. -1.
         -2    1    1    2    0  502  0.21315161611E+02  0.77542930793E+01  0.98666061829E+01  0.24734896265E+02  0.00000000000E+00 0.  1.
</event>
<event>
 4    1  0.1768739E+004  0.2443973E+02  0.7546771E-02  0.1475170E+00
         21   -1    0    0  503  502  0.00000000000E+00  0.00000000000E+00  0.72354257102E+01  0.72354257102E+01  0.00000000000E+00 0. -1.
         21   -1    0    0  501  503 -0.00000000000E+00 -0.00000000000E+00 -0.84095447901E+03  0.84095447901E+03  0.00000000000E+00 0.  1.
          2    1    1    2  501    0 -0.15260065118E+02  0.19090074574E+02 -0.81960128817E+03  0.81996559203E+03  0.00000000000E+00 0.  1.
         -2    1    1    2    0  502  0.15260065118E+02 -0.19090074574E+02 -0.14117765122E+02  0.28224312688E+02  0.00000000000E+00 0. -1.
</event>
<event>
 4    1  0.1768739E+004  0.2713614E+02  0.7546771E-02  0.1446245E+00
         21   -1    0    0  503  502  0.00000000000E+00  0.00000000000E+00  0.13749771295E+03  0.13749771295E+03  0.00000000000E+00 0. -1.
         21   -1    0    0  501  503 -0.00000000000E+00 -0.00000000000E+00 -0.12695238619E+02  0.12695238619E+02  0.00000000000E+00 0.  1.
          2    1    1    2  501    0 -0.17799450956E+02 -0.20482909659E+02  0.53008312662E+01  0.27649029903E+02  0.00000000000E+00 0.  1.
         -2    1    1    2    0  502  0.17799450956E+02  0.20482909659E+02  0.11950164306E+03  0.12254392167E+03  0.00000000000E+00 0. -1.
</event>
<event>
 4    1  0.1768739E+004  0.2484285E+02  0.7546771E-02  0.1470569E+00
         21   -1    0    0  503  502  0.00000000000E+00  0.00000000000E+00  0.95501117927E+01  0.95501117927E+01  0.00000000000E+00 0.  1.
         21   -1    0    0  501  503 -0.00000000000E+00 -0.00000000000E+00 -0.70458884977E+02  0.70458884977E+02  0.00000000000E+00 0. -1.
          2    1    1    2  501    0  0.14119266742E+02  0.20440487465E+02 -0.41966471689E+02  0.48768350056E+02  0.00000000000E+00 0.  1.
         -2    1    1    2    0  502 -0.14119266742E+02 -0.20440487465E+02 -0.18942301495E+02  0.31240646714E+02  0.00000000000E+00 0. -1.
</event>
<event>
 4    1  0.1768739E+004  0.2603822E+02  0.7546771E-02  0.1457516E+00
         21   -1    0    0  501  502  0.00000000000E+00  0.00000000000E+00  0.85310716149E+02  0.85310716149E+02  0.00000000000E+00 0.  1.
         21   -1    0    0  502  503 -0.00000000000E+00 -0.00000000000E+00 -0.24701123709E+02  0.24701123709E+02  0.00000000000E+00 0. -1.
          2    1    1    2  501    0  0.82223144302E+01  0.24705923474E+02  0.75605835003E+02  0.79963938096E+02  0.00000000000E+00 0.  1.
         -2    1    1    2    0  503 -0.82223144302E+01 -0.24705923474E+02 -0.14996242563E+02  0.30047901762E+02  0.00000000000E+00 0. -1.
</event>
<event>
 4    1  0.1768739E+004  0.8155855E+02  0.7546771E-02  0.1200275E+00
         21   -1    0    0  501  502  0.00000000000E+00  0.00000000000E+00  0.11132082320E+03  0.11132082320E+03  0.00000000000E+00 0.  1.
         21   -1    0    0  502  503 -0.00000000000E+00 -0.00000000000E+00 -0.73176787055E+02  0.73176787055E+02  0.00000000000E+00 0. -1.
          2    1    1    2  501    0  0.66202264436E+02 -0.47634627679E+02  0.58581847339E+02  0.10041728142E+03  0.00000000000E+00 0.  1.
         -2    1    1    2    0  503 -0.66202264436E+02  0.47634627679E+02 -0.20437811192E+02  0.84080328835E+02  0.00000000000E+00 0. -1.
</event>
<event>
 4    1  0.1768739E+004  0.2091779E+02  0.7546771E-02  0.1520442E+00
         21   -1    0    0  503  502  0.00000000000E+00  0.00000000000E+00  0.52000974137E+02  0.52000974137E+02  0.00000000000E+00 0.  1.
         21   -1    0    0  501  503 -0.00000000000E+00 -0.00000000000E+00 -0.24445407086E+02  0.24445407086E+02  0.00000000000E+00 0. -1.
          2    1    1    2  501    0 -0.13609749743E+02 -0.15884851547E+02 -0.17175700280E+02  0.27065817498E+02  0.00000000000E+00 0. -1.
         -2    1    1    2    0  502  0.13609749743E+02  0.15884851547E+02  0.44731267331E+02  0.49380563725E+02  0.00000000000E+00 0.  1.
</event>
<event>
 4    1  0.1768739E+004  0.2047021E+02  0.7546771E-02  0.1526965E+00
         21   -1    0    0  501  502  0.00000000000E+00  0.00000000000E+00  0.60308824050E+02  0.60308824050E+02  0.00000000000E+00 0.  1.
         21   -1    0    0  502  503 -0.00000000000E+00 -0.00000000000E+00 -0.13196115356E+02  0.13196115356E+02  0.00000000000E+00 0. -1.
          2    1    1    2  501    0 -0.12384654959E+02  0.16298773367E+02  0.48845589880E+02  0.52961508121E+02  0.00000000000E+00 0.  1.
         -2    1    1    2    0  503  0.12384654959E+02 -0.16298773367E+02 -0.17328811868E+01  0.20543431284E+02  0.00000000000E+00 0. -1.
</event>
<event>
 4    1  0.1768739E+004  0.2523929E+02  0.7546771E-02  0.1466144E+00
         21   -1    0    0  503  502  0.00000000000E+00  0.00000000000E+00  0.11237992440E+03  0.11237992440E+03  0.00000000000E+00 0.  1.
         21   -1    0    0  501  503 -0.00000000000E+00 -0.00000000000E+00 -0.70777756022E+01  0.70777756022E+01  0.00000000000E+00 0. -1.
          2    1    1    2  501    0 -0.23950409555E+02  0.79623863232E+01  0.25998506686E+02  0.36234570009E+02  0.00000000000E+00 0. -1.
         -2    1    1    2    0  502  0.23950409555E+02 -0.79623863232E+01  0.79303642113E+02  0.83223129995E+02  0.00000000000E+00 0.  1.
</event>
<event>
 4    1  0.1768739E+004  0.2536085E+02  0.7546771E-02  0.1464807E+00
         21   -1    0    0  503  502  0.00000000000E+00  0.00000000000E+00  0.37795408144E+01  0.37795408144E+01  0.00000000000E+00 0.  1.
         21   -1    0    0  501  503 -0.00000000000E+00 -0.00000000000E+00 -0.19673948901E+03  0.19673948901E+03  0.00000000000E+00 0. -1.
          2    1    1    2  501    0 -0.24317617722E+02  0.71990525716E+01 -0.59637125400E+02  0.64805552352E+02  0.00000000000E+00 0.  1.
         -2    1    1    2    0  502  0.24317617722E+02 -0.71990525716E+01 -0.13332282280E+03  0.13571347747E+03  0.00000000000E+00 0. -1.
</event>
<event>
 4    1  0.1768739E+004  0.2049250E+02  0.7546771E-02  0.1526635E+00
         21   -1    0    0  501  502  0.00000000000E+00  0.00000000000E+00  0.13057425061E+03  0.13057425061E+03  0.00000000000E+00 0. -1.
         21   -1    0    0  502  503 -0.00000000000E+00 -0.00000000000E+00 -0.51846595462E+01  0.51846595462E+01  0.00000000000E+00 0.  1.
          2    1    1    2  501    0  0.14853928815E+02  0.14117486889E+02  0.10452116281E+03  0.10651110793E+03  0.00000000000E+00 0. -1.
         -2    1    1    2    0  503 -0.14853928815E+02 -0.14117486889E+02  0.20868428256E+02  0.29247802228E+02  0.00000000000E+00 0.  1.
</event>
<event>
 4    1  0.1768739E+004  0.2332753E+02  0.7546771E-02  0.1488426E+00
         21   -1    0    0  503  502  0.00000000000E+00  0.00000000000E+00  0.23211697825E+03  0.23211697825E+03  0.00000000000E+00 0. -1.
         21   -1    0    0  501  503 -0.00000000000E+00 -0.00000000000E+00 -0.27509595144E+01  0.27509595144E+01  0.00000000000E+00 0.  1.
          2    1    1    2  501    0  0.22702893880E+02 -0.53621042147E+01  0.69537231930E+02  0.73345757728E+02  0.00000000000E+00 0. -1.
         -2    1    1    2    0  502 -0.22702893880E+02  0.53621042147E+01  0.15982878680E+03  0.16152218003E+03  0.00000000000E+00 0.  1.
</event>
<event>
 4    1  0.1768739E+004  0.2243860E+02  0.7546771E-02  0.1499671E+00
         21   -1    0    0  501  502  0.00000000000E+00  0.00000000000E+00  0.19605154434E+02  0.19605154434E+02  0.00000000000E+00 0.  1.
         21   -1    0    0  502  503 -0.00000000000E+00 -0.00000000000E+00 -0.93545573941E+02  0.93545573941E+02  0.00000000000E+00 0. -1.
          2    1    1    2  501    0 -0.21229679572E+02  0.72657778973E+01  0.11217415984E+02  0.25086276019E+02  0.00000000000E+00 0.  1.
         -2    1    1    2    0  503  0.21229679572E+02 -0.72657778973E+01 -0.85157835490E+02  0.88064452355E+02  0.00000000000E+00 0. -1.
</event>
<event>
 4    1  0.1768739E+004  0.2128965E+02  0.7546771E-02  0.1515169E+00
         21   -1    0    0  501  502  0.00000000000E+00  0.00000000000E+00  0.84987930412E+02  0.84987930412E+02  0.00000000000E+00 0.  1.
         21   -1    0    0  502  503 -0.00000000000E+00 -0.00000000000E+00 -0.15550355288E+02  0.15550355288E+02  0.00000000000E+00 0. -1.
          2    1    1    2  501    0 -0.18519810719E+02 -0.10500745905E+02  0.75466052579E+02  0.78411568952E+02  0.00000000000E+00 0.  1.
         -2    1    1    2    0  503  0.18519810719E+02  0.10500745905E+02 -0.60284774544E+01  0.22126716748E+02  0.00000000000E+00 0. -1.
</event>
<event>
 4    1  0.1768739E+004  0.2051418E+02  0.7546771E-02  0.1526315E+00
         21   -1    0    0  503  502  0.00000000000E+00  0.00000000000E+00  0.38708911698E+03  0.38708911698E+03  0.00000000000E+00 0.  1.
         21   -1    0    0  501  503 -0.00000000000E+00 -0.00000000000E+00 -0.10875158766E+01  0.10875158766E+01  0.00000000000E+00 0. -1.
          2    1    1    2  501    0  0.82147597811E+01 -0.18797588259E+02  0.18953853750E+03  0.19064545313E+03  0.00000000000E+00 0.  1.
         -2    1    1    2    0  502 -0.82147597811E+01  0.18797588259E+02  0.19646306360E+03  0.19753117972E+03  0.00000000000E+00 0. -1.
</event>
<event>
 4    1  0.1768739E+004  0.2667907E+02  0.7546771E-02  0.1450859E+00
         21   -1    0    0  503  502  0.00000000000E+00  0.00000000000E+00  0.17843425439E+03  0.17843425439E+03  0.00000000000E+00 0. -1.
         21   -1    0    0  501  503 -0.00000000000E+00 -0.00000000000E+00 -0.40060532438E+01  0.40060532438E+01  0.00000000000E+00 0.  1.
          2    1    1    2  501    0  0.26553928438E+02 -0.25809909966E+01  0.81260895266E+02  0.85528391365E+02  0.00000000000E+00 0. -1.
         -2    1    1    2    0  502 -0.26553928438E+02  0.25809909966E+01  0.93167305884E+02  0.96911916273E+02  0.00000000000E+00 0.  1.
</event>
<event>
 4    1  0.1768739E+004  0.2026826E+02  0.7546771E-02  0.1529974E+00
         21   -1    0    0  503  502  0.00000000000E+00  0.00000000000E+00  0.90122055102E+02  0.90122055102E+02  0.00000000000E+00 0. -1.
         21   -1    0    0  501  503 -0.00000000000E+00 -0.00000000000E+00 -0.45831764040E+01  0.45831764040E+01  0.00000000000E+00 0.  1.
          2    1    1    2  501    0  0.12866943568E+02  0.15660266040E+02  0.39279883454E+02  0.44200807836E+02  0.00000000000E+00 0. -1.
         -2    1    1    2    0  502 -0.12866943568E+02 -0.15660266040E+02  0.46258995244E+02  0.50504423670E+02  0.00000000000E+00 0.  1.
</event>
<event>
 4    1  0.1768739E+004  0.2895124E+02  0.7546771E-02  0.1428934E+00
         21   -1    0    0  503  502  0.00000000000E+00  0.00000000000E+00  0.10796044640E+03  0.10796044640E+03  0.00000000000E+00 0.  1.
         21   -1    0    0  501  503 -0.00000000000E+00 -0.00000000000E+00 -0.15121829692E+02  0.15121829692E+02  0.00000000000E+00 0. -1.
          2    1    1    2  501    0  0.15963568326E+02 -0.24152407793E+02  0.34907227729E+01  0.29160923534E+02  0.00000000000E+00 0. -1.
         -2    1    1    2    0  502 -0.15963568326E+02  0.24152407793E+02  0.89347893939E+02  0.93921352563E+02  0.00000000000E+00 0.  1.
</event>
<event>
 4    1  0.1768739E+004  0.4421094E+02  0.7546771E-02  0.1325432E+00
         21   -1    0    0  503  502  0.00000000000E+00  0.00000000000E+00  0.14958609416E+02  0.14958609416E+02  0.00000000000E+00 0.  1.
         21   -1    0    0  501  503 -0.00000000000E+00 -0.00000000000E+00 -0.14477221334E+03  0.14477221334E+03  0.00000000000E+00 0. -1.
          2    1    1    2  501    0  0.19948934877E+02 -0.39454366166E+02 -0.89835250849E+02  0.10012481864E+03  0.00000000000E+00 0. -1.
         -2    1    1    2    0  502 -0.19948934877E+02  0.39454366166E+02 -0.39978353074E+02  0.59606004117E+02  0.00000000000E+00 0.  1.
</event>
<event>
 4    1  0.1768739E+004  0.3159157E+02  0.7546771E-02  0.1406252E+00
         21   -1    0    0  501  502  0.00000000000E+00  0.00000000000E+00  0.18589352566E+03  0.18589352566E+03  0.00000000000E+00 0.  1.
         21   -1    0    0  502  503 -0.00000000000E+00 -0.00000000000E+00 -0.71372154468E+01  0.71372154468E+01  0.00000000000E+00 0. -1.
          2    1    1    2  501    0  0.21871046830E+02 -0.22796593278E+02  0.13742034325E+03  0.14100488677E+03  0.00000000000E+00 0.  1.
         -2    1    1    2    0  503 -0.21871046830E+02  0.22796593278E+02  0.41335966965E+02  0.52025854336E+02  0.00000000000E+00 0. -1.
</event>
<event>
 4    1  0.1768739E+004  0.4249981E+02  0.7546771E-02  0.1334428E+00
         21   -1    0    0  503  502  0.00000000000E+00  0.00000000000E+00  0.22705348695E+02  0.22705348695E+02  0.00000000000E+00 0.  1.
         21   -1    0    0  501  503 -0.00000000000E+00 -0.00000000000E+00 -0.11775113577E+03  0.11775113577E+03  0.00000000000E+00 0. -1.
          2    1    1    2  501    0  0.41440564188E+02 -0.94294060530E+01 -0.87523030908E+02  0.97296017380E+02  0.00000000000E+00 0.  1.
         -2    1    1    2    0  502 -0.41440564188E+02  0.94294060530E+01 -0.75227561689E+01  0.43160467087E+02  0.00000000000E+00 0. -1.
</event>
<event>
 4    1  0.1768739E+004  0.3310379E+02  0.7546771E-02  0.1394408E+00
         21   -1    0    0  501  502  0.00000000000E+00  0.00000000000E+00  0.90244267416E+02  0.90244267416E+02  0.00000000000E+00 0.  1.
         21   -1    0    0  502  503 -0.00000000000E+00 -0.00000000000E+00 -0.13879833283E+02  0.13879833283E+02  0.00000000000E+00 0. -1.
          2    1    1    2  501    0  0.33091815375E+02 -0.89044296023E+00  0.56597295781E+02  0.65567637011E+02  0.00000000000E+00 0.  1.
         -2    1    1    2    0  503 -0.33091815375E+02  0.89044296023E+00  0.19767138352E+02  0.38556463688E+02  0.00000000000E+00 0. -1.
</event>
<event>
 4    1  0.1768739E+004  0.2463025E+02  0.7546771E-02  0.1472982E+00
         21   -1    0    0  503  502  0.00000000000E+00  0.00000000000E+00  0.57004776035E+00  0.57004776035E+00  0.00000000000E+00 0.  1.
         21   -1    0    0  501  503 -0.00000000000E+00 -0.00000000000E+00 -0.11787960542E+04  0.11787960542E+04  0.00000000000E+00 0. -1.
          2    1    1    2  501    0  0.20687796749E+02  0.13366542944E+02 -0.77296524172E+03  0.77335755916E+03  0.00000000000E+00 0. -1.
         -2    1    1    2    0  502 -0.20687796749E+02 -0.13366542944E+02 -0.40526076467E+03  0.40600854275E+03  0.00000000000E+00 0.  1.
</event>
<event>
 4    1  0.1768739E+004  0.2290888E+02  0.7546771E-02  0.1493645E+00
         21   -1    0    0  503  502  0.00000000000E+00  0.00000000000E+00  0.18428340981E+03  0.18428340981E+03  0.00000000000E+00 0.  1.
         21   -1    0    0  501  503 -0.00000000000E+00 -0.00000000000E+00 -0.45533244761E+01  0.45533244761E+01  0.00000000000E+00 0. -1.
          2    1    1    2  501    0  0.21717284084E+02  0.72922273461E+01  0.32080590755E+02  0.39420569642E+02  0.00000000000E+00 0. -1.
         -2    1    1    2    0  502 -0.21717284084E+02 -0.72922273461E+01  0.14764949458E+03  0.14941616464E+03  0.00000000000E+00 0.  1.
</event>
<event>
 4    1  0.1768739E+004  0.3191702E+02  0.7546771E-02  0.1403638E+00
         21   -1    0    0  501  502  0.00000000000E+00  0.00000000000E+00  0.79936439734E+03  0.79936439734E+03  0.00000000000E+00 0. -1.
         21   -1    0    0  502  503 -0.00000000000E+00 -0.00000000000E+00 -0.31816038572E+01  0.31816038572E+01  0.00000000000E+00 0.  1.
          2    1    1    2  501    0 -0.29473763583E+02  0.12247188533E+02  0.70877432194E+03  0.70949259038E+03  0.00000000000E+00 0. -1.
         -2    1    1    2    0  503  0.29473763583E+02 -0.12247188533E+02  0.87408471542E+02  0.93053410813E+02  0.00000000000E+00 0.  1.
</event>
<event>
 4    1  0.1768739E+004  0.2391125E+02  0.7546771E-02  0.1481362E+00
         21   -1    0    0  503  502  0.00000000000E+00  0.00000000000E+00  0.18145935401E+01  0.18145935401E+01  0.00000000000E+00 0.  1.
         21   -1    0    0  501  503 -0.00000000000E+00 -0.00000000000E+00 -0.55534269800E+03  0.55534269800E+03  0.00000000000E+00 0. -1.
          2    1    1    2  501    0 -0.22897805316E+02  0.68875579922E+01 -0.45999868856E+03  0.46061973625E+03  0.00000000000E+00 0. -1.
         -2    1    1    2    0  502  0.22897805316E+02 -0.68875579922E+01 -0.93529415903E+02  0.96537555296E+02  0.00000000000E+00 0.  1.
</event>
<event>
 4    1  0.1768739E+004  0.2085574E+02  0.7546771E-02  0.1521335E+00
         21   -1    0    0  503  502  0.00000000000E+00  0.00000000000E+00  0.21884935986E+02  0.21884935986E+02  0.00000000000E+00 0. -1.
         21   -1    0    0  501  503 -0.00000000000E+00 -0.00000000000E+00 -0.49306532728E+02  0.49306532728E+02  0.00000000000E+00 0.  1.
          2    1    1    2  501    0  0.69754744788E+01  0.19654629462E+02 -0.41212061213E+02  0.46188696592E+02  0.00000000000E+00 0.  1.
         -2    1    1    2    0  502 -0.69754744788E+01 -0.19654629462E+02  0.13790464471E+02  0.25002772122E+02  0.00000000000E+00 0. -1.
</event>
<event>
 4    1  0.1768739E+004  0.2090395E+02  0.7546771E-02  0.1520641E+00
         21   -1    0    0  501  502  0.00000000000E+00  0.00000000000E+00  0.11447887382E+03  0.11447887382E+03  0.00000000000E+00 0. -1.
         21   -1    0    0  502  503 -0.00000000000E+00 -0.00000000000E+00 -0.54106477733E+01  0.54106477733E+01  0.00000000000E+00 0.  1.
          2    1    1    2  501    0  0.20900314791E+02  0.38956479457E+00  0.22002021226E+02  0.30349033875E+02  0.00000000000E+00 0.  1.
         -2    1    1    2    0  503 -0.20900314791E+02 -0.38956479457E+00  0.87066204820E+02  0.89540487718E+02  0.00000000000E+00 0. -1.
</event>
<event>
 4    1  0.1768739E+004  0.2374554E+02  0.7546771E-02  0.1483343E+00
         21   -1    0    0  501  502  0.00000000000E+00  0.00000000000E+00  0.11075000541E+04  0.11075000541E+04  0.00000000000E+00 0. -1.
         21   -1    0    0  502  503 -0.00000000000E+00 -0.00000000000E+00 -0.27714093589E+01  0.27714093589E+01  0.00000000000E+00 0.  1.
          2    1    1    2  501    0  0.14167880092E+02  0.19055753631E+02  0.10539243367E+04  0.10541918033E+04  0.00000000000E+00 0. -1.
         -2    1    1    2    0  503 -0.14167880092E+02 -0.19055753631E+02  0.50804308066E+02  0.56079660224E+02  0.00000000000E+00 0.  1.
</event>
<event>
 4    1  0.1768739E+004  0.3727412E+02  0.7546771E-02  0.1365245E+00
         21   -1    0    0  503  502  0.00000000000E+00  0.00000000000E+00  0.16560148367E+02  0.16560148367E+02  0.00000000000E+00 0. -1.
         21   -1    0    0  501  503 -0.00000000000E+00 -0.00000000000E+00 -0.17324582706E+03  0.17324582706E+03  0.00000000000E+00 0.  1.
          2    1    1    2  501    0 -0.33742588496E+02  0.15836593449E+02 -0.14649678189E+03  0.15116437105E+03  0.00000000000E+00 0.  1.
         -2    1    1    2    0  502  0.33742588496E+02 -0.15836593449E+02 -0.10188896798E+02  0.38641604372E+02  0.00000000000E+00 0. -1.
</event>
<event>
 4    1  0.1768739E+004  0.3687461E+02  0.7546771E-02  0.1367842E+00
         21   -1    0    0  501  502  0.00000000000E+00  0.00000000000E+00  0.54482747041E+02  0.54482747041E+02  0.00000000000E+00 0. -1.
         21   -1    0    0  502  503 -0.00000000000E+00 -0.00000000000E+00 -0.40115983747E+02  0.40115983747E+02  0.00000000000E+00 0.  1.
          2    1    1    2  501    0  0.12460713965E+02  0.34705438317E+02  0.36258986783E+02  0.51715094159E+02  0.00000000000E+00 0. -1.
         -2    1    1    2    0  503 -0.12460713965E+02 -0.34705438317E+02 -0.21892223490E+02  0.42883636630E+02  0.00000000000E+00 0.  1.
</event>
<event>
 4    1  0.1768739E+004  0.2013435E+02  0.7546771E-02  0.1531992E+00
         21   -1    0    0  501  502  0.00000000000E+00  0.00000000000E+00  0.18326234653E+03  0.18326234653E+03  0.00000000000E+00 0. -1.
         21   -1    0    0  502  503 -0.00000000000E+00 -0.00000000000E+00 -0.66066193908E+01  0.66066193908E+01  0.00000000000E+00 0.  1.
          2    1    1    2  501    0  0.22341766240E+01  0.20010012564E+02  0.16575455637E+03  0.16697294723E+03  0.00000000000E+00 0. -1.
         -2    1    1    2    0  503 -0.22341766240E+01 -0.20010012564E+02  0.10901170773E+02  0.22896018698E+02  0.00000000000E+00 0.  1.
</event>
<event>
 4    1  0.1768739E+004  0.2605142E+02  0.7546771E-02  0.1457377E+00
         21   -1    0    0  501  502  0.00000000000E+00  0.00000000000E+00  0.27683792464E+01  0.27683792464E+01  0.00000000000E+00 0.  1.
         21   -1    0    0  502  503 -0.00000000000E+00 -0.00000000000E+00 -0.24829064779E+03  0.24829064779E+03  0.00000000000E+00 0. -1.
          2    1    1    2  501    0  0.13424104278E+02 -0.22326439490E+02 -0.13687245933E+03  0.13932963288E+03  0.00000000000E+00 0. -1.
         -2    1    1    2    0  503 -0.13424104278E+02  0.22326439490E+02 -0.10864980922E+03  0.11172939416E+03  0.00000000000E+00 0.  1.
</event>
<event>
 4    1  0.1768739E+004  0.2729525E+02  0.7546771E-02  0.1444665E+00
         21   -1    0    0  503  502  0.00000000000E+00  0.00000000000E+00  0.16762557387E+03  0.16762557387E+03  0.00000000000E+00 0. -1.
         21   -1    0    0  501  503 -0.00000000000E+00 -0.00000000000E+00 -0.12743464170E+02  0.12743464170E+02  0.00000000000E+00 0.  1.
          2    1    1    2  501    0 -0.18808767971E+02  0.19780312963E+02  0.46635314293E+01  0.27690775700E+02  0.00000000000E+00 0.  1.
         -2    1    1    2    0  502  0.18808767971E+02 -0.19780312963E+02  0.15021857827E+03  0.15267826234E+03  0.00000000000E+00 0. -1.
</event>
<event>
 4    1  0.1768739E+004  0.2209621E+02  0.7546771E-02  0.1504170E+00
         21   -1    0    0  501  502  0.00000000000E+00  0.00000000000E+00  0.81914948836E+02  0.81914948836E+02  0.00000000000E+00 0. -1.
         21   -1    0    0  502  503 -0.00000000000E+00 -0.00000000000E+00 -0.74602505050E+01  0.74602505050E+01  0.00000000000E+00 0.  1.
          2    1    1    2  501    0  0.18564409999E+02 -0.11983535325E+02  0.57264702664E+02  0.61379871364E+02  0.00000000000E+00 0. -1.
         -2    1    1    2    0  503 -0.18564409999E+02  0.11983535325E+02  0.17189995668E+02  0.27995327977E+02  0.00000000000E+00 0.  1.
</event>
<event>
 4    1  0.1768739E+004  0.5768240E+02  0.7546771E-02  0.1267917E+00
         21   -1    0    0  503  502  0.00000000000E+00  0.00000000000E+00  0.35826952789E+01  0.35826952789E+01  0.00000000000E+00 0.  1.
         21   -1    0    0  501  503 -0.00000000000E+00 -0.00000000000E+00 -0.13299887997E+04  0.13299887997E+04  0.00000000000E+00 0. -1.
          2    1    1    2  501    0 -0.75943328816E+01 -0.57180286366E+02 -0.10294629205E+04  0.10310776711E+04  0.00000000000E+00 0. -1.
         -2    1    1    2    0  502  0.75943328816E+01  0.57180286366E+02 -0.29694318385E+03  0.30249382387E+03  0.00000000000E+00 0.  1.
</event>
<event>
 4    1  0.1768739E+004  0.3288395E+02  0.7546771E-02  0.1396083E+00
         21   -1    0    0  501  502  0.00000000000E+00  0.00000000000E+00  0.17453397870E+03  0.17453397870E+03  0.00000000000E+00 0. -1.
         21   -1    0    0  502  503 -0.00000000000E+00 -0.00000000000E+00 -0.75611002541E+02  0.75611002541E+02  0.00000000000E+00 0.  1.
          2    1    1    2  501    0  0.30162501653E+02  0.13098756783E+02  0.16930016959E+03  0.17246420312E+03  0.00000000000E+00 0. -1.
         -2    1    1    2    0  503 -0.30162501653E+02 -0.13098756783E+02 -0.70377193427E+02  0.77680778123E+02  0.00000000000E+00 0.  1.
</event>
<event>
 4    1  0.1768739E+004  0.2532539E+02  0.7546771E-02  0.1465196E+00
         21   -1    0    0  501  502  0.00000000000E+00  0.00000000000E+00  0.31505708581E+01  0.31505708581E+01  0.00000000000E+00 0.  1.
         21   -1    0    0  502  503 -0.00000000000E+00 -0.00000000000E+00 -0.33753246104E+03  0.33753246104E+03  0.00000000000E+00 0. -1.
          2    1    1    2  501    0 -0.13170832202E+02 -0.21631099052E+02 -0.59879184958E+02  0.65014552666E+02  0.00000000000E+00 0.  1.
         -2    1    1    2    0  503  0.13170832202E+02  0.21631099052E+02 -0.27450270523E+03  0.27566847923E+03  0.00000000000E+00 0. -1.
</event>
<event>
 4    1  0.1768739E+004  0.3699213E+02  0.7546771E-02  0.1367074E+00
         21   -1    0    0  503  502  0.00000000000E+00  0.00000000000E+00  0.14079290163E+03  0.14079290163E+03  0.00000000000E+00 0. -1.
         21   -1    0    0  501  503 -0.00000000000E+00 -0.00000000000E+00 -0.43328893627E+02  0.43328893627E+02  0.00000000000E+00 0.  1.
          2    1    1    2  501    0  0.14158437359E+02  0.34175379015E+02 -0.32348717232E+02  0.49141198458E+02  0.00000000000E+00 0.  1.
         -2    1    1    2    0  502 -0.14158437359E+02 -0.34175379015E+02  0.12981272523E+03  0.13498059680E+03  0.00000000000E+00 0. -1.
</event>
<event>
 4    1  0.1768739E+004  0.2213585E+02  0.7546771E-02  0.1503644E+00
         21   -1    0    0  503  502  0.00000000000E+00  0.00000000000E+00  0.10436117579E+01  0.10436117579E+01  0.00000000000E+00 0. -1.
         21   -1    0    0  501  503 -0.00000000000E+00 -0.00000000000E+00 -0.47136427137E+03  0.47136427137E+03  0.00000000000E+00 0.  1.
          2    1    1    2  501    0 -0.15333506077E+02  0.15964944859E+02 -0.24993787835E+03  0.25091619897E+03  0.00000000000E+00 0.  1.
         -2    1    1    2    0  502  0.15333506077E+02 -0.15964944859E+02 -0.22038278127E+03  0.22149168416E+03  0.00000000000E+00 0. -1.
</event>
<event>
 4    1  0.1768739E+004  0.2138854E+02  0.7546771E-02  0.1513789E+00
         21   -1    0    0  501  502  0.00000000000E+00  0.00000000000E+00  0.11449455589E+02  0.11449455589E+02  0.00000000000E+00 0.  1.
         21   -1    0    0  502  503 -0.00000000000E+00 -0.00000000000E+00 -0.10998988779E+03  0.10998988779E+03  0.00000000000E+00 0. -1.
          2    1    1    2  501    0  0.21387146194E+02 -0.24449554565E+00 -0.81858391761E+00  0.21404202392E+02  0.00000000000E+00 0.  1.
         -2    1    1    2    0  503 -0.21387146194E+02  0.24449554565E+00 -0.97721848280E+02  0.10003514098E+03  0.00000000000E+00 0. -1.
</event>
<event>
 4    1  0.1768739E+004  0.2975393E+02  0.7546771E-02  0.1421747E+00
         21   -1    0    0  503  502  0.00000000000E+00  0.00000000000E+00  0.26602185235E+02  0.26602185235E+02  0.00000000000E+00 0.  1.
         21   -1    0    0  501  503 -0.00000000000E+00 -0.00000000000E+00 -0.33521122355E+02  0.33521122355E+02  0.00000000000E+00 0. -1.
          2    1    1    2  501    0 -0.25476223801E+02 -0.15370701885E+02 -0.60138889059E+01  0.30355614232E+02  0.00000000000E+00 0.  1.
         -2    1    1    2    0  502  0.25476223801E+02  0.15370701885E+02 -0.90504821442E+00  0.29767693358E+02  0.00000000000E+00 0. -1.
</event>
<event>
 4    1  0.1768739E+004  0.2168968E+02  0.7546771E-02  0.1509642E+00
         21   -1    0    0  503  502  0.00000000000E+00  0.00000000000E+00  0.25525679148E+03  0.25525679148E+03  0.00000000000E+00 0.  1.
         21   -1    0    0  501  503 -0.00000000000E+00 -0.00000000000E+00 -0.27108619101E+01  0.27108619101E+01  0.00000000000E+00 0. -1.
          2    1    1    2  501    0 -0.19772376663E+02 -0.89160209059E+01  0.53293123835E+02  0.57537808055E+02  0.00000000000E+00 0. -1.
         -2    1    1    2    0  502  0.19772376663E+02  0.89160209059E+01  0.19925280573E+03  0.20042984533E+03  0.00000000000E+00 0.  1.
</event>
<event>
 4    1  0.1768739E+004  0.2223587E+02  0.7546771E-02  0.1502323E+00
         21   -1    0    0  503  502  0.00000000000E+00  0.00000000000E+00  0.11733694696E+01  0.11733694696E+01  0.00000000000E+00 0. -1.
         21   -1    0    0  501  503 -0.00000000000E+00 -0.00000000000E+00 -0.56661232280E+03  0.56661232280E+03  0.00000000000E+00 0.  1.
          2    1    1    2  501    0 -0.14550758059E+02 -0.16813962306E+02 -0.42644826654E+03  0.42702758450E+03  0.00000000000E+00 0.  1.
         -2    1    1    2    0  502  0.14550758059E+02  0.16813962306E+02 -0.13899068679E+03  0.14075810777E+03  0.00000000000E+00 0. -1.
</event>
<event>
 4    1  0.1768739E+004  0.5113705E+02  0.7546771E-02  0.1293316E+00
         21   -1    0    0  503  502  0.00000000000E+00  0.00000000000E+00  0.10711759948E+02  0.10711759948E+02  0.00000000000E+00 0. -1.
         21   -1    0    0  501  503 -0.00000000000E+00 -0.00000000000E+00 -0.24549660554E+03  0.24549660554E+03  0.00000000000E+00 0.  1.
          2    1    1    2  501    0  0.32453671385E+02  0.39519066258E+02 -0.12697137239E+03  0.13688216389E+03  0.00000000000E+00 0.  1.
         -2    1    1    2    0  502 -0.32453671385E+02 -0.39519066258E+02 -0.10781347320E+03  0.11932620160E+03  0.00000000000E+00 0. -1.
</event>
<event>
 4    1  0.1768739E+004  0.2090382E+02  0.7546771E-02  0.1520642E+00
         21   -1    0    0  503  502  0.00000000000E+00  0.00000000000E+00  0.52834088325E+02  0.52834088325E+02  0.00000000000E+00 0. -1.
         21   -1    0    0  501  503 -0.00000000000E+00 -0.00000000000E+00 -0.24878659194E+02  0.24878659194E+02  0.00000000000E+00 0.  1.
          2    1    1    2  501    0  0.19108518121E+02 -0.84755192072E+01 -0.17769684810E+02  0.27435954309E+02  0.00000000000E+00 0.  1.
         -2    1    1    2    0  502 -0.19108518121E+02  0.84755192072E+01  0.45725113941E+02  0.50276793210E+02  0.00000000000E+00 0. -1.
</event>
<event>
 4    1  0.1768739E+004  0.2057002E+02  0.7546771E-02  0.1525493E+00
         21   -1    0    0  503  502  0.00000000000E+00  0.00000000000E+00  0.35787212987E+03  0.35787212987E+03  0.00000000000E+00 0. -1.
         21   -1    0    0  501  503 -0.00000000000E+00 -0.00000000000E+00 -0.11833921148E+01  0.11833921148E+01  0.00000000000E+00 0.  1.
          2    1    1    2  501    0 -0.43084324196E+01  0.20113757182E+02  0.18370247698E+03  0.18485055008E+03  0.00000000000E+00 0. -1.
         -2    1    1    2    0  502  0.43084324196E+01 -0.20113757182E+02  0.17298626078E+03  0.17420497191E+03  0.00000000000E+00 0.  1.
</event>
<event>
 4    1  0.1768739E+004  0.4090491E+02  0.7546771E-02  0.1343263E+00
         21   -1    0    0  503  502  0.00000000000E+00  0.00000000000E+00  0.72710037500E+01  0.72710037500E+01  0.00000000000E+00 0. -1.
         21   -1    0    0  501  503 -0.00000000000E+00 -0.00000000000E+00 -0.23996976879E+03  0.23996976879E+03  0.00000000000E+00 0.  1.
          2    1    1    2  501    0 -0.22562799658E+02  0.34119380399E+02 -0.14139308732E+03  0.14719109072E+03  0.00000000000E+00 0.  1.
         -2    1    1    2    0  502  0.22562799658E+02 -0.34119380399E+02 -0.91305677722E+02  0.10004968182E+03  0.00000000000E+00 0. -1.
</event>
<event>
 4    1  0.1768739E+004  0.2142190E+02  0.7546771E-02  0.1513326E+00
         21   -1    0    0  503  502  0.00000000000E+00  0.00000000000E+00  0.27825977787E+01  0.27825977787E+01  0.00000000000E+00 0. -1.
         21   -1    0    0  501  503 -0.00000000000E+00 -0.00000000000E+00 -0.17278286209E+03  0.17278286209E+03  0.00000000000E+00 0.  1.
          2    1    1    2  501    0 -0.15723836350E+02 -0.14548489891E+02 -0.10372991793E+03  0.10591880598E+03  0.00000000000E+00 0.  1.
         -2    1    1    2    0  502  0.15723836350E+02  0.14548489891E+02 -0.66270346387E+02  0.69646653889E+02  0.00000000000E+00 0. -1.
</event>
<event>
 4    1  0.1768739E+004  0.6932703E+02  0.7546771E-02  0.1231061E+00
         21   -1    0    0  501  502  0.00000000000E+00  0.00000000000E+00  0.65386778509E+02  0.65386778509E+02  0.00000000000E+00 0. -1.
         21   -1    0    0  502  503 -0.00000000000E+00 -0.00000000000E+00 -0.74626558885E+02  0.74626558885E+02  0.00000000000E+00 0.  1.
          2    1    1    2  501    0  0.69001224334E+02 -0.67132802427E+01  0.39634677292E+01  0.69440234502E+02  0.00000000000E+00 0.  1.
         -2    1    1    2    0  503 -0.69001224334E+02  0.67132802427E+01 -0.13203248106E+02  0.70573102892E+02  0.00000000000E+00 0. -1.
</event>
<event>
 4    1  0.1768739E+004  0.2012674E+02  0.7546771E-02  0.1532107E+00
         21   -1    0    0  501  502  0.00000000000E+00  0.00000000000E+00  0.97648532932E+01  0.97648532932E+01  0.00000000000E+00 0. -1.
         21   -1    0    0  502  503 -0.00000000000E+00 -0.00000000000E+00 -0.62330134380E+02  0.62330134380E+02  0.00000000000E+00 0.  1.
          2    1    1    2  501    0 -0.16042643349E+02  0.12153976380E+02 -0.54358879253E+01  0.20847887782E+02  0.00000000000E+00 0.  1.
         -2    1    1    2    0  503  0.16042643349E+02 -0.12153976380E+02 -0.47129393162E+02  0.51247099891E+02  0.00000000000E+00 0. -1.
</event>
<event>
 4    1  0.1768739E+004  0.3425120E+02  0.7546771E-02  0.1385905E+00
         21   -1    0    0  503  502  0.00000000000E+00  0.00000000000E+00  0.23736348029E+04  0.23736348029E+04  0.00000000000E+00 0. -1.
         21   -1    0    0  501  503 -0.00000000000E+00 -0.00000000000E+00 -0.15867333710E+01  0.15867333710E+01  0.00000000000E+00 0.  1.
          2    1    1    2  501    0  0.21209946991E+02 -0.26893920037E+02  0.20058084110E+03  0.20348419742E+03  0.00000000000E+00 0.  1.
         -2    1    1    2    0  502 -0.21209946991E+02  0.26893920037E+02  0.21714672285E+04  0.21717373389E+04  0.00000000000E+00 0. -1.
</event>
<event>
 4    1  0.1768739E+004  0.2466433E+02  0.7546771E-02  0.1472594E+00
         21   -1    0    0  503  502  0.00000000000E+00  0.00000000000E+00  0.41197201235E+02  0.41197201235E+02  0.00000000000E+00 0. -1.
         21   -1    0    0  501  503 -0.00000000000E+00 -0.00000000000E+00 -0.15038238428E+02  0.15038238428E+02  0.00000000000E+00 0.  1.
          2    1    1    2  501    0  0.18790203538E+02 -0.15976776886E+02  0.16860753379E+02  0.29876648962E+02  0.00000000000E+00 0. -1.
         -2    1    1    2    0  502 -0.18790203538E+02  0.15976776886E+02  0.92982094277E+01  0.26358790701E+02  0.00000000000E+00 0.  1.
</event>
<event>
 4    1  0.1768739E+004  0.2061698E+02  0.7546771E-02  0.1524804E+00
         21   -1    0    0  501  502  0.00000000000E+00  0.00000000000E+00  0.41091652567E+02  0.41091652567E+02  0.00000000000E+00 0. -1.
         21   -1    0    0  502  503 -0.00000000000E+00 -0.00000000000E+00 -0.12607288804E+02  0.12607288804E+02  0.00000000000E+00 0.  1.
          2    1    1    2  501    0  0.19223993994E+02  0.74496829848E+01  0.25617851273E+02  0.32883643739E+02  0.00000000000E+00 0. -1.
         -2    1    1    2    0  503 -0.19223993994E+02 -0.74496829848E+01  0.28665124905E+01  0.20815297633E+02  0.00000000000E+00 0.  1.
</event>
<event>
 4    1  0.1768739E+004  0.2033869E+02  0.7546771E-02  0.1528920E+00
         21   -1    0    0  501  502  0.00000000000E+00  0.00000000000E+00  0.90869105195E+03  0.90869105195E+03  0.00000000000E+00 0.  1.
         21   -1    0    0  502  503 -0.00000000000E+00 -0.00000000000E+00 -0.36379437925E+01  0.36379437925E+01  0.00000000000E+00 0. -1.
          2    1    1    2  501    0 -0.12996125804E+02  0.15644904439E+02  0.87919680772E+03  0.87943202638E+03  0.00000000000E+00 0.  1.
         -2    1    1    2    0  503  0.12996125804E+02 -0.15644904439E+02  0.25856300437E+02  0.32896969360E+02  0.00000000000E+00 0. -1.
</event>
<event>
 4    1  0.1768739E+004  0.3488755E+02  0.7546771E-02  0.1381355E+00
         21   -1    0    0  503  502  0.00000000000E+00  0.00000000000E+00  0.67079309580E+03  0.67079309580E+03  0.00000000000E+00 0. -1.
         21   -1    0    0  501  503 -0.00000000000E+00 -0.00000000000E+00 -0.18149021995E+01  0.18149021995E+01  0.00000000000E+00 0.  1.
          2    1    1    2  501    0 -0.11317039270E+02 -0.33000998668E+02  0.32936547271E+03  0.33120802512E+03  0.00000000000E+00 0. -1.
         -2    1    1    2    0  502  0.11317039270E+02  0.33000998668E+02  0.33961272089E+03  0.34139997288E+03  0.00000000000E+00 0.  1.
</event>
<event>
 4    1  0.1768739E+004  0.3818110E+02  0.7546771E-02  0.1359487E+00
         21   -1    0    0  501  502  0.00000000000E+00  0.00000000000E+00  0.15597657939E+02  0.15597657939E+02  0.00000000000E+00 0.  1.
         21   -1    0    0  502  503 -0.00000000000E+00 -0.00000000000E+00 -0.29521222616E+03  0.29521222616E+03  0.00000000000E+00 0. -1.
          2    1    1    2  501    0  0.37937395500E+02 -0.43070336262E+01 -0.11336579971E+02  0.39828564641E+02  0.00000000000E+00 0.  1.
         -2    1    1    2    0  503 -0.37937395500E+02  0.43070336262E+01 -0.26827798825E+03  0.27098131946E+03  0.00000000000E+00 0. -1.
</event>
<event>
 4    1  0.1768739E+004  0.3264971E+02  0.7546771E-02  0.1397885E+00
         21   -1    0    0  501  502  0.00000000000E+00  0.00000000000E+00  0.25399137880E+02  0.25399137880E+02  0.00000000000E+00 0.  1.
         21   -1    0    0  502  503 -0.00000000000E+00 -0.00000000000E+00 -0.50238594530E+02  0.50238594530E+02  0.00000000000E+00 0. -1.
          2    1    1    2  501    0 -0.27772956149E+02 -0.17165854060E+02  0.29230400314E+01  0.32780295939E+02  0.00000000000E+00 0. -1.
         -2    1    1    2    0  503  0.27772956149E+02  0.17165854060E+02 -0.27762496681E+02  0.42857436470E+02  0.00000000000E+00 0.  1.
</event>
<event>
 4    1  0.1768739E+004  0.2928870E+02  0.7546771E-02  0.1425880E+00
         21   -1    0    0  501  502  0.00000000000E+00  0.00000000000E+00  0.93767356466E+00  0.93767356466E+00  0.00000000000E+00 0.  1.
         21   -1    0    0  502  503 -0.00000000000E+00 -0.00000000000E+00 -0.10095700141E+04  0.10095700141E+04  0.00000000000E+00 0. -1.
          2    1    1    2  501    0 -0.26833819738E+02 -0.11737729505E+02 -0.34955273640E+03  0.35077762713E+03  0.00000000000E+00 0.  1.
         -2    1    1    2    0  503  0.26833819738E+02  0.11737729505E+02 -0.65907960418E+03  0.65973006057E+03  0.00000000000E+00 0. -1.
</event>
<event>
 4    1  0.1768739E+004  0.4381703E+02  0.7546771E-02  0.1327462E+00
         21   -1    0    0  501  502  0.00000000000E+00  0.00000000000E+00  0.69882112388E+02  0.69882112388E+02  0.00000000000E+00 0.  1.
         21   -1    0    0  502  503 -0.00000000000E+00 -0.00000000000E+00 -0.37360456392E+02  0.37360456392E+02  0.00000000000E+00 0. -1.
          2    1    1    2  501    0  0.19698708228E+02 -0.39139401225E+02  0.43844646294E+02  0.61986166543E+02  0.00000000000E+00 0.  1.
         -2    1    1    2    0  503 -0.19698708228E+02  0.39139401225E+02 -0.11322990298E+02  0.45256402237E+02  0.00000000000E+00 0. -1.
</event>
<event>
 4    1  0.1768739E+004  0.2355200E+02  0.7546771E-02  0.1485681E+00
         21   -1    0    0  503  502  0.00000000000E+00  0.00000000000E+00  0.42168465707E+03  0.42168465707E+03  0.00000000000E+00 0. -1.
         21   -1    0    0  501  503 -0.00000000000E+00 -0.00000000000E+00 -0.59101116344E+01  0.59101116344E+01  0.00000000000E+00 0.  1.
          2    1    1    2  501    0  0.21495525279E+02 -0.96249229330E+01  0.19378204582E+02  0.30499369851E+02  0.00000000000E+00 0.  1.
         -2    1    1    2    0  502 -0.21495525279E+02  0.96249229330E+01  0.39639634085E+03  0.39709539885E+03  0.00000000000E+00 0. -1.
</event>
<event>
 4    1  0.1768739E+004  0.2189215E+02  0.7546771E-02  0.1506899E+00
         21   -1    0    0  503  502  0.00000000000E+00  0.00000000000E+00  0.46697332038E+01  0.46697332038E+01  0.00000000000E+00 0.  1.
         21   -1    0    0  501  503 -0.00000000000E+00 -0.00000000000E+00 -0.15772625198E+03  0.15772625198E+03  0.00000000000E+00 0. -1.
          2    1    1    2  501    0  0.87980187494E+01  0.20046471423E+02 -0.12451758871E+03  0.12642743393E+03  0.00000000000E+00 0. -1.
         -2    1    1    2    0  502 -0.87980187494E+01 -0.20046471423E+02 -0.28538930068E+02  0.35968551262E+02  0.00000000000E+00 0.  1.
</event>
<event>
 4    1  0.1768739E+004  0.2307026E+02  0.7546771E-02  0.1491618E+00
         21   -1    0    0  503  502  0.00000000000E+00  0.00000000000E+00  0.64278615653E+02  0.64278615653E+02  0.00000000000E+00 0.  1.
         21   -1    0    0  501  503 -0.00000000000E+00 -0.00000000000E+00 -0.28269324790E+02  0.28269324790E+02  0.00000000000E+00 0. -1.
          2    1    1    2  501    0 -0.22939260955E+02  0.24550594301E+01 -0.20906714105E+02  0.31134028082E+02  0.00000000000E+00 0. -1.
         -2    1    1    2    0  502  0.22939260955E+02 -0.24550594301E+01  0.56916004968E+02  0.61413912361E+02  0.00000000000E+00 0.  1.
</event>
<event>
 4    1  0.1768739E+004  0.2029139E+02  0.7546771E-02  0.1529627E+00
         21   -1    0    0  501  502  0.00000000000E+00  0.00000000000E+00  0.97475308211E+03  0.97475308211E+03  0.00000000000E+00 0.  1.
         21   -1    0    0  502  503 -0.00000000000E+00 -0.00000000000E+00 -0.57104335338E+01  0.57104335338E+01  0.00000000000E+00 0. -1.
          2    1    1    2  501    0  0.16465126253E+02  0.11859171231E+02  0.95627338617E+03  0.95648864573E+03  0.00000000000E+00 0.  1.
         -2    1    1    2    0  503 -0.16465126253E+02 -0.11859171231E+02  0.12769262411E+02  0.23974869913E+02  0.00000000000E+00 0. -1.
</event>
<event>
 4    1  0.1768739E+004  0.2959592E+02  0.7546771E-02  0.1423141E+00
         21   -1    0    0  503  502  0.00000000000E+00  0.00000000000E+00  0.29995408774E+03  0.29995408774E+03  0.00000000000E+00 0. -1.
         21   -1    0    0  501  503 -0.00000000000E+00 -0.00000000000E+00 -0.44175802266E+01  0.44175802266E+01  0.00000000000E+00 0.  1.
          2    1    1    2  501    0  0.25475041448E+02  0.15064554510E+02  0.59164601390E+02  0.66154127589E+02  0.00000000000E+00 0.  1.
         -2    1    1    2    0  502 -0.25475041448E+02 -0.15064554510E+02  0.23637190612E+03  0.23821754038E+03  0.00000000000E+00 0. -1.
</event>
<event>
 4    1  0.1768739E+004  0.2069538E+02  0.7546771E-02  0.1523659E+00
         21   -1    0    0  501  502  0.00000000000E+00  0.00000000000E+00  0.39861975432E+01  0.39861975432E+01  0.00000000000E+00 0. -1.
         21   -1    0    0  502  503 -0.00000000000E+00 -0.00000000000E+00 -0.17322216782E+03  0.17322216782E+03  0.00000000000E+00 0.  1.
          2    1    1    2  501    0 -0.18519799247E+02 -0.92366634725E+01 -0.13921746219E+03  0.14074729374E+03  0.00000000000E+00 0.  1.
         -2    1    1    2    0  503  0.18519799247E+02  0.92366634725E+01 -0.30018508090E+02  0.36461071627E+02  0.00000000000E+00 0. -1.
</event>
<event>
 4    1  0.1768739E+004  0.2058745E+02  0.7546771E-02  0.1525237E+00
         21   -1    0    0  503  502  0.00000000000E+00  0.00000000000E+00  0.54767446266E+03  0.54767446266E+03  0.00000000000E+00 0.  1.
         21   -1    0    0  501  503 -0.00000000000E+00 -0.00000000000E+00 -0.78311570252E+00  0.78311570252E+00  0.00000000000E+00 0. -1.
          2    1    1    2  501    0  0.11113856090E+02  0.17329901661E+02  0.24369139776E+03  0.24455948281E+03  0.00000000000E+00 0. -1.
         -2    1    1    2    0  502 -0.11113856090E+02 -0.17329901661E+02  0.30319994920E+03  0.30389809555E+03  0.00000000000E+00 0.  1.
</event>
<event>
 4    1  0.1768739E+004  0.2087540E+02  0.7546771E-02  0.1521051E+00
         21   -1    0    0  503  502  0.00000000000E+00  0.00000000000E+00  0.37737931833E+02  0.37737931833E+02  0.00000000000E+00 0.  1.
         21   -1    0    0  501  503 -0.00000000000E+00 -0.00000000000E+00 -0.13385545374E+02  0.13385545374E+02  0.00000000000E+00 0. -1.
          2    1    1    2  501    0  0.45040770757E+01  0.20383707984E+02  0.27042403075E+01  0.21049826060E+02  0.00000000000E+00 0. -1.
         -2    1    1    2    0  502 -0.45040770757E+01 -0.20383707984E+02  0.21648146152E+02  0.30073651147E+02  0.00000000000E+00 0.  1.
</event>
<event>
 4    1  0.1768739E+004  0.3257657E+02  0.7546771E-02  0.1398451E+00
         21   -1    0    0  501  502  0.00000000000E+00  0.00000000000E+00  0.15657132712E+02  0.15657132712E+02  0.00000000000E+00 0.  1.
         21   -1    0    0  502  503 -0.00000000000E+00 -0.00000000000E+00 -0.83539776361E+02  0.83539776361E+02  0.00000000000E+00 0. -1.
          2    1    1    2  501    0 -0.23396305885E+02  0.22668163124E+02 -0.12398464891E+02  0.34856200024E+02  0.00000000000E+00 0.  1.
         -2    1    1    2    0  503  0.23396305885E+02 -0.22668163124E+02 -0.55484178758E+02  0.64340709049E+02  0.00000000000E+00 0. -1.
</event>
<event>
 4    1  0.1768739E+004  0.2618860E+02  0.7546771E-02  0.1455934E+00
         21   -1    0    0  501  502  0.00000000000E+00  0.00000000000E+00  0.37594132381E+03  0.37594132381E+03  0.00000000000E+00 0. -1.
         21   -1    0    0  502  503 -0.00000000000E+00 -0.00000000000E+00 -0.18444353939E+01  0.18444353939E+01  0.00000000000E+00 0.  1.
          2    1    1    2  501    0 -0.24004175109E+02  0.10471021145E+02  0.16732911495E+03  0.16936609878E+03  0.00000000000E+00 0.  1.
         -2    1    1    2    0  503  0.24004175109E+02 -0.10471021145E+02  0.20676777347E+03  0.20841966042E+03  0.00000000000E+00 0. -1.
</event>
<event>
 4    1  0.1768739E+004  0.4497804E+02  0.7546771E-02  0.1321549E+00
         21   -1    0    0  503  502  0.00000000000E+00  0.00000000000E+00  0.80334958901E+01  0.80334958901E+01  0.00000000000E+00 0. -1.
         21   -1    0    0  501  503 -0.00000000000E+00 -0.00000000000E+00 -0.26629517119E+03  0.26629517119E+03  0.00000000000E+00 0.  1.
          2    1    1    2  501    0  0.30665453379E+02  0.32903702121E+02 -0.16110637044E+03  0.16726711045E+03  0.00000000000E+00 0.  1.
         -2    1    1    2    0  502 -0.30665453379E+02 -0.32903702121E+02 -0.97155304863E+02  0.10706155663E+03  0.00000000000E+00 0. -1.
</event>
<event>
 4    1  0.1768739E+004  0.2195699E+02  0.7546771E-02  0.1506028E+00
         21   -1    0    0  503  502  0.00000000000E+00  0.00000000000E+00  0.68745552826E+01  0.68745552826E+01  0.00000000000E+00 0. -1.
         21   -1    0    0  501  503 -0.00000000000E+00 -0.00000000000E+00 -0.74965211041E+02  0.74965211041E+02  0.00000000000E+00 0.  1.
          2    1    1    2  501    0 -0.21873824605E+02 -0.19091906501E+01 -0.44438164569E+02  0.49566719501E+02  0.00000000000E+00 0.  1.
         -2    1    1    2    0  502  0.21873824605E+02  0.19091906501E+01 -0.23652491190E+02  0.32273046823E+02  0.00000000000E+00 0. -1.
</event>
<event>
 4    1  0.1768739E+004  0.6642408E+02  0.7546771E-02  0.1239440E+00
         21   -1    0    0  503  502  0.00000000000E+00  0.00000000000E+00  0.51776003543E+01  0.51776003543E+01  0.00000000000E+00 0. -1.
         21   -1    0    0  501  503 -0.00000000000E+00 -0.00000000000E+00 -0.94957502866E+03  0.94957502866E+03  0.00000000000E+00 0.  1.
          2    1    1    2  501    0 -0.57188604275E+02  0.33787890132E+02 -0.62509718865E+03  0.62861645956E+03  0.00000000000E+00 0.  1.
         -2    1    1    2    0  502  0.57188604275E+02 -0.33787890132E+02 -0.31930023965E+03  0.32613616945E+03  0.00000000000E+00 0. -1.
</event>
<event>
 4    1  0.1768739E+004  0.2081685E+02  0.7546771E-02  0.1521896E+00
         21   -1    0    0  501  502  0.00000000000E+00  0.00000000000E+00  0.64507601485E+02  0.64507601485E+02  0.00000000000E+00 0. -1.
         21   -1    0    0  502  503 -0.00000000000E+00 -0.00000000000E+00 -0.45043537993E+02  0.45043537993E+02  0.00000000000E+00 0.  1.
          2    1    1    2  501    0  0.19690143220E+02  0.67556992719E+01  0.60258229495E+02  0.63752611198E+02  0.00000000000E+00 0. -1.
         -2    1    1    2    0  503 -0.19690143220E+02 -0.67556992719E+01 -0.40794166003E+02  0.45798528279E+02  0.00000000000E+00 0.  1.
</event>
<event>
 4    1  0.1768739E+004  0.2198170E+02  0.7546771E-02  0.1505697E+00
         21   -1    0    0  501  502  0.00000000000E+00  0.00000000000E+00  0.44794419291E+02  0.44794419291E+02  0.00000000000E+00 0.  1.
         21   -1    0    0  502  503 -0.00000000000E+00 -0.00000000000E+00 -0.46965258018E+02  0.46965258018E+02  0.00000000000E+00 0. -1.
          2    1    1    2  501    0  0.13024983596E+02  0.17707202134E+02  0.39182356792E+02  0.44927188749E+02  0.00000000000E+00 0.  1.
         -2    1    1    2    0  503 -0.13024983596E+02 -0.17707202134E+02 -0.41353195519E+02  0.46832488560E+02  0.00000000000E+00 0. -1.
</event>
<event>
 4    1  0.1768739E+004  0.2024576E+02  0.7546771E-02  0.1530311E+00
         21   -1    0    0  503  502  0.00000000000E+00  0.00000000000E+00  0.65032360676E+02  0.65032360676E+02  0.00000000000E+00 0.  1.
         21   -1    0    0  501  503 -0.00000000000E+00 -0.00000000000E+00 -0.13446130039E+02  0.13446130039E+02  0.00000000000E+00 0. -1.
          2    1    1    2  501    0  0.20174594336E+02  0.16960808615E+01 -0.28071473174E+01  0.20439447717E+02  0.00000000000E+00 0. -1.
         -2    1    1    2    0  502 -0.20174594336E+02 -0.16960808615E+01  0.54393377954E+02  0.58039042999E+02  0.00000000000E+00 0.  1.
</event>
<event>
 4    1  0.1768739E+004  0.2551643E+02  0.7546771E-02  0.1463108E+00
         21   -1    0    0  503  502  0.00000000000E+00  0.00000000000E+00  0.64821571864E+00  0.64821571864E+00  0.00000000000E+00 0.  1.
         21   -1    0    0  501  503 -0.00000000000E+00 -0.00000000000E+00 -0.12086491244E+04  0.12086491244E+04  0.00000000000E+00 0. -1.
          2    1    1    2  501    0 -0.29947306125E+01  0.25340079673E+02 -0.85254256400E+03  0.85292432928E+03  0.00000000000E+00 0. -1.
         -2    1    1    2    0  502  0.29947306125E+01 -0.25340079673E+02 -0.35545834472E+03  0.35637301087E+03  0.00000000000E+00 0.  1.
</event>
<event>
 4    1  0.1768739E+004  0.5443706E+02  0.7546771E-02  0.1280002E+00
         21   -1    0    0  503  502  0.00000000000E+00  0.00000000000E+00  0.12414728095E+02  0.12414728095E+02  0.00000000000E+00 0. -1.
         21   -1    0    0  501  503 -0.00000000000E+00 -0.00000000000E+00 -0.32430423800E+03  0.32430423800E+03  0.00000000000E+00 0.  1.
          2    1    1    2  501    0 -0.54130987811E+02 -0.57645274029E+01 -0.24244340083E+03  0.24847977025E+03  0.00000000000E+00 0.  1.
         -2    1    1    2    0  502  0.54130987811E+02  0.57645274029E+01 -0.69446109072E+02  0.88239195842E+02  0.00000000000E+00 0. -1.
</event>
<event>
 4    1  0.1768739E+004  0.2253909E+02  0.7546771E-02  0.1498368E+00
         21   -1    0    0  503  502  0.00000000000E+00  0.00000000000E+00  0.12529706878E+02  0.12529706878E+02  0.00000000000E+00 0. -1.
         21   -1    0    0  501  503 -0.00000000000E+00 -0.00000000000E+00 -0.40844517100E+02  0.40844517100E+02  0.00000000000E+00 0.  1.
          2    1    1    2  501    0  0.43308117233E+01  0.22119101906E+02 -0.16444654641E+02  0.27900488625E+02  0.00000000000E+00 0.  1.
         -2    1    1    2    0  502 -0.43308117233E+01 -0.22119101906E+02 -0.11870155581E+02  0.25473735353E+02  0.00000000000E+00 0. -1.
</event>
<event>
 4    1  0.1768739E+004  0.2091018E+02  0.7546771E-02  0.1520551E+00
         21   -1    0    0  501  502  0.00000000000E+00  0.00000000000E+00  0.13387567555E+03  0.13387567555E+03  0.00000000000E+00 0. -1.
         21   -1    0    0  502  503 -0.00000000000E+00 -0.00000000000E+00 -0.58751295657E+01  0.58751295657E+01  0.00000000000E+00 0.  1.
          2    1    1    2  501    0 -0.15391301376E+02  0.14154280843E+02  0.17434721899E+02  0.27225086812E+02  0.00000000000E+00 0.  1.
         -2    1    1    2    0  503  0.15391301376E+02 -0.14154280843E+02  0.11056582409E+03  0.11252571831E+03  0.00000000000E+00 0. -1.
</event>
<event>
 4    1  0.1768739E+004  0.3883292E+02  0.7546771E-02  0.1355464E+00
         21   -1    0    0  501  502  0.00000000000E+00  0.00000000000E+00  0.11663414454E+02  0.11663414454E+02  0.00000000000E+00 0. -1.
         21   -1    0    0  502  503 -0.00000000000E+00 -0.00000000000E+00 -0.17467410545E+03  0.17467410545E+03  0.00000000000E+00 0.  1.
          2    1    1    2  501    0 -0.21400497309E+02  0.32403925936E+02 -0.34016187849E+02  0.51624574933E+02  0.00000000000E+00 0. -1.
         -2    1    1    2    0  503  0.21400497309E+02 -0.32403925936E+02 -0.12899450315E+03  0.13471294498E+03  0.00000000000E+00 0.  1.
</event>
<event>
 4    1  0.1768739E+004  0.2433193E+02  0.7546771E-02  0.1476418E+00
         21   -1    0    0  501  502  0.00000000000E+00  0.00000000000E+00  0.11670910101E+02  0.11670910101E+02  0.00000000000E+00 0.  1.
         21   -1    0    0  502  503 -0.00000000000E+00 -0.00000000000E+00 -0.69221079422E+02  0.69221079422E+02  0.00000000000E+00 0. -1.
          2    1    1    2  501    0  0.40030915782E+01 -0.24000377274E+02 -0.78696103449E+01  0.25572907900E+02  0.00000000000E+00 0.  1.
         -2    1    1    2    0  503 -0.40030915782E+01  0.24000377274E+02 -0.49680558976E+02  0.55319081623E+02  0.00000000000E+00 0. -1.
</event>
<event>
 4    1  0.1768739E+004  0.2373016E+02  0.7546771E-02  0.1483527E+00
         21   -1    0    0  501  502  0.00000000000E+00  0.00000000000E+00  0.48874314563E+01  0.48874314563E+01  0.00000000000E+00 0. -1.
         21   -1    0    0  502  503 -0.00000000000E+00 -0.00000000000E+00 -0.21071655899E+03  0.21071655899E+03  0.00000000000E+00 0.  1.
          2    1    1    2  501    0  0.68485630246E+01 -0.22720427467E+02 -0.30341473935E+02  0.38519159912E+02  0.00000000000E+00 0. -1.
         -2    1    1    2    0  503 -0.68485630246E+01  0.22720427467E+02 -0.17548765360E+03  0.17708483054E+03  0.00000000000E+00 0.  1.
</event>
<event>
 4    1  0.1768739E+004  0.2020579E+02  0.7546771E-02  0.1530913E+00
         21   -1    0    0  503  502  0.00000000000E+00  0.00000000000E+00  0.21597204609E+02  0.21597204609E+02  0.00000000000E+00 0. -1.
         21   -1    0    0  501  503 -0.00000000000E+00 -0.00000000000E+00 -0.21135817692E+02  0.21135817692E+02  0.00000000000E+00 0.  1.
          2    1    1    2  501    0 -0.19118931805E+02 -0.65376149905E+01 -0.67123776017E+01  0.21291547060E+02  0.00000000000E+00 0.  1.
         -2    1    1    2    0  502  0.19118931805E+02  0.65376149905E+01  0.71737645183E+01  0.21441475241E+02  0.00000000000E+00 0. -1.
</event>
<event>
 4    1  0.1768739E+004  0.3461317E+02  0.7546771E-02  0.1383303E+00
         21   -1    0    0  501  502  0.00000000000E+00  0.00000000000E+00  0.27348211808E+03  0.27348211808E+03  0.00000000000E+00 0.  1.
         21   -1    0    0  502  503 -0.00000000000E+00 -0.00000000000E+00 -0.44862898783E+01  0.44862898783E+01  0.00000000000E+00 0. -1.
          2    1    1    2  501    0 -0.28652049495E+02  0.19419879663E+02  0.15580961514E+03  0.15960798174E+03  0.00000000000E+00 0.  1.
         -2    1    1    2    0  503  0.28652049495E+02 -0.19419879663E+02  0.11318621307E+03  0.11836042622E+03  0.00000000000E+00 0. -1.
</event>
<event>
 4    1  0.1768739E+004  0.3656533E+02  0.7546771E-02  0.1369880E+00
         21   -1    0    0  503  502  0.00000000000E+00  0.00000000000E+00  0.27762460448E+02  0.27762460448E+02  0.00000000000E+00 0. -1.
         21   -1    0    0  501  503 -0.00000000000E+00 -0.00000000000E+00 -0.14752418923E+03  0.14752418923E+03  0.00000000000E+00 0.  1.
          2    1    1    2  501    0 -0.29906457533E+02  0.21038714232E+02 -0.13180977182E+03  0.13678757124E+03  0.00000000000E+00 0.  1.
         -2    1    1    2    0  502  0.29906457533E+02 -0.21038714232E+02  0.12048043046E+02  0.38499078430E+02  0.00000000000E+00 0. -1.
</event>
<event>
 4    1  0.1768739E+004  0.2331117E+02  0.7546771E-02  0.1488627E+00
         21   -1    0    0  501  502  0.00000000000E+00  0.00000000000E+00  0.49373051490E+02  0.49373051490E+02  0.00000000000E+00 0.  1.
         21   -1    0    0  502  503 -0.00000000000E+00 -0.00000000000E+00 -0.16497576305E+02  0.16497576305E+02  0.00000000000E+00 0. -1.
          2    1    1    2  501    0  0.15301890253E+02 -0.17585869100E+02  0.35439398756E+02  0.42418882841E+02  0.00000000000E+00 0.  1.
         -2    1    1    2    0  503 -0.15301890253E+02  0.17585869100E+02 -0.25639235709E+01  0.23451744954E+02  0.00000000000E+00 0. -1.
</event>
<event>
 4    1  0.1768739E+004  0.2346993E+02  0.7546771E-02  0.1486680E+00
         21   -1    0    0  501  502  0.00000000000E+00  0.00000000000E+00  0.10868319544E+01  0.10868319544E+01  0.00000000000E+00 0.  1.
         21   -1    0    0  502  503 -0.00000000000E+00 -0.00000000000E+00 -0.84148301699E+03  0.84148301699E+03  0.00000000000E+00 0. -1.
          2    1    1    2  501    0  0.22638836180E+02  0.61903756692E+01 -0.15452263336E+03  0.15629485556E+03  0.00000000000E+00 0.  1.
         -2    1    1    2    0  503 -0.22638836180E+02 -0.61903756692E+01 -0.68587355168E+03  0.68627499339E+03  0.00000000000E+00 0. -1.
</event>
<event>
 4    1  0.1768739E+004  0.3666393E+02  0.7546771E-02  0.1369228E+00
         21   -1    0    0  503  502  0.00000000000E+00  0.00000000000E+00  0.21909204019E+03  0.21909204019E+03  0.00000000000E+00 0.  1.
         21   -1    0    0  501  503 -0.00000000000E+00 -0.00000000000E+00 -0.10081336608E+02  0.10081336608E+02  0.00000000000E+00 0. -1.
          2    1    1    2  501    0 -0.36464319161E+02 -0.38206062343E+01  0.32817831811E+02  0.49206236278E+02  0.00000000000E+00 0. -1.
         -2    1    1    2    0  502  0.36464319161E+02  0.38206062343E+01  0.17619287177E+03  0.17996714052E+03  0.00000000000E+00 0.  1.
</event>
<event>
 4    1  0.1768739E+004  0.2170633E+02  0.7546771E-02  0.1509415E+00
         21   -1    0    0  503  502  0.00000000000E+00  0.00000000000E+00  0.14240811490E+02  0.14240811490E+02  0.00000000000E+00 0. -1.
         21   -1    0    0  501  503 -0.00000000000E+00 -0.00000000000E+00 -0.35734041088E+02  0.35734041088E+02  0.00000000000E+00 0.  1.
          2    1    1    2  501    0 -0.89360108966E+01  0.19781615508E+02 -0.39438967967E+01  0.22061707205E+02  0.00000000000E+00 0. -1.
         -2    1    1    2    0  502  0.89360108966E+01 -0.19781615508E+02 -0.17549332801E+02  0.27913145373E+02  0.00000000000E+00 0.  1.
</event>
<event>
 4    1  0.1768739E+004  0.2667529E+02  0.7546771E-02  0.1450897E+00
         21   -1    0    0  503  502  0.00000000000E+00  0.00000000000E+00  0.59683310874E+02  0.59683310874E+02  0.00000000000E+00 0.  1.
         21   -1    0    0  501  503 -0.00000000000E+00 -0.00000000000E+00 -0.19646300211E+02  0.19646300211E+02  0.00000000000E+00 0. -1.
          2    1    1    2  501    0  0.25848530049E+02  0.65897433488E+01 -0.48518445054E+01  0.27112941895E+02  0.00000000000E+00 0. -1.
         -2    1    1    2    0  502 -0.25848530049E+02 -0.65897433488E+01  0.44888855169E+02  0.52216669191E+02  0.00000000000E+00 0.  1.
</event>
<event>
 4    1  0.1768739E+004  0.2335999E+02  0.7546771E-02  0.1488027E+00
         21   -1    0    0  503  502  0.00000000000E+00  0.00000000000E+00  0.19063560030E+02  0.19063560030E+02  0.00000000000E+00 0. -1.
         21   -1    0    0  501  503 -0.00000000000E+00 -0.00000000000E+00 -0.33491937092E+02  0.33491937092E+02  0.00000000000E+00 0.  1.
          2    1    1    2  501    0 -0.23230990236E+02  0.24515766209E+01 -0.17231662459E+02  0.29027905994E+02  0.00000000000E+00 0.  1.
         -2    1    1    2    0  502  0.23230990236E+02 -0.24515766209E+01  0.28032853967E+01  0.23527591128E+02  0.00000000000E+00 0. -1.
</event>
<event>
 4    1  0.1768739E+004  0.3031541E+02  0.7546771E-02  0.1416875E+00
         21   -1    0    0  503  502  0.00000000000E+00  0.00000000000E+00  0.20357353422E+02  0.20357353422E+02  0.00000000000E+00 0.  1.
         21   -1    0    0  501  503 -0.00000000000E+00 -0.00000000000E+00 -0.74584893324E+02  0.74584893324E+02  0.00000000000E+00 0. -1.
          2    1    1    2  501    0  0.21891479017E+02 -0.20971099338E+02 -0.56938422886E+02  0.64505874630E+02  0.00000000000E+00 0. -1.
         -2    1    1    2    0  502 -0.21891479017E+02  0.20971099338E+02  0.27108829836E+01  0.30436372116E+02  0.00000000000E+00 0.  1.
</event>
<event>
 4    1  0.1768739E+004  0.2436895E+02  0.7546771E-02  0.1475988E+00
         21   -1    0    0  501  502  0.00000000000E+00  0.00000000000E+00  0.83440167560E+02  0.83440167560E+02  0.00000000000E+00 0. -1.
         21   -1    0    0  502  503 -0.00000000000E+00 -0.00000000000E+00 -0.13583086828E+02  0.13583086828E+02  0.00000000000E+00 0.  1.
          2    1    1    2  501    0  0.16084792238E+02 -0.18306424881E+02  0.68399374863E+02  0.72610744487E+02  0.00000000000E+00 0. -1.
         -2    1    1    2    0  503 -0.16084792238E+02  0.18306424881E+02  0.14577058688E+01  0.24412509901E+02  0.00000000000E+00 0.  1.
</event>
<event>
 4    1  0.1768739E+004  0.2356871E+02  0.7546771E-02  0.1485478E+00
         21   -1    0    0  501  502  0.00000000000E+00  0.00000000000E+00  0.34192347380E+03  0.34192347380E+03  0.00000000000E+00 0. -1.
         21   -1    0    0  502  503 -0.00000000000E+00 -0.00000000000E+00 -0.30406041411E+02  0.30406041411E+02  0.00000000000E+00 0.  1.
          2    1    1    2  501    0  0.12673563060E+02 -0.19871210747E+02  0.33688184040E+03  0.33770528365E+03  0.00000000000E+00 0. -1.
         -2    1    1    2    0  503 -0.12673563060E+02  0.19871210747E+02 -0.25364408010E+02  0.34624231557E+02  0.00000000000E+00 0.  1.
</event>
<event>
 4    1  0.1768739E+004  0.2272228E+02  0.7546771E-02  0.1496015E+00
         21   -1    0    0  503  502  0.00000000000E+00  0.00000000000E+00  0.83689878510E+02  0.83689878510E+02  0.00000000000E+00 0.  1.
         21   -1    0    0  501  503 -0.00000000000E+00 -0.00000000000E+00 -0.12729196205E+02  0.12729196205E+02  0.00000000000E+00 0. -1.
          2    1    1    2  501    0  0.20248933170E+02 -0.10309357076E+02  0.87180237370E+00  0.22739001237E+02  0.00000000000E+00 0. -1.
         -2    1    1    2    0  502 -0.20248933170E+02  0.10309357076E+02  0.70088879931E+02  0.73680073479E+02  0.00000000000E+00 0.  1.
</event>
<event>
 4    1  0.1768739E+004  0.2405166E+02  0.7546771E-02  0.1479698E+00
         21   -1    0    0  503  502  0.00000000000E+00  0.00000000000E+00  0.27226718869E+02  0.27226718869E+02  0.00000000000E+00 0. -1.
         21   -1    0    0  501  503 -0.00000000000E+00 -0.00000000000E+00 -0.24219098128E+02  0.24219098128E+02  0.00000000000E+00 0.  1.
          2    1    1    2  501    0 -0.24723800025E+01 -0.23924244960E+02 -0.75074019698E+01  0.25196095811E+02  0.00000000000E+00 0. -1.
         -2    1    1    2    0  502  0.24723800025E+01  0.23924244960E+02  0.10515022710E+02  0.26249721186E+02  0.00000000000E+00 0.  1.
</event>
<event>
 4    1  0.1768739E+004  0.3133914E+02  0.7546771E-02  0.1408306E+00
         21   -1    0    0  503  502  0.00000000000E+00  0.00000000000E+00  0.60067751002E+02  0.60067751002E+02  0.00000000000E+00 0. -1.
         21   -1    0    0  501  503 -0.00000000000E+00 -0.00000000000E+00 -0.27589677239E+02  0.27589677239E+02  0.00000000000E+00 0.  1.
          2    1    1    2  501    0 -0.30665335979E+02  0.64636465321E+01 -0.11734762682E+02  0.33464103341E+02  0.00000000000E+00 0.  1.
         -2    1    1    2    0  502  0.30665335979E+02 -0.64636465321E+01  0.44212836445E+02  0.54193324900E+02  0.00000000000E+00 0. -1.
</event>
<event>
 4    1  0.1768739E+004  0.3065189E+02  0.7546771E-02  0.1414014E+00
         21   -1    0    0  501  502  0.00000000000E+00  0.00000000000E+00  0.55622891278E+02  0.55622891278E+02  0.00000000000E+00 0. -1.
         21   -1    0    0  502  503 -0.00000000000E+00 -0.00000000000E+00 -0.23216234242E+02  0.23216234242E+02  0.00000000000E+00 0.  1.
          2    1    1    2  501    0  0.28293637300E+02  0.11790195643E+02  0.36778647987E+02  0.47877004633E+02  0.00000000000E+00 0. -1.
         -2    1    1    2    0  503 -0.28293637300E+02 -0.11790195643E+02 -0.43719909501E+01  0.30962120887E+02  0.00000000000E+00 0.  1.
</event>
<event>
 4    1  0.1768739E+004  0.2553977E+02  0.7546771E-02  0.1462855E+00
         21   -1    0    0  503  502  0.00000000000E+00  0.00000000000E+00  0.23973067052E+01  0.23973067052E+01  0.00000000000E+00 0. -1.
         21   -1    0    0  501  503 -0.00000000000E+00 -0.00000000000E+00 -0.39819814225E+03  0.39819814225E+03  0.00000000000E+00 0.  1.
          2    1    1    2  501    0  0.23887322935E+02 -0.90374706797E+01 -0.31062021455E+03  0.31166840995E+03  0.00000000000E+00 0.  1.
         -2    1    1    2    0  502 -0.23887322935E+02  0.90374706797E+01 -0.85180620994E+02  0.88927039005E+02  0.00000000000E+00 0. -1.
</event>
<event>
 4    1  0.1768739E+004  0.2588018E+02  0.7546771E-02  0.1459193E+00
         21   -1    0    0  503  502  0.00000000000E+00  0.00000000000E+00  0.20509091839E+02  0.20509091839E+02  0.00000000000E+00 0. -1.
         21   -1    0    0  501  503 -0.00000000000E+00 -0.00000000000E+00 -0.37546183039E+02  0.37546183039E+02  0.00000000000E+00 0.  1.
          2    1    1    2  501    0  0.25395110203E+02  0.49871767254E+01 -0.18992426980E+02  0.32101336989E+02  0.00000000000E+00 0.  1.
         -2    1    1    2    0  502 -0.25395110203E+02 -0.49871767254E+01  0.19553357796E+01  0.25953937889E+02  0.00000000000E+00 0. -1.
</event>
<event>
 4    1  0.1768739E+004  0.2027496E+02  0.7546771E-02  0.1529873E+00
         21   -1    0    0  503  502  0.00000000000E+00  0.00000000000E+00  0.19111393833E+02  0.19111393833E+02  0.00000000000E+00 0. -1.
         21   -1    0    0  501  503 -0.00000000000E+00 -0.00000000000E+00 -0.59572847824E+02  0.59572847824E+02  0.00000000000E+00 0.  1.
          2    1    1    2  501    0  0.20251061088E+02 -0.98408066450E+00 -0.51678352976E+02  0.55513296212E+02  0.00000000000E+00 0.  1.
         -2    1    1    2    0  502 -0.20251061088E+02  0.98408066450E+00  0.11216898985E+02  0.23170945445E+02  0.00000000000E+00 0. -1.
</event>
<event>
 4    1  0.1768739E+004  0.3406677E+02  0.7546771E-02  0.1387245E+00
         21   -1    0    0  501  502  0.00000000000E+00  0.00000000000E+00  0.58210657454E+01  0.58210657454E+01  0.00000000000E+00 0. -1.
         21   -1    0    0  502  503 -0.00000000000E+00 -0.00000000000E+00 -0.42565272310E+03  0.42565272310E+03  0.00000000000E+00 0.  1.
          2    1    1    2  501    0 -0.25166385709E+02 -0.22960788118E+02 -0.52618047352E+02  0.62683360374E+02  0.00000000000E+00 0. -1.
         -2    1    1    2    0  503  0.25166385709E+02  0.22960788118E+02 -0.36721361000E+03  0.36879042847E+03  0.00000000000E+00 0.  1.
</event>
<event>
 4    1  0.1768739E+004  0.2476419E+02  0.7546771E-02  0.1471459E+00
         21   -1    0    0  503  502  0.00000000000E+00  0.00000000000E+00  0.63123713121E+02  0.63123713121E+02  0.00000000000E+00 0. -1.
         21   -1    0    0  501  503 -0.00000000000E+00 -0.00000000000E+00 -0.12137474474E+02  0.12137474474E+02  0.00000000000E+00 0.  1.
          2    1    1    2  501    0  0.17834065150E+02  0.17181712662E+02  0.42303617517E+02  0.49018988002E+02  0.00000000000E+00 0. -1.
         -2    1    1    2    0  502 -0.17834065150E+02 -0.17181712662E+02  0.86826211304E+01  0.26242199593E+02  0.00000000000E+00 0.  1.
</event>
<event>
 4    1  0.1768739E+004  0.2083508E+02  0.7546771E-02  0.1521633E+00
         21   -1    0    0  501  502  0.00000000000E+00  0.00000000000E+00  0.15025004395E+02  0.15025004395E+02  0.00000000000E+00 0.  1.
         21   -1    0    0  502  503 -0.00000000000E+00 -0.00000000000E+00 -0.47531980271E+02  0.47531980271E+02  0.00000000000E+00 0. -1.
          2    1    1    2  501    0  0.14977298393E+02  0.14483821657E+02  0.33339228420E+01  0.21100132664E+02  0.00000000000E+00 0.  1.
         -2    1    1    2    0  503 -0.14977298393E+02 -0.14483821657E+02 -0.35840898719E+02  0.41456852002E+02  0.00000000000E+00 0. -1.
</event>
<event>
 4    1  0.1768739E+004  0.2649171E+02  0.7546771E-02  0.1452782E+00
         21   -1    0    0  503  502  0.00000000000E+00  0.00000000000E+00  0.54713988668E+02  0.54713988668E+02  0.00000000000E+00 0. -1.
         21   -1    0    0  501  503 -0.00000000000E+00 -0.00000000000E+00 -0.26460913269E+02  0.26460913269E+02  0.00000000000E+00 0.  1.
          2    1    1    2  501    0  0.99919954817E+01 -0.24535089428E+02 -0.15007541624E+02  0.30447280544E+02  0.00000000000E+00 0.  1.
         -2    1    1    2    0  502 -0.99919954817E+01  0.24535089428E+02  0.43260617023E+02  0.50727621393E+02  0.00000000000E+00 0. -1.
</event>
<event>
 4    1  0.1768739E+004  0.2018887E+02  0.7546771E-02  0.1531168E+00
         21   -1    0    0  503  502  0.00000000000E+00  0.00000000000E+00  0.36982964773E+03  0.36982964773E+03  0.00000000000E+00 0.  1.
         21   -1    0    0  501  503 -0.00000000000E+00 -0.00000000000E+00 -0.19286203292E+01  0.19286203292E+01  0.00000000000E+00 0. -1.
          2    1    1    2  501    0  0.44671987196E+01  0.19688440570E+02  0.62266615055E+02  0.65457787214E+02  0.00000000000E+00 0. -1.
         -2    1    1    2    0  502 -0.44671987196E+01 -0.19688440570E+02  0.30563441234E+03  0.30630048084E+03  0.00000000000E+00 0.  1.
</event>
<event>
 4    1  0.1768739E+004  0.2640059E+02  0.7546771E-02  0.1453724E+00
         21   -1    0    0  501  502  0.00000000000E+00  0.00000000000E+00  0.13114865203E+02  0.13114865203E+02  0.00000000000E+00 0. -1.
         21   -1    0    0  502  503 -0.00000000000E+00 -0.00000000000E+00 -0.30801409335E+03  0.30801409335E+03  0.00000000000E+00 0.  1.
          2    1    1    2  501    0 -0.20600957617E+02  0.16510358725E+02 -0.13925235017E+01  0.26437294144E+02  0.00000000000E+00 0. -1.
         -2    1    1    2    0  503  0.20600957617E+02 -0.16510358725E+02 -0.29350670465E+03  0.29469166441E+03  0.00000000000E+00 0.  1.
</event>
<event>
 4    1  0.1768739E+004  0.2221990E+02  0.7546771E-02  0.1502533E+00
         21   -1    0    0  501  502  0.00000000000E+00  0.00000000000E+00  0.52165638181E+03  0.52165638181E+03  0.00000000000E+00 0. -1.
         21   -1    0    0  502  503 -0.00000000000E+00 -0.00000000000E+00 -0.11920629117E+02  0.11920629117E+02  0.00000000000E+00 0.  1.
          2    1    1    2  501    0 -0.36404746843E+01 -0.21919647485E+02  0.51084635893E+03  0.51132937177E+03  0.00000000000E+00 0. -1.
         -2    1    1    2    0  503  0.36404746843E+01  0.21919647485E+02 -0.11106062380E+01  0.22247639156E+02  0.00000000000E+00 0.  1.
</event>
<event>
 4    1  0.1768739E+004  0.2047800E+02  0.7546771E-02  0.1526850E+00
         21   -1    0    0  503  502  0.00000000000E+00  0.00000000000E+00  0.86927297668E+02  0.86927297668E+02  0.00000000000E+00 0. -1.
         21   -1    0    0  501  503 -0.00000000000E+00 -0.00000000000E+00 -0.48249299190E+01  0.48249299190E+01  0.00000000000E+00 0.  1.
          2    1    1    2  501    0 -0.20459219688E+02 -0.87680604263E+00  0.40459955305E+02  0.45347066524E+02  0.00000000000E+00 0.  1.
         -2    1    1    2    0  502  0.20459219688E+02  0.87680604263E+00  0.41642412444E+02  0.46405161063E+02  0.00000000000E+00 0. -1.
</event>
<event>
 4    1  0.1768739E+004  0.2413501E+02  0.7546771E-02  0.1478717E+00
         21   -1    0    0  501  502  0.00000000000E+00  0.00000000000E+00  0.61669867324E+02  0.61669867324E+02  0.00000000000E+00 0. -1.
         21   -1    0    0  502  503 -0.00000000000E+00 -0.00000000000E+00 -0.20815755839E+02  0.20815755839E+02  0.00000000000E+00 0.  1.
          2    1    1    2  501    0  0.51151686479E+01 -0.23586724168E+02  0.50908714592E+02  0.56340001142E+02  0.00000000000E+00 0. -1.
         -2    1    1    2    0  503 -0.51151686479E+01  0.23586724168E+02 -0.10054603106E+02  0.26145622021E+02  0.00000000000E+00 0.  1.
</event>
<event>
 4    1  0.1768739E+004  0.3351463E+02  0.7546771E-02  0.1391318E+00
         21   -1    0    0  503  502  0.00000000000E+00  0.00000000000E+00  0.69038038022E+02  0.69038038022E+02  0.00000000000E+00 0.  1.
         21   -1    0    0  501  503 -0.00000000000E+00 -0.00000000000E+00 -0.16377649670E+02  0.16377649670E+02  0.00000000000E+00 0. -1.
          2    1    1    2  501    0  0.32759100677E+02 -0.70761478407E+01  0.29796949664E+02  0.44845164228E+02  0.00000000000E+00 0.  1.
         -2    1    1    2    0  502 -0.32759100677E+02  0.70761478407E+01  0.22863438688E+02  0.40570523463E+02  0.00000000000E+00 0. -1.
</event>
<event>
 4    1  0.1768739E+004  0.2219499E+02  0.7546771E-02  0.1502862E+00
         21   -1    0    0  501  502  0.00000000000E+00  0.00000000000E+00  0.11046787392E+03  0.11046787392E+03  0.00000000000E+00 0.  1.
         21   -1    0    0  502  503 -0.00000000000E+00 -0.00000000000E+00 -0.14977637151E+02  0.14977637151E+02  0.00000000000E+00 0. -1.
          2    1    1    2  501    0 -0.15559513718E+02 -0.15827793915E+02  0.10030755627E+03  0.10273374992E+03  0.00000000000E+00 0.  1.
         -2    1    1    2    0  503  0.15559513718E+02  0.15827793915E+02 -0.48173195043E+01  0.22711761150E+02  0.00000000000E+00 0. -1.
</event>
<event>
 4    1  0.1768739E+004  0.2679794E+02  0.7546771E-02  0.1449648E+00
         21   -1    0    0  503  502  0.00000000000E+00  0.00000000000E+00  0.28996428978E+01  0.28996428978E+01  0.00000000000E+00 0. -1.
         21   -1    0    0  501  503 -0.00000000000E+00 -0.00000000000E+00 -0.27243343306E+03  0.27243343306E+03  0.00000000000E+00 0.  1.
          2    1    1    2  501    0  0.20940455757E+02 -0.16722054058E+02 -0.17627936101E+03  0.17830463509E+03  0.00000000000E+00 0.  1.
         -2    1    1    2    0  502 -0.20940455757E+02  0.16722054058E+02 -0.93254429155E+02  0.97028440863E+02  0.00000000000E+00 0. -1.
</event>
<event>
 4    1  0.1768739E+004  0.2015168E+02  0.7546771E-02  0.1531730E+00
         21   -1    0    0  501  502  0.00000000000E+00  0.00000000000E+00  0.38017804147E+03  0.38017804147E+03  0.00000000000E+00 0. -1.
         21   -1    0    0  502  503 -0.00000000000E+00 -0.00000000000E+00 -0.12399957918E+01  0.12399957918E+01  0.00000000000E+00 0.  1.
          2    1    1    2  501    0 -0.95789660668E+01  0.17729451537E+02  0.26046292451E+03  0.26124131581E+03  0.00000000000E+00 0. -1.
         -2    1    1    2    0  503  0.95789660668E+01 -0.17729451537E+02  0.11847512117E+03  0.12017672145E+03  0.00000000000E+00 0.  1.
</event>
<event>
 4    1  0.1768739E+004  0.2027191E+02  0.7546771E-02  0.1529919E+00
         21   -1    0    0  503  502  0.00000000000E+00  0.00000000000E+00  0.17715091777E+01  0.17715091777E+01  0.00000000000E+00 0.  1.
         21   -1    0    0  501  503 -0.00000000000E+00 -0.00000000000E+00 -0.23403199902E+03  0.23403199902E+03  0.00000000000E+00 0. -1.
          2    1    1    2  501    0  0.14234667895E+02 -0.14433458717E+02 -0.12717667305E+03  0.12878220634E+03  0.00000000000E+00 0. -1.
         -2    1    1    2    0  502 -0.14234667895E+02  0.14433458717E+02 -0.10508381679E+03  0.10702130186E+03  0.00000000000E+00 0.  1.
</event>
<event>
 4    1  0.1768739E+004  0.3302299E+02  0.7546771E-02  0.1395022E+00
         21   -1    0    0  501  502  0.00000000000E+00  0.00000000000E+00  0.13595193695E+02  0.13595193695E+02  0.00000000000E+00 0.  1.
         21   -1    0    0  502  503 -0.00000000000E+00 -0.00000000000E+00 -0.12118669753E+03  0.12118669753E+03  0.00000000000E+00 0. -1.
          2    1    1    2  501    0 -0.12935834290E+02  0.30383911645E+02 -0.14610371125E+02  0.36110674877E+02  0.00000000000E+00 0.  1.
         -2    1    1    2    0  503  0.12935834290E+02 -0.30383911645E+02 -0.92981132706E+02  0.98671216344E+02  0.00000000000E+00 0. -1.
</event>
<event>
 4    1  0.1768739E+004  0.6940244E+02  0.7546771E-02  0.1230849E+00
         21   -1    0    0  503  502  0.00000000000E+00  0.00000000000E+00  0.33747459069E+03  0.33747459069E+03  0.00000000000E+00 0. -1.
         21   -1    0    0  501  503 -0.00000000000E+00 -0.00000000000E+00 -0.15726203495E+02  0.15726203495E+02  0.00000000000E+00 0.  1.
          2    1    1    2  501    0  0.38965603768E+02  0.57431532833E+02  0.10718629381E+03  0.12769338598E+03  0.00000000000E+00 0.  1.
         -2    1    1    2    0  502 -0.38965603768E+02 -0.57431532833E+02  0.21456209338E+03  0.22550740820E+03  0.00000000000E+00 0. -1.
</event>
<event>
 4    1  0.1768739E+004  0.2124940E+02  0.7546771E-02  0.1515734E+00
         21   -1    0    0  503  502  0.00000000000E+00  0.00000000000E+00  0.13376765435E+03  0.13376765435E+03  0.00000000000E+00 0.  1.
         21   -1    0    0  501  503 -0.00000000000E+00 -0.00000000000E+00 -0.64968118500E+01  0.64968118500E+01  0.00000000000E+00 0. -1.
          2    1    1    2  501    0  0.14011563200E+02  0.15975390384E+02  0.15024497348E+02  0.26024460067E+02  0.00000000000E+00 0. -1.
         -2    1    1    2    0  502 -0.14011563200E+02 -0.15975390384E+02  0.11224634515E+03  0.11424000613E+03  0.00000000000E+00 0.  1.
</event>
<event>
 4    1  0.1768739E+004  0.2226290E+02  0.7546771E-02  0.1501967E+00
         21   -1    0    0  501  502  0.00000000000E+00  0.00000000000E+00  0.20359482003E+01  0.20359482003E+01  0.00000000000E+00 0. -1.
         21   -1    0    0  502  503 -0.00000000000E+00 -0.00000000000E+00 -0.33331116833E+03  0.33331116833E+03  0.00000000000E+00 0.  1.
          2    1    1    2  501    0 -0.22194111258E+02 -0.17487787301E+01 -0.78572685275E+02  0.81665804796E+02  0.00000000000E+00 0. -1.
         -2    1    1    2    0  503  0.22194111258E+02  0.17487787301E+01 -0.25270253485E+03  0.25368131173E+03  0.00000000000E+00 0.  1.
</event>
<event>
 4    1  0.1768739E+004  0.3679311E+02  0.7546771E-02  0.1368377E+00
         21   -1    0    0  503  502  0.00000000000E+00  0.00000000000E+00  0.27047775809E+01  0.27047775809E+01  0.00000000000E+00 0. -1.
         21   -1    0    0  501  503 -0.00000000000E+00 -0.00000000000E+00 -0.50094633019E+03  0.50094633019E+03  0.00000000000E+00 0.  1.
          2    1    1    2  501    0  0.85261461827E+01  0.35791584830E+02 -0.24157767748E+03  0.24436347307E+03  0.00000000000E+00 0. -1.
         -2    1    1    2    0  502 -0.85261461827E+01 -0.35791584830E+02 -0.25666387512E+03  0.25928763470E+03  0.00000000000E+00 0.  1.
</event>
<event>
 4    1  0.1768739E+004  0.4240694E+02  0.7546771E-02  0.1334930E+00
         21   -1    0    0  501  502  0.00000000000E+00  0.00000000000E+00  0.33831479452E+02  0.33831479452E+02  0.00000000000E+00 0. -1.
         21   -1    0    0  502  503 -0.00000000000E+00 -0.00000000000E+00 -0.55688508444E+02  0.55688508444E+02  0.00000000000E+00 0.  1.
          2    1    1    2  501    0  0.42062973277E+02 -0.53902819283E+01 -0.13835188048E+01  0.42429506059E+02  0.00000000000E+00 0.  1.
         -2    1    1    2    0  503 -0.42062973277E+02  0.53902819283E+01 -0.20473510188E+02  0.47090481836E+02  0.00000000000E+00 0. -1.
</event>
<event>
 4    1  0.1768739E+004  0.2797888E+02  0.7546771E-02  0.1438015E+00
         21   -1    0    0  501  502  0.00000000000E+00  0.00000000000E+00  0.42955251270E+03  0.42955251270E+03  0.00000000000E+00 0.  1.
         21   -1    0    0  502  503 -0.00000000000E+00 -0.00000000000E+00 -0.42961540994E+01  0.42961540994E+01  0.00000000000E+00 0. -1.
          2    1    1    2  501    0  0.27791163037E+02  0.32356067639E+01  0.37723443062E+03  0.37827058244E+03  0.00000000000E+00 0.  1.
         -2    1    1    2    0  503 -0.27791163037E+02 -0.32356067639E+01  0.48021927981E+02  0.55578084360E+02  0.00000000000E+00 0. -1.
</event>
<event>
 4    1  0.1768739E+004  0.2650811E+02  0.7546771E-02  0.1452613E+00
         21   -1    0    0  503  502  0.00000000000E+00  0.00000000000E+00  0.51565169750E+02  0.51565169750E+02  0.00000000000E+00 0.  1.
         21   -1    0    0  501  503 -0.00000000000E+00 -0.00000000000E+00 -0.70503765942E+02  0.70503765942E+02  0.00000000000E+00 0. -1.
          2    1    1    2  501    0 -0.17682031751E+02  0.19749062483E+02 -0.64288961770E+02  0.69539559397E+02  0.00000000000E+00 0. -1.
         -2    1    1    2    0  502  0.17682031751E+02 -0.19749062483E+02  0.45350365578E+02  0.52529376294E+02  0.00000000000E+00 0.  1.
</event>
<event>
 4    1  0.1768739E+004  0.2349012E+02  0.7546771E-02  0.1486434E+00
         21   -1    0    0  501  502  0.00000000000E+00  0.00000000000E+00  0.21033965887E+02  0.21033965887E+02  0.00000000000E+00 0. -1.
         21   -1    0    0  502  503 -0.00000000000E+00 -0.00000000000E+00 -0.43219728424E+02  0.43219728424E+02  0.00000000000E+00 0.  1.
          2    1    1    2  501    0 -0.21864466833E+02 -0.85866585901E+01  0.90481172108E+01  0.25172485787E+02  0.00000000000E+00 0. -1.
         -2    1    1    2    0  503  0.21864466833E+02  0.85866585901E+01 -0.31233879748E+02  0.39081208525E+02  0.00000000000E+00 0.  1.
</event>
<event>
 4    1  0.1768739E+004  0.2065950E+02  0.7546771E-02  0.1524182E+00
         21   -1    0    0  501  502  0.00000000000E+00  0.00000000000E+00  0.11892127364E+03  0.11892127364E+03  0.00000000000E+00 0. -1.
         21   -1    0    0  502  503 -0.00000000000E+00 -0.00000000000E+00 -0.60505112413E+01  0.60505112413E+01  0.00000000000E+00 0.  1.
          2    1    1    2  501    0 -0.15889633655E+01 -0.20598306380E+02  0.96290303972E+02  0.98481661590E+02  0.00000000000E+00 0. -1.
         -2    1    1    2    0  503  0.15889633655E+01  0.20598306380E+02  0.16580458423E+02  0.26490123288E+02  0.00000000000E+00 0.  1.
</event>
<event>
 4    1  0.1768739E+004  0.2288895E+02  0.7546771E-02  0.1493897E+00
         21   -1    0    0  501  502  0.00000000000E+00  0.00000000000E+00  0.34133258155E+01  0.34133258155E+01  0.00000000000E+00 0.  1.
         21   -1    0    0  502  503 -0.00000000000E+00 -0.00000000000E+00 -0.16537605142E+03  0.16537605142E+03  0.00000000000E+00 0. -1.
          2    1    1    2  501    0 -0.73185630880E+01 -0.21687380898E+02 -0.58353795116E+02  0.62682288251E+02  0.00000000000E+00 0.  1.
         -2    1    1    2    0  503  0.73185630880E+01  0.21687380898E+02 -0.10360893049E+03  0.10610708899E+03  0.00000000000E+00 0. -1.
</event>
<event>
 4    1  0.1768739E+004  0.3628702E+02  0.7546771E-02  0.1371734E+00
         21   -1    0    0  503  502  0.00000000000E+00  0.00000000000E+00  0.31790223326E+01  0.31790223326E+01  0.00000000000E+00 0.  1.
         21   -1    0    0  501  503 -0.00000000000E+00 -0.00000000000E+00 -0.43113539817E+03  0.43113539817E+03  0.00000000000E+00 0. -1.
          2    1    1    2  501    0  0.27636229922E+02  0.23515666553E+02 -0.17093758789E+03  0.17474669305E+03  0.00000000000E+00 0.  1.
         -2    1    1    2    0  502 -0.27636229922E+02 -0.23515666553E+02 -0.25701878795E+03  0.25956772745E+03  0.00000000000E+00 0. -1.
</event>
<event>
 4    1  0.1768739E+004  0.2124691E+02  0.7546771E-02  0.1515769E+00
         21   -1    0    0  503  502  0.00000000000E+00  0.00000000000E+00  0.26404235913E+03  0.26404235913E+03  0.00000000000E+00 0. -1.
         21   -1    0    0  501  503 -0.00000000000E+00 -0.00000000000E+00 -0.37723850987E+01  0.37723850987E+01  0.00000000000E+00 0.  1.
          2    1    1    2  501    0  0.17973547939E+02 -0.11330608772E+02  0.31117071376E+02  0.37678949716E+02  0.00000000000E+00 0.  1.
         -2    1    1    2    0  502 -0.17973547939E+02  0.11330608772E+02  0.22915290266E+03  0.23013579451E+03  0.00000000000E+00 0. -1.
</event>
<event>
 4    1  0.1768739E+004  0.2957529E+02  0.7546771E-02  0.1423323E+00
         21   -1    0    0  503  502  0.00000000000E+00  0.00000000000E+00  0.47661777095E+02  0.47661777095E+02  0.00000000000E+00 0. -1.
         21   -1    0    0  501  503 -0.00000000000E+00 -0.00000000000E+00 -0.18458039436E+02  0.18458039436E+02  0.00000000000E+00 0.  1.
          2    1    1    2  501    0 -0.19799328916E+02  0.21970083709E+02  0.17105397101E+02  0.34165664250E+02  0.00000000000E+00 0. -1.
         -2    1    1    2    0  502  0.19799328916E+02 -0.21970083709E+02  0.12098340558E+02  0.31954152280E+02  0.00000000000E+00 0.  1.
</event>
<event>
 4    1  0.1768739E+004  0.2276215E+02  0.7546771E-02  0.1495507E+00
         21   -1    0    0  501  502  0.00000000000E+00  0.00000000000E+00  0.27013680468E+02  0.27013680468E+02  0.00000000000E+00 0.  1.
         21   -1    0    0  502  503 -0.00000000000E+00 -0.00000000000E+00 -0.83890128182E+02  0.83890128182E+02  0.00000000000E+00 0. -1.
          2    1    1    2  501    0 -0.88671982712E+01 -0.20963970976E+02  0.20263916634E+02  0.30475262125E+02  0.00000000000E+00 0.  1.
         -2    1    1    2    0  503  0.88671982712E+01  0.20963970976E+02 -0.77140364348E+02  0.80428546524E+02  0.00000000000E+00 0. -1.
</event>
<event>
 4    1  0.1768739E+004  0.2758273E+02  0.7546771E-02  0.1441841E+00
         21   -1    0    0  501  502  0.00000000000E+00  0.00000000000E+00  0.56855710642E+01  0.56855710642E+01  0.00000000000E+00 0. -1.
         21   -1    0    0  502  503 -0.00000000000E+00 -0.00000000000E+00 -0.28844221156E+03  0.28844221156E+03  0.00000000000E+00 0.  1.
          2    1    1    2  501    0 -0.18276735766E+02  0.20658361992E+02 -0.33701676761E+02  0.43550086188E+02  0.00000000000E+00 0. -1.
         -2    1    1    2    0  503  0.18276735766E+02 -0.20658361992E+02 -0.24905496374E+03  0.25057769644E+03  0.00000000000E+00 0.  1.
</event>
<event>
 4    1  0.1768739E+004  0.2045495E+02  0.7546771E-02  0.1527191E+00
         21   -1    0    0  503  502  0.00000000000E+00  0.00000000000E+00  0.61945229132E+01  0.61945229132E+01  0.00000000000E+00 0. -1.
         21   -1    0    0  501  503 -0.00000000000E+00 -0.00000000000E+00 -0.12512306315E+03  0.12512306315E+03  0.00000000000E+00 0.  1.
          2    1    1    2  501    0  0.11473328390E+02 -0.16934222620E+02 -0.10400477190E+03  0.10599715910E+03  0.00000000000E+00 0.  1.
         -2    1    1    2    0  502 -0.11473328390E+02  0.16934222620E+02 -0.14923768340E+02  0.25320426962E+02  0.00000000000E+00 0. -1.
</event>
<event>
 4    1  0.1768739E+004  0.2232757E+02  0.7546771E-02  0.1501119E+00
         21   -1    0    0  501  502  0.00000000000E+00  0.00000000000E+00  0.16874855544E+02  0.16874855544E+02  0.00000000000E+00 0. -1.
         21   -1    0    0  502  503 -0.00000000000E+00 -0.00000000000E+00 -0.45254952416E+02  0.45254952416E+02  0.00000000000E+00 0.  1.
          2    1    1    2  501    0 -0.22315276452E+02 -0.74068535862E+00  0.41146778858E+01  0.22703540517E+02  0.00000000000E+00 0. -1.
         -2    1    1    2    0  503  0.22315276452E+02  0.74068535862E+00 -0.32494774758E+02  0.39426267443E+02  0.00000000000E+00 0.  1.
</event>
<event>
 4    1  0.1768739E+004  0.4078059E+02  0.7546771E-02  0.1343971E+00
         21   -1    0    0  501  502  0.00000000000E+00  0.00000000000E+00  0.31024935609E+02  0.31024935609E+02  0.00000000000E+00 0. -1.
         21   -1    0    0  502  503 -0.00000000000E+00 -0.00000000000E+00 -0.62301816923E+02  0.62301816923E+02  0.00000000000E+00 0.  1.
          2    1    1    2  501    0 -0.36283082507E+01 -0.40618864036E+02  0.17970462991E+01  0.40820167954E+02  0.00000000000E+00 0. -1.
         -2    1    1    2    0  503  0.36283082507E+01  0.40618864036E+02 -0.33073927613E+02  0.52506584578E+02  0.00000000000E+00 0.  1.
</event>
<event>
 4    1  0.1768739E+004  0.2017180E+02  0.7546771E-02  0.1531425E+00
         21   -1    0    0  503  502  0.00000000000E+00  0.00000000000E+00  0.14105465358E+02  0.14105465358E+02  0.00000000000E+00 0. -1.
         21   -1    0    0  501  503 -0.00000000000E+00 -0.00000000000E+00 -0.31838645945E+02  0.31838645945E+02  0.00000000000E+00 0.  1.
          2    1    1    2  501    0 -0.18021850153E+02 -0.90617120216E+01 -0.15908180104E+02  0.25689918293E+02  0.00000000000E+00 0. -1.
         -2    1    1    2    0  502  0.18021850153E+02  0.90617120216E+01 -0.18250004829E+01  0.20254193010E+02  0.00000000000E+00 0.  1.
</event>
<event>
 4    1  0.1768739E+004  0.2241823E+02  0.7546771E-02  0.1499936E+00
         21   -1    0    0  503  502  0.00000000000E+00  0.00000000000E+00  0.25180978463E+03  0.25180978463E+03  0.00000000000E+00 0.  1.
         21   -1    0    0  501  503 -0.00000000000E+00 -0.00000000000E+00 -0.27645068869E+02  0.27645068869E+02  0.00000000000E+00 0. -1.
          2    1    1    2  501    0  0.17677031283E+02  0.13787660062E+02 -0.22506718402E+02  0.31766796788E+02  0.00000000000E+00 0. -1.
         -2    1    1    2    0  502 -0.17677031283E+02 -0.13787660062E+02  0.24667143416E+03  0.24768805671E+03  0.00000000000E+00 0.  1.
</event>
<event>
 4    1  0.1768739E+004  0.2223775E+02  0.7546771E-02  0.1502298E+00
         21   -1    0    0  501  502  0.00000000000E+00  0.00000000000E+00  0.33241094882E+01  0.33241094882E+01  0.00000000000E+00 0. -1.
         21   -1    0    0  502  503 -0.00000000000E+00 -0.00000000000E+00 -0.28564423443E+03  0.28564423443E+03  0.00000000000E+00 0.  1.
          2    1    1    2  501    0  0.81755138017E+01  0.20680393161E+02 -0.41143204970E+02  0.46768376093E+02  0.00000000000E+00 0. -1.
         -2    1    1    2    0  503 -0.81755138017E+01 -0.20680393161E+02 -0.24117691997E+03  0.24219996783E+03  0.00000000000E+00 0.  1.
</event>
<event>
 4    1  0.1768739E+004  0.2075311E+02  0.7546771E-02  0.1522819E+00
         21   -1    0    0  501  502  0.00000000000E+00  0.00000000000E+00  0.36106750233E+01  0.36106750233E+01  0.00000000000E+00 0. -1.
         21   -1    0    0  502  503 -0.00000000000E+00 -0.00000000000E+00 -0.14845196393E+03  0.14845196393E+03  0.00000000000E+00 0.  1.
          2    1    1    2  501    0 -0.16353544629E+02 -0.12777063640E+02 -0.38718245004E+02  0.43929423777E+02  0.00000000000E+00 0.  1.
         -2    1    1    2    0  503  0.16353544629E+02  0.12777063640E+02 -0.10612304390E+03  0.10813321518E+03  0.00000000000E+00 0. -1.
</event>
<event>
 4    1  0.1768739E+004  0.2718833E+02  0.7546771E-02  0.1445725E+00
         21   -1    0    0  501  502  0.00000000000E+00  0.00000000000E+00  0.54138795948E+02  0.54138795948E+02  0.00000000000E+00 0. -1.
         21   -1    0    0  502  503 -0.00000000000E+00 -0.00000000000E+00 -0.28326113915E+02  0.28326113915E+02  0.00000000000E+00 0.  1.
          2    1    1    2  501    0  0.20597737696E+02 -0.17746502742E+02  0.42581542016E+02  0.50521212161E+02  0.00000000000E+00 0. -1.
         -2    1    1    2    0  503 -0.20597737696E+02  0.17746502742E+02 -0.16768859983E+02  0.31943697702E+02  0.00000000000E+00 0.  1.
</event>
<event>
 4    1  0.1768739E+004  0.2776337E+02  0.7546771E-02  0.1440087E+00
         21   -1    0    0  503  502  0.00000000000E+00  0.00000000000E+00  0.29371100321E+03  0.29371100321E+03  0.00000000000E+00 0. -1.
         21   -1    0    0  501  503 -0.00000000000E+00 -0.00000000000E+00 -0.30240840039E+01  0.30240840039E+01  0.00000000000E+00 0.  1.
          2    1    1    2  501    0  0.21064416583E+02 -0.18085769697E+02  0.91402373682E+02  0.95525905524E+02  0.00000000000E+00 0.  1.
         -2    1    1    2    0  502 -0.21064416583E+02  0.18085769697E+02  0.19928454553E+03  0.20120918169E+03  0.00000000000E+00 0. -1.
</event>
<event>
 4    1  0.1768739E+004  0.2933739E+02  0.7546771E-02  0.1425443E+00
         21   -1    0    0  503  502  0.00000000000E+00  0.00000000000E+00  0.17755218667E+02  0.17755218667E+02  0.00000000000E+00 0.  1.
         21   -1    0    0  501  503 -0.00000000000E+00 -0.00000000000E+00 -0.83343621395E+02  0.83343621395E+02  0.00000000000E+00 0. -1.
          2    1    1    2  501    0  0.24167274573E+02  0.16632049771E+02 -0.65490461368E+02  0.71761290192E+02  0.00000000000E+00 0. -1.
         -2    1    1    2    0  502 -0.24167274573E+02 -0.16632049771E+02 -0.97941359358E-01  0.29337549870E+02  0.00000000000E+00 0.  1.
</event>
<event>
 4    1  0.1768739E+004  0.2297497E+02  0.7546771E-02  0.1492813E+00
         21   -1    0    0  503  502  0.00000000000E+00  0.00000000000E+00  0.43004291730E+02  0.43004291730E+02  0.00000000000E+00 0.  1.
         21   -1    0    0  501  503 -0.00000000000E+00 -0.00000000000E+00 -0.14141852198E+02  0.14141852198E+02  0.00000000000E+00 0. -1.
          2    1    1    2  501    0 -0.12182934942E+02  0.19478841963E+02  0.40479100280E+01  0.23328839740E+02  0.00000000000E+00 0. -1.
         -2    1    1    2    0  502  0.12182934942E+02 -0.19478841963E+02  0.24814529504E+02  0.33817304188E+02  0.00000000000E+00 0.  1.
</event>
<event>
 4    1  0.1768739E+004  0.2202919E+02  0.7546771E-02  0.1505062E+00
         21   -1    0    0  501  502  0.00000000000E+00  0.00000000000E+00  0.12799968355E+02  0.12799968355E+02  0.00000000000E+00 0. -1.
         21   -1    0    0  502  503 -0.00000000000E+00 -0.00000000000E+00 -0.53510172476E+02  0.53510172476E+02  0.00000000000E+00 0.  1.
          2    1    1    2  501    0  0.21787648080E+02  0.32532786277E+01 -0.24550429172E+01  0.22165573902E+02  0.00000000000E+00 0. -1.
         -2    1    1    2    0  503 -0.21787648080E+02 -0.32532786277E+01 -0.38255161204E+02  0.44144566929E+02  0.00000000000E+00 0.  1.
</event>
<event>
 4    1  0.1768739E+004  0.2143605E+02  0.7546771E-02  0.1513129E+00
         21   -1    0    0  501  502  0.00000000000E+00  0.00000000000E+00  0.16504298690E+03  0.16504298690E+03  0.00000000000E+00 0. -1.
         21   -1    0    0  502  503 -0.00000000000E+00 -0.00000000000E+00 -0.64978756546E+01  0.64978756546E+01  0.00000000000E+00 0.  1.
          2    1    1    2  501    0  0.97689697025E+01 -0.19080661776E+02  0.14411461623E+03  0.14570012709E+03  0.00000000000E+00 0. -1.
         -2    1    1    2    0  503 -0.97689697025E+01  0.19080661776E+02  0.14430495010E+02  0.25840735459E+02  0.00000000000E+00 0.  1.
</event>
<event>
 4    1  0.1768739E+004  0.2385495E+02  0.7546771E-02  0.1482033E+00
         21   -1    0    0  503  502  0.00000000000E+00  0.00000000000E+00  0.25505120793E+03  0.25505120793E+03  0.00000000000E+00 0.  1.
         21   -1    0    0  501  503 -0.00000000000E+00 -0.00000000000E+00 -0.41443454178E+01  0.41443454178E+01  0.00000000000E+00 0. -1.
          2    1    1    2  501    0 -0.15792501520E+02 -0.17878919668E+02  0.37399523438E+02  0.44359702728E+02  0.00000000000E+00 0. -1.
         -2    1    1    2    0  502  0.15792501520E+02  0.17878919668E+02  0.21350733908E+03  0.21483585062E+03  0.00000000000E+00 0.  1.
</event>
<event>
 4    1  0.1768739E+004  0.3011591E+02  0.7546771E-02  0.1418592E+00
         21   -1    0    0  503  502  0.00000000000E+00  0.00000000000E+00  0.18458457697E+03  0.18458457697E+03  0.00000000000E+00 0. -1.
         21   -1    0    0  501  503 -0.00000000000E+00 -0.00000000000E+00 -0.87195987903E+01  0.87195987903E+01  0.00000000000E+00 0.  1.
          2    1    1    2  501    0 -0.12478874749E+01  0.30090045520E+02  0.24076830663E+02  0.38557254017E+02  0.00000000000E+00 0.  1.
         -2    1    1    2    0  502  0.12478874749E+01 -0.30090045520E+02  0.15178814751E+03  0.15474692174E+03  0.00000000000E+00 0. -1.
</event>
<event>
 4    1  0.1768739E+004  0.2199670E+02  0.7546771E-02  0.1505496E+00
         21   -1    0    0  501  502  0.00000000000E+00  0.00000000000E+00  0.35891957604E+01  0.35891957604E+01  0.00000000000E+00 0.  1.
         21   -1    0    0  502  503 -0.00000000000E+00 -0.00000000000E+00 -0.17424587624E+03  0.17424587624E+03  0.00000000000E+00 0. -1.
          2    1    1    2  501    0 -0.10882980024E+01 -0.21969757277E+02 -0.12763018994E+03  0.12951185278E+03  0.00000000000E+00 0. -1.
         -2    1    1    2    0  503  0.10882980024E+01  0.21969757277E+02 -0.43026490542E+02  0.48323219220E+02  0.00000000000E+00 0.  1.
</event>
<event>
 4    1  0.1768739E+004  0.2659419E+02  0.7546771E-02  0.1451728E+00
         21   -1    0    0  501  502  0.00000000000E+00  0.00000000000E+00  0.13605294795E+02  0.13605294795E+02  0.00000000000E+00 0. -1.
         21   -1    0    0  502  503 -0.00000000000E+00 -0.00000000000E+00 -0.76034187276E+02  0.76034187276E+02  0.00000000000E+00 0.  1.
          2    1    1    2  501    0 -0.26191518287E+02 -0.46103365747E+01 -0.60070121603E+01  0.27264171152E+02  0.00000000000E+00 0. -1.
         -2    1    1    2    0  503  0.26191518287E+02  0.46103365747E+01 -0.56421880321E+02  0.62375310920E+02  0.00000000000E+00 0.  1.
</event>
<event>
 4    1  0.1768739E+004  0.2195697E+02  0.7546771E-02  0.1506028E+00
         21   -1    0    0  503  502  0.00000000000E+00  0.00000000000E+00  0.29431830022E+02  0.29431830022E+02  0.00000000000E+00 0. -1.
         21   -1    0    0  501  503 -0.00000000000E+00 -0.00000000000E+00 -0.26250804252E+02  0.26250804252E+02  0.00000000000E+00 0.  1.
          2    1    1    2  501    0 -0.18651302902E+02  0.11586089780E+02 -0.15481446871E+02  0.26866033826E+02  0.00000000000E+00 0.  1.
         -2    1    1    2    0  502  0.18651302902E+02 -0.11586089780E+02  0.18662472641E+02  0.28816600449E+02  0.00000000000E+00 0. -1.
</event>
<event>
 4    1  0.1768739E+004  0.2339501E+02  0.7546771E-02  0.1487597E+00
         21   -1    0    0  503  502  0.00000000000E+00  0.00000000000E+00  0.54704037099E+02  0.54704037099E+02  0.00000000000E+00 0.  1.
         21   -1    0    0  501  503 -0.00000000000E+00 -0.00000000000E+00 -0.10221676413E+02  0.10221676413E+02  0.00000000000E+00 0. -1.
          2    1    1    2  501    0 -0.12205696736E+02  0.19958644849E+02  0.17517291228E+02  0.29226392679E+02  0.00000000000E+00 0.  1.
         -2    1    1    2    0  502  0.12205696736E+02 -0.19958644849E+02  0.26965069458E+02  0.35699320833E+02  0.00000000000E+00 0. -1.
</event>
<event>
 4    1  0.1768739E+004  0.2016581E+02  0.7546771E-02  0.1531516E+00
         21   -1    0    0  501  502  0.00000000000E+00  0.00000000000E+00  0.75146694900E+02  0.75146694900E+02  0.00000000000E+00 0.  1.
         21   -1    0    0  502  503 -0.00000000000E+00 -0.00000000000E+00 -0.67727799304E+01  0.67727799304E+01  0.00000000000E+00 0. -1.
          2    1    1    2  501    0 -0.10765510180E+02 -0.17051790856E+02  0.15824107035E+02  0.25633223447E+02  0.00000000000E+00 0. -1.
         -2    1    1    2    0  503  0.10765510180E+02  0.17051790856E+02  0.52549807935E+02  0.56286251383E+02  0.00000000000E+00 0.  1.
</event>
<event>
 4    1  0.1768739E+004  0.2631471E+02  0.7546771E-02  0.1454616E+00
         21   -1    0    0  503  502  0.00000000000E+00  0.00000000000E+00  0.54199864162E+03  0.54199864162E+03  0.00000000000E+00 0.  1.
         21   -1    0    0  501  503 -0.00000000000E+00 -0.00000000000E+00 -0.24771518562E+01  0.24771518562E+01  0.00000000000E+00 0. -1.
          2    1    1    2  501    0  0.26264455182E+02  0.16255241822E+01  0.80317284524E+02  0.84518223645E+02  0.00000000000E+00 0. -1.
         -2    1    1    2    0  502 -0.26264455182E+02 -0.16255241822E+01  0.45920420524E+03  0.45995756983E+03  0.00000000000E+00 0.  1.
</event>
<event>
 4    1  0.1768739E+004  0.2369425E+02  0.7546771E-02  0.1483960E+00
         21   -1    0    0  501  502  0.00000000000E+00  0.00000000000E+00  0.72725362718E+01  0.72725362718E+01  0.00000000000E+00 0. -1.
         21   -1    0    0  502  503 -0.00000000000E+00 -0.00000000000E+00 -0.56362271259E+03  0.56362271259E+03  0.00000000000E+00 0.  1.
          2    1    1    2  501    0  0.14740052753E+02 -0.18551235304E+02 -0.12995261427E+02  0.27023958001E+02  0.00000000000E+00 0. -1.
         -2    1    1    2    0  503 -0.14740052753E+02  0.18551235304E+02 -0.54335491490E+03  0.54387129087E+03  0.00000000000E+00 0.  1.
</event>
<event>
 4    1  0.1768739E+004  0.2335461E+02  0.7546771E-02  0.1488093E+00
         21   -1    0    0  501  502  0.00000000000E+00  0.00000000000E+00  0.43545397385E+03  0.43545397385E+03  0.00000000000E+00 0.  1.
         21   -1    0    0  502  503 -0.00000000000E+00 -0.00000000000E+00 -0.19251375663E+01  0.19251375663E+01  0.00000000000E+00 0. -1.
          2    1    1    2  501    0 -0.16363594741E+02  0.16663448434E+02  0.34602444923E+03  0.34681170282E+03  0.00000000000E+00 0.  1.
         -2    1    1    2    0  503  0.16363594741E+02 -0.16663448434E+02  0.87504387047E+02  0.90567408592E+02  0.00000000000E+00 0. -1.
</event>
<event>
 4    1  0.1768739E+004  0.2012769E+02  0.7546771E-02  0.1532093E+00
         21   -1    0    0  501  502  0.00000000000E+00  0.00000000000E+00  0.77336079384E+01  0.77336079384E+01  0.00000000000E+00 0.  1.
         21   -1    0    0  502  503 -0.00000000000E+00 -0.00000000000E+00 -0.86508609308E+02  0.86508609308E+02  0.00000000000E+00 0. -1.
          2    1    1    2  501    0 -0.12539781414E+02 -0.15744137032E+02 -0.97927826877E+01  0.22383533268E+02  0.00000000000E+00 0.  1.
         -2    1    1    2    0  503  0.12539781414E+02  0.15744137032E+02 -0.68982218682E+02  0.71858683979E+02  0.00000000000E+00 0. -1.
</event>
<event>
 4    1  0.1768739E+004  0.2108068E+02  0.7546771E-02  0.1518116E+00
         21   -1    0    0  501  502  0.00000000000E+00  0.00000000000E+00  0.76054487982E+00  0.76054487982E+00  0.00000000000E+00 0. -1.
         21   -1    0    0  502  503 -0.00000000000E+00 -0.00000000000E+00 -0.99605884561E+03  0.99605884561E+03  0.00000000000E+00 0.  1.
          2    1    1    2  501    0 -0.18093391368E+02  0.10817782618E+02 -0.17719986340E+03  0.17844939569E+03  0.00000000000E+00 0. -1.
         -2    1    1    2    0  503  0.18093391368E+02 -0.10817782618E+02 -0.81809843733E+03  0.81836999481E+03  0.00000000000E+00 0.  1.
</event>
<event>
 4    1  0.1768739E+004  0.2017557E+02  0.7546771E-02  0.1531369E+00
         21   -1    0    0  501  502  0.00000000000E+00  0.00000000000E+00  0.30850569025E+01  0.30850569025E+01  0.00000000000E+00 0. -1.
         21   -1    0    0  502  503 -0.00000000000E+00 -0.00000000000E+00 -0.17506761994E+03  0.17506761994E+03  0.00000000000E+00 0.  1.
          2    1    1    2  501    0  0.16159762356E+02 -0.12079557353E+02 -0.41781447928E+02  0.46397661754E+02  0.00000000000E+00 0. -1.
         -2    1    1    2    0  503 -0.16159762356E+02  0.12079557353E+02 -0.13020111511E+03  0.13175501509E+03  0.00000000000E+00 0.  1.
</event>
<event>
 4    1  0.1768739E+004  0.2023964E+02  0.7546771E-02  0.1530403E+00
         21   -1    0    0  503  502  0.00000000000E+00  0.00000000000E+00  0.38815532444E+03  0.38815532444E+03  0.00000000000E+00 0. -1.
         21   -1    0    0  501  503 -0.00000000000E+00 -0.00000000000E+00 -0.23800558579E+01  0.23800558579E+01  0.00000000000E+00 0.  1.
          2    1    1    2  501    0  0.65291110718E+01 -0.19157605119E+02  0.47209253681E+02  0.51364937053E+02  0.00000000000E+00 0.  1.
         -2    1    1    2    0  502 -0.65291110718E+01  0.19157605119E+02  0.33856601490E+03  0.33917044324E+03  0.00000000000E+00 0. -1.
</event>
<event>
 4    1  0.1768739E+004  0.3208211E+02  0.7546771E-02  0.1402326E+00
         21   -1    0    0  503  502  0.00000000000E+00  0.00000000000E+00  0.22712014885E+01  0.22712014885E+01  0.00000000000E+00 0.  1.
         21   -1    0    0  501  503 -0.00000000000E+00 -0.00000000000E+00 -0.51766310112E+03  0.51766310112E+03  0.00000000000E+00 0. -1.
          2    1    1    2  501    0 -0.15618720769E+02  0.28023513558E+02 -0.16594304663E+03  0.16901584682E+03  0.00000000000E+00 0.  1.
         -2    1    1    2    0  502  0.15618720769E+02 -0.28023513558E+02 -0.34944885300E+03  0.35091845579E+03  0.00000000000E+00 0. -1.
</event>
<event>
 4    1  0.1768739E+004  0.2005135E+02  0.7546771E-02  0.1533252E+00
         21   -1    0    0  501  502  0.00000000000E+00  0.00000000000E+00  0.16535179375E+03  0.16535179375E+03  0.00000000000E+00 0. -1.
         21   -1    0    0  502  503 -0.00000000000E+00 -0.00000000000E+00 -0.40416883613E+01  0.40416883613E+01  0.00000000000E+00 0.  1.
          2    1    1    2  501    0  0.17203716603E+02 -0.10299944732E+02  0.13411401173E+03  0.13560466389E+03  0.00000000000E+00 0. -1.
         -2    1    1    2    0  503 -0.17203716603E+02  0.10299944732E+02  0.27196093655E+02  0.33788818218E+02  0.00000000000E+00 0.  1.
</event>
<event>
 4    1  0.1768739E+004  0.3576616E+02  0.7546771E-02  0.1375255E+00
         21   -1    0    0  501  502  0.00000000000E+00  0.00000000000E+00  0.10825156337E+03  0.10825156337E+03  0.00000000000E+00 0. -1.
         21   -1    0    0  502  503 -0.00000000000E+00 -0.00000000000E+00 -0.19768349355E+02  0.19768349355E+02  0.00000000000E+00 0.  1.
          2    1    1    2  501    0 -0.17789715994E+01 -0.35721889592E+02  0.84837338433E+02  0.92068410046E+02  0.00000000000E+00 0. -1.
         -2    1    1    2    0  503  0.17789715994E+01  0.35721889592E+02  0.36458755797E+01  0.35951502677E+02  0.00000000000E+00 0.  1.
</event>
<event>
 4    1  0.1768739E+004  0.2003949E+02  0.7546771E-02  0.1533433E+00
         21   -1    0    0  503  502  0.00000000000E+00  0.00000000000E+00  0.28310982195E+03  0.28310982195E+03  0.00000000000E+00 0.  1.
         21   -1    0    0  501  503 -0.00000000000E+00 -0.00000000000E+00 -0.17588746760E+01  0.17588746760E+01  0.00000000000E+00 0. -1.
          2    1    1    2  501    0  0.11248104409E+02  0.16584971789E+02  0.78014266841E+02  0.80546924043E+02  0.00000000000E+00 0. -1.
         -2    1    1    2    0  502 -0.11248104409E+02 -0.16584971789E+02  0.20333668044E+03  0.20432177259E+03  0.00000000000E+00 0.  1.
</event>
<event>
 4    1  0.1768739E+004  0.2576852E+02  0.7546771E-02  0.1460387E+00
         21   -1    0    0  501  502  0.00000000000E+00  0.00000000000E+00  0.14008053266E+03  0.14008053266E+03  0.00000000000E+00 0.  1.
         21   -1    0    0  502  503 -0.00000000000E+00 -0.00000000000E+00 -0.19673745013E+02  0.19673745013E+02  0.00000000000E+00 0. -1.
          2    1    1    2  501    0  0.11358001029E+02 -0.23130338395E+02  0.12979545700E+03  0.13232867187E+03  0.00000000000E+00 0.  1.
         -2    1    1    2    0  503 -0.11358001029E+02  0.23130338395E+02 -0.93886693486E+01  0.27425605805E+02  0.00000000000E+00 0. -1.
</event>
<event>
 4    1  0.1768739E+004  0.3258084E+02  0.7546771E-02  0.1398418E+00
         21   -1    0    0  501  502  0.00000000000E+00  0.00000000000E+00  0.59668967614E+03  0.59668967614E+03  0.00000000000E+00 0.  1.
         21   -1    0    0  502  503 -0.00000000000E+00 -0.00000000000E+00 -0.30440920603E+01  0.30440920603E+01  0.00000000000E+00 0. -1.
          2    1    1    2  501    0 -0.17378586343E+02  0.27558955603E+02  0.49013557645E+03  0.49121725804E+03  0.00000000000E+00 0.  1.
         -2    1    1    2    0  503  0.17378586343E+02 -0.27558955603E+02  0.10351000762E+03  0.10851651015E+03  0.00000000000E+00 0. -1.
</event>
<event>
 4    1  0.1768739E+004  0.3784224E+02  0.7546771E-02  0.1361616E+00
         21   -1    0    0  503  502  0.00000000000E+00  0.00000000000E+00  0.44590411144E+01  0.44590411144E+01  0.00000000000E+00 0.  1.
         21   -1    0    0  501  503 -0.00000000000E+00 -0.00000000000E+00 -0.34629844531E+03  0.34629844531E+03  0.00000000000E+00 0. -1.
          2    1    1    2  501    0  0.37354561453E+02  0.60556997298E+01 -0.21817828667E+03  0.22143576842E+03  0.00000000000E+00 0. -1.
         -2    1    1    2    0  502 -0.37354561453E+02 -0.60556997298E+01 -0.12366111753E+03  0.12932171801E+03  0.00000000000E+00 0.  1.
</event>
<event>
 4    1  0.1768739E+004  0.2321189E+02  0.7546771E-02  0.1489854E+00
         21   -1    0    0  501  502  0.00000000000E+00  0.00000000000E+00  0.15180702994E+02  0.15180702994E+02  0.00000000000E+00 0.  1.
         21   -1    0    0  502  503 -0.00000000000E+00 -0.00000000000E+00 -0.43368248459E+02  0.43368248459E+02  0.00000000000E+00 0. -1.
          2    1    1    2  501    0  0.37327120341E+01 -0.22909794253E+02 -0.26569502928E+02  0.35280735504E+02  0.00000000000E+00 0. -1.
         -2    1    1    2    0  503 -0.37327120341E+01  0.22909794253E+02 -0.16180425374E+01  0.23268215950E+02  0.00000000000E+00 0.  1.
</event>
<event>
 4    1  0.1768739E+004  0.2554202E+02  0.7546771E-02  0.1462830E+00
         21   -1    0    0  501  502  0.00000000000E+00  0.00000000000E+00  0.26983276484E+01  0.26983276484E+01  0.00000000000E+00 0. -1.
         21   -1    0    0  502  503 -0.00000000000E+00 -0.00000000000E+00 -0.24852210401E+03  0.24852210401E+03  0.00000000000E+00 0.  1.
          2    1    1    2  501    0 -0.24469610627E+02  0.73234615734E+01 -0.14360474405E+03  0.14585855287E+03  0.00000000000E+00 0.  1.
         -2    1    1    2    0  503  0.24469610627E+02 -0.73234615734E+01 -0.10221903232E+03  0.10536187879E+03  0.00000000000E+00 0. -1.
</event>
<event>
 4    1  0.1768739E+004  0.2131712E+02  0.7546771E-02  0.1514785E+00
         21   -1    0    0  503  502  0.00000000000E+00  0.00000000000E+00  0.56985655988E+01  0.56985655988E+01  0.00000000000E+00 0. -1.
         21   -1    0    0  501  503 -0.00000000000E+00 -0.00000000000E+00 -0.81258615710E+02  0.81258615710E+02  0.00000000000E+00 0.  1.
          2    1    1    2  501    0  0.15757088430E+02  0.14357363623E+02 -0.43718298615E+02  0.48638558365E+02  0.00000000000E+00 0.  1.
         -2    1    1    2    0  502 -0.15757088430E+02 -0.14357363623E+02 -0.31841751496E+02  0.38318622944E+02  0.00000000000E+00 0. -1.
</event>
<event>
 4    1  0.1768739E+004  0.2067190E+02  0.7546771E-02  0.1524001E+00
         21   -1    0    0  503  502  0.00000000000E+00  0.00000000000E+00  0.68248291908E+02  0.68248291908E+02  0.00000000000E+00 0.  1.
         21   -1    0    0  501  503 -0.00000000000E+00 -0.00000000000E+00 -0.15811194156E+02  0.15811194156E+02  0.00000000000E+00 0. -1.
          2    1    1    2  501    0 -0.53083846105E+01  0.19978699245E+02 -0.64456666018E+01  0.21653498300E+02  0.00000000000E+00 0. -1.
         -2    1    1    2    0  502  0.53083846105E+01 -0.19978699245E+02  0.58882764354E+02  0.62405987763E+02  0.00000000000E+00 0.  1.
</event>
<event>
 4    1  0.1768739E+004  0.3091195E+02  0.7546771E-02  0.1411833E+00
         21   -1    0    0  501  502  0.00000000000E+00  0.00000000000E+00  0.97865361491E+02  0.97865361491E+02  0.00000000000E+00 0. -1.
         21   -1    0    0  502  503 -0.00000000000E+00 -0.00000000000E+00 -0.98223930246E+01  0.98223930246E+01  0.00000000000E+00 0.  1.
          2    1    1    2  501    0  0.10187421169E+02 -0.29185020118E+02  0.48176078671E+02  0.57240575691E+02  0.00000000000E+00 0. -1.
         -2    1    1    2    0  503 -0.10187421169E+02  0.29185020118E+02  0.39866889795E+02  0.50447178824E+02  0.00000000000E+00 0.  1.
</event>
<event>
 4    1  0.1768739E+004  0.3672222E+02  0.7546771E-02  0.1368844E+00
         21   -1    0    0  503  502  0.00000000000E+00  0.00000000000E+00  0.89614374454E+02  0.89614374454E+02  0.00000000000E+00 0.  1.
         21   -1    0    0  501  503 -0.00000000000E+00 -0.00000000000E+00 -0.15049213374E+02  0.15049213374E+02  0.00000000000E+00 0. -1.
          2    1    1    2  501    0  0.69815528420E+01 -0.36052448383E+02  0.36821420775E+02  0.52003251267E+02  0.00000000000E+00 0.  1.
         -2    1    1    2    0  502 -0.69815528420E+01  0.36052448383E+02  0.37743740305E+02  0.52660336561E+02  0.00000000000E+00 0. -1.
</event>
<event>
 4    1  0.1768739E+004  0.3345790E+02  0.7546771E-02  0.1391741E+00
         21   -1    0    0  503  502  0.00000000000E+00  0.00000000000E+00  0.73610476409E+01  0.73610476409E+01  0.00000000000E+00 0. -1.
         21   -1    0    0  501  503 -0.00000000000E+00 -0.00000000000E+00 -0.48137031712E+03  0.48137031712E+03  0.00000000000E+00 0.  1.
          2    1    1    2  501    0  0.27867237106E+02 -0.18516155158E+02 -0.43911722899E+03  0.44039002225E+03  0.00000000000E+00 0.  1.
         -2    1    1    2    0  502 -0.27867237106E+02  0.18516155158E+02 -0.34892040488E+02  0.48341342505E+02  0.00000000000E+00 0. -1.
</event>
<event>
 4    1  0.1768739E+004  0.2594601E+02  0.7546771E-02  0.1458493E+00
         21   -1    0    0  501  502  0.00000000000E+00  0.00000000000E+00  0.53459540301E+02  0.53459540301E+02  0.00000000000E+00 0. -1.
         21   -1    0    0  502  503 -0.00000000000E+00 -0.00000000000E+00 -0.12849764799E+02  0.12849764799E+02  0.00000000000E+00 0.  1.
          2    1    1    2  501    0 -0.64712137656E+01 -0.25126063051E+02  0.24995031440E+02  0.36027034970E+02  0.00000000000E+00 0. -1.
         -2    1    1    2    0  503  0.64712137656E+01  0.25126063051E+02  0.15614744063E+02  0.30282270130E+02  0.00000000000E+00 0.  1.
</event>
<event>
 4    1  0.1768739E+004  0.2100866E+02  0.7546771E-02  0.1519141E+00
         21   -1    0    0  501  502  0.00000000000E+00  0.00000000000E+00  0.44671722326E+02  0.44671722326E+02  0.00000000000E+00 0.  1.
         21   -1    0    0  502  503 -0.00000000000E+00 -0.00000000000E+00 -0.22614452928E+02  0.22614452928E+02  0.00000000000E+00 0. -1.
          2    1    1    2  501    0  0.18225654176E+02  0.10449371710E+02  0.36274496057E+02  0.41919004085E+02  0.00000000000E+00 0.  1.
         -2    1    1    2    0  503 -0.18225654176E+02 -0.10449371710E+02 -0.14217226659E+02  0.25367171170E+02  0.00000000000E+00 0. -1.
</event>
<event>
 4    1  0.1768739E+004  0.2239437E+02  0.7546771E-02  0.1500246E+00
         21   -1    0    0  501  502  0.00000000000E+00  0.00000000000E+00  0.93013832563E+00  0.93013832563E+00  0.00000000000E+00 0.  1.
         21   -1    0    0  502  503 -0.00000000000E+00 -0.00000000000E+00 -0.82176570711E+03  0.82176570711E+03  0.00000000000E+00 0. -1.
          2    1    1    2  501    0 -0.14169527116E+02 -0.17341635976E+02 -0.65163806713E+03  0.65202275909E+03  0.00000000000E+00 0. -1.
         -2    1    1    2    0  503  0.14169527116E+02  0.17341635976E+02 -0.16919750166E+03  0.17067308635E+03  0.00000000000E+00 0.  1.
</event>
<event>
 4    1  0.1768739E+004  0.3673315E+02  0.7546771E-02  0.1368772E+00
         21   -1    0    0  501  502  0.00000000000E+00  0.00000000000E+00  0.12297097430E+02  0.12297097430E+02  0.00000000000E+00 0. -1.
         21   -1    0    0  502  503 -0.00000000000E+00 -0.00000000000E+00 -0.11740390060E+03  0.11740390060E+03  0.00000000000E+00 0.  1.
          2    1    1    2  501    0  0.25263066675E+02 -0.26666497992E+02 -0.69136383162E+02  0.78288978341E+02  0.00000000000E+00 0.  1.
         -2    1    1    2    0  503 -0.25263066675E+02  0.26666497992E+02 -0.35970420006E+02  0.51412019688E+02  0.00000000000E+00 0. -1.
</event>
<event>
 4    1  0.1768739E+004  0.2913268E+02  0.7546771E-02  0.1427286E+00
         21   -1    0    0  501  502  0.00000000000E+00  0.00000000000E+00  0.34239730566E+03  0.34239730566E+03  0.00000000000E+00 0. -1.
         21   -1    0    0  502  503 -0.00000000000E+00 -0.00000000000E+00 -0.33155697185E+01  0.33155697185E+01  0.00000000000E+00 0.  1.
          2    1    1    2  501    0 -0.26271985956E+02  0.12589511483E+02  0.25638203868E+03  0.25803190268E+03  0.00000000000E+00 0. -1.
         -2    1    1    2    0  503  0.26271985956E+02 -0.12589511483E+02  0.82699697268E+02  0.87680972700E+02  0.00000000000E+00 0.  1.
</event>
<event>
 4    1  0.1768739E+004  0.2554873E+02  0.7546771E-02  0.1462757E+00
         21   -1    0    0  501  502  0.00000000000E+00  0.00000000000E+00  0.92073089936E+00  0.92073089936E+00  0.00000000000E+00 0.  1.
         21   -1    0    0  502  503 -0.00000000000E+00 -0.00000000000E+00 -0.80623327585E+03  0.80623327585E+03  0.00000000000E+00 0. -1.
          2    1    1    2  501    0 -0.24701839883E+02  0.65235582106E+01 -0.26245556304E+03  0.26369615142E+03  0.00000000000E+00 0.  1.
         -2    1    1    2    0  503  0.24701839883E+02 -0.65235582106E+01 -0.54285698191E+03  0.54345785532E+03  0.00000000000E+00 0. -1.
</event>
<event>
 4    1  0.1768739E+004  0.2390893E+02  0.7546771E-02  0.1481389E+00
         21   -1    0    0  501  502  0.00000000000E+00  0.00000000000E+00  0.21541340067E+03  0.21541340067E+03  0.00000000000E+00 0. -1.
         21   -1    0    0  502  503 -0.00000000000E+00 -0.00000000000E+00 -0.32244090794E+01  0.32244090794E+01  0.00000000000E+00 0.  1.
          2    1    1    2  501    0 -0.17052682782E+02 -0.16758371114E+02  0.60101955615E+02  0.64682934853E+02  0.00000000000E+00 0.  1.
         -2    1    1    2    0  503  0.17052682782E+02  0.16758371114E+02  0.15208703597E+03  0.15395487489E+03  0.00000000000E+00 0. -1.
</event>
<event>
 4    1  0.1768739E+004  0.2383549E+02  0.7546771E-02  0.1482265E+00
         21   -1    0    0  501  502  0.00000000000E+00  0.00000000000E+00  0.41069549291E+02  0.41069549291E+02  0.00000000000E+00 0. -1.
         21   -1    0    0  502  503 -0.00000000000E+00 -0.00000000000E+00 -0.22458621728E+02  0.22458621728E+02  0.00000000000E+00 0.  1.
          2    1    1    2  501    0  0.11884340000E+02 -0.20661393346E+02  0.28990237429E+02  0.37530848358E+02  0.00000000000E+00 0. -1.
         -2    1    1    2    0  503 -0.11884340000E+02  0.20661393346E+02 -0.10379309867E+02  0.25997322661E+02  0.00000000000E+00 0.  1.
</event>
<event>
 4    1  0.1768739E+004  0.2248055E+02  0.7546771E-02  0.1499126E+00
         21   -1    0    0  501  502  0.00000000000E+00  0.00000000000E+00  0.10137345081E+02  0.10137345081E+02  0.00000000000E+00 0.  1.
         21   -1    0    0  502  503 -0.00000000000E+00 -0.00000000000E+00 -0.55665121689E+02  0.55665121689E+02  0.00000000000E+00 0. -1.
          2    1    1    2  501    0  0.13413361202E+02  0.18040417311E+02 -0.12132355926E+02  0.25545429646E+02  0.00000000000E+00 0. -1.
         -2    1    1    2    0  503 -0.13413361202E+02 -0.18040417311E+02 -0.33395420681E+02  0.40257037124E+02  0.00000000000E+00 0.  1.
</event>
<event>
 4    1  0.1768739E+004  0.3562792E+02  0.7546771E-02  0.1376202E+00
         21   -1    0    0  501  502  0.00000000000E+00  0.00000000000E+00  0.12270461929E+02  0.12270461929E+02  0.00000000000E+00 0.  1.
         21   -1    0    0  502  503 -0.00000000000E+00 -0.00000000000E+00 -0.13349921552E+03  0.13349921552E+03  0.00000000000E+00 0. -1.
          2    1    1    2  501    0  0.81627095990E+01 -0.34680234094E+02 -0.26033773913E+02  0.44126022356E+02  0.00000000000E+00 0.  1.
         -2    1    1    2    0  503 -0.81627095990E+01  0.34680234094E+02 -0.95194979681E+02  0.10164365510E+03  0.00000000000E+00 0. -1.
</event>
<event>
 4    1  0.1768739E+004  0.2070202E+02  0.7546771E-02  0.1523562E+00
         21   -1    0    0  503  502  0.00000000000E+00  0.00000000000E+00  0.17264561411E+03  0.17264561411E+03  0.00000000000E+00 0. -1.
         21   -1    0    0  501  503 -0.00000000000E+00 -0.00000000000E+00 -0.57091401815E+01  0.57091401815E+01  0.00000000000E+00 0.  1.
          2    1    1    2  501    0 -0.20693103345E+02  0.60737874706E+00  0.16425438464E+02  0.26426661986E+02  0.00000000000E+00 0. -1.
         -2    1    1    2    0  502  0.20693103345E+02 -0.60737874706E+00  0.15051103546E+03  0.15192809230E+03  0.00000000000E+00 0.  1.
</event>
<event>
 4    1  0.1768739E+004  0.2044202E+02  0.7546771E-02  0.1527383E+00
         21   -1    0    0  503  502  0.00000000000E+00  0.00000000000E+00  0.15558174199E+01  0.15558174199E+01  0.00000000000E+00 0. -1.
         21   -1    0    0  501  503 -0.00000000000E+00 -0.00000000000E+00 -0.45132487529E+03  0.45132487529E+03  0.00000000000E+00 0.  1.
          2    1    1    2  501    0  0.14372807797E+02 -0.14536107153E+02 -0.36897015188E+03  0.36953599148E+03  0.00000000000E+00 0.  1.
         -2    1    1    2    0  502 -0.14372807797E+02  0.14536107153E+02 -0.80798905984E+02  0.83344701232E+02  0.00000000000E+00 0. -1.
</event>
<event>
 4    1  0.1768739E+004  0.4143570E+02  0.7546771E-02  0.1340272E+00
         21   -1    0    0  503  502  0.00000000000E+00  0.00000000000E+00  0.21740383280E+03  0.21740383280E+03  0.00000000000E+00 0.  1.
         21   -1    0    0  501  503 -0.00000000000E+00 -0.00000000000E+00 -0.79976336664E+01  0.79976336664E+01  0.00000000000E+00 0. -1.
          2    1    1    2  501    0 -0.33434284898E+02 -0.24475824352E+02  0.92083982708E+02  0.10097711253E+03  0.00000000000E+00 0. -1.
         -2    1    1    2    0  502  0.33434284898E+02  0.24475824352E+02  0.11732221643E+03  0.12442435393E+03  0.00000000000E+00 0.  1.
</event>
<event>
 4    1  0.1768739E+004  0.2107644E+02  0.7546771E-02  0.1518176E+00
         21   -1    0    0  503  502  0.00000000000E+00  0.00000000000E+00  0.56696939753E+02  0.56696939753E+02  0.00000000000E+00 0. -1.
         21   -1    0    0  501  503 -0.00000000000E+00 -0.00000000000E+00 -0.87376592914E+01  0.87376592914E+01  0.00000000000E+00 0.  1.
          2    1    1    2  501    0  0.10394936552E+02  0.18334715333E+02  0.13463438059E+02  0.25009611285E+02  0.00000000000E+00 0.  1.
         -2    1    1    2    0  502 -0.10394936552E+02 -0.18334715333E+02  0.34495842403E+02  0.40424987759E+02  0.00000000000E+00 0. -1.
</event>
<event>
 4    1  0.1768739E+004  0.2672720E+02  0.7546771E-02  0.1450368E+00
         21   -1    0    0  501  502  0.00000000000E+00  0.00000000000E+00  0.64625395928E+02  0.64625395928E+02  0.00000000000E+00 0.  1.
         21   -1    0    0  502  503 -0.00000000000E+00 -0.00000000000E+00 -0.11075232831E+02  0.11075232831E+02  0.00000000000E+00 0. -1.
          2    1    1    2  501    0 -0.26661064272E+02  0.18790197115E+01  0.25102131943E+02  0.36666880032E+02  0.00000000000E+00 0. -1.
         -2    1    1    2    0  503  0.26661064272E+02 -0.18790197115E+01  0.28448031154E+02  0.39033748727E+02  0.00000000000E+00 0.  1.
</event>
<event>
 4    1  0.1768739E+004  0.3768510E+02  0.7546771E-02  0.1362612E+00
         21   -1    0    0  501  502  0.00000000000E+00  0.00000000000E+00  0.88704471406E+02  0.88704471406E+02  0.00000000000E+00 0.  1.
         21   -1    0    0  502  503 -0.00000000000E+00 -0.00000000000E+00 -0.26144774614E+02  0.26144774614E+02  0.00000000000E+00 0. -1.
          2    1    1    2  501    0  0.21723036672E+02  0.30794095202E+02  0.67032710053E+02  0.76899615334E+02  0.00000000000E+00 0.  1.
         -2    1    1    2    0  503 -0.21723036672E+02 -0.30794095202E+02 -0.44730132605E+01  0.37949630686E+02  0.00000000000E+00 0. -1.
</event>
<event>
 4    1  0.1768739E+004  0.2580740E+02  0.7546771E-02  0.1459970E+00
         21   -1    0    0  503  502  0.00000000000E+00  0.00000000000E+00  0.54338241818E+02  0.54338241818E+02  0.00000000000E+00 0.  1.
         21   -1    0    0  501  503 -0.00000000000E+00 -0.00000000000E+00 -0.21858347135E+02  0.21858347135E+02  0.00000000000E+00 0. -1.
          2    1    1    2  501    0 -0.19835754570E+01 -0.25731060376E+02 -0.90101877490E+01  0.27335060325E+02  0.00000000000E+00 0. -1.
         -2    1    1    2    0  502  0.19835754570E+01  0.25731060376E+02  0.41490082431E+02  0.48861528628E+02  0.00000000000E+00 0.  1.
</event>
<event>
 4    1  0.1768739E+004  0.4248432E+02  0.7546771E-02  0.1334512E+00
         21   -1    0    0  503  502  0.00000000000E+00  0.00000000000E+00  0.13944535970E+03  0.13944535970E+03  0.00000000000E+00 0.  1.
         21   -1    0    0  501  503 -0.00000000000E+00 -0.00000000000E+00 -0.12973280270E+02  0.12973280270E+02  0.00000000000E+00 0. -1.
          2    1    1    2  501    0  0.16146919635E+02 -0.39296240359E+02  0.66884477923E+02  0.79236676527E+02  0.00000000000E+00 0.  1.
         -2    1    1    2    0  502 -0.16146919635E+02  0.39296240359E+02  0.59587601505E+02  0.73181963441E+02  0.00000000000E+00 0. -1.
</event>
<event>
 4    1  0.1768739E+004  0.2321260E+02  0.7546771E-02  0.1489846E+00
         21   -1    0    0  503  502  0.00000000000E+00  0.00000000000E+00  0.31756410282E+02  0.31756410282E+02  0.00000000000E+00 0.  1.
         21   -1    0    0  501  503 -0.00000000000E+00 -0.00000000000E+00 -0.31721395827E+02  0.31721395827E+02  0.00000000000E+00 0. -1.
          2    1    1    2  501    0  0.14223812111E+02 -0.18344155641E+02 -0.21628114178E+02  0.31726963297E+02  0.00000000000E+00 0. -1.
         -2    1    1    2    0  502 -0.14223812111E+02  0.18344155641E+02  0.21663128632E+02  0.31750842812E+02  0.00000000000E+00 0.  1.
</event>
<event>
 4    1  0.1768739E+004  0.2037730E+02  0.7546771E-02  0.1528344E+00
         21   -1    0    0  501  502  0.00000000000E+00  0.00000000000E+00  0.37958683419E+02  0.37958683419E+02  0.00000000000E+00 0.  1.
         21   -1    0    0  502  503 -0.00000000000E+00 -0.00000000000E+00 -0.22908928930E+03  0.22908928930E+03  0.00000000000E+00 0. -1.
          2    1    1    2  501    0 -0.76152443027E+00  0.20363061188E+02  0.34731777698E+02  0.40268232671E+02  0.00000000000E+00 0.  1.
         -2    1    1    2    0  503  0.76152443027E+00 -0.20363061188E+02 -0.22586238358E+03  0.22677974005E+03  0.00000000000E+00 0. -1.
</event>
<event>
 4    1  0.1768739E+004  0.2112869E+02  0.7546771E-02  0.1517435E+00
         21   -1    0    0  503  502  0.00000000000E+00  0.00000000000E+00  0.26469557858E+02  0.26469557858E+02  0.00000000000E+00 0.  1.
         21   -1    0    0  501  503 -0.00000000000E+00 -0.00000000000E+00 -0.33504528859E+02  0.33504528859E+02  0.00000000000E+00 0. -1.
          2    1    1    2  501    0  0.16915851068E+02  0.12660000748E+02 -0.24649758792E+02  0.32465862761E+02  0.00000000000E+00 0. -1.
         -2    1    1    2    0  502 -0.16915851068E+02 -0.12660000748E+02  0.17614787791E+02  0.27508223956E+02  0.00000000000E+00 0.  1.
</event>
<event>
 4    1  0.1768739E+004  0.2027639E+02  0.7546771E-02  0.1529852E+00
         21   -1    0    0  503  502  0.00000000000E+00  0.00000000000E+00  0.17166100781E+03  0.17166100781E+03  0.00000000000E+00 0. -1.
         21   -1    0    0  501  503 -0.00000000000E+00 -0.00000000000E+00 -0.51469510348E+01  0.51469510348E+01  0.00000000000E+00 0.  1.
          2    1    1    2  501    0  0.17401327723E+02  0.10407963430E+02  0.18614936396E+02  0.27525402201E+02  0.00000000000E+00 0.  1.
         -2    1    1    2    0  502 -0.17401327723E+02 -0.10407963430E+02  0.14789912038E+03  0.14928255665E+03  0.00000000000E+00 0. -1.
</event>
<event>
 4    1  0.1768739E+004  0.2131000E+02  0.7546771E-02  0.1514885E+00
         21   -1    0    0  501  502  0.00000000000E+00  0.00000000000E+00  0.90241864933E+02  0.90241864933E+02  0.00000000000E+00 0. -1.
         21   -1    0    0  502  503 -0.00000000000E+00 -0.00000000000E+00 -0.16334879710E+02  0.16334879710E+02  0.00000000000E+00 0.  1.
          2    1    1    2  501    0  0.20869319246E+02 -0.43113121450E+01  0.81280154588E+02  0.84027254079E+02  0.00000000000E+00 0. -1.
         -2    1    1    2    0  503 -0.20869319246E+02  0.43113121450E+01 -0.73731693654E+01  0.22549490564E+02  0.00000000000E+00 0.  1.
</event>
<event>
 4    1  0.1768739E+004  0.2399228E+02  0.7546771E-02  0.1480400E+00
         21   -1    0    0  503  502  0.00000000000E+00  0.00000000000E+00  0.44405117262E+02  0.44405117262E+02  0.00000000000E+00 0. -1.
         21   -1    0    0  501  503 -0.00000000000E+00 -0.00000000000E+00 -0.20223895863E+02  0.20223895863E+02  0.00000000000E+00 0.  1.
          2    1    1    2  501    0  0.17134022956E+00  0.23991670527E+02 -0.72716529592E+01  0.25070032886E+02  0.00000000000E+00 0.  1.
         -2    1    1    2    0  502 -0.17134022956E+00 -0.23991670527E+02  0.31452874359E+02  0.39558980239E+02  0.00000000000E+00 0. -1.
</event>
<event>
 4    1  0.1768739E+004  0.7124531E+02  0.7546771E-02  0.1225775E+00
         21   -1    0    0  501  502  0.00000000000E+00  0.00000000000E+00  0.10761066909E+03  0.10761066909E+03  0.00000000000E+00 0.  1.
         21   -1    0    0  502  503 -0.00000000000E+00 -0.00000000000E+00 -0.60716990073E+02  0.60716990073E+02  0.00000000000E+00 0. -1.
          2    1    1    2  501    0  0.58906080835E+02  0.40074523788E+02  0.63203224521E+02  0.95239389992E+02  0.00000000000E+00 0.  1.
         -2    1    1    2    0  503 -0.58906080835E+02 -0.40074523788E+02 -0.16309545503E+02  0.73088269173E+02  0.00000000000E+00 0. -1.
</event>
<event>
 4    1  0.1768739E+004  0.5812754E+02  0.7546771E-02  0.1266331E+00
         21   -1    0    0  501  502  0.00000000000E+00  0.00000000000E+00  0.13268993718E+03  0.13268993718E+03  0.00000000000E+00 0.  1.
         21   -1    0    0  502  503 -0.00000000000E+00 -0.00000000000E+00 -0.44757789089E+02  0.44757789089E+02  0.00000000000E+00 0. -1.
          2    1    1    2  501    0 -0.46445284175E+02 -0.34952053950E+02  0.10221868666E+03  0.11759026490E+03  0.00000000000E+00 0.  1.
         -2    1    1    2    0  503  0.46445284175E+02  0.34952053950E+02 -0.14286538566E+02  0.59857461370E+02  0.00000000000E+00 0. -1.
</event>
<event>
 4    1  0.1768739E+004  0.2441695E+02  0.7546771E-02  0.1475433E+00
         21   -1    0    0  503  502  0.00000000000E+00  0.00000000000E+00  0.29083851230E+01  0.29083851230E+01  0.00000000000E+00 0. -1.
         21   -1    0    0  501  503 -0.00000000000E+00 -0.00000000000E+00 -0.20511544630E+03  0.20511544630E+03  0.00000000000E+00 0.  1.
          2    1    1    2  501    0 -0.20651098933E+02  0.13027640629E+02 -0.98522278046E+02  0.10150284025E+03  0.00000000000E+00 0.  1.
         -2    1    1    2    0  502  0.20651098933E+02 -0.13027640629E+02 -0.10368478313E+03  0.10652099117E+03  0.00000000000E+00 0. -1.
</event>
<event>
 4    1  0.1768739E+004  0.2537497E+02  0.7546771E-02  0.1464652E+00
         21   -1    0    0  501  502  0.00000000000E+00  0.00000000000E+00  0.50480309280E+02  0.50480309280E+02  0.00000000000E+00 0. -1.
         21   -1    0    0  502  503 -0.00000000000E+00 -0.00000000000E+00 -0.22726572526E+02  0.22726572526E+02  0.00000000000E+00 0.  1.
          2    1    1    2  501    0 -0.59733086012E+01 -0.24661884275E+02  0.38122378676E+02  0.45795247653E+02  0.00000000000E+00 0. -1.
         -2    1    1    2    0  503  0.59733086012E+01  0.24661884275E+02 -0.10368641922E+02  0.27411634153E+02  0.00000000000E+00 0.  1.
</event>
<event>
 4    1  0.1768739E+004  0.2062029E+02  0.7546771E-02  0.1524756E+00
         21   -1    0    0  503  502  0.00000000000E+00  0.00000000000E+00  0.13558498087E+02  0.13558498087E+02  0.00000000000E+00 0.  1.
         21   -1    0    0  501  503 -0.00000000000E+00 -0.00000000000E+00 -0.37558403086E+02  0.37558403086E+02  0.00000000000E+00 0. -1.
          2    1    1    2  501    0 -0.20122593164E+02 -0.45030654671E+01 -0.22382790539E+02  0.30433298648E+02  0.00000000000E+00 0. -1.
         -2    1    1    2    0  502  0.20122593164E+02  0.45030654671E+01 -0.16171144594E+01  0.20683602525E+02  0.00000000000E+00 0.  1.
</event>
<event>
 4    1  0.1768739E+004  0.2399164E+02  0.7546771E-02  0.1480408E+00
         21   -1    0    0  501  502  0.00000000000E+00  0.00000000000E+00  0.85831638366E+01  0.85831638366E+01  0.00000000000E+00 0.  1.
         21   -1    0    0  502  503 -0.00000000000E+00 -0.00000000000E+00 -0.15405196000E+03  0.15405196000E+03  0.00000000000E+00 0. -1.
          2    1    1    2  501    0  0.90705435650E+01  0.22210903253E+02 -0.11627984086E+02  0.26661001440E+02  0.00000000000E+00 0.  1.
         -2    1    1    2    0  503 -0.90705435650E+01 -0.22210903253E+02 -0.13384081208E+03  0.13597412240E+03  0.00000000000E+00 0. -1.
</event>
<event>
 4    1  0.1768739E+004  0.2339770E+02  0.7546771E-02  0.1487564E+00
         21   -1    0    0  501  502  0.00000000000E+00  0.00000000000E+00  0.98299916400E+01  0.98299916400E+01  0.00000000000E+00 0.  1.
         21   -1    0    0  502  503 -0.00000000000E+00 -0.00000000000E+00 -0.15968349947E+03  0.15968349947E+03  0.00000000000E+00 0. -1.
          2    1    1    2  501    0 -0.22221130648E+01 -0.23291943376E+02 -0.65288076228E+01  0.24291515837E+02  0.00000000000E+00 0.  1.
         -2    1    1    2    0  503  0.22221130648E+01  0.23291943376E+02 -0.14332470021E+03  0.14522197528E+03  0.00000000000E+00 0. -1.
</event>
<event>
 4    1  0.1768739E+004  0.2026287E+02  0.7546771E-02  0.1530055E+00
         21   -1    0    0  501  502  0.00000000000E+00  0.00000000000E+00  0.18004688300E+02  0.18004688300E+02  0.00000000000E+00 0.  1.
         21   -1    0    0  502  503 -0.00000000000E+00 -0.00000000000E+00 -0.25195733421E+02  0.25195733421E+02  0.00000000000E+00 0. -1.
          2    1    1    2  501    0 -0.17005737025E+02 -0.11017651105E+02 -0.10250193567E+02  0.22707932442E+02  0.00000000000E+00 0. -1.
         -2    1    1    2    0  503  0.17005737025E+02  0.11017651105E+02  0.30591484456E+01  0.20492489279E+02  0.00000000000E+00 0.  1.
</event>
<event>
 4    1  0.1768739E+004  0.2441647E+02  0.7546771E-02  0.1475438E+00
         21   -1    0    0  501  502  0.00000000000E+00  0.00000000000E+00  0.11586310875E+02  0.11586310875E+02  0.00000000000E+00 0. -1.
         21   -1    0    0  502  503 -0.00000000000E+00 -0.00000000000E+00 -0.51539640081E+02  0.51539640081E+02  0.00000000000E+00 0.  1.
          2    1    1    2  501    0  0.14628980187E+02  0.19548836841E+02 -0.18691383429E+02  0.30749502396E+02  0.00000000000E+00 0. -1.
         -2    1    1    2    0  503 -0.14628980187E+02 -0.19548836841E+02 -0.21261945777E+02  0.32376448560E+02  0.00000000000E+00 0.  1.
</event>
<event>
 4    1  0.1768739E+004  0.2354250E+02  0.7546771E-02  0.1485796E+00
         21   -1    0    0  501  502  0.00000000000E+00  0.00000000000E+00  0.40369531515E+03  0.40369531515E+03  0.00000000000E+00 0. -1.
         21   -1    0    0  502  503 -0.00000000000E+00 -0.00000000000E+00 -0.44482814655E+01  0.44482814655E+01  0.00000000000E+00 0.  1.
          2    1    1    2  501    0  0.23271154801E+02 -0.35641023162E+01  0.36930463969E+03  0.37005427489E+03  0.00000000000E+00 0. -1.
         -2    1    1    2    0  503 -0.23271154801E+02  0.35641023162E+01  0.29942393997E+02  0.38089321723E+02  0.00000000000E+00 0.  1.
</event>
<event>
 4    1  0.1768739E+004  0.3452856E+02  0.7546771E-02  0.1383908E+00
         21   -1    0    0  501  502  0.00000000000E+00  0.00000000000E+00  0.52988047916E+02  0.52988047916E+02  0.00000000000E+00 0. -1.
         21   -1    0    0  502  503 -0.00000000000E+00 -0.00000000000E+00 -0.39426415106E+02  0.39426415106E+02  0.00000000000E+00 0.  1.
          2    1    1    2  501    0  0.18204915722E+02  0.29339439689E+02  0.37056996033E+02  0.50650198743E+02  0.00000000000E+00 0. -1.
         -2    1    1    2    0  503 -0.18204915722E+02 -0.29339439689E+02 -0.23495363224E+02  0.41764264278E+02  0.00000000000E+00 0.  1.
</event>
<event>
 4    1  0.1768739E+004  0.4216075E+02  0.7546771E-02  0.1336269E+00
         21   -1    0    0  503  502  0.00000000000E+00  0.00000000000E+00  0.18266241659E+03  0.18266241659E+03  0.00000000000E+00 0. -1.
         21   -1    0    0  501  503 -0.00000000000E+00 -0.00000000000E+00 -0.28335473967E+02  0.28335473967E+02  0.00000000000E+00 0.  1.
          2    1    1    2  501    0  0.94617168265E+01  0.41085333967E+02 -0.83213422870E+01  0.42974102549E+02  0.00000000000E+00 0.  1.
         -2    1    1    2    0  502 -0.94617168265E+01 -0.41085333967E+02  0.16264828491E+03  0.16802378800E+03  0.00000000000E+00 0. -1.
</event>
<event>
 4    1  0.1768739E+004  0.2016028E+02  0.7546771E-02  0.1531600E+00
         21   -1    0    0  503  502  0.00000000000E+00  0.00000000000E+00  0.18403839682E+01  0.18403839682E+01  0.00000000000E+00 0. -1.
         21   -1    0    0  501  503 -0.00000000000E+00 -0.00000000000E+00 -0.55194078602E+03  0.55194078602E+03  0.00000000000E+00 0.  1.
          2    1    1    2  501    0 -0.20159619417E+02 -0.16274335145E+00 -0.48950698541E+03  0.48992195859E+03  0.00000000000E+00 0.  1.
         -2    1    1    2    0  502  0.20159619417E+02  0.16274335145E+00 -0.60593416639E+02  0.63859211398E+02  0.00000000000E+00 0. -1.
</event>
<event>
 4    1  0.1768739E+004  0.2838741E+02  0.7546771E-02  0.1434148E+00
         21   -1    0    0  503  502  0.00000000000E+00  0.00000000000E+00  0.20355393163E+01  0.20355393163E+01  0.00000000000E+00 0.  1.
         21   -1    0    0  501  503 -0.00000000000E+00 -0.00000000000E+00 -0.53135018382E+03  0.53135018382E+03  0.00000000000E+00 0. -1.
          2    1    1    2  501    0 -0.80586371990E+01  0.27219545266E+02 -0.39931473160E+03  0.40032249518E+03  0.00000000000E+00 0. -1.
         -2    1    1    2    0  502  0.80586371990E+01 -0.27219545266E+02 -0.12999991290E+03  0.13306322795E+03  0.00000000000E+00 0.  1.
</event>
<event>
 4    1  0.1768739E+004  0.3989597E+02  0.7546771E-02  0.1349096E+00
         21   -1    0    0  501  502  0.00000000000E+00  0.00000000000E+00  0.16855463552E+03  0.16855463552E+03  0.00000000000E+00 0.  1.
         21   -1    0    0  502  503 -0.00000000000E+00 -0.00000000000E+00 -0.95460201943E+01  0.95460201943E+01  0.00000000000E+00 0. -1.
          2    1    1    2  501    0  0.34249748611E+02 -0.20460777462E+02  0.88747973392E+02  0.97303090781E+02  0.00000000000E+00 0. -1.
         -2    1    1    2    0  503 -0.34249748611E+02  0.20460777462E+02  0.70260641934E+02  0.80797564934E+02  0.00000000000E+00 0.  1.
</event>
<event>
 4    1  0.1768739E+004  0.3346351E+02  0.7546771E-02  0.1391699E+00
         21   -1    0    0  503  502  0.00000000000E+00  0.00000000000E+00  0.11146882037E+03  0.11146882037E+03  0.00000000000E+00 0. -1.
         21   -1    0    0  501  503 -0.00000000000E+00 -0.00000000000E+00 -0.15453184127E+02  0.15453184127E+02  0.00000000000E+00 0.  1.
          2    1    1    2  501    0  0.25358129875E+02 -0.21835109647E+02  0.10468467068E+02  0.35062737583E+02  0.00000000000E+00 0.  1.
         -2    1    1    2    0  502 -0.25358129875E+02  0.21835109647E+02  0.85547169174E+02  0.91859266912E+02  0.00000000000E+00 0. -1.
</event>
<event>
 4    1  0.1768739E+004  0.2286646E+02  0.7546771E-02  0.1494182E+00
         21   -1    0    0  501  502  0.00000000000E+00  0.00000000000E+00  0.69594625623E+00  0.69594625623E+00  0.00000000000E+00 0. -1.
         21   -1    0    0  502  503 -0.00000000000E+00 -0.00000000000E+00 -0.78078464857E+03  0.78078464857E+03  0.00000000000E+00 0.  1.
          2    1    1    2  501    0 -0.21938378870E+02  0.64484411131E+01 -0.31413241616E+03  0.31496356892E+03  0.00000000000E+00 0. -1.
         -2    1    1    2    0  503  0.21938378870E+02 -0.64484411131E+01 -0.46595628615E+03  0.46651702591E+03  0.00000000000E+00 0.  1.
</event>
<event>
 4    1  0.1768739E+004  0.2282379E+02  0.7546771E-02  0.1494723E+00
         21   -1    0    0  503  502  0.00000000000E+00  0.00000000000E+00  0.18670246519E+03  0.18670246519E+03  0.00000000000E+00 0. -1.
         21   -1    0    0  501  503 -0.00000000000E+00 -0.00000000000E+00 -0.72187253999E+01  0.72187253999E+01  0.00000000000E+00 0.  1.
          2    1    1    2  501    0 -0.17845496170E+02 -0.14228968407E+02  0.13797126519E+02  0.26669945176E+02  0.00000000000E+00 0.  1.
         -2    1    1    2    0  502  0.17845496170E+02  0.14228968407E+02  0.16568661327E+03  0.16725124541E+03  0.00000000000E+00 0. -1.
</event>
<event>
 4    1  0.1768739E+004  0.3929027E+02  0.7546771E-02  0.1352696E+00
         21   -1    0    0  501  502  0.00000000000E+00  0.00000000000E+00  0.98681119270E+01  0.98681119270E+01  0.00000000000E+00 0. -1.
         21   -1    0    0  502  503 -0.00000000000E+00 -0.00000000000E+00 -0.20323535869E+03  0.20323535869E+03  0.00000000000E+00 0.  1.
          2    1    1    2  501    0  0.30062145541E+02  0.25298070923E+02 -0.45552864273E+02  0.60156366499E+02  0.00000000000E+00 0. -1.
         -2    1    1    2    0  503 -0.30062145541E+02 -0.25298070923E+02 -0.14781438249E+03  0.15294710411E+03  0.00000000000E+00 0.  1.
</event>
<event>
 4    1  0.1768739E+004  0.2094387E+02  0.7546771E-02  0.1520068E+00
         21   -1    0    0  501  502  0.00000000000E+00  0.00000000000E+00  0.55642638335E+01  0.55642638335E+01  0.00000000000E+00 0.  1.
         21   -1    0    0  502  503 -0.00000000000E+00 -0.00000000000E+00 -0.79514473394E+02  0.79514473394E+02  0.00000000000E+00 0. -1.
          2    1    1    2  501    0  0.20748239005E+02  0.28559541931E+01 -0.33036063186E+02  0.39115564255E+02  0.00000000000E+00 0. -1.
         -2    1    1    2    0  503 -0.20748239005E+02 -0.28559541931E+01 -0.40914146374E+02  0.45963172972E+02  0.00000000000E+00 0.  1.
</event>
<event>
 4    1  0.1768739E+004  0.4746384E+02  0.7546771E-02  0.1309559E+00
         21   -1    0    0  503  502  0.00000000000E+00  0.00000000000E+00  0.15470223578E+02  0.15470223578E+02  0.00000000000E+00 0.  1.
         21   -1    0    0  501  503 -0.00000000000E+00 -0.00000000000E+00 -0.14562414880E+03  0.14562414880E+03  0.00000000000E+00 0. -1.
          2    1    1    2  501    0 -0.35516995041E+02  0.31485854253E+02 -0.64824195490E+02  0.80342966561E+02  0.00000000000E+00 0. -1.
         -2    1    1    2    0  502  0.35516995041E+02 -0.31485854253E+02 -0.65329729730E+02  0.80751405816E+02  0.00000000000E+00 0.  1.
</event>
<event>
 4    1  0.1768739E+004  0.3044405E+02  0.7546771E-02  0.1415776E+00
         21   -1    0    0  501  502  0.00000000000E+00  0.00000000000E+00  0.16391449538E+03  0.16391449538E+03  0.00000000000E+00 0. -1.
         21   -1    0    0  502  503 -0.00000000000E+00 -0.00000000000E+00 -0.36114223848E+02  0.36114223848E+02  0.00000000000E+00 0.  1.
          2    1    1    2  501    0 -0.95458731251E+01  0.28908759315E+02  0.15575175678E+03  0.15869924322E+03  0.00000000000E+00 0. -1.
         -2    1    1    2    0  503  0.95458731251E+01 -0.28908759315E+02 -0.27951485253E+02  0.41329476003E+02  0.00000000000E+00 0.  1.
</event>
<event>
 4    1  0.1768739E+004  0.2497222E+02  0.7546771E-02  0.1469114E+00
         21   -1    0    0  501  502  0.00000000000E+00  0.00000000000E+00  0.81216271819E+01  0.81216271819E+01  0.00000000000E+00 0. -1.
         21   -1    0    0  502  503 -0.00000000000E+00 -0.00000000000E+00 -0.10845648536E+03  0.10845648536E+03  0.00000000000E+00 0.  1.
          2    1    1    2  501    0 -0.16885478432E+02 -0.18398156036E+02 -0.18668201406E+02  0.31178731070E+02  0.00000000000E+00 0.  1.
         -2    1    1    2    0  503  0.16885478432E+02  0.18398156036E+02 -0.81666656768E+02  0.85399381468E+02  0.00000000000E+00 0. -1.
</event>
<event>
 4    1  0.1768739E+004  0.3475386E+02  0.7546771E-02  0.1382302E+00
         21   -1    0    0  503  502  0.00000000000E+00  0.00000000000E+00  0.97608237851E+01  0.97608237851E+01  0.00000000000E+00 0. -1.
         21   -1    0    0  501  503 -0.00000000000E+00 -0.00000000000E+00 -0.10328708809E+04  0.10328708809E+04  0.00000000000E+00 0.  1.
          2    1    1    2  501    0 -0.13066704499E+02 -0.32203917361E+02 -0.10006469230E+04  0.10012502662E+04  0.00000000000E+00 0.  1.
         -2    1    1    2    0  502  0.13066704499E+02  0.32203917361E+02 -0.22463134200E+02  0.41381438568E+02  0.00000000000E+00 0. -1.
</event>
<event>
 4    1  0.1768739E+004  0.2028005E+02  0.7546771E-02  0.1529797E+00
         21   -1    0    0  501  502  0.00000000000E+00  0.00000000000E+00  0.65072239070E+01  0.65072239070E+01  0.00000000000E+00 0. -1.
         21   -1    0    0  502  503 -0.00000000000E+00 -0.00000000000E+00 -0.65521530723E+02  0.65521530723E+02  0.00000000000E+00 0.  1.
          2    1    1    2  501    0 -0.15673647316E+02 -0.12869238739E+02 -0.36280857413E+02  0.41564180980E+02  0.00000000000E+00 0. -1.
         -2    1    1    2    0  503  0.15673647316E+02  0.12869238739E+02 -0.22733449403E+02  0.30464573650E+02  0.00000000000E+00 0.  1.
</event>
<event>
 4    1  0.1768739E+004  0.2712796E+02  0.7546771E-02  0.1446327E+00
         21   -1    0    0  503  502  0.00000000000E+00  0.00000000000E+00  0.20207056613E+02  0.20207056613E+02  0.00000000000E+00 0. -1.
         21   -1    0    0  501  503 -0.00000000000E+00 -0.00000000000E+00 -0.62546129258E+02  0.62546129258E+02  0.00000000000E+00 0.  1.
          2    1    1    2  501    0  0.26155029050E+02  0.72000316898E+01 -0.47911802879E+02  0.55058758214E+02  0.00000000000E+00 0.  1.
         -2    1    1    2    0  502 -0.26155029050E+02 -0.72000316898E+01  0.55727302351E+01  0.27694427657E+02  0.00000000000E+00 0. -1.
</event>
<event>
 4    1  0.1768739E+004  0.2040580E+02  0.7546771E-02  0.1527920E+00
         21   -1    0    0  501  502  0.00000000000E+00  0.00000000000E+00  0.55928224417E+01  0.55928224417E+01  0.00000000000E+00 0. -1.
         21   -1    0    0  502  503 -0.00000000000E+00 -0.00000000000E+00 -0.20359683922E+03  0.20359683922E+03  0.00000000000E+00 0.  1.
          2    1    1    2  501    0  0.18854486040E+02  0.78041757362E+01 -0.15698510400E+02  0.25745679862E+02  0.00000000000E+00 0. -1.
         -2    1    1    2    0  503 -0.18854486040E+02 -0.78041757362E+01 -0.18230550638E+03  0.18344398180E+03  0.00000000000E+00 0.  1.
</event>
<event>
 4    1  0.1768739E+004  0.2405158E+02  0.7546771E-02  0.1479699E+00
         21   -1    0    0  503  502  0.00000000000E+00  0.00000000000E+00  0.91081754420E+01  0.91081754420E+01  0.00000000000E+00 0.  1.
         21   -1    0    0  501  503 -0.00000000000E+00 -0.00000000000E+00 -0.15124553232E+03  0.15124553232E+03  0.00000000000E+00 0. -1.
          2    1    1    2  501    0 -0.10798451269E+02  0.21491203674E+02 -0.13213342450E+03  0.13430458017E+03  0.00000000000E+00 0. -1.
         -2    1    1    2    0  502  0.10798451269E+02 -0.21491203674E+02 -0.10003932378E+02  0.26049127590E+02  0.00000000000E+00 0.  1.
</event>
<event>
 4    1  0.1768739E+004  0.3660558E+02  0.7546771E-02  0.1369614E+00
         21   -1    0    0  503  502  0.00000000000E+00  0.00000000000E+00  0.72493690540E+03  0.72493690540E+03  0.00000000000E+00 0. -1.
         21   -1    0    0  501  503 -0.00000000000E+00 -0.00000000000E+00 -0.19664586382E+01  0.19664586382E+01  0.00000000000E+00 0.  1.
          2    1    1    2  501    0 -0.11968349076E+02 -0.34593745153E+02  0.27242878568E+03  0.27487708499E+03  0.00000000000E+00 0.  1.
         -2    1    1    2    0  502  0.11968349076E+02  0.34593745153E+02  0.45054166108E+03  0.45202627905E+03  0.00000000000E+00 0. -1.
</event>
<event>
 4    1  0.1768739E+004  0.3796984E+02  0.7546771E-02  0.1360811E+00
         21   -1    0    0  503  502  0.00000000000E+00  0.00000000000E+00  0.36720324629E+01  0.36720324629E+01  0.00000000000E+00 0.  1.
         21   -1    0    0  501  503 -0.00000000000E+00 -0.00000000000E+00 -0.52835939938E+03  0.52835939938E+03  0.00000000000E+00 0. -1.
          2    1    1    2  501    0  0.27769861415E+02 -0.25894849984E+02 -0.39717714499E+03  0.39898796092E+03  0.00000000000E+00 0. -1.
         -2    1    1    2    0  502 -0.27769861415E+02  0.25894849984E+02 -0.12751022193E+03  0.13304347093E+03  0.00000000000E+00 0.  1.
</event>
<event>
 4    1  0.1768739E+004  0.2980053E+02  0.7546771E-02  0.1421338E+00
         21   -1    0    0  501  502  0.00000000000E+00  0.00000000000E+00  0.10298024094E+02  0.10298024094E+02  0.00000000000E+00 0.  1.
         21   -1    0    0  502  503 -0.00000000000E+00 -0.00000000000E+00 -0.88360358115E+02  0.88360358115E+02  0.00000000000E+00 0. -1.
          2    1    1    2  501    0 -0.79979645976E+00 -0.29789795988E+02 -0.31384401179E+02  0.43278773743E+02  0.00000000000E+00 0.  1.
         -2    1    1    2    0  503  0.79979645976E+00  0.29789795988E+02 -0.46677932843E+02  0.55379608466E+02  0.00000000000E+00 0. -1.
</event>
<event>
 4    1  0.1768739E+004  0.2540681E+02  0.7546771E-02  0.1464304E+00
         21   -1    0    0  503  502  0.00000000000E+00  0.00000000000E+00  0.51397759349E+02  0.51397759349E+02  0.00000000000E+00 0. -1.
         21   -1    0    0  501  503 -0.00000000000E+00 -0.00000000000E+00 -0.15434927608E+02  0.15434927608E+02  0.00000000000E+00 0.  1.
          2    1    1    2  501    0 -0.21941303272E+02 -0.12809572546E+02  0.35571595613E+01  0.25654616002E+02  0.00000000000E+00 0.  1.
         -2    1    1    2    0  502  0.21941303272E+02  0.12809572546E+02  0.32405672180E+02  0.41178070954E+02  0.00000000000E+00 0. -1.
</event>
<event>
 4    1  0.1768739E+004  0.2012188E+02  0.7546771E-02  0.1532181E+00
         21   -1    0    0  501  502  0.00000000000E+00  0.00000000000E+00  0.27966965436E+03  0.27966965436E+03  0.00000000000E+00 0. -1.
         21   -1    0    0  502  503 -0.00000000000E+00 -0.00000000000E+00 -0.23016040476E+02  0.23016040476E+02  0.00000000000E+00 0.  1.
          2    1    1    2  501    0 -0.14354237869E+02  0.14101268020E+02  0.27483250715E+03  0.27556813475E+03  0.00000000000E+00 0. -1.
         -2    1    1    2    0  503  0.14354237869E+02 -0.14101268020E+02 -0.18178893265E+02  0.27117560084E+02  0.00000000000E+00 0.  1.
</event>
<event>
 4    1  0.1768739E+004  0.2295147E+02  0.7546771E-02  0.1493108E+00
         21   -1    0    0  501  502  0.00000000000E+00  0.00000000000E+00  0.40739725580E+01  0.40739725580E+01  0.00000000000E+00 0.  1.
         21   -1    0    0  502  503 -0.00000000000E+00 -0.00000000000E+00 -0.20158974529E+03  0.20158974529E+03  0.00000000000E+00 0. -1.
          2    1    1    2  501    0  0.21293096951E+02  0.85658649696E+01 -0.37179563349E+02  0.43693133915E+02  0.00000000000E+00 0.  1.
         -2    1    1    2    0  503 -0.21293096951E+02 -0.85658649696E+01 -0.16033620939E+03  0.16197058394E+03  0.00000000000E+00 0. -1.
</event>
<event>
 4    1  0.1768739E+004  0.2233909E+02  0.7546771E-02  0.1500968E+00
         21   -1    0    0  503  502  0.00000000000E+00  0.00000000000E+00  0.68157080110E+01  0.68157080110E+01  0.00000000000E+00 0.  1.
         21   -1    0    0  501  503 -0.00000000000E+00 -0.00000000000E+00 -0.81386696276E+02  0.81386696276E+02  0.00000000000E+00 0. -1.
          2    1    1    2  501    0 -0.94741709346E+01 -0.20230548589E+02 -0.51256907238E+02  0.55913375418E+02  0.00000000000E+00 0.  1.
         -2    1    1    2    0  502  0.94741709346E+01  0.20230548589E+02 -0.23314081027E+02  0.32289028868E+02  0.00000000000E+00 0. -1.
</event>
<event>
 4    1  0.1768739E+004  0.3743527E+02  0.7546771E-02  0.1364208E+00
         21   -1    0    0  501  502  0.00000000000E+00  0.00000000000E+00  0.72952043634E+02  0.72952043634E+02  0.00000000000E+00 0. -1.
         21   -1    0    0  502  503 -0.00000000000E+00 -0.00000000000E+00 -0.20050452904E+02  0.20050452904E+02  0.00000000000E+00 0.  1.
          2    1    1    2  501    0 -0.36893067557E+02  0.63482930515E+01  0.16929569869E+02  0.41085393930E+02  0.00000000000E+00 0.  1.
         -2    1    1    2    0  503  0.36893067557E+02 -0.63482930515E+01  0.35972020861E+02  0.51917102608E+02  0.00000000000E+00 0. -1.
</event>
<event>
 4    1  0.1768739E+004  0.2409559E+02  0.7546771E-02  0.1479181E+00
         21   -1    0    0  501  502  0.00000000000E+00  0.00000000000E+00  0.34989061685E+02  0.34989061685E+02  0.00000000000E+00 0. -1.
         21   -1    0    0  502  503 -0.00000000000E+00 -0.00000000000E+00 -0.19271178781E+02  0.19271178781E+02  0.00000000000E+00 0.  1.
          2    1    1    2  501    0 -0.20911915059E+02 -0.11970350994E+02  0.17971516383E+02  0.30059489275E+02  0.00000000000E+00 0. -1.
         -2    1    1    2    0  503  0.20911915059E+02  0.11970350994E+02 -0.22536334790E+01  0.24200751191E+02  0.00000000000E+00 0.  1.
</event>
<event>
 4    1  0.1768739E+004  0.2210008E+02  0.7546771E-02  0.1504119E+00
         21   -1    0    0  503  502  0.00000000000E+00  0.00000000000E+00  0.29394042701E+01  0.29394042701E+01  0.00000000000E+00 0.  1.
         21   -1    0    0  501  503 -0.00000000000E+00 -0.00000000000E+00 -0.18329343155E+03  0.18329343155E+03  0.00000000000E+00 0. -1.
          2    1    1    2  501    0  0.98802446081E+01 -0.19768519634E+02 -0.61708450356E+02  0.65546521245E+02  0.00000000000E+00 0.  1.
         -2    1    1    2    0  502 -0.98802446081E+01  0.19768519634E+02 -0.11864557692E+03  0.12068631457E+03  0.00000000000E+00 0. -1.
</event>
<event>
 4    1  0.1768739E+004  0.2249733E+02  0.7546771E-02  0.1498908E+00
         21   -1    0    0  503  502  0.00000000000E+00  0.00000000000E+00  0.41434867447E+01  0.41434867447E+01  0.00000000000E+00 0. -1.
         21   -1    0    0  501  503 -0.00000000000E+00 -0.00000000000E+00 -0.13521961852E+03  0.13521961852E+03  0.00000000000E+00 0.  1.
          2    1    1    2  501    0 -0.22375831173E+02 -0.23349863921E+01 -0.87200990371E+02  0.90056330725E+02  0.00000000000E+00 0. -1.
         -2    1    1    2    0  502  0.22375831173E+02  0.23349863921E+01 -0.43875141402E+02  0.49306774536E+02  0.00000000000E+00 0.  1.
</event>
<event>
 4    1  0.1768739E+004  0.2137286E+02  0.7546771E-02  0.1514007E+00
         21   -1    0    0  501  502  0.00000000000E+00  0.00000000000E+00  0.35608637576E+01  0.35608637576E+01  0.00000000000E+00 0.  1.
         21   -1    0    0  502  503 -0.00000000000E+00 -0.00000000000E+00 -0.33855809828E+03  0.33855809828E+03  0.00000000000E+00 0. -1.
          2    1    1    2  501    0  0.21361452727E+02  0.69811316118E+00 -0.32687951097E+02  0.39055104295E+02  0.00000000000E+00 0.  1.
         -2    1    1    2    0  503 -0.21361452727E+02 -0.69811316118E+00 -0.30230928343E+03  0.30306385775E+03  0.00000000000E+00 0. -1.
</event>
<event>
 4    1  0.1768739E+004  0.2283312E+02  0.7546771E-02  0.1494604E+00
         21   -1    0    0  501  502  0.00000000000E+00  0.00000000000E+00  0.22389566824E+01  0.22389566824E+01  0.00000000000E+00 0.  1.
         21   -1    0    0  502  503 -0.00000000000E+00 -0.00000000000E+00 -0.23357677342E+03  0.23357677342E+03  0.00000000000E+00 0. -1.
          2    1    1    2  501    0 -0.10422521169E+02  0.20315572439E+02 -0.12222491701E+03  0.12433938140E+03  0.00000000000E+00 0. -1.
         -2    1    1    2    0  503  0.10422521169E+02 -0.20315572439E+02 -0.10911289974E+03  0.11147634870E+03  0.00000000000E+00 0.  1.
</event>
<event>
 4    1  0.1768739E+004  0.2817061E+02  0.7546771E-02  0.1436191E+00
         21   -1    0    0  503  502  0.00000000000E+00  0.00000000000E+00  0.28603395880E+03  0.28603395880E+03  0.00000000000E+00 0. -1.
         21   -1    0    0  501  503 -0.00000000000E+00 -0.00000000000E+00 -0.33977114970E+01  0.33977114970E+01  0.00000000000E+00 0.  1.
          2    1    1    2  501    0 -0.28067397190E+02  0.24093058110E+01  0.79336625613E+02  0.84189570038E+02  0.00000000000E+00 0.  1.
         -2    1    1    2    0  502  0.28067397190E+02 -0.24093058110E+01  0.20329962169E+03  0.20524210026E+03  0.00000000000E+00 0. -1.
</event>
<event>
 4    1  0.1768739E+004  0.2906958E+02  0.7546771E-02  0.1427858E+00
         21   -1    0    0  503  502  0.00000000000E+00  0.00000000000E+00  0.18414119704E+02  0.18414119704E+02  0.00000000000E+00 0. -1.
         21   -1    0    0  501  503 -0.00000000000E+00 -0.00000000000E+00 -0.27540395076E+03  0.27540395076E+03  0.00000000000E+00 0.  1.
          2    1    1    2  501    0 -0.26305623484E+02 -0.12371519888E+02 -0.26260675724E+03  0.26421080462E+03  0.00000000000E+00 0.  1.
         -2    1    1    2    0  502  0.26305623484E+02  0.12371519888E+02  0.56169261795E+01  0.29607265846E+02  0.00000000000E+00 0. -1.
</event>
<event>
 4    1  0.1768739E+004  0.2164775E+02  0.7546771E-02  0.1510214E+00
         21   -1    0    0  503  502  0.00000000000E+00  0.00000000000E+00  0.53030242050E+02  0.53030242050E+02  0.00000000000E+00 0.  1.
         21   -1    0    0  501  503 -0.00000000000E+00 -0.00000000000E+00 -0.13421779008E+02  0.13421779008E+02  0.00000000000E+00 0. -1.
          2    1    1    2  501    0 -0.21629012429E+02 -0.90051026684E+00  0.38485981188E+00  0.21651171203E+02  0.00000000000E+00 0. -1.
         -2    1    1    2    0  502  0.21629012429E+02  0.90051026684E+00  0.39223603230E+02  0.44800849855E+02  0.00000000000E+00 0.  1.
</event>
<event>
 4    1  0.1768739E+004  0.2227280E+02  0.7546771E-02  0.1501837E+00
         21   -1    0    0  501  502  0.00000000000E+00  0.00000000000E+00  0.15535833310E+02  0.15535833310E+02  0.00000000000E+00 0.  1.
         21   -1    0    0  502  503 -0.00000000000E+00 -0.00000000000E+00 -0.72008426762E+02  0.72008426762E+02  0.00000000000E+00 0. -1.
          2    1    1    2  501    0  0.21430103090E+02 -0.60686428019E+01  0.44190929191E+01  0.22706962063E+02  0.00000000000E+00 0.  1.
         -2    1    1    2    0  503 -0.21430103090E+02  0.60686428019E+01 -0.60891686371E+02  0.64837298008E+02  0.00000000000E+00 0. -1.
</event>
<event>
 4    1  0.1768739E+004  0.3612014E+02  0.7546771E-02  0.1372855E+00
         21   -1    0    0  503  502  0.00000000000E+00  0.00000000000E+00  0.22161187077E+03  0.22161187077E+03  0.00000000000E+00 0.  1.
         21   -1    0    0  501  503 -0.00000000000E+00 -0.00000000000E+00 -0.59498927215E+01  0.59498927215E+01  0.00000000000E+00 0. -1.
          2    1    1    2  501    0 -0.17189556249E+01 -0.36079218505E+02  0.96147905226E+02  0.10270873622E+03  0.00000000000E+00 0. -1.
         -2    1    1    2    0  502  0.17189556249E+01  0.36079218505E+02  0.11951407282E+03  0.12485302727E+03  0.00000000000E+00 0.  1.
</event>
<event>
 4    1  0.1768739E+004  0.2640270E+02  0.7546771E-02  0.1453702E+00
         21   -1    0    0  503  502  0.00000000000E+00  0.00000000000E+00  0.29051488747E+02  0.29051488747E+02  0.00000000000E+00 0.  1.
         21   -1    0    0  501  503 -0.00000000000E+00 -0.00000000000E+00 -0.24052783039E+02  0.24052783039E+02  0.00000000000E+00 0. -1.
          2    1    1    2  501    0  0.62442992690E+01  0.25653677487E+02  0.37961233312E+01  0.26674200912E+02  0.00000000000E+00 0.  1.
         -2    1    1    2    0  502 -0.62442992690E+01 -0.25653677487E+02  0.12025823766E+01  0.26430070873E+02  0.00000000000E+00 0. -1.
</event>
<event>
 4    1  0.1768739E+004  0.2362831E+02  0.7546771E-02  0.1484756E+00
         21   -1    0    0  501  502  0.00000000000E+00  0.00000000000E+00  0.13960429383E+03  0.13960429383E+03  0.00000000000E+00 0.  1.
         21   -1    0    0  502  503 -0.00000000000E+00 -0.00000000000E+00 -0.56323694571E+01  0.56323694571E+01  0.00000000000E+00 0. -1.
          2    1    1    2  501    0 -0.67245921045E+01  0.22651203114E+02  0.10609024068E+03  0.10868963294E+03  0.00000000000E+00 0. -1.
         -2    1    1    2    0  503  0.67245921045E+01 -0.22651203114E+02  0.27881683692E+02  0.36547030344E+02  0.00000000000E+00 0.  1.
</event>
<event>
 4    1  0.1768739E+004  0.3843376E+02  0.7546771E-02  0.1357917E+00
         21   -1    0    0  503  502  0.00000000000E+00  0.00000000000E+00  0.56822947471E+02  0.56822947471E+02  0.00000000000E+00 0. -1.
         21   -1    0    0  501  503 -0.00000000000E+00 -0.00000000000E+00 -0.11340185725E+03  0.11340185725E+03  0.00000000000E+00 0.  1.
          2    1    1    2  501    0 -0.26014338077E+02 -0.28291486428E+02 -0.10301235253E+03  0.10994861875E+03  0.00000000000E+00 0.  1.
         -2    1    1    2    0  502  0.26014338077E+02  0.28291486428E+02  0.46433442752E+02  0.60276185975E+02  0.00000000000E+00 0. -1.
</event>
<event>
 4    1  0.1768739E+004  0.2826151E+02  0.7546771E-02  0.1435332E+00
         21   -1    0    0  501  502  0.00000000000E+00  0.00000000000E+00  0.26691979952E+03  0.26691979952E+03  0.00000000000E+00 0. -1.
         21   -1    0    0  502  503 -0.00000000000E+00 -0.00000000000E+00 -0.59382035757E+01  0.59382035757E+01  0.00000000000E+00 0.  1.
          2    1    1    2  501    0  0.27745264538E+02  0.53771213234E+01  0.22658251020E+03  0.22833822954E+03  0.00000000000E+00 0. -1.
         -2    1    1    2    0  503 -0.27745264538E+02 -0.53771213234E+01  0.34399085746E+02  0.44519773563E+02  0.00000000000E+00 0.  1.
</event>
<event>
 4    1  0.1768739E+004  0.2459844E+02  0.7546771E-02  0.1473346E+00
         21   -1    0    0  503  502  0.00000000000E+00  0.00000000000E+00  0.69131496708E+02  0.69131496708E+02  0.00000000000E+00 0.  1.
         21   -1    0    0  501  503 -0.00000000000E+00 -0.00000000000E+00 -0.19692701680E+02  0.19692701680E+02  0.00000000000E+00 0. -1.
          2    1    1    2  501    0  0.45448697430E+01  0.24174935986E+02 -0.83829244637E+01  0.25987627700E+02  0.00000000000E+00 0. -1.
         -2    1    1    2    0  502 -0.45448697430E+01 -0.24174935986E+02  0.57821719492E+02  0.62836570688E+02  0.00000000000E+00 0.  1.
</event>
<event>
 4    1  0.1768739E+004  0.2532410E+02  0.7546771E-02  0.1465210E+00
         21   -1    0    0  503  502  0.00000000000E+00  0.00000000000E+00  0.45236175006E+01  0.45236175006E+01  0.00000000000E+00 0. -1.
         21   -1    0    0  501  503 -0.00000000000E+00 -0.00000000000E+00 -0.38741420945E+03  0.38741420945E+03  0.00000000000E+00 0.  1.
          2    1    1    2  501    0  0.22688600193E+02 -0.11248885690E+02 -0.34749153704E+03  0.34841308576E+03  0.00000000000E+00 0.  1.
         -2    1    1    2    0  502 -0.22688600193E+02  0.11248885690E+02 -0.35399054905E+02  0.43524741196E+02  0.00000000000E+00 0. -1.
</event>
<event>
 4    1  0.1768739E+004  0.3803583E+02  0.7546771E-02  0.1360397E+00
         21   -1    0    0  503  502  0.00000000000E+00  0.00000000000E+00  0.13816587949E+02  0.13816587949E+02  0.00000000000E+00 0.  1.
         21   -1    0    0  501  503 -0.00000000000E+00 -0.00000000000E+00 -0.19934716964E+03  0.19934716964E+03  0.00000000000E+00 0. -1.
          2    1    1    2  501    0  0.10064181299E+02 -0.36680197753E+02 -0.16620161194E+03  0.17049838845E+03  0.00000000000E+00 0. -1.
         -2    1    1    2    0  502 -0.10064181299E+02  0.36680197753E+02 -0.19328969756E+02  0.42665369145E+02  0.00000000000E+00 0.  1.
</event>
<event>
 4    1  0.1768739E+004  0.2568351E+02  0.7546771E-02  0.1461300E+00
         21   -1    0    0  503  502  0.00000000000E+00  0.00000000000E+00  0.11208155907E+02  0.11208155907E+02  0.00000000000E+00 0. -1.
         21   -1    0    0  501  503 -0.00000000000E+00 -0.00000000000E+00 -0.14757499987E+03  0.14757499987E+03  0.00000000000E+00 0.  1.
          2    1    1    2  501    0  0.20369125636E+02 -0.15644217870E+02 -0.12974102251E+03  0.13225874547E+03  0.00000000000E+00 0.  1.
         -2    1    1    2    0  502 -0.20369125636E+02  0.15644217870E+02 -0.66258214492E+01  0.26524410301E+02  0.00000000000E+00 0. -1.
</event>
<event>
 4    1  0.1768739E+004  0.2645500E+02  0.7546771E-02  0.1453161E+00
         21   -1    0    0  503  502  0.00000000000E+00  0.00000000000E+00  0.51088677700E+02  0.51088677700E+02  0.00000000000E+00 0.  1.
         21   -1    0    0  501  503 -0.00000000000E+00 -0.00000000000E+00 -0.99804515941E+02  0.99804515941E+02  0.00000000000E+00 0. -1.
          2    1    1    2  501    0  0.55873578582E+00  0.26449098327E+02 -0.94435626870E+02  0.98071171148E+02  0.00000000000E+00 0. -1.
         -2    1    1    2    0  502 -0.55873578582E+00 -0.26449098327E+02  0.45719788629E+02  0.52822022494E+02  0.00000000000E+00 0.  1.
</event>
<event>
 4    1  0.1768739E+004  0.2256394E+02  0.7546771E-02  0.1498048E+00
         21   -1    0    0  503  502  0.00000000000E+00  0.00000000000E+00  0.10403319151E+02  0.10403319151E+02  0.00000000000E+00 0.  1.
         21   -1    0    0  501  503 -0.00000000000E+00 -0.00000000000E+00 -0.50416375183E+02  0.50416375183E+02  0.00000000000E+00 0. -1.
          2    1    1    2  501    0  0.20864538890E+02 -0.85908220013E+01 -0.14801428475E+02  0.26985431081E+02  0.00000000000E+00 0.  1.
         -2    1    1    2    0  502 -0.20864538890E+02  0.85908220013E+01 -0.25211627557E+02  0.33834263252E+02  0.00000000000E+00 0. -1.
</event>
<event>
 4    1  0.1768739E+004  0.3077675E+02  0.7546771E-02  0.1412964E+00
         21   -1    0    0  503  502  0.00000000000E+00  0.00000000000E+00  0.40398295283E+02  0.40398295283E+02  0.00000000000E+00 0.  1.
         21   -1    0    0  501  503 -0.00000000000E+00 -0.00000000000E+00 -0.24414680775E+02  0.24414680775E+02  0.00000000000E+00 0. -1.
          2    1    1    2  501    0 -0.29430124624E+02  0.90042334553E+01  0.15392760095E+01  0.30815220689E+02  0.00000000000E+00 0.  1.
         -2    1    1    2    0  502  0.29430124624E+02 -0.90042334553E+01  0.14444338499E+02  0.33997755369E+02  0.00000000000E+00 0. -1.
</event>
<event>
 4    1  0.1768739E+004  0.5262116E+02  0.7546771E-02  0.1287191E+00
         21   -1    0    0  503  502  0.00000000000E+00  0.00000000000E+00  0.86990225503E+01  0.86990225503E+01  0.00000000000E+00 0. -1.
         21   -1    0    0  501  503 -0.00000000000E+00 -0.00000000000E+00 -0.38939079448E+03  0.38939079448E+03  0.00000000000E+00 0.  1.
          2    1    1    2  501    0 -0.41259617689E+02 -0.32659304186E+02 -0.27538804009E+03  0.28037039577E+03  0.00000000000E+00 0.  1.
         -2    1    1    2    0  502  0.41259617689E+02  0.32659304186E+02 -0.10530373184E+03  0.11771942126E+03  0.00000000000E+00 0. -1.
</event>
<event>
 4    1  0.1768739E+004  0.2484535E+02  0.7546771E-02  0.1470541E+00
         21   -1    0    0  503  502  0.00000000000E+00  0.00000000000E+00  0.14531562696E+02  0.14531562696E+02  0.00000000000E+00 0. -1.
         21   -1    0    0  501  503 -0.00000000000E+00 -0.00000000000E+00 -0.13107194516E+03  0.13107194516E+03  0.00000000000E+00 0.  1.
          2    1    1    2  501    0 -0.24282103644E+02  0.52602931582E+01 -0.11812316021E+03  0.12070779684E+03  0.00000000000E+00 0.  1.
         -2    1    1    2    0  502  0.24282103644E+02 -0.52602931582E+01  0.15827777431E+01  0.24895711013E+02  0.00000000000E+00 0. -1.
</event>
<event>
 4    1  0.1768739E+004  0.2240365E+02  0.7546771E-02  0.1500125E+00
         21   -1    0    0  503  502  0.00000000000E+00  0.00000000000E+00  0.32384220781E+01  0.32384220781E+01  0.00000000000E+00 0. -1.
         21   -1    0    0  501  503 -0.00000000000E+00 -0.00000000000E+00 -0.82765618940E+03  0.82765618940E+03  0.00000000000E+00 0.  1.
          2    1    1    2  501    0  0.18010151200E+02 -0.13325096716E+02 -0.78674240336E+03  0.78706132734E+03  0.00000000000E+00 0.  1.
         -2    1    1    2    0  502 -0.18010151200E+02  0.13325096716E+02 -0.37675363965E+02  0.43833284141E+02  0.00000000000E+00 0. -1.
</event>
<event>
 4    1  0.1768739E+004  0.2344474E+02  0.7546771E-02  0.1486988E+00
         21   -1    0    0  501  502  0.00000000000E+00  0.00000000000E+00  0.49458178776E+01  0.49458178776E+01  0.00000000000E+00 0. -1.
         21   -1    0    0  502  503 -0.00000000000E+00 -0.00000000000E+00 -0.17954753603E+03  0.17954753603E+03  0.00000000000E+00 0.  1.
          2    1    1    2  501    0 -0.82719983950E+01  0.21936948721E+02 -0.30359551721E+02  0.38358285380E+02  0.00000000000E+00 0. -1.
         -2    1    1    2    0  503  0.82719983950E+01 -0.21936948721E+02 -0.14424216643E+03  0.14613506853E+03  0.00000000000E+00 0.  1.
</event>
<event>
 4    1  0.1768739E+004  0.2284356E+02  0.7546771E-02  0.1494472E+00
         21   -1    0    0  501  502  0.00000000000E+00  0.00000000000E+00  0.87020778782E+02  0.87020778782E+02  0.00000000000E+00 0.  1.
         21   -1    0    0  502  503 -0.00000000000E+00 -0.00000000000E+00 -0.60344208022E+01  0.60344208022E+01  0.00000000000E+00 0. -1.
          2    1    1    2  501    0  0.19601239326E+02  0.11731141849E+02  0.44176954687E+02  0.49733606320E+02  0.00000000000E+00 0.  1.
         -2    1    1    2    0  503 -0.19601239326E+02 -0.11731141849E+02  0.36809403293E+02  0.43321593264E+02  0.00000000000E+00 0. -1.
</event>
<event>
 4    1  0.1768739E+004  0.9015143E+02  0.7546771E-02  0.1182063E+00
         21   -1    0    0  501  502  0.00000000000E+00  0.00000000000E+00  0.46941680265E+03  0.46941680265E+03  0.00000000000E+00 0.  1.
         21   -1    0    0  502  503 -0.00000000000E+00 -0.00000000000E+00 -0.52633074235E+02  0.52633074235E+02  0.00000000000E+00 0. -1.
          2    1    1    2  501    0 -0.48847196907E+02  0.75770910055E+02  0.42221758698E+03  0.43173483785E+03  0.00000000000E+00 0.  1.
         -2    1    1    2    0  503  0.48847196907E+02 -0.75770910055E+02 -0.54338585704E+01  0.90315039031E+02  0.00000000000E+00 0. -1.
</event>
<event>
 4    1  0.1768739E+004  0.3054784E+02  0.7546771E-02  0.1414894E+00
         21   -1    0    0  501  502  0.00000000000E+00  0.00000000000E+00  0.54397988892E+01  0.54397988892E+01  0.00000000000E+00 0.  1.
         21   -1    0    0  502  503 -0.00000000000E+00 -0.00000000000E+00 -0.17908486165E+03  0.17908486165E+03  0.00000000000E+00 0. -1.
          2    1    1    2  501    0 -0.30356848733E+02 -0.34105905735E+01 -0.67891416989E+02  0.74447396824E+02  0.00000000000E+00 0. -1.
         -2    1    1    2    0  503  0.30356848733E+02  0.34105905735E+01 -0.10575364577E+03  0.11007726372E+03  0.00000000000E+00 0.  1.
</event>
<event>
 4    1  0.1768739E+004  0.2784653E+02  0.7546771E-02  0.1439285E+00
         21   -1    0    0  501  502  0.00000000000E+00  0.00000000000E+00  0.85274442144E+02  0.85274442144E+02  0.00000000000E+00 0. -1.
         21   -1    0    0  502  503 -0.00000000000E+00 -0.00000000000E+00 -0.11994661653E+02  0.11994661653E+02  0.00000000000E+00 0.  1.
          2    1    1    2  501    0  0.48286193944E+01  0.27424693106E+02  0.60559218511E+02  0.66654694537E+02  0.00000000000E+00 0. -1.
         -2    1    1    2    0  503 -0.48286193944E+01 -0.27424693106E+02  0.12720561980E+02  0.30614409259E+02  0.00000000000E+00 0.  1.
</event>
<event>
 4    1  0.1768739E+004  0.2440489E+02  0.7546771E-02  0.1475572E+00
         21   -1    0    0  501  502  0.00000000000E+00  0.00000000000E+00  0.98165408900E+01  0.98165408900E+01  0.00000000000E+00 0.  1.
         21   -1    0    0  502  503 -0.00000000000E+00 -0.00000000000E+00 -0.52350051358E+03  0.52350051358E+03  0.00000000000E+00 0. -1.
          2    1    1    2  501    0 -0.57029404936E+01 -0.23729199782E+02 -0.61118540629E+01  0.25158561419E+02  0.00000000000E+00 0.  1.
         -2    1    1    2    0  503  0.57029404936E+01  0.23729199782E+02 -0.50757211863E+03  0.50815849306E+03  0.00000000000E+00 0. -1.
</event>
<event>
 4    1  0.1768739E+004  0.2068275E+02  0.7546771E-02  0.1523843E+00
         21   -1    0    0  501  502  0.00000000000E+00  0.00000000000E+00  0.31300948271E+01  0.31300948271E+01  0.00000000000E+00 0. -1.
         21   -1    0    0  502  503 -0.00000000000E+00 -0.00000000000E+00 -0.16077539920E+03  0.16077539920E+03  0.00000000000E+00 0.  1.
          2    1    1    2  501    0 -0.18976572299E+02 -0.82259228690E+01 -0.47086735722E+02  0.51428948893E+02  0.00000000000E+00 0. -1.
         -2    1    1    2    0  503  0.18976572299E+02  0.82259228690E+01 -0.11055856865E+03  0.11247654514E+03  0.00000000000E+00 0.  1.
</event>
<event>
 4    1  0.1768739E+004  0.2393044E+02  0.7546771E-02  0.1481134E+00
         21   -1    0    0  501  502  0.00000000000E+00  0.00000000000E+00  0.30829179837E+01  0.30829179837E+01  0.00000000000E+00 0.  1.
         21   -1    0    0  502  503 -0.00000000000E+00 -0.00000000000E+00 -0.26220137095E+03  0.26220137095E+03  0.00000000000E+00 0. -1.
          2    1    1    2  501    0 -0.97592839219E+01  0.21850001011E+02 -0.57937686275E+02  0.62685258696E+02  0.00000000000E+00 0. -1.
         -2    1    1    2    0  503  0.97592839219E+01 -0.21850001011E+02 -0.20118076669E+03  0.20259903024E+03  0.00000000000E+00 0.  1.
</event>
<event>
 4    1  0.1768739E+004  0.2620474E+02  0.7546771E-02  0.1455764E+00
         21   -1    0    0  501  502  0.00000000000E+00  0.00000000000E+00  0.14799096275E+04  0.14799096275E+04  0.00000000000E+00 0.  1.
         21   -1    0    0  502  503 -0.00000000000E+00 -0.00000000000E+00 -0.52530831248E+00  0.52530831248E+00  0.00000000000E+00 0. -1.
          2    1    1    2  501    0  0.19722155458E+02  0.17254703061E+02  0.99255652832E+03  0.99290238700E+03  0.00000000000E+00 0.  1.
         -2    1    1    2    0  503 -0.19722155458E+02 -0.17254703061E+02  0.48682779090E+03  0.48753254884E+03  0.00000000000E+00 0. -1.
</event>
<event>
 4    1  0.1768739E+004  0.2428355E+02  0.7546771E-02  0.1476980E+00
         21   -1    0    0  501  502  0.00000000000E+00  0.00000000000E+00  0.12696624610E+02  0.12696624610E+02  0.00000000000E+00 0.  1.
         21   -1    0    0  502  503 -0.00000000000E+00 -0.00000000000E+00 -0.67337885451E+02  0.67337885451E+02  0.00000000000E+00 0. -1.
          2    1    1    2  501    0 -0.19744141742E+02  0.14137177391E+02 -0.50301263258E+01  0.24799054187E+02  0.00000000000E+00 0.  1.
         -2    1    1    2    0  503  0.19744141742E+02 -0.14137177391E+02 -0.49611134515E+02  0.55235455874E+02  0.00000000000E+00 0. -1.
</event>
<event>
 4    1  0.1768739E+004  0.2014043E+02  0.7546771E-02  0.1531900E+00
         21   -1    0    0  501  502  0.00000000000E+00  0.00000000000E+00  0.41278917707E+03  0.41278917707E+03  0.00000000000E+00 0. -1.
         21   -1    0    0  502  503 -0.00000000000E+00 -0.00000000000E+00 -0.13041517887E+01  0.13041517887E+01  0.00000000000E+00 0.  1.
          2    1    1    2  501    0  0.59381893739E+01  0.19245123289E+02  0.10294557168E+03  0.10489722394E+03  0.00000000000E+00 0.  1.
         -2    1    1    2    0  503 -0.59381893739E+01 -0.19245123289E+02  0.30853945360E+03  0.30919610491E+03  0.00000000000E+00 0. -1.
</event>
<event>
 4    1  0.1768739E+004  0.2051774E+02  0.7546771E-02  0.1526263E+00
         21   -1    0    0  501  502  0.00000000000E+00  0.00000000000E+00  0.24427596923E+03  0.24427596923E+03  0.00000000000E+00 0.  1.
         21   -1    0    0  502  503 -0.00000000000E+00 -0.00000000000E+00 -0.24682719057E+01  0.24682719057E+01  0.00000000000E+00 0. -1.
          2    1    1    2  501    0  0.20465709882E+02  0.14602178223E+01  0.18867900093E+03  0.18979131410E+03  0.00000000000E+00 0.  1.
         -2    1    1    2    0  503 -0.20465709882E+02 -0.14602178223E+01  0.53128696399E+02  0.56952927037E+02  0.00000000000E+00 0. -1.
</event>
<event>
 4    1  0.1768739E+004  0.2947346E+02  0.7546771E-02  0.1424228E+00
         21   -1    0    0  503  502  0.00000000000E+00  0.00000000000E+00  0.14736718565E+03  0.14736718565E+03  0.00000000000E+00 0.  1.
         21   -1    0    0  501  503 -0.00000000000E+00 -0.00000000000E+00 -0.14415079615E+02  0.14415079615E+02  0.00000000000E+00 0. -1.
          2    1    1    2  501    0  0.19775317054E+02 -0.21854560271E+02  0.42858561225E+01  0.29783443923E+02  0.00000000000E+00 0. -1.
         -2    1    1    2    0  502 -0.19775317054E+02  0.21854560271E+02  0.12866624991E+03  0.13199882134E+03  0.00000000000E+00 0.  1.
</event>
<event>
 4    1  0.1768739E+004  0.2103048E+02  0.7546771E-02  0.1518830E+00
         21   -1    0    0  501  502  0.00000000000E+00  0.00000000000E+00  0.46948820597E+02  0.46948820597E+02  0.00000000000E+00 0. -1.
         21   -1    0    0  502  503 -0.00000000000E+00 -0.00000000000E+00 -0.19740898531E+02  0.19740898531E+02  0.00000000000E+00 0.  1.
          2    1    1    2  501    0  0.18586051590E+02  0.98407221023E+01  0.37713770368E+02  0.43181125513E+02  0.00000000000E+00 0. -1.
         -2    1    1    2    0  503 -0.18586051590E+02 -0.98407221023E+01 -0.10505848303E+02  0.23508593615E+02  0.00000000000E+00 0.  1.
</event>
<event>
 4    1  0.1768739E+004  0.3397936E+02  0.7546771E-02  0.1387884E+00
         21   -1    0    0  503  502  0.00000000000E+00  0.00000000000E+00  0.92730235657E+01  0.92730235657E+01  0.00000000000E+00 0. -1.
         21   -1    0    0  501  503 -0.00000000000E+00 -0.00000000000E+00 -0.34794111890E+03  0.34794111890E+03  0.00000000000E+00 0.  1.
          2    1    1    2  501    0  0.16526809042E+02 -0.29689422275E+02 -0.31245928962E+03  0.31430145542E+03  0.00000000000E+00 0.  1.
         -2    1    1    2    0  502 -0.16526809042E+02  0.29689422275E+02 -0.26208805713E+02  0.42912687040E+02  0.00000000000E+00 0. -1.
</event>
<event>
 4    1  0.1768739E+004  0.2242417E+02  0.7546771E-02  0.1499858E+00
         21   -1    0    0  503  502  0.00000000000E+00  0.00000000000E+00  0.99020272550E+02  0.99020272550E+02  0.00000000000E+00 0.  1.
         21   -1    0    0  501  503 -0.00000000000E+00 -0.00000000000E+00 -0.22073106007E+02  0.22073106007E+02  0.00000000000E+00 0. -1.
          2    1    1    2  501    0 -0.21295280589E+02  0.70252793640E+01 -0.14653774517E+02  0.26787620893E+02  0.00000000000E+00 0. -1.
         -2    1    1    2    0  502  0.21295280589E+02 -0.70252793640E+01  0.91600941060E+02  0.94305757664E+02  0.00000000000E+00 0.  1.
</event>
<event>
 4    1  0.1768739E+004  0.3252017E+02  0.7546771E-02  0.1398889E+00
         21   -1    0    0  501  502  0.00000000000E+00  0.00000000000E+00  0.50447101714E+02  0.50447101714E+02  0.00000000000E+00 0.  1.
         21   -1    0    0  502  503 -0.00000000000E+00 -0.00000000000E+00 -0.36269357221E+02  0.36269357221E+02  0.00000000000E+00 0. -1.
          2    1    1    2  501    0 -0.32358377665E+02  0.32398721388E+01  0.35254966318E+02  0.47963257048E+02  0.00000000000E+00 0.  1.
         -2    1    1    2    0  503  0.32358377665E+02 -0.32398721388E+01 -0.21077221825E+02  0.38753201887E+02  0.00000000000E+00 0. -1.
</event>
<event>
 4    1  0.1768739E+004  0.2015466E+02  0.7546771E-02  0.1531685E+00
         21   -1    0    0  501  502  0.00000000000E+00  0.00000000000E+00  0.41629936613E+03  0.41629936613E+03  0.00000000000E+00 0.  1.
         21   -1    0    0  502  503 -0.00000000000E+00 -0.00000000000E+00 -0.10477819991E+01  0.10477819991E+01  0.00000000000E+00 0. -1.
          2    1    1    2  501    0  0.68807005702E+01 -0.18943763643E+02  0.26233374162E+03  0.26310682662E+03  0.00000000000E+00 0.  1.
         -2    1    1    2    0  503 -0.68807005702E+01  0.18943763643E+02  0.15291784251E+03  0.15424032151E+03  0.00000000000E+00 0. -1.
</event>
<event>
 4    1  0.1768739E+004  0.2703726E+02  0.7546771E-02  0.1447234E+00
         21   -1    0    0  503  502  0.00000000000E+00  0.00000000000E+00  0.10710127722E+02  0.10710127722E+02  0.00000000000E+00 0. -1.
         21   -1    0    0  501  503 -0.00000000000E+00 -0.00000000000E+00 -0.95652733092E+02  0.95652733092E+02  0.00000000000E+00 0.  1.
          2    1    1    2  501    0  0.22751102277E+02  0.14608245216E+02 -0.70933818721E+02  0.75911923447E+02  0.00000000000E+00 0.  1.
         -2    1    1    2    0  502 -0.22751102277E+02 -0.14608245216E+02 -0.14008786649E+02  0.30450937367E+02  0.00000000000E+00 0. -1.
</event>
<event>
 4    1  0.1768739E+004  0.4052737E+02  0.7546771E-02  0.1345423E+00
         21   -1    0    0  501  502  0.00000000000E+00  0.00000000000E+00  0.47231341452E+02  0.47231341452E+02  0.00000000000E+00 0.  1.
         21   -1    0    0  502  503 -0.00000000000E+00 -0.00000000000E+00 -0.49349874038E+02  0.49349874038E+02  0.00000000000E+00 0. -1.
          2    1    1    2  501    0  0.38977603110E+02 -0.11100179607E+02  0.25184296785E+02  0.47714948769E+02  0.00000000000E+00 0. -1.
         -2    1    1    2    0  503 -0.38977603110E+02  0.11100179607E+02 -0.27302829371E+02  0.48866266720E+02  0.00000000000E+00 0.  1.
</event>
<event>
 4    1  0.1768739E+004  0.2828771E+02  0.7546771E-02  0.1435085E+00
         21   -1    0    0  501  502  0.00000000000E+00  0.00000000000E+00  0.76665853536E+01  0.76665853536E+01  0.00000000000E+00 0. -1.
         21   -1    0    0  502  503 -0.00000000000E+00 -0.00000000000E+00 -0.10458252499E+03  0.10458252499E+03  0.00000000000E+00 0.  1.
          2    1    1    2  501    0 -0.21669943911E+02  0.18182630191E+02 -0.50962265943E+02  0.58286765735E+02  0.00000000000E+00 0. -1.
         -2    1    1    2    0  503  0.21669943911E+02 -0.18182630191E+02 -0.45953673693E+02  0.53962344608E+02  0.00000000000E+00 0.  1.
</event>
<event>
 4    1  0.1768739E+004  0.2093806E+02  0.7546771E-02  0.1520151E+00
         21   -1    0    0  503  502  0.00000000000E+00  0.00000000000E+00  0.11358992706E+03  0.11358992706E+03  0.00000000000E+00 0.  1.
         21   -1    0    0  501  503 -0.00000000000E+00 -0.00000000000E+00 -0.31580776764E+03  0.31580776764E+03  0.00000000000E+00 0. -1.
          2    1    1    2  501    0 -0.65630215550E+01  0.19882884085E+02 -0.31449180683E+03  0.31518803736E+03  0.00000000000E+00 0. -1.
         -2    1    1    2    0  502  0.65630215550E+01 -0.19882884085E+02  0.11227396625E+03  0.11420965734E+03  0.00000000000E+00 0.  1.
</event>
<event>
 4    1  0.1768739E+004  0.2497465E+02  0.7546771E-02  0.1469087E+00
         21   -1    0    0  503  502  0.00000000000E+00  0.00000000000E+00  0.16152394099E+02  0.16152394099E+02  0.00000000000E+00 0. -1.
         21   -1    0    0  501  503 -0.00000000000E+00 -0.00000000000E+00 -0.63059228868E+02  0.63059228868E+02  0.00000000000E+00 0.  1.
          2    1    1    2  501    0  0.12123437682E+02  0.21834725387E+02 -0.48112005549E+02  0.54207915031E+02  0.00000000000E+00 0.  1.
         -2    1    1    2    0  502 -0.12123437682E+02 -0.21834725387E+02  0.12051707808E+01  0.25003707937E+02  0.00000000000E+00 0. -1.
</event>
<event>
 4    1  0.1768739E+004  0.2128182E+02  0.7546771E-02  0.1515279E+00
         21   -1    0    0  503  502  0.00000000000E+00  0.00000000000E+00  0.11619406295E+03  0.11619406295E+03  0.00000000000E+00 0.  1.
         21   -1    0    0  501  503 -0.00000000000E+00 -0.00000000000E+00 -0.12543202978E+02  0.12543202978E+02  0.00000000000E+00 0. -1.
          2    1    1    2  501    0 -0.21245046136E+02  0.12505347578E+01 -0.16137179059E+01  0.21342912360E+02  0.00000000000E+00 0. -1.
         -2    1    1    2    0  502  0.21245046136E+02 -0.12505347578E+01  0.10526457788E+03  0.10739435357E+03  0.00000000000E+00 0.  1.
</event>
<event>
 4    1  0.1768739E+004  0.2324935E+02  0.7546771E-02  0.1489391E+00
         21   -1    0    0  503  502  0.00000000000E+00  0.00000000000E+00  0.22181726701E+02  0.22181726701E+02  0.00000000000E+00 0.  1.
         21   -1    0    0  501  503 -0.00000000000E+00 -0.00000000000E+00 -0.29858925247E+02  0.29858925247E+02  0.00000000000E+00 0. -1.
          2    1    1    2  501    0  0.19379900090E+02 -0.12843345602E+02 -0.14996554584E+02  0.27666382184E+02  0.00000000000E+00 0. -1.
         -2    1    1    2    0  502 -0.19379900090E+02  0.12843345602E+02  0.73193560384E+01  0.24374269765E+02  0.00000000000E+00 0.  1.
</event>
<event>
 4    1  0.1768739E+004  0.3397133E+02  0.7546771E-02  0.1387943E+00
         21   -1    0    0  503  502  0.00000000000E+00  0.00000000000E+00  0.66913142271E+02  0.66913142271E+02  0.00000000000E+00 0. -1.
         21   -1    0    0  501  503 -0.00000000000E+00 -0.00000000000E+00 -0.29846252523E+02  0.29846252523E+02  0.00000000000E+00 0.  1.
          2    1    1    2  501    0 -0.31918336128E+02  0.11630619077E+02 -0.12899892963E+02  0.36338116623E+02  0.00000000000E+00 0.  1.
         -2    1    1    2    0  502  0.31918336128E+02 -0.11630619077E+02  0.49966782711E+02  0.60421278171E+02  0.00000000000E+00 0. -1.
</event>
<event>
 4    1  0.1768739E+004  0.3431813E+02  0.7546771E-02  0.1385421E+00
         21   -1    0    0  503  502  0.00000000000E+00  0.00000000000E+00  0.39162747971E+02  0.39162747971E+02  0.00000000000E+00 0.  1.
         21   -1    0    0  501  503 -0.00000000000E+00 -0.00000000000E+00 -0.57134561622E+02  0.57134561622E+02  0.00000000000E+00 0. -1.
          2    1    1    2  501    0 -0.24261921241E+02 -0.24271243122E+02 -0.42122863658E+02  0.54332952319E+02  0.00000000000E+00 0. -1.
         -2    1    1    2    0  502  0.24261921241E+02  0.24271243122E+02  0.24151050008E+02  0.41964357274E+02  0.00000000000E+00 0.  1.
</event>
<event>
 4    1  0.1768739E+004  0.2293152E+02  0.7546771E-02  0.1493360E+00
         21   -1    0    0  501  502  0.00000000000E+00  0.00000000000E+00  0.58011020372E+01  0.58011020372E+01  0.00000000000E+00 0.  1.
         21   -1    0    0  502  503 -0.00000000000E+00 -0.00000000000E+00 -0.97668623542E+02  0.97668623542E+02  0.00000000000E+00 0. -1.
          2    1    1    2  501    0  0.42953075995E+01 -0.22525648848E+02 -0.32062570375E+02  0.39419068260E+02  0.00000000000E+00 0.  1.
         -2    1    1    2    0  503 -0.42953075995E+01  0.22525648848E+02 -0.59804951130E+02  0.64050657319E+02  0.00000000000E+00 0. -1.
</event>
<event>
 4    1  0.1768739E+004  0.2250794E+02  0.7546771E-02  0.1498771E+00
         21   -1    0    0  503  502  0.00000000000E+00  0.00000000000E+00  0.13127865887E+03  0.13127865887E+03  0.00000000000E+00 0.  1.
         21   -1    0    0  501  503 -0.00000000000E+00 -0.00000000000E+00 -0.44577895558E+01  0.44577895558E+01  0.00000000000E+00 0. -1.
          2    1    1    2  501    0  0.18337774642E+02 -0.13051181735E+02  0.38537010031E+02  0.44628561098E+02  0.00000000000E+00 0. -1.
         -2    1    1    2    0  502 -0.18337774642E+02  0.13051181735E+02  0.88283859286E+02  0.91107887331E+02  0.00000000000E+00 0.  1.
</event>
<event>
 4    1  0.1768739E+004  0.2430203E+02  0.7546771E-02  0.1476765E+00
         21   -1    0    0  501  502  0.00000000000E+00  0.00000000000E+00  0.11339483617E+04  0.11339483617E+04  0.00000000000E+00 0. -1.
         21   -1    0    0  502  503 -0.00000000000E+00 -0.00000000000E+00 -0.70079264824E+00  0.70079264824E+00  0.00000000000E+00 0.  1.
          2    1    1    2  501    0 -0.12064296821E+02  0.21096002082E+02  0.85412133587E+03  0.85446699465E+03  0.00000000000E+00 0. -1.
         -2    1    1    2    0  503  0.12064296821E+02 -0.21096002082E+02  0.27912623315E+03  0.28018215966E+03  0.00000000000E+00 0.  1.
</event>
<event>
 4    1  0.1768739E+004  0.2365328E+02  0.7546771E-02  0.1484454E+00
         21   -1    0    0  503  502  0.00000000000E+00  0.00000000000E+00  0.17538312719E+03  0.17538312719E+03  0.00000000000E+00 0.  1.
         21   -1    0    0  501  503 -0.00000000000E+00 -0.00000000000E+00 -0.39608189039E+01  0.39608189039E+01  0.00000000000E+00 0. -1.
          2    1    1    2  501    0 -0.96526714445E+01  0.21594059828E+02  0.46153376815E+02  0.51861466208E+02  0.00000000000E+00 0. -1.
         -2    1    1    2    0  502  0.96526714445E+01 -0.21594059828E+02  0.12526893147E+03  0.12748247988E+03  0.00000000000E+00 0.  1.
</event>
<event>
 4    1  0.1768739E+004  0.2362648E+02  0.7546771E-02  0.1484778E+00
         21   -1    0    0  503  502  0.00000000000E+00  0.00000000000E+00  0.14439497392E+03  0.14439497392E+03  0.00000000000E+00 0. -1.
         21   -1    0    0  501  503 -0.00000000000E+00 -0.00000000000E+00 -0.53973769949E+01  0.53973769949E+01  0.00000000000E+00 0.  1.
          2    1    1    2  501    0  0.22965974252E+02  0.55474841672E+01  0.29602797019E+02  0.37875270894E+02  0.00000000000E+00 0.  1.
         -2    1    1    2    0  502 -0.22965974252E+02 -0.55474841672E+01  0.10939479990E+03  0.11191708002E+03  0.00000000000E+00 0. -1.
</event>
<event>
 4    1  0.1768739E+004  0.2112276E+02  0.7546771E-02  0.1517519E+00
         21   -1    0    0  501  502  0.00000000000E+00  0.00000000000E+00  0.41147200312E+01  0.41147200312E+01  0.00000000000E+00 0. -1.
         21   -1    0    0  502  503 -0.00000000000E+00 -0.00000000000E+00 -0.17758488974E+03  0.17758488974E+03  0.00000000000E+00 0.  1.
          2    1    1    2  501    0  0.19589901665E+02 -0.78998010735E+01 -0.30042889579E+02  0.36725281735E+02  0.00000000000E+00 0. -1.
         -2    1    1    2    0  503 -0.19589901665E+02  0.78998010735E+01 -0.14342728013E+03  0.14497432804E+03  0.00000000000E+00 0.  1.
</event>
<event>
 4    1  0.1768739E+004  0.2400192E+02  0.7546771E-02  0.1480286E+00
         21   -1    0    0  501  502  0.00000000000E+00  0.00000000000E+00  0.24016944789E+01  0.24016944789E+01  0.00000000000E+00 0.  1.
         21   -1    0    0  502  503 -0.00000000000E+00 -0.00000000000E+00 -0.26493895682E+03  0.26493895682E+03  0.00000000000E+00 0. -1.
          2    1    1    2  501    0  0.19528003159E+02 -0.13955251577E+02 -0.90149943527E+02  0.93290429691E+02  0.00000000000E+00 0.  1.
         -2    1    1    2    0  503 -0.19528003159E+02  0.13955251577E+02 -0.17238731881E+03  0.17405022161E+03  0.00000000000E+00 0. -1.
</event>
<event>
 4    1  0.1768739E+004  0.3449480E+02  0.7546771E-02  0.1384150E+00
         21   -1    0    0  501  502  0.00000000000E+00  0.00000000000E+00  0.76895482756E+01  0.76895482756E+01  0.00000000000E+00 0. -1.
         21   -1    0    0  502  503 -0.00000000000E+00 -0.00000000000E+00 -0.18865223676E+03  0.18865223676E+03  0.00000000000E+00 0.  1.
          2    1    1    2  501    0  0.33975979032E+02  0.59602211910E+01 -0.48859523175E+02  0.59809233340E+02  0.00000000000E+00 0.  1.
         -2    1    1    2    0  503 -0.33975979032E+02 -0.59602211910E+01 -0.13210316531E+03  0.13653255170E+03  0.00000000000E+00 0. -1.
</event>
<event>
 4    1  0.1768739E+004  0.2538504E+02  0.7546771E-02  0.1464542E+00
         21   -1    0    0  501  502  0.00000000000E+00  0.00000000000E+00  0.12446385407E+02  0.12446385407E+02  0.00000000000E+00 0.  1.
         21   -1    0    0  502  503 -0.00000000000E+00 -0.00000000000E+00 -0.54254227470E+02  0.54254227470E+02  0.00000000000E+00 0. -1.
          2    1    1    2  501    0 -0.19275501749E+02 -0.16518339146E+02 -0.13773430902E+02  0.28880926139E+02  0.00000000000E+00 0.  1.
         -2    1    1    2    0  503  0.19275501749E+02  0.16518339146E+02 -0.28034411161E+02  0.37819686738E+02  0.00000000000E+00 0. -1.
</event>
