<event>
 4    1  0.1635676E+006  0.4590390E+02  0.7546771E-02  0.1316980E+00
         21   -1    0    0  501  502  0.00000000000E+00  0.00000000000E+00  0.39462929918E+01  0.39462929918E+01  0.00000000000E+00 0.  1.
          2   -1    0    0  503    0 -0.00000000000E+00 -0.00000000000E+00 -0.56016624316E+03  0.56016624316E+03  0.00000000000E+00 0.  1.
         21    1    1    2  503  502  0.45824228988E+02  0.27033796952E+01 -0.33911531829E+03  0.34220807607E+03  0.00000000000E+00 0.  1.
          2    1    1    2  501    0 -0.45824228988E+02 -0.27033796952E+01 -0.21710463187E+03  0.22190446008E+03  0.00000000000E+00 0.  1.
</event>
<event>
 4    1  0.1635676E+006  0.2956184E+02  0.7546771E-02  0.1423443E+00
          2   -1    0    0  502    0 -0.00000000000E+00  0.00000000000E+00  0.17581265410E+04  0.17581265410E+04  0.00000000000E+00 0.  1.
         21   -1    0    0  503  502  0.00000000000E+00 -0.00000000000E+00 -0.10633883429E+02  0.10633883429E+02  0.00000000000E+00 0.  1.
         21    1    1    2  503  501 -0.24702744276E+02  0.16238128564E+02  0.10282971107E+02  0.31299231441E+02  0.00000000000E+00 0.  1.
          2    1    1    2  501    0  0.24702744276E+02 -0.16238128564E+02  0.17372096865E+04  0.17374611930E+04  0.00000000000E+00 0.  1.
</event>
<event>
 4    1  0.1635676E+006  0.2492142E+02  0.7546771E-02  0.1469684E+00
         21   -1    0    0  501  502  0.00000000000E+00  0.00000000000E+00  0.29389823671E+02  0.29389823671E+02  0.00000000000E+00 0.  1.
          4   -1    0    0  503    0 -0.00000000000E+00 -0.00000000000E+00 -0.24441243302E+02  0.24441243302E+02  0.00000000000E+00 0.  1.
         21    1    1    2  503  502  0.23959000365E+02 -0.68588333487E+01 -0.74290096611E+01  0.26005143298E+02  0.00000000000E+00 0.  1.
          4    1    1    2  501    0 -0.23959000365E+02  0.68588333487E+01  0.12377590030E+02  0.27825923675E+02  0.00000000000E+00 0.  1.
</event>
<event>
 4    1  0.1635676E+006  0.4912045E+02  0.7546771E-02  0.1302032E+00
          1   -1    0    0  502    0 -0.00000000000E+00  0.00000000000E+00  0.50454135001E+03  0.50454135001E+03  0.00000000000E+00 0. -1.
         21   -1    0    0  503  502  0.00000000000E+00 -0.00000000000E+00 -0.73614860225E+01  0.73614860225E+01  0.00000000000E+00 0. -1.
         21    1    1    2  503  501 -0.43889318092E+02  0.22057797505E+02  0.97085835919E+02  0.10880477108E+03  0.00000000000E+00 0. -1.
          1    1    1    2  501    0  0.43889318092E+02 -0.22057797505E+02  0.40009402807E+03  0.40309806495E+03  0.00000000000E+00 0. -1.
</event>
<event>
 4    1  0.1635676E+006  0.3400860E+02  0.7546771E-02  0.1387670E+00
         -1   -1    0    0    0  501 -0.00000000000E+00  0.00000000000E+00  0.85662893564E+01  0.85662893564E+01  0.00000000000E+00 0.  1.
         21   -1    0    0  501  502  0.00000000000E+00 -0.00000000000E+00 -0.24793779046E+03  0.24793779046E+03  0.00000000000E+00 0.  1.
         21    1    1    2  503  502  0.29965514487E+02  0.16082683806E+02 -0.20623874515E+03  0.20902393350E+03  0.00000000000E+00 0.  1.
         -1    1    1    2    0  503 -0.29965514487E+02 -0.16082683806E+02 -0.33132755960E+02  0.47480146318E+02  0.00000000000E+00 0.  1.
</event>
<event>
 4    1  0.1635676E+006  0.2925000E+02  0.7546771E-02  0.1426228E+00
         -2   -1    0    0    0  501 -0.00000000000E+00  0.00000000000E+00  0.26329830383E+02  0.26329830383E+02  0.00000000000E+00 0. -1.
         21   -1    0    0  501  502  0.00000000000E+00 -0.00000000000E+00 -0.32608822789E+02  0.32608822789E+02  0.00000000000E+00 0. -1.
         21    1    1    2  503  502  0.14071316349E+02  0.25642942318E+02 -0.48879339372E+01  0.29655595302E+02  0.00000000000E+00 0. -1.
         -2    1    1    2    0  503 -0.14071316349E+02 -0.25642942318E+02 -0.13910584695E+01  0.29283057870E+02  0.00000000000E+00 0. -1.
</event>
<event>
 4    1  0.1635676E+006  0.2099959E+02  0.7546771E-02  0.1519271E+00
          2   -1    0    0  503    0 -0.00000000000E+00  0.00000000000E+00  0.58107691252E+03  0.58107691252E+03  0.00000000000E+00 0.  1.
         21   -1    0    0  501  502  0.00000000000E+00 -0.00000000000E+00 -0.32960398328E+03  0.32960398328E+03  0.00000000000E+00 0. -1.
         21    1    1    2  503  502  0.20167437001E+02  0.58529652679E+01 -0.32907947550E+03  0.32974881942E+03  0.00000000000E+00 0. -1.
          2    1    1    2  501    0 -0.20167437001E+02 -0.58529652679E+01  0.58055240474E+03  0.58093207638E+03  0.00000000000E+00 0.  1.
</event>
<event>
 4    1  0.1635676E+006  0.2264201E+02  0.7546771E-02  0.1497043E+00
          1   -1    0    0  502    0 -0.00000000000E+00  0.00000000000E+00  0.52242306265E+02  0.52242306265E+02  0.00000000000E+00 0.  1.
         21   -1    0    0  503  502  0.00000000000E+00 -0.00000000000E+00 -0.90220923789E+02  0.90220923789E+02  0.00000000000E+00 0.  1.
         21    1    1    2  503  501 -0.69239979891E+01  0.21557341078E+02 -0.86235582047E+02  0.89158489857E+02  0.00000000000E+00 0.  1.
          1    1    1    2  501    0  0.69239979891E+01 -0.21557341078E+02  0.48256964523E+02  0.53304740197E+02  0.00000000000E+00 0.  1.
</event>
<event>
 4    1  0.1635676E+006  0.2207557E+02  0.7546771E-02  0.1504444E+00
          1   -1    0    0  503    0 -0.00000000000E+00  0.00000000000E+00  0.24877535439E+01  0.24877535439E+01  0.00000000000E+00 0.  1.
         21   -1    0    0  501  502  0.00000000000E+00 -0.00000000000E+00 -0.83041798575E+03  0.83041798575E+03  0.00000000000E+00 0. -1.
         21    1    1    2  503  502  0.78366223581E+01 -0.20637789324E+02 -0.77799932292E+03  0.77831245491E+03  0.00000000000E+00 0. -1.
          1    1    1    2  501    0 -0.78366223581E+01  0.20637789324E+02 -0.49930909290E+02  0.54593284392E+02  0.00000000000E+00 0.  1.
</event>
<event>
 4    1  0.1635676E+006  0.2126068E+02  0.7546771E-02  0.1515575E+00
          3   -1    0    0  502    0 -0.00000000000E+00  0.00000000000E+00  0.18183737032E+03  0.18183737032E+03  0.00000000000E+00 0. -1.
         21   -1    0    0  503  502  0.00000000000E+00 -0.00000000000E+00 -0.28277008673E+02  0.28277008673E+02  0.00000000000E+00 0. -1.
         21    1    1    2  503  501 -0.15633803581E+02 -0.14408362246E+02 -0.23553014674E+02  0.31729500741E+02  0.00000000000E+00 0. -1.
          3    1    1    2  501    0  0.15633803581E+02  0.14408362246E+02  0.17711337632E+03  0.17838487825E+03  0.00000000000E+00 0. -1.
</event>
<event>
 4    1  0.1635676E+006  0.2370460E+02  0.7546771E-02  0.1483835E+00
          2   -1    0    0  503    0 -0.00000000000E+00  0.00000000000E+00  0.38584219523E+03  0.38584219523E+03  0.00000000000E+00 0. -1.
         21   -1    0    0  501  502  0.00000000000E+00 -0.00000000000E+00 -0.20256850536E+02  0.20256850536E+02  0.00000000000E+00 0.  1.
         21    1    1    2  503  502 -0.78941373371E+01 -0.22351521700E+02 -0.12821860671E+02  0.26950102740E+02  0.00000000000E+00 0.  1.
          2    1    1    2  501    0  0.78941373371E+01  0.22351521700E+02  0.37840720537E+03  0.37914894303E+03  0.00000000000E+00 0. -1.
</event>
<event>
 4    1  0.1635676E+006  0.2107686E+02  0.7546771E-02  0.1518170E+00
          2   -1    0    0  502    0 -0.00000000000E+00  0.00000000000E+00  0.15510103991E+04  0.15510103991E+04  0.00000000000E+00 0.  1.
         21   -1    0    0  503  502  0.00000000000E+00 -0.00000000000E+00 -0.29398818261E+00  0.29398818261E+00  0.00000000000E+00 0.  1.
         21    1    1    2  503  501  0.21047362080E+02 -0.11147008849E+01  0.65087348033E+03  0.65121465079E+03  0.00000000000E+00 0.  1.
          2    1    1    2  501    0 -0.21047362080E+02  0.11147008849E+01  0.89984293058E+03  0.90008973649E+03  0.00000000000E+00 0.  1.
</event>
<event>
 4    1  0.1635676E+006  0.2403018E+02  0.7546771E-02  0.1479952E+00
         -1   -1    0    0    0  501 -0.00000000000E+00  0.00000000000E+00  0.27354507742E+02  0.27354507742E+02  0.00000000000E+00 0. -1.
         21   -1    0    0  501  502  0.00000000000E+00 -0.00000000000E+00 -0.92701254589E+02  0.92701254589E+02  0.00000000000E+00 0.  1.
         21    1    1    2  503  502 -0.23847288489E+02  0.29590826315E+01 -0.85425585267E+02  0.88741083814E+02  0.00000000000E+00 0.  1.
         -1    1    1    2    0  503  0.23847288489E+02 -0.29590826315E+01  0.20078838421E+02  0.31314678517E+02  0.00000000000E+00 0. -1.
</event>
<event>
 4    1  0.1635676E+006  0.2346572E+02  0.7546771E-02  0.1486731E+00
         -4   -1    0    0    0  501 -0.00000000000E+00  0.00000000000E+00  0.13230601646E+03  0.13230601646E+03  0.00000000000E+00 0. -1.
         21   -1    0    0  503  502  0.00000000000E+00 -0.00000000000E+00 -0.47563739963E+01  0.47563739963E+01  0.00000000000E+00 0. -1.
         21    1    1    2  503  501 -0.15583192077E+02  0.17544345707E+02  0.88003463363E+02  0.91078260334E+02  0.00000000000E+00 0. -1.
         -4    1    1    2    0  502  0.15583192077E+02 -0.17544345707E+02  0.39546179099E+02  0.45984130120E+02  0.00000000000E+00 0. -1.
</event>
<event>
 4    1  0.1635676E+006  0.2321641E+02  0.7546771E-02  0.1489798E+00
         -1   -1    0    0    0  501 -0.00000000000E+00  0.00000000000E+00  0.53717233201E+03  0.53717233201E+03  0.00000000000E+00 0.  1.
         21   -1    0    0  503  502  0.00000000000E+00 -0.00000000000E+00 -0.70725972837E+02  0.70725972837E+02  0.00000000000E+00 0.  1.
         21    1    1    2  503  501 -0.72737411955E+01 -0.22047546625E+02 -0.68562173081E+02  0.72386277711E+02  0.00000000000E+00 0.  1.
         -1    1    1    2    0  502  0.72737411955E+01  0.22047546625E+02  0.53500853225E+03  0.53551202713E+03  0.00000000000E+00 0.  1.
</event>
<event>
 4    1  0.1635676E+006  0.2043123E+02  0.7546771E-02  0.1527543E+00
         21   -1    0    0  501  502  0.00000000000E+00  0.00000000000E+00  0.38890853312E+01  0.38890853312E+01  0.00000000000E+00 0.  1.
          3   -1    0    0  503    0 -0.00000000000E+00 -0.00000000000E+00 -0.12150912252E+03  0.12150912252E+03  0.00000000000E+00 0.  1.
         21    1    1    2  503  502  0.15988061808E+01 -0.20368576775E+02 -0.37395689003E+02  0.42613057354E+02  0.00000000000E+00 0.  1.
          3    1    1    2  501    0 -0.15988061808E+01  0.20368576775E+02 -0.80224348189E+02  0.82785150501E+02  0.00000000000E+00 0.  1.
</event>
<event>
 4    1  0.1635676E+006  0.4557026E+02  0.7546771E-02  0.1318612E+00
         -2   -1    0    0    0  501 -0.00000000000E+00  0.00000000000E+00  0.29712935054E+02  0.29712935054E+02  0.00000000000E+00 0.  1.
         21   -1    0    0  503  502  0.00000000000E+00 -0.00000000000E+00 -0.24015607277E+03  0.24015607277E+03  0.00000000000E+00 0.  1.
         21    1    1    2  503  501 -0.43096355189E+02 -0.14810560923E+02 -0.21883764739E+03  0.22353202111E+03  0.00000000000E+00 0.  1.
         -2    1    1    2    0  502  0.43096355189E+02  0.14810560923E+02  0.83945096722E+01  0.46336986718E+02  0.00000000000E+00 0.  1.
</event>
<event>
 4    1  0.1635676E+006  0.2508266E+02  0.7546771E-02  0.1467881E+00
         21   -1    0    0  501  502  0.00000000000E+00  0.00000000000E+00  0.12709667639E+02  0.12709667639E+02  0.00000000000E+00 0.  1.
          2   -1    0    0  503    0 -0.00000000000E+00 -0.00000000000E+00 -0.31846195372E+03  0.31846195372E+03  0.00000000000E+00 0.  1.
         21    1    1    2  503  502  0.10946418049E+02 -0.22568024619E+02 -0.70263533827E+00  0.25092498873E+02  0.00000000000E+00 0.  1.
          2    1    1    2  501    0 -0.10946418049E+02  0.22568024619E+02 -0.30504965074E+03  0.30607912248E+03  0.00000000000E+00 0.  1.
</event>
<event>
 4    1  0.1635676E+006  0.2311036E+02  0.7546771E-02  0.1491117E+00
         21   -1    0    0  501  502  0.00000000000E+00  0.00000000000E+00  0.19539102327E+01  0.19539102327E+01  0.00000000000E+00 0.  1.
          1   -1    0    0  503    0 -0.00000000000E+00 -0.00000000000E+00 -0.28580028517E+03  0.28580028517E+03  0.00000000000E+00 0. -1.
         21    1    1    2  503  502 -0.10703804513E+02 -0.20482121248E+02 -0.11188575620E+03  0.11424758712E+03  0.00000000000E+00 0.  1.
          1    1    1    2  501    0  0.10703804513E+02  0.20482121248E+02 -0.17196061874E+03  0.17350660829E+03  0.00000000000E+00 0. -1.
</event>
<event>
 4    1  0.1635676E+006  0.2133084E+02  0.7546771E-02  0.1514593E+00
         21   -1    0    0  501  502  0.00000000000E+00  0.00000000000E+00  0.81461130793E+02  0.81461130793E+02  0.00000000000E+00 0. -1.
          2   -1    0    0  503    0 -0.00000000000E+00 -0.00000000000E+00 -0.17800603499E+03  0.17800603499E+03  0.00000000000E+00 0.  1.
         21    1    1    2  503  502  0.14331587257E+02  0.15799059864E+02  0.79409492518E+02  0.82224523032E+02  0.00000000000E+00 0. -1.
          2    1    1    2  501    0 -0.14331587257E+02 -0.15799059864E+02 -0.17595439671E+03  0.17724264275E+03  0.00000000000E+00 0.  1.
</event>
<event>
 4    1  0.1635676E+006  0.2151517E+02  0.7546771E-02  0.1512035E+00
         -1   -1    0    0    0  501 -0.00000000000E+00  0.00000000000E+00  0.89636132280E+03  0.89636132280E+03  0.00000000000E+00 0. -1.
         21   -1    0    0  501  502  0.00000000000E+00 -0.00000000000E+00 -0.50974837787E+01  0.50974837787E+01  0.00000000000E+00 0. -1.
         21    1    1    2  503  502  0.97601931970E+01  0.19173965918E+02  0.18343667999E+02  0.28273529951E+02  0.00000000000E+00 0. -1.
         -1    1    1    2    0  503 -0.97601931970E+01 -0.19173965918E+02  0.87292017103E+03  0.87318527663E+03  0.00000000000E+00 0. -1.
</event>
<event>
 4    1  0.1635676E+006  0.3708769E+02  0.7546771E-02  0.1366452E+00
         21   -1    0    0  501  502  0.00000000000E+00  0.00000000000E+00  0.28781687495E+03  0.28781687495E+03  0.00000000000E+00 0.  1.
          3   -1    0    0  503    0 -0.00000000000E+00 -0.00000000000E+00 -0.53149112842E+01  0.53149112842E+01  0.00000000000E+00 0.  1.
         21    1    1    2  503  502  0.26188227985E+02  0.26261634751E+02  0.18778851334E+03  0.19141583656E+03  0.00000000000E+00 0.  1.
          3    1    1    2  501    0 -0.26188227985E+02 -0.26261634751E+02  0.94713450322E+02  0.10171594967E+03  0.00000000000E+00 0.  1.
</event>
<event>
 4    1  0.1635676E+006  0.3362318E+02  0.7546771E-02  0.1390510E+00
          2   -1    0    0  503    0 -0.00000000000E+00  0.00000000000E+00  0.69965071576E+03  0.69965071576E+03  0.00000000000E+00 0.  1.
         21   -1    0    0  501  502  0.00000000000E+00 -0.00000000000E+00 -0.16158605108E+01  0.16158605108E+01  0.00000000000E+00 0.  1.
         21    1    1    2  503  502  0.33428964390E+02 -0.36087022095E+01  0.34755855177E+03  0.34918113537E+03  0.00000000000E+00 0.  1.
          2    1    1    2  501    0 -0.33428964390E+02  0.36087022095E+01  0.35047630348E+03  0.35208544090E+03  0.00000000000E+00 0.  1.
</event>
<event>
 4    1  0.1635676E+006  0.2259103E+02  0.7546771E-02  0.1497698E+00
         21   -1    0    0  503  502  0.00000000000E+00  0.00000000000E+00  0.30310882350E+02  0.30310882350E+02  0.00000000000E+00 0. -1.
          2   -1    0    0  502    0 -0.00000000000E+00 -0.00000000000E+00 -0.10817618508E+04  0.10817618508E+04  0.00000000000E+00 0. -1.
         21    1    1    2  503  501  0.58663210282E+01  0.21816070225E+02  0.25966631445E+02  0.34418317668E+02  0.00000000000E+00 0. -1.
          2    1    1    2  501    0 -0.58663210282E+01 -0.21816070225E+02 -0.10774175999E+04  0.10776544155E+04  0.00000000000E+00 0. -1.
</event>
<event>
 4    1  0.1635676E+006  0.3536172E+02  0.7546771E-02  0.1378038E+00
         -1   -1    0    0    0  501 -0.00000000000E+00  0.00000000000E+00  0.91598936166E+02  0.91598936166E+02  0.00000000000E+00 0. -1.
         21   -1    0    0  503  502  0.00000000000E+00 -0.00000000000E+00 -0.32607082459E+02  0.32607082459E+02  0.00000000000E+00 0.  1.
         21    1    1    2  503  501 -0.34294007566E+02  0.86239515922E+01 -0.17854801587E+02  0.39613702626E+02  0.00000000000E+00 0.  1.
         -1    1    1    2    0  502  0.34294007566E+02 -0.86239515922E+01  0.76846655294E+02  0.84592315998E+02  0.00000000000E+00 0. -1.
</event>
<event>
 4    1  0.1635676E+006  0.2985408E+02  0.7546771E-02  0.1420869E+00
          2   -1    0    0  503    0 -0.00000000000E+00  0.00000000000E+00  0.19015446023E+03  0.19015446023E+03  0.00000000000E+00 0.  1.
         21   -1    0    0  501  502  0.00000000000E+00 -0.00000000000E+00 -0.66824980552E+01  0.66824980552E+01  0.00000000000E+00 0. -1.
         21    1    1    2  503  502  0.22444569944E+02  0.19685208281E+02  0.37955348341E+02  0.48289487600E+02  0.00000000000E+00 0. -1.
          2    1    1    2  501    0 -0.22444569944E+02 -0.19685208281E+02  0.14551661383E+03  0.14854747068E+03  0.00000000000E+00 0.  1.
</event>
<event>
 4    1  0.1635676E+006  0.3912172E+02  0.7546771E-02  0.1353711E+00
          3   -1    0    0  503    0 -0.00000000000E+00  0.00000000000E+00  0.76682547922E+02  0.76682547922E+02  0.00000000000E+00 0.  1.
         21   -1    0    0  501  502  0.00000000000E+00 -0.00000000000E+00 -0.51634299655E+02  0.51634299655E+02  0.00000000000E+00 0.  1.
         21    1    1    2  503  502 -0.38670351705E+02 -0.59256206476E+01 -0.37726876962E+02  0.54349115230E+02  0.00000000000E+00 0.  1.
          3    1    1    2  501    0  0.38670351705E+02  0.59256206476E+01  0.62775125229E+02  0.73967732347E+02  0.00000000000E+00 0.  1.
</event>
<event>
 4    1  0.1635676E+006  0.2175511E+02  0.7546771E-02  0.1508751E+00
         -3   -1    0    0    0  501 -0.00000000000E+00  0.00000000000E+00  0.26510336370E+03  0.26510336370E+03  0.00000000000E+00 0.  1.
         21   -1    0    0  501  502  0.00000000000E+00 -0.00000000000E+00 -0.22036126862E+01  0.22036126862E+01  0.00000000000E+00 0.  1.
         21    1    1    2  503  502  0.20807562216E+02 -0.63505945439E+01  0.73216538285E+02  0.76380273467E+02  0.00000000000E+00 0.  1.
         -3    1    1    2    0  503 -0.20807562216E+02  0.63505945439E+01  0.18968321272E+03  0.19092670292E+03  0.00000000000E+00 0.  1.
</event>
<event>
 4    1  0.1635676E+006  0.2301001E+02  0.7546771E-02  0.1492373E+00
         21   -1    0    0  503  502  0.00000000000E+00  0.00000000000E+00  0.10169830545E+02  0.10169830545E+02  0.00000000000E+00 0.  1.
          1   -1    0    0  502    0 -0.00000000000E+00 -0.00000000000E+00 -0.82389816752E+03  0.82389816752E+03  0.00000000000E+00 0.  1.
         21    1    1    2  503  501  0.20864528816E+02  0.97021608651E+01 -0.32212934662E+01  0.23234397340E+02  0.00000000000E+00 0.  1.
          1    1    1    2  501    0 -0.20864528816E+02 -0.97021608651E+01 -0.81050704351E+03  0.81083360073E+03  0.00000000000E+00 0.  1.
</event>
<event>
 4    1  0.1635676E+006  0.2528750E+02  0.7546771E-02  0.1465613E+00
         -2   -1    0    0    0  501 -0.00000000000E+00  0.00000000000E+00  0.57646695596E+02  0.57646695596E+02  0.00000000000E+00 0.  1.
         21   -1    0    0  503  502  0.00000000000E+00 -0.00000000000E+00 -0.10719961123E+03  0.10719961123E+03  0.00000000000E+00 0.  1.
         21    1    1    2  503  501  0.25166325279E+02 -0.24726130996E+01 -0.10281873287E+03  0.10588271612E+03  0.00000000000E+00 0.  1.
         -2    1    1    2    0  502 -0.25166325279E+02  0.24726130996E+01  0.53265817235E+02  0.58963590709E+02  0.00000000000E+00 0.  1.
</event>
<event>
 4    1  0.1635676E+006  0.2299752E+02  0.7546771E-02  0.1492529E+00
         21   -1    0    0  503  502  0.00000000000E+00  0.00000000000E+00  0.11837292092E+03  0.11837292092E+03  0.00000000000E+00 0. -1.
          2   -1    0    0  502    0 -0.00000000000E+00 -0.00000000000E+00 -0.92563617757E+03  0.92563617757E+03  0.00000000000E+00 0.  1.
         21    1    1    2  503  501  0.13312922446E+02  0.18752381834E+02  0.11711156258E+03  0.11934824598E+03  0.00000000000E+00 0. -1.
          2    1    1    2  501    0 -0.13312922446E+02 -0.18752381834E+02 -0.92437481923E+03  0.92466085251E+03  0.00000000000E+00 0.  1.
</event>
<event>
 4    1  0.1635676E+006  0.2262265E+02  0.7546771E-02  0.1497292E+00
          1   -1    0    0  503    0 -0.00000000000E+00  0.00000000000E+00  0.64812462792E+03  0.64812462792E+03  0.00000000000E+00 0.  1.
         21   -1    0    0  501  502  0.00000000000E+00 -0.00000000000E+00 -0.10024254868E+01  0.10024254868E+01  0.00000000000E+00 0.  1.
         21    1    1    2  503  502  0.20385007438E+02 -0.98099899545E+01  0.17402509840E+03  0.17548937091E+03  0.00000000000E+00 0.  1.
          1    1    1    2  501    0 -0.20385007438E+02  0.98099899545E+01  0.47309710404E+03  0.47363768250E+03  0.00000000000E+00 0.  1.
</event>
<event>
 4    1  0.1635676E+006  0.2558087E+02  0.7546771E-02  0.1462409E+00
         21   -1    0    0  501  502  0.00000000000E+00  0.00000000000E+00  0.18129900137E+03  0.18129900137E+03  0.00000000000E+00 0.  1.
          3   -1    0    0  503    0 -0.00000000000E+00 -0.00000000000E+00 -0.51174359925E+02  0.51174359925E+02  0.00000000000E+00 0. -1.
         21    1    1    2  503  502 -0.25466948411E+02  0.24114730920E+01  0.17712488502E+03  0.17896258144E+03  0.00000000000E+00 0.  1.
          3    1    1    2  501    0  0.25466948411E+02 -0.24114730920E+01 -0.47000243576E+02  0.53510779849E+02  0.00000000000E+00 0. -1.
</event>
<event>
 4    1  0.1635676E+006  0.3218957E+02  0.7546771E-02  0.1401477E+00
         21   -1    0    0  503  502  0.00000000000E+00  0.00000000000E+00  0.28420000931E+03  0.28420000931E+03  0.00000000000E+00 0.  1.
         -3   -1    0    0    0  501 -0.00000000000E+00 -0.00000000000E+00 -0.20161845485E+03  0.20161845485E+03  0.00000000000E+00 0.  1.
         21    1    1    2  503  501 -0.13406177825E+02  0.29265043224E+02  0.28199369799E+03  0.28382497083E+03  0.00000000000E+00 0.  1.
         -3    1    1    2    0  502  0.13406177825E+02 -0.29265043224E+02 -0.19941214353E+03  0.20199349333E+03  0.00000000000E+00 0.  1.
</event>
<event>
 4    1  0.1635676E+006  0.3957366E+02  0.7546771E-02  0.1351002E+00
         -1   -1    0    0    0  501 -0.00000000000E+00  0.00000000000E+00  0.32445650082E+03  0.32445650082E+03  0.00000000000E+00 0. -1.
         21   -1    0    0  503  502  0.00000000000E+00 -0.00000000000E+00 -0.15260639886E+02  0.15260639886E+02  0.00000000000E+00 0.  1.
         21    1    1    2  503  501 -0.30505405888E+02 -0.25209022468E+02  0.14147217438E+02  0.42026400790E+02  0.00000000000E+00 0.  1.
         -1    1    1    2    0  502  0.30505405888E+02  0.25209022468E+02  0.29504864350E+03  0.29769073992E+03  0.00000000000E+00 0. -1.
</event>
<event>
 4    1  0.1635676E+006  0.3025950E+02  0.7546771E-02  0.1417354E+00
         21   -1    0    0  503  502  0.00000000000E+00  0.00000000000E+00  0.27218857290E+02  0.27218857290E+02  0.00000000000E+00 0. -1.
          1   -1    0    0  502    0 -0.00000000000E+00 -0.00000000000E+00 -0.57933294125E+02  0.57933294125E+02  0.00000000000E+00 0.  1.
         21    1    1    2  503  501 -0.24392262173E+02  0.17906846911E+02  0.12213385437E+02  0.32631340825E+02  0.00000000000E+00 0. -1.
          1    1    1    2  501    0  0.24392262173E+02 -0.17906846911E+02 -0.42927822271E+02  0.52520810591E+02  0.00000000000E+00 0.  1.
</event>
<event>
 4    1  0.1635676E+006  0.3422241E+02  0.7546771E-02  0.1386114E+00
          2   -1    0    0  502    0 -0.00000000000E+00  0.00000000000E+00  0.11241098242E+04  0.11241098242E+04  0.00000000000E+00 0.  1.
         21   -1    0    0  503  502  0.00000000000E+00 -0.00000000000E+00 -0.13256156049E+01  0.13256156049E+01  0.00000000000E+00 0.  1.
         21    1    1    2  503  501 -0.33640056862E+02 -0.62864980813E+01  0.30104768187E+03  0.30298660076E+03  0.00000000000E+00 0.  1.
          2    1    1    2  501    0  0.33640056862E+02  0.62864980813E+01  0.82173652676E+03  0.82244883908E+03  0.00000000000E+00 0.  1.
</event>
<event>
 4    1  0.1635676E+006  0.2950508E+02  0.7546771E-02  0.1423947E+00
         -1   -1    0    0    0  501 -0.00000000000E+00  0.00000000000E+00  0.40240695059E+03  0.40240695059E+03  0.00000000000E+00 0. -1.
         21   -1    0    0  503  502  0.00000000000E+00 -0.00000000000E+00 -0.27427336071E+01  0.27427336071E+01  0.00000000000E+00 0.  1.
         21    1    1    2  503  501  0.27726928110E+02  0.10087971214E+02  0.10672682046E+03  0.11073014003E+03  0.00000000000E+00 0.  1.
         -1    1    1    2    0  502 -0.27726928110E+02 -0.10087971214E+02  0.29293739653E+03  0.29441954417E+03  0.00000000000E+00 0. -1.
</event>
<event>
 4    1  0.1635676E+006  0.3202669E+02  0.7546771E-02  0.1402765E+00
         -1   -1    0    0    0  501 -0.00000000000E+00  0.00000000000E+00  0.15810907358E+03  0.15810907358E+03  0.00000000000E+00 0. -1.
         21   -1    0    0  501  502  0.00000000000E+00 -0.00000000000E+00 -0.12154662562E+02  0.12154662562E+02  0.00000000000E+00 0.  1.
         21    1    1    2  503  502  0.31316913891E+02  0.67052024142E+01  0.14846002833E+02  0.35300320610E+02  0.00000000000E+00 0.  1.
         -1    1    1    2    0  503 -0.31316913891E+02 -0.67052024142E+01  0.13110840818E+03  0.13496341553E+03  0.00000000000E+00 0. -1.
</event>
<event>
 4    1  0.1635676E+006  0.4439221E+02  0.7546771E-02  0.1324507E+00
         -1   -1    0    0    0  501 -0.00000000000E+00  0.00000000000E+00  0.16438572711E+03  0.16438572711E+03  0.00000000000E+00 0.  1.
         21   -1    0    0  503  502  0.00000000000E+00 -0.00000000000E+00 -0.90771162265E+02  0.90771162265E+02  0.00000000000E+00 0.  1.
         21    1    1    2  503  501  0.38852902318E+02 -0.21473707337E+02 -0.82048374825E+02  0.93287748053E+02  0.00000000000E+00 0.  1.
         -1    1    1    2    0  502 -0.38852902318E+02  0.21473707337E+02  0.15566293967E+03  0.16186914132E+03  0.00000000000E+00 0.  1.
</event>
<event>
 4    1  0.1635676E+006  0.2165693E+02  0.7546771E-02  0.1510089E+00
         21   -1    0    0  503  502  0.00000000000E+00  0.00000000000E+00  0.64108119777E+01  0.64108119777E+01  0.00000000000E+00 0. -1.
          2   -1    0    0  502    0 -0.00000000000E+00 -0.00000000000E+00 -0.14131923851E+03  0.14131923851E+03  0.00000000000E+00 0.  1.
         21    1    1    2  503  501  0.56470500522E+01  0.20907731879E+02 -0.16156632659E+02  0.27019607797E+02  0.00000000000E+00 0. -1.
          2    1    1    2  501    0 -0.56470500522E+01 -0.20907731879E+02 -0.11875179388E+03  0.12071044270E+03  0.00000000000E+00 0.  1.
</event>
<event>
 4    1  0.1635676E+006  0.2807451E+02  0.7546771E-02  0.1437103E+00
         21   -1    0    0  501  502  0.00000000000E+00  0.00000000000E+00  0.45541963749E+01  0.45541963749E+01  0.00000000000E+00 0.  1.
          2   -1    0    0  503    0 -0.00000000000E+00 -0.00000000000E+00 -0.17545587086E+03  0.17545587086E+03  0.00000000000E+00 0.  1.
         21    1    1    2  503  502  0.23143109114E+01 -0.27978961056E+02 -0.95954365453E+02  0.99977090107E+02  0.00000000000E+00 0.  1.
          2    1    1    2  501    0 -0.23143109114E+01  0.27978961056E+02 -0.74947309029E+02  0.80032977125E+02  0.00000000000E+00 0.  1.
</event>
<event>
 4    1  0.1635676E+006  0.3355910E+02  0.7546771E-02  0.1390986E+00
         21   -1    0    0  501  502  0.00000000000E+00  0.00000000000E+00  0.17674596662E+01  0.17674596662E+01  0.00000000000E+00 0.  1.
          3   -1    0    0  503    0 -0.00000000000E+00 -0.00000000000E+00 -0.84230642567E+03  0.84230642567E+03  0.00000000000E+00 0.  1.
         21    1    1    2  503  502  0.12903977979E+02 -0.30979032155E+02 -0.21200636640E+03  0.21464601668E+03  0.00000000000E+00 0.  1.
          3    1    1    2  501    0 -0.12903977979E+02  0.30979032155E+02 -0.62853259960E+03  0.62942786866E+03  0.00000000000E+00 0.  1.
</event>
<event>
 4    1  0.1635676E+006  0.2002436E+02  0.7546771E-02  0.1533664E+00
         -4   -1    0    0    0  501 -0.00000000000E+00  0.00000000000E+00  0.21122257730E+01  0.21122257730E+01  0.00000000000E+00 0. -1.
         21   -1    0    0  501  502  0.00000000000E+00 -0.00000000000E+00 -0.53710340095E+03  0.53710340095E+03  0.00000000000E+00 0. -1.
         21    1    1    2  503  502 -0.55599708234E+01 -0.19236986186E+02 -0.48428396690E+03  0.48469777750E+03  0.00000000000E+00 0. -1.
         -4    1    1    2    0  503  0.55599708234E+01  0.19236986186E+02 -0.50707208275E+02  0.54517849225E+02  0.00000000000E+00 0. -1.
</event>
<event>
 4    1  0.1635676E+006  0.7836580E+02  0.7546771E-02  0.1207693E+00
         -2   -1    0    0    0  501 -0.00000000000E+00  0.00000000000E+00  0.26357498838E+03  0.26357498838E+03  0.00000000000E+00 0.  1.
         21   -1    0    0  503  502  0.00000000000E+00 -0.00000000000E+00 -0.19854644117E+03  0.19854644117E+03  0.00000000000E+00 0. -1.
         21    1    1    2  503  501  0.69714352920E+02 -0.35792555433E+02 -0.18456588437E+03  0.20051374941E+03  0.00000000000E+00 0. -1.
         -2    1    1    2    0  502 -0.69714352920E+02  0.35792555433E+02  0.24959443159E+03  0.26160768014E+03  0.00000000000E+00 0.  1.
</event>
<event>
 4    1  0.1635676E+006  0.2008313E+02  0.7546771E-02  0.1532769E+00
         21   -1    0    0  501  502  0.00000000000E+00  0.00000000000E+00  0.27275008030E+02  0.27275008030E+02  0.00000000000E+00 0.  1.
         -4   -1    0    0    0  501 -0.00000000000E+00 -0.00000000000E+00 -0.87048962313E+02  0.87048962313E+02  0.00000000000E+00 0.  1.
         21    1    1    2  503  502 -0.14115646302E+02 -0.14285675759E+02  0.22193933086E+02  0.29931633237E+02  0.00000000000E+00 0.  1.
         -4    1    1    2    0  503  0.14115646302E+02  0.14285675759E+02 -0.81967887369E+02  0.84392337105E+02  0.00000000000E+00 0.  1.
</event>
<event>
 4    1  0.1635676E+006  0.3749388E+02  0.7546771E-02  0.1363832E+00
         21   -1    0    0  503  502  0.00000000000E+00  0.00000000000E+00  0.89929050649E+02  0.89929050649E+02  0.00000000000E+00 0. -1.
          1   -1    0    0  502    0 -0.00000000000E+00 -0.00000000000E+00 -0.24927913662E+02  0.24927913662E+02  0.00000000000E+00 0.  1.
         21    1    1    2  503  501  0.25984051340E+02  0.27029988792E+02  0.67569710457E+02  0.77275202940E+02  0.00000000000E+00 0. -1.
          1    1    1    2  501    0 -0.25984051340E+02 -0.27029988792E+02 -0.25685734708E+01  0.37581761371E+02  0.00000000000E+00 0.  1.
</event>
<event>
 4    1  0.1635676E+006  0.2049731E+02  0.7546771E-02  0.1526564E+00
         21   -1    0    0  503  502  0.00000000000E+00  0.00000000000E+00  0.56862517224E+01  0.56862517224E+01  0.00000000000E+00 0.  1.
          3   -1    0    0  502    0 -0.00000000000E+00 -0.00000000000E+00 -0.31079246178E+03  0.31079246178E+03  0.00000000000E+00 0.  1.
         21    1    1    2  503  501 -0.20413464210E+02 -0.18520354308E+01 -0.14398014479E+02  0.25048799916E+02  0.00000000000E+00 0.  1.
          3    1    1    2  501    0  0.20413464210E+02  0.18520354308E+01 -0.29070819558E+03  0.29142991359E+03  0.00000000000E+00 0.  1.
</event>
<event>
 4    1  0.1635676E+006  0.2081960E+02  0.7546771E-02  0.1521856E+00
          2   -1    0    0  502    0 -0.00000000000E+00  0.00000000000E+00  0.17574527446E+02  0.17574527446E+02  0.00000000000E+00 0. -1.
         21   -1    0    0  503  502  0.00000000000E+00 -0.00000000000E+00 -0.30428858271E+02  0.30428858271E+02  0.00000000000E+00 0.  1.
         21    1    1    2  503  501 -0.20247293179E+02 -0.48479649844E+01 -0.16874336799E+02  0.26799232974E+02  0.00000000000E+00 0.  1.
          2    1    1    2  501    0  0.20247293179E+02  0.48479649844E+01  0.40200059742E+01  0.21204152744E+02  0.00000000000E+00 0. -1.
</event>
<event>
 4    1  0.1635676E+006  0.2301120E+02  0.7546771E-02  0.1492358E+00
          2   -1    0    0  502    0 -0.00000000000E+00  0.00000000000E+00  0.15533598295E+03  0.15533598295E+03  0.00000000000E+00 0.  1.
         21   -1    0    0  503  502  0.00000000000E+00 -0.00000000000E+00 -0.42882360936E+01  0.42882360936E+01  0.00000000000E+00 0.  1.
         21    1    1    2  503  501  0.17744144754E+01  0.22942688014E+02  0.39381076062E+02  0.45611233614E+02  0.00000000000E+00 0.  1.
          2    1    1    2  501    0 -0.17744144754E+01 -0.22942688014E+02  0.11166667079E+03  0.11401298542E+03  0.00000000000E+00 0.  1.
</event>
<event>
 4    1  0.1635676E+006  0.3185842E+02  0.7546771E-02  0.1404106E+00
         21   -1    0    0  501  502  0.00000000000E+00  0.00000000000E+00  0.57524503954E+01  0.57524503954E+01  0.00000000000E+00 0.  1.
          2   -1    0    0  503    0 -0.00000000000E+00 -0.00000000000E+00 -0.24727515529E+03  0.24727515529E+03  0.00000000000E+00 0.  1.
         21    1    1    2  503  502 -0.32115798096E+01 -0.31696135261E+02 -0.53048087869E+02  0.61879389637E+02  0.00000000000E+00 0.  1.
          2    1    1    2  501    0  0.32115798096E+01  0.31696135261E+02 -0.18847461702E+03  0.19114821605E+03  0.00000000000E+00 0.  1.
</event>
<event>
 4    1  0.1635676E+006  0.2104882E+02  0.7546771E-02  0.1518569E+00
          4   -1    0    0  502    0 -0.00000000000E+00  0.00000000000E+00  0.11199802103E+03  0.11199802103E+03  0.00000000000E+00 0. -1.
         21   -1    0    0  503  502  0.00000000000E+00 -0.00000000000E+00 -0.75483797727E+01  0.75483797727E+01  0.00000000000E+00 0. -1.
         21    1    1    2  503  501  0.18547597316E+02 -0.99518529148E+01  0.10988782951E+02  0.23744601352E+02  0.00000000000E+00 0. -1.
          4    1    1    2  501    0 -0.18547597316E+02  0.99518529148E+01  0.93460858308E+02  0.95801799452E+02  0.00000000000E+00 0. -1.
</event>
<event>
 4    1  0.1635676E+006  0.2183598E+02  0.7546771E-02  0.1507656E+00
         -2   -1    0    0    0  501 -0.00000000000E+00  0.00000000000E+00  0.22554961917E+03  0.22554961917E+03  0.00000000000E+00 0. -1.
         21   -1    0    0  503  502  0.00000000000E+00 -0.00000000000E+00 -0.21439338074E+01  0.21439338074E+01  0.00000000000E+00 0. -1.
         21    1    1    2  503  501 -0.18292614535E+02  0.11924349247E+02  0.98248522946E+02  0.10064582511E+03  0.00000000000E+00 0. -1.
         -2    1    1    2    0  502  0.18292614535E+02 -0.11924349247E+02  0.12515716242E+03  0.12704772786E+03  0.00000000000E+00 0. -1.
</event>
<event>
 4    1  0.1635676E+006  0.2135488E+02  0.7546771E-02  0.1514258E+00
          1   -1    0    0  502    0 -0.00000000000E+00  0.00000000000E+00  0.63677950082E+02  0.63677950082E+02  0.00000000000E+00 0. -1.
         21   -1    0    0  503  502  0.00000000000E+00 -0.00000000000E+00 -0.11636817727E+02  0.11636817727E+02  0.00000000000E+00 0.  1.
         21    1    1    2  503  501 -0.38694093971E+01  0.21001395823E+02  0.26674970986E+01  0.21520838653E+02  0.00000000000E+00 0.  1.
          1    1    1    2  501    0  0.38694093971E+01 -0.21001395823E+02  0.49373635256E+02  0.53793929155E+02  0.00000000000E+00 0. -1.
</event>
<event>
 4    1  0.1635676E+006  0.2885193E+02  0.7546771E-02  0.1429842E+00
          1   -1    0    0  502    0 -0.00000000000E+00  0.00000000000E+00  0.11232693824E+04  0.11232693824E+04  0.00000000000E+00 0.  1.
         21   -1    0    0  503  502  0.00000000000E+00 -0.00000000000E+00 -0.40155745118E+01  0.40155745118E+01  0.00000000000E+00 0.  1.
         21    1    1    2  503  501 -0.25153749754E+02  0.14132325529E+02  0.50645483441E+02  0.58287209099E+02  0.00000000000E+00 0.  1.
          1    1    1    2  501    0  0.25153749754E+02 -0.14132325529E+02  0.10686083244E+04  0.10689977478E+04  0.00000000000E+00 0.  1.
</event>
<event>
 4    1  0.1635676E+006  0.2060642E+02  0.7546771E-02  0.1524959E+00
         -2   -1    0    0    0  501 -0.00000000000E+00  0.00000000000E+00  0.14627129172E+03  0.14627129172E+03  0.00000000000E+00 0.  1.
         21   -1    0    0  503  502  0.00000000000E+00 -0.00000000000E+00 -0.84047834276E+03  0.84047834276E+03  0.00000000000E+00 0. -1.
         21    1    1    2  503  501 -0.12816890018E+02 -0.16135428187E+02 -0.83962555272E+03  0.83987838018E+03  0.00000000000E+00 0. -1.
         -2    1    1    2    0  502  0.12816890018E+02  0.16135428187E+02  0.14541850167E+03  0.14687125430E+03  0.00000000000E+00 0.  1.
</event>
<event>
 4    1  0.1635676E+006  0.2497511E+02  0.7546771E-02  0.1469082E+00
          1   -1    0    0  502    0 -0.00000000000E+00  0.00000000000E+00  0.99984734481E+02  0.99984734481E+02  0.00000000000E+00 0. -1.
         21   -1    0    0  503  502  0.00000000000E+00 -0.00000000000E+00 -0.20721700592E+02  0.20721700592E+02  0.00000000000E+00 0. -1.
         21    1    1    2  503  501 -0.15494459275E+02 -0.19587695876E+02 -0.10825294695E+02  0.27220270079E+02  0.00000000000E+00 0. -1.
          1    1    1    2  501    0  0.15494459275E+02  0.19587695876E+02  0.90088328584E+02  0.93486164993E+02  0.00000000000E+00 0. -1.
</event>
<event>
 4    1  0.1635676E+006  0.2305504E+02  0.7546771E-02  0.1491808E+00
         21   -1    0    0  501  502  0.00000000000E+00  0.00000000000E+00  0.17193732731E+02  0.17193732731E+02  0.00000000000E+00 0. -1.
          3   -1    0    0  503    0 -0.00000000000E+00 -0.00000000000E+00 -0.10282485652E+03  0.10282485652E+03  0.00000000000E+00 0.  1.
         21    1    1    2  503  502  0.23009433971E+02 -0.14494777812E+01  0.73684404083E+01  0.24203903643E+02  0.00000000000E+00 0. -1.
          3    1    1    2  501    0 -0.23009433971E+02  0.14494777812E+01 -0.92999564192E+02  0.95814685604E+02  0.00000000000E+00 0.  1.
</event>
<event>
 4    1  0.1635676E+006  0.2466898E+02  0.7546771E-02  0.1472541E+00
         21   -1    0    0  501  502  0.00000000000E+00  0.00000000000E+00  0.12945897710E+01  0.12945897710E+01  0.00000000000E+00 0.  1.
          3   -1    0    0  503    0 -0.00000000000E+00 -0.00000000000E+00 -0.48090491084E+03  0.48090491084E+03  0.00000000000E+00 0.  1.
         21    1    1    2  503  502 -0.30528535375E+01 -0.24479355399E+02 -0.20363000808E+03  0.20511884103E+03  0.00000000000E+00 0.  1.
          3    1    1    2  501    0  0.30528535375E+01  0.24479355399E+02 -0.27598031299E+03  0.27708065958E+03  0.00000000000E+00 0.  1.
</event>
<event>
 4    1  0.1635676E+006  0.2655380E+02  0.7546771E-02  0.1452142E+00
         21   -1    0    0  503  502  0.00000000000E+00  0.00000000000E+00  0.43280679887E+01  0.43280679887E+01  0.00000000000E+00 0. -1.
          2   -1    0    0  502    0 -0.00000000000E+00 -0.00000000000E+00 -0.12621299802E+04  0.12621299802E+04  0.00000000000E+00 0. -1.
         21    1    1    2  503  501 -0.26051852636E+02 -0.51385973433E+01 -0.37951650522E+02  0.46318808121E+02  0.00000000000E+00 0. -1.
          2    1    1    2  501    0  0.26051852636E+02  0.51385973433E+01 -0.12198502617E+04  0.12201392401E+04  0.00000000000E+00 0. -1.
</event>
<event>
 4    1  0.1635676E+006  0.2721312E+02  0.7546771E-02  0.1445479E+00
         21   -1    0    0  503  502  0.00000000000E+00  0.00000000000E+00  0.10209585233E+03  0.10209585233E+03  0.00000000000E+00 0. -1.
          2   -1    0    0  502    0 -0.00000000000E+00 -0.00000000000E+00 -0.12463967153E+04  0.12463967153E+04  0.00000000000E+00 0. -1.
         21    1    1    2  503  501 -0.22462208078E+02 -0.15362397664E+02  0.10013107123E+03  0.10376312197E+03  0.00000000000E+00 0. -1.
          2    1    1    2  501    0  0.22462208078E+02  0.15362397664E+02 -0.12444319342E+04  0.12447294457E+04  0.00000000000E+00 0. -1.
</event>
<event>
 4    1  0.1635676E+006  0.3550933E+02  0.7546771E-02  0.1377017E+00
         21   -1    0    0  503  502  0.00000000000E+00  0.00000000000E+00  0.29557791617E+03  0.29557791617E+03  0.00000000000E+00 0. -1.
         -1   -1    0    0    0  501 -0.00000000000E+00 -0.00000000000E+00 -0.75187809006E+02  0.75187809006E+02  0.00000000000E+00 0.  1.
         21    1    1    2  503  501 -0.15871815588E+02  0.31764725115E+02  0.29024210392E+03  0.29240620921E+03  0.00000000000E+00 0. -1.
         -1    1    1    2    0  502  0.15871815588E+02 -0.31764725115E+02 -0.69851996760E+02  0.78359515970E+02  0.00000000000E+00 0.  1.
</event>
<event>
 4    1  0.1635676E+006  0.3859090E+02  0.7546771E-02  0.1356947E+00
         21   -1    0    0  503  502  0.00000000000E+00  0.00000000000E+00  0.21318987628E+03  0.21318987628E+03  0.00000000000E+00 0.  1.
          1   -1    0    0  502    0 -0.00000000000E+00 -0.00000000000E+00 -0.17819914080E+03  0.17819914080E+03  0.00000000000E+00 0. -1.
         21    1    1    2  503  501 -0.31231113448E+02 -0.22668818926E+02  0.20931581479E+03  0.21284352967E+03  0.00000000000E+00 0.  1.
          1    1    1    2  501    0  0.31231113448E+02  0.22668818926E+02 -0.17432507931E+03  0.17854548741E+03  0.00000000000E+00 0. -1.
</event>
<event>
 4    1  0.1635676E+006  0.2333627E+02  0.7546771E-02  0.1488318E+00
          1   -1    0    0  502    0 -0.00000000000E+00  0.00000000000E+00  0.11190779876E+04  0.11190779876E+04  0.00000000000E+00 0. -1.
         21   -1    0    0  503  502  0.00000000000E+00 -0.00000000000E+00 -0.11705925153E+03  0.11705925153E+03  0.00000000000E+00 0.  1.
         21    1    1    2  503  501  0.51976058233E+01 -0.22750082875E+02 -0.11577320864E+03  0.11810172402E+03  0.00000000000E+00 0.  1.
          1    1    1    2  501    0 -0.51976058233E+01  0.22750082875E+02  0.11177919448E+04  0.11180355151E+04  0.00000000000E+00 0. -1.
</event>
<event>
 4    1  0.1635676E+006  0.2034187E+02  0.7546771E-02  0.1528872E+00
         21   -1    0    0  501  502  0.00000000000E+00  0.00000000000E+00  0.23452555528E+03  0.23452555528E+03  0.00000000000E+00 0. -1.
         -2   -1    0    0    0  501 -0.00000000000E+00 -0.00000000000E+00 -0.29679099701E+01  0.29679099701E+01  0.00000000000E+00 0.  1.
         21    1    1    2  503  502 -0.19524831186E+02  0.57072434060E+01  0.19139682093E+03  0.19247476386E+03  0.00000000000E+00 0. -1.
         -2    1    1    2    0  503  0.19524831186E+02 -0.57072434060E+01  0.40160824377E+02  0.45018701389E+02  0.00000000000E+00 0.  1.
</event>
<event>
 4    1  0.1635676E+006  0.3586308E+02  0.7546771E-02  0.1374595E+00
         21   -1    0    0  501  502  0.00000000000E+00  0.00000000000E+00  0.38073163384E+03  0.38073163384E+03  0.00000000000E+00 0.  1.
          4   -1    0    0  503    0 -0.00000000000E+00 -0.00000000000E+00 -0.17350218301E+03  0.17350218301E+03  0.00000000000E+00 0.  1.
         21    1    1    2  503  502 -0.22548021022E+00  0.35862374771E+02  0.37802060624E+03  0.37971797364E+03  0.00000000000E+00 0.  1.
          4    1    1    2  501    0  0.22548021022E+00 -0.35862374771E+02 -0.17079115540E+03  0.17451584321E+03  0.00000000000E+00 0.  1.
</event>
<event>
 4    1  0.1635676E+006  0.2699077E+02  0.7546771E-02  0.1447701E+00
          3   -1    0    0  503    0 -0.00000000000E+00  0.00000000000E+00  0.21149530691E+02  0.21149530691E+02  0.00000000000E+00 0.  1.
         21   -1    0    0  501  502  0.00000000000E+00 -0.00000000000E+00 -0.36084985455E+02  0.36084985455E+02  0.00000000000E+00 0.  1.
         21    1    1    2  503  502  0.24318846109E+02  0.11708772695E+02 -0.13674880433E+01  0.27025389131E+02  0.00000000000E+00 0.  1.
          3    1    1    2  501    0 -0.24318846109E+02 -0.11708772695E+02 -0.13567966720E+02  0.30209127016E+02  0.00000000000E+00 0.  1.
</event>
<event>
 4    1  0.1635676E+006  0.3251474E+02  0.7546771E-02  0.1398931E+00
         21   -1    0    0  501  502  0.00000000000E+00  0.00000000000E+00  0.90126315093E+00  0.90126315093E+00  0.00000000000E+00 0.  1.
          1   -1    0    0  503    0 -0.00000000000E+00 -0.00000000000E+00 -0.21047133748E+04  0.21047133748E+04  0.00000000000E+00 0. -1.
         21    1    1    2  503  502  0.15220247929E+02 -0.28732432345E+02 -0.35144077592E+03  0.35294167732E+03  0.00000000000E+00 0.  1.
          1    1    1    2  501    0 -0.15220247929E+02  0.28732432345E+02 -0.17523713357E+04  0.17526729606E+04  0.00000000000E+00 0. -1.
</event>
<event>
 4    1  0.1635676E+006  0.2004947E+02  0.7546771E-02  0.1533281E+00
          1   -1    0    0  502    0 -0.00000000000E+00  0.00000000000E+00  0.32905659806E+03  0.32905659806E+03  0.00000000000E+00 0. -1.
         21   -1    0    0  503  502  0.00000000000E+00 -0.00000000000E+00 -0.39028767049E+01  0.39028767049E+01  0.00000000000E+00 0. -1.
         21    1    1    2  503  501  0.17633096405E+02  0.95422800928E+01  0.24589791247E+02  0.31727575258E+02  0.00000000000E+00 0. -1.
          1    1    1    2  501    0 -0.17633096405E+02 -0.95422800928E+01  0.30056393011E+03  0.30123189951E+03  0.00000000000E+00 0. -1.
</event>
<event>
 4    1  0.1635676E+006  0.2023550E+02  0.7546771E-02  0.1530466E+00
         21   -1    0    0  503  502  0.00000000000E+00  0.00000000000E+00  0.64365508625E+02  0.64365508625E+02  0.00000000000E+00 0.  1.
          1   -1    0    0  502    0 -0.00000000000E+00 -0.00000000000E+00 -0.17008143102E+03  0.17008143102E+03  0.00000000000E+00 0.  1.
         21    1    1    2  503  501 -0.20183187575E+02  0.14540447830E+01  0.62152304622E+02  0.65363478157E+02  0.00000000000E+00 0.  1.
          1    1    1    2  501    0  0.20183187575E+02 -0.14540447830E+01 -0.16786822702E+03  0.16908346149E+03  0.00000000000E+00 0.  1.
</event>
<event>
 4    1  0.1635676E+006  0.2005336E+02  0.7546771E-02  0.1533222E+00
         21   -1    0    0  503  502  0.00000000000E+00  0.00000000000E+00  0.43438868795E+02  0.43438868795E+02  0.00000000000E+00 0. -1.
         -3   -1    0    0    0  501 -0.00000000000E+00 -0.00000000000E+00 -0.96360785209E+01  0.96360785209E+01  0.00000000000E+00 0.  1.
         21    1    1    2  503  501  0.57621634107E+01 -0.19207672918E+02  0.22161111556E+02  0.29887323258E+02  0.00000000000E+00 0. -1.
         -3    1    1    2    0  502 -0.57621634107E+01  0.19207672918E+02  0.11641678718E+02  0.23187624059E+02  0.00000000000E+00 0.  1.
</event>
<event>
 4    1  0.1635676E+006  0.2200583E+02  0.7546771E-02  0.1505374E+00
          2   -1    0    0  502    0 -0.00000000000E+00  0.00000000000E+00  0.14840483608E+04  0.14840483608E+04  0.00000000000E+00 0. -1.
         21   -1    0    0  503  502  0.00000000000E+00 -0.00000000000E+00 -0.21913787686E+01  0.21913787686E+01  0.00000000000E+00 0. -1.
         21    1    1    2  503  501 -0.17418308962E+02 -0.13448386972E+02  0.55364771248E+02  0.59577802028E+02  0.00000000000E+00 0. -1.
          2    1    1    2  501    0  0.17418308962E+02  0.13448386972E+02  0.14264922108E+04  0.14266619375E+04  0.00000000000E+00 0. -1.
</event>
<event>
 4    1  0.1635676E+006  0.2803546E+02  0.7546771E-02  0.1437475E+00
         21   -1    0    0  503  502  0.00000000000E+00  0.00000000000E+00  0.68113458949E+02  0.68113458949E+02  0.00000000000E+00 0. -1.
          2   -1    0    0  502    0 -0.00000000000E+00 -0.00000000000E+00 -0.73064088141E+02  0.73064088141E+02  0.00000000000E+00 0.  1.
         21    1    1    2  503  501  0.19139804530E+02  0.20485483990E+02  0.62299835592E+02  0.68317323474E+02  0.00000000000E+00 0. -1.
          2    1    1    2  501    0 -0.19139804530E+02 -0.20485483990E+02 -0.67250464784E+02  0.72860223616E+02  0.00000000000E+00 0.  1.
</event>
<event>
 4    1  0.1635676E+006  0.2405228E+02  0.7546771E-02  0.1479691E+00
         21   -1    0    0  501  502  0.00000000000E+00  0.00000000000E+00  0.37406777554E+03  0.37406777554E+03  0.00000000000E+00 0.  1.
         -4   -1    0    0    0  501 -0.00000000000E+00 -0.00000000000E+00 -0.13012742682E+03  0.13012742682E+03  0.00000000000E+00 0. -1.
         21    1    1    2  503  502  0.38497875062E+01 -0.23742188804E+02  0.37256522733E+03  0.37334081080E+03  0.00000000000E+00 0.  1.
         -4    1    1    2    0  503 -0.38497875062E+01  0.23742188804E+02 -0.12862487861E+03  0.13085439156E+03  0.00000000000E+00 0. -1.
</event>
<event>
 4    1  0.1635676E+006  0.2966832E+02  0.7546771E-02  0.1422501E+00
         -2   -1    0    0    0  501 -0.00000000000E+00  0.00000000000E+00  0.11466573217E+03  0.11466573217E+03  0.00000000000E+00 0. -1.
         21   -1    0    0  501  502  0.00000000000E+00 -0.00000000000E+00 -0.74553656829E+02  0.74553656829E+02  0.00000000000E+00 0.  1.
         21    1    1    2  503  502  0.38799460013E+01  0.29413518232E+02 -0.69550707320E+02  0.75614217741E+02  0.00000000000E+00 0.  1.
         -2    1    1    2    0  503 -0.38799460013E+01 -0.29413518232E+02  0.10966278266E+03  0.11360517126E+03  0.00000000000E+00 0. -1.
</event>
<event>
 4    1  0.1635676E+006  0.2269280E+02  0.7546771E-02  0.1496392E+00
         21   -1    0    0  501  502  0.00000000000E+00  0.00000000000E+00  0.74414438169E+02  0.74414438169E+02  0.00000000000E+00 0.  1.
         -1   -1    0    0    0  501 -0.00000000000E+00 -0.00000000000E+00 -0.16135568059E+03  0.16135568059E+03  0.00000000000E+00 0. -1.
         21    1    1    2  503  502 -0.52880402553E+01 -0.22068073851E+02  0.71858815306E+02  0.75356835061E+02  0.00000000000E+00 0.  1.
         -1    1    1    2    0  503  0.52880402553E+01  0.22068073851E+02 -0.15880005773E+03  0.16041328370E+03  0.00000000000E+00 0. -1.
</event>
<event>
 4    1  0.1635676E+006  0.2314753E+02  0.7546771E-02  0.1490654E+00
         21   -1    0    0  501  502  0.00000000000E+00  0.00000000000E+00  0.63767232962E+00  0.63767232962E+00  0.00000000000E+00 0.  1.
          2   -1    0    0  503    0 -0.00000000000E+00 -0.00000000000E+00 -0.14029395077E+04  0.14029395077E+04  0.00000000000E+00 0. -1.
         21    1    1    2  503  502 -0.27183053486E+01  0.22987369210E+02 -0.25670520010E+03  0.25774671305E+03  0.00000000000E+00 0.  1.
          2    1    1    2  501    0  0.27183053486E+01 -0.22987369210E+02 -0.11455966353E+04  0.11458304670E+04  0.00000000000E+00 0. -1.
</event>
<event>
 4    1  0.1635676E+006  0.3118478E+02  0.7546771E-02  0.1409573E+00
         -4   -1    0    0    0  501 -0.00000000000E+00  0.00000000000E+00  0.41778644886E+03  0.41778644886E+03  0.00000000000E+00 0. -1.
         21   -1    0    0  503  502  0.00000000000E+00 -0.00000000000E+00 -0.23998722054E+02  0.23998722054E+02  0.00000000000E+00 0. -1.
         21    1    1    2  503  501 -0.30357681028E+02  0.71345327001E+01 -0.13012964484E+02  0.33790939598E+02  0.00000000000E+00 0. -1.
         -4    1    1    2    0  502  0.30357681028E+02 -0.71345327001E+01  0.40680069128E+03  0.40799423131E+03  0.00000000000E+00 0. -1.
</event>
<event>
 4    1  0.1635676E+006  0.2090908E+02  0.7546771E-02  0.1520567E+00
         21   -1    0    0  501  502  0.00000000000E+00  0.00000000000E+00  0.40009704698E+01  0.40009704698E+01  0.00000000000E+00 0. -1.
          1   -1    0    0  503    0 -0.00000000000E+00 -0.00000000000E+00 -0.13733026939E+03  0.13733026939E+03  0.00000000000E+00 0.  1.
         21    1    1    2  503  502  0.90142519122E+01  0.18866178909E+02 -0.34722482367E+02  0.40531965483E+02  0.00000000000E+00 0. -1.
          1    1    1    2  501    0 -0.90142519122E+01 -0.18866178909E+02 -0.98606816557E+02  0.10079927438E+03  0.00000000000E+00 0.  1.
</event>
<event>
 4    1  0.1635676E+006  0.2729018E+02  0.7546771E-02  0.1444715E+00
         21   -1    0    0  503  502  0.00000000000E+00  0.00000000000E+00  0.95392160757E+03  0.95392160757E+03  0.00000000000E+00 0. -1.
         -4   -1    0    0    0  501 -0.00000000000E+00 -0.00000000000E+00 -0.18225361022E+01  0.18225361022E+01  0.00000000000E+00 0.  1.
         21    1    1    2  503  501 -0.41459787061E+01 -0.26973404273E+02  0.83734903918E+03  0.83779363038E+03  0.00000000000E+00 0. -1.
         -4    1    1    2    0  502  0.41459787061E+01  0.26973404273E+02  0.11475003229E+03  0.11795051330E+03  0.00000000000E+00 0.  1.
</event>
<event>
 4    1  0.1635676E+006  0.2189088E+02  0.7546771E-02  0.1506916E+00
         21   -1    0    0  501  502  0.00000000000E+00  0.00000000000E+00  0.47932527746E+03  0.47932527746E+03  0.00000000000E+00 0.  1.
          3   -1    0    0  503    0 -0.00000000000E+00 -0.00000000000E+00 -0.11011440870E+02  0.11011440870E+02  0.00000000000E+00 0.  1.
         21    1    1    2  503  502 -0.65382914132E+01  0.20891662094E+02  0.46793070865E+03  0.46844248195E+03  0.00000000000E+00 0.  1.
          3    1    1    2  501    0  0.65382914132E+01 -0.20891662094E+02  0.38312794223E+00  0.21894236380E+02  0.00000000000E+00 0.  1.
</event>
<event>
 4    1  0.1635676E+006  0.3260447E+02  0.7546771E-02  0.1398235E+00
          2   -1    0    0  503    0 -0.00000000000E+00  0.00000000000E+00  0.30525973827E+03  0.30525973827E+03  0.00000000000E+00 0. -1.
         21   -1    0    0  501  502  0.00000000000E+00 -0.00000000000E+00 -0.35129556017E+01  0.35129556017E+01  0.00000000000E+00 0. -1.
         21    1    1    2  503  502 -0.42645110649E+01  0.32324374211E+02  0.13648622553E+03  0.14032655123E+03  0.00000000000E+00 0. -1.
          2    1    1    2  501    0  0.42645110649E+01 -0.32324374211E+02  0.16526055714E+03  0.16844614264E+03  0.00000000000E+00 0. -1.
</event>
<event>
 4    1  0.1635676E+006  0.2993833E+02  0.7546771E-02  0.1420133E+00
          4   -1    0    0  503    0 -0.00000000000E+00  0.00000000000E+00  0.68873095508E+01  0.68873095508E+01  0.00000000000E+00 0. -1.
         21   -1    0    0  501  502  0.00000000000E+00 -0.00000000000E+00 -0.25964813433E+03  0.25964813433E+03  0.00000000000E+00 0. -1.
         21    1    1    2  503  502  0.17029122785E+02  0.24623412808E+02 -0.22050076994E+03  0.22252391562E+03  0.00000000000E+00 0. -1.
          4    1    1    2  501    0 -0.17029122785E+02 -0.24623412808E+02 -0.32260054840E+02  0.44011528256E+02  0.00000000000E+00 0. -1.
</event>
<event>
 4    1  0.1635676E+006  0.2217391E+02  0.7546771E-02  0.1503140E+00
         21   -1    0    0  501  502  0.00000000000E+00  0.00000000000E+00  0.41765542052E+01  0.41765542052E+01  0.00000000000E+00 0.  1.
          2   -1    0    0  503    0 -0.00000000000E+00 -0.00000000000E+00 -0.62020215314E+03  0.62020215314E+03  0.00000000000E+00 0.  1.
         21    1    1    2  503  502 -0.20247524578E+02  0.90399173203E+01 -0.27010501770E+02  0.34946381251E+02  0.00000000000E+00 0.  1.
          2    1    1    2  501    0  0.20247524578E+02 -0.90399173203E+01 -0.58901509716E+03  0.58943232609E+03  0.00000000000E+00 0.  1.
</event>
<event>
 4    1  0.1635676E+006  0.2235558E+02  0.7546771E-02  0.1500753E+00
          1   -1    0    0  503    0 -0.00000000000E+00  0.00000000000E+00  0.11898390155E+03  0.11898390155E+03  0.00000000000E+00 0. -1.
         21   -1    0    0  501  502  0.00000000000E+00 -0.00000000000E+00 -0.42603849441E+01  0.42603849441E+01  0.00000000000E+00 0. -1.
         21    1    1    2  503  502 -0.29385680747E+01  0.22161607837E+02  0.50045739429E+02  0.54811933730E+02  0.00000000000E+00 0. -1.
          1    1    1    2  501    0  0.29385680747E+01 -0.22161607837E+02  0.64677777174E+02  0.68432352761E+02  0.00000000000E+00 0. -1.
</event>
<event>
 4    1  0.1635676E+006  0.2614364E+02  0.7546771E-02  0.1456405E+00
         -1   -1    0    0    0  501 -0.00000000000E+00  0.00000000000E+00  0.70547581957E+02  0.70547581957E+02  0.00000000000E+00 0.  1.
         21   -1    0    0  501  502  0.00000000000E+00 -0.00000000000E+00 -0.15834644350E+02  0.15834644350E+02  0.00000000000E+00 0.  1.
         21    1    1    2  503  502  0.22176821086E+02 -0.13844801342E+02  0.44751632446E+00  0.26147470022E+02  0.00000000000E+00 0.  1.
         -1    1    1    2    0  503 -0.22176821086E+02  0.13844801342E+02  0.54265421282E+02  0.60234756284E+02  0.00000000000E+00 0.  1.
</event>
<event>
 4    1  0.1635676E+006  0.2257758E+02  0.7546771E-02  0.1497872E+00
         21   -1    0    0  503  502  0.00000000000E+00  0.00000000000E+00  0.79100452869E+02  0.79100452869E+02  0.00000000000E+00 0. -1.
          3   -1    0    0  502    0 -0.00000000000E+00 -0.00000000000E+00 -0.25706386834E+02  0.25706386834E+02  0.00000000000E+00 0. -1.
         21    1    1    2  503  501 -0.19573571091E+02  0.11252664596E+02  0.72058883733E+02  0.75513110587E+02  0.00000000000E+00 0. -1.
          3    1    1    2  501    0  0.19573571091E+02 -0.11252664596E+02 -0.18664817698E+02  0.29293729115E+02  0.00000000000E+00 0. -1.
</event>
<event>
 4    1  0.1635676E+006  0.2254548E+02  0.7546771E-02  0.1498286E+00
         21   -1    0    0  501  502  0.00000000000E+00  0.00000000000E+00  0.52823558629E+02  0.52823558629E+02  0.00000000000E+00 0.  1.
          1   -1    0    0  503    0 -0.00000000000E+00 -0.00000000000E+00 -0.39815201088E+02  0.39815201088E+02  0.00000000000E+00 0.  1.
         21    1    1    2  503  502  0.22528954502E+02 -0.86300067669E+00  0.46839798741E+02  0.51983317586E+02  0.00000000000E+00 0.  1.
          1    1    1    2  501    0 -0.22528954502E+02  0.86300067669E+00 -0.33831441200E+02  0.40655442131E+02  0.00000000000E+00 0.  1.
</event>
<event>
 4    1  0.1635676E+006  0.2740535E+02  0.7546771E-02  0.1443578E+00
         21   -1    0    0  503  502  0.00000000000E+00  0.00000000000E+00  0.16497155316E+03  0.16497155316E+03  0.00000000000E+00 0.  1.
          4   -1    0    0  502    0 -0.00000000000E+00 -0.00000000000E+00 -0.57020869128E+01  0.57020869128E+01  0.00000000000E+00 0.  1.
         21    1    1    2  503  501  0.15187099258E+02  0.22812386949E+02  0.41319845244E+02  0.49582079355E+02  0.00000000000E+00 0.  1.
          4    1    1    2  501    0 -0.15187099258E+02 -0.22812386949E+02  0.11794962101E+03  0.12109156072E+03  0.00000000000E+00 0.  1.
</event>
<event>
 4    1  0.1635676E+006  0.2922918E+02  0.7546771E-02  0.1426415E+00
         21   -1    0    0  501  502  0.00000000000E+00  0.00000000000E+00  0.11619078813E+02  0.11619078813E+02  0.00000000000E+00 0.  1.
          1   -1    0    0  503    0 -0.00000000000E+00 -0.00000000000E+00 -0.20922895757E+03  0.20922895757E+03  0.00000000000E+00 0. -1.
         21    1    1    2  503  502  0.28970144734E+02  0.38827051112E+01 -0.98762774415E+01  0.30852642366E+02  0.00000000000E+00 0.  1.
          1    1    1    2  501    0 -0.28970144734E+02 -0.38827051112E+01 -0.18773360132E+03  0.18999539402E+03  0.00000000000E+00 0. -1.
</event>
<event>
 4    1  0.1635676E+006  0.3277329E+02  0.7546771E-02  0.1396932E+00
         -3   -1    0    0    0  501 -0.00000000000E+00  0.00000000000E+00  0.13807206895E+03  0.13807206895E+03  0.00000000000E+00 0.  1.
         21   -1    0    0  501  502  0.00000000000E+00 -0.00000000000E+00 -0.78040605778E+01  0.78040605778E+01  0.00000000000E+00 0.  1.
         21    1    1    2  503  502  0.17086763546E+02  0.27966611055E+02  0.69251556384E+02  0.76615056510E+02  0.00000000000E+00 0.  1.
         -3    1    1    2    0  503 -0.17086763546E+02 -0.27966611055E+02  0.61016451986E+02  0.69261073016E+02  0.00000000000E+00 0.  1.
</event>
<event>
 4    1  0.1635676E+006  0.2897747E+02  0.7546771E-02  0.1428695E+00
         21   -1    0    0  501  502  0.00000000000E+00  0.00000000000E+00  0.81832430472E+00  0.81832430472E+00  0.00000000000E+00 0. -1.
          3   -1    0    0  503    0 -0.00000000000E+00 -0.00000000000E+00 -0.10334870313E+04  0.10334870313E+04  0.00000000000E+00 0.  1.
         21    1    1    2  503  502 -0.12910058920E+02  0.25942707756E+02 -0.47265252933E+03  0.47353997422E+03  0.00000000000E+00 0. -1.
          3    1    1    2  501    0  0.12910058920E+02 -0.25942707756E+02 -0.56001617772E+03  0.56076538143E+03  0.00000000000E+00 0.  1.
</event>
<event>
 4    1  0.1635676E+006  0.2097572E+02  0.7546771E-02  0.1519612E+00
          1   -1    0    0  502    0 -0.00000000000E+00  0.00000000000E+00  0.38396307111E+03  0.38396307111E+03  0.00000000000E+00 0. -1.
         21   -1    0    0  503  502  0.00000000000E+00 -0.00000000000E+00 -0.59954040723E+01  0.59954040723E+01  0.00000000000E+00 0.  1.
         21    1    1    2  503  501  0.14361628972E+02  0.15288045619E+02  0.13624817034E+02  0.25012324258E+02  0.00000000000E+00 0.  1.
          1    1    1    2  501    0 -0.14361628972E+02 -0.15288045619E+02  0.36434285001E+03  0.36494615093E+03  0.00000000000E+00 0. -1.
</event>
<event>
 4    1  0.1635676E+006  0.4203628E+02  0.7546771E-02  0.1336949E+00
         21   -1    0    0  503  502  0.00000000000E+00  0.00000000000E+00  0.53236358110E+02  0.53236358110E+02  0.00000000000E+00 0.  1.
         -3   -1    0    0    0  501 -0.00000000000E+00 -0.00000000000E+00 -0.54894499715E+02  0.54894499715E+02  0.00000000000E+00 0.  1.
         21    1    1    2  503  501  0.35972334880E+02 -0.21749486616E+02  0.33165133709E+02  0.53544141964E+02  0.00000000000E+00 0.  1.
         -3    1    1    2    0  502 -0.35972334880E+02  0.21749486616E+02 -0.34823275314E+02  0.54586715860E+02  0.00000000000E+00 0.  1.
</event>
<event>
 4    1  0.1635676E+006  0.2200203E+02  0.7546771E-02  0.1505425E+00
         21   -1    0    0  503  502  0.00000000000E+00  0.00000000000E+00  0.23469568101E+04  0.23469568101E+04  0.00000000000E+00 0.  1.
          4   -1    0    0  502    0 -0.00000000000E+00 -0.00000000000E+00 -0.24193650729E+00  0.24193650729E+00  0.00000000000E+00 0.  1.
         21    1    1    2  503  501  0.21998351229E+02  0.40250885856E+00  0.16240126080E+04  0.16241616423E+04  0.00000000000E+00 0.  1.
          4    1    1    2  501    0 -0.21998351229E+02 -0.40250885856E+00  0.72270226559E+03  0.72303710428E+03  0.00000000000E+00 0.  1.
</event>
<event>
 4    1  0.1635676E+006  0.2242715E+02  0.7546771E-02  0.1499820E+00
         21   -1    0    0  501  502  0.00000000000E+00  0.00000000000E+00  0.26237932732E+02  0.26237932732E+02  0.00000000000E+00 0. -1.
          4   -1    0    0  503    0 -0.00000000000E+00 -0.00000000000E+00 -0.42347029048E+02  0.42347029048E+02  0.00000000000E+00 0.  1.
         21    1    1    2  503  502  0.88300601090E+01 -0.20615695641E+02  0.17315298991E+02  0.28333662796E+02  0.00000000000E+00 0. -1.
          4    1    1    2  501    0 -0.88300601090E+01  0.20615695641E+02 -0.33424395307E+02  0.40251298984E+02  0.00000000000E+00 0.  1.
</event>
<event>
 4    1  0.1635676E+006  0.2272138E+02  0.7546771E-02  0.1496027E+00
         21   -1    0    0  503  502  0.00000000000E+00  0.00000000000E+00  0.54440842752E+02  0.54440842752E+02  0.00000000000E+00 0. -1.
         -3   -1    0    0    0  501 -0.00000000000E+00 -0.00000000000E+00 -0.30125247506E+02  0.30125247506E+02  0.00000000000E+00 0.  1.
         21    1    1    2  503  501  0.12105652337E+02 -0.19227961342E+02  0.47158734264E+02  0.52346991635E+02  0.00000000000E+00 0. -1.
         -3    1    1    2    0  502 -0.12105652337E+02  0.19227961342E+02 -0.22843139018E+02  0.32219098623E+02  0.00000000000E+00 0.  1.
</event>
<event>
 4    1  0.1635676E+006  0.2044503E+02  0.7546771E-02  0.1527338E+00
         21   -1    0    0  501  502  0.00000000000E+00  0.00000000000E+00  0.20235730889E+03  0.20235730889E+03  0.00000000000E+00 0. -1.
          1   -1    0    0  503    0 -0.00000000000E+00 -0.00000000000E+00 -0.35148359172E+01  0.35148359172E+01  0.00000000000E+00 0.  1.
         21    1    1    2  503  502 -0.38836686585E+01  0.20072775486E+02  0.16551755177E+03  0.16677547524E+03  0.00000000000E+00 0. -1.
          1    1    1    2  501    0  0.38836686585E+01 -0.20072775486E+02  0.33324921202E+02  0.39096669565E+02  0.00000000000E+00 0.  1.
</event>
<event>
 4    1  0.1635676E+006  0.3346226E+02  0.7546771E-02  0.1391709E+00
         21   -1    0    0  501  502  0.00000000000E+00  0.00000000000E+00  0.19049496132E+02  0.19049496132E+02  0.00000000000E+00 0.  1.
          4   -1    0    0  503    0 -0.00000000000E+00 -0.00000000000E+00 -0.16998340553E+03  0.16998340553E+03  0.00000000000E+00 0.  1.
         21    1    1    2  503  502  0.31410616940E+02 -0.11536716223E+02  0.98064838703E+00  0.33476623920E+02  0.00000000000E+00 0.  1.
          4    1    1    2  501    0 -0.31410616940E+02  0.11536716223E+02 -0.15191455779E+03  0.15555627774E+03  0.00000000000E+00 0.  1.
</event>
<event>
 4    1  0.1635676E+006  0.2695209E+02  0.7546771E-02  0.1448090E+00
         21   -1    0    0  503  502  0.00000000000E+00  0.00000000000E+00  0.61352307606E+02  0.61352307606E+02  0.00000000000E+00 0. -1.
          3   -1    0    0  502    0 -0.00000000000E+00 -0.00000000000E+00 -0.78358978272E+02  0.78358978272E+02  0.00000000000E+00 0. -1.
         21    1    1    2  503  501 -0.25838117454E+02  0.76685460073E+01  0.55858690577E+02  0.62021030501E+02  0.00000000000E+00 0. -1.
          3    1    1    2  501    0  0.25838117454E+02 -0.76685460073E+01 -0.72865361244E+02  0.77690255377E+02  0.00000000000E+00 0. -1.
</event>
<event>
 4    1  0.1635676E+006  0.2187604E+02  0.7546771E-02  0.1507115E+00
          3   -1    0    0  503    0 -0.00000000000E+00  0.00000000000E+00  0.10853349067E+03  0.10853349067E+03  0.00000000000E+00 0.  1.
         21   -1    0    0  501  502  0.00000000000E+00 -0.00000000000E+00 -0.21865315988E+02  0.21865315988E+02  0.00000000000E+00 0.  1.
         21    1    1    2  503  502 -0.18735610264E+02  0.11293271706E+02 -0.14921529937E+02  0.26480429253E+02  0.00000000000E+00 0.  1.
          3    1    1    2  501    0  0.18735610264E+02 -0.11293271706E+02  0.10158970462E+03  0.10391837741E+03  0.00000000000E+00 0.  1.
</event>
<event>
 4    1  0.1635676E+006  0.2553543E+02  0.7546771E-02  0.1462902E+00
          1   -1    0    0  502    0 -0.00000000000E+00  0.00000000000E+00  0.22160981757E+02  0.22160981757E+02  0.00000000000E+00 0. -1.
         21   -1    0    0  503  502  0.00000000000E+00 -0.00000000000E+00 -0.77239363160E+02  0.77239363160E+02  0.00000000000E+00 0.  1.
         21    1    1    2  503  501 -0.86603278303E+01  0.24022004738E+02 -0.66643413939E+02  0.71368078377E+02  0.00000000000E+00 0.  1.
          1    1    1    2  501    0  0.86603278303E+01 -0.24022004738E+02  0.11565032536E+02  0.28032266539E+02  0.00000000000E+00 0. -1.
</event>
<event>
 4    1  0.1635676E+006  0.2932967E+02  0.7546771E-02  0.1425512E+00
         -2   -1    0    0    0  501 -0.00000000000E+00  0.00000000000E+00  0.69150053153E+01  0.69150053153E+01  0.00000000000E+00 0.  1.
         21   -1    0    0  501  502  0.00000000000E+00 -0.00000000000E+00 -0.17805550859E+03  0.17805550859E+03  0.00000000000E+00 0. -1.
         21    1    1    2  503  502  0.28909688683E+00 -0.29328241298E+02 -0.13633946161E+03  0.13945851751E+03  0.00000000000E+00 0. -1.
         -2    1    1    2    0  503 -0.28909688683E+00  0.29328241298E+02 -0.34801041661E+02  0.45511996389E+02  0.00000000000E+00 0.  1.
</event>
<event>
 4    1  0.1635676E+006  0.2204183E+02  0.7546771E-02  0.1504894E+00
         21   -1    0    0  503  502  0.00000000000E+00  0.00000000000E+00  0.40892883819E+02  0.40892883819E+02  0.00000000000E+00 0. -1.
         -3   -1    0    0    0  501 -0.00000000000E+00 -0.00000000000E+00 -0.16749182146E+02  0.16749182146E+02  0.00000000000E+00 0. -1.
         21    1    1    2  503  501 -0.18128073161E+02 -0.12538551407E+02  0.27610123664E+02  0.35329325449E+02  0.00000000000E+00 0. -1.
         -3    1    1    2    0  502  0.18128073161E+02  0.12538551407E+02 -0.34664219916E+01  0.22312740516E+02  0.00000000000E+00 0. -1.
</event>
<event>
 4    1  0.1635676E+006  0.3040322E+02  0.7546771E-02  0.1416124E+00
          3   -1    0    0  503    0 -0.00000000000E+00  0.00000000000E+00  0.19785194087E+03  0.19785194087E+03  0.00000000000E+00 0.  1.
         21   -1    0    0  501  502  0.00000000000E+00 -0.00000000000E+00 -0.60791253106E+01  0.60791253106E+01  0.00000000000E+00 0. -1.
         21    1    1    2  503  502 -0.30165011315E+02  0.37984234274E+01  0.46828870974E+02  0.55832777872E+02  0.00000000000E+00 0. -1.
          3    1    1    2  501    0  0.30165011315E+02 -0.37984234274E+01  0.14494394459E+03  0.14809828831E+03  0.00000000000E+00 0.  1.
</event>
<event>
 4    1  0.1635676E+006  0.2566811E+02  0.7546771E-02  0.1461466E+00
          2   -1    0    0  503    0 -0.00000000000E+00  0.00000000000E+00  0.16535334435E+04  0.16535334435E+04  0.00000000000E+00 0. -1.
         21   -1    0    0  501  502  0.00000000000E+00 -0.00000000000E+00 -0.56977605640E+00  0.56977605640E+00  0.00000000000E+00 0.  1.
         21    1    1    2  503  502  0.25385025630E+02 -0.38016372024E+01  0.37296749912E+03  0.37384971228E+03  0.00000000000E+00 0.  1.
          2    1    1    2  501    0 -0.25385025630E+02  0.38016372024E+01  0.12799961683E+04  0.12802535073E+04  0.00000000000E+00 0. -1.
</event>
<event>
 4    1  0.1635676E+006  0.2793084E+02  0.7546771E-02  0.1438475E+00
         21   -1    0    0  503  502  0.00000000000E+00  0.00000000000E+00  0.13028654471E+03  0.13028654471E+03  0.00000000000E+00 0. -1.
          4   -1    0    0  502    0 -0.00000000000E+00 -0.00000000000E+00 -0.16922600848E+03  0.16922600848E+03  0.00000000000E+00 0.  1.
         21    1    1    2  503  501 -0.24242543808E+02  0.13871943368E+02  0.12761323036E+03  0.13063410085E+03  0.00000000000E+00 0. -1.
          4    1    1    2  501    0  0.24242543808E+02 -0.13871943368E+02 -0.16655269412E+03  0.16887845234E+03  0.00000000000E+00 0.  1.
</event>
<event>
 4    1  0.1635676E+006  0.2266016E+02  0.7546771E-02  0.1496810E+00
         21   -1    0    0  501  502  0.00000000000E+00  0.00000000000E+00  0.31381857936E+03  0.31381857936E+03  0.00000000000E+00 0.  1.
          3   -1    0    0  503    0 -0.00000000000E+00 -0.00000000000E+00 -0.32755873211E+02  0.32755873211E+02  0.00000000000E+00 0. -1.
         21    1    1    2  503  502  0.12116025481E+02 -0.19149015412E+02  0.30943506209E+03  0.31026366290E+03  0.00000000000E+00 0.  1.
          3    1    1    2  501    0 -0.12116025481E+02  0.19149015412E+02 -0.28372355943E+02  0.36310789670E+02  0.00000000000E+00 0. -1.
</event>
<event>
 4    1  0.1635676E+006  0.2281467E+02  0.7546771E-02  0.1494839E+00
         21   -1    0    0  503  502  0.00000000000E+00  0.00000000000E+00  0.10530520240E+02  0.10530520240E+02  0.00000000000E+00 0. -1.
         -2   -1    0    0    0  501 -0.00000000000E+00 -0.00000000000E+00 -0.67438229992E+02  0.67438229992E+02  0.00000000000E+00 0. -1.
         21    1    1    2  503  501 -0.18366444828E+02  0.13534504931E+02 -0.83078187441E+01  0.24280217702E+02  0.00000000000E+00 0. -1.
         -2    1    1    2    0  502  0.18366444828E+02 -0.13534504931E+02 -0.48599891008E+02  0.53688532531E+02  0.00000000000E+00 0. -1.
</event>
<event>
 4    1  0.1635676E+006  0.2138298E+02  0.7546771E-02  0.1513867E+00
          3   -1    0    0  503    0 -0.00000000000E+00  0.00000000000E+00  0.20006349549E+01  0.20006349549E+01  0.00000000000E+00 0.  1.
         21   -1    0    0  501  502  0.00000000000E+00 -0.00000000000E+00 -0.37599199400E+03  0.37599199400E+03  0.00000000000E+00 0.  1.
         21    1    1    2  503  502 -0.15734625060E+02  0.14479410137E+02 -0.30535009918E+03  0.30609788437E+03  0.00000000000E+00 0.  1.
          3    1    1    2  501    0  0.15734625060E+02 -0.14479410137E+02 -0.68641259861E+02  0.71894744585E+02  0.00000000000E+00 0.  1.
</event>
<event>
 4    1  0.1635676E+006  0.2123413E+02  0.7546771E-02  0.1515948E+00
          1   -1    0    0  503    0 -0.00000000000E+00  0.00000000000E+00  0.32657104115E+03  0.32657104115E+03  0.00000000000E+00 0. -1.
         21   -1    0    0  501  502  0.00000000000E+00 -0.00000000000E+00 -0.26011093296E+01  0.26011093296E+01  0.00000000000E+00 0.  1.
         21    1    1    2  503  502 -0.75129613389E+01 -0.19860611149E+02  0.49246791420E+02  0.53629608692E+02  0.00000000000E+00 0.  1.
          1    1    1    2  501    0  0.75129613389E+01  0.19860611149E+02  0.27472314040E+03  0.27554254179E+03  0.00000000000E+00 0. -1.
</event>
<event>
 4    1  0.1635676E+006  0.3023609E+02  0.7546771E-02  0.1417556E+00
         -1   -1    0    0    0  501 -0.00000000000E+00  0.00000000000E+00  0.44478960968E+02  0.44478960968E+02  0.00000000000E+00 0. -1.
         21   -1    0    0  503  502  0.00000000000E+00 -0.00000000000E+00 -0.21064001302E+02  0.21064001302E+02  0.00000000000E+00 0. -1.
         21    1    1    2  503  501  0.45379806034E+01 -0.29893609244E+02  0.16806723257E+02  0.34593165340E+02  0.00000000000E+00 0. -1.
         -1    1    1    2    0  502 -0.45379806034E+01  0.29893609244E+02  0.66082364090E+01  0.30949796930E+02  0.00000000000E+00 0. -1.
</event>
<event>
 4    1  0.1635676E+006  0.4602529E+02  0.7546771E-02  0.1316391E+00
          1   -1    0    0  502    0 -0.00000000000E+00  0.00000000000E+00  0.65608264804E+02  0.65608264804E+02  0.00000000000E+00 0. -1.
         21   -1    0    0  503  502  0.00000000000E+00 -0.00000000000E+00 -0.32920336593E+02  0.32920336593E+02  0.00000000000E+00 0. -1.
         21    1    1    2  503  501  0.17909740450E+02  0.42397744571E+02  0.95136239699E+01  0.46998261550E+02  0.00000000000E+00 0. -1.
          1    1    1    2  501    0 -0.17909740450E+02 -0.42397744571E+02  0.23174304241E+02  0.51530339847E+02  0.00000000000E+00 0. -1.
</event>
<event>
 4    1  0.1635676E+006  0.3603486E+02  0.7546771E-02  0.1373430E+00
         21   -1    0    0  503  502  0.00000000000E+00  0.00000000000E+00  0.30181679546E+02  0.30181679546E+02  0.00000000000E+00 0. -1.
          1   -1    0    0  502    0 -0.00000000000E+00 -0.00000000000E+00 -0.20438288542E+03  0.20438288542E+03  0.00000000000E+00 0. -1.
         21    1    1    2  503  501 -0.15254517359E+02  0.32646759774E+02  0.17108994837E+02  0.39890210929E+02  0.00000000000E+00 0. -1.
          1    1    1    2  501    0  0.15254517359E+02 -0.32646759774E+02 -0.19131020071E+03  0.19467435404E+03  0.00000000000E+00 0. -1.
</event>
<event>
 4    1  0.1635676E+006  0.4130908E+02  0.7546771E-02  0.1340981E+00
          1   -1    0    0  502    0 -0.00000000000E+00  0.00000000000E+00  0.65335471848E+03  0.65335471848E+03  0.00000000000E+00 0.  1.
         21   -1    0    0  503  502  0.00000000000E+00 -0.00000000000E+00 -0.66159245341E+01  0.66159245341E+01  0.00000000000E+00 0.  1.
         21    1    1    2  503  501  0.41300670439E+02  0.83339699161E+00  0.66653674121E+02  0.78416530165E+02  0.00000000000E+00 0.  1.
          1    1    1    2  501    0 -0.41300670439E+02 -0.83339699161E+00  0.58008511983E+03  0.58155411285E+03  0.00000000000E+00 0.  1.
</event>
<event>
 4    1  0.1635676E+006  0.2194150E+02  0.7546771E-02  0.1506235E+00
         21   -1    0    0  503  502  0.00000000000E+00  0.00000000000E+00  0.22642664907E+02  0.22642664907E+02  0.00000000000E+00 0.  1.
          3   -1    0    0  502    0 -0.00000000000E+00 -0.00000000000E+00 -0.46662791172E+02  0.46662791172E+02  0.00000000000E+00 0.  1.
         21    1    1    2  503  501  0.21517998350E+02 -0.42901420159E+01  0.13556669587E+02  0.25791720800E+02  0.00000000000E+00 0.  1.
          3    1    1    2  501    0 -0.21517998350E+02  0.42901420159E+01 -0.37576795852E+02  0.43513735280E+02  0.00000000000E+00 0.  1.
</event>
<event>
 4    1  0.1635676E+006  0.2198064E+02  0.7546771E-02  0.1505711E+00
         21   -1    0    0  501  502  0.00000000000E+00  0.00000000000E+00  0.63653709876E+02  0.63653709876E+02  0.00000000000E+00 0. -1.
          1   -1    0    0  503    0 -0.00000000000E+00 -0.00000000000E+00 -0.87501845677E+01  0.87501845677E+01  0.00000000000E+00 0. -1.
         21    1    1    2  503  502  0.18098428002E+02  0.12473784174E+02  0.40632438170E+02  0.46196790142E+02  0.00000000000E+00 0. -1.
          1    1    1    2  501    0 -0.18098428002E+02 -0.12473784174E+02  0.14271087139E+02  0.26207104302E+02  0.00000000000E+00 0. -1.
</event>
<event>
 4    1  0.1635676E+006  0.3163543E+02  0.7546771E-02  0.1405898E+00
         -2   -1    0    0    0  501 -0.00000000000E+00  0.00000000000E+00  0.34187827783E+02  0.34187827783E+02  0.00000000000E+00 0. -1.
         21   -1    0    0  503  502  0.00000000000E+00 -0.00000000000E+00 -0.48971025197E+02  0.48971025197E+02  0.00000000000E+00 0. -1.
         21    1    1    2  503  501  0.30350322788E+02 -0.89251594591E+01 -0.33761815554E+02  0.46267275198E+02  0.00000000000E+00 0. -1.
         -2    1    1    2    0  502 -0.30350322788E+02  0.89251594591E+01  0.18978618141E+02  0.36891577782E+02  0.00000000000E+00 0. -1.
</event>
<event>
 4    1  0.1635676E+006  0.2796930E+02  0.7546771E-02  0.1438107E+00
         21   -1    0    0  503  502  0.00000000000E+00  0.00000000000E+00  0.29664529342E+02  0.29664529342E+02  0.00000000000E+00 0. -1.
         -3   -1    0    0    0  501 -0.00000000000E+00 -0.00000000000E+00 -0.26372994539E+02  0.26372994539E+02  0.00000000000E+00 0. -1.
         21    1    1    2  503  501 -0.75854120204E+01 -0.26921051234E+02  0.13983680932E+01  0.28004230188E+02  0.00000000000E+00 0. -1.
         -3    1    1    2    0  502  0.75854120204E+01  0.26921051234E+02  0.18931667095E+01  0.28033293693E+02  0.00000000000E+00 0. -1.
</event>
<event>
 4    1  0.1635676E+006  0.2076733E+02  0.7546771E-02  0.1522613E+00
         21   -1    0    0  503  502  0.00000000000E+00  0.00000000000E+00  0.87543280159E+01  0.87543280159E+01  0.00000000000E+00 0. -1.
         -2   -1    0    0    0  501 -0.00000000000E+00 -0.00000000000E+00 -0.19816642375E+03  0.19816642375E+03  0.00000000000E+00 0.  1.
         21    1    1    2  503  501 -0.12082384677E+02  0.16890771883E+02 -0.50234038223E+01  0.21366253304E+02  0.00000000000E+00 0. -1.
         -2    1    1    2    0  502  0.12082384677E+02 -0.16890771883E+02 -0.18438869191E+03  0.18555449846E+03  0.00000000000E+00 0.  1.
</event>
<event>
 4    1  0.1635676E+006  0.2120889E+02  0.7546771E-02  0.1516303E+00
          4   -1    0    0  502    0 -0.00000000000E+00  0.00000000000E+00  0.32037650001E+02  0.32037650001E+02  0.00000000000E+00 0. -1.
         21   -1    0    0  503  502  0.00000000000E+00 -0.00000000000E+00 -0.16672272901E+02  0.16672272901E+02  0.00000000000E+00 0.  1.
         21    1    1    2  503  501 -0.15548498805E+02 -0.14424326077E+02 -0.19941587568E+01  0.21302433359E+02  0.00000000000E+00 0.  1.
          4    1    1    2  501    0  0.15548498805E+02  0.14424326077E+02  0.17359535857E+02  0.27407489543E+02  0.00000000000E+00 0. -1.
</event>
<event>
 4    1  0.1635676E+006  0.2658530E+02  0.7546771E-02  0.1451819E+00
          2   -1    0    0  502    0 -0.00000000000E+00  0.00000000000E+00  0.10849134399E+04  0.10849134399E+04  0.00000000000E+00 0. -1.
         21   -1    0    0  503  502  0.00000000000E+00 -0.00000000000E+00 -0.23202475345E+01  0.23202475345E+01  0.00000000000E+00 0. -1.
         21    1    1    2  503  501  0.22293320552E+02 -0.14483984231E+02  0.80269723556E+02  0.84557710826E+02  0.00000000000E+00 0. -1.
          2    1    1    2  501    0 -0.22293320552E+02  0.14483984231E+02  0.10023234688E+04  0.10026759766E+04  0.00000000000E+00 0. -1.
</event>
<event>
 4    1  0.1635676E+006  0.2208269E+02  0.7546771E-02  0.1504350E+00
          2   -1    0    0  502    0 -0.00000000000E+00  0.00000000000E+00  0.27877834454E+02  0.27877834454E+02  0.00000000000E+00 0.  1.
         21   -1    0    0  503  502  0.00000000000E+00 -0.00000000000E+00 -0.66297774113E+02  0.66297774113E+02  0.00000000000E+00 0.  1.
         21    1    1    2  503  501 -0.74193665755E+01 -0.20798997888E+02 -0.59611105553E+02  0.63569876661E+02  0.00000000000E+00 0.  1.
          2    1    1    2  501    0  0.74193665755E+01  0.20798997888E+02  0.21191165893E+02  0.30605731905E+02  0.00000000000E+00 0.  1.
</event>
<event>
 4    1  0.1635676E+006  0.3379610E+02  0.7546771E-02  0.1389230E+00
         21   -1    0    0  503  502  0.00000000000E+00  0.00000000000E+00  0.54895869739E+02  0.54895869739E+02  0.00000000000E+00 0. -1.
         -1   -1    0    0    0  501 -0.00000000000E+00 -0.00000000000E+00 -0.31960633525E+02  0.31960633525E+02  0.00000000000E+00 0.  1.
         21    1    1    2  503  501 -0.31429116551E+02 -0.12425259116E+02  0.37123545115E+02  0.50202928531E+02  0.00000000000E+00 0. -1.
         -1    1    1    2    0  502  0.31429116551E+02  0.12425259116E+02 -0.14188308901E+02  0.36653574733E+02  0.00000000000E+00 0.  1.
</event>
<event>
 4    1  0.1635676E+006  0.2251060E+02  0.7546771E-02  0.1498737E+00
          2   -1    0    0  502    0 -0.00000000000E+00  0.00000000000E+00  0.78996286105E+03  0.78996286105E+03  0.00000000000E+00 0. -1.
         21   -1    0    0  503  502  0.00000000000E+00 -0.00000000000E+00 -0.32017727244E+01  0.32017727244E+01  0.00000000000E+00 0. -1.
         21    1    1    2  503  501 -0.46945215037E+01 -0.22015649044E+02  0.38742891799E+02  0.44807800659E+02  0.00000000000E+00 0. -1.
          2    1    1    2  501    0  0.46945215037E+01  0.22015649044E+02  0.74801819653E+03  0.74835683312E+03  0.00000000000E+00 0. -1.
</event>
<event>
 4    1  0.1635676E+006  0.4012354E+02  0.7546771E-02  0.1347763E+00
         21   -1    0    0  503  502  0.00000000000E+00  0.00000000000E+00  0.17531829014E+02  0.17531829014E+02  0.00000000000E+00 0.  1.
          1   -1    0    0  502    0 -0.00000000000E+00 -0.00000000000E+00 -0.35275603647E+03  0.35275603647E+03  0.00000000000E+00 0.  1.
         21    1    1    2  503  501  0.34156422325E+02 -0.21053210199E+02 -0.83790248182E+01  0.40989107121E+02  0.00000000000E+00 0.  1.
          1    1    1    2  501    0 -0.34156422325E+02  0.21053210199E+02 -0.32684518264E+03  0.32929875836E+03  0.00000000000E+00 0.  1.
</event>
<event>
 4    1  0.1635676E+006  0.2984854E+02  0.7546771E-02  0.1420917E+00
         -2   -1    0    0    0  501 -0.00000000000E+00  0.00000000000E+00  0.38492774634E+02  0.38492774634E+02  0.00000000000E+00 0.  1.
         21   -1    0    0  501  502  0.00000000000E+00 -0.00000000000E+00 -0.20941887673E+03  0.20941887673E+03  0.00000000000E+00 0.  1.
         21    1    1    2  503  502  0.12896653191E+02 -0.26918614006E+02 -0.20236840342E+03  0.20455783082E+03  0.00000000000E+00 0.  1.
         -2    1    1    2    0  503 -0.12896653191E+02  0.26918614006E+02  0.31442301327E+02  0.43353820550E+02  0.00000000000E+00 0.  1.
</event>
<event>
 4    1  0.1635676E+006  0.3373296E+02  0.7546771E-02  0.1389696E+00
          2   -1    0    0  502    0 -0.00000000000E+00  0.00000000000E+00  0.10369573223E+04  0.10369573223E+04  0.00000000000E+00 0.  1.
         21   -1    0    0  503  502  0.00000000000E+00 -0.00000000000E+00 -0.65739217990E+02  0.65739217990E+02  0.00000000000E+00 0. -1.
         21    1    1    2  503  501 -0.13461567517E+02  0.30930546654E+02 -0.61118139938E+02  0.69809308447E+02  0.00000000000E+00 0. -1.
          2    1    1    2  501    0  0.13461567517E+02 -0.30930546654E+02  0.10323362443E+04  0.10328872319E+04  0.00000000000E+00 0.  1.
</event>
<event>
 4    1  0.1635676E+006  0.3201238E+02  0.7546771E-02  0.1402879E+00
         21   -1    0    0  501  502  0.00000000000E+00  0.00000000000E+00  0.90689062742E+02  0.90689062742E+02  0.00000000000E+00 0.  1.
         -1   -1    0    0    0  501 -0.00000000000E+00 -0.00000000000E+00 -0.16977759728E+02  0.16977759728E+02  0.00000000000E+00 0.  1.
         21    1    1    2  503  502  0.24218449620E+02  0.20934634826E+02  0.67986987303E+02  0.75146674443E+02  0.00000000000E+00 0.  1.
         -1    1    1    2    0  503 -0.24218449620E+02 -0.20934634826E+02  0.57243157107E+01  0.32520148026E+02  0.00000000000E+00 0.  1.
</event>
<event>
 4    1  0.1635676E+006  0.4340558E+02  0.7546771E-02  0.1329607E+00
         -3   -1    0    0    0  501 -0.00000000000E+00  0.00000000000E+00  0.39907084215E+03  0.39907084215E+03  0.00000000000E+00 0. -1.
         21   -1    0    0  503  502  0.00000000000E+00 -0.00000000000E+00 -0.72669844097E+01  0.72669844097E+01  0.00000000000E+00 0.  1.
         21    1    1    2  503  501 -0.11410762372E+02 -0.41878859543E+02  0.75647410544E+02  0.87215681483E+02  0.00000000000E+00 0.  1.
         -3    1    1    2    0  502  0.11410762372E+02  0.41878859543E+02  0.31615644720E+03  0.31912214508E+03  0.00000000000E+00 0. -1.
</event>
<event>
 4    1  0.1635676E+006  0.2882119E+02  0.7546771E-02  0.1430124E+00
         -2   -1    0    0    0  501 -0.00000000000E+00  0.00000000000E+00  0.11379900867E+04  0.11379900867E+04  0.00000000000E+00 0. -1.
         21   -1    0    0  501  502  0.00000000000E+00 -0.00000000000E+00 -0.14840615506E+02  0.14840615506E+02  0.00000000000E+00 0. -1.
         21    1    1    2  503  502 -0.24636723068E+02  0.14956358289E+02 -0.48637118283E+00  0.28825289829E+02  0.00000000000E+00 0. -1.
         -2    1    1    2    0  503  0.24636723068E+02 -0.14956358289E+02  0.11236358423E+04  0.11240054123E+04  0.00000000000E+00 0. -1.
</event>
<event>
 4    1  0.1635676E+006  0.3569570E+02  0.7546771E-02  0.1375737E+00
          1   -1    0    0  502    0 -0.00000000000E+00  0.00000000000E+00  0.72669432881E+03  0.72669432881E+03  0.00000000000E+00 0.  1.
         21   -1    0    0  503  502  0.00000000000E+00 -0.00000000000E+00 -0.33469860759E+01  0.33469860759E+01  0.00000000000E+00 0. -1.
         21    1    1    2  503  501 -0.22879869009E+02  0.27398808259E+02  0.10980232339E+03  0.11545879491E+03  0.00000000000E+00 0. -1.
          1    1    1    2  501    0  0.22879869009E+02 -0.27398808259E+02  0.61354501934E+03  0.61458251997E+03  0.00000000000E+00 0.  1.
</event>
<event>
 4    1  0.1635676E+006  0.2345232E+02  0.7546771E-02  0.1486895E+00
          2   -1    0    0  503    0 -0.00000000000E+00  0.00000000000E+00  0.16674539705E+04  0.16674539705E+04  0.00000000000E+00 0.  1.
         21   -1    0    0  501  502  0.00000000000E+00 -0.00000000000E+00 -0.70333750696E+01  0.70333750696E+01  0.00000000000E+00 0.  1.
         21    1    1    2  503  502  0.10026833239E+02  0.21200798999E+02  0.12834877304E+02  0.26734721589E+02  0.00000000000E+00 0.  1.
          2    1    1    2  501    0 -0.10026833239E+02 -0.21200798999E+02  0.16475857181E+04  0.16477526239E+04  0.00000000000E+00 0.  1.
</event>
<event>
 4    1  0.1635676E+006  0.3400613E+02  0.7546771E-02  0.1387688E+00
         -1   -1    0    0    0  501 -0.00000000000E+00  0.00000000000E+00  0.14381105573E+03  0.14381105573E+03  0.00000000000E+00 0. -1.
         21   -1    0    0  501  502  0.00000000000E+00 -0.00000000000E+00 -0.19375174097E+02  0.19375174097E+02  0.00000000000E+00 0. -1.
         21    1    1    2  503  502  0.29181167742E+02  0.17460706546E+02 -0.18734351660E+00  0.34006645254E+02  0.00000000000E+00 0. -1.
         -1    1    1    2    0  503 -0.29181167742E+02 -0.17460706546E+02  0.12462322515E+03  0.12917958457E+03  0.00000000000E+00 0. -1.
</event>
<event>
 4    1  0.1635676E+006  0.2909976E+02  0.7546771E-02  0.1427584E+00
         21   -1    0    0  503  502  0.00000000000E+00  0.00000000000E+00  0.86378361876E+03  0.86378361876E+03  0.00000000000E+00 0.  1.
         -2   -1    0    0    0  501 -0.00000000000E+00 -0.00000000000E+00 -0.98806903927E+00  0.98806903927E+00  0.00000000000E+00 0.  1.
         21    1    1    2  503  501  0.13362719554E+02  0.25850213786E+02  0.46965639867E+03  0.47055704079E+03  0.00000000000E+00 0.  1.
         -2    1    1    2    0  502 -0.13362719554E+02 -0.25850213786E+02  0.39313915105E+03  0.39421464701E+03  0.00000000000E+00 0.  1.
</event>
<event>
 4    1  0.1635676E+006  0.2735983E+02  0.7546771E-02  0.1444027E+00
          1   -1    0    0  502    0 -0.00000000000E+00  0.00000000000E+00  0.12326182761E+03  0.12326182761E+03  0.00000000000E+00 0. -1.
         21   -1    0    0  503  502  0.00000000000E+00 -0.00000000000E+00 -0.52613703516E+02  0.52613703516E+02  0.00000000000E+00 0.  1.
         21    1    1    2  503  501  0.21699785069E+02 -0.16663727845E+02 -0.47383036670E+02  0.54714830365E+02  0.00000000000E+00 0.  1.
          1    1    1    2  501    0 -0.21699785069E+02  0.16663727845E+02  0.11803116076E+03  0.12116070076E+03  0.00000000000E+00 0. -1.
</event>
<event>
 4    1  0.1635676E+006  0.2970374E+02  0.7546771E-02  0.1422189E+00
         21   -1    0    0  501  502  0.00000000000E+00  0.00000000000E+00  0.14506150071E+02  0.14506150071E+02  0.00000000000E+00 0. -1.
          1   -1    0    0  503    0 -0.00000000000E+00 -0.00000000000E+00 -0.13295754347E+03  0.13295754347E+03  0.00000000000E+00 0.  1.
         21    1    1    2  503  502  0.23186889352E+02  0.18565568050E+02 -0.49170085821E+01  0.30107957889E+02  0.00000000000E+00 0. -1.
          1    1    1    2  501    0 -0.23186889352E+02 -0.18565568050E+02 -0.11353438481E+03  0.11735573565E+03  0.00000000000E+00 0.  1.
</event>
<event>
 4    1  0.1635676E+006  0.3114309E+02  0.7546771E-02  0.1409916E+00
         21   -1    0    0  501  502  0.00000000000E+00  0.00000000000E+00  0.18788660296E+01  0.18788660296E+01  0.00000000000E+00 0. -1.
          1   -1    0    0  503    0 -0.00000000000E+00 -0.00000000000E+00 -0.53113876190E+03  0.53113876190E+03  0.00000000000E+00 0. -1.
         21    1    1    2  503  502  0.28783751057E+02 -0.11890646298E+02 -0.21995117949E+03  0.22214502730E+03  0.00000000000E+00 0. -1.
          1    1    1    2  501    0 -0.28783751057E+02  0.11890646298E+02 -0.30930871638E+03  0.31087260063E+03  0.00000000000E+00 0. -1.
</event>
<event>
 4    1  0.1635676E+006  0.2970261E+02  0.7546771E-02  0.1422199E+00
         21   -1    0    0  501  502  0.00000000000E+00  0.00000000000E+00  0.12654209311E+01  0.12654209311E+01  0.00000000000E+00 0.  1.
          2   -1    0    0  503    0 -0.00000000000E+00 -0.00000000000E+00 -0.16367692043E+04  0.16367692043E+04  0.00000000000E+00 0. -1.
         21    1    1    2  503  502  0.19846424035E+02  0.22098973744E+02 -0.19721887443E+03  0.19944304856E+03  0.00000000000E+00 0.  1.
          2    1    1    2  501    0 -0.19846424035E+02 -0.22098973744E+02 -0.14382849089E+04  0.14385915767E+04  0.00000000000E+00 0. -1.
</event>
<event>
 4    1  0.1635676E+006  0.2227419E+02  0.7546771E-02  0.1501819E+00
         21   -1    0    0  501  502  0.00000000000E+00  0.00000000000E+00  0.88046665481E+01  0.88046665481E+01  0.00000000000E+00 0.  1.
          1   -1    0    0  503    0 -0.00000000000E+00 -0.00000000000E+00 -0.12089168532E+03  0.12089168532E+03  0.00000000000E+00 0.  1.
         21    1    1    2  503  502  0.11893390809E+02  0.18833135891E+02 -0.86606871166E+01  0.23898687281E+02  0.00000000000E+00 0.  1.
          1    1    1    2  501    0 -0.11893390809E+02 -0.18833135891E+02 -0.10342633165E+03  0.10579766458E+03  0.00000000000E+00 0.  1.
</event>
<event>
 4    1  0.1635676E+006  0.2095416E+02  0.7546771E-02  0.1519920E+00
          2   -1    0    0  503    0 -0.00000000000E+00  0.00000000000E+00  0.55375399293E+03  0.55375399293E+03  0.00000000000E+00 0. -1.
         21   -1    0    0  501  502  0.00000000000E+00 -0.00000000000E+00 -0.82161730445E+01  0.82161730445E+01  0.00000000000E+00 0.  1.
         21    1    1    2  503  502  0.83870645791E+01  0.19202448938E+02  0.56861161869E+01  0.21711950966E+02  0.00000000000E+00 0.  1.
          2    1    1    2  501    0 -0.83870645791E+01 -0.19202448938E+02  0.53985170370E+03  0.54025821501E+03  0.00000000000E+00 0. -1.
</event>
<event>
 4    1  0.1635676E+006  0.3595839E+02  0.7546771E-02  0.1373948E+00
         21   -1    0    0  503  502  0.00000000000E+00  0.00000000000E+00  0.46700413710E+01  0.46700413710E+01  0.00000000000E+00 0.  1.
          2   -1    0    0  502    0 -0.00000000000E+00 -0.00000000000E+00 -0.64638917755E+03  0.64638917755E+03  0.00000000000E+00 0. -1.
         21    1    1    2  503  501 -0.20110241619E+02  0.29809122967E+02 -0.74731846528E+02  0.82932831348E+02  0.00000000000E+00 0.  1.
          2    1    1    2  501    0  0.20110241619E+02 -0.29809122967E+02 -0.56698728965E+03  0.56812638758E+03  0.00000000000E+00 0. -1.
</event>
<event>
 4    1  0.1635676E+006  0.3437943E+02  0.7546771E-02  0.1384979E+00
         -2   -1    0    0    0  501 -0.00000000000E+00  0.00000000000E+00  0.12637656626E+03  0.12637656626E+03  0.00000000000E+00 0.  1.
         21   -1    0    0  503  502  0.00000000000E+00 -0.00000000000E+00 -0.93526040940E+01  0.93526040940E+01  0.00000000000E+00 0.  1.
         21    1    1    2  503  501  0.71602426633E+01 -0.33625530428E+02  0.58377816309E+02  0.67748910017E+02  0.00000000000E+00 0.  1.
         -2    1    1    2    0  502 -0.71602426633E+01  0.33625530428E+02  0.58646145857E+02  0.67980260337E+02  0.00000000000E+00 0.  1.
</event>
<event>
 4    1  0.1635676E+006  0.3835249E+02  0.7546771E-02  0.1358420E+00
          1   -1    0    0  503    0 -0.00000000000E+00  0.00000000000E+00  0.53693377321E+02  0.53693377321E+02  0.00000000000E+00 0.  1.
         21   -1    0    0  501  502  0.00000000000E+00 -0.00000000000E+00 -0.11344064535E+03  0.11344064535E+03  0.00000000000E+00 0.  1.
         21    1    1    2  503  502  0.33578958909E+02  0.18530158478E+02 -0.10265425634E+03  0.10958471425E+03  0.00000000000E+00 0.  1.
          1    1    1    2  501    0 -0.33578958909E+02 -0.18530158478E+02  0.42906988301E+02  0.57549308421E+02  0.00000000000E+00 0.  1.
</event>
<event>
 4    1  0.1635676E+006  0.2876814E+02  0.7546771E-02  0.1430612E+00
          2   -1    0    0  502    0 -0.00000000000E+00  0.00000000000E+00  0.12411935707E+04  0.12411935707E+04  0.00000000000E+00 0.  1.
         21   -1    0    0  503  502  0.00000000000E+00 -0.00000000000E+00 -0.10507653230E+01  0.10507653230E+01  0.00000000000E+00 0.  1.
         21    1    1    2  503  501  0.28322636949E+02  0.50432523147E+01  0.24459723811E+03  0.24628320090E+03  0.00000000000E+00 0.  1.
          2    1    1    2  501    0 -0.28322636949E+02 -0.50432523147E+01  0.99554556729E+03  0.99596113514E+03  0.00000000000E+00 0.  1.
</event>
<event>
 4    1  0.1635676E+006  0.3339619E+02  0.7546771E-02  0.1392203E+00
         21   -1    0    0  501  502  0.00000000000E+00  0.00000000000E+00  0.15362867114E+02  0.15362867114E+02  0.00000000000E+00 0.  1.
          1   -1    0    0  503    0 -0.00000000000E+00 -0.00000000000E+00 -0.16103090052E+03  0.16103090052E+03  0.00000000000E+00 0. -1.
         21    1    1    2  503  502  0.18149398593E+02  0.28033994494E+02 -0.74748014347E+01  0.34222480522E+02  0.00000000000E+00 0.  1.
          1    1    1    2  501    0 -0.18149398593E+02 -0.28033994494E+02 -0.13819323197E+03  0.14217128711E+03  0.00000000000E+00 0. -1.
</event>
<event>
 4    1  0.1635676E+006  0.2591204E+02  0.7546771E-02  0.1458854E+00
          2   -1    0    0  502    0 -0.00000000000E+00  0.00000000000E+00  0.14350075646E+03  0.14350075646E+03  0.00000000000E+00 0. -1.
         21   -1    0    0  503  502  0.00000000000E+00 -0.00000000000E+00 -0.18298419464E+02  0.18298419464E+02  0.00000000000E+00 0. -1.
         21    1    1    2  503  501 -0.22550008766E+02 -0.12764438019E+02 -0.71930605513E+01  0.26891892707E+02  0.00000000000E+00 0. -1.
          2    1    1    2  501    0  0.22550008766E+02  0.12764438019E+02  0.13239539754E+03  0.13490728321E+03  0.00000000000E+00 0. -1.
</event>
<event>
 4    1  0.1635676E+006  0.2061363E+02  0.7546771E-02  0.1524853E+00
         21   -1    0    0  503  502  0.00000000000E+00  0.00000000000E+00  0.16448050443E+03  0.16448050443E+03  0.00000000000E+00 0. -1.
         -4   -1    0    0    0  501 -0.00000000000E+00 -0.00000000000E+00 -0.36210199995E+02  0.36210199995E+02  0.00000000000E+00 0. -1.
         21    1    1    2  503  501  0.13731833338E+02  0.15373959211E+02  0.16083470268E+03  0.16215031130E+03  0.00000000000E+00 0. -1.
         -4    1    1    2    0  502 -0.13731833338E+02 -0.15373959211E+02 -0.32564398248E+02  0.38540393121E+02  0.00000000000E+00 0. -1.
</event>
<event>
 4    1  0.1635676E+006  0.3224743E+02  0.7546771E-02  0.1401021E+00
         21   -1    0    0  503  502  0.00000000000E+00  0.00000000000E+00  0.27119643179E+02  0.27119643179E+02  0.00000000000E+00 0. -1.
          2   -1    0    0  502    0 -0.00000000000E+00 -0.00000000000E+00 -0.88209509296E+03  0.88209509296E+03  0.00000000000E+00 0. -1.
         21    1    1    2  503  501  0.62389074699E+01  0.31638154581E+02  0.17128943727E+02  0.36514346562E+02  0.00000000000E+00 0. -1.
          2    1    1    2  501    0 -0.62389074699E+01 -0.31638154581E+02 -0.87210439351E+03  0.87270038958E+03  0.00000000000E+00 0. -1.
</event>
<event>
 4    1  0.1635676E+006  0.2285517E+02  0.7546771E-02  0.1494325E+00
         21   -1    0    0  501  502  0.00000000000E+00  0.00000000000E+00  0.16176297955E+01  0.16176297955E+01  0.00000000000E+00 0.  1.
          1   -1    0    0  503    0 -0.00000000000E+00 -0.00000000000E+00 -0.32376582317E+03  0.32376582317E+03  0.00000000000E+00 0.  1.
         21    1    1    2  503  502  0.15302721732E+02 -0.16976021978E+02 -0.16940904573E+03  0.17094380185E+03  0.00000000000E+00 0.  1.
          1    1    1    2  501    0 -0.15302721732E+02  0.16976021978E+02 -0.15273914765E+03  0.15443965112E+03  0.00000000000E+00 0.  1.
</event>
<event>
 4    1  0.1635676E+006  0.3278689E+02  0.7546771E-02  0.1396827E+00
         21   -1    0    0  501  502  0.00000000000E+00  0.00000000000E+00  0.17118810112E+02  0.17118810112E+02  0.00000000000E+00 0. -1.
          2   -1    0    0  503    0 -0.00000000000E+00 -0.00000000000E+00 -0.13140127580E+03  0.13140127580E+03  0.00000000000E+00 0. -1.
         21    1    1    2  503  502 -0.15479578593E+02 -0.28902646384E+02 -0.34829871612E+01  0.32971374266E+02  0.00000000000E+00 0. -1.
          2    1    1    2  501    0  0.15479578593E+02  0.28902646384E+02 -0.11079947853E+03  0.11554871165E+03  0.00000000000E+00 0. -1.
</event>
<event>
 4    1  0.1635676E+006  0.2730121E+02  0.7546771E-02  0.1444606E+00
         21   -1    0    0  503  502  0.00000000000E+00  0.00000000000E+00  0.12856073840E+02  0.12856073840E+02  0.00000000000E+00 0.  1.
          2   -1    0    0  502    0 -0.00000000000E+00 -0.00000000000E+00 -0.67737121299E+02  0.67737121299E+02  0.00000000000E+00 0. -1.
         21    1    1    2  503  501 -0.13733044949E+02  0.23595751783E+02 -0.12144322111E+02  0.29880438172E+02  0.00000000000E+00 0.  1.
          2    1    1    2  501    0  0.13733044949E+02 -0.23595751783E+02 -0.42736725347E+02  0.50712756967E+02  0.00000000000E+00 0. -1.
</event>
<event>
 4    1  0.1635676E+006  0.2299429E+02  0.7546771E-02  0.1492570E+00
         21   -1    0    0  501  502  0.00000000000E+00  0.00000000000E+00  0.38730078499E+02  0.38730078499E+02  0.00000000000E+00 0.  1.
          2   -1    0    0  503    0 -0.00000000000E+00 -0.00000000000E+00 -0.31074233734E+02  0.31074233734E+02  0.00000000000E+00 0.  1.
         21    1    1    2  503  502  0.22446620849E+02 -0.49886525200E+01 -0.22306069969E+02  0.32035889233E+02  0.00000000000E+00 0.  1.
          2    1    1    2  501    0 -0.22446620849E+02  0.49886525200E+01  0.29961914733E+02  0.37768423001E+02  0.00000000000E+00 0.  1.
</event>
<event>
 4    1  0.1635676E+006  0.2950993E+02  0.7546771E-02  0.1423904E+00
         21   -1    0    0  501  502  0.00000000000E+00  0.00000000000E+00  0.32282818575E+03  0.32282818575E+03  0.00000000000E+00 0.  1.
          1   -1    0    0  503    0 -0.00000000000E+00 -0.00000000000E+00 -0.10218093485E+02  0.10218093485E+02  0.00000000000E+00 0.  1.
         21    1    1    2  503  502 -0.25174038488E+02 -0.15398167205E+02  0.29916651437E+03  0.30061842773E+03  0.00000000000E+00 0.  1.
          1    1    1    2  501    0  0.25174038488E+02  0.15398167205E+02  0.13443577897E+02  0.32427851513E+02  0.00000000000E+00 0.  1.
</event>
<event>
 4    1  0.1635676E+006  0.2365972E+02  0.7546771E-02  0.1484376E+00
          2   -1    0    0  502    0 -0.00000000000E+00  0.00000000000E+00  0.33517341633E+02  0.33517341633E+02  0.00000000000E+00 0. -1.
         21   -1    0    0  503  502  0.00000000000E+00 -0.00000000000E+00 -0.16848178886E+02  0.16848178886E+02  0.00000000000E+00 0. -1.
         21    1    1    2  503  501  0.22006238201E+02 -0.86895125251E+01  0.10686119187E+02  0.25961034089E+02  0.00000000000E+00 0. -1.
          2    1    1    2  501    0 -0.22006238201E+02  0.86895125251E+01  0.59830435593E+01  0.24404486430E+02  0.00000000000E+00 0. -1.
</event>
<event>
 4    1  0.1635676E+006  0.2483359E+02  0.7546771E-02  0.1470674E+00
         21   -1    0    0  503  502  0.00000000000E+00  0.00000000000E+00  0.87243158458E+01  0.87243158458E+01  0.00000000000E+00 0. -1.
         -4   -1    0    0    0  501 -0.00000000000E+00 -0.00000000000E+00 -0.71280399987E+02  0.71280399987E+02  0.00000000000E+00 0. -1.
         21    1    1    2  503  501 -0.24746936346E+02 -0.20728042965E+01 -0.27632311368E+02  0.37151742997E+02  0.00000000000E+00 0. -1.
         -4    1    1    2    0  502  0.24746936346E+02  0.20728042965E+01 -0.34923772774E+02  0.42852972837E+02  0.00000000000E+00 0. -1.
</event>
<event>
 4    1  0.1635676E+006  0.2607176E+02  0.7546771E-02  0.1457162E+00
         -4   -1    0    0    0  501 -0.00000000000E+00  0.00000000000E+00  0.97527836846E+01  0.97527836846E+01  0.00000000000E+00 0.  1.
         21   -1    0    0  501  502  0.00000000000E+00 -0.00000000000E+00 -0.70827856896E+02  0.70827856896E+02  0.00000000000E+00 0.  1.
         21    1    1    2  503  502 -0.11067505191E+02 -0.23606079454E+02 -0.35629246391E+02  0.44149517061E+02  0.00000000000E+00 0.  1.
         -4    1    1    2    0  503  0.11067505191E+02  0.23606079454E+02 -0.25445826820E+02  0.36431123519E+02  0.00000000000E+00 0.  1.
</event>
<event>
 4    1  0.1635676E+006  0.2445944E+02  0.7546771E-02  0.1474942E+00
         21   -1    0    0  501  502  0.00000000000E+00  0.00000000000E+00  0.80778525274E+01  0.80778525274E+01  0.00000000000E+00 0.  1.
          1   -1    0    0  503    0 -0.00000000000E+00 -0.00000000000E+00 -0.45956374444E+03  0.45956374444E+03  0.00000000000E+00 0.  1.
         21    1    1    2  503  502  0.23522056135E+02  0.67065081995E+01 -0.11590390250E+02  0.27066612703E+02  0.00000000000E+00 0.  1.
          1    1    1    2  501    0 -0.23522056135E+02 -0.67065081995E+01 -0.43989550166E+03  0.44057498426E+03  0.00000000000E+00 0.  1.
</event>
<event>
 4    1  0.1635676E+006  0.2820085E+02  0.7546771E-02  0.1435904E+00
          1   -1    0    0  503    0 -0.00000000000E+00  0.00000000000E+00  0.21723508967E+01  0.21723508967E+01  0.00000000000E+00 0.  1.
         21   -1    0    0  501  502  0.00000000000E+00 -0.00000000000E+00 -0.36717142134E+03  0.36717142134E+03  0.00000000000E+00 0.  1.
         21    1    1    2  503  502 -0.27644851144E+02 -0.55722590424E+01 -0.19249628125E+03  0.19455103742E+03  0.00000000000E+00 0.  1.
          1    1    1    2  501    0  0.27644851144E+02  0.55722590424E+01 -0.17250278919E+03  0.17479273481E+03  0.00000000000E+00 0.  1.
</event>
<event>
 4    1  0.1635676E+006  0.3311266E+02  0.7546771E-02  0.1394340E+00
         21   -1    0    0  501  502  0.00000000000E+00  0.00000000000E+00  0.51008629387E+01  0.51008629387E+01  0.00000000000E+00 0. -1.
          3   -1    0    0  503    0 -0.00000000000E+00 -0.00000000000E+00 -0.31831638488E+03  0.31831638488E+03  0.00000000000E+00 0.  1.
         21    1    1    2  503  502 -0.12253965464E+02 -0.30761802430E+02 -0.64459727576E+02  0.72467265973E+02  0.00000000000E+00 0. -1.
          3    1    1    2  501    0  0.12253965464E+02  0.30761802430E+02 -0.24875579437E+03  0.25094998185E+03  0.00000000000E+00 0.  1.
</event>
<event>
 4    1  0.1635676E+006  0.2476723E+02  0.7546771E-02  0.1471424E+00
         21   -1    0    0  503  502  0.00000000000E+00  0.00000000000E+00  0.35435955313E+01  0.35435955313E+01  0.00000000000E+00 0. -1.
          2   -1    0    0  502    0 -0.00000000000E+00 -0.00000000000E+00 -0.32254142144E+03  0.32254142144E+03  0.00000000000E+00 0. -1.
         21    1    1    2  503  501  0.85409608440E+00  0.24752500639E+02 -0.48521231300E+02  0.54476835947E+02  0.00000000000E+00 0. -1.
          2    1    1    2  501    0 -0.85409608440E+00 -0.24752500639E+02 -0.27047659461E+03  0.27160818103E+03  0.00000000000E+00 0. -1.
</event>
<event>
 4    1  0.1635676E+006  0.2211318E+02  0.7546771E-02  0.1503945E+00
         21   -1    0    0  501  502  0.00000000000E+00  0.00000000000E+00  0.45948870259E+03  0.45948870259E+03  0.00000000000E+00 0. -1.
          1   -1    0    0  503    0 -0.00000000000E+00 -0.00000000000E+00 -0.88817847494E+01  0.88817847494E+01  0.00000000000E+00 0. -1.
         21    1    1    2  503  502  0.20139887739E+02  0.91311445442E+01  0.44501122124E+03  0.44556029884E+03  0.00000000000E+00 0. -1.
          1    1    1    2  501    0 -0.20139887739E+02 -0.91311445442E+01  0.55956966061E+01  0.22810188498E+02  0.00000000000E+00 0. -1.
</event>
<event>
 4    1  0.1635676E+006  0.3605439E+02  0.7546771E-02  0.1373298E+00
          2   -1    0    0  502    0 -0.00000000000E+00  0.00000000000E+00  0.16269029028E+04  0.16269029028E+04  0.00000000000E+00 0.  1.
         21   -1    0    0  503  502  0.00000000000E+00 -0.00000000000E+00 -0.30608916494E+02  0.30608916494E+02  0.00000000000E+00 0. -1.
         21    1    1    2  503  501  0.21380428192E+02 -0.29030956213E+02 -0.19720474457E+02  0.41095209467E+02  0.00000000000E+00 0. -1.
          2    1    1    2  501    0 -0.21380428192E+02  0.29030956213E+02  0.16160144608E+04  0.16164166098E+04  0.00000000000E+00 0.  1.
</event>
<event>
 4    1  0.1635676E+006  0.4071538E+02  0.7546771E-02  0.1344344E+00
         -1   -1    0    0    0  501 -0.00000000000E+00  0.00000000000E+00  0.88472783157E+01  0.88472783157E+01  0.00000000000E+00 0. -1.
         21   -1    0    0  503  502  0.00000000000E+00 -0.00000000000E+00 -0.22054571868E+03  0.22054571868E+03  0.00000000000E+00 0.  1.
         21    1    1    2  503  501  0.25112304669E+02 -0.32048629050E+02 -0.15033183910E+03  0.15574788704E+03  0.00000000000E+00 0.  1.
         -1    1    1    2    0  502 -0.25112304669E+02  0.32048629050E+02 -0.61366601260E+02  0.73645109953E+02  0.00000000000E+00 0. -1.
</event>
<event>
 4    1  0.1635676E+006  0.2477075E+02  0.7546771E-02  0.1471384E+00
         21   -1    0    0  503  502  0.00000000000E+00  0.00000000000E+00  0.30458402715E+01  0.30458402715E+01  0.00000000000E+00 0. -1.
         -1   -1    0    0    0  501 -0.00000000000E+00 -0.00000000000E+00 -0.20427050669E+03  0.20427050669E+03  0.00000000000E+00 0.  1.
         21    1    1    2  503  501 -0.17371845513E+02  0.17658110319E+02 -0.88435652574E+02  0.91839286380E+02  0.00000000000E+00 0. -1.
         -1    1    1    2    0  502  0.17371845513E+02 -0.17658110319E+02 -0.11278901384E+03  0.11547706058E+03  0.00000000000E+00 0.  1.
</event>
<event>
 4    1  0.1635676E+006  0.3056083E+02  0.7546771E-02  0.1414784E+00
         21   -1    0    0  501  502  0.00000000000E+00  0.00000000000E+00  0.24904125035E+01  0.24904125035E+01  0.00000000000E+00 0. -1.
         -2   -1    0    0    0  501 -0.00000000000E+00 -0.00000000000E+00 -0.38951905917E+03  0.38951905917E+03  0.00000000000E+00 0. -1.
         21    1    1    2  503  502 -0.45064276291E+01 -0.30226749339E+02 -0.15570374097E+03  0.15867457016E+03  0.00000000000E+00 0. -1.
         -2    1    1    2    0  503  0.45064276291E+01  0.30226749339E+02 -0.23132490570E+03  0.23333490151E+03  0.00000000000E+00 0. -1.
</event>
<event>
 4    1  0.1635676E+006  0.3770036E+02  0.7546771E-02  0.1362515E+00
         21   -1    0    0  501  502  0.00000000000E+00  0.00000000000E+00  0.28145622056E+01  0.28145622056E+01  0.00000000000E+00 0.  1.
          1   -1    0    0  503    0 -0.00000000000E+00 -0.00000000000E+00 -0.11698764270E+04  0.11698764270E+04  0.00000000000E+00 0. -1.
         21    1    1    2  503  502 -0.24934460622E+02 -0.28277024667E+02 -0.14149426476E+03  0.14643068124E+03  0.00000000000E+00 0.  1.
          1    1    1    2  501    0  0.24934460622E+02  0.28277024667E+02 -0.10255676001E+04  0.10262603080E+04  0.00000000000E+00 0. -1.
</event>
<event>
 4    1  0.1635676E+006  0.3315856E+02  0.7546771E-02  0.1393993E+00
          3   -1    0    0  503    0 -0.00000000000E+00  0.00000000000E+00  0.10832192303E+03  0.10832192303E+03  0.00000000000E+00 0. -1.
         21   -1    0    0  501  502  0.00000000000E+00 -0.00000000000E+00 -0.10343674003E+02  0.10343674003E+02  0.00000000000E+00 0.  1.
         21    1    1    2  503  502 -0.13604457339E+02 -0.30239188788E+02  0.40874613426E+02  0.52632915754E+02  0.00000000000E+00 0.  1.
          3    1    1    2  501    0  0.13604457339E+02  0.30239188788E+02  0.57103635605E+02  0.66032681283E+02  0.00000000000E+00 0. -1.
</event>
<event>
 4    1  0.1635676E+006  0.2014956E+02  0.7546771E-02  0.1531762E+00
         -2   -1    0    0    0  501 -0.00000000000E+00  0.00000000000E+00  0.22697666454E+01  0.22697666454E+01  0.00000000000E+00 0. -1.
         21   -1    0    0  503  502  0.00000000000E+00 -0.00000000000E+00 -0.32749472570E+03  0.32749472570E+03  0.00000000000E+00 0. -1.
         21    1    1    2  503  501  0.99799511612E+01 -0.17504436831E+02 -0.27368581734E+03  0.27442655000E+03  0.00000000000E+00 0. -1.
         -2    1    1    2    0  502 -0.99799511612E+01  0.17504436831E+02 -0.51539141718E+02  0.55337942345E+02  0.00000000000E+00 0. -1.
</event>
<event>
 4    1  0.1635676E+006  0.3284031E+02  0.7546771E-02  0.1396417E+00
         -1   -1    0    0    0  501 -0.00000000000E+00  0.00000000000E+00  0.32501996938E+01  0.32501996938E+01  0.00000000000E+00 0. -1.
         21   -1    0    0  503  502  0.00000000000E+00 -0.00000000000E+00 -0.33395745108E+03  0.33395745108E+03  0.00000000000E+00 0. -1.
         21    1    1    2  503  501 -0.10324637248E+02  0.31175116219E+02 -0.15186953582E+03  0.15537967021E+03  0.00000000000E+00 0. -1.
         -1    1    1    2    0  502  0.10324637248E+02 -0.31175116219E+02 -0.17883771557E+03  0.18182798056E+03  0.00000000000E+00 0. -1.
</event>
<event>
 4    1  0.1635676E+006  0.2526399E+02  0.7546771E-02  0.1465872E+00
          1   -1    0    0  502    0 -0.00000000000E+00  0.00000000000E+00  0.56409407575E+03  0.56409407575E+03  0.00000000000E+00 0.  1.
         21   -1    0    0  503  502  0.00000000000E+00 -0.00000000000E+00 -0.77017371530E+01  0.77017371530E+01  0.00000000000E+00 0.  1.
         21    1    1    2  503  501  0.13293339413E+01  0.25228996530E+02  0.14133304605E+02  0.28948569804E+02  0.00000000000E+00 0.  1.
          1    1    1    2  501    0 -0.13293339413E+01 -0.25228996530E+02  0.54225903399E+03  0.54284724310E+03  0.00000000000E+00 0.  1.
</event>
<event>
 4    1  0.1635676E+006  0.4256447E+02  0.7546771E-02  0.1334080E+00
         -3   -1    0    0    0  501 -0.00000000000E+00  0.00000000000E+00  0.13712355336E+03  0.13712355336E+03  0.00000000000E+00 0. -1.
         21   -1    0    0  503  502  0.00000000000E+00 -0.00000000000E+00 -0.13409075219E+02  0.13409075219E+02  0.00000000000E+00 0. -1.
         21    1    1    2  503  501  0.40501514459E+02  0.13090516540E+02  0.70972128698E+02  0.82757340150E+02  0.00000000000E+00 0. -1.
         -3    1    1    2    0  502 -0.40501514459E+02 -0.13090516540E+02  0.52742349442E+02  0.67775288427E+02  0.00000000000E+00 0. -1.
</event>
<event>
 4    1  0.1635676E+006  0.2471909E+02  0.7546771E-02  0.1471970E+00
         21   -1    0    0  501  502  0.00000000000E+00  0.00000000000E+00  0.12023632469E+04  0.12023632469E+04  0.00000000000E+00 0. -1.
          1   -1    0    0  503    0 -0.00000000000E+00 -0.00000000000E+00 -0.13856454657E+01  0.13856454657E+01  0.00000000000E+00 0. -1.
         21    1    1    2  503  502  0.23599827457E+02  0.73540317623E+01  0.10794401763E+04  0.10797231718E+04  0.00000000000E+00 0. -1.
          1    1    1    2  501    0 -0.23599827457E+02 -0.73540317623E+01  0.12153742519E+03  0.12402572056E+03  0.00000000000E+00 0. -1.
</event>
<event>
 4    1  0.1635676E+006  0.3344711E+02  0.7546771E-02  0.1391822E+00
          2   -1    0    0  502    0 -0.00000000000E+00  0.00000000000E+00  0.11739937748E+04  0.11739937748E+04  0.00000000000E+00 0.  1.
         21   -1    0    0  503  502  0.00000000000E+00 -0.00000000000E+00 -0.19235419410E+01  0.19235419410E+01  0.00000000000E+00 0.  1.
         21    1    1    2  503  501  0.23107634331E+02  0.24181526035E+02  0.16837450073E+03  0.17166444438E+03  0.00000000000E+00 0.  1.
          2    1    1    2  501    0 -0.23107634331E+02 -0.24181526035E+02  0.10036957321E+04  0.10042528723E+04  0.00000000000E+00 0.  1.
</event>
<event>
 4    1  0.1635676E+006  0.3365754E+02  0.7546771E-02  0.1390255E+00
         21   -1    0    0  503  502  0.00000000000E+00  0.00000000000E+00  0.20689011167E+03  0.20689011167E+03  0.00000000000E+00 0.  1.
          3   -1    0    0  502    0 -0.00000000000E+00 -0.00000000000E+00 -0.14658795620E+02  0.14658795620E+02  0.00000000000E+00 0. -1.
         21    1    1    2  503  501 -0.33190200513E+02 -0.55893472583E+01  0.18379340169E+03  0.18684979186E+03  0.00000000000E+00 0.  1.
          3    1    1    2  501    0  0.33190200513E+02  0.55893472583E+01  0.84379143587E+01  0.34699115430E+02  0.00000000000E+00 0. -1.
</event>
<event>
 4    1  0.1635676E+006  0.2912744E+02  0.7546771E-02  0.1427334E+00
         21   -1    0    0  501  502  0.00000000000E+00  0.00000000000E+00  0.47088427135E+01  0.47088427135E+01  0.00000000000E+00 0.  1.
          1   -1    0    0  503    0 -0.00000000000E+00 -0.00000000000E+00 -0.17575287482E+04  0.17575287482E+04  0.00000000000E+00 0.  1.
         21    1    1    2  503  502  0.27393073731E+02 -0.99008591810E+01 -0.41676077466E+02  0.50845874306E+02  0.00000000000E+00 0.  1.
          1    1    1    2  501    0 -0.27393073731E+02  0.99008591810E+01 -0.17111438280E+04  0.17113917166E+04  0.00000000000E+00 0.  1.
</event>
<event>
 4    1  0.1635676E+006  0.2070008E+02  0.7546771E-02  0.1523590E+00
         21   -1    0    0  501  502  0.00000000000E+00  0.00000000000E+00  0.13118191469E+03  0.13118191469E+03  0.00000000000E+00 0. -1.
         -1   -1    0    0    0  501 -0.00000000000E+00 -0.00000000000E+00 -0.15026614261E+03  0.15026614261E+03  0.00000000000E+00 0. -1.
         21    1    1    2  503  502 -0.11768324343E+02 -0.17029384516E+02  0.12964401899E+03  0.13128619522E+03  0.00000000000E+00 0. -1.
         -1    1    1    2    0  503  0.11768324343E+02  0.17029384516E+02 -0.14872824691E+03  0.15016186208E+03  0.00000000000E+00 0. -1.
</event>
<event>
 4    1  0.1635676E+006  0.2491001E+02  0.7546771E-02  0.1469813E+00
         -2   -1    0    0    0  501 -0.00000000000E+00  0.00000000000E+00  0.36388307960E+01  0.36388307960E+01  0.00000000000E+00 0.  1.
         21   -1    0    0  501  502  0.00000000000E+00 -0.00000000000E+00 -0.25400753926E+03  0.25400753926E+03  0.00000000000E+00 0.  1.
         21    1    1    2  503  502  0.24905992962E+02 -0.44755512024E+00 -0.19903776844E+03  0.20059048347E+03  0.00000000000E+00 0.  1.
         -2    1    1    2    0  503 -0.24905992962E+02  0.44755512024E+00 -0.51330940025E+02  0.57055886593E+02  0.00000000000E+00 0.  1.
</event>
<event>
 4    1  0.1635676E+006  0.2812551E+02  0.7546771E-02  0.1436618E+00
         21   -1    0    0  501  502  0.00000000000E+00  0.00000000000E+00  0.23787752973E+03  0.23787752973E+03  0.00000000000E+00 0. -1.
          1   -1    0    0  503    0 -0.00000000000E+00 -0.00000000000E+00 -0.59052681775E+02  0.59052681775E+02  0.00000000000E+00 0.  1.
         21    1    1    2  503  502  0.17819732414E+02 -0.21760090129E+02  0.23363671201E+03  0.23532351685E+03  0.00000000000E+00 0. -1.
          1    1    1    2  501    0 -0.17819732414E+02  0.21760090129E+02 -0.54811864050E+02  0.61606694656E+02  0.00000000000E+00 0.  1.
</event>
<event>
 4    1  0.1635676E+006  0.2053405E+02  0.7546771E-02  0.1526023E+00
         21   -1    0    0  503  502  0.00000000000E+00  0.00000000000E+00  0.10805051530E+02  0.10805051530E+02  0.00000000000E+00 0. -1.
          2   -1    0    0  502    0 -0.00000000000E+00 -0.00000000000E+00 -0.12218065589E+03  0.12218065589E+03  0.00000000000E+00 0. -1.
         21    1    1    2  503  501 -0.14531202773E+02 -0.14508316215E+02 -0.83175795631E+00  0.20550885984E+02  0.00000000000E+00 0. -1.
          2    1    1    2  501    0  0.14531202773E+02  0.14508316215E+02 -0.11054384641E+03  0.11243482144E+03  0.00000000000E+00 0. -1.
</event>
<event>
 4    1  0.1635676E+006  0.5529284E+02  0.7546771E-02  0.1276723E+00
          3   -1    0    0  503    0 -0.00000000000E+00  0.00000000000E+00  0.86095605440E+03  0.86095605440E+03  0.00000000000E+00 0. -1.
         21   -1    0    0  501  502  0.00000000000E+00 -0.00000000000E+00 -0.68112384968E+01  0.68112384968E+01  0.00000000000E+00 0. -1.
         21    1    1    2  503  502  0.45818908675E+02  0.30950369468E+02  0.12689250615E+03  0.13841606077E+03  0.00000000000E+00 0. -1.
          3    1    1    2  501    0 -0.45818908675E+02 -0.30950369468E+02  0.72725230975E+03  0.72935123212E+03  0.00000000000E+00 0. -1.
</event>
<event>
 4    1  0.1635676E+006  0.2443855E+02  0.7546771E-02  0.1475183E+00
          3   -1    0    0  503    0 -0.00000000000E+00  0.00000000000E+00  0.20931714520E+03  0.20931714520E+03  0.00000000000E+00 0.  1.
         21   -1    0    0  501  502  0.00000000000E+00 -0.00000000000E+00 -0.32260165595E+01  0.32260165595E+01  0.00000000000E+00 0. -1.
         21    1    1    2  503  502  0.22506196652E+02 -0.95243779160E+01  0.66922996833E+02  0.71245562441E+02  0.00000000000E+00 0. -1.
          3    1    1    2  501    0 -0.22506196652E+02  0.95243779160E+01  0.13916813181E+03  0.14129759932E+03  0.00000000000E+00 0.  1.
</event>
<event>
 4    1  0.1635676E+006  0.2340237E+02  0.7546771E-02  0.1487506E+00
          2   -1    0    0  502    0 -0.00000000000E+00  0.00000000000E+00  0.13868851043E+04  0.13868851043E+04  0.00000000000E+00 0.  1.
         21   -1    0    0  503  502  0.00000000000E+00 -0.00000000000E+00 -0.54090640652E+00  0.54090640652E+00  0.00000000000E+00 0.  1.
         21    1    1    2  503  501 -0.23391189834E+02 -0.72314626050E+00  0.33274644506E+03  0.33356838490E+03  0.00000000000E+00 0.  1.
          2    1    1    2  501    0  0.23391189834E+02  0.72314626050E+00  0.10535977528E+04  0.10538576258E+04  0.00000000000E+00 0.  1.
</event>
<event>
 4    1  0.1635676E+006  0.4610328E+02  0.7546771E-02  0.1316013E+00
         21   -1    0    0  501  502  0.00000000000E+00  0.00000000000E+00  0.10236732262E+03  0.10236732262E+03  0.00000000000E+00 0.  1.
          2   -1    0    0  503    0 -0.00000000000E+00 -0.00000000000E+00 -0.18245323530E+03  0.18245323530E+03  0.00000000000E+00 0. -1.
         21    1    1    2  503  502 -0.41474652592E+02 -0.20133689078E+02  0.94019344403E+02  0.10471460913E+03  0.00000000000E+00 0.  1.
          2    1    1    2  501    0  0.41474652592E+02  0.20133689078E+02 -0.17410525708E+03  0.18010594878E+03  0.00000000000E+00 0. -1.
</event>
<event>
 4    1  0.1635676E+006  0.2173210E+02  0.7546771E-02  0.1509064E+00
         21   -1    0    0  501  502  0.00000000000E+00  0.00000000000E+00  0.38387813580E+00  0.38387813580E+00  0.00000000000E+00 0. -1.
          2   -1    0    0  503    0 -0.00000000000E+00 -0.00000000000E+00 -0.15244966566E+04  0.15244966566E+04  0.00000000000E+00 0. -1.
         21    1    1    2  503  502  0.20987636135E+01 -0.21630514688E+02 -0.42711875738E+03  0.42767127198E+03  0.00000000000E+00 0. -1.
          2    1    1    2  501    0 -0.20987636135E+01  0.21630514688E+02 -0.10969940211E+04  0.10972092628E+04  0.00000000000E+00 0. -1.
</event>
<event>
 4    1  0.1635676E+006  0.2135757E+02  0.7546771E-02  0.1514221E+00
          1   -1    0    0  502    0 -0.00000000000E+00  0.00000000000E+00  0.55766306700E+02  0.55766306700E+02  0.00000000000E+00 0.  1.
         21   -1    0    0  503  502  0.00000000000E+00 -0.00000000000E+00 -0.88091316811E+01  0.88091316811E+01  0.00000000000E+00 0. -1.
         21    1    1    2  503  501  0.21209612534E+02 -0.25095702189E+01  0.14847161448E+02  0.26011224684E+02  0.00000000000E+00 0. -1.
          1    1    1    2  501    0 -0.21209612534E+02  0.25095702189E+01  0.32110013571E+02  0.38564213697E+02  0.00000000000E+00 0.  1.
</event>
<event>
 4    1  0.1635676E+006  0.3623963E+02  0.7546771E-02  0.1372052E+00
         21   -1    0    0  501  502  0.00000000000E+00  0.00000000000E+00  0.43367087411E+01  0.43367087411E+01  0.00000000000E+00 0.  1.
         -4   -1    0    0    0  501 -0.00000000000E+00 -0.00000000000E+00 -0.32683967659E+03  0.32683967659E+03  0.00000000000E+00 0.  1.
         21    1    1    2  503  502 -0.20578823074E+02  0.29829899833E+02 -0.11637671666E+03  0.12188868309E+03  0.00000000000E+00 0.  1.
         -4    1    1    2    0  503  0.20578823074E+02 -0.29829899833E+02 -0.20612625119E+03  0.20928770225E+03  0.00000000000E+00 0.  1.
</event>
<event>
 4    1  0.1635676E+006  0.2488511E+02  0.7546771E-02  0.1470093E+00
         21   -1    0    0  503  502  0.00000000000E+00  0.00000000000E+00  0.14198064293E+03  0.14198064293E+03  0.00000000000E+00 0.  1.
          4   -1    0    0  502    0 -0.00000000000E+00 -0.00000000000E+00 -0.15587248104E+02  0.15587248104E+02  0.00000000000E+00 0.  1.
         21    1    1    2  503  501 -0.14937180090E+02 -0.19903503515E+02  0.13005539205E+03  0.13241477940E+03  0.00000000000E+00 0.  1.
          4    1    1    2  501    0  0.14937180090E+02  0.19903503515E+02 -0.36619972278E+01  0.25153111634E+02  0.00000000000E+00 0.  1.
</event>
<event>
 4    1  0.1635676E+006  0.3063215E+02  0.7546771E-02  0.1414181E+00
         -4   -1    0    0    0  501 -0.00000000000E+00  0.00000000000E+00  0.41591243298E+02  0.41591243298E+02  0.00000000000E+00 0.  1.
         21   -1    0    0  503  502  0.00000000000E+00 -0.00000000000E+00 -0.49461640731E+02  0.49461640731E+02  0.00000000000E+00 0.  1.
         21    1    1    2  503  501 -0.15937377321E+02 -0.26159680220E+02 -0.37509959911E+02  0.48428565513E+02  0.00000000000E+00 0.  1.
         -4    1    1    2    0  502  0.15937377321E+02  0.26159680220E+02  0.29639562478E+02  0.42624318516E+02  0.00000000000E+00 0.  1.
</event>
<event>
 4    1  0.1635676E+006  0.2322939E+02  0.7546771E-02  0.1489638E+00
         21   -1    0    0  503  502  0.00000000000E+00  0.00000000000E+00  0.53322346730E+01  0.53322346730E+01  0.00000000000E+00 0.  1.
         -1   -1    0    0    0  501 -0.00000000000E+00 -0.00000000000E+00 -0.36015141385E+03  0.36015141385E+03  0.00000000000E+00 0. -1.
         21    1    1    2  503  501 -0.71101801896E+01  0.22114471329E+02 -0.22453976704E+02  0.32307670519E+02  0.00000000000E+00 0.  1.
         -1    1    1    2    0  502  0.71101801896E+01 -0.22114471329E+02 -0.33236520247E+03  0.33317597800E+03  0.00000000000E+00 0. -1.
</event>
<event>
 4    1  0.1635676E+006  0.2761194E+02  0.7546771E-02  0.1441556E+00
         -2   -1    0    0    0  501 -0.00000000000E+00  0.00000000000E+00  0.62243270620E+01  0.62243270620E+01  0.00000000000E+00 0.  1.
         21   -1    0    0  503  502  0.00000000000E+00 -0.00000000000E+00 -0.14092288336E+03  0.14092288336E+03  0.00000000000E+00 0.  1.
         21    1    1    2  503  501 -0.16088870281E+02  0.22440303744E+02 -0.93958104828E+02  0.97931325131E+02  0.00000000000E+00 0.  1.
         -2    1    1    2    0  502  0.16088870281E+02 -0.22440303744E+02 -0.40740451473E+02  0.49215885294E+02  0.00000000000E+00 0.  1.
</event>
<event>
 4    1  0.1635676E+006  0.2370028E+02  0.7546771E-02  0.1483887E+00
         21   -1    0    0  501  502  0.00000000000E+00  0.00000000000E+00  0.41233080226E+02  0.41233080226E+02  0.00000000000E+00 0. -1.
          4   -1    0    0  503    0 -0.00000000000E+00 -0.00000000000E+00 -0.14111598817E+02  0.14111598817E+02  0.00000000000E+00 0. -1.
         21    1    1    2  503  502 -0.19250391505E+02  0.13824816655E+02  0.18711804361E+02  0.30196601648E+02  0.00000000000E+00 0. -1.
          4    1    1    2  501    0  0.19250391505E+02 -0.13824816655E+02  0.84096770479E+01  0.25148077395E+02  0.00000000000E+00 0. -1.
</event>
<event>
 4    1  0.1635676E+006  0.2529512E+02  0.7546771E-02  0.1465529E+00
         21   -1    0    0  503  502  0.00000000000E+00  0.00000000000E+00  0.39352312173E+01  0.39352312173E+01  0.00000000000E+00 0. -1.
          2   -1    0    0  502    0 -0.00000000000E+00 -0.00000000000E+00 -0.45419947116E+03  0.45419947116E+03  0.00000000000E+00 0.  1.
         21    1    1    2  503  501 -0.22206527631E+00  0.25294141847E+02 -0.41589001785E+02  0.48677386888E+02  0.00000000000E+00 0. -1.
          2    1    1    2  501    0  0.22206527631E+00 -0.25294141847E+02 -0.40867523816E+03  0.40945731549E+03  0.00000000000E+00 0.  1.
</event>
<event>
 4    1  0.1635676E+006  0.2198476E+02  0.7546771E-02  0.1505656E+00
          3   -1    0    0  503    0 -0.00000000000E+00  0.00000000000E+00  0.98815221536E+01  0.98815221536E+01  0.00000000000E+00 0. -1.
         21   -1    0    0  501  502  0.00000000000E+00 -0.00000000000E+00 -0.96840366024E+02  0.96840366024E+02  0.00000000000E+00 0. -1.
         21    1    1    2  503  502 -0.12548360714E+02 -0.18051820082E+02 -0.81019011287E+02  0.83948852016E+02  0.00000000000E+00 0. -1.
          3    1    1    2  501    0  0.12548360714E+02  0.18051820082E+02 -0.59398325827E+01  0.22773036161E+02  0.00000000000E+00 0. -1.
</event>
<event>
 4    1  0.1635676E+006  0.2245407E+02  0.7546771E-02  0.1499470E+00
         21   -1    0    0  503  502  0.00000000000E+00  0.00000000000E+00  0.43871961211E+01  0.43871961211E+01  0.00000000000E+00 0.  1.
         -3   -1    0    0    0  501 -0.00000000000E+00 -0.00000000000E+00 -0.45571003213E+03  0.45571003213E+03  0.00000000000E+00 0. -1.
         21    1    1    2  503  501 -0.20355139946E+02 -0.94791189234E+01 -0.26723538471E+02  0.34904626143E+02  0.00000000000E+00 0.  1.
         -3    1    1    2    0  502  0.20355139946E+02  0.94791189234E+01 -0.42459929753E+03  0.42519260210E+03  0.00000000000E+00 0. -1.
</event>
<event>
 4    1  0.1635676E+006  0.2032053E+02  0.7546771E-02  0.1529191E+00
         -2   -1    0    0    0  501 -0.00000000000E+00  0.00000000000E+00  0.67641013193E+00  0.67641013193E+00  0.00000000000E+00 0. -1.
         21   -1    0    0  503  502  0.00000000000E+00 -0.00000000000E+00 -0.12512786558E+04  0.12512786558E+04  0.00000000000E+00 0. -1.
         21    1    1    2  503  501  0.12189875906E+02  0.16258260822E+02 -0.10732700631E+04  0.10734624131E+04  0.00000000000E+00 0. -1.
         -2    1    1    2    0  502 -0.12189875906E+02 -0.16258260822E+02 -0.17733218264E+03  0.17849265285E+03  0.00000000000E+00 0. -1.
</event>
<event>
 4    1  0.1635676E+006  0.2345353E+02  0.7546771E-02  0.1486880E+00
          1   -1    0    0  503    0 -0.00000000000E+00  0.00000000000E+00  0.17752432728E+01  0.17752432728E+01  0.00000000000E+00 0.  1.
         21   -1    0    0  501  502  0.00000000000E+00 -0.00000000000E+00 -0.33051818554E+03  0.33051818554E+03  0.00000000000E+00 0.  1.
         21    1    1    2  503  502 -0.21846095155E+02 -0.85332390017E+01 -0.20591395841E+03  0.20724532880E+03  0.00000000000E+00 0.  1.
          1    1    1    2  501    0  0.21846095155E+02  0.85332390017E+01 -0.12282898386E+03  0.12504810001E+03  0.00000000000E+00 0.  1.
</event>
<event>
 4    1  0.1635676E+006  0.2611407E+02  0.7546771E-02  0.1456716E+00
         21   -1    0    0  503  502  0.00000000000E+00  0.00000000000E+00  0.84164447589E+02  0.84164447589E+02  0.00000000000E+00 0.  1.
         -2   -1    0    0    0  501 -0.00000000000E+00 -0.00000000000E+00 -0.87905800364E+01  0.87905800364E+01  0.00000000000E+00 0.  1.
         21    1    1    2  503  501 -0.70370022382E+01  0.25148063246E+02  0.50690004314E+02  0.57021233088E+02  0.00000000000E+00 0.  1.
         -2    1    1    2    0  502  0.70370022382E+01 -0.25148063246E+02  0.24683863239E+02  0.35933794538E+02  0.00000000000E+00 0.  1.
</event>
<event>
 4    1  0.1635676E+006  0.5067466E+02  0.7546771E-02  0.1295274E+00
         21   -1    0    0  501  502  0.00000000000E+00  0.00000000000E+00  0.10062788066E+03  0.10062788066E+03  0.00000000000E+00 0.  1.
         -1   -1    0    0    0  501 -0.00000000000E+00 -0.00000000000E+00 -0.37190282257E+02  0.37190282257E+02  0.00000000000E+00 0.  1.
         21    1    1    2  503  502 -0.21960836739E+02  0.45668841251E+02 -0.68842208557E+01  0.51140139893E+02  0.00000000000E+00 0.  1.
         -1    1    1    2    0  503  0.21960836739E+02 -0.45668841251E+02  0.70321819257E+02  0.86678023023E+02  0.00000000000E+00 0.  1.
</event>
<event>
 4    1  0.1635676E+006  0.3284196E+02  0.7546771E-02  0.1396404E+00
         21   -1    0    0  501  502  0.00000000000E+00  0.00000000000E+00  0.16346582050E+03  0.16346582050E+03  0.00000000000E+00 0.  1.
          1   -1    0    0  503    0 -0.00000000000E+00 -0.00000000000E+00 -0.14372149441E+02  0.14372149441E+02  0.00000000000E+00 0. -1.
         21    1    1    2  503  502  0.11636891918E+02  0.30711188990E+02  0.13994296768E+03  0.14374501238E+03  0.00000000000E+00 0.  1.
          1    1    1    2  501    0 -0.11636891918E+02 -0.30711188990E+02  0.91507033817E+01  0.34092957558E+02  0.00000000000E+00 0. -1.
</event>
<event>
 4    1  0.1635676E+006  0.2586954E+02  0.7546771E-02  0.1459307E+00
         -3   -1    0    0    0  501 -0.00000000000E+00  0.00000000000E+00  0.55076369984E+02  0.55076369984E+02  0.00000000000E+00 0. -1.
         21   -1    0    0  503  502  0.00000000000E+00 -0.00000000000E+00 -0.22668548411E+02  0.22668548411E+02  0.00000000000E+00 0.  1.
         21    1    1    2  503  501 -0.23935566015E+02 -0.98143713978E+01 -0.10274220600E+02  0.27835100419E+02  0.00000000000E+00 0.  1.
         -3    1    1    2    0  502  0.23935566015E+02  0.98143713978E+01  0.42682042173E+02  0.49909817977E+02  0.00000000000E+00 0. -1.
</event>
<event>
 4    1  0.1635676E+006  0.2215141E+02  0.7546771E-02  0.1503438E+00
         21   -1    0    0  503  502  0.00000000000E+00  0.00000000000E+00  0.17531203652E+03  0.17531203652E+03  0.00000000000E+00 0.  1.
         -3   -1    0    0    0  501 -0.00000000000E+00 -0.00000000000E+00 -0.28016904189E+01  0.28016904189E+01  0.00000000000E+00 0.  1.
         21    1    1    2  503  501 -0.98964102861E+00  0.22129290398E+02  0.89054144719E+02  0.91767780699E+02  0.00000000000E+00 0.  1.
         -3    1    1    2    0  502  0.98964102861E+00 -0.22129290398E+02  0.83456201386E+02  0.86345946243E+02  0.00000000000E+00 0.  1.
</event>
<event>
 4    1  0.1635676E+006  0.2284491E+02  0.7546771E-02  0.1494455E+00
         -2   -1    0    0    0  501 -0.00000000000E+00  0.00000000000E+00  0.91044903367E+01  0.91044903367E+01  0.00000000000E+00 0.  1.
         21   -1    0    0  503  502  0.00000000000E+00 -0.00000000000E+00 -0.38194124268E+03  0.38194124268E+03  0.00000000000E+00 0.  1.
         21    1    1    2  503  501 -0.22726615861E+02 -0.23217888454E+01 -0.36667293092E+03  0.36738389736E+03  0.00000000000E+00 0.  1.
         -2    1    1    2    0  502  0.22726615861E+02  0.23217888454E+01 -0.61638214219E+01  0.23661835653E+02  0.00000000000E+00 0.  1.
</event>
<event>
 4    1  0.1635676E+006  0.2129024E+02  0.7546771E-02  0.1515161E+00
         21   -1    0    0  501  502  0.00000000000E+00  0.00000000000E+00  0.46028910809E+02  0.46028910809E+02  0.00000000000E+00 0.  1.
         -2   -1    0    0    0  501 -0.00000000000E+00 -0.00000000000E+00 -0.82412754767E+02  0.82412754767E+02  0.00000000000E+00 0.  1.
         21    1    1    2  503  502  0.15271653720E+02  0.14834107959E+02  0.42069973674E+02  0.47150364275E+02  0.00000000000E+00 0.  1.
         -2    1    1    2    0  503 -0.15271653720E+02 -0.14834107959E+02 -0.78453817632E+02  0.81291301301E+02  0.00000000000E+00 0.  1.
</event>
<event>
 4    1  0.1635676E+006  0.2023441E+02  0.7546771E-02  0.1530482E+00
         21   -1    0    0  503  502  0.00000000000E+00  0.00000000000E+00  0.59623665027E+01  0.59623665027E+01  0.00000000000E+00 0.  1.
          1   -1    0    0  502    0 -0.00000000000E+00 -0.00000000000E+00 -0.27597082763E+03  0.27597082763E+03  0.00000000000E+00 0. -1.
         21    1    1    2  503  501  0.15173375455E+02  0.13386561281E+02 -0.12828227762E+02  0.23958188019E+02  0.00000000000E+00 0.  1.
          1    1    1    2  501    0 -0.15173375455E+02 -0.13386561281E+02 -0.25718023336E+03  0.25797500611E+03  0.00000000000E+00 0. -1.
</event>
<event>
 4    1  0.1635676E+006  0.2468134E+02  0.7546771E-02  0.1472400E+00
          2   -1    0    0  502    0 -0.00000000000E+00  0.00000000000E+00  0.37534765286E+03  0.37534765286E+03  0.00000000000E+00 0. -1.
         21   -1    0    0  503  502  0.00000000000E+00 -0.00000000000E+00 -0.24586320032E+01  0.24586320032E+01  0.00000000000E+00 0.  1.
         21    1    1    2  503  501  0.11240321474E+02 -0.21973248787E+02  0.76312310200E+02  0.80204346373E+02  0.00000000000E+00 0.  1.
          2    1    1    2  501    0 -0.11240321474E+02  0.21973248787E+02  0.29657671066E+03  0.29760193849E+03  0.00000000000E+00 0. -1.
</event>
<event>
 4    1  0.1635676E+006  0.2256990E+02  0.7546771E-02  0.1497971E+00
          2   -1    0    0  502    0 -0.00000000000E+00  0.00000000000E+00  0.16760687320E+04  0.16760687320E+04  0.00000000000E+00 0.  1.
         21   -1    0    0  503  502  0.00000000000E+00 -0.00000000000E+00 -0.47855906719E+00  0.47855906719E+00  0.00000000000E+00 0.  1.
         21    1    1    2  503  501  0.80309276543E+00  0.22555612378E+02  0.33140934315E+03  0.33217699098E+03  0.00000000000E+00 0.  1.
          2    1    1    2  501    0 -0.80309276543E+00 -0.22555612378E+02  0.13441808298E+04  0.13443703001E+04  0.00000000000E+00 0.  1.
</event>
<event>
 4    1  0.1635676E+006  0.4088837E+02  0.7546771E-02  0.1343357E+00
         21   -1    0    0  503  502  0.00000000000E+00  0.00000000000E+00  0.50957806646E+02  0.50957806646E+02  0.00000000000E+00 0. -1.
          3   -1    0    0  502    0 -0.00000000000E+00 -0.00000000000E+00 -0.14742101709E+03  0.14742101709E+03  0.00000000000E+00 0. -1.
         21    1    1    2  503  501  0.65285908684E+01  0.40363796102E+02  0.39226747218E+02  0.56662123432E+02  0.00000000000E+00 0. -1.
          3    1    1    2  501    0 -0.65285908684E+01 -0.40363796102E+02 -0.13568995766E+03  0.14171670030E+03  0.00000000000E+00 0. -1.
</event>
<event>
 4    1  0.1635676E+006  0.2201167E+02  0.7546771E-02  0.1505296E+00
         21   -1    0    0  501  502  0.00000000000E+00  0.00000000000E+00  0.21844552630E+01  0.21844552630E+01  0.00000000000E+00 0.  1.
         -2   -1    0    0    0  501 -0.00000000000E+00 -0.00000000000E+00 -0.34737997866E+03  0.34737997866E+03  0.00000000000E+00 0.  1.
         21    1    1    2  503  502  0.61828463742E+01  0.21125477781E+02 -0.67509529677E+02  0.71007393967E+02  0.00000000000E+00 0.  1.
         -2    1    1    2    0  503 -0.61828463742E+01 -0.21125477781E+02 -0.27768599372E+03  0.27855703995E+03  0.00000000000E+00 0.  1.
</event>
<event>
 4    1  0.1635676E+006  0.2268096E+02  0.7546771E-02  0.1496544E+00
         21   -1    0    0  501  502  0.00000000000E+00  0.00000000000E+00  0.97261821807E+01  0.97261821807E+01  0.00000000000E+00 0. -1.
          2   -1    0    0  503    0 -0.00000000000E+00 -0.00000000000E+00 -0.57853977406E+03  0.57853977406E+03  0.00000000000E+00 0. -1.
         21    1    1    2  503  502 -0.15596753846E+02  0.16467153551E+02 -0.40410149181E+01  0.23038135301E+02  0.00000000000E+00 0. -1.
          2    1    1    2  501    0  0.15596753846E+02 -0.16467153551E+02 -0.56477257696E+03  0.56522782094E+03  0.00000000000E+00 0. -1.
</event>
<event>
 4    1  0.1635676E+006  0.2336108E+02  0.7546771E-02  0.1488013E+00
         21   -1    0    0  501  502  0.00000000000E+00  0.00000000000E+00  0.16389700667E+01  0.16389700667E+01  0.00000000000E+00 0. -1.
          1   -1    0    0  503    0 -0.00000000000E+00 -0.00000000000E+00 -0.85054885556E+03  0.85054885556E+03  0.00000000000E+00 0. -1.
         21    1    1    2  503  502  0.21855545419E+02 -0.82507676137E+01 -0.92070379683E+02  0.94987866840E+02  0.00000000000E+00 0. -1.
          1    1    1    2  501    0 -0.21855545419E+02  0.82507676137E+01 -0.75683950581E+03  0.75719995879E+03  0.00000000000E+00 0. -1.
</event>
<event>
 4    1  0.1635676E+006  0.2861780E+02  0.7546771E-02  0.1432001E+00
          3   -1    0    0  502    0 -0.00000000000E+00  0.00000000000E+00  0.32431105155E+02  0.32431105155E+02  0.00000000000E+00 0.  1.
         21   -1    0    0  503  502  0.00000000000E+00 -0.00000000000E+00 -0.54175120009E+02  0.54175120009E+02  0.00000000000E+00 0.  1.
         21    1    1    2  503  501  0.28169053288E+02 -0.50480427460E+01 -0.42511918455E+02  0.51246868288E+02  0.00000000000E+00 0.  1.
          3    1    1    2  501    0 -0.28169053288E+02  0.50480427460E+01  0.20767903601E+02  0.35359356875E+02  0.00000000000E+00 0.  1.
</event>
<event>
 4    1  0.1635676E+006  0.3886967E+02  0.7546771E-02  0.1355240E+00
          4   -1    0    0  502    0 -0.00000000000E+00  0.00000000000E+00  0.24838859353E+03  0.24838859353E+03  0.00000000000E+00 0. -1.
         21   -1    0    0  503  502  0.00000000000E+00 -0.00000000000E+00 -0.18129204730E+02  0.18129204730E+02  0.00000000000E+00 0. -1.
         21    1    1    2  503  501  0.14696613776E+02  0.35984176137E+02  0.65024001123E+01  0.39409803298E+02  0.00000000000E+00 0. -1.
          4    1    1    2  501    0 -0.14696613776E+02 -0.35984176137E+02  0.22375698868E+03  0.22710799496E+03  0.00000000000E+00 0. -1.
</event>
<event>
 4    1  0.1635676E+006  0.4855717E+02  0.7546771E-02  0.1304552E+00
          2   -1    0    0  502    0 -0.00000000000E+00  0.00000000000E+00  0.47166297730E+03  0.47166297730E+03  0.00000000000E+00 0. -1.
         21   -1    0    0  503  502  0.00000000000E+00 -0.00000000000E+00 -0.21585503586E+03  0.21585503586E+03  0.00000000000E+00 0.  1.
         21    1    1    2  503  501 -0.48551141053E+02 -0.76485320121E+00 -0.21185122730E+03  0.21734475104E+03  0.00000000000E+00 0.  1.
          2    1    1    2  501    0  0.48551141053E+02  0.76485320121E+00  0.46765916874E+03  0.47017326211E+03  0.00000000000E+00 0. -1.
</event>
<event>
 4    1  0.1635676E+006  0.2158962E+02  0.7546771E-02  0.1511011E+00
         21   -1    0    0  503  502  0.00000000000E+00  0.00000000000E+00  0.78122538384E+02  0.78122538384E+02  0.00000000000E+00 0. -1.
         -2   -1    0    0    0  501 -0.00000000000E+00 -0.00000000000E+00 -0.13908577730E+02  0.13908577730E+02  0.00000000000E+00 0. -1.
         21    1    1    2  503  501  0.20626155082E+02  0.63775854399E+01  0.66879213910E+02  0.70277600434E+02  0.00000000000E+00 0. -1.
         -2    1    1    2    0  502 -0.20626155082E+02 -0.63775854399E+01 -0.26652532567E+01  0.21753515680E+02  0.00000000000E+00 0. -1.
</event>
<event>
 4    1  0.1635676E+006  0.2139130E+02  0.7546771E-02  0.1513751E+00
         -3   -1    0    0    0  501 -0.00000000000E+00  0.00000000000E+00  0.21980706617E+02  0.21980706617E+02  0.00000000000E+00 0. -1.
         21   -1    0    0  503  502  0.00000000000E+00 -0.00000000000E+00 -0.21648494437E+02  0.21648494437E+02  0.00000000000E+00 0. -1.
         21    1    1    2  503  501 -0.17690335704E+00 -0.21390565945E+02 -0.41073769749E+01  0.21782060322E+02  0.00000000000E+00 0. -1.
         -3    1    1    2    0  502  0.17690335704E+00  0.21390565945E+02  0.44395891553E+01  0.21847140731E+02  0.00000000000E+00 0. -1.
</event>
<event>
 4    1  0.1635676E+006  0.3735334E+02  0.7546771E-02  0.1364734E+00
         -4   -1    0    0    0  501 -0.00000000000E+00  0.00000000000E+00  0.50027748908E+02  0.50027748908E+02  0.00000000000E+00 0. -1.
         21   -1    0    0  501  502  0.00000000000E+00 -0.00000000000E+00 -0.14323313818E+03  0.14323313818E+03  0.00000000000E+00 0. -1.
         21    1    1    2  503  502 -0.25727754413E+02 -0.27080525959E+02 -0.13331648384E+03  0.13845055831E+03  0.00000000000E+00 0. -1.
         -4    1    1    2    0  503  0.25727754413E+02  0.27080525959E+02  0.40111094566E+02  0.54810328777E+02  0.00000000000E+00 0. -1.
</event>
<event>
 4    1  0.1635676E+006  0.3490159E+02  0.7546771E-02  0.1381256E+00
          1   -1    0    0  502    0 -0.00000000000E+00  0.00000000000E+00  0.17421663358E+04  0.17421663358E+04  0.00000000000E+00 0.  1.
         21   -1    0    0  503  502  0.00000000000E+00 -0.00000000000E+00 -0.54487107496E+01  0.54487107496E+01  0.00000000000E+00 0.  1.
         21    1    1    2  503  501 -0.24687115571E+02  0.24671187043E+02  0.52540628685E+02  0.63076452088E+02  0.00000000000E+00 0.  1.
          1    1    1    2  501    0  0.24687115571E+02 -0.24671187043E+02  0.16841769964E+04  0.16845385945E+04  0.00000000000E+00 0.  1.
</event>
<event>
 4    1  0.1635676E+006  0.2844003E+02  0.7546771E-02  0.1433655E+00
          2   -1    0    0  502    0 -0.00000000000E+00  0.00000000000E+00  0.95931905442E+03  0.95931905442E+03  0.00000000000E+00 0. -1.
         21   -1    0    0  503  502  0.00000000000E+00 -0.00000000000E+00 -0.47620598215E+02  0.47620598215E+02  0.00000000000E+00 0. -1.
         21    1    1    2  503  501  0.26553083453E+02  0.10186707109E+02 -0.43143662953E+02  0.51674083403E+02  0.00000000000E+00 0. -1.
          2    1    1    2  501    0 -0.26553083453E+02 -0.10186707109E+02  0.95484211916E+03  0.95526556923E+03  0.00000000000E+00 0. -1.
</event>
<event>
 4    1  0.1635676E+006  0.3795621E+02  0.7546771E-02  0.1360897E+00
         21   -1    0    0  501  502  0.00000000000E+00  0.00000000000E+00  0.16505285124E+02  0.16505285124E+02  0.00000000000E+00 0.  1.
         -1   -1    0    0    0  501 -0.00000000000E+00 -0.00000000000E+00 -0.22599823990E+03  0.22599823990E+03  0.00000000000E+00 0.  1.
         21    1    1    2  503  502  0.17797482415E+02 -0.33524972536E+02 -0.97530608573E+01  0.39189237807E+02  0.00000000000E+00 0.  1.
         -1    1    1    2    0  503 -0.17797482415E+02  0.33524972536E+02 -0.19973989392E+03  0.20331428722E+03  0.00000000000E+00 0.  1.
</event>
<event>
 4    1  0.1635676E+006  0.2461110E+02  0.7546771E-02  0.1473201E+00
         21   -1    0    0  501  502  0.00000000000E+00  0.00000000000E+00  0.74612466491E+02  0.74612466491E+02  0.00000000000E+00 0. -1.
          2   -1    0    0  503    0 -0.00000000000E+00 -0.00000000000E+00 -0.90782036057E+01  0.90782036057E+01  0.00000000000E+00 0.  1.
         21    1    1    2  503  502  0.20771642658E+02 -0.13200202020E+02  0.46375976595E+02  0.52501787371E+02  0.00000000000E+00 0. -1.
          2    1    1    2  501    0 -0.20771642658E+02  0.13200202020E+02  0.19158286291E+02  0.31188882726E+02  0.00000000000E+00 0.  1.
</event>
<event>
 4    1  0.1635676E+006  0.2020742E+02  0.7546771E-02  0.1530888E+00
          1   -1    0    0  502    0 -0.00000000000E+00  0.00000000000E+00  0.14916384042E+03  0.14916384042E+03  0.00000000000E+00 0. -1.
         21   -1    0    0  503  502  0.00000000000E+00 -0.00000000000E+00 -0.13388174874E+02  0.13388174874E+02  0.00000000000E+00 0. -1.
         21    1    1    2  503  501  0.20103273099E+02 -0.20489238270E+01 -0.46041096944E+01  0.20725286590E+02  0.00000000000E+00 0. -1.
          1    1    1    2  501    0 -0.20103273099E+02  0.20489238270E+01  0.14037977525E+03  0.14182672871E+03  0.00000000000E+00 0. -1.
</event>
<event>
 4    1  0.1635676E+006  0.2068962E+02  0.7546771E-02  0.1523743E+00
         -3   -1    0    0    0  501 -0.00000000000E+00  0.00000000000E+00  0.70213510939E+02  0.70213510939E+02  0.00000000000E+00 0. -1.
         21   -1    0    0  503  502  0.00000000000E+00 -0.00000000000E+00 -0.55090062659E+02  0.55090062659E+02  0.00000000000E+00 0. -1.
         21    1    1    2  503  501 -0.76375020193E+01 -0.19228336638E+02 -0.51521761052E+02  0.55520736927E+02  0.00000000000E+00 0. -1.
         -3    1    1    2    0  502  0.76375020193E+01  0.19228336638E+02  0.66645209332E+02  0.69782836671E+02  0.00000000000E+00 0. -1.
</event>
<event>
 4    1  0.1635676E+006  0.4003074E+02  0.7546771E-02  0.1348306E+00
         21   -1    0    0  501  502  0.00000000000E+00  0.00000000000E+00  0.13769175141E+03  0.13769175141E+03  0.00000000000E+00 0.  1.
         -2   -1    0    0    0  501 -0.00000000000E+00 -0.00000000000E+00 -0.44600265207E+03  0.44600265207E+03  0.00000000000E+00 0.  1.
         21    1    1    2  503  502  0.31754199867E+02 -0.24374798115E+02  0.13385884136E+03  0.13971631759E+03  0.00000000000E+00 0.  1.
         -2    1    1    2    0  503 -0.31754199867E+02  0.24374798115E+02 -0.44216974202E+03  0.44397808589E+03  0.00000000000E+00 0.  1.
</event>
<event>
 4    1  0.1635676E+006  0.2026239E+02  0.7546771E-02  0.1530062E+00
         -2   -1    0    0    0  501 -0.00000000000E+00  0.00000000000E+00  0.59530639875E+02  0.59530639875E+02  0.00000000000E+00 0. -1.
         21   -1    0    0  503  502  0.00000000000E+00 -0.00000000000E+00 -0.68345533139E+02  0.68345533139E+02  0.00000000000E+00 0.  1.
         21    1    1    2  503  501 -0.11498332616E+02  0.16683909516E+02 -0.65033795660E+02  0.68117245009E+02  0.00000000000E+00 0.  1.
         -2    1    1    2    0  502  0.11498332616E+02 -0.16683909516E+02  0.56218902396E+02  0.59758928005E+02  0.00000000000E+00 0. -1.
</event>
<event>
 4    1  0.1635676E+006  0.2212213E+02  0.7546771E-02  0.1503826E+00
         -1   -1    0    0    0  501 -0.00000000000E+00  0.00000000000E+00  0.98088846479E+02  0.98088846479E+02  0.00000000000E+00 0.  1.
         21   -1    0    0  503  502  0.00000000000E+00 -0.00000000000E+00 -0.50954431041E+01  0.50954431041E+01  0.00000000000E+00 0.  1.
         21    1    1    2  503  501 -0.21268284501E+02  0.60867637307E+01  0.39048268582E+02  0.44879348231E+02  0.00000000000E+00 0.  1.
         -1    1    1    2    0  502  0.21268284501E+02 -0.60867637307E+01  0.53945134792E+02  0.58304941352E+02  0.00000000000E+00 0.  1.
</event>
<event>
 4    1  0.1635676E+006  0.2211269E+02  0.7546771E-02  0.1503951E+00
         -1   -1    0    0    0  501 -0.00000000000E+00  0.00000000000E+00  0.21642194894E+01  0.21642194894E+01  0.00000000000E+00 0.  1.
         21   -1    0    0  503  502  0.00000000000E+00 -0.00000000000E+00 -0.31003312595E+03  0.31003312595E+03  0.00000000000E+00 0. -1.
         21    1    1    2  503  501 -0.11997358963E+02  0.18575097773E+02 -0.23523449463E+03  0.23627153520E+03  0.00000000000E+00 0. -1.
         -1    1    1    2    0  502  0.11997358963E+02 -0.18575097773E+02 -0.72634411829E+02  0.75925810244E+02  0.00000000000E+00 0.  1.
</event>
<event>
 4    1  0.1635676E+006  0.3429503E+02  0.7546771E-02  0.1385588E+00
         21   -1    0    0  503  502  0.00000000000E+00  0.00000000000E+00  0.39712364113E+01  0.39712364113E+01  0.00000000000E+00 0. -1.
          1   -1    0    0  502    0 -0.00000000000E+00 -0.00000000000E+00 -0.40308010816E+03  0.40308010816E+03  0.00000000000E+00 0. -1.
         21    1    1    2  503  501  0.34291900069E+02  0.46298200651E+00 -0.94735631161E+02  0.10075211449E+03  0.00000000000E+00 0. -1.
          1    1    1    2  501    0 -0.34291900069E+02 -0.46298200651E+00 -0.30437324059E+03  0.30629923008E+03  0.00000000000E+00 0. -1.
</event>
<event>
 4    1  0.1635676E+006  0.4428021E+02  0.7546771E-02  0.1325078E+00
          4   -1    0    0  502    0 -0.00000000000E+00  0.00000000000E+00  0.15085263796E+03  0.15085263796E+03  0.00000000000E+00 0. -1.
         21   -1    0    0  503  502  0.00000000000E+00 -0.00000000000E+00 -0.70090809212E+02  0.70090809212E+02  0.00000000000E+00 0. -1.
         21    1    1    2  503  501 -0.35034380312E+02  0.27080054014E+02 -0.59323054267E+02  0.74026764733E+02  0.00000000000E+00 0. -1.
          4    1    1    2  501    0  0.35034380312E+02 -0.27080054014E+02  0.14008488302E+03  0.14691668244E+03  0.00000000000E+00 0. -1.
</event>
<event>
 4    1  0.1635676E+006  0.2007493E+02  0.7546771E-02  0.1532893E+00
         -1   -1    0    0    0  501 -0.00000000000E+00  0.00000000000E+00  0.11145675668E+04  0.11145675668E+04  0.00000000000E+00 0.  1.
         21   -1    0    0  501  502  0.00000000000E+00 -0.00000000000E+00 -0.13150449375E+02  0.13150449375E+02  0.00000000000E+00 0. -1.
         21    1    1    2  503  502 -0.84317528160E+01 -0.18218350298E+02 -0.53446375790E+01  0.20774212235E+02  0.00000000000E+00 0. -1.
         -1    1    1    2    0  503  0.84317528160E+01  0.18218350298E+02  0.11067617550E+04  0.11069438039E+04  0.00000000000E+00 0.  1.
</event>
<event>
 4    1  0.1635676E+006  0.2341963E+02  0.7546771E-02  0.1487295E+00
          2   -1    0    0  503    0 -0.00000000000E+00  0.00000000000E+00  0.10052683006E+04  0.10052683006E+04  0.00000000000E+00 0. -1.
         21   -1    0    0  501  502  0.00000000000E+00 -0.00000000000E+00 -0.57087290889E+00  0.57087290889E+00  0.00000000000E+00 0. -1.
         21    1    1    2  503  502  0.22707815664E+02  0.57301212445E+01  0.39654145928E+03  0.39723243587E+03  0.00000000000E+00 0. -1.
          2    1    1    2  501    0 -0.22707815664E+02 -0.57301212445E+01  0.60815596843E+03  0.60860673766E+03  0.00000000000E+00 0. -1.
</event>
<event>
 4    1  0.1635676E+006  0.2547111E+02  0.7546771E-02  0.1463602E+00
          2   -1    0    0  503    0 -0.00000000000E+00  0.00000000000E+00  0.15759727848E+03  0.15759727848E+03  0.00000000000E+00 0. -1.
         21   -1    0    0  501  502  0.00000000000E+00 -0.00000000000E+00 -0.41214345291E+01  0.41214345291E+01  0.00000000000E+00 0. -1.
         21    1    1    2  503  502 -0.65383970313E+01  0.24617608142E+02  0.79484842960E+02  0.83466265801E+02  0.00000000000E+00 0. -1.
          2    1    1    2  501    0  0.65383970313E+01 -0.24617608142E+02  0.73991000987E+02  0.78252447205E+02  0.00000000000E+00 0. -1.
</event>
<event>
 4    1  0.1635676E+006  0.2043489E+02  0.7546771E-02  0.1527488E+00
          2   -1    0    0  503    0 -0.00000000000E+00  0.00000000000E+00  0.53493306451E+03  0.53493306451E+03  0.00000000000E+00 0.  1.
         21   -1    0    0  501  502  0.00000000000E+00 -0.00000000000E+00 -0.58191939000E+02  0.58191939000E+02  0.00000000000E+00 0. -1.
         21    1    1    2  503  502 -0.17485172185E+02  0.10576076118E+02 -0.56196068558E+02  0.59796176749E+02  0.00000000000E+00 0. -1.
          2    1    1    2  501    0  0.17485172185E+02 -0.10576076118E+02  0.53293719407E+03  0.53332882676E+03  0.00000000000E+00 0.  1.
</event>
<event>
 4    1  0.1635676E+006  0.2028525E+02  0.7546771E-02  0.1529719E+00
         21   -1    0    0  501  502  0.00000000000E+00  0.00000000000E+00  0.42712811878E+01  0.42712811878E+01  0.00000000000E+00 0.  1.
          1   -1    0    0  503    0 -0.00000000000E+00 -0.00000000000E+00 -0.84669617025E+03  0.84669617025E+03  0.00000000000E+00 0. -1.
         21    1    1    2  503  502 -0.21310537555E+01 -0.20172997875E+02 -0.20665746802E+02  0.28957975141E+02  0.00000000000E+00 0.  1.
          1    1    1    2  501    0  0.21310537555E+01  0.20172997875E+02 -0.82175914226E+03  0.82200947629E+03  0.00000000000E+00 0. -1.
</event>
<event>
 4    1  0.1635676E+006  0.3116332E+02  0.7546771E-02  0.1409749E+00
          2   -1    0    0  502    0 -0.00000000000E+00  0.00000000000E+00  0.71581684022E+02  0.71581684022E+02  0.00000000000E+00 0.  1.
         21   -1    0    0  503  502  0.00000000000E+00 -0.00000000000E+00 -0.54376647358E+02  0.54376647358E+02  0.00000000000E+00 0. -1.
         21    1    1    2  503  501  0.13174532861E+02  0.28241537065E+02 -0.45957161266E+02  0.55526690911E+02  0.00000000000E+00 0. -1.
          2    1    1    2  501    0 -0.13174532861E+02 -0.28241537065E+02  0.63162197930E+02  0.70431640470E+02  0.00000000000E+00 0.  1.
</event>
<event>
 4    1  0.1635676E+006  0.2423928E+02  0.7546771E-02  0.1477496E+00
          2   -1    0    0  503    0 -0.00000000000E+00  0.00000000000E+00  0.76512579239E+00  0.76512579239E+00  0.00000000000E+00 0.  1.
         21   -1    0    0  501  502  0.00000000000E+00 -0.00000000000E+00 -0.95808668452E+03  0.95808668452E+03  0.00000000000E+00 0.  1.
         21    1    1    2  503  502  0.14804541710E+02 -0.19192923352E+02 -0.69226270815E+03  0.69268694218E+03  0.00000000000E+00 0.  1.
          2    1    1    2  501    0 -0.14804541710E+02  0.19192923352E+02 -0.26505885058E+03  0.26616486814E+03  0.00000000000E+00 0.  1.
</event>
<event>
 4    1  0.1635676E+006  0.2152120E+02  0.7546771E-02  0.1511952E+00
         21   -1    0    0  503  502  0.00000000000E+00  0.00000000000E+00  0.29173794306E+03  0.29173794306E+03  0.00000000000E+00 0.  1.
         -4   -1    0    0    0  501 -0.00000000000E+00 -0.00000000000E+00 -0.54254312275E+01  0.54254312275E+01  0.00000000000E+00 0.  1.
         21    1    1    2  503  501 -0.21427310269E+02 -0.20080677800E+01  0.26812209866E+03  0.26898442660E+03  0.00000000000E+00 0.  1.
         -4    1    1    2    0  502  0.21427310269E+02  0.20080677800E+01  0.18190413172E+02  0.28178947691E+02  0.00000000000E+00 0.  1.
</event>
<event>
 4    1  0.1635676E+006  0.3297915E+02  0.7546771E-02  0.1395355E+00
          3   -1    0    0  502    0 -0.00000000000E+00  0.00000000000E+00  0.13565494967E+03  0.13565494967E+03  0.00000000000E+00 0. -1.
         21   -1    0    0  503  502  0.00000000000E+00 -0.00000000000E+00 -0.50584550184E+02  0.50584550184E+02  0.00000000000E+00 0. -1.
         21    1    1    2  503  501  0.11346518900E+02 -0.30965801484E+02 -0.42886700178E+02  0.54100770834E+02  0.00000000000E+00 0. -1.
          3    1    1    2  501    0 -0.11346518900E+02  0.30965801484E+02  0.12795709966E+03  0.13213872902E+03  0.00000000000E+00 0. -1.
</event>
<event>
 4    1  0.1635676E+006  0.5101427E+02  0.7546771E-02  0.1293834E+00
         21   -1    0    0  503  502  0.00000000000E+00  0.00000000000E+00  0.25176246676E+02  0.25176246676E+02  0.00000000000E+00 0. -1.
          2   -1    0    0  502    0 -0.00000000000E+00 -0.00000000000E+00 -0.18028160826E+04  0.18028160826E+04  0.00000000000E+00 0. -1.
         21    1    1    2  503  501 -0.18684323395E+02  0.47469486624E+02 -0.14137963893E+01  0.51033860537E+02  0.00000000000E+00 0. -1.
          2    1    1    2  501    0  0.18684323395E+02 -0.47469486624E+02 -0.17762260395E+04  0.17769584687E+04  0.00000000000E+00 0. -1.
</event>
<event>
 4    1  0.1635676E+006  0.3928780E+02  0.7546771E-02  0.1352711E+00
         21   -1    0    0  503  502  0.00000000000E+00  0.00000000000E+00  0.10511772387E+03  0.10511772387E+03  0.00000000000E+00 0. -1.
         -1   -1    0    0    0  501 -0.00000000000E+00 -0.00000000000E+00 -0.46288034048E+02  0.46288034048E+02  0.00000000000E+00 0. -1.
         21    1    1    2  503  501  0.34164880982E+02  0.19398242803E+02  0.91968176925E+02  0.10000838207E+03  0.00000000000E+00 0. -1.
         -1    1    1    2    0  502 -0.34164880982E+02 -0.19398242803E+02 -0.33138487107E+02  0.51397375849E+02  0.00000000000E+00 0. -1.
</event>
<event>
 4    1  0.1635676E+006  0.2573563E+02  0.7546771E-02  0.1460740E+00
          2   -1    0    0  503    0 -0.00000000000E+00  0.00000000000E+00  0.45510976567E+01  0.45510976567E+01  0.00000000000E+00 0.  1.
         21   -1    0    0  501  502  0.00000000000E+00 -0.00000000000E+00 -0.43772443607E+03  0.43772443607E+03  0.00000000000E+00 0.  1.
         21    1    1    2  503  502 -0.15799681554E+02 -0.20314845744E+02 -0.39726173632E+03  0.39809447376E+03  0.00000000000E+00 0.  1.
          2    1    1    2  501    0  0.15799681554E+02  0.20314845744E+02 -0.35911602093E+02  0.44181059965E+02  0.00000000000E+00 0.  1.
</event>
<event>
 4    1  0.1635676E+006  0.2584774E+02  0.7546771E-02  0.1459539E+00
         21   -1    0    0  503  502  0.00000000000E+00  0.00000000000E+00  0.15586212934E+02  0.15586212934E+02  0.00000000000E+00 0. -1.
         -1   -1    0    0    0  501 -0.00000000000E+00 -0.00000000000E+00 -0.53316916640E+02  0.53316916640E+02  0.00000000000E+00 0.  1.
         21    1    1    2  503  501 -0.58082640465E+01  0.25186698190E+02 -0.36118051437E+01  0.26098866515E+02  0.00000000000E+00 0. -1.
         -1    1    1    2    0  502  0.58082640465E+01 -0.25186698190E+02 -0.34118898562E+02  0.42804263059E+02  0.00000000000E+00 0.  1.
</event>
<event>
 4    1  0.1635676E+006  0.2147458E+02  0.7546771E-02  0.1512596E+00
          1   -1    0    0  503    0 -0.00000000000E+00  0.00000000000E+00  0.99547910354E+00  0.99547910354E+00  0.00000000000E+00 0. -1.
         21   -1    0    0  501  502  0.00000000000E+00 -0.00000000000E+00 -0.14911675084E+04  0.14911675084E+04  0.00000000000E+00 0.  1.
         21    1    1    2  503  502  0.14584175596E+01  0.21425000875E+02 -0.13645296136E+04  0.13646985836E+04  0.00000000000E+00 0.  1.
          1    1    1    2  501    0 -0.14584175596E+01 -0.21425000875E+02 -0.12564241561E+03  0.12746440383E+03  0.00000000000E+00 0. -1.
</event>
<event>
 4    1  0.1635676E+006  0.2454461E+02  0.7546771E-02  0.1473963E+00
         21   -1    0    0  501  502  0.00000000000E+00  0.00000000000E+00  0.17773265787E+02  0.17773265787E+02  0.00000000000E+00 0. -1.
          3   -1    0    0  503    0 -0.00000000000E+00 -0.00000000000E+00 -0.64503282258E+02  0.64503282258E+02  0.00000000000E+00 0. -1.
         21    1    1    2  503  502 -0.16825170279E+02 -0.17870409358E+02  0.49730072012E+01  0.25043336163E+02  0.00000000000E+00 0. -1.
          3    1    1    2  501    0  0.16825170279E+02  0.17870409358E+02 -0.51703023672E+02  0.57233211882E+02  0.00000000000E+00 0. -1.
</event>
<event>
 4    1  0.1635676E+006  0.4134905E+02  0.7546771E-02  0.1340757E+00
          1   -1    0    0  502    0 -0.00000000000E+00  0.00000000000E+00  0.11257758769E+04  0.11257758769E+04  0.00000000000E+00 0.  1.
         21   -1    0    0  503  502  0.00000000000E+00 -0.00000000000E+00 -0.22169171508E+01  0.22169171508E+01  0.00000000000E+00 0.  1.
         21    1    1    2  503  501 -0.36605277674E+02 -0.19230117439E+02  0.24526824246E+03  0.24872927960E+03  0.00000000000E+00 0.  1.
          1    1    1    2  501    0  0.36605277674E+02  0.19230117439E+02  0.87829071728E+03  0.87926351444E+03  0.00000000000E+00 0.  1.
</event>
<event>
 4    1  0.1635676E+006  0.2166364E+02  0.7546771E-02  0.1509997E+00
         21   -1    0    0  503  502  0.00000000000E+00  0.00000000000E+00  0.10260117588E+02  0.10260117588E+02  0.00000000000E+00 0. -1.
         -2   -1    0    0    0  501 -0.00000000000E+00 -0.00000000000E+00 -0.81204199721E+02  0.81204199721E+02  0.00000000000E+00 0.  1.
         21    1    1    2  503  501  0.95826224221E+01  0.19429010729E+02 -0.52503759949E+01  0.22290795376E+02  0.00000000000E+00 0. -1.
         -2    1    1    2    0  502 -0.95826224221E+01 -0.19429010729E+02 -0.65693706138E+02  0.69173521933E+02  0.00000000000E+00 0.  1.
</event>
<event>
 4    1  0.1635676E+006  0.5314614E+02  0.7546771E-02  0.1285079E+00
         21   -1    0    0  503  502  0.00000000000E+00  0.00000000000E+00  0.30492451891E+01  0.30492451891E+01  0.00000000000E+00 0.  1.
          3   -1    0    0  502    0 -0.00000000000E+00 -0.00000000000E+00 -0.98845817411E+03  0.98845817411E+03  0.00000000000E+00 0.  1.
         21    1    1    2  503  501  0.36595596953E+02  0.38539252908E+02 -0.36838457042E+03  0.37219847320E+03  0.00000000000E+00 0.  1.
          3    1    1    2  501    0 -0.36595596953E+02 -0.38539252908E+02 -0.61702435850E+03  0.61930894610E+03  0.00000000000E+00 0.  1.
</event>
<event>
 4    1  0.1635676E+006  0.2474371E+02  0.7546771E-02  0.1471691E+00
         -1   -1    0    0    0  501 -0.00000000000E+00  0.00000000000E+00  0.10752701970E+04  0.10752701970E+04  0.00000000000E+00 0.  1.
         21   -1    0    0  501  502  0.00000000000E+00 -0.00000000000E+00 -0.20060887690E+03  0.20060887690E+03  0.00000000000E+00 0.  1.
         21    1    1    2  503  502  0.20296319091E+02 -0.14153116627E+02 -0.19970289407E+03  0.20122996094E+03  0.00000000000E+00 0.  1.
         -1    1    1    2    0  503 -0.20296319091E+02  0.14153116627E+02  0.10743642142E+04  0.10746491130E+04  0.00000000000E+00 0.  1.
</event>
<event>
 4    1  0.1635676E+006  0.2259842E+02  0.7546771E-02  0.1497603E+00
          1   -1    0    0  503    0 -0.00000000000E+00  0.00000000000E+00  0.47351301647E+03  0.47351301647E+03  0.00000000000E+00 0. -1.
         21   -1    0    0  501  502  0.00000000000E+00 -0.00000000000E+00 -0.12122458822E+01  0.12122458822E+01  0.00000000000E+00 0.  1.
         21    1    1    2  503  502 -0.12586212449E+01 -0.22563343402E+02  0.15731145484E+03  0.15892634274E+03  0.00000000000E+00 0.  1.
          1    1    1    2  501    0  0.12586212449E+01  0.22563343402E+02  0.31498931574E+03  0.31579891960E+03  0.00000000000E+00 0. -1.
</event>
<event>
 4    1  0.1635676E+006  0.2127767E+02  0.7546771E-02  0.1515337E+00
          1   -1    0    0  502    0 -0.00000000000E+00  0.00000000000E+00  0.10544987204E+04  0.10544987204E+04  0.00000000000E+00 0. -1.
         21   -1    0    0  503  502  0.00000000000E+00 -0.00000000000E+00 -0.22397196289E+02  0.22397196289E+02  0.00000000000E+00 0. -1.
         21    1    1    2  503  501 -0.17599700856E+02  0.11957840388E+02 -0.17211360661E+02  0.27367322718E+02  0.00000000000E+00 0. -1.
          1    1    1    2  501    0  0.17599700856E+02 -0.11957840388E+02  0.10493128848E+04  0.10495285940E+04  0.00000000000E+00 0. -1.
</event>
<event>
 4    1  0.1635676E+006  0.2461879E+02  0.7546771E-02  0.1473113E+00
         21   -1    0    0  501  502  0.00000000000E+00  0.00000000000E+00  0.14833064878E+01  0.14833064878E+01  0.00000000000E+00 0. -1.
          1   -1    0    0  503    0 -0.00000000000E+00 -0.00000000000E+00 -0.14150148247E+04  0.14150148247E+04  0.00000000000E+00 0. -1.
         21    1    1    2  503  502 -0.11431515187E+02  0.21803787546E+02 -0.10946481020E+03  0.11219906133E+03  0.00000000000E+00 0. -1.
          1    1    1    2  501    0  0.11431515187E+02 -0.21803787546E+02 -0.13040667080E+04  0.13042990698E+04  0.00000000000E+00 0. -1.
</event>
<event>
 4    1  0.1635676E+006  0.2213201E+02  0.7546771E-02  0.1503695E+00
         21   -1    0    0  503  502  0.00000000000E+00  0.00000000000E+00  0.75929074400E+00  0.75929074400E+00  0.00000000000E+00 0. -1.
          2   -1    0    0  502    0 -0.00000000000E+00 -0.00000000000E+00 -0.90219525078E+03  0.90219525078E+03  0.00000000000E+00 0. -1.
         21    1    1    2  503  501 -0.21356810706E+02  0.58062321402E+01 -0.20971378608E+03  0.21087839569E+03  0.00000000000E+00 0. -1.
          2    1    1    2  501    0  0.21356810706E+02 -0.58062321402E+01 -0.69172217396E+03  0.69207614584E+03  0.00000000000E+00 0. -1.
</event>
<event>
 4    1  0.1635676E+006  0.2846227E+02  0.7546771E-02  0.1433448E+00
          1   -1    0    0  503    0 -0.00000000000E+00  0.00000000000E+00  0.23888116559E+01  0.23888116559E+01  0.00000000000E+00 0. -1.
         21   -1    0    0  501  502  0.00000000000E+00 -0.00000000000E+00 -0.34450518320E+03  0.34450518320E+03  0.00000000000E+00 0.  1.
         21    1    1    2  503  502  0.23694219441E+02 -0.15769751017E+02 -0.19273753987E+03  0.19482777101E+03  0.00000000000E+00 0.  1.
          1    1    1    2  501    0 -0.23694219441E+02  0.15769751017E+02 -0.14937883168E+03  0.15206622385E+03  0.00000000000E+00 0. -1.
</event>
<event>
 4    1  0.1635676E+006  0.6315165E+02  0.7546771E-02  0.1249485E+00
         21   -1    0    0  503  502  0.00000000000E+00  0.00000000000E+00  0.77892850716E+02  0.77892850716E+02  0.00000000000E+00 0. -1.
         -2   -1    0    0    0  501 -0.00000000000E+00 -0.00000000000E+00 -0.21112288845E+04  0.21112288845E+04  0.00000000000E+00 0. -1.
         21    1    1    2  503  501  0.62994900203E+02  0.44467986753E+01  0.64539083384E+02  0.90296316393E+02  0.00000000000E+00 0. -1.
         -2    1    1    2    0  502 -0.62994900203E+02 -0.44467986753E+01 -0.20978751171E+04  0.20988254188E+04  0.00000000000E+00 0. -1.
</event>
<event>
 4    1  0.1635676E+006  0.2314695E+02  0.7546771E-02  0.1490661E+00
          2   -1    0    0  503    0 -0.00000000000E+00  0.00000000000E+00  0.54613006963E+01  0.54613006963E+01  0.00000000000E+00 0.  1.
         21   -1    0    0  501  502  0.00000000000E+00 -0.00000000000E+00 -0.20925042436E+03  0.20925042436E+03  0.00000000000E+00 0.  1.
         21    1    1    2  503  502  0.13091666508E+02 -0.19088990220E+02 -0.18013625713E+03  0.18161732410E+03  0.00000000000E+00 0.  1.
          2    1    1    2  501    0 -0.13091666508E+02  0.19088990220E+02 -0.23652866536E+02  0.33094400961E+02  0.00000000000E+00 0.  1.
</event>
<event>
 4    1  0.1635676E+006  0.2501450E+02  0.7546771E-02  0.1468641E+00
         21   -1    0    0  501  502  0.00000000000E+00  0.00000000000E+00  0.10055655744E+01  0.10055655744E+01  0.00000000000E+00 0. -1.
          2   -1    0    0  503    0 -0.00000000000E+00 -0.00000000000E+00 -0.10206660906E+04  0.10206660906E+04  0.00000000000E+00 0. -1.
         21    1    1    2  503  502 -0.24349095396E+02 -0.57311962470E+01 -0.19067537268E+03  0.19230918544E+03  0.00000000000E+00 0. -1.
          2    1    1    2  501    0  0.24349095396E+02  0.57311962470E+01 -0.82898515235E+03  0.82936247074E+03  0.00000000000E+00 0. -1.
</event>
<event>
 4    1  0.1635676E+006  0.2366688E+02  0.7546771E-02  0.1484290E+00
         21   -1    0    0  501  502  0.00000000000E+00  0.00000000000E+00  0.25510527961E+02  0.25510527961E+02  0.00000000000E+00 0.  1.
         -4   -1    0    0    0  501 -0.00000000000E+00 -0.00000000000E+00 -0.44621782289E+02  0.44621782289E+02  0.00000000000E+00 0.  1.
         21    1    1    2  503  502  0.19088667692E+02 -0.13990858751E+02  0.15436053552E+02  0.28255850936E+02  0.00000000000E+00 0.  1.
         -4    1    1    2    0  503 -0.19088667692E+02  0.13990858751E+02 -0.34547307880E+02  0.41876459313E+02  0.00000000000E+00 0.  1.
</event>
<event>
 4    1  0.1635676E+006  0.2366064E+02  0.7546771E-02  0.1484365E+00
         21   -1    0    0  501  502  0.00000000000E+00  0.00000000000E+00  0.44115575522E+02  0.44115575522E+02  0.00000000000E+00 0.  1.
          4   -1    0    0  503    0 -0.00000000000E+00 -0.00000000000E+00 -0.27724674585E+02  0.27724674585E+02  0.00000000000E+00 0. -1.
         21    1    1    2  503  502 -0.21984638200E+02  0.87465298128E+01  0.34647042054E+02  0.41955257402E+02  0.00000000000E+00 0.  1.
          4    1    1    2  501    0  0.21984638200E+02 -0.87465298128E+01 -0.18256141117E+02  0.29884992706E+02  0.00000000000E+00 0. -1.
</event>
<event>
 4    1  0.1635676E+006  0.4068246E+02  0.7546771E-02  0.1344532E+00
         21   -1    0    0  501  502  0.00000000000E+00  0.00000000000E+00  0.26685812972E+01  0.26685812972E+01  0.00000000000E+00 0. -1.
         -1   -1    0    0    0  501 -0.00000000000E+00 -0.00000000000E+00 -0.97238702410E+03  0.97238702410E+03  0.00000000000E+00 0. -1.
         21    1    1    2  503  502 -0.15092610722E+02 -0.37779302219E+02 -0.19145623338E+03  0.19573081484E+03  0.00000000000E+00 0. -1.
         -1    1    1    2    0  503  0.15092610722E+02  0.37779302219E+02 -0.77826220942E+03  0.77932479057E+03  0.00000000000E+00 0. -1.
</event>
<event>
 4    1  0.1635676E+006  0.2428516E+02  0.7546771E-02  0.1476961E+00
          2   -1    0    0  502    0 -0.00000000000E+00  0.00000000000E+00  0.48587345850E+03  0.48587345850E+03  0.00000000000E+00 0.  1.
         21   -1    0    0  503  502  0.00000000000E+00 -0.00000000000E+00 -0.30505222180E+02  0.30505222180E+02  0.00000000000E+00 0.  1.
         21    1    1    2  503  501  0.72348588025E+01  0.23182449888E+02 -0.25316275761E+02  0.35081091532E+02  0.00000000000E+00 0.  1.
          2    1    1    2  501    0 -0.72348588025E+01 -0.23182449888E+02  0.48068451208E+03  0.48129758915E+03  0.00000000000E+00 0.  1.
</event>
<event>
 4    1  0.1635676E+006  0.2517467E+02  0.7546771E-02  0.1466859E+00
         -3   -1    0    0    0  501 -0.00000000000E+00  0.00000000000E+00  0.84252269454E+03  0.84252269454E+03  0.00000000000E+00 0. -1.
         21   -1    0    0  501  502  0.00000000000E+00 -0.00000000000E+00 -0.85876901826E+03  0.85876901826E+03  0.00000000000E+00 0. -1.
         21    1    1    2  503  502 -0.24379374920E+02  0.62777570036E+01 -0.85839638327E+03  0.85876545982E+03  0.00000000000E+00 0. -1.
         -3    1    1    2    0  503  0.24379374920E+02 -0.62777570036E+01  0.84215005956E+03  0.84252625299E+03  0.00000000000E+00 0. -1.
</event>
<event>
 4    1  0.1635676E+006  0.2103930E+02  0.7546771E-02  0.1518704E+00
         21   -1    0    0  501  502  0.00000000000E+00  0.00000000000E+00  0.19966587428E+01  0.19966587428E+01  0.00000000000E+00 0.  1.
          2   -1    0    0  503    0 -0.00000000000E+00 -0.00000000000E+00 -0.33752342855E+03  0.33752342855E+03  0.00000000000E+00 0.  1.
         21    1    1    2  503  502  0.66844464695E+01  0.19949198051E+02 -0.68317179063E+02  0.71483489580E+02  0.00000000000E+00 0.  1.
          2    1    1    2  501    0 -0.66844464695E+01 -0.19949198051E+02 -0.26720959074E+03  0.26803659771E+03  0.00000000000E+00 0.  1.
</event>
<event>
 4    1  0.1635676E+006  0.2337799E+02  0.7546771E-02  0.1487805E+00
         -1   -1    0    0    0  501 -0.00000000000E+00  0.00000000000E+00  0.42131103095E+02  0.42131103095E+02  0.00000000000E+00 0.  1.
         21   -1    0    0  503  502  0.00000000000E+00 -0.00000000000E+00 -0.12988906893E+02  0.12988906893E+02  0.00000000000E+00 0.  1.
         21    1    1    2  503  501  0.16321873999E+02  0.16736988169E+02  0.15561446714E+02  0.28083606742E+02  0.00000000000E+00 0.  1.
         -1    1    1    2    0  502 -0.16321873999E+02 -0.16736988169E+02  0.13580749487E+02  0.27036403246E+02  0.00000000000E+00 0.  1.
</event>
<event>
 4    1  0.1635676E+006  0.2454606E+02  0.7546771E-02  0.1473946E+00
          2   -1    0    0  503    0 -0.00000000000E+00  0.00000000000E+00  0.28362718680E+03  0.28362718680E+03  0.00000000000E+00 0.  1.
         21   -1    0    0  501  502  0.00000000000E+00 -0.00000000000E+00 -0.77315136436E+01  0.77315136436E+01  0.00000000000E+00 0.  1.
         21    1    1    2  503  502  0.14951270810E+02 -0.19467115248E+02  0.13885685838E+02  0.28201442270E+02  0.00000000000E+00 0.  1.
          2    1    1    2  501    0 -0.14951270810E+02  0.19467115248E+02  0.26200998732E+03  0.26315725818E+03  0.00000000000E+00 0.  1.
</event>
<event>
 4    1  0.1635676E+006  0.2089126E+02  0.7546771E-02  0.1520823E+00
         21   -1    0    0  501  502  0.00000000000E+00  0.00000000000E+00  0.40855135723E+02  0.40855135723E+02  0.00000000000E+00 0.  1.
          2   -1    0    0  503    0 -0.00000000000E+00 -0.00000000000E+00 -0.25071956976E+02  0.25071956976E+02  0.00000000000E+00 0. -1.
         21    1    1    2  503  502  0.24071367397E+01  0.20752123638E+02  0.32863877491E+02  0.38942000289E+02  0.00000000000E+00 0.  1.
          2    1    1    2  501    0 -0.24071367397E+01 -0.20752123638E+02 -0.17080698744E+02  0.26985092410E+02  0.00000000000E+00 0. -1.
</event>
<event>
 4    1  0.1635676E+006  0.2636127E+02  0.7546771E-02  0.1454132E+00
         21   -1    0    0  501  502  0.00000000000E+00  0.00000000000E+00  0.84338638430E+01  0.84338638430E+01  0.00000000000E+00 0. -1.
          1   -1    0    0  503    0 -0.00000000000E+00 -0.00000000000E+00 -0.28876895079E+03  0.28876895079E+03  0.00000000000E+00 0.  1.
         21    1    1    2  503  502  0.26248791010E+02  0.24325929269E+01 -0.14543121845E+02  0.30106792104E+02  0.00000000000E+00 0. -1.
          1    1    1    2  501    0 -0.26248791010E+02 -0.24325929269E+01 -0.26579196510E+03  0.26709602253E+03  0.00000000000E+00 0.  1.
</event>
<event>
 4    1  0.1635676E+006  0.2523893E+02  0.7546771E-02  0.1466148E+00
          3   -1    0    0  502    0 -0.00000000000E+00  0.00000000000E+00  0.17616911385E+03  0.17616911385E+03  0.00000000000E+00 0. -1.
         21   -1    0    0  503  502  0.00000000000E+00 -0.00000000000E+00 -0.11262298571E+02  0.11262298571E+02  0.00000000000E+00 0. -1.
         21    1    1    2  503  501  0.74594706338E+01 -0.24111404155E+02  0.52336633003E+01  0.25775855835E+02  0.00000000000E+00 0. -1.
          3    1    1    2  501    0 -0.74594706338E+01  0.24111404155E+02  0.15967315198E+03  0.16165555659E+03  0.00000000000E+00 0. -1.
</event>
<event>
 4    1  0.1635676E+006  0.2073413E+02  0.7546771E-02  0.1523095E+00
         21   -1    0    0  501  502  0.00000000000E+00  0.00000000000E+00  0.47895479969E+02  0.47895479969E+02  0.00000000000E+00 0.  1.
          2   -1    0    0  503    0 -0.00000000000E+00 -0.00000000000E+00 -0.35395919210E+03  0.35395919210E+03  0.00000000000E+00 0. -1.
         21    1    1    2  503  502  0.12966158767E+01  0.20693545336E+02  0.45331511701E+02  0.49848269623E+02  0.00000000000E+00 0.  1.
          2    1    1    2  501    0 -0.12966158767E+01 -0.20693545336E+02 -0.35139522383E+03  0.35200640244E+03  0.00000000000E+00 0. -1.
</event>
<event>
 4    1  0.1635676E+006  0.6629603E+02  0.7546771E-02  0.1239821E+00
          1   -1    0    0  503    0 -0.00000000000E+00  0.00000000000E+00  0.67675957388E+02  0.67675957388E+02  0.00000000000E+00 0.  1.
         21   -1    0    0  501  502  0.00000000000E+00 -0.00000000000E+00 -0.13801119756E+03  0.13801119756E+03  0.00000000000E+00 0.  1.
         21    1    1    2  503  502  0.57022273548E+01  0.66050346117E+02 -0.10999844371E+03  0.12843216590E+03  0.00000000000E+00 0.  1.
          1    1    1    2  501    0 -0.57022273548E+01 -0.66050346117E+02  0.39663203533E+02  0.77254989053E+02  0.00000000000E+00 0.  1.
</event>
<event>
 4    1  0.1635676E+006  0.2222434E+02  0.7546771E-02  0.1502475E+00
          4   -1    0    0  502    0 -0.00000000000E+00  0.00000000000E+00  0.19117707538E+03  0.19117707538E+03  0.00000000000E+00 0.  1.
         21   -1    0    0  503  502  0.00000000000E+00 -0.00000000000E+00 -0.84795621060E+02  0.84795621060E+02  0.00000000000E+00 0.  1.
         21    1    1    2  503  501  0.15429426821E+02  0.15995434909E+02 -0.82677254977E+02  0.85612204974E+02  0.00000000000E+00 0.  1.
          4    1    1    2  501    0 -0.15429426821E+02 -0.15995434909E+02  0.18905870929E+03  0.19036049146E+03  0.00000000000E+00 0.  1.
</event>
<event>
 4    1  0.1635676E+006  0.3964141E+02  0.7546771E-02  0.1350600E+00
         21   -1    0    0  503  502  0.00000000000E+00  0.00000000000E+00  0.73153276057E+01  0.73153276057E+01  0.00000000000E+00 0.  1.
         -2   -1    0    0    0  501 -0.00000000000E+00 -0.00000000000E+00 -0.45201626449E+03  0.45201626449E+03  0.00000000000E+00 0. -1.
         21    1    1    2  503  501  0.61779873584E+01  0.39157039749E+02 -0.55979367239E+02  0.68593956339E+02  0.00000000000E+00 0.  1.
         -2    1    1    2    0  502 -0.61779873584E+01 -0.39157039749E+02 -0.38872156964E+03  0.39073763575E+03  0.00000000000E+00 0. -1.
</event>
<event>
 4    1  0.1635676E+006  0.2335410E+02  0.7546771E-02  0.1488099E+00
         21   -1    0    0  501  502  0.00000000000E+00  0.00000000000E+00  0.19757556635E+02  0.19757556635E+02  0.00000000000E+00 0.  1.
          2   -1    0    0  503    0 -0.00000000000E+00 -0.00000000000E+00 -0.74974814733E+03  0.74974814733E+03  0.00000000000E+00 0. -1.
         21    1    1    2  503  502 -0.15709591850E+02  0.17280698468E+02  0.12607930602E+02  0.26540040122E+02  0.00000000000E+00 0.  1.
          2    1    1    2  501    0  0.15709591850E+02 -0.17280698468E+02 -0.74259852129E+03  0.74296566384E+03  0.00000000000E+00 0. -1.
</event>
<event>
 4    1  0.1635676E+006  0.2681614E+02  0.7546771E-02  0.1449464E+00
         21   -1    0    0  503  502  0.00000000000E+00  0.00000000000E+00  0.12924001800E+02  0.12924001800E+02  0.00000000000E+00 0.  1.
         -1   -1    0    0    0  501 -0.00000000000E+00 -0.00000000000E+00 -0.13531019280E+03  0.13531019280E+03  0.00000000000E+00 0.  1.
         21    1    1    2  503  501 -0.59925534591E+01 -0.26137996361E+02 -0.43211469375E+01  0.27162066593E+02  0.00000000000E+00 0.  1.
         -1    1    1    2    0  502  0.59925534591E+01  0.26137996361E+02 -0.11806504407E+03  0.12107212801E+03  0.00000000000E+00 0.  1.
</event>
<event>
 4    1  0.1635676E+006  0.2002342E+02  0.7546771E-02  0.1533678E+00
         21   -1    0    0  501  502  0.00000000000E+00  0.00000000000E+00  0.19341037433E+01  0.19341037433E+01  0.00000000000E+00 0.  1.
          1   -1    0    0  503    0 -0.00000000000E+00 -0.00000000000E+00 -0.36401462297E+03  0.36401462297E+03  0.00000000000E+00 0.  1.
         21    1    1    2  503  502 -0.19851651398E+02  0.26170832602E+01 -0.60983285130E+02  0.64186433560E+02  0.00000000000E+00 0.  1.
          1    1    1    2  501    0  0.19851651398E+02 -0.26170832602E+01 -0.30109723410E+03  0.30176229316E+03  0.00000000000E+00 0.  1.
</event>
<event>
 4    1  0.1635676E+006  0.3208906E+02  0.7546771E-02  0.1402271E+00
         21   -1    0    0  501  502  0.00000000000E+00  0.00000000000E+00  0.14977919952E+03  0.14977919952E+03  0.00000000000E+00 0. -1.
          2   -1    0    0  503    0 -0.00000000000E+00 -0.00000000000E+00 -0.70620263766E+01  0.70620263766E+01  0.00000000000E+00 0. -1.
         21    1    1    2  503  502  0.32057341364E+02 -0.14263713556E+01  0.84126075299E+02  0.90038348584E+02  0.00000000000E+00 0. -1.
          2    1    1    2  501    0 -0.32057341364E+02  0.14263713556E+01  0.58591097841E+02  0.66802877309E+02  0.00000000000E+00 0. -1.
</event>
<event>
 4    1  0.1635676E+006  0.2718074E+02  0.7546771E-02  0.1445801E+00
         21   -1    0    0  501  502  0.00000000000E+00  0.00000000000E+00  0.26317562347E+01  0.26317562347E+01  0.00000000000E+00 0. -1.
          2   -1    0    0  503    0 -0.00000000000E+00 -0.00000000000E+00 -0.18895637712E+04  0.18895637712E+04  0.00000000000E+00 0. -1.
         21    1    1    2  503  502  0.55722526287E+01  0.26603428901E+02 -0.70470763967E+02  0.75530927458E+02  0.00000000000E+00 0. -1.
          2    1    1    2  501    0 -0.55722526287E+01 -0.26603428901E+02 -0.18164612510E+04  0.18166646000E+04  0.00000000000E+00 0. -1.
</event>
<event>
 4    1  0.1635676E+006  0.3090302E+02  0.7546771E-02  0.1411908E+00
          2   -1    0    0  502    0 -0.00000000000E+00  0.00000000000E+00  0.98335601047E+03  0.98335601047E+03  0.00000000000E+00 0. -1.
         21   -1    0    0  503  502  0.00000000000E+00 -0.00000000000E+00 -0.32532551044E+03  0.32532551044E+03  0.00000000000E+00 0.  1.
         21    1    1    2  503  501  0.29174409427E+02 -0.10190695915E+02 -0.32434811274E+03  0.32581696500E+03  0.00000000000E+00 0.  1.
          2    1    1    2  501    0 -0.29174409427E+02  0.10190695915E+02  0.98237861276E+03  0.98286455591E+03  0.00000000000E+00 0. -1.
</event>
<event>
 4    1  0.1635676E+006  0.2273317E+02  0.7546771E-02  0.1495876E+00
         21   -1    0    0  503  502  0.00000000000E+00  0.00000000000E+00  0.18517009084E+02  0.18517009084E+02  0.00000000000E+00 0.  1.
         -4   -1    0    0    0  501 -0.00000000000E+00 -0.00000000000E+00 -0.13991155437E+03  0.13991155437E+03  0.00000000000E+00 0. -1.
         21    1    1    2  503  501  0.26241596927E+01  0.22581208108E+02  0.10177232047E+02  0.24907292624E+02  0.00000000000E+00 0.  1.
         -4    1    1    2    0  502 -0.26241596927E+01 -0.22581208108E+02 -0.13157177733E+03  0.13352127083E+03  0.00000000000E+00 0. -1.
</event>
<event>
 4    1  0.1635676E+006  0.2600635E+02  0.7546771E-02  0.1457853E+00
          2   -1    0    0  503    0 -0.00000000000E+00  0.00000000000E+00  0.97253517168E+02  0.97253517168E+02  0.00000000000E+00 0. -1.
         21   -1    0    0  501  502  0.00000000000E+00 -0.00000000000E+00 -0.72972757010E+01  0.72972757010E+01  0.00000000000E+00 0. -1.
         21    1    1    2  503  502 -0.25829623116E+02 -0.30267132281E+01  0.33645072077E+02  0.42524361234E+02  0.00000000000E+00 0. -1.
          2    1    1    2  501    0  0.25829623116E+02  0.30267132281E+01  0.56311169389E+02  0.62026431634E+02  0.00000000000E+00 0. -1.
</event>
<event>
 4    1  0.1635676E+006  0.3103015E+02  0.7546771E-02  0.1410851E+00
         21   -1    0    0  501  502  0.00000000000E+00  0.00000000000E+00  0.15752690928E+02  0.15752690928E+02  0.00000000000E+00 0.  1.
          1   -1    0    0  503    0 -0.00000000000E+00 -0.00000000000E+00 -0.21820649964E+03  0.21820649964E+03  0.00000000000E+00 0.  1.
         21    1    1    2  503  502  0.24304068852E+02 -0.19292022795E+02 -0.19747454808E+01  0.31092917618E+02  0.00000000000E+00 0.  1.
          1    1    1    2  501    0 -0.24304068852E+02  0.19292022795E+02 -0.20047906323E+03  0.20286627295E+03  0.00000000000E+00 0.  1.
</event>
<event>
 4    1  0.1635676E+006  0.2228649E+02  0.7546771E-02  0.1501657E+00
         21   -1    0    0  501  502  0.00000000000E+00  0.00000000000E+00  0.21069140318E+01  0.21069140318E+01  0.00000000000E+00 0. -1.
          2   -1    0    0  503    0 -0.00000000000E+00 -0.00000000000E+00 -0.40874674156E+03  0.40874674156E+03  0.00000000000E+00 0. -1.
         21    1    1    2  503  502 -0.13249314972E+02 -0.17920473653E+02 -0.69672902219E+02  0.73150536750E+02  0.00000000000E+00 0. -1.
          2    1    1    2  501    0  0.13249314972E+02  0.17920473653E+02 -0.33696692531E+03  0.33770311884E+03  0.00000000000E+00 0. -1.
</event>
<event>
 4    1  0.1635676E+006  0.2241136E+02  0.7546771E-02  0.1500025E+00
          2   -1    0    0  503    0 -0.00000000000E+00  0.00000000000E+00  0.70053676698E+03  0.70053676698E+03  0.00000000000E+00 0. -1.
         21   -1    0    0  501  502  0.00000000000E+00 -0.00000000000E+00 -0.22482969769E+01  0.22482969769E+01  0.00000000000E+00 0.  1.
         21    1    1    2  503  502  0.20286074419E+02  0.95259742160E+01  0.59143824626E+02  0.63247616489E+02  0.00000000000E+00 0.  1.
          2    1    1    2  501    0 -0.20286074419E+02 -0.95259742160E+01  0.63914464538E+03  0.63953744747E+03  0.00000000000E+00 0. -1.
</event>
<event>
 4    1  0.1635676E+006  0.2018575E+02  0.7546771E-02  0.1531215E+00
          2   -1    0    0  503    0 -0.00000000000E+00  0.00000000000E+00  0.16226841431E+01  0.16226841431E+01  0.00000000000E+00 0.  1.
         21   -1    0    0  501  502  0.00000000000E+00 -0.00000000000E+00 -0.37261820400E+03  0.37261820400E+03  0.00000000000E+00 0. -1.
         21    1    1    2  503  502  0.39434222474E+01  0.19796818422E+02 -0.29235412439E+03  0.29305016404E+03  0.00000000000E+00 0. -1.
          2    1    1    2  501    0 -0.39434222474E+01 -0.19796818422E+02 -0.78641395464E+02  0.81190724096E+02  0.00000000000E+00 0.  1.
</event>
<event>
 4    1  0.1635676E+006  0.2811325E+02  0.7546771E-02  0.1436735E+00
         21   -1    0    0  501  502  0.00000000000E+00  0.00000000000E+00  0.76460291284E+01  0.76460291284E+01  0.00000000000E+00 0.  1.
          1   -1    0    0  503    0 -0.00000000000E+00 -0.00000000000E+00 -0.10413048424E+04  0.10413048424E+04  0.00000000000E+00 0.  1.
         21    1    1    2  503  502  0.26149237493E+02 -0.10323379501E+02 -0.19065955635E+02  0.33968595056E+02  0.00000000000E+00 0.  1.
          1    1    1    2  501    0 -0.26149237493E+02  0.10323379501E+02 -0.10145928577E+04  0.10149822765E+04  0.00000000000E+00 0.  1.
</event>
<event>
 4    1  0.1635676E+006  0.2032696E+02  0.7546771E-02  0.1529095E+00
         21   -1    0    0  503  502  0.00000000000E+00  0.00000000000E+00  0.10719354117E+02  0.10719354117E+02  0.00000000000E+00 0.  1.
         -4   -1    0    0    0  501 -0.00000000000E+00 -0.00000000000E+00 -0.40478197787E+02  0.40478197787E+02  0.00000000000E+00 0.  1.
         21    1    1    2  503  501  0.15073548231E+02 -0.13637203711E+02 -0.92861451841E+01  0.22347654770E+02  0.00000000000E+00 0.  1.
         -4    1    1    2    0  502 -0.15073548231E+02  0.13637203711E+02 -0.20472698485E+02  0.28849897134E+02  0.00000000000E+00 0.  1.
</event>
<event>
 4    1  0.1635676E+006  0.2153198E+02  0.7546771E-02  0.1511803E+00
          2   -1    0    0  503    0 -0.00000000000E+00  0.00000000000E+00  0.28289391561E+01  0.28289391561E+01  0.00000000000E+00 0.  1.
         21   -1    0    0  501  502  0.00000000000E+00 -0.00000000000E+00 -0.16624419634E+03  0.16624419634E+03  0.00000000000E+00 0.  1.
         21    1    1    2  503  502 -0.29955030814E+01  0.21322598115E+02 -0.71641250705E+02  0.74807052019E+02  0.00000000000E+00 0.  1.
          2    1    1    2  501    0  0.29955030814E+01 -0.21322598115E+02 -0.91774006483E+02  0.94266083482E+02  0.00000000000E+00 0.  1.
</event>
<event>
 4    1  0.1635676E+006  0.2638023E+02  0.7546771E-02  0.1453935E+00
         21   -1    0    0  503  502  0.00000000000E+00  0.00000000000E+00  0.18402680564E+02  0.18402680564E+02  0.00000000000E+00 0. -1.
          2   -1    0    0  502    0 -0.00000000000E+00 -0.00000000000E+00 -0.75251228663E+02  0.75251228663E+02  0.00000000000E+00 0. -1.
         21    1    1    2  503  501  0.13904539065E+02  0.22418298242E+02  0.46034915283E+01  0.26778880427E+02  0.00000000000E+00 0. -1.
          2    1    1    2  501    0 -0.13904539065E+02 -0.22418298242E+02 -0.61452039627E+02  0.66875028800E+02  0.00000000000E+00 0. -1.
</event>
<event>
 4    1  0.1635676E+006  0.2091879E+02  0.7546771E-02  0.1520428E+00
         -1   -1    0    0    0  501 -0.00000000000E+00  0.00000000000E+00  0.52554589347E+03  0.52554589347E+03  0.00000000000E+00 0.  1.
         21   -1    0    0  501  502  0.00000000000E+00 -0.00000000000E+00 -0.78954675331E+02  0.78954675331E+02  0.00000000000E+00 0. -1.
         21    1    1    2  503  502 -0.11320121723E+02 -0.17591202876E+02 -0.77356697654E+02  0.80135224754E+02  0.00000000000E+00 0. -1.
         -1    1    1    2    0  503  0.11320121723E+02  0.17591202876E+02  0.52394791579E+03  0.52436534405E+03  0.00000000000E+00 0.  1.
</event>
<event>
 4    1  0.1635676E+006  0.4566012E+02  0.7546771E-02  0.1318171E+00
         -4   -1    0    0    0  501 -0.00000000000E+00  0.00000000000E+00  0.40111619580E+02  0.40111619580E+02  0.00000000000E+00 0.  1.
         21   -1    0    0  503  502  0.00000000000E+00 -0.00000000000E+00 -0.52137298799E+02  0.52137298799E+02  0.00000000000E+00 0. -1.
         21    1    1    2  503  501  0.44599243544E+02  0.97854193219E+01 -0.85772688200E+01  0.46458761245E+02  0.00000000000E+00 0. -1.
         -4    1    1    2    0  502 -0.44599243544E+02 -0.97854193219E+01 -0.34484103997E+01  0.45790157134E+02  0.00000000000E+00 0.  1.
</event>
<event>
 4    1  0.1635676E+006  0.3021100E+02  0.7546771E-02  0.1417771E+00
         -3   -1    0    0    0  501 -0.00000000000E+00  0.00000000000E+00  0.81923995408E+02  0.81923995408E+02  0.00000000000E+00 0. -1.
         21   -1    0    0  503  502  0.00000000000E+00 -0.00000000000E+00 -0.25076343157E+03  0.25076343157E+03  0.00000000000E+00 0. -1.
         21    1    1    2  503  501 -0.22162765283E+02  0.20530863511E+02 -0.24702630879E+03  0.24886683539E+03  0.00000000000E+00 0. -1.
         -3    1    1    2    0  502  0.22162765283E+02 -0.20530863511E+02  0.78186872633E+02  0.83820591585E+02  0.00000000000E+00 0. -1.
</event>
<event>
 4    1  0.1635676E+006  0.2096826E+02  0.7546771E-02  0.1519718E+00
         -1   -1    0    0    0  501 -0.00000000000E+00  0.00000000000E+00  0.35904942788E+01  0.35904942788E+01  0.00000000000E+00 0. -1.
         21   -1    0    0  501  502  0.00000000000E+00 -0.00000000000E+00 -0.19539301359E+03  0.19539301359E+03  0.00000000000E+00 0. -1.
         21    1    1    2  503  502 -0.19800115368E+02  0.69009735683E+01 -0.15668878856E+03  0.15808556058E+03  0.00000000000E+00 0. -1.
         -1    1    1    2    0  503  0.19800115368E+02 -0.69009735683E+01 -0.35113730747E+02  0.40897947281E+02  0.00000000000E+00 0. -1.
</event>
<event>
 4    1  0.1635676E+006  0.2323573E+02  0.7546771E-02  0.1489559E+00
         -2   -1    0    0    0  501 -0.00000000000E+00  0.00000000000E+00  0.51222716943E+02  0.51222716943E+02  0.00000000000E+00 0.  1.
         21   -1    0    0  503  502  0.00000000000E+00 -0.00000000000E+00 -0.13181826981E+03  0.13181826981E+03  0.00000000000E+00 0.  1.
         21    1    1    2  503  501 -0.22502058356E+02  0.57928045679E+01 -0.12808304331E+03  0.13017359639E+03  0.00000000000E+00 0.  1.
         -2    1    1    2    0  502  0.22502058356E+02 -0.57928045679E+01  0.47487490440E+02  0.52867390359E+02  0.00000000000E+00 0.  1.
</event>
<event>
 4    1  0.1635676E+006  0.2128912E+02  0.7546771E-02  0.1515177E+00
         -2   -1    0    0    0  501 -0.00000000000E+00  0.00000000000E+00  0.28013382394E+03  0.28013382394E+03  0.00000000000E+00 0. -1.
         21   -1    0    0  503  502  0.00000000000E+00 -0.00000000000E+00 -0.22996366715E+01  0.22996366715E+01  0.00000000000E+00 0. -1.
         21    1    1    2  503  501  0.18371169403E+01 -0.21209706300E+02  0.62027600599E+02  0.65579340315E+02  0.00000000000E+00 0. -1.
         -2    1    1    2    0  502 -0.18371169403E+01  0.21209706300E+02  0.21580658667E+03  0.21685412030E+03  0.00000000000E+00 0. -1.
</event>
<event>
 4    1  0.1635676E+006  0.2162293E+02  0.7546771E-02  0.1510554E+00
         21   -1    0    0  503  502  0.00000000000E+00  0.00000000000E+00  0.30927777452E+03  0.30927777452E+03  0.00000000000E+00 0. -1.
          3   -1    0    0  502    0 -0.00000000000E+00 -0.00000000000E+00 -0.17309998719E+01  0.17309998719E+01  0.00000000000E+00 0.  1.
         21    1    1    2  503  501  0.18417386658E+02 -0.11329206678E+02  0.20911637322E+03  0.21023132165E+03  0.00000000000E+00 0. -1.
          3    1    1    2  501    0 -0.18417386658E+02  0.11329206678E+02  0.98430401427E+02  0.10077745274E+03  0.00000000000E+00 0.  1.
</event>
<event>
 4    1  0.1635676E+006  0.3049782E+02  0.7546771E-02  0.1415319E+00
         21   -1    0    0  503  502  0.00000000000E+00  0.00000000000E+00  0.45726129989E+02  0.45726129989E+02  0.00000000000E+00 0. -1.
         -1   -1    0    0    0  501 -0.00000000000E+00 -0.00000000000E+00 -0.77799184173E+02  0.77799184173E+02  0.00000000000E+00 0.  1.
         21    1    1    2  503  501  0.17994151729E+02 -0.24623713544E+02  0.37041438674E+02  0.47981089444E+02  0.00000000000E+00 0. -1.
         -1    1    1    2    0  502 -0.17994151729E+02  0.24623713544E+02 -0.69114492858E+02  0.75544224718E+02  0.00000000000E+00 0.  1.
</event>
<event>
 4    1  0.1635676E+006  0.2288557E+02  0.7546771E-02  0.1493940E+00
         21   -1    0    0  501  502  0.00000000000E+00  0.00000000000E+00  0.24635262153E+03  0.24635262153E+03  0.00000000000E+00 0. -1.
          3   -1    0    0  503    0 -0.00000000000E+00 -0.00000000000E+00 -0.44856344685E+01  0.44856344685E+01  0.00000000000E+00 0. -1.
         21    1    1    2  503  502  0.17239678158E+02 -0.15051343229E+02  0.21189817372E+03  0.21313044237E+03  0.00000000000E+00 0. -1.
          3    1    1    2  501    0 -0.17239678158E+02  0.15051343229E+02  0.29968813338E+02  0.37707813632E+02  0.00000000000E+00 0. -1.
</event>
<event>
 4    1  0.1635676E+006  0.2910438E+02  0.7546771E-02  0.1427542E+00
         21   -1    0    0  501  502  0.00000000000E+00  0.00000000000E+00  0.89382304087E+02  0.89382304087E+02  0.00000000000E+00 0. -1.
          1   -1    0    0  503    0 -0.00000000000E+00 -0.00000000000E+00 -0.95766729007E+01  0.95766729007E+01  0.00000000000E+00 0. -1.
         21    1    1    2  503  502 -0.12594335144E+02  0.26238289024E+02  0.44953782771E+02  0.53552849355E+02  0.00000000000E+00 0. -1.
          1    1    1    2  501    0  0.12594335144E+02 -0.26238289024E+02  0.34851848416E+02  0.45406127633E+02  0.00000000000E+00 0. -1.
</event>
<event>
 4    1  0.1635676E+006  0.2821234E+02  0.7546771E-02  0.1435796E+00
         21   -1    0    0  503  502  0.00000000000E+00  0.00000000000E+00  0.89891590638E+02  0.89891590638E+02  0.00000000000E+00 0.  1.
          1   -1    0    0  502    0 -0.00000000000E+00 -0.00000000000E+00 -0.56854378511E+02  0.56854378511E+02  0.00000000000E+00 0.  1.
         21    1    1    2  503  501  0.26909934697E+01 -0.28083705671E+02  0.83936433774E+02  0.88550894319E+02  0.00000000000E+00 0.  1.
          1    1    1    2  501    0 -0.26909934697E+01  0.28083705671E+02 -0.50899221648E+02  0.58195074829E+02  0.00000000000E+00 0.  1.
</event>
<event>
 4    1  0.1635676E+006  0.3004186E+02  0.7546771E-02  0.1419233E+00
          4   -1    0    0  503    0 -0.00000000000E+00  0.00000000000E+00  0.68004082009E+02  0.68004082009E+02  0.00000000000E+00 0. -1.
         21   -1    0    0  501  502  0.00000000000E+00 -0.00000000000E+00 -0.13512584490E+02  0.13512584490E+02  0.00000000000E+00 0. -1.
         21    1    1    2  503  502  0.67202530811E+01  0.29280565946E+02  0.21801106740E+02  0.37118749961E+02  0.00000000000E+00 0. -1.
          4    1    1    2  501    0 -0.67202530811E+01 -0.29280565946E+02  0.32690390779E+02  0.44397916538E+02  0.00000000000E+00 0. -1.
</event>
<event>
 4    1  0.1635676E+006  0.8282020E+02  0.7546771E-02  0.1197447E+00
         -4   -1    0    0    0  501 -0.00000000000E+00  0.00000000000E+00  0.27622614045E+03  0.27622614045E+03  0.00000000000E+00 0.  1.
         21   -1    0    0  503  502  0.00000000000E+00 -0.00000000000E+00 -0.12576369345E+03  0.12576369345E+03  0.00000000000E+00 0. -1.
         21    1    1    2  503  501 -0.91566170519E+01 -0.82312461510E+02 -0.10483062328E+03  0.13359881936E+03  0.00000000000E+00 0. -1.
         -4    1    1    2    0  502  0.91566170519E+01  0.82312461510E+02  0.25529307028E+03  0.26839101455E+03  0.00000000000E+00 0.  1.
</event>
<event>
 4    1  0.1635676E+006  0.2659604E+02  0.7546771E-02  0.1451709E+00
         21   -1    0    0  501  502  0.00000000000E+00  0.00000000000E+00  0.26231069121E+02  0.26231069121E+02  0.00000000000E+00 0. -1.
          2   -1    0    0  503    0 -0.00000000000E+00 -0.00000000000E+00 -0.19837101100E+03  0.19837101100E+03  0.00000000000E+00 0.  1.
         21    1    1    2  503  502  0.25173404415E+02  0.85819038129E+01  0.18319409158E+02  0.32294738190E+02  0.00000000000E+00 0. -1.
          2    1    1    2  501    0 -0.25173404415E+02 -0.85819038129E+01 -0.19045935103E+03  0.19230734193E+03  0.00000000000E+00 0.  1.
</event>
<event>
 4    1  0.1635676E+006  0.3013079E+02  0.7546771E-02  0.1418463E+00
         -3   -1    0    0    0  501 -0.00000000000E+00  0.00000000000E+00  0.30266339934E+02  0.30266339934E+02  0.00000000000E+00 0. -1.
         21   -1    0    0  501  502  0.00000000000E+00 -0.00000000000E+00 -0.68946141558E+02  0.68946141558E+02  0.00000000000E+00 0.  1.
         21    1    1    2  503  502 -0.23062419789E+02  0.19390442318E+02 -0.56625121175E+02  0.64142566272E+02  0.00000000000E+00 0.  1.
         -3    1    1    2    0  503  0.23062419789E+02 -0.19390442318E+02  0.17945319551E+02  0.35069915221E+02  0.00000000000E+00 0. -1.
</event>
<event>
 4    1  0.1635676E+006  0.2058053E+02  0.7546771E-02  0.1525339E+00
          1   -1    0    0  503    0 -0.00000000000E+00  0.00000000000E+00  0.89658890430E+03  0.89658890430E+03  0.00000000000E+00 0.  1.
         21   -1    0    0  501  502  0.00000000000E+00 -0.00000000000E+00 -0.59775901334E+00  0.59775901334E+00  0.00000000000E+00 0.  1.
         21    1    1    2  503  502 -0.18695282824E+02 -0.86049277090E+01  0.65341836540E+03  0.65374239470E+03  0.00000000000E+00 0.  1.
          1    1    1    2  501    0  0.18695282824E+02  0.86049277090E+01  0.24257277989E+03  0.24344426862E+03  0.00000000000E+00 0.  1.
</event>
<event>
 4    1  0.1635676E+006  0.2252859E+02  0.7546771E-02  0.1498504E+00
         21   -1    0    0  501  502  0.00000000000E+00  0.00000000000E+00  0.77255220060E+01  0.77255220060E+01  0.00000000000E+00 0.  1.
          1   -1    0    0  503    0 -0.00000000000E+00 -0.00000000000E+00 -0.14414715521E+04  0.14414715521E+04  0.00000000000E+00 0.  1.
         21    1    1    2  503  502  0.20568840249E+02  0.91902212945E+01 -0.89791005546E+01  0.24252043283E+02  0.00000000000E+00 0.  1.
          1    1    1    2  501    0 -0.20568840249E+02 -0.91902212945E+01 -0.14247669296E+04  0.14249450308E+04  0.00000000000E+00 0.  1.
</event>
<event>
 4    1  0.1635676E+006  0.2000468E+02  0.7546771E-02  0.1533964E+00
          1   -1    0    0  502    0 -0.00000000000E+00  0.00000000000E+00  0.77929812537E+03  0.77929812537E+03  0.00000000000E+00 0.  1.
         21   -1    0    0  503  502  0.00000000000E+00 -0.00000000000E+00 -0.58282214174E+00  0.58282214174E+00  0.00000000000E+00 0. -1.
         21    1    1    2  503  501  0.45821253107E+01 -0.19472836663E+02  0.25489696890E+03  0.25568076188E+03  0.00000000000E+00 0. -1.
          1    1    1    2  501    0 -0.45821253107E+01  0.19472836663E+02  0.52381833433E+03  0.52420018564E+03  0.00000000000E+00 0.  1.
</event>
<event>
 4    1  0.1635676E+006  0.3035456E+02  0.7546771E-02  0.1416540E+00
         21   -1    0    0  503  502  0.00000000000E+00  0.00000000000E+00  0.10927863594E+03  0.10927863594E+03  0.00000000000E+00 0.  1.
         -2   -1    0    0    0  501 -0.00000000000E+00 -0.00000000000E+00 -0.85588083013E+01  0.85588083013E+01  0.00000000000E+00 0.  1.
         21    1    1    2  503  501 -0.16618728760E+02 -0.25401120550E+02  0.57541513870E+02  0.65057089462E+02  0.00000000000E+00 0.  1.
         -2    1    1    2    0  502  0.16618728760E+02  0.25401120550E+02  0.43178313773E+02  0.52780354784E+02  0.00000000000E+00 0.  1.
</event>
<event>
 4    1  0.1635676E+006  0.2608522E+02  0.7546771E-02  0.1457020E+00
         21   -1    0    0  501  502  0.00000000000E+00  0.00000000000E+00  0.35238767010E+03  0.35238767010E+03  0.00000000000E+00 0.  1.
         -3   -1    0    0    0  501 -0.00000000000E+00 -0.00000000000E+00 -0.47518908187E+01  0.47518908187E+01  0.00000000000E+00 0. -1.
         21    1    1    2  503  502  0.25332985880E+02  0.62191995925E+01  0.31140339286E+03  0.31249401867E+03  0.00000000000E+00 0.  1.
         -3    1    1    2    0  503 -0.25332985880E+02 -0.62191995925E+01  0.36232386416E+02  0.44645542248E+02  0.00000000000E+00 0. -1.
</event>
<event>
 4    1  0.1635676E+006  0.2655192E+02  0.7546771E-02  0.1452162E+00
          1   -1    0    0  503    0 -0.00000000000E+00  0.00000000000E+00  0.27666549434E+03  0.27666549434E+03  0.00000000000E+00 0.  1.
         21   -1    0    0  501  502  0.00000000000E+00 -0.00000000000E+00 -0.13411331105E+02  0.13411331105E+02  0.00000000000E+00 0. -1.
         21    1    1    2  503  502 -0.26351614638E+02 -0.32552441654E+01  0.10929059274E+01  0.26574398431E+02  0.00000000000E+00 0. -1.
          1    1    1    2  501    0  0.26351614638E+02  0.32552441654E+01  0.26216125731E+03  0.26350242701E+03  0.00000000000E+00 0.  1.
</event>
<event>
 4    1  0.1635676E+006  0.2429201E+02  0.7546771E-02  0.1476882E+00
         -4   -1    0    0    0  501 -0.00000000000E+00  0.00000000000E+00  0.29491456565E+01  0.29491456565E+01  0.00000000000E+00 0. -1.
         21   -1    0    0  503  502  0.00000000000E+00 -0.00000000000E+00 -0.64700610420E+03  0.64700610420E+03  0.00000000000E+00 0. -1.
         21    1    1    2  503  501  0.22817097271E+02 -0.83355734576E+01 -0.59212008956E+03  0.59261817570E+03  0.00000000000E+00 0. -1.
         -4    1    1    2    0  502 -0.22817097271E+02  0.83355734576E+01 -0.51936868987E+02  0.57337074157E+02  0.00000000000E+00 0. -1.
</event>
<event>
 4    1  0.1635676E+006  0.3550678E+02  0.7546771E-02  0.1377035E+00
         21   -1    0    0  503  502  0.00000000000E+00  0.00000000000E+00  0.66910627325E+01  0.66910627325E+01  0.00000000000E+00 0.  1.
          2   -1    0    0  502    0 -0.00000000000E+00 -0.00000000000E+00 -0.15816862145E+04  0.15816862145E+04  0.00000000000E+00 0.  1.
         21    1    1    2  503  501 -0.35106109823E+02 -0.53190401703E+01 -0.42112775291E+02  0.55083726979E+02  0.00000000000E+00 0.  1.
          2    1    1    2  501    0  0.35106109823E+02  0.53190401703E+01 -0.15328823765E+04  0.15332935503E+04  0.00000000000E+00 0.  1.
</event>
<event>
 4    1  0.1635676E+006  0.2340376E+02  0.7546771E-02  0.1487489E+00
         21   -1    0    0  503  502  0.00000000000E+00  0.00000000000E+00  0.41636887734E+01  0.41636887734E+01  0.00000000000E+00 0.  1.
          1   -1    0    0  502    0 -0.00000000000E+00 -0.00000000000E+00 -0.41089261358E+03  0.41089261358E+03  0.00000000000E+00 0.  1.
         21    1    1    2  503  501 -0.13785550478E+01  0.23363121507E+02 -0.32252268282E+02  0.39849023450E+02  0.00000000000E+00 0.  1.
          1    1    1    2  501    0  0.13785550478E+01 -0.23363121507E+02 -0.37447665652E+03  0.37520727890E+03  0.00000000000E+00 0.  1.
</event>
<event>
 4    1  0.1635676E+006  0.2425202E+02  0.7546771E-02  0.1477348E+00
         -4   -1    0    0    0  501 -0.00000000000E+00  0.00000000000E+00  0.88740214107E+01  0.88740214107E+01  0.00000000000E+00 0. -1.
         21   -1    0    0  501  502  0.00000000000E+00 -0.00000000000E+00 -0.18153846429E+03  0.18153846429E+03  0.00000000000E+00 0.  1.
         21    1    1    2  503  502 -0.14716138517E+02  0.19276821531E+02 -0.16219339236E+03  0.16399651553E+03  0.00000000000E+00 0.  1.
         -4    1    1    2    0  503  0.14716138517E+02 -0.19276821531E+02 -0.10471050524E+02  0.26415970174E+02  0.00000000000E+00 0. -1.
</event>
<event>
 4    1  0.1635676E+006  0.1174909E+03  0.7546771E-02  0.1136536E+00
         21   -1    0    0  501  502  0.00000000000E+00  0.00000000000E+00  0.46724069888E+03  0.46724069888E+03  0.00000000000E+00 0. -1.
          4   -1    0    0  503    0 -0.00000000000E+00 -0.00000000000E+00 -0.31492759161E+02  0.31492759161E+02  0.00000000000E+00 0. -1.
         21    1    1    2  503  502  0.24162010689E+01  0.11746604099E+03  0.27990717993E+03  0.30356570654E+03  0.00000000000E+00 0. -1.
          4    1    1    2  501    0 -0.24162010689E+01 -0.11746604099E+03  0.15584075979E+03  0.19516775150E+03  0.00000000000E+00 0. -1.
</event>
<event>
 4    1  0.1635676E+006  0.2362378E+02  0.7546771E-02  0.1484810E+00
         21   -1    0    0  503  502  0.00000000000E+00  0.00000000000E+00  0.13958734242E+02  0.13958734242E+02  0.00000000000E+00 0. -1.
          3   -1    0    0  502    0 -0.00000000000E+00 -0.00000000000E+00 -0.45274743721E+02  0.45274743721E+02  0.00000000000E+00 0. -1.
         21    1    1    2  503  501  0.22128420195E+02 -0.82713942670E+01 -0.55306913295E+01  0.24262553247E+02  0.00000000000E+00 0. -1.
          3    1    1    2  501    0 -0.22128420195E+02  0.82713942670E+01 -0.25785318149E+02  0.34970924716E+02  0.00000000000E+00 0. -1.
</event>
<event>
 4    1  0.1635676E+006  0.2094888E+02  0.7546771E-02  0.1519996E+00
         21   -1    0    0  503  502  0.00000000000E+00  0.00000000000E+00  0.66932504427E+01  0.66932504427E+01  0.00000000000E+00 0. -1.
         -1   -1    0    0    0  501 -0.00000000000E+00 -0.00000000000E+00 -0.69378982285E+02  0.69378982285E+02  0.00000000000E+00 0. -1.
         21    1    1    2  503  501  0.19312117789E+02 -0.81177290161E+01 -0.22426957691E+02  0.30689148720E+02  0.00000000000E+00 0. -1.
         -1    1    1    2    0  502 -0.19312117789E+02  0.81177290161E+01 -0.40258774151E+02  0.45383084008E+02  0.00000000000E+00 0. -1.
</event>
<event>
 4    1  0.1635676E+006  0.2198787E+02  0.7546771E-02  0.1505614E+00
         21   -1    0    0  501  502  0.00000000000E+00  0.00000000000E+00  0.90421421820E+01  0.90421421820E+01  0.00000000000E+00 0.  1.
          4   -1    0    0  503    0 -0.00000000000E+00 -0.00000000000E+00 -0.12689903760E+03  0.12689903760E+03  0.00000000000E+00 0. -1.
         21    1    1    2  503  502  0.20673301058E+02 -0.74887397124E+01 -0.72235993520E+01  0.23144048624E+02  0.00000000000E+00 0.  1.
          4    1    1    2  501    0 -0.20673301058E+02  0.74887397124E+01 -0.11063329607E+03  0.11279713116E+03  0.00000000000E+00 0. -1.
</event>
<event>
 4    1  0.1635676E+006  0.2626124E+02  0.7546771E-02  0.1455174E+00
          2   -1    0    0  503    0 -0.00000000000E+00  0.00000000000E+00  0.12353356386E+04  0.12353356386E+04  0.00000000000E+00 0. -1.
         21   -1    0    0  501  502  0.00000000000E+00 -0.00000000000E+00 -0.92766026367E+00  0.92766026367E+00  0.00000000000E+00 0. -1.
         21    1    1    2  503  502 -0.18905125856E+02 -0.18227694593E+02  0.22714672881E+03  0.22865976699E+03  0.00000000000E+00 0. -1.
          2    1    1    2  501    0  0.18905125856E+02  0.18227694593E+02  0.10072612495E+04  0.10076035319E+04  0.00000000000E+00 0. -1.
</event>
<event>
 4    1  0.1635676E+006  0.2359576E+02  0.7546771E-02  0.1485150E+00
         21   -1    0    0  501  502  0.00000000000E+00  0.00000000000E+00  0.65218026852E+02  0.65218026852E+02  0.00000000000E+00 0.  1.
          4   -1    0    0  503    0 -0.00000000000E+00 -0.00000000000E+00 -0.11111263789E+02  0.11111263789E+02  0.00000000000E+00 0.  1.
         21    1    1    2  503  502  0.18841190457E+02 -0.14204548854E+02  0.45423611773E+02  0.51186562421E+02  0.00000000000E+00 0.  1.
          4    1    1    2  501    0 -0.18841190457E+02  0.14204548854E+02  0.86831512906E+01  0.25142728220E+02  0.00000000000E+00 0.  1.
</event>
<event>
 4    1  0.1635676E+006  0.2867002E+02  0.7546771E-02  0.1431517E+00
         21   -1    0    0  501  502  0.00000000000E+00  0.00000000000E+00  0.27053307676E+02  0.27053307676E+02  0.00000000000E+00 0. -1.
         -4   -1    0    0    0  501 -0.00000000000E+00 -0.00000000000E+00 -0.12377692033E+03  0.12377692033E+03  0.00000000000E+00 0. -1.
         21    1    1    2  503  502 -0.27521656702E+02  0.80329479116E+01  0.17146605155E+02  0.33406225589E+02  0.00000000000E+00 0. -1.
         -4    1    1    2    0  503  0.27521656702E+02 -0.80329479116E+01 -0.11387021781E+03  0.11742400242E+03  0.00000000000E+00 0. -1.
</event>
<event>
 4    1  0.1635676E+006  0.3559309E+02  0.7546771E-02  0.1376441E+00
         21   -1    0    0  501  502  0.00000000000E+00  0.00000000000E+00  0.12467163274E+01  0.12467163274E+01  0.00000000000E+00 0.  1.
          1   -1    0    0  503    0 -0.00000000000E+00 -0.00000000000E+00 -0.10352901699E+04  0.10352901699E+04  0.00000000000E+00 0.  1.
         21    1    1    2  503  502 -0.60842409901E+01 -0.35069213701E+02 -0.44657798947E+03  0.44799416114E+03  0.00000000000E+00 0.  1.
          1    1    1    2  501    0  0.60842409901E+01  0.35069213701E+02 -0.58746546407E+03  0.58854272505E+03  0.00000000000E+00 0.  1.
</event>
<event>
 4    1  0.1635676E+006  0.2477973E+02  0.7546771E-02  0.1471283E+00
          4   -1    0    0  503    0 -0.00000000000E+00  0.00000000000E+00  0.22983011253E+03  0.22983011253E+03  0.00000000000E+00 0.  1.
         21   -1    0    0  501  502  0.00000000000E+00 -0.00000000000E+00 -0.66165666308E+02  0.66165666308E+02  0.00000000000E+00 0. -1.
         21    1    1    2  503  502  0.24530163890E+02  0.35080049497E+01 -0.63146889199E+02  0.67834833638E+02  0.00000000000E+00 0. -1.
          4    1    1    2  501    0 -0.24530163890E+02 -0.35080049497E+01  0.22681133542E+03  0.22816094520E+03  0.00000000000E+00 0.  1.
</event>
<event>
 4    1  0.1635676E+006  0.2719326E+02  0.7546771E-02  0.1445676E+00
          2   -1    0    0  503    0 -0.00000000000E+00  0.00000000000E+00  0.44130371163E+03  0.44130371163E+03  0.00000000000E+00 0.  1.
         21   -1    0    0  501  502  0.00000000000E+00 -0.00000000000E+00 -0.40877082820E+02  0.40877082820E+02  0.00000000000E+00 0. -1.
         21    1    1    2  503  502  0.27072392511E+02  0.25610492097E+01 -0.35883919939E+02  0.45023650668E+02  0.00000000000E+00 0. -1.
          2    1    1    2  501    0 -0.27072392511E+02 -0.25610492097E+01  0.43631054875E+03  0.43715714378E+03  0.00000000000E+00 0.  1.
</event>
<event>
 4    1  0.1635676E+006  0.2390294E+02  0.7546771E-02  0.1481461E+00
          1   -1    0    0  503    0 -0.00000000000E+00  0.00000000000E+00  0.57058629529E+03  0.57058629529E+03  0.00000000000E+00 0. -1.
         21   -1    0    0  501  502  0.00000000000E+00 -0.00000000000E+00 -0.28932263126E+02  0.28932263126E+02  0.00000000000E+00 0. -1.
         21    1    1    2  503  502  0.16672483606E+02 -0.17128302019E+02 -0.23699285206E+02  0.33660162788E+02  0.00000000000E+00 0. -1.
          1    1    1    2  501    0 -0.16672483606E+02  0.17128302019E+02  0.56535331737E+03  0.56585839563E+03  0.00000000000E+00 0. -1.
</event>
<event>
 4    1  0.1635676E+006  0.2738394E+02  0.7546771E-02  0.1443789E+00
         21   -1    0    0  503  502  0.00000000000E+00  0.00000000000E+00  0.77905427895E+02  0.77905427895E+02  0.00000000000E+00 0.  1.
          1   -1    0    0  502    0 -0.00000000000E+00 -0.00000000000E+00 -0.73792318099E+02  0.73792318099E+02  0.00000000000E+00 0. -1.
         21    1    1    2  503  501  0.17910464735E+02 -0.20714623637E+02  0.72785753022E+02  0.77766613803E+02  0.00000000000E+00 0.  1.
          1    1    1    2  501    0 -0.17910464735E+02  0.20714623637E+02 -0.68672643226E+02  0.73931132191E+02  0.00000000000E+00 0. -1.
</event>
<event>
 4    1  0.1635676E+006  0.3691003E+02  0.7546771E-02  0.1367611E+00
         21   -1    0    0  501  502  0.00000000000E+00  0.00000000000E+00  0.14157906145E+02  0.14157906145E+02  0.00000000000E+00 0. -1.
          2   -1    0    0  503    0 -0.00000000000E+00 -0.00000000000E+00 -0.16376152779E+04  0.16376152779E+04  0.00000000000E+00 0. -1.
         21    1    1    2  503  502 -0.93955278166E+01 -0.35694182997E+02 -0.10473743045E+02  0.38367302957E+02  0.00000000000E+00 0. -1.
          2    1    1    2  501    0  0.93955278166E+01  0.35694182997E+02 -0.16129836287E+04  0.16134058811E+04  0.00000000000E+00 0. -1.
</event>
<event>
 4    1  0.1635676E+006  0.6442607E+02  0.7546771E-02  0.1245493E+00
         -1   -1    0    0    0  501 -0.00000000000E+00  0.00000000000E+00  0.98983457269E+02  0.98983457269E+02  0.00000000000E+00 0. -1.
         21   -1    0    0  501  502  0.00000000000E+00 -0.00000000000E+00 -0.36006649569E+03  0.36006649569E+03  0.00000000000E+00 0. -1.
         21    1    1    2  503  502  0.56773821685E+02 -0.30454096554E+02 -0.34628763248E+03  0.35222981593E+03  0.00000000000E+00 0. -1.
         -1    1    1    2    0  503 -0.56773821685E+02  0.30454096554E+02  0.85204594056E+02  0.10682013702E+03  0.00000000000E+00 0. -1.
</event>
<event>
 4    1  0.1635676E+006  0.2383153E+02  0.7546771E-02  0.1482312E+00
          2   -1    0    0  503    0 -0.00000000000E+00  0.00000000000E+00  0.36290349428E+03  0.36290349428E+03  0.00000000000E+00 0. -1.
         21   -1    0    0  501  502  0.00000000000E+00 -0.00000000000E+00 -0.11792646165E+03  0.11792646165E+03  0.00000000000E+00 0. -1.
         21    1    1    2  503  502  0.19370430412E+02  0.13882652429E+02 -0.11632586872E+03  0.11874194434E+03  0.00000000000E+00 0. -1.
          2    1    1    2  501    0 -0.19370430412E+02 -0.13882652429E+02  0.36130290135E+03  0.36208801159E+03  0.00000000000E+00 0. -1.
</event>
<event>
 4    1  0.1635676E+006  0.2029509E+02  0.7546771E-02  0.1529572E+00
         21   -1    0    0  501  502  0.00000000000E+00  0.00000000000E+00  0.25836333208E+02  0.25836333208E+02  0.00000000000E+00 0. -1.
         -4   -1    0    0    0  501 -0.00000000000E+00 -0.00000000000E+00 -0.16224973025E+02  0.16224973025E+02  0.00000000000E+00 0. -1.
         21    1    1    2  503  502 -0.41745707765E+00  0.20290794155E+02  0.75815701967E+01  0.21664967217E+02  0.00000000000E+00 0. -1.
         -4    1    1    2    0  503  0.41745707765E+00 -0.20290794155E+02  0.20297899860E+01  0.20396339016E+02  0.00000000000E+00 0. -1.
</event>
<event>
 4    1  0.1635676E+006  0.2392036E+02  0.7546771E-02  0.1481254E+00
          2   -1    0    0  502    0 -0.00000000000E+00  0.00000000000E+00  0.13005050072E+03  0.13005050072E+03  0.00000000000E+00 0. -1.
         21   -1    0    0  503  502  0.00000000000E+00 -0.00000000000E+00 -0.11617773967E+02  0.11617773967E+02  0.00000000000E+00 0.  1.
         21    1    1    2  503  501  0.21447126957E+02 -0.10592666206E+02  0.33832734986E+01  0.24158443071E+02  0.00000000000E+00 0.  1.
          2    1    1    2  501    0 -0.21447126957E+02  0.10592666206E+02  0.11504945325E+03  0.11750983161E+03  0.00000000000E+00 0. -1.
</event>
<event>
 4    1  0.1635676E+006  0.3373614E+02  0.7546771E-02  0.1389673E+00
          2   -1    0    0  502    0 -0.00000000000E+00  0.00000000000E+00  0.62880086110E+03  0.62880086110E+03  0.00000000000E+00 0.  1.
         21   -1    0    0  503  502  0.00000000000E+00 -0.00000000000E+00 -0.63672610314E+02  0.63672610314E+02  0.00000000000E+00 0.  1.
         21    1    1    2  503  501 -0.10768842566E+02 -0.31971220703E+02 -0.58715964658E+02  0.67717733491E+02  0.00000000000E+00 0.  1.
          2    1    1    2  501    0  0.10768842566E+02  0.31971220703E+02  0.62384421545E+03  0.62475573793E+03  0.00000000000E+00 0.  1.
</event>
<event>
 4    1  0.1635676E+006  0.3189702E+02  0.7546771E-02  0.1403797E+00
          1   -1    0    0  503    0 -0.00000000000E+00  0.00000000000E+00  0.70217637250E+02  0.70217637250E+02  0.00000000000E+00 0. -1.
         21   -1    0    0  501  502  0.00000000000E+00 -0.00000000000E+00 -0.18383503268E+02  0.18383503268E+02  0.00000000000E+00 0.  1.
         21    1    1    2  503  502 -0.27220465283E+02  0.16627269484E+02  0.55282395844E+01  0.32372538572E+02  0.00000000000E+00 0.  1.
          1    1    1    2  501    0  0.27220465283E+02 -0.16627269484E+02  0.46305894398E+02  0.56228601945E+02  0.00000000000E+00 0. -1.
</event>
<event>
 4    1  0.1635676E+006  0.2436753E+02  0.7546771E-02  0.1476005E+00
         21   -1    0    0  503  502  0.00000000000E+00  0.00000000000E+00  0.26649907551E+03  0.26649907551E+03  0.00000000000E+00 0.  1.
          2   -1    0    0  502    0 -0.00000000000E+00 -0.00000000000E+00 -0.14616954972E+02  0.14616954972E+02  0.00000000000E+00 0.  1.
         21    1    1    2  503  501  0.13540820124E+02 -0.20258887555E+02  0.25534378484E+03  0.25650384946E+03  0.00000000000E+00 0.  1.
          2    1    1    2  501    0 -0.13540820124E+02  0.20258887555E+02 -0.34616643029E+01  0.24612181016E+02  0.00000000000E+00 0.  1.
</event>
<event>
 4    1  0.1635676E+006  0.2224648E+02  0.7546771E-02  0.1502183E+00
         21   -1    0    0  501  502  0.00000000000E+00  0.00000000000E+00  0.14031974024E+03  0.14031974024E+03  0.00000000000E+00 0.  1.
         -2   -1    0    0    0  501 -0.00000000000E+00 -0.00000000000E+00 -0.69905283444E+01  0.69905283444E+01  0.00000000000E+00 0. -1.
         21    1    1    2  503  502  0.16259618985E+00 -0.22245888798E+02  0.11850975959E+03  0.12057972103E+03  0.00000000000E+00 0.  1.
         -2    1    1    2    0  503 -0.16259618985E+00  0.22245888798E+02  0.14819452309E+02  0.26730547556E+02  0.00000000000E+00 0. -1.
</event>
<event>
 4    1  0.1635676E+006  0.2279019E+02  0.7546771E-02  0.1495150E+00
          4   -1    0    0  503    0 -0.00000000000E+00  0.00000000000E+00  0.36677866634E+03  0.36677866634E+03  0.00000000000E+00 0.  1.
         21   -1    0    0  501  502  0.00000000000E+00 -0.00000000000E+00 -0.38626306245E+02  0.38626306245E+02  0.00000000000E+00 0. -1.
         21    1    1    2  503  502 -0.22763586819E+02 -0.11007814041E+01 -0.34875937967E+02  0.41662016917E+02  0.00000000000E+00 0. -1.
          4    1    1    2  501    0  0.22763586819E+02  0.11007814041E+01  0.36302829806E+03  0.36374295566E+03  0.00000000000E+00 0.  1.
</event>
<event>
 4    1  0.1635676E+006  0.2175692E+02  0.7546771E-02  0.1508727E+00
         21   -1    0    0  501  502  0.00000000000E+00  0.00000000000E+00  0.17234841815E+03  0.17234841815E+03  0.00000000000E+00 0. -1.
         -4   -1    0    0    0  501 -0.00000000000E+00 -0.00000000000E+00 -0.32723703956E+02  0.32723703956E+02  0.00000000000E+00 0.  1.
         21    1    1    2  503  502  0.82211375164E+01 -0.20143893002E+02  0.16795112526E+03  0.16935449213E+03  0.00000000000E+00 0. -1.
         -4    1    1    2    0  503 -0.82211375164E+01  0.20143893002E+02 -0.28326411067E+02  0.35717629979E+02  0.00000000000E+00 0.  1.
</event>
<event>
 4    1  0.1635676E+006  0.2749209E+02  0.7546771E-02  0.1442727E+00
         -2   -1    0    0    0  501 -0.00000000000E+00  0.00000000000E+00  0.27798131854E+03  0.27798131854E+03  0.00000000000E+00 0. -1.
         21   -1    0    0  501  502  0.00000000000E+00 -0.00000000000E+00 -0.82415847057E+02  0.82415847057E+02  0.00000000000E+00 0.  1.
         21    1    1    2  503  502  0.27397763722E+02  0.22754291330E+01 -0.79418496019E+02  0.84042325912E+02  0.00000000000E+00 0.  1.
         -2    1    1    2    0  503 -0.27397763722E+02 -0.22754291330E+01  0.27498396750E+03  0.27635483969E+03  0.00000000000E+00 0. -1.
</event>
<event>
 4    1  0.1635676E+006  0.2795082E+02  0.7546771E-02  0.1438284E+00
         -3   -1    0    0    0  501 -0.00000000000E+00  0.00000000000E+00  0.52777742211E+02  0.52777742211E+02  0.00000000000E+00 0. -1.
         21   -1    0    0  503  502  0.00000000000E+00 -0.00000000000E+00 -0.11898739613E+03  0.11898739613E+03  0.00000000000E+00 0. -1.
         21    1    1    2  503  501  0.16242524945E+02  0.22747062676E+02 -0.11346792935E+03  0.11685982829E+03  0.00000000000E+00 0. -1.
         -3    1    1    2    0  502 -0.16242524945E+02 -0.22747062676E+02  0.47258275421E+02  0.54905310060E+02  0.00000000000E+00 0. -1.
</event>
<event>
 4    1  0.1635676E+006  0.2521163E+02  0.7546771E-02  0.1466450E+00
         21   -1    0    0  501  502  0.00000000000E+00  0.00000000000E+00  0.16594298295E+03  0.16594298295E+03  0.00000000000E+00 0.  1.
         -1   -1    0    0    0  501 -0.00000000000E+00 -0.00000000000E+00 -0.46003187394E+01  0.46003187394E+01  0.00000000000E+00 0.  1.
         21    1    1    2  503  502 -0.24562496102E+02 -0.56841748504E+01  0.11555614977E+03  0.11827446811E+03  0.00000000000E+00 0.  1.
         -1    1    1    2    0  503  0.24562496102E+02  0.56841748504E+01  0.45786514440E+02  0.52268833572E+02  0.00000000000E+00 0.  1.
</event>
<event>
 4    1  0.1635676E+006  0.2012013E+02  0.7546771E-02  0.1532207E+00
         21   -1    0    0  501  502  0.00000000000E+00  0.00000000000E+00  0.20488737371E+01  0.20488737371E+01  0.00000000000E+00 0. -1.
          3   -1    0    0  503    0 -0.00000000000E+00 -0.00000000000E+00 -0.25806828620E+03  0.25806828620E+03  0.00000000000E+00 0.  1.
         21    1    1    2  503  502 -0.20115049080E+02  0.45210306215E+00 -0.65044322306E+02  0.68085119232E+02  0.00000000000E+00 0. -1.
          3    1    1    2  501    0  0.20115049080E+02 -0.45210306215E+00 -0.19097509016E+03  0.19203204070E+03  0.00000000000E+00 0.  1.
</event>
<event>
 4    1  0.1635676E+006  0.4116002E+02  0.7546771E-02  0.1341819E+00
         21   -1    0    0  501  502  0.00000000000E+00  0.00000000000E+00  0.39921861785E+02  0.39921861785E+02  0.00000000000E+00 0.  1.
          1   -1    0    0  503    0 -0.00000000000E+00 -0.00000000000E+00 -0.56747595071E+02  0.56747595071E+02  0.00000000000E+00 0.  1.
         21    1    1    2  503  502 -0.72372437225E+01 -0.40518754750E+02  0.15859985428E+02  0.44109934493E+02  0.00000000000E+00 0.  1.
          1    1    1    2  501    0  0.72372437225E+01  0.40518754750E+02 -0.32685718714E+02  0.52559522363E+02  0.00000000000E+00 0.  1.
</event>
<event>
 4    1  0.1635676E+006  0.2457549E+02  0.7546771E-02  0.1473609E+00
          2   -1    0    0  502    0 -0.00000000000E+00  0.00000000000E+00  0.33317332135E+03  0.33317332135E+03  0.00000000000E+00 0.  1.
         21   -1    0    0  503  502  0.00000000000E+00 -0.00000000000E+00 -0.67762043713E+01  0.67762043713E+01  0.00000000000E+00 0.  1.
         21    1    1    2  503  501 -0.16936316267E+02  0.17807747560E+02  0.17725053364E+02  0.30300696338E+02  0.00000000000E+00 0.  1.
          2    1    1    2  501    0  0.16936316267E+02 -0.17807747560E+02  0.30867206362E+03  0.30964882938E+03  0.00000000000E+00 0.  1.
</event>
<event>
 4    1  0.1635676E+006  0.3978272E+02  0.7546771E-02  0.1349764E+00
          4   -1    0    0  502    0 -0.00000000000E+00  0.00000000000E+00  0.61147004309E+02  0.61147004309E+02  0.00000000000E+00 0. -1.
         21   -1    0    0  503  502  0.00000000000E+00 -0.00000000000E+00 -0.61729036120E+02  0.61729036120E+02  0.00000000000E+00 0. -1.
         21    1    1    2  503  501  0.14927802349E+02  0.36875809440E+02 -0.47109070248E+02  0.61659785148E+02  0.00000000000E+00 0. -1.
          4    1    1    2  501    0 -0.14927802349E+02 -0.36875809440E+02  0.46527038438E+02  0.61216255281E+02  0.00000000000E+00 0. -1.
</event>
<event>
 4    1  0.1635676E+006  0.4518785E+02  0.7546771E-02  0.1320503E+00
         -1   -1    0    0    0  501 -0.00000000000E+00  0.00000000000E+00  0.14601763508E+03  0.14601763508E+03  0.00000000000E+00 0. -1.
         21   -1    0    0  501  502  0.00000000000E+00 -0.00000000000E+00 -0.46557315227E+02  0.46557315227E+02  0.00000000000E+00 0.  1.
         21    1    1    2  503  502  0.24147221166E+02 -0.38194939994E+02 -0.30808684644E+02  0.54691103305E+02  0.00000000000E+00 0.  1.
         -1    1    1    2    0  503 -0.24147221166E+02  0.38194939994E+02  0.13026900450E+03  0.13788384700E+03  0.00000000000E+00 0. -1.
</event>
<event>
 4    1  0.1635676E+006  0.2115942E+02  0.7546771E-02  0.1517001E+00
         -1   -1    0    0    0  501 -0.00000000000E+00  0.00000000000E+00  0.20921319490E+03  0.20921319490E+03  0.00000000000E+00 0. -1.
         21   -1    0    0  501  502  0.00000000000E+00 -0.00000000000E+00 -0.89888163553E+01  0.89888163553E+01  0.00000000000E+00 0.  1.
         21    1    1    2  503  502  0.11844032024E+02 -0.17533969701E+02  0.48798373527E+01  0.21714833654E+02  0.00000000000E+00 0.  1.
         -1    1    1    2    0  503 -0.11844032024E+02  0.17533969701E+02  0.19534454119E+03  0.19648717760E+03  0.00000000000E+00 0. -1.
</event>
<event>
 4    1  0.1635676E+006  0.2573972E+02  0.7546771E-02  0.1460696E+00
         -1   -1    0    0    0  501 -0.00000000000E+00  0.00000000000E+00  0.10347619332E+02  0.10347619332E+02  0.00000000000E+00 0.  1.
         21   -1    0    0  503  502  0.00000000000E+00 -0.00000000000E+00 -0.15601023170E+03  0.15601023170E+03  0.00000000000E+00 0.  1.
         21    1    1    2  503  501  0.25302668130E+02 -0.47231426047E+01 -0.13670024681E+03  0.13910244630E+03  0.00000000000E+00 0.  1.
         -1    1    1    2    0  502 -0.25302668130E+02  0.47231426047E+01 -0.89623655631E+01  0.27255404731E+02  0.00000000000E+00 0.  1.
</event>
<event>
 4    1  0.1635676E+006  0.2373039E+02  0.7546771E-02  0.1483525E+00
         21   -1    0    0  503  502  0.00000000000E+00  0.00000000000E+00  0.17903327425E+03  0.17903327425E+03  0.00000000000E+00 0.  1.
          1   -1    0    0  502    0 -0.00000000000E+00 -0.00000000000E+00 -0.10609123770E+02  0.10609123770E+02  0.00000000000E+00 0.  1.
         21    1    1    2  503  501  0.16147427970E+02 -0.17389428268E+02  0.16374434943E+03  0.16545495948E+03  0.00000000000E+00 0.  1.
          1    1    1    2  501    0 -0.16147427970E+02  0.17389428268E+02  0.46798010538E+01  0.24187438546E+02  0.00000000000E+00 0.  1.
</event>
<event>
 4    1  0.1635676E+006  0.2693698E+02  0.7546771E-02  0.1448242E+00
         21   -1    0    0  503  502  0.00000000000E+00  0.00000000000E+00  0.21362924509E+02  0.21362924509E+02  0.00000000000E+00 0.  1.
         -1   -1    0    0    0  501 -0.00000000000E+00 -0.00000000000E+00 -0.79567541074E+03  0.79567541074E+03  0.00000000000E+00 0. -1.
         21    1    1    2  503  501 -0.96045387220E+01  0.25166521962E+02  0.12548490882E+02  0.29716419959E+02  0.00000000000E+00 0.  1.
         -1    1    1    2    0  502  0.96045387220E+01 -0.25166521962E+02 -0.78686097711E+03  0.78732191529E+03  0.00000000000E+00 0. -1.
</event>
<event>
 4    1  0.1635676E+006  0.2345127E+02  0.7546771E-02  0.1486908E+00
         21   -1    0    0  503  502  0.00000000000E+00  0.00000000000E+00  0.96451077619E+03  0.96451077619E+03  0.00000000000E+00 0.  1.
          2   -1    0    0  502    0 -0.00000000000E+00 -0.00000000000E+00 -0.14360016341E+01  0.14360016341E+01  0.00000000000E+00 0. -1.
         21    1    1    2  503  501 -0.17192448526E+02  0.15949354852E+02  0.85655823737E+03  0.85687920748E+03  0.00000000000E+00 0.  1.
          2    1    1    2  501    0  0.17192448526E+02 -0.15949354852E+02  0.10651653719E+03  0.10906757034E+03  0.00000000000E+00 0. -1.
</event>
<event>
 4    1  0.1635676E+006  0.3056372E+02  0.7546771E-02  0.1414760E+00
         21   -1    0    0  503  502  0.00000000000E+00  0.00000000000E+00  0.51504445582E+01  0.51504445582E+01  0.00000000000E+00 0.  1.
          1   -1    0    0  502    0 -0.00000000000E+00 -0.00000000000E+00 -0.46924614618E+03  0.46924614618E+03  0.00000000000E+00 0. -1.
         21    1    1    2  503  501 -0.24905966442E+02  0.17715361229E+02 -0.46261713406E+02  0.55446256097E+02  0.00000000000E+00 0.  1.
          1    1    1    2  501    0  0.24905966442E+02 -0.17715361229E+02 -0.41783398821E+03  0.41895033464E+03  0.00000000000E+00 0. -1.
</event>
<event>
 4    1  0.1635676E+006  0.2028064E+02  0.7546771E-02  0.1529788E+00
         -2   -1    0    0    0  501 -0.00000000000E+00  0.00000000000E+00  0.43609315772E+02  0.43609315772E+02  0.00000000000E+00 0.  1.
         21   -1    0    0  501  502  0.00000000000E+00 -0.00000000000E+00 -0.94323756070E+01  0.94323756070E+01  0.00000000000E+00 0.  1.
         21    1    1    2  503  502  0.19963350780E+02 -0.35733652226E+01  0.17333570695E+02  0.26678774081E+02  0.00000000000E+00 0.  1.
         -2    1    1    2    0  503 -0.19963350780E+02  0.35733652226E+01  0.16843369470E+02  0.26362917299E+02  0.00000000000E+00 0.  1.
</event>
<event>
 4    1  0.1635676E+006  0.5856693E+02  0.7546771E-02  0.1264781E+00
          2   -1    0    0  502    0 -0.00000000000E+00  0.00000000000E+00  0.13690686035E+04  0.13690686035E+04  0.00000000000E+00 0.  1.
         21   -1    0    0  503  502  0.00000000000E+00 -0.00000000000E+00 -0.38280599846E+01  0.38280599846E+01  0.00000000000E+00 0. -1.
         21    1    1    2  503  501 -0.70644305200E+01  0.58139311653E+02  0.27912351829E+03  0.28520172545E+03  0.00000000000E+00 0. -1.
          2    1    1    2  501    0  0.70644305200E+01 -0.58139311653E+02  0.10861170253E+04  0.10876949381E+04  0.00000000000E+00 0.  1.
</event>
<event>
 4    1  0.1635676E+006  0.3209355E+02  0.7546771E-02  0.1402235E+00
         21   -1    0    0  503  502  0.00000000000E+00  0.00000000000E+00  0.26088852159E+02  0.26088852159E+02  0.00000000000E+00 0. -1.
         -2   -1    0    0    0  501 -0.00000000000E+00 -0.00000000000E+00 -0.39563929862E+02  0.39563929862E+02  0.00000000000E+00 0. -1.
         21    1    1    2  503  501 -0.31815369491E+02  0.42164137773E+01 -0.82467051076E+01  0.33136143803E+02  0.00000000000E+00 0. -1.
         -2    1    1    2    0  502  0.31815369491E+02 -0.42164137773E+01 -0.52283725953E+01  0.32516638218E+02  0.00000000000E+00 0. -1.
</event>
<event>
 4    1  0.1635676E+006  0.2400845E+02  0.7546771E-02  0.1480209E+00
          1   -1    0    0  502    0 -0.00000000000E+00  0.00000000000E+00  0.78321085253E+03  0.78321085253E+03  0.00000000000E+00 0.  1.
         21   -1    0    0  503  502  0.00000000000E+00 -0.00000000000E+00 -0.20161541328E+01  0.20161541328E+01  0.00000000000E+00 0.  1.
         21    1    1    2  503  501 -0.21830414265E+02  0.99919362918E+01  0.77742709205E+02  0.81365438685E+02  0.00000000000E+00 0.  1.
          1    1    1    2  501    0  0.21830414265E+02 -0.99919362918E+01  0.70345198920E+03  0.70386156798E+03  0.00000000000E+00 0.  1.
</event>
<event>
 4    1  0.1635676E+006  0.3812991E+02  0.7546771E-02  0.1359807E+00
          2   -1    0    0  503    0 -0.00000000000E+00  0.00000000000E+00  0.11431454111E+03  0.11431454111E+03  0.00000000000E+00 0. -1.
         21   -1    0    0  501  502  0.00000000000E+00 -0.00000000000E+00 -0.78120228704E+02  0.78120228704E+02  0.00000000000E+00 0.  1.
         21    1    1    2  503  502  0.10800297776E+02 -0.36568344452E+02 -0.69940195290E+02  0.79658779586E+02  0.00000000000E+00 0.  1.
          2    1    1    2  501    0 -0.10800297776E+02  0.36568344452E+02  0.10613450769E+03  0.11277599023E+03  0.00000000000E+00 0. -1.
</event>
<event>
 4    1  0.1635676E+006  0.2686868E+02  0.7546771E-02  0.1448932E+00
         -4   -1    0    0    0  501 -0.00000000000E+00  0.00000000000E+00  0.37059764329E+02  0.37059764329E+02  0.00000000000E+00 0. -1.
         21   -1    0    0  503  502  0.00000000000E+00 -0.00000000000E+00 -0.50730295374E+02  0.50730295374E+02  0.00000000000E+00 0. -1.
         21    1    1    2  503  501 -0.26237622171E+02  0.57890567019E+01 -0.41286785047E+02  0.49259766688E+02  0.00000000000E+00 0. -1.
         -4    1    1    2    0  502  0.26237622171E+02 -0.57890567019E+01  0.27616254003E+02  0.38530293015E+02  0.00000000000E+00 0. -1.
</event>
<event>
 4    1  0.1635676E+006  0.3098772E+02  0.7546771E-02  0.1411203E+00
         -4   -1    0    0    0  501 -0.00000000000E+00  0.00000000000E+00  0.20828313536E+03  0.20828313536E+03  0.00000000000E+00 0. -1.
         21   -1    0    0  503  502  0.00000000000E+00 -0.00000000000E+00 -0.20175491875E+03  0.20175491875E+03  0.00000000000E+00 0.  1.
         21    1    1    2  503  501  0.93328620038E+00 -0.30973663499E+02 -0.19939895971E+03  0.20179242797E+03  0.00000000000E+00 0.  1.
         -4    1    1    2    0  502 -0.93328620038E+00  0.30973663499E+02  0.20592717632E+03  0.20824562613E+03  0.00000000000E+00 0. -1.
</event>
<event>
 4    1  0.1635676E+006  0.2006748E+02  0.7546771E-02  0.1533007E+00
         21   -1    0    0  503  502  0.00000000000E+00  0.00000000000E+00  0.19686073200E+01  0.19686073200E+01  0.00000000000E+00 0.  1.
         -1   -1    0    0    0  501 -0.00000000000E+00 -0.00000000000E+00 -0.22267937581E+03  0.22267937581E+03  0.00000000000E+00 0.  1.
         21    1    1    2  503  501  0.13342912688E+02  0.14989011763E+02 -0.78316986511E+02  0.80847103651E+02  0.00000000000E+00 0.  1.
         -1    1    1    2    0  502 -0.13342912688E+02 -0.14989011763E+02 -0.14239378198E+03  0.14380087948E+03  0.00000000000E+00 0.  1.
</event>
<event>
 4    1  0.1635676E+006  0.2058540E+02  0.7546771E-02  0.1525267E+00
         21   -1    0    0  503  502  0.00000000000E+00  0.00000000000E+00  0.34833927753E+02  0.34833927753E+02  0.00000000000E+00 0.  1.
         -2   -1    0    0    0  501 -0.00000000000E+00 -0.00000000000E+00 -0.12372243224E+02  0.12372243224E+02  0.00000000000E+00 0.  1.
         21    1    1    2  503  501  0.44081174352E+01 -0.20107884486E+02  0.14284854636E+02  0.25056248518E+02  0.00000000000E+00 0.  1.
         -2    1    1    2    0  502 -0.44081174352E+01  0.20107884486E+02  0.81768298932E+01  0.22149922459E+02  0.00000000000E+00 0.  1.
</event>
<event>
 4    1  0.1635676E+006  0.5781780E+02  0.7546771E-02  0.1267433E+00
         21   -1    0    0  503  502  0.00000000000E+00  0.00000000000E+00  0.83909930735E+01  0.83909930735E+01  0.00000000000E+00 0.  1.
         -3   -1    0    0    0  501 -0.00000000000E+00 -0.00000000000E+00 -0.41154203543E+03  0.41154203543E+03  0.00000000000E+00 0.  1.
         21    1    1    2  503  501 -0.55431948306E+02 -0.16437671574E+02 -0.23910904446E+03  0.24600006724E+03  0.00000000000E+00 0.  1.
         -3    1    1    2    0  502  0.55431948306E+02  0.16437671574E+02 -0.16404199790E+03  0.17393296126E+03  0.00000000000E+00 0.  1.
</event>
<event>
 4    1  0.1635676E+006  0.2047094E+02  0.7546771E-02  0.1526954E+00
          1   -1    0    0  502    0 -0.00000000000E+00  0.00000000000E+00  0.21077577700E+02  0.21077577700E+02  0.00000000000E+00 0. -1.
         21   -1    0    0  503  502  0.00000000000E+00 -0.00000000000E+00 -0.90897225814E+02  0.90897225814E+02  0.00000000000E+00 0.  1.
         21    1    1    2  503  501 -0.62473097104E+01 -0.19494375753E+02 -0.84396859360E+02  0.86844052384E+02  0.00000000000E+00 0.  1.
          1    1    1    2  501    0  0.62473097104E+01  0.19494375753E+02  0.14577211246E+02  0.25130751129E+02  0.00000000000E+00 0. -1.
</event>
<event>
 4    1  0.1635676E+006  0.2065843E+02  0.7546771E-02  0.1524198E+00
         21   -1    0    0  501  502  0.00000000000E+00  0.00000000000E+00  0.12595208354E+01  0.12595208354E+01  0.00000000000E+00 0.  1.
          2   -1    0    0  503    0 -0.00000000000E+00 -0.00000000000E+00 -0.34168941683E+03  0.34168941683E+03  0.00000000000E+00 0.  1.
         21    1    1    2  503  502  0.85386632418E+01 -0.18811214122E+02 -0.15454405279E+03  0.15591868009E+03  0.00000000000E+00 0.  1.
          2    1    1    2  501    0 -0.85386632418E+01  0.18811214122E+02 -0.18588584320E+03  0.18703025758E+03  0.00000000000E+00 0.  1.
</event>
<event>
 4    1  0.1635676E+006  0.2123448E+02  0.7546771E-02  0.1515943E+00
         21   -1    0    0  503  502  0.00000000000E+00  0.00000000000E+00  0.18402742317E+01  0.18402742317E+01  0.00000000000E+00 0. -1.
          1   -1    0    0  502    0 -0.00000000000E+00 -0.00000000000E+00 -0.59496169027E+03  0.59496169027E+03  0.00000000000E+00 0. -1.
         21    1    1    2  503  501 -0.95587831885E+01  0.18961352081E+02 -0.67709160240E+02  0.70960789097E+02  0.00000000000E+00 0. -1.
          1    1    1    2  501    0  0.95587831885E+01 -0.18961352081E+02 -0.52541225579E+03  0.52584117540E+03  0.00000000000E+00 0. -1.
</event>
<event>
 4    1  0.1635676E+006  0.9941200E+02  0.7546771E-02  0.1164831E+00
         21   -1    0    0  503  502  0.00000000000E+00  0.00000000000E+00  0.21702424345E+03  0.21702424345E+03  0.00000000000E+00 0. -1.
          2   -1    0    0  502    0 -0.00000000000E+00 -0.00000000000E+00 -0.11574905162E+04  0.11574905162E+04  0.00000000000E+00 0. -1.
         21    1    1    2  503  501 -0.98982329609E+02 -0.92327727937E+01  0.20336969844E+03  0.22636691435E+03  0.00000000000E+00 0. -1.
          2    1    1    2  501    0  0.98982329609E+02  0.92327727937E+01 -0.11438359712E+04  0.11481478453E+04  0.00000000000E+00 0. -1.
</event>
<event>
 4    1  0.1635676E+006  0.4021461E+02  0.7546771E-02  0.1347233E+00
         21   -1    0    0  501  502  0.00000000000E+00  0.00000000000E+00  0.18341409603E+02  0.18341409603E+02  0.00000000000E+00 0. -1.
         -3   -1    0    0    0  501 -0.00000000000E+00 -0.00000000000E+00 -0.14297732885E+03  0.14297732885E+03  0.00000000000E+00 0.  1.
         21    1    1    2  503  502  0.30137510299E+02  0.26626021826E+02 -0.12380181764E+02  0.42077113325E+02  0.00000000000E+00 0. -1.
         -3    1    1    2    0  503 -0.30137510299E+02 -0.26626021826E+02 -0.11225573748E+03  0.11924162513E+03  0.00000000000E+00 0.  1.
</event>
<event>
 4    1  0.1635676E+006  0.2135123E+02  0.7546771E-02  0.1514309E+00
         -3   -1    0    0    0  501 -0.00000000000E+00  0.00000000000E+00  0.67565565722E+03  0.67565565722E+03  0.00000000000E+00 0.  1.
         21   -1    0    0  503  502  0.00000000000E+00 -0.00000000000E+00 -0.58051896620E+01  0.58051896620E+01  0.00000000000E+00 0. -1.
         21    1    1    2  503  501 -0.85144916537E+01  0.19580054678E+02  0.14607138386E+02  0.25869742966E+02  0.00000000000E+00 0. -1.
         -3    1    1    2    0  502  0.85144916537E+01 -0.19580054678E+02  0.65524332917E+03  0.65559110391E+03  0.00000000000E+00 0.  1.
</event>
<event>
 4    1  0.1635676E+006  0.2111222E+02  0.7546771E-02  0.1517669E+00
          2   -1    0    0  502    0 -0.00000000000E+00  0.00000000000E+00  0.11952780304E+02  0.11952780304E+02  0.00000000000E+00 0. -1.
         21   -1    0    0  503  502  0.00000000000E+00 -0.00000000000E+00 -0.15013193082E+03  0.15013193082E+03  0.00000000000E+00 0.  1.
         21    1    1    2  503  501 -0.15042271939E+02 -0.14814045866E+02 -0.13934982557E+03  0.14094005742E+03  0.00000000000E+00 0.  1.
          2    1    1    2  501    0  0.15042271939E+02  0.14814045866E+02  0.11706750549E+01  0.21144653700E+02  0.00000000000E+00 0. -1.
</event>
<event>
 4    1  0.1635676E+006  0.2418021E+02  0.7546771E-02  0.1478187E+00
         21   -1    0    0  503  502  0.00000000000E+00  0.00000000000E+00  0.51606539836E+01  0.51606539836E+01  0.00000000000E+00 0. -1.
          2   -1    0    0  502    0 -0.00000000000E+00 -0.00000000000E+00 -0.53481015758E+03  0.53481015758E+03  0.00000000000E+00 0. -1.
         21    1    1    2  503  501  0.19421431329E+02  0.14404530697E+02 -0.25136667791E+02  0.34878855587E+02  0.00000000000E+00 0. -1.
          2    1    1    2  501    0 -0.19421431329E+02 -0.14404530697E+02 -0.50451283581E+03  0.50509195598E+03  0.00000000000E+00 0. -1.
</event>
<event>
 4    1  0.1635676E+006  0.2075435E+02  0.7546771E-02  0.1522801E+00
          1   -1    0    0  503    0 -0.00000000000E+00  0.00000000000E+00  0.30958776196E+03  0.30958776196E+03  0.00000000000E+00 0.  1.
         21   -1    0    0  501  502  0.00000000000E+00 -0.00000000000E+00 -0.28997240629E+01  0.28997240629E+01  0.00000000000E+00 0. -1.
         21    1    1    2  503  502 -0.79843617706E+01  0.19157056548E+02  0.40655467756E+02  0.45646576070E+02  0.00000000000E+00 0. -1.
          1    1    1    2  501    0  0.79843617706E+01 -0.19157056548E+02  0.26603257014E+03  0.26684090995E+03  0.00000000000E+00 0.  1.
</event>
<event>
 4    1  0.1635676E+006  0.2132001E+02  0.7546771E-02  0.1514745E+00
         21   -1    0    0  503  502  0.00000000000E+00  0.00000000000E+00  0.11474974502E+02  0.11474974502E+02  0.00000000000E+00 0.  1.
          2   -1    0    0  502    0 -0.00000000000E+00 -0.00000000000E+00 -0.73824875642E+02  0.73824875642E+02  0.00000000000E+00 0. -1.
         21    1    1    2  503  501  0.13833721769E+02 -0.16222550236E+02 -0.21404911773E+01  0.21427195258E+02  0.00000000000E+00 0.  1.
          2    1    1    2  501    0 -0.13833721769E+02  0.16222550236E+02 -0.60209409963E+02  0.63872654886E+02  0.00000000000E+00 0. -1.
</event>
<event>
 4    1  0.1635676E+006  0.3764852E+02  0.7546771E-02  0.1362845E+00
         -2   -1    0    0    0  501 -0.00000000000E+00  0.00000000000E+00  0.16731767676E+03  0.16731767676E+03  0.00000000000E+00 0. -1.
         21   -1    0    0  501  502  0.00000000000E+00 -0.00000000000E+00 -0.11712201300E+02  0.11712201300E+02  0.00000000000E+00 0.  1.
         21    1    1    2  503  502  0.21838367562E+02  0.30667524161E+02  0.30715424303E+02  0.48588564767E+02  0.00000000000E+00 0.  1.
         -2    1    1    2    0  503 -0.21838367562E+02 -0.30667524161E+02  0.12489005116E+03  0.13044131330E+03  0.00000000000E+00 0. -1.
</event>
<event>
 4    1  0.1635676E+006  0.2417448E+02  0.7546771E-02  0.1478254E+00
         21   -1    0    0  501  502  0.00000000000E+00  0.00000000000E+00  0.18407864702E+03  0.18407864702E+03  0.00000000000E+00 0. -1.
         -2   -1    0    0    0  501 -0.00000000000E+00 -0.00000000000E+00 -0.13432699652E+02  0.13432699652E+02  0.00000000000E+00 0. -1.
         21    1    1    2  503  502 -0.18777209628E+02  0.15225704547E+02  0.17162290585E+03  0.17331712983E+03  0.00000000000E+00 0. -1.
         -2    1    1    2    0  503  0.18777209628E+02 -0.15225704547E+02 -0.97695848896E+00  0.24194216835E+02  0.00000000000E+00 0. -1.
</event>
<event>
 4    1  0.1635676E+006  0.2572235E+02  0.7546771E-02  0.1460882E+00
          2   -1    0    0  503    0 -0.00000000000E+00  0.00000000000E+00  0.61686278498E+03  0.61686278498E+03  0.00000000000E+00 0.  1.
         21   -1    0    0  501  502  0.00000000000E+00 -0.00000000000E+00 -0.60210120000E+02  0.60210120000E+02  0.00000000000E+00 0.  1.
         21    1    1    2  503  502  0.24866919398E+02 -0.65784305697E+01 -0.57181212942E+02  0.62700323305E+02  0.00000000000E+00 0.  1.
          2    1    1    2  501    0 -0.24866919398E+02  0.65784305697E+01  0.61383387793E+03  0.61437258168E+03  0.00000000000E+00 0.  1.
</event>
<event>
 4    1  0.1635676E+006  0.6657427E+02  0.7546771E-02  0.1238995E+00
         21   -1    0    0  501  502  0.00000000000E+00  0.00000000000E+00  0.17843155308E+03  0.17843155308E+03  0.00000000000E+00 0. -1.
          2   -1    0    0  503    0 -0.00000000000E+00 -0.00000000000E+00 -0.19279799740E+04  0.19279799740E+04  0.00000000000E+00 0. -1.
         21    1    1    2  503  502  0.64701856281E+02  0.15678110618E+02  0.17162499574E+03  0.18408496006E+03  0.00000000000E+00 0. -1.
          2    1    1    2  501    0 -0.64701856281E+02 -0.15678110618E+02 -0.19211734167E+04  0.19223265670E+04  0.00000000000E+00 0. -1.
</event>
<event>
 4    1  0.1635676E+006  0.2001583E+02  0.7546771E-02  0.1533794E+00
         -4   -1    0    0    0  501 -0.00000000000E+00  0.00000000000E+00  0.18750711036E+03  0.18750711036E+03  0.00000000000E+00 0. -1.
         21   -1    0    0  503  502  0.00000000000E+00 -0.00000000000E+00 -0.18689602003E+02  0.18689602003E+02  0.00000000000E+00 0.  1.
         21    1    1    2  503  501  0.18483209126E+02 -0.76814443829E+01 -0.12617593618E+02  0.23660880713E+02  0.00000000000E+00 0.  1.
         -4    1    1    2    0  502 -0.18483209126E+02  0.76814443829E+01  0.18143510198E+03  0.18253583165E+03  0.00000000000E+00 0. -1.
</event>
<event>
 4    1  0.1635676E+006  0.2066472E+02  0.7546771E-02  0.1524106E+00
          4   -1    0    0  503    0 -0.00000000000E+00  0.00000000000E+00  0.20942703132E+03  0.20942703132E+03  0.00000000000E+00 0. -1.
         21   -1    0    0  501  502  0.00000000000E+00 -0.00000000000E+00 -0.21229320389E+03  0.21229320389E+03  0.00000000000E+00 0. -1.
         21    1    1    2  503  502  0.39581239192E+01  0.20282112786E+02 -0.21127812107E+03  0.21228630499E+03  0.00000000000E+00 0. -1.
          4    1    1    2  501    0 -0.39581239192E+01 -0.20282112786E+02  0.20841194851E+03  0.20943393021E+03  0.00000000000E+00 0. -1.
</event>
<event>
 4    1  0.1635676E+006  0.3508420E+02  0.7546771E-02  0.1379972E+00
         21   -1    0    0  503  502  0.00000000000E+00  0.00000000000E+00  0.17010390764E+03  0.17010390764E+03  0.00000000000E+00 0. -1.
         -1   -1    0    0    0  501 -0.00000000000E+00 -0.00000000000E+00 -0.86327980454E+01  0.86327980454E+01  0.00000000000E+00 0. -1.
         21    1    1    2  503  501  0.74307424867E+01 -0.34288260813E+02  0.44789736922E+02  0.56894826628E+02  0.00000000000E+00 0. -1.
         -1    1    1    2    0  502 -0.74307424867E+01  0.34288260813E+02  0.11668137268E+03  0.12184187906E+03  0.00000000000E+00 0. -1.
</event>
<event>
 4    1  0.1635676E+006  0.2193201E+02  0.7546771E-02  0.1506363E+00
          1   -1    0    0  503    0 -0.00000000000E+00  0.00000000000E+00  0.14390759252E+04  0.14390759252E+04  0.00000000000E+00 0.  1.
         21   -1    0    0  501  502  0.00000000000E+00 -0.00000000000E+00 -0.10673721458E+01  0.10673721458E+01  0.00000000000E+00 0.  1.
         21    1    1    2  503  502  0.20592036291E+02  0.75485776151E+01  0.12223622222E+03  0.12418819189E+03  0.00000000000E+00 0.  1.
          1    1    1    2  501    0 -0.20592036291E+02 -0.75485776151E+01  0.13157723308E+04  0.13159551054E+04  0.00000000000E+00 0.  1.
</event>
<event>
 4    1  0.1635676E+006  0.2495334E+02  0.7546771E-02  0.1469326E+00
         21   -1    0    0  503  502  0.00000000000E+00  0.00000000000E+00  0.67956558602E+02  0.67956558602E+02  0.00000000000E+00 0.  1.
         -2   -1    0    0    0  501 -0.00000000000E+00 -0.00000000000E+00 -0.43023894655E+03  0.43023894655E+03  0.00000000000E+00 0. -1.
         21    1    1    2  503  501  0.14232953214E+02  0.20496148900E+02  0.65289779878E+02  0.69895811273E+02  0.00000000000E+00 0.  1.
         -2    1    1    2    0  502 -0.14232953214E+02 -0.20496148900E+02 -0.42757216782E+03  0.42829969388E+03  0.00000000000E+00 0. -1.
</event>
<event>
 4    1  0.1635676E+006  0.2980503E+02  0.7546771E-02  0.1421298E+00
          2   -1    0    0  503    0 -0.00000000000E+00  0.00000000000E+00  0.13650567502E+04  0.13650567502E+04  0.00000000000E+00 0. -1.
         21   -1    0    0  501  502  0.00000000000E+00 -0.00000000000E+00 -0.21723423142E+02  0.21723423142E+02  0.00000000000E+00 0.  1.
         21    1    1    2  503  502  0.97654402451E+01 -0.28159831328E+02 -0.11258463497E+02  0.31860522970E+02  0.00000000000E+00 0.  1.
          2    1    1    2  501    0 -0.97654402451E+01  0.28159831328E+02  0.13545917905E+04  0.13549196503E+04  0.00000000000E+00 0. -1.
</event>
<event>
 4    1  0.1635676E+006  0.2639902E+02  0.7546771E-02  0.1453740E+00
         21   -1    0    0  503  502  0.00000000000E+00  0.00000000000E+00  0.25242566615E+02  0.25242566615E+02  0.00000000000E+00 0.  1.
         -1   -1    0    0    0  501 -0.00000000000E+00 -0.00000000000E+00 -0.85845348809E+02  0.85845348809E+02  0.00000000000E+00 0. -1.
         21    1    1    2  503  501 -0.13819439435E+02  0.22492922806E+02  0.15447177059E+02  0.30586332924E+02  0.00000000000E+00 0.  1.
         -1    1    1    2    0  502  0.13819439435E+02 -0.22492922806E+02 -0.76049959253E+02  0.80501582500E+02  0.00000000000E+00 0. -1.
</event>
<event>
 4    1  0.1635676E+006  0.2002059E+02  0.7546771E-02  0.1533721E+00
         21   -1    0    0  501  502  0.00000000000E+00  0.00000000000E+00  0.50548942749E+00  0.50548942749E+00  0.00000000000E+00 0.  1.
          1   -1    0    0  503    0 -0.00000000000E+00 -0.00000000000E+00 -0.11090718938E+04  0.11090718938E+04  0.00000000000E+00 0.  1.
         21    1    1    2  503  502  0.19996138964E+02 -0.98915464397E+00 -0.25808647354E+03  0.25886183926E+03  0.00000000000E+00 0.  1.
          1    1    1    2  501    0 -0.19996138964E+02  0.98915464397E+00 -0.85047993083E+03  0.85071554396E+03  0.00000000000E+00 0.  1.
</event>
<event>
 4    1  0.1635676E+006  0.2146161E+02  0.7546771E-02  0.1512775E+00
         21   -1    0    0  501  502  0.00000000000E+00  0.00000000000E+00  0.59224959495E+01  0.59224959495E+01  0.00000000000E+00 0. -1.
         -1   -1    0    0    0  501 -0.00000000000E+00 -0.00000000000E+00 -0.12468239617E+03  0.12468239617E+03  0.00000000000E+00 0. -1.
         21    1    1    2  503  502  0.19966699949E+02 -0.78696717831E+01 -0.19324263912E+02  0.28879543219E+02  0.00000000000E+00 0. -1.
         -1    1    1    2    0  503 -0.19966699949E+02  0.78696717831E+01 -0.99435636305E+02  0.10172534890E+03  0.00000000000E+00 0. -1.
</event>
<event>
 4    1  0.1635676E+006  0.3304104E+02  0.7546771E-02  0.1394884E+00
         21   -1    0    0  501  502  0.00000000000E+00  0.00000000000E+00  0.59231997024E+02  0.59231997024E+02  0.00000000000E+00 0.  1.
         -2   -1    0    0    0  501 -0.00000000000E+00 -0.00000000000E+00 -0.55757028191E+03  0.55757028191E+03  0.00000000000E+00 0. -1.
         21    1    1    2  503  502 -0.15956749669E+02 -0.28932544970E+02  0.54091896372E+02  0.63384882042E+02  0.00000000000E+00 0.  1.
         -2    1    1    2    0  503  0.15956749669E+02  0.28932544970E+02 -0.55243018125E+03  0.55341739689E+03  0.00000000000E+00 0. -1.
</event>
<event>
 4    1  0.1635676E+006  0.2014853E+02  0.7546771E-02  0.1531777E+00
         21   -1    0    0  501  502  0.00000000000E+00  0.00000000000E+00  0.21029215323E+00  0.21029215323E+00  0.00000000000E+00 0.  1.
          1   -1    0    0  503    0 -0.00000000000E+00 -0.00000000000E+00 -0.19945404462E+04  0.19945404462E+04  0.00000000000E+00 0. -1.
         21    1    1    2  503  502 -0.20147234529E+02  0.22855080041E+00 -0.81841081989E+03  0.81865880158E+03  0.00000000000E+00 0.  1.
          1    1    1    2  501    0  0.20147234529E+02 -0.22855080041E+00 -0.11759193342E+04  0.11760919368E+04  0.00000000000E+00 0. -1.
</event>
<event>
 4    1  0.1635676E+006  0.2633400E+02  0.7546771E-02  0.1454415E+00
         -1   -1    0    0    0  501 -0.00000000000E+00  0.00000000000E+00  0.29186193438E+03  0.29186193438E+03  0.00000000000E+00 0.  1.
         21   -1    0    0  501  502  0.00000000000E+00 -0.00000000000E+00 -0.51499224027E+01  0.51499224027E+01  0.00000000000E+00 0. -1.
         21    1    1    2  503  502  0.21503251529E+02  0.15201627925E+02  0.34366048748E+02  0.43295549707E+02  0.00000000000E+00 0. -1.
         -1    1    1    2    0  503 -0.21503251529E+02 -0.15201627925E+02  0.25234596323E+03  0.25371630708E+03  0.00000000000E+00 0.  1.
</event>
<event>
 4    1  0.1635676E+006  0.2445815E+02  0.7546771E-02  0.1474957E+00
         21   -1    0    0  503  502  0.00000000000E+00  0.00000000000E+00  0.11417489182E+02  0.11417489182E+02  0.00000000000E+00 0.  1.
         -2   -1    0    0    0  501 -0.00000000000E+00 -0.00000000000E+00 -0.69241433552E+03  0.69241433552E+03  0.00000000000E+00 0. -1.
         21    1    1    2  503  501  0.43949149159E+01 -0.24060043307E+02 -0.21587131876E+01  0.24553227969E+02  0.00000000000E+00 0.  1.
         -2    1    1    2    0  502 -0.43949149159E+01  0.24060043307E+02 -0.67883813315E+03  0.67927859674E+03  0.00000000000E+00 0. -1.
</event>
<event>
 4    1  0.1635676E+006  0.3485140E+02  0.7546771E-02  0.1381611E+00
         21   -1    0    0  501  502  0.00000000000E+00  0.00000000000E+00  0.34335096015E+01  0.34335096015E+01  0.00000000000E+00 0. -1.
         -2   -1    0    0    0  501 -0.00000000000E+00 -0.00000000000E+00 -0.51423719376E+03  0.51423719376E+03  0.00000000000E+00 0.  1.
         21    1    1    2  503  502  0.23491068918E+02 -0.25744705824E+02 -0.11080604602E+03  0.11615765163E+03  0.00000000000E+00 0. -1.
         -2    1    1    2    0  503 -0.23491068918E+02  0.25744705824E+02 -0.39999763814E+03  0.40151305174E+03  0.00000000000E+00 0.  1.
</event>
<event>
 4    1  0.1635676E+006  0.5474131E+02  0.7546771E-02  0.1278828E+00
         21   -1    0    0  503  502  0.00000000000E+00  0.00000000000E+00  0.55858484995E+01  0.55858484995E+01  0.00000000000E+00 0.  1.
          2   -1    0    0  502    0 -0.00000000000E+00 -0.00000000000E+00 -0.10497673604E+04  0.10497673604E+04  0.00000000000E+00 0. -1.
         21    1    1    2  503  501  0.29890527602E+02  0.45860301784E+02 -0.15310633045E+03  0.16259815296E+03  0.00000000000E+00 0.  1.
          2    1    1    2  501    0 -0.29890527602E+02 -0.45860301784E+02 -0.89107518145E+03  0.89275505595E+03  0.00000000000E+00 0. -1.
</event>
<event>
 4    1  0.1635676E+006  0.3340519E+02  0.7546771E-02  0.1392136E+00
          2   -1    0    0  502    0 -0.00000000000E+00  0.00000000000E+00  0.66984962262E+03  0.66984962262E+03  0.00000000000E+00 0.  1.
         21   -1    0    0  503  502  0.00000000000E+00 -0.00000000000E+00 -0.80648224537E+02  0.80648224537E+02  0.00000000000E+00 0.  1.
         21    1    1    2  503  501 -0.31023181306E+02 -0.12388269512E+02 -0.76752343789E+02  0.83706805440E+02  0.00000000000E+00 0.  1.
          2    1    1    2  501    0  0.31023181306E+02  0.12388269512E+02  0.66595374187E+03  0.66679104172E+03  0.00000000000E+00 0.  1.
</event>
<event>
 4    1  0.1635676E+006  0.3006958E+02  0.7546771E-02  0.1418993E+00
         21   -1    0    0  501  502  0.00000000000E+00  0.00000000000E+00  0.32554097269E+02  0.32554097269E+02  0.00000000000E+00 0.  1.
          2   -1    0    0  503    0 -0.00000000000E+00 -0.00000000000E+00 -0.95647854914E+02  0.95647854914E+02  0.00000000000E+00 0. -1.
         21    1    1    2  503  502  0.47336975160E+01 -0.29694646504E+02  0.22450922849E+02  0.37526308904E+02  0.00000000000E+00 0.  1.
          2    1    1    2  501    0 -0.47336975160E+01  0.29694646504E+02 -0.85544680495E+02  0.90675643279E+02  0.00000000000E+00 0. -1.
</event>
<event>
 4    1  0.1635676E+006  0.2451759E+02  0.7546771E-02  0.1474273E+00
         -3   -1    0    0    0  501 -0.00000000000E+00  0.00000000000E+00  0.40509860052E+03  0.40509860052E+03  0.00000000000E+00 0.  1.
         21   -1    0    0  501  502  0.00000000000E+00 -0.00000000000E+00 -0.17641105586E+01  0.17641105586E+01  0.00000000000E+00 0.  1.
         21    1    1    2  503  502 -0.69385832716E+01 -0.23515278120E+02  0.12058547891E+03  0.12305271215E+03  0.00000000000E+00 0.  1.
         -3    1    1    2    0  503  0.69385832716E+01  0.23515278120E+02  0.28274901105E+03  0.28380999893E+03  0.00000000000E+00 0.  1.
</event>
<event>
 4    1  0.1635676E+006  0.4823727E+02  0.7546771E-02  0.1306001E+00
          1   -1    0    0  502    0 -0.00000000000E+00  0.00000000000E+00  0.11633327153E+04  0.11633327153E+04  0.00000000000E+00 0.  1.
         21   -1    0    0  503  502  0.00000000000E+00 -0.00000000000E+00 -0.38787540399E+01  0.38787540399E+01  0.00000000000E+00 0. -1.
         21    1    1    2  503  501 -0.54908431177E+01  0.47923736645E+02  0.17357211885E+03  0.18015025488E+03  0.00000000000E+00 0. -1.
          1    1    1    2  501    0  0.54908431177E+01 -0.47923736645E+02  0.98588184241E+03  0.98706121446E+03  0.00000000000E+00 0.  1.
</event>
<event>
 4    1  0.1635676E+006  0.2012346E+02  0.7546771E-02  0.1532157E+00
         21   -1    0    0  503  502  0.00000000000E+00  0.00000000000E+00  0.37084700647E+01  0.37084700647E+01  0.00000000000E+00 0.  1.
          2   -1    0    0  502    0 -0.00000000000E+00 -0.00000000000E+00 -0.72522655760E+03  0.72522655760E+03  0.00000000000E+00 0.  1.
         21    1    1    2  503  501  0.38043470471E+01  0.19760579861E+02 -0.24849168291E+02  0.31975533423E+02  0.00000000000E+00 0.  1.
          2    1    1    2  501    0 -0.38043470471E+01 -0.19760579861E+02 -0.69666891924E+03  0.69695949424E+03  0.00000000000E+00 0.  1.
</event>
<event>
 4    1  0.1635676E+006  0.2016536E+02  0.7546771E-02  0.1531523E+00
          1   -1    0    0  502    0 -0.00000000000E+00  0.00000000000E+00  0.36860705239E+03  0.36860705239E+03  0.00000000000E+00 0. -1.
         21   -1    0    0  503  502  0.00000000000E+00 -0.00000000000E+00 -0.29863780006E+01  0.29863780006E+01  0.00000000000E+00 0.  1.
         21    1    1    2  503  501 -0.18194402958E+02 -0.86951459995E+01  0.35269232897E+02  0.40627092587E+02  0.00000000000E+00 0.  1.
          1    1    1    2  501    0  0.18194402958E+02  0.86951459995E+01  0.33035144150E+03  0.33096633781E+03  0.00000000000E+00 0. -1.
</event>
<event>
 4    1  0.1635676E+006  0.2144991E+02  0.7546771E-02  0.1512937E+00
         21   -1    0    0  503  502  0.00000000000E+00  0.00000000000E+00  0.73578979985E+02  0.73578979985E+02  0.00000000000E+00 0. -1.
          3   -1    0    0  502    0 -0.00000000000E+00 -0.00000000000E+00 -0.38493235274E+02  0.38493235274E+02  0.00000000000E+00 0. -1.
         21    1    1    2  503  501 -0.21169863966E+02  0.34547764152E+01  0.68825941362E+02  0.72090976028E+02  0.00000000000E+00 0. -1.
          3    1    1    2  501    0  0.21169863966E+02 -0.34547764152E+01 -0.33740196650E+02  0.39981239230E+02  0.00000000000E+00 0. -1.
</event>
<event>
 4    1  0.1635676E+006  0.2228146E+02  0.7546771E-02  0.1501723E+00
          1   -1    0    0  502    0 -0.00000000000E+00  0.00000000000E+00  0.12177072277E+04  0.12177072277E+04  0.00000000000E+00 0.  1.
         21   -1    0    0  503  502  0.00000000000E+00 -0.00000000000E+00 -0.66253831511E+00  0.66253831511E+00  0.00000000000E+00 0. -1.
         21    1    1    2  503  501 -0.19611460568E+02 -0.10576107493E+02  0.23071269789E+03  0.23178613505E+03  0.00000000000E+00 0. -1.
          1    1    1    2  501    0  0.19611460568E+02  0.10576107493E+02  0.98633199151E+03  0.98658363097E+03  0.00000000000E+00 0.  1.
</event>
<event>
 4    1  0.1635676E+006  0.2000710E+02  0.7546771E-02  0.1533927E+00
         21   -1    0    0  503  502  0.00000000000E+00  0.00000000000E+00  0.19857953910E+03  0.19857953910E+03  0.00000000000E+00 0. -1.
          1   -1    0    0  502    0 -0.00000000000E+00 -0.00000000000E+00 -0.68536701737E+01  0.68536701737E+01  0.00000000000E+00 0. -1.
         21    1    1    2  503  501 -0.19897065942E+02 -0.20954143580E+01  0.18216258096E+03  0.18325798726E+03  0.00000000000E+00 0. -1.
          1    1    1    2  501    0  0.19897065942E+02  0.20954143580E+01  0.95632879665E+01  0.22175222009E+02  0.00000000000E+00 0. -1.
</event>
<event>
 4    1  0.1635676E+006  0.2596081E+02  0.7546771E-02  0.1458336E+00
         21   -1    0    0  503  502  0.00000000000E+00  0.00000000000E+00  0.41448940641E+01  0.41448940641E+01  0.00000000000E+00 0. -1.
          1   -1    0    0  502    0 -0.00000000000E+00 -0.00000000000E+00 -0.76599984999E+03  0.76599984999E+03  0.00000000000E+00 0. -1.
         21    1    1    2  503  501  0.12939987029E+02 -0.22506011146E+02 -0.39160367033E+02  0.46984020136E+02  0.00000000000E+00 0. -1.
          1    1    1    2  501    0 -0.12939987029E+02  0.22506011146E+02 -0.72269458889E+03  0.72316072392E+03  0.00000000000E+00 0. -1.
</event>
<event>
 4    1  0.1635676E+006  0.2084515E+02  0.7546771E-02  0.1521487E+00
         21   -1    0    0  503  502  0.00000000000E+00  0.00000000000E+00  0.90595041732E+02  0.90595041732E+02  0.00000000000E+00 0. -1.
         -3   -1    0    0    0  501 -0.00000000000E+00 -0.00000000000E+00 -0.55486220115E+01  0.55486220115E+01  0.00000000000E+00 0.  1.
         21    1    1    2  503  501 -0.66619483698E+01  0.19751929945E+02  0.60224390564E+02  0.63729879267E+02  0.00000000000E+00 0. -1.
         -3    1    1    2    0  502  0.66619483698E+01 -0.19751929945E+02  0.24822029157E+02  0.32413784476E+02  0.00000000000E+00 0.  1.
</event>
<event>
 4    1  0.1635676E+006  0.6050182E+02  0.7546771E-02  0.1258137E+00
          2   -1    0    0  503    0 -0.00000000000E+00  0.00000000000E+00  0.11189560074E+03  0.11189560074E+03  0.00000000000E+00 0. -1.
         21   -1    0    0  501  502  0.00000000000E+00 -0.00000000000E+00 -0.64547000563E+02  0.64547000563E+02  0.00000000000E+00 0. -1.
         21    1    1    2  503  502  0.55517609013E+02 -0.24047153138E+02 -0.38281108127E+02  0.71595486757E+02  0.00000000000E+00 0. -1.
          2    1    1    2  501    0 -0.55517609013E+02  0.24047153138E+02  0.85629708302E+02  0.10484711454E+03  0.00000000000E+00 0. -1.
</event>
<event>
 4    1  0.1635676E+006  0.3109854E+02  0.7546771E-02  0.1410284E+00
         21   -1    0    0  501  502  0.00000000000E+00  0.00000000000E+00  0.13102013259E+02  0.13102013259E+02  0.00000000000E+00 0.  1.
         -4   -1    0    0    0  501 -0.00000000000E+00 -0.00000000000E+00 -0.74635302795E+03  0.74635302795E+03  0.00000000000E+00 0. -1.
         21    1    1    2  503  502 -0.18663932965E+02 -0.24875226503E+02 -0.61643352331E+01  0.31703600997E+02  0.00000000000E+00 0.  1.
         -4    1    1    2    0  503  0.18663932965E+02  0.24875226503E+02 -0.72708667945E+03  0.72775144021E+03  0.00000000000E+00 0. -1.
</event>
<event>
 4    1  0.1635676E+006  0.2180715E+02  0.7546771E-02  0.1508046E+00
         21   -1    0    0  503  502  0.00000000000E+00  0.00000000000E+00  0.17276959650E+03  0.17276959650E+03  0.00000000000E+00 0. -1.
          4   -1    0    0  502    0 -0.00000000000E+00 -0.00000000000E+00 -0.80299221130E+02  0.80299221130E+02  0.00000000000E+00 0. -1.
         21    1    1    2  503  501  0.20984157219E+02  0.59344016392E+01  0.17058199367E+03  0.17197025482E+03  0.00000000000E+00 0. -1.
          4    1    1    2  501    0 -0.20984157219E+02 -0.59344016392E+01 -0.78111618300E+02  0.81098562814E+02  0.00000000000E+00 0. -1.
</event>
<event>
 4    1  0.1635676E+006  0.3977365E+02  0.7546771E-02  0.1349817E+00
         21   -1    0    0  501  502  0.00000000000E+00  0.00000000000E+00  0.24680334698E+02  0.24680334698E+02  0.00000000000E+00 0.  1.
          4   -1    0    0  503    0 -0.00000000000E+00 -0.00000000000E+00 -0.77190611492E+02  0.77190611492E+02  0.00000000000E+00 0.  1.
         21    1    1    2  503  502 -0.16681044656E+02 -0.36106595233E+02 -0.52772188819E+01  0.40122219645E+02  0.00000000000E+00 0.  1.
          4    1    1    2  501    0  0.16681044656E+02  0.36106595233E+02 -0.47233057912E+02  0.61748726544E+02  0.00000000000E+00 0.  1.
</event>
<event>
 4    1  0.1635676E+006  0.2859048E+02  0.7546771E-02  0.1432254E+00
         21   -1    0    0  503  502  0.00000000000E+00  0.00000000000E+00  0.73096373657E+03  0.73096373657E+03  0.00000000000E+00 0. -1.
          1   -1    0    0  502    0 -0.00000000000E+00 -0.00000000000E+00 -0.12119226062E+01  0.12119226062E+01  0.00000000000E+00 0.  1.
         21    1    1    2  503  501  0.10497618218E+02  0.26593528188E+02  0.46664241879E+03  0.46751744646E+03  0.00000000000E+00 0. -1.
          1    1    1    2  501    0 -0.10497618218E+02 -0.26593528188E+02  0.26310939517E+03  0.26465821272E+03  0.00000000000E+00 0.  1.
</event>
<event>
 4    1  0.1635676E+006  0.2184526E+02  0.7546771E-02  0.1507531E+00
          2   -1    0    0  502    0 -0.00000000000E+00  0.00000000000E+00  0.70488789808E+03  0.70488789808E+03  0.00000000000E+00 0. -1.
         21   -1    0    0  503  502  0.00000000000E+00 -0.00000000000E+00 -0.94598716395E+03  0.94598716395E+03  0.00000000000E+00 0.  1.
         21    1    1    2  503  501  0.20276199333E+02 -0.81296358126E+01 -0.94569174324E+03  0.94594401973E+03  0.00000000000E+00 0.  1.
          2    1    1    2  501    0 -0.20276199333E+02  0.81296358126E+01  0.70459247737E+03  0.70493104230E+03  0.00000000000E+00 0. -1.
</event>
<event>
 4    1  0.1635676E+006  0.5095630E+02  0.7546771E-02  0.1294079E+00
         21   -1    0    0  501  502  0.00000000000E+00  0.00000000000E+00  0.17421285136E+03  0.17421285136E+03  0.00000000000E+00 0. -1.
          2   -1    0    0  503    0 -0.00000000000E+00 -0.00000000000E+00 -0.16425343152E+04  0.16425343152E+04  0.00000000000E+00 0.  1.
         21    1    1    2  503  502  0.43909249947E+02 -0.25855805613E+02  0.17008214550E+03  0.17755134787E+03  0.00000000000E+00 0. -1.
          2    1    1    2  501    0 -0.43909249947E+02  0.25855805613E+02 -0.16384036094E+04  0.16391958187E+04  0.00000000000E+00 0.  1.
</event>
<event>
 4    1  0.1635676E+006  0.2006269E+02  0.7546771E-02  0.1533080E+00
         -1   -1    0    0    0  501 -0.00000000000E+00  0.00000000000E+00  0.22112347823E+03  0.22112347823E+03  0.00000000000E+00 0.  1.
         21   -1    0    0  501  502  0.00000000000E+00 -0.00000000000E+00 -0.74681653204E+01  0.74681653204E+01  0.00000000000E+00 0. -1.
         21    1    1    2  503  502 -0.12266751652E+02 -0.15875716569E+02  0.74324429289E+01  0.21395157876E+02  0.00000000000E+00 0. -1.
         -1    1    1    2    0  503  0.12266751652E+02  0.15875716569E+02  0.20622286998E+03  0.20719648568E+03  0.00000000000E+00 0.  1.
</event>
<event>
 4    1  0.1635676E+006  0.2538275E+02  0.7546771E-02  0.1464567E+00
         21   -1    0    0  503  502  0.00000000000E+00  0.00000000000E+00  0.14758999344E+03  0.14758999344E+03  0.00000000000E+00 0.  1.
          2   -1    0    0  502    0 -0.00000000000E+00 -0.00000000000E+00 -0.59899777449E+03  0.59899777449E+03  0.00000000000E+00 0.  1.
         21    1    1    2  503  501 -0.16818612631E+02  0.19010998563E+02  0.14622726475E+03  0.14841393720E+03  0.00000000000E+00 0.  1.
          2    1    1    2  501    0  0.16818612631E+02 -0.19010998563E+02 -0.59763504580E+03  0.59817383073E+03  0.00000000000E+00 0.  1.
</event>
<event>
 4    1  0.1635676E+006  0.2205789E+02  0.7546771E-02  0.1504680E+00
         21   -1    0    0  503  502  0.00000000000E+00  0.00000000000E+00  0.15807433035E+03  0.15807433035E+03  0.00000000000E+00 0. -1.
         -3   -1    0    0    0  501 -0.00000000000E+00 -0.00000000000E+00 -0.60812550065E+01  0.60812550065E+01  0.00000000000E+00 0. -1.
         21    1    1    2  503  501 -0.42238456586E+01 -0.21649698295E+02  0.13367667693E+03  0.13548433217E+03  0.00000000000E+00 0. -1.
         -3    1    1    2    0  502  0.42238456586E+01  0.21649698295E+02  0.18316398412E+02  0.28671253185E+02  0.00000000000E+00 0. -1.
</event>
<event>
 4    1  0.1635676E+006  0.2216452E+02  0.7546771E-02  0.1503264E+00
         -1   -1    0    0    0  501 -0.00000000000E+00  0.00000000000E+00  0.75359227208E+01  0.75359227208E+01  0.00000000000E+00 0. -1.
         21   -1    0    0  501  502  0.00000000000E+00 -0.00000000000E+00 -0.23256154588E+03  0.23256154588E+03  0.00000000000E+00 0. -1.
         21    1    1    2  503  502  0.79235309114E+01 -0.20699844967E+02 -0.21435543961E+03  0.21549830722E+03  0.00000000000E+00 0. -1.
         -1    1    1    2    0  503 -0.79235309114E+01  0.20699844967E+02 -0.10670183551E+02  0.24599161384E+02  0.00000000000E+00 0. -1.
</event>
<event>
 4    1  0.1635676E+006  0.2206633E+02  0.7546771E-02  0.1504567E+00
         21   -1    0    0  503  502  0.00000000000E+00  0.00000000000E+00  0.55607818955E+03  0.55607818955E+03  0.00000000000E+00 0.  1.
          1   -1    0    0  502    0 -0.00000000000E+00 -0.00000000000E+00 -0.93316234214E+01  0.93316234214E+01  0.00000000000E+00 0.  1.
         21    1    1    2  503  501 -0.37923380310E+01 -0.21738015103E+02  0.54248763506E+03  0.54293623688E+03  0.00000000000E+00 0.  1.
          1    1    1    2  501    0  0.37923380310E+01  0.21738015103E+02  0.42589310696E+01  0.22473576089E+02  0.00000000000E+00 0.  1.
</event>
<event>
 4    1  0.1635676E+006  0.2628704E+02  0.7546771E-02  0.1454904E+00
         21   -1    0    0  503  502  0.00000000000E+00  0.00000000000E+00  0.14209219982E+01  0.14209219982E+01  0.00000000000E+00 0. -1.
          2   -1    0    0  502    0 -0.00000000000E+00 -0.00000000000E+00 -0.99084192683E+03  0.99084192683E+03  0.00000000000E+00 0. -1.
         21    1    1    2  503  501  0.26259249456E+02 -0.12084390812E+01 -0.14068145539E+03  0.14311631772E+03  0.00000000000E+00 0. -1.
          2    1    1    2  501    0 -0.26259249456E+02  0.12084390812E+01 -0.84873954945E+03  0.84914653111E+03  0.00000000000E+00 0. -1.
</event>
<event>
 4    1  0.1635676E+006  0.2244168E+02  0.7546771E-02  0.1499631E+00
         21   -1    0    0  501  502  0.00000000000E+00  0.00000000000E+00  0.11234787535E+01  0.11234787535E+01  0.00000000000E+00 0. -1.
          1   -1    0    0  503    0 -0.00000000000E+00 -0.00000000000E+00 -0.12921430043E+04  0.12921430043E+04  0.00000000000E+00 0.  1.
         21    1    1    2  503  502 -0.28996763116E+01 -0.22253555414E+02 -0.12294553941E+03  0.12497693592E+03  0.00000000000E+00 0. -1.
          1    1    1    2  501    0  0.28996763116E+01  0.22253555414E+02 -0.11680739862E+04  0.11682895472E+04  0.00000000000E+00 0.  1.
</event>
<event>
 4    1  0.1635676E+006  0.2011396E+02  0.7546771E-02  0.1532301E+00
         21   -1    0    0  503  502  0.00000000000E+00  0.00000000000E+00  0.10519718681E+03  0.10519718681E+03  0.00000000000E+00 0.  1.
         -4   -1    0    0    0  501 -0.00000000000E+00 -0.00000000000E+00 -0.21343130447E+02  0.21343130447E+02  0.00000000000E+00 0. -1.
         21    1    1    2  503  501  0.19014930792E+02  0.65577192980E+01  0.99213924889E+02  0.10123227829E+03  0.00000000000E+00 0.  1.
         -4    1    1    2    0  502 -0.19014930792E+02 -0.65577192980E+01 -0.15359868526E+02  0.25308038970E+02  0.00000000000E+00 0. -1.
</event>
<event>
 4    1  0.1635676E+006  0.2161473E+02  0.7546771E-02  0.1510666E+00
         21   -1    0    0  503  502  0.00000000000E+00  0.00000000000E+00  0.14532536430E+02  0.14532536430E+02  0.00000000000E+00 0. -1.
          3   -1    0    0  502    0 -0.00000000000E+00 -0.00000000000E+00 -0.20782202035E+03  0.20782202035E+03  0.00000000000E+00 0.  1.
         21    1    1    2  503  501  0.16971619513E+02 -0.13385084312E+02  0.55723816139E+01  0.22321464732E+02  0.00000000000E+00 0. -1.
          3    1    1    2  501    0 -0.16971619513E+02  0.13385084312E+02 -0.19886186553E+03  0.20003309204E+03  0.00000000000E+00 0.  1.
</event>
<event>
 4    1  0.1635676E+006  0.2433283E+02  0.7546771E-02  0.1476407E+00
         21   -1    0    0  501  502  0.00000000000E+00  0.00000000000E+00  0.65053606854E+01  0.65053606854E+01  0.00000000000E+00 0. -1.
         -1   -1    0    0    0  501 -0.00000000000E+00 -0.00000000000E+00 -0.47360046019E+03  0.47360046019E+03  0.00000000000E+00 0. -1.
         21    1    1    2  503  502  0.22810924361E+02  0.84704510133E+01 -0.17790484771E+02  0.30142796137E+02  0.00000000000E+00 0. -1.
         -1    1    1    2    0  503 -0.22810924361E+02 -0.84704510133E+01 -0.44930461474E+03  0.44996302474E+03  0.00000000000E+00 0. -1.
</event>
<event>
 4    1  0.1635676E+006  0.4825894E+02  0.7546771E-02  0.1305903E+00
         -3   -1    0    0    0  501 -0.00000000000E+00  0.00000000000E+00  0.28735175587E+03  0.28735175587E+03  0.00000000000E+00 0. -1.
         21   -1    0    0  503  502  0.00000000000E+00 -0.00000000000E+00 -0.68175860468E+02  0.68175860468E+02  0.00000000000E+00 0. -1.
         21    1    1    2  503  501  0.23428119773E+02 -0.42190617843E+02 -0.57275312498E+02  0.74895837346E+02  0.00000000000E+00 0. -1.
         -3    1    1    2    0  502 -0.23428119773E+02  0.42190617843E+02  0.27645120790E+03  0.28063177899E+03  0.00000000000E+00 0. -1.
</event>
<event>
 4    1  0.1635676E+006  0.2672013E+02  0.7546771E-02  0.1450440E+00
         21   -1    0    0  501  502  0.00000000000E+00  0.00000000000E+00  0.14194576879E+02  0.14194576879E+02  0.00000000000E+00 0.  1.
          2   -1    0    0  503    0 -0.00000000000E+00 -0.00000000000E+00 -0.24019089974E+03  0.24019089974E+03  0.00000000000E+00 0. -1.
         21    1    1    2  503  502  0.20569468102E+02 -0.17054692490E+02  0.95395690922E-01  0.26720304157E+02  0.00000000000E+00 0.  1.
          2    1    1    2  501    0 -0.20569468102E+02  0.17054692490E+02 -0.22609171855E+03  0.22766517246E+03  0.00000000000E+00 0. -1.
</event>
<event>
 4    1  0.1635676E+006  0.2104082E+02  0.7546771E-02  0.1518683E+00
          2   -1    0    0  502    0 -0.00000000000E+00  0.00000000000E+00  0.59707564793E+03  0.59707564793E+03  0.00000000000E+00 0. -1.
         21   -1    0    0  503  502  0.00000000000E+00 -0.00000000000E+00 -0.32864702299E+01  0.32864702299E+01  0.00000000000E+00 0. -1.
         21    1    1    2  503  501 -0.77391348605E+01  0.19565831812E+02  0.32737653050E+02  0.38916190848E+02  0.00000000000E+00 0. -1.
          2    1    1    2  501    0  0.77391348605E+01 -0.19565831812E+02  0.56105152465E+03  0.56144592731E+03  0.00000000000E+00 0. -1.
</event>
<event>
 4    1  0.1635676E+006  0.2935816E+02  0.7546771E-02  0.1425257E+00
         21   -1    0    0  501  502  0.00000000000E+00  0.00000000000E+00  0.61373900710E+02  0.61373900710E+02  0.00000000000E+00 0. -1.
         -3   -1    0    0    0  501 -0.00000000000E+00 -0.00000000000E+00 -0.26689698104E+02  0.26689698104E+02  0.00000000000E+00 0.  1.
         21    1    1    2  503  502  0.28354725840E+02  0.76099396370E+01  0.47651362705E+02  0.55969223922E+02  0.00000000000E+00 0. -1.
         -3    1    1    2    0  503 -0.28354725840E+02 -0.76099396370E+01 -0.12967160099E+02  0.32094374893E+02  0.00000000000E+00 0.  1.
</event>
<event>
 4    1  0.1635676E+006  0.2134618E+02  0.7546771E-02  0.1514379E+00
         -4   -1    0    0    0  501 -0.00000000000E+00  0.00000000000E+00  0.13789781477E+02  0.13789781477E+02  0.00000000000E+00 0. -1.
         21   -1    0    0  501  502  0.00000000000E+00 -0.00000000000E+00 -0.10113182059E+03  0.10113182059E+03  0.00000000000E+00 0. -1.
         21    1    1    2  503  502 -0.20549198169E+02  0.57783905717E+01 -0.90819189241E+02  0.93294075254E+02  0.00000000000E+00 0. -1.
         -4    1    1    2    0  503  0.20549198169E+02 -0.57783905717E+01  0.34771501299E+01  0.21627526813E+02  0.00000000000E+00 0. -1.
</event>
<event>
 4    1  0.1635676E+006  0.2355772E+02  0.7546771E-02  0.1485611E+00
         21   -1    0    0  503  502  0.00000000000E+00  0.00000000000E+00  0.44729082647E+03  0.44729082647E+03  0.00000000000E+00 0. -1.
         -4   -1    0    0    0  501 -0.00000000000E+00 -0.00000000000E+00 -0.47662133407E+01  0.47662133407E+01  0.00000000000E+00 0.  1.
         21    1    1    2  503  501 -0.13165885908E+02  0.19535240016E+02  0.41565770136E+03  0.41632474206E+03  0.00000000000E+00 0. -1.
         -4    1    1    2    0  502  0.13165885908E+02 -0.19535240016E+02  0.26866911765E+02  0.35732297743E+02  0.00000000000E+00 0.  1.
</event>
<event>
 4    1  0.1635676E+006  0.3930582E+02  0.7546771E-02  0.1352602E+00
          1   -1    0    0  503    0 -0.00000000000E+00  0.00000000000E+00  0.81974433880E+02  0.81974433880E+02  0.00000000000E+00 0. -1.
         21   -1    0    0  501  502  0.00000000000E+00 -0.00000000000E+00 -0.19091497390E+02  0.19091497390E+02  0.00000000000E+00 0. -1.
         21    1    1    2  503  502 -0.33845528808E+02 -0.19985677146E+02  0.25719267754E+02  0.46972628679E+02  0.00000000000E+00 0. -1.
          1    1    1    2  501    0  0.33845528808E+02  0.19985677146E+02  0.37163668736E+02  0.54093302590E+02  0.00000000000E+00 0. -1.
</event>
<event>
 4    1  0.1635676E+006  0.2463822E+02  0.7546771E-02  0.1472891E+00
         -1   -1    0    0    0  501 -0.00000000000E+00  0.00000000000E+00  0.11438206430E+04  0.11438206430E+04  0.00000000000E+00 0.  1.
         21   -1    0    0  503  502  0.00000000000E+00 -0.00000000000E+00 -0.62816296823E+00  0.62816296823E+00  0.00000000000E+00 0.  1.
         21    1    1    2  503  501 -0.77150820866E+01 -0.23399132552E+02  0.34621471561E+03  0.34709029257E+03  0.00000000000E+00 0.  1.
         -1    1    1    2    0  502  0.77150820866E+01  0.23399132552E+02  0.79697776440E+03  0.79735851337E+03  0.00000000000E+00 0.  1.
</event>
<event>
 4    1  0.1635676E+006  0.3674615E+02  0.7546771E-02  0.1368686E+00
         -3   -1    0    0    0  501 -0.00000000000E+00  0.00000000000E+00  0.15880469136E+03  0.15880469136E+03  0.00000000000E+00 0.  1.
         21   -1    0    0  503  502  0.00000000000E+00 -0.00000000000E+00 -0.15305130633E+02  0.15305130633E+02  0.00000000000E+00 0.  1.
         21    1    1    2  503  501  0.34479864045E+02 -0.12705053085E+02  0.13712820394E+02  0.39221433446E+02  0.00000000000E+00 0.  1.
         -3    1    1    2    0  502 -0.34479864045E+02  0.12705053085E+02  0.12978674033E+03  0.13488838855E+03  0.00000000000E+00 0.  1.
</event>
<event>
 4    1  0.1635676E+006  0.2106930E+02  0.7546771E-02  0.1518278E+00
         21   -1    0    0  501  502  0.00000000000E+00  0.00000000000E+00  0.11935323017E+01  0.11935323017E+01  0.00000000000E+00 0. -1.
          2   -1    0    0  503    0 -0.00000000000E+00 -0.00000000000E+00 -0.11637370766E+04  0.11637370766E+04  0.00000000000E+00 0.  1.
         21    1    1    2  503  502 -0.57237570623E+01  0.20276932491E+02 -0.10081846740E+03  0.10299649875E+03  0.00000000000E+00 0. -1.
          2    1    1    2  501    0  0.57237570623E+01 -0.20276932491E+02 -0.10617250769E+04  0.10619341101E+04  0.00000000000E+00 0.  1.
</event>
<event>
 4    1  0.1635676E+006  0.3150174E+02  0.7546771E-02  0.1406980E+00
         21   -1    0    0  501  502  0.00000000000E+00  0.00000000000E+00  0.74196768522E+02  0.74196768522E+02  0.00000000000E+00 0.  1.
          1   -1    0    0  503    0 -0.00000000000E+00 -0.00000000000E+00 -0.42271911184E+02  0.42271911184E+02  0.00000000000E+00 0. -1.
         21    1    1    2  503  502 -0.60728461001E+00  0.31495882542E+02  0.64110754607E+02  0.71432123502E+02  0.00000000000E+00 0.  1.
          1    1    1    2  501    0  0.60728461001E+00 -0.31495882542E+02 -0.32185897269E+02  0.45036556204E+02  0.00000000000E+00 0. -1.
</event>
<event>
 4    1  0.1635676E+006  0.2127710E+02  0.7546771E-02  0.1515345E+00
         21   -1    0    0  503  502  0.00000000000E+00  0.00000000000E+00  0.25209138993E+03  0.25209138993E+03  0.00000000000E+00 0.  1.
          2   -1    0    0  502    0 -0.00000000000E+00 -0.00000000000E+00 -0.51988467973E+03  0.51988467973E+03  0.00000000000E+00 0.  1.
         21    1    1    2  503  501  0.14964989801E+02  0.15124949082E+02  0.25142415429E+03  0.25232284947E+03  0.00000000000E+00 0.  1.
          2    1    1    2  501    0 -0.14964989801E+02 -0.15124949082E+02 -0.51921744409E+03  0.51965322019E+03  0.00000000000E+00 0.  1.
</event>
<event>
 4    1  0.1635676E+006  0.2392831E+02  0.7546771E-02  0.1481159E+00
         21   -1    0    0  501  502  0.00000000000E+00  0.00000000000E+00  0.64888709811E+01  0.64888709811E+01  0.00000000000E+00 0.  1.
         -3   -1    0    0    0  501 -0.00000000000E+00 -0.00000000000E+00 -0.54995429415E+03  0.54995429415E+03  0.00000000000E+00 0.  1.
         21    1    1    2  503  502  0.16864501422E+02 -0.16975053275E+02 -0.16806083100E+02  0.29240524467E+02  0.00000000000E+00 0.  1.
         -3    1    1    2    0  503 -0.16864501422E+02  0.16975053275E+02 -0.52665934007E+03  0.52720264067E+03  0.00000000000E+00 0.  1.
</event>
<event>
 4    1  0.1635676E+006  0.2318278E+02  0.7546771E-02  0.1490216E+00
         21   -1    0    0  501  502  0.00000000000E+00  0.00000000000E+00  0.75213453700E+02  0.75213453700E+02  0.00000000000E+00 0. -1.
          1   -1    0    0  503    0 -0.00000000000E+00 -0.00000000000E+00 -0.34162421326E+02  0.34162421326E+02  0.00000000000E+00 0. -1.
         21    1    1    2  503  502 -0.25719583627E+01  0.23039670187E+02  0.69158930772E+02  0.72941065784E+02  0.00000000000E+00 0. -1.
          1    1    1    2  501    0  0.25719583627E+01 -0.23039670187E+02 -0.28107898398E+02  0.36434809242E+02  0.00000000000E+00 0. -1.
</event>
<event>
 4    1  0.1635676E+006  0.2058073E+02  0.7546771E-02  0.1525336E+00
         21   -1    0    0  501  502  0.00000000000E+00  0.00000000000E+00  0.90370583751E+00  0.90370583751E+00  0.00000000000E+00 0.  1.
          2   -1    0    0  503    0 -0.00000000000E+00 -0.00000000000E+00 -0.46958394871E+03  0.46958394871E+03  0.00000000000E+00 0.  1.
         21    1    1    2  503  502 -0.20562397149E+02  0.86859178019E+00 -0.24454848437E+03  0.24541297406E+03  0.00000000000E+00 0.  1.
          2    1    1    2  501    0  0.20562397149E+02 -0.86859178019E+00 -0.22413175851E+03  0.22507468049E+03  0.00000000000E+00 0.  1.
</event>
<event>
 4    1  0.1635676E+006  0.2020230E+02  0.7546771E-02  0.1530965E+00
         21   -1    0    0  501  502  0.00000000000E+00  0.00000000000E+00  0.24021513874E+02  0.24021513874E+02  0.00000000000E+00 0. -1.
          1   -1    0    0  503    0 -0.00000000000E+00 -0.00000000000E+00 -0.32088374255E+02  0.32088374255E+02  0.00000000000E+00 0. -1.
         21    1    1    2  503  502 -0.58320209245E+01 -0.19342197016E+02  0.15210604589E+02  0.25288249157E+02  0.00000000000E+00 0. -1.
          1    1    1    2  501    0  0.58320209245E+01  0.19342197016E+02 -0.23277464970E+02  0.30821638971E+02  0.00000000000E+00 0. -1.
</event>
<event>
 4    1  0.1635676E+006  0.2406963E+02  0.7546771E-02  0.1479486E+00
         -1   -1    0    0    0  501 -0.00000000000E+00  0.00000000000E+00  0.51432859202E+01  0.51432859202E+01  0.00000000000E+00 0.  1.
         21   -1    0    0  501  502  0.00000000000E+00 -0.00000000000E+00 -0.13231473609E+03  0.13231473609E+03  0.00000000000E+00 0.  1.
         21    1    1    2  503  502  0.42035217370E+01 -0.23699733293E+02 -0.90087498465E+02  0.93247543307E+02  0.00000000000E+00 0.  1.
         -1    1    1    2    0  503 -0.42035217370E+01  0.23699733293E+02 -0.37083951709E+02  0.44210478707E+02  0.00000000000E+00 0.  1.
</event>
<event>
 4    1  0.1635676E+006  0.3738955E+02  0.7546771E-02  0.1364501E+00
         21   -1    0    0  503  502  0.00000000000E+00  0.00000000000E+00  0.17055652022E+01  0.17055652022E+01  0.00000000000E+00 0.  1.
          2   -1    0    0  502    0 -0.00000000000E+00 -0.00000000000E+00 -0.12875885829E+04  0.12875885829E+04  0.00000000000E+00 0.  1.
         21    1    1    2  503  501 -0.37265821716E+02 -0.30392410632E+01 -0.25432196533E+03  0.25705571478E+03  0.00000000000E+00 0.  1.
          2    1    1    2  501    0  0.37265821716E+02  0.30392410632E+01 -0.10315610524E+04  0.10322384333E+04  0.00000000000E+00 0.  1.
</event>
<event>
 4    1  0.1635676E+006  0.2374578E+02  0.7546771E-02  0.1483340E+00
          2   -1    0    0  502    0 -0.00000000000E+00  0.00000000000E+00  0.12845374298E+03  0.12845374298E+03  0.00000000000E+00 0. -1.
         21   -1    0    0  503  502  0.00000000000E+00 -0.00000000000E+00 -0.19099430802E+02  0.19099430802E+02  0.00000000000E+00 0.  1.
         21    1    1    2  503  501  0.18013341794E+02 -0.15471964081E+02 -0.10068703573E+02  0.25792265251E+02  0.00000000000E+00 0.  1.
          2    1    1    2  501    0 -0.18013341794E+02  0.15471964081E+02  0.11942301575E+03  0.12176090853E+03  0.00000000000E+00 0. -1.
</event>
<event>
 4    1  0.1635676E+006  0.2615752E+02  0.7546771E-02  0.1456260E+00
         21   -1    0    0  503  502  0.00000000000E+00  0.00000000000E+00  0.11862935768E+02  0.11862935768E+02  0.00000000000E+00 0. -1.
          2   -1    0    0  502    0 -0.00000000000E+00 -0.00000000000E+00 -0.13827676421E+04  0.13827676421E+04  0.00000000000E+00 0. -1.
         21    1    1    2  503  501  0.69115667391E+01  0.25227880936E+02 -0.28348566661E+01  0.26310684971E+02  0.00000000000E+00 0. -1.
          2    1    1    2  501    0 -0.69115667391E+01 -0.25227880936E+02 -0.13680698496E+04  0.13683198928E+04  0.00000000000E+00 0. -1.
</event>
<event>
 4    1  0.1635676E+006  0.2784759E+02  0.7546771E-02  0.1439275E+00
          1   -1    0    0  503    0 -0.00000000000E+00  0.00000000000E+00  0.10403783308E+04  0.10403783308E+04  0.00000000000E+00 0.  1.
         21   -1    0    0  501  502  0.00000000000E+00 -0.00000000000E+00 -0.34707084649E+02  0.34707084649E+02  0.00000000000E+00 0. -1.
         21    1    1    2  503  502 -0.16868290891E+02 -0.22157363524E+02 -0.28903458547E+02  0.40135992724E+02  0.00000000000E+00 0. -1.
          1    1    1    2  501    0  0.16868290891E+02  0.22157363524E+02  0.10345747047E+04  0.10349494228E+04  0.00000000000E+00 0.  1.
</event>
<event>
 4    1  0.1635676E+006  0.2182383E+02  0.7546771E-02  0.1507820E+00
         21   -1    0    0  503  502  0.00000000000E+00  0.00000000000E+00  0.38045372338E+03  0.38045372338E+03  0.00000000000E+00 0.  1.
          4   -1    0    0  502    0 -0.00000000000E+00 -0.00000000000E+00 -0.19457980999E+01  0.19457980999E+01  0.00000000000E+00 0.  1.
         21    1    1    2  503  501  0.38744062818E+01  0.21477161930E+02  0.30343525361E+03  0.30421905371E+03  0.00000000000E+00 0.  1.
          4    1    1    2  501    0 -0.38744062818E+01 -0.21477161930E+02  0.75072671672E+02  0.78180467769E+02  0.00000000000E+00 0.  1.
</event>
<event>
 4    1  0.1635676E+006  0.3146068E+02  0.7546771E-02  0.1407314E+00
          1   -1    0    0  502    0 -0.00000000000E+00  0.00000000000E+00  0.13840066025E+03  0.13840066025E+03  0.00000000000E+00 0.  1.
         21   -1    0    0  503  502  0.00000000000E+00 -0.00000000000E+00 -0.76440634266E+01  0.76440634266E+01  0.00000000000E+00 0.  1.
         21    1    1    2  503  501  0.31397824443E+02 -0.19876694044E+01  0.46842179675E+02  0.56426624975E+02  0.00000000000E+00 0.  1.
          1    1    1    2  501    0 -0.31397824443E+02  0.19876694044E+01  0.83914417151E+02  0.89618098703E+02  0.00000000000E+00 0.  1.
</event>
<event>
 4    1  0.1635676E+006  0.2202443E+02  0.7546771E-02  0.1505126E+00
          4   -1    0    0  503    0 -0.00000000000E+00  0.00000000000E+00  0.18518097869E+03  0.18518097869E+03  0.00000000000E+00 0. -1.
         21   -1    0    0  501  502  0.00000000000E+00 -0.00000000000E+00 -0.10482349775E+02  0.10482349775E+02  0.00000000000E+00 0.  1.
         21    1    1    2  503  502 -0.16223046117E+02 -0.14895910927E+02  0.26185685644E+01  0.22179546636E+02  0.00000000000E+00 0.  1.
          4    1    1    2  501    0  0.16223046117E+02  0.14895910927E+02  0.17208006035E+03  0.17348378183E+03  0.00000000000E+00 0. -1.
</event>
<event>
 4    1  0.1635676E+006  0.2258013E+02  0.7546771E-02  0.1497839E+00
         -1   -1    0    0    0  501 -0.00000000000E+00  0.00000000000E+00  0.24619001333E+01  0.24619001333E+01  0.00000000000E+00 0.  1.
         21   -1    0    0  501  502  0.00000000000E+00 -0.00000000000E+00 -0.28450197358E+03  0.28450197358E+03  0.00000000000E+00 0. -1.
         21    1    1    2  503  502 -0.21810435428E+02  0.58452818655E+01 -0.21585892127E+03  0.21703671649E+03  0.00000000000E+00 0. -1.
         -1    1    1    2    0  503  0.21810435428E+02 -0.58452818655E+01 -0.66181152174E+02  0.69927157219E+02  0.00000000000E+00 0.  1.
</event>
<event>
 4    1  0.1635676E+006  0.3774918E+02  0.7546771E-02  0.1362205E+00
         -1   -1    0    0    0  501 -0.00000000000E+00  0.00000000000E+00  0.78269845327E+02  0.78269845327E+02  0.00000000000E+00 0. -1.
         21   -1    0    0  503  502  0.00000000000E+00 -0.00000000000E+00 -0.65119633959E+02  0.65119633959E+02  0.00000000000E+00 0. -1.
         21    1    1    2  503  501 -0.11135631906E+02  0.36069355571E+02 -0.54277569733E+02  0.66113956812E+02  0.00000000000E+00 0. -1.
         -1    1    1    2    0  502  0.11135631906E+02 -0.36069355571E+02  0.67427781102E+02  0.77275522473E+02  0.00000000000E+00 0. -1.
</event>
<event>
 4    1  0.1635676E+006  0.3236253E+02  0.7546771E-02  0.1400118E+00
          3   -1    0    0  502    0 -0.00000000000E+00  0.00000000000E+00  0.33042409407E+02  0.33042409407E+02  0.00000000000E+00 0. -1.
         21   -1    0    0  503  502  0.00000000000E+00 -0.00000000000E+00 -0.27722292477E+03  0.27722292477E+03  0.00000000000E+00 0.  1.
         21    1    1    2  503  501 -0.31564181730E+02  0.71439430746E+01 -0.26808515636E+03  0.27003145104E+03  0.00000000000E+00 0.  1.
          3    1    1    2  501    0  0.31564181730E+02 -0.71439430746E+01  0.23904640997E+02  0.40233883135E+02  0.00000000000E+00 0. -1.
</event>
<event>
 4    1  0.1635676E+006  0.2294170E+02  0.7546771E-02  0.1493231E+00
         -1   -1    0    0    0  501 -0.00000000000E+00  0.00000000000E+00  0.11680183464E+03  0.11680183464E+03  0.00000000000E+00 0.  1.
         21   -1    0    0  503  502  0.00000000000E+00 -0.00000000000E+00 -0.46520937659E+01  0.46520937659E+01  0.00000000000E+00 0.  1.
         21    1    1    2  503  501 -0.17530474009E+02  0.14798793859E+02  0.66832357954E+02  0.70660355847E+02  0.00000000000E+00 0.  1.
         -1    1    1    2    0  502  0.17530474009E+02 -0.14798793859E+02  0.45317382923E+02  0.50793572562E+02  0.00000000000E+00 0.  1.
</event>
<event>
 4    1  0.1635676E+006  0.2043509E+02  0.7546771E-02  0.1527485E+00
          3   -1    0    0  503    0 -0.00000000000E+00  0.00000000000E+00  0.10349527376E+03  0.10349527376E+03  0.00000000000E+00 0.  1.
         21   -1    0    0  501  502  0.00000000000E+00 -0.00000000000E+00 -0.46594201899E+01  0.46594201899E+01  0.00000000000E+00 0.  1.
         21    1    1    2  503  502  0.18223277872E+02 -0.92469017085E+01  0.29619859807E+02  0.35985123907E+02  0.00000000000E+00 0.  1.
          3    1    1    2  501    0 -0.18223277872E+02  0.92469017085E+01  0.69215993766E+02  0.72169570046E+02  0.00000000000E+00 0.  1.
</event>
<event>
 4    1  0.1635676E+006  0.3044550E+02  0.7546771E-02  0.1415764E+00
         21   -1    0    0  503  502  0.00000000000E+00  0.00000000000E+00  0.27766576013E+02  0.27766576013E+02  0.00000000000E+00 0. -1.
          2   -1    0    0  502    0 -0.00000000000E+00 -0.00000000000E+00 -0.60608134616E+02  0.60608134616E+02  0.00000000000E+00 0.  1.
         21    1    1    2  503  501 -0.60900129371E+01 -0.29830191249E+02  0.13194677878E+02  0.33181743352E+02  0.00000000000E+00 0. -1.
          2    1    1    2  501    0  0.60900129371E+01  0.29830191249E+02 -0.46036236481E+02  0.55192967277E+02  0.00000000000E+00 0.  1.
</event>
<event>
 4    1  0.1635676E+006  0.4604489E+02  0.7546771E-02  0.1316296E+00
         -2   -1    0    0    0  501 -0.00000000000E+00  0.00000000000E+00  0.57002472876E+02  0.57002472876E+02  0.00000000000E+00 0.  1.
         21   -1    0    0  503  502  0.00000000000E+00 -0.00000000000E+00 -0.12067791641E+03  0.12067791641E+03  0.00000000000E+00 0. -1.
         21    1    1    2  503  501  0.53442820521E+01  0.45733689414E+02 -0.10572979315E+03  0.11532094718E+03  0.00000000000E+00 0. -1.
         -2    1    1    2    0  502 -0.53442820521E+01 -0.45733689414E+02  0.42054349618E+02  0.62359442107E+02  0.00000000000E+00 0.  1.
</event>
<event>
 4    1  0.1635676E+006  0.2368137E+02  0.7546771E-02  0.1484115E+00
          1   -1    0    0  503    0 -0.00000000000E+00  0.00000000000E+00  0.92730237521E+03  0.92730237521E+03  0.00000000000E+00 0.  1.
         21   -1    0    0  501  502  0.00000000000E+00 -0.00000000000E+00 -0.11956546580E+02  0.11956546580E+02  0.00000000000E+00 0. -1.
         21    1    1    2  503  502 -0.11044019715E+02  0.20948434177E+02  0.74704288440E-01  0.23681487425E+02  0.00000000000E+00 0. -1.
          1    1    1    2  501    0  0.11044019715E+02 -0.20948434177E+02  0.91527112435E+03  0.91557743437E+03  0.00000000000E+00 0.  1.
</event>
<event>
 4    1  0.1635676E+006  0.2205748E+02  0.7546771E-02  0.1504685E+00
         21   -1    0    0  501  502  0.00000000000E+00  0.00000000000E+00  0.35433912973E+03  0.35433912973E+03  0.00000000000E+00 0.  1.
          2   -1    0    0  503    0 -0.00000000000E+00 -0.00000000000E+00 -0.18062986528E+02  0.18062986528E+02  0.00000000000E+00 0.  1.
         21    1    1    2  503  502 -0.45096267728E+01  0.21591565877E+02  0.34712216948E+03  0.34782227214E+03  0.00000000000E+00 0.  1.
          2    1    1    2  501    0  0.45096267728E+01 -0.21591565877E+02 -0.10846026283E+02  0.24579844116E+02  0.00000000000E+00 0.  1.
</event>
<event>
 4    1  0.1635676E+006  0.2256406E+02  0.7546771E-02  0.1498046E+00
         21   -1    0    0  501  502  0.00000000000E+00  0.00000000000E+00  0.91867625410E+02  0.91867625410E+02  0.00000000000E+00 0. -1.
         -1   -1    0    0    0  501 -0.00000000000E+00 -0.00000000000E+00 -0.31645929426E+03  0.31645929426E+03  0.00000000000E+00 0.  1.
         21    1    1    2  503  502  0.16802727292E+02  0.15060058499E+02  0.90071997395E+02  0.92855272986E+02  0.00000000000E+00 0. -1.
         -1    1    1    2    0  503 -0.16802727292E+02 -0.15060058499E+02 -0.31466366624E+03  0.31547164668E+03  0.00000000000E+00 0.  1.
</event>
<event>
 4    1  0.1635676E+006  0.2084605E+02  0.7546771E-02  0.1521474E+00
         21   -1    0    0  501  502  0.00000000000E+00  0.00000000000E+00  0.74036424487E+00  0.74036424487E+00  0.00000000000E+00 0. -1.
          3   -1    0    0  503    0 -0.00000000000E+00 -0.00000000000E+00 -0.62729845463E+03  0.62729845463E+03  0.00000000000E+00 0. -1.
         21    1    1    2  503  502  0.20722695768E+02  0.22644678740E+01 -0.23364027564E+03  0.23456840439E+03  0.00000000000E+00 0. -1.
          3    1    1    2  501    0 -0.20722695768E+02 -0.22644678740E+01 -0.39291781474E+03  0.39347041448E+03  0.00000000000E+00 0. -1.
</event>
<event>
 4    1  0.1635676E+006  0.2311301E+02  0.7546771E-02  0.1491084E+00
          4   -1    0    0  502    0 -0.00000000000E+00  0.00000000000E+00  0.38381338882E+03  0.38381338882E+03  0.00000000000E+00 0.  1.
         21   -1    0    0  503  502  0.00000000000E+00 -0.00000000000E+00 -0.11651083897E+02  0.11651083897E+02  0.00000000000E+00 0. -1.
         21    1    1    2  503  501  0.73302425139E+01  0.21919821738E+02  0.53508316841E+00  0.23119198826E+02  0.00000000000E+00 0. -1.
          4    1    1    2  501    0 -0.73302425139E+01 -0.21919821738E+02  0.37162722175E+03  0.37234527389E+03  0.00000000000E+00 0.  1.
</event>
<event>
 4    1  0.1635676E+006  0.7087113E+02  0.7546771E-02  0.1226791E+00
         21   -1    0    0  503  502  0.00000000000E+00  0.00000000000E+00  0.23107668934E+02  0.23107668934E+02  0.00000000000E+00 0. -1.
         -4   -1    0    0    0  501 -0.00000000000E+00 -0.00000000000E+00 -0.42644198030E+03  0.42644198030E+03  0.00000000000E+00 0. -1.
         21    1    1    2  503  501  0.70054086840E+02 -0.10730400240E+02 -0.44278117410E+02  0.83565951522E+02  0.00000000000E+00 0. -1.
         -4    1    1    2    0  502 -0.70054086840E+02  0.10730400240E+02 -0.35905619396E+03  0.36598369772E+03  0.00000000000E+00 0. -1.
</event>
<event>
 4    1  0.1635676E+006  0.3508910E+02  0.7546771E-02  0.1379938E+00
         -2   -1    0    0    0  501 -0.00000000000E+00  0.00000000000E+00  0.14556045264E+03  0.14556045264E+03  0.00000000000E+00 0.  1.
         21   -1    0    0  503  502  0.00000000000E+00 -0.00000000000E+00 -0.11987291013E+02  0.11987291013E+02  0.00000000000E+00 0. -1.
         21    1    1    2  503  501 -0.34260400569E+02  0.75809083971E+01  0.24047489810E+02  0.42538535299E+02  0.00000000000E+00 0. -1.
         -2    1    1    2    0  502  0.34260400569E+02 -0.75809083971E+01  0.10952567182E+03  0.11500920836E+03  0.00000000000E+00 0.  1.
</event>
<event>
 4    1  0.1635676E+006  0.2064182E+02  0.7546771E-02  0.1524441E+00
         21   -1    0    0  501  502  0.00000000000E+00  0.00000000000E+00  0.10641380389E+01  0.10641380389E+01  0.00000000000E+00 0.  1.
          2   -1    0    0  503    0 -0.00000000000E+00 -0.00000000000E+00 -0.55256221310E+03  0.55256221310E+03  0.00000000000E+00 0.  1.
         21    1    1    2  503  502 -0.35747438926E+01  0.20329923920E+02 -0.13048952829E+03  0.13211207967E+03  0.00000000000E+00 0.  1.
          2    1    1    2  501    0  0.35747438926E+01 -0.20329923920E+02 -0.42100854677E+03  0.42151427147E+03  0.00000000000E+00 0.  1.
</event>
<event>
 4    1  0.1635676E+006  0.2028633E+02  0.7546771E-02  0.1529703E+00
         21   -1    0    0  503  502  0.00000000000E+00  0.00000000000E+00  0.89815447891E+02  0.89815447891E+02  0.00000000000E+00 0. -1.
          1   -1    0    0  502    0 -0.00000000000E+00 -0.00000000000E+00 -0.11155064118E+03  0.11155064118E+03  0.00000000000E+00 0.  1.
         21    1    1    2  503  501 -0.20093970096E+02  0.27870479341E+01  0.87725957741E+02  0.90040984735E+02  0.00000000000E+00 0. -1.
          1    1    1    2  501    0  0.20093970096E+02 -0.27870479341E+01 -0.10946115103E+03  0.11132510433E+03  0.00000000000E+00 0.  1.
</event>
<event>
 4    1  0.1635676E+006  0.2412092E+02  0.7546771E-02  0.1478883E+00
         21   -1    0    0  501  502  0.00000000000E+00  0.00000000000E+00  0.31589052445E+02  0.31589052445E+02  0.00000000000E+00 0.  1.
          3   -1    0    0  503    0 -0.00000000000E+00 -0.00000000000E+00 -0.50598987000E+02  0.50598987000E+02  0.00000000000E+00 0.  1.
         21    1    1    2  503  502 -0.12503684336E+02  0.20627088005E+02  0.23267179532E+02  0.33513885554E+02  0.00000000000E+00 0.  1.
          3    1    1    2  501    0  0.12503684336E+02 -0.20627088005E+02 -0.42277114087E+02  0.48674153892E+02  0.00000000000E+00 0.  1.
</event>
<event>
 4    1  0.1635676E+006  0.2466860E+02  0.7546771E-02  0.1472545E+00
         21   -1    0    0  503  502  0.00000000000E+00  0.00000000000E+00  0.20951975006E+01  0.20951975006E+01  0.00000000000E+00 0. -1.
          3   -1    0    0  502    0 -0.00000000000E+00 -0.00000000000E+00 -0.77894241667E+03  0.77894241667E+03  0.00000000000E+00 0. -1.
         21    1    1    2  503  501  0.21083131392E+02  0.12807865457E+02 -0.79166018585E+02  0.82920433823E+02  0.00000000000E+00 0. -1.
          3    1    1    2  501    0 -0.21083131392E+02 -0.12807865457E+02 -0.69768120059E+03  0.69811718035E+03  0.00000000000E+00 0. -1.
</event>
<event>
 4    1  0.1635676E+006  0.2809402E+02  0.7546771E-02  0.1436917E+00
         21   -1    0    0  503  502  0.00000000000E+00  0.00000000000E+00  0.29664314370E+00  0.29664314370E+00  0.00000000000E+00 0.  1.
         -1   -1    0    0    0  501 -0.00000000000E+00 -0.00000000000E+00 -0.26767593767E+04  0.26767593767E+04  0.00000000000E+00 0.  1.
         21    1    1    2  503  501  0.11942822970E+02 -0.25429177247E+02 -0.12345060631E+04  0.12348256937E+04  0.00000000000E+00 0.  1.
         -1    1    1    2    0  502 -0.11942822970E+02  0.25429177247E+02 -0.14419566704E+04  0.14422303261E+04  0.00000000000E+00 0.  1.
</event>
<event>
 4    1  0.1635676E+006  0.2817359E+02  0.7546771E-02  0.1436162E+00
          2   -1    0    0  503    0 -0.00000000000E+00  0.00000000000E+00  0.47795418197E+03  0.47795418197E+03  0.00000000000E+00 0. -1.
         21   -1    0    0  501  502  0.00000000000E+00 -0.00000000000E+00 -0.18717775636E+02  0.18717775636E+02  0.00000000000E+00 0. -1.
         21    1    1    2  503  502 -0.27886529711E+02 -0.40115532622E+01 -0.74451801128E+01  0.29140724181E+02  0.00000000000E+00 0. -1.
          2    1    1    2  501    0  0.27886529711E+02  0.40115532622E+01  0.46668158645E+03  0.46753123343E+03  0.00000000000E+00 0. -1.
</event>
<event>
 4    1  0.1635676E+006  0.2128676E+02  0.7546771E-02  0.1515210E+00
         21   -1    0    0  501  502  0.00000000000E+00  0.00000000000E+00  0.29003575213E+01  0.29003575213E+01  0.00000000000E+00 0.  1.
         -2   -1    0    0    0  501 -0.00000000000E+00 -0.00000000000E+00 -0.43710815454E+03  0.43710815454E+03  0.00000000000E+00 0. -1.
         21    1    1    2  503  502 -0.18803749103E+02  0.99772239072E+01 -0.40746055868E+02  0.45971372027E+02  0.00000000000E+00 0.  1.
         -2    1    1    2    0  503  0.18803749103E+02 -0.99772239072E+01 -0.39346174115E+03  0.39403714004E+03  0.00000000000E+00 0. -1.
</event>
<event>
 4    1  0.1635676E+006  0.2452628E+02  0.7546771E-02  0.1474173E+00
         21   -1    0    0  501  502  0.00000000000E+00  0.00000000000E+00  0.50020487203E+01  0.50020487203E+01  0.00000000000E+00 0.  1.
          2   -1    0    0  503    0 -0.00000000000E+00 -0.00000000000E+00 -0.16792322785E+03  0.16792322785E+03  0.00000000000E+00 0. -1.
         21    1    1    2  503  502 -0.23541216217E+02 -0.68811029979E+01 -0.35395485894E+02  0.43062499475E+02  0.00000000000E+00 0.  1.
          2    1    1    2  501    0  0.23541216217E+02  0.68811029979E+01 -0.12752569324E+03  0.12986277709E+03  0.00000000000E+00 0. -1.
</event>
<event>
 4    1  0.1635676E+006  0.3408373E+02  0.7546771E-02  0.1387122E+00
          3   -1    0    0  503    0 -0.00000000000E+00  0.00000000000E+00  0.13405746364E+02  0.13405746364E+02  0.00000000000E+00 0.  1.
         21   -1    0    0  501  502  0.00000000000E+00 -0.00000000000E+00 -0.54097838530E+03  0.54097838530E+03  0.00000000000E+00 0.  1.
         21    1    1    2  503  502  0.20818243526E+01  0.34020091386E+02 -0.51780898538E+03  0.51892951926E+03  0.00000000000E+00 0.  1.
          3    1    1    2  501    0 -0.20818243526E+01 -0.34020091386E+02 -0.97636535569E+01  0.35454612413E+02  0.00000000000E+00 0.  1.
</event>
<event>
 4    1  0.1635676E+006  0.2863158E+02  0.7546771E-02  0.1431873E+00
         -3   -1    0    0    0  501 -0.00000000000E+00  0.00000000000E+00  0.13086950124E+01  0.13086950124E+01  0.00000000000E+00 0.  1.
         21   -1    0    0  503  502  0.00000000000E+00 -0.00000000000E+00 -0.62717083167E+03  0.62717083167E+03  0.00000000000E+00 0.  1.
         21    1    1    2  503  501 -0.19438782097E+02  0.21021445158E+02 -0.32394303519E+03  0.32520586934E+03  0.00000000000E+00 0.  1.
         -3    1    1    2    0  502  0.19438782097E+02 -0.21021445158E+02 -0.30191910147E+03  0.30327365734E+03  0.00000000000E+00 0.  1.
</event>
<event>
 4    1  0.1635676E+006  0.2888959E+02  0.7546771E-02  0.1429498E+00
         21   -1    0    0  503  502  0.00000000000E+00  0.00000000000E+00  0.13365011465E+04  0.13365011465E+04  0.00000000000E+00 0.  1.
         -3   -1    0    0    0  501 -0.00000000000E+00 -0.00000000000E+00 -0.79841363130E+00  0.79841363130E+00  0.00000000000E+00 0.  1.
         21    1    1    2  503  501  0.27630462148E+02  0.84360081738E+01  0.97994538832E+03  0.98037114031E+03  0.00000000000E+00 0.  1.
         -3    1    1    2    0  502 -0.27630462148E+02 -0.84360081738E+01  0.35575734457E+03  0.35692841984E+03  0.00000000000E+00 0.  1.
</event>
<event>
 4    1  0.1635676E+006  0.2163317E+02  0.7546771E-02  0.1510414E+00
         21   -1    0    0  503  502  0.00000000000E+00  0.00000000000E+00  0.69434396188E+02  0.69434396188E+02  0.00000000000E+00 0. -1.
          4   -1    0    0  502    0 -0.00000000000E+00 -0.00000000000E+00 -0.10449395966E+02  0.10449395966E+02  0.00000000000E+00 0. -1.
         21    1    1    2  503  501  0.95881725798E+01  0.19392291392E+02  0.53289897573E+02  0.57513539294E+02  0.00000000000E+00 0. -1.
          4    1    1    2  501    0 -0.95881725798E+01 -0.19392291392E+02  0.56951026486E+01  0.22370252860E+02  0.00000000000E+00 0. -1.
</event>
<event>
 4    1  0.1635676E+006  0.2460563E+02  0.7546771E-02  0.1473264E+00
          4   -1    0    0  503    0 -0.00000000000E+00  0.00000000000E+00  0.10134359247E+03  0.10134359247E+03  0.00000000000E+00 0.  1.
         21   -1    0    0  501  502  0.00000000000E+00 -0.00000000000E+00 -0.10175441486E+04  0.10175441486E+04  0.00000000000E+00 0. -1.
         21    1    1    2  503  502 -0.10384042592E+02 -0.22307146885E+02 -0.10158994555E+04  0.10161973926E+04  0.00000000000E+00 0. -1.
          4    1    1    2  501    0  0.10384042592E+02  0.22307146885E+02  0.99698899320E+02  0.10269034847E+03  0.00000000000E+00 0.  1.
</event>
<event>
 4    1  0.1635676E+006  0.2805513E+02  0.7546771E-02  0.1437288E+00
         -1   -1    0    0    0  501 -0.00000000000E+00  0.00000000000E+00  0.21719954261E+03  0.21719954261E+03  0.00000000000E+00 0.  1.
         21   -1    0    0  503  502  0.00000000000E+00 -0.00000000000E+00 -0.22534901069E+02  0.22534901069E+02  0.00000000000E+00 0.  1.
         21    1    1    2  503  501  0.24822867325E+02  0.13073468730E+02 -0.12474895286E+02  0.30703637231E+02  0.00000000000E+00 0.  1.
         -1    1    1    2    0  502 -0.24822867325E+02 -0.13073468730E+02  0.20713953683E+03  0.20903080645E+03  0.00000000000E+00 0.  1.
</event>
<event>
 4    1  0.1635676E+006  0.2263546E+02  0.7546771E-02  0.1497127E+00
         21   -1    0    0  503  502  0.00000000000E+00  0.00000000000E+00  0.32009590141E+01  0.32009590141E+01  0.00000000000E+00 0.  1.
          2   -1    0    0  502    0 -0.00000000000E+00 -0.00000000000E+00 -0.67160732402E+03  0.67160732402E+03  0.00000000000E+00 0.  1.
         21    1    1    2  503  501  0.22550867128E+02 -0.19550825988E+01 -0.39738537658E+02  0.45733087927E+02  0.00000000000E+00 0.  1.
          2    1    1    2  501    0 -0.22550867128E+02  0.19550825988E+01 -0.62866782734E+03  0.62907519510E+03  0.00000000000E+00 0.  1.
</event>
<event>
 4    1  0.1635676E+006  0.3206273E+02  0.7546771E-02  0.1402479E+00
          2   -1    0    0  503    0 -0.00000000000E+00  0.00000000000E+00  0.14321113565E+04  0.14321113565E+04  0.00000000000E+00 0. -1.
         21   -1    0    0  501  502  0.00000000000E+00 -0.00000000000E+00 -0.10761578983E+02  0.10761578983E+02  0.00000000000E+00 0.  1.
         21    1    1    2  503  502  0.14526713408E+02 -0.28583090226E+02  0.13714769524E+02  0.34872816813E+02  0.00000000000E+00 0.  1.
          2    1    1    2  501    0 -0.14526713408E+02  0.28583090226E+02  0.14076350080E+04  0.14080001187E+04  0.00000000000E+00 0. -1.
</event>
<event>
 4    1  0.1635676E+006  0.2147410E+02  0.7546771E-02  0.1512602E+00
         21   -1    0    0  503  502  0.00000000000E+00  0.00000000000E+00  0.62491092576E+02  0.62491092576E+02  0.00000000000E+00 0.  1.
          2   -1    0    0  502    0 -0.00000000000E+00 -0.00000000000E+00 -0.56603240242E+03  0.56603240242E+03  0.00000000000E+00 0. -1.
         21    1    1    2  503  501  0.14190104282E+02 -0.16117629233E+02  0.60435890472E+02  0.64137616800E+02  0.00000000000E+00 0.  1.
          2    1    1    2  501    0 -0.14190104282E+02  0.16117629233E+02 -0.56397720032E+03  0.56438587820E+03  0.00000000000E+00 0. -1.
</event>
<event>
 4    1  0.1635676E+006  0.2054118E+02  0.7546771E-02  0.1525917E+00
         -2   -1    0    0    0  501 -0.00000000000E+00  0.00000000000E+00  0.10877364829E+01  0.10877364829E+01  0.00000000000E+00 0. -1.
         21   -1    0    0  503  502  0.00000000000E+00 -0.00000000000E+00 -0.53101111715E+03  0.53101111715E+03  0.00000000000E+00 0. -1.
         21    1    1    2  503  501  0.14809412133E+02 -0.14234519337E+02 -0.40307549775E+03  0.40359855935E+03  0.00000000000E+00 0. -1.
         -2    1    1    2    0  502 -0.14809412133E+02  0.14234519337E+02 -0.12684788292E+03  0.12850029428E+03  0.00000000000E+00 0. -1.
</event>
<event>
 4    1  0.1635676E+006  0.2518779E+02  0.7546771E-02  0.1466713E+00
         21   -1    0    0  501  502  0.00000000000E+00  0.00000000000E+00  0.43354750573E+02  0.43354750573E+02  0.00000000000E+00 0. -1.
          1   -1    0    0  503    0 -0.00000000000E+00 -0.00000000000E+00 -0.20225546318E+03  0.20225546318E+03  0.00000000000E+00 0. -1.
         21    1    1    2  503  502  0.29365352575E+01  0.25016026855E+02  0.38828827506E+02  0.46282855189E+02  0.00000000000E+00 0. -1.
          1    1    1    2  501    0 -0.29365352575E+01 -0.25016026855E+02 -0.19772954011E+03  0.19932735856E+03  0.00000000000E+00 0. -1.
</event>
<event>
 4    1  0.1635676E+006  0.2232870E+02  0.7546771E-02  0.1501104E+00
         -2   -1    0    0    0  501 -0.00000000000E+00  0.00000000000E+00  0.10698667815E+04  0.10698667815E+04  0.00000000000E+00 0.  1.
         21   -1    0    0  503  502  0.00000000000E+00 -0.00000000000E+00 -0.73615325957E+01  0.73615325957E+01  0.00000000000E+00 0. -1.
         21    1    1    2  503  501 -0.21589533045E+02  0.56976197007E+01  0.99652899868E+01  0.24451540071E+02  0.00000000000E+00 0. -1.
         -2    1    1    2    0  502  0.21589533045E+02 -0.56976197007E+01  0.10525399589E+04  0.10527767740E+04  0.00000000000E+00 0.  1.
</event>
<event>
 4    1  0.1635676E+006  0.4285819E+02  0.7546771E-02  0.1332504E+00
         21   -1    0    0  501  502  0.00000000000E+00  0.00000000000E+00  0.41723074040E+01  0.41723074040E+01  0.00000000000E+00 0. -1.
          2   -1    0    0  503    0 -0.00000000000E+00 -0.00000000000E+00 -0.16410849544E+04  0.16410849544E+04  0.00000000000E+00 0.  1.
         21    1    1    2  503  502  0.22873350091E+01 -0.42797112431E+02 -0.11476628111E+03  0.12250764879E+03  0.00000000000E+00 0. -1.
          2    1    1    2  501    0 -0.22873350091E+01  0.42797112431E+02 -0.15221463659E+04  0.15227496130E+04  0.00000000000E+00 0.  1.
</event>
<event>
 4    1  0.1635676E+006  0.3538854E+02  0.7546771E-02  0.1377852E+00
         -1   -1    0    0    0  501 -0.00000000000E+00  0.00000000000E+00  0.12414974502E+03  0.12414974502E+03  0.00000000000E+00 0.  1.
         21   -1    0    0  503  502  0.00000000000E+00 -0.00000000000E+00 -0.21473773193E+02  0.21473773193E+02  0.00000000000E+00 0.  1.
         21    1    1    2  503  501 -0.23298664064E+02  0.26636837102E+02 -0.16820407868E+01  0.35428492760E+02  0.00000000000E+00 0.  1.
         -1    1    1    2    0  502  0.23298664064E+02 -0.26636837102E+02  0.10435801261E+03  0.11019502545E+03  0.00000000000E+00 0.  1.
</event>
<event>
 4    1  0.1635676E+006  0.2272219E+02  0.7546771E-02  0.1496016E+00
          2   -1    0    0  502    0 -0.00000000000E+00  0.00000000000E+00  0.14756343134E+02  0.14756343134E+02  0.00000000000E+00 0.  1.
         21   -1    0    0  503  502  0.00000000000E+00 -0.00000000000E+00 -0.35674988194E+03  0.35674988194E+03  0.00000000000E+00 0. -1.
         21    1    1    2  503  501  0.21020458667E+02  0.86277632435E+01 -0.34740601305E+03  0.34814829582E+03  0.00000000000E+00 0. -1.
          2    1    1    2  501    0 -0.21020458667E+02 -0.86277632435E+01  0.54124742486E+01  0.23357929246E+02  0.00000000000E+00 0.  1.
</event>
<event>
 4    1  0.1635676E+006  0.5315986E+02  0.7546771E-02  0.1285024E+00
          3   -1    0    0  502    0 -0.00000000000E+00  0.00000000000E+00  0.12506595250E+02  0.12506595250E+02  0.00000000000E+00 0. -1.
         21   -1    0    0  503  502  0.00000000000E+00 -0.00000000000E+00 -0.25387163821E+03  0.25387163821E+03  0.00000000000E+00 0. -1.
         21    1    1    2  503  501 -0.72064599589E+01  0.52669129797E+02 -0.16484635133E+03  0.17320591747E+03  0.00000000000E+00 0. -1.
          3    1    1    2  501    0  0.72064599589E+01 -0.52669129797E+02 -0.76518691626E+02  0.93172315990E+02  0.00000000000E+00 0. -1.
</event>
<event>
 4    1  0.1635676E+006  0.3389394E+02  0.7546771E-02  0.1388510E+00
         21   -1    0    0  501  502  0.00000000000E+00  0.00000000000E+00  0.11062108430E+01  0.11062108430E+01  0.00000000000E+00 0. -1.
          2   -1    0    0  503    0 -0.00000000000E+00 -0.00000000000E+00 -0.23997838072E+04  0.23997838072E+04  0.00000000000E+00 0. -1.
         21    1    1    2  503  502 -0.30473571550E+02 -0.14837817183E+02 -0.29520931048E+03  0.29714867723E+03  0.00000000000E+00 0. -1.
          2    1    1    2  501    0  0.30473571550E+02  0.14837817183E+02 -0.21034682859E+04  0.21037413408E+04  0.00000000000E+00 0. -1.
</event>
<event>
 4    1  0.1635676E+006  0.3195253E+02  0.7546771E-02  0.1403355E+00
         21   -1    0    0  501  502  0.00000000000E+00  0.00000000000E+00  0.22419599967E+03  0.22419599967E+03  0.00000000000E+00 0. -1.
          2   -1    0    0  503    0 -0.00000000000E+00 -0.00000000000E+00 -0.11564761675E+02  0.11564761675E+02  0.00000000000E+00 0. -1.
         21    1    1    2  503  502 -0.64399174848E+01 -0.31296826342E+02  0.19809797491E+03  0.20065834530E+03  0.00000000000E+00 0. -1.
          2    1    1    2  501    0  0.64399174848E+01  0.31296826342E+02  0.14533263092E+02  0.35102416048E+02  0.00000000000E+00 0. -1.
</event>
<event>
 4    1  0.1635676E+006  0.6741175E+02  0.7546771E-02  0.1236536E+00
         21   -1    0    0  503  502  0.00000000000E+00  0.00000000000E+00  0.54435351262E+03  0.54435351262E+03  0.00000000000E+00 0.  1.
         -2   -1    0    0    0  501 -0.00000000000E+00 -0.00000000000E+00 -0.10483045796E+02  0.10483045796E+02  0.00000000000E+00 0.  1.
         21    1    1    2  503  501 -0.25173474050E+02 -0.62535114592E+02  0.14174231828E+03  0.15695613764E+03  0.00000000000E+00 0.  1.
         -2    1    1    2    0  502  0.25173474050E+02  0.62535114592E+02  0.39212814855E+03  0.39788042077E+03  0.00000000000E+00 0.  1.
</event>
<event>
 4    1  0.1635676E+006  0.3735572E+02  0.7546771E-02  0.1364719E+00
          1   -1    0    0  502    0 -0.00000000000E+00  0.00000000000E+00  0.21150521037E+03  0.21150521037E+03  0.00000000000E+00 0. -1.
         21   -1    0    0  503  502  0.00000000000E+00 -0.00000000000E+00 -0.71357260846E+01  0.71357260846E+01  0.00000000000E+00 0. -1.
         21    1    1    2  503  501 -0.24495865625E+01  0.37275315622E+02  0.72166807014E+02  0.81261907826E+02  0.00000000000E+00 0. -1.
          1    1    1    2  501    0  0.24495865625E+01 -0.37275315622E+02  0.13220267727E+03  0.13737902863E+03  0.00000000000E+00 0. -1.
</event>
<event>
 4    1  0.1635676E+006  0.2285767E+02  0.7546771E-02  0.1494293E+00
         21   -1    0    0  503  502  0.00000000000E+00  0.00000000000E+00  0.11866477168E+04  0.11866477168E+04  0.00000000000E+00 0. -1.
         -2   -1    0    0    0  501 -0.00000000000E+00 -0.00000000000E+00 -0.11237365911E+02  0.11237365911E+02  0.00000000000E+00 0. -1.
         21    1    1    2  503  501 -0.14291862699E+02 -0.17838596732E+02  0.11747968389E+04  0.11750191852E+04  0.00000000000E+00 0. -1.
         -2    1    1    2    0  502  0.14291862699E+02  0.17838596732E+02  0.61351199367E+00  0.22865897527E+02  0.00000000000E+00 0. -1.
</event>
<event>
 4    1  0.1635676E+006  0.2166754E+02  0.7546771E-02  0.1509944E+00
          2   -1    0    0  503    0 -0.00000000000E+00  0.00000000000E+00  0.10804535639E+04  0.10804535639E+04  0.00000000000E+00 0. -1.
         21   -1    0    0  501  502  0.00000000000E+00 -0.00000000000E+00 -0.43264998365E+02  0.43264998365E+02  0.00000000000E+00 0.  1.
         21    1    1    2  503  502 -0.11778845839E+01  0.21635501702E+02 -0.40436417501E+02  0.45875769272E+02  0.00000000000E+00 0.  1.
          2    1    1    2  501    0  0.11778845839E+01 -0.21635501702E+02  0.10776249830E+04  0.10778427930E+04  0.00000000000E+00 0. -1.
</event>
<event>
 4    1  0.1635676E+006  0.6983643E+02  0.7546771E-02  0.1229638E+00
         21   -1    0    0  503  502  0.00000000000E+00  0.00000000000E+00  0.13776305979E+04  0.13776305979E+04  0.00000000000E+00 0.  1.
          3   -1    0    0  502    0 -0.00000000000E+00 -0.00000000000E+00 -0.15780382112E+03  0.15780382112E+03  0.00000000000E+00 0. -1.
         21    1    1    2  503  501  0.99105366701E+01  0.69129644667E+02  0.13689701264E+04  0.13707502812E+04  0.00000000000E+00 0.  1.
          3    1    1    2  501    0 -0.99105366701E+01 -0.69129644667E+02 -0.14914334961E+03  0.16468413780E+03  0.00000000000E+00 0. -1.
</event>
<event>
 4    1  0.1635676E+006  0.2926059E+02  0.7546771E-02  0.1426133E+00
         -1   -1    0    0    0  501 -0.00000000000E+00  0.00000000000E+00  0.81888999856E+02  0.81888999856E+02  0.00000000000E+00 0.  1.
         21   -1    0    0  503  502  0.00000000000E+00 -0.00000000000E+00 -0.15577495850E+02  0.15577495850E+02  0.00000000000E+00 0.  1.
         21    1    1    2  503  501 -0.16451952953E+02 -0.24197421910E+02  0.52109831079E+01  0.29720974546E+02  0.00000000000E+00 0.  1.
         -1    1    1    2    0  502  0.16451952953E+02  0.24197421910E+02  0.61100520899E+02  0.67745521159E+02  0.00000000000E+00 0.  1.
</event>
<event>
 4    1  0.1635676E+006  0.2468905E+02  0.7546771E-02  0.1472312E+00
          2   -1    0    0  502    0 -0.00000000000E+00  0.00000000000E+00  0.63113504697E+03  0.63113504697E+03  0.00000000000E+00 0.  1.
         21   -1    0    0  503  502  0.00000000000E+00 -0.00000000000E+00 -0.46711517519E+02  0.46711517519E+02  0.00000000000E+00 0.  1.
         21    1    1    2  503  501 -0.38460073434E+00 -0.24686052689E+02 -0.43189461215E+02  0.49748152480E+02  0.00000000000E+00 0.  1.
          2    1    1    2  501    0  0.38460073434E+00  0.24686052689E+02  0.62761299066E+03  0.62809841200E+03  0.00000000000E+00 0.  1.
</event>
<event>
 4    1  0.1635676E+006  0.2185253E+02  0.7546771E-02  0.1507433E+00
         21   -1    0    0  503  502  0.00000000000E+00  0.00000000000E+00  0.17594380566E+02  0.17594380566E+02  0.00000000000E+00 0.  1.
         -1   -1    0    0    0  501 -0.00000000000E+00 -0.00000000000E+00 -0.67355617708E+03  0.67355617708E+03  0.00000000000E+00 0.  1.
         21    1    1    2  503  501 -0.13264154901E+02 -0.17366492078E+02  0.10560244440E+02  0.24270385554E+02  0.00000000000E+00 0.  1.
         -1    1    1    2    0  502  0.13264154901E+02  0.17366492078E+02 -0.66652204096E+03  0.66688017210E+03  0.00000000000E+00 0.  1.
</event>
<event>
 4    1  0.1635676E+006  0.2889947E+02  0.7546771E-02  0.1429407E+00
         -2   -1    0    0    0  501 -0.00000000000E+00  0.00000000000E+00  0.26942143674E+03  0.26942143674E+03  0.00000000000E+00 0.  1.
         21   -1    0    0  503  502  0.00000000000E+00 -0.00000000000E+00 -0.28585849056E+02  0.28585849056E+02  0.00000000000E+00 0. -1.
         21    1    1    2  503  501  0.26704256911E+02  0.11048165938E+02 -0.20274966378E+02  0.35302316771E+02  0.00000000000E+00 0. -1.
         -2    1    1    2    0  502 -0.26704256911E+02 -0.11048165938E+02  0.26111055407E+03  0.26270496903E+03  0.00000000000E+00 0.  1.
</event>
<event>
 4    1  0.1635676E+006  0.2882706E+02  0.7546771E-02  0.1430071E+00
         21   -1    0    0  503  502  0.00000000000E+00  0.00000000000E+00  0.11570042039E+02  0.11570042039E+02  0.00000000000E+00 0.  1.
          1   -1    0    0  502    0 -0.00000000000E+00 -0.00000000000E+00 -0.80829989014E+03  0.80829989014E+03  0.00000000000E+00 0. -1.
         21    1    1    2  503  501 -0.28386201454E+02  0.50222412528E+01 -0.70664462660E+01  0.29680532391E+02  0.00000000000E+00 0.  1.
          1    1    1    2  501    0  0.28386201454E+02 -0.50222412528E+01 -0.78966340183E+03  0.79018939978E+03  0.00000000000E+00 0. -1.
</event>
<event>
 4    1  0.1635676E+006  0.2560460E+02  0.7546771E-02  0.1462152E+00
         -3   -1    0    0    0  501 -0.00000000000E+00  0.00000000000E+00  0.23411045648E+01  0.23411045648E+01  0.00000000000E+00 0.  1.
         21   -1    0    0  501  502  0.00000000000E+00 -0.00000000000E+00 -0.40299429329E+03  0.40299429329E+03  0.00000000000E+00 0.  1.
         21    1    1    2  503  502  0.21307818740E+01  0.25515780724E+02 -0.31227365360E+03  0.31332160798E+03  0.00000000000E+00 0.  1.
         -3    1    1    2    0  503 -0.21307818740E+01 -0.25515780724E+02 -0.88379535124E+02  0.92013789869E+02  0.00000000000E+00 0.  1.
</event>
<event>
 4    1  0.1635676E+006  0.3758594E+02  0.7546771E-02  0.1363244E+00
          2   -1    0    0  502    0 -0.00000000000E+00  0.00000000000E+00  0.67966158414E+03  0.67966158414E+03  0.00000000000E+00 0.  1.
         21   -1    0    0  503  502  0.00000000000E+00 -0.00000000000E+00 -0.41968440294E+01  0.41968440294E+01  0.00000000000E+00 0.  1.
         21    1    1    2  503  501 -0.16223266501E+02 -0.33904402133E+02  0.94809121828E+02  0.10198760926E+03  0.00000000000E+00 0.  1.
          2    1    1    2  501    0  0.16223266501E+02  0.33904402133E+02  0.58065561828E+03  0.58187081892E+03  0.00000000000E+00 0.  1.
</event>
<event>
 4    1  0.1635676E+006  0.2012215E+02  0.7546771E-02  0.1532177E+00
         21   -1    0    0  501  502  0.00000000000E+00  0.00000000000E+00  0.15492570107E+02  0.15492570107E+02  0.00000000000E+00 0. -1.
          2   -1    0    0  503    0 -0.00000000000E+00 -0.00000000000E+00 -0.10805165192E+03  0.10805165192E+03  0.00000000000E+00 0. -1.
         21    1    1    2  503  502  0.45920745009E+01 -0.19591163106E+02  0.75056119000E+01  0.21476383077E+02  0.00000000000E+00 0. -1.
          2    1    1    2  501    0 -0.45920745009E+01  0.19591163106E+02 -0.10006469371E+03  0.10206783895E+03  0.00000000000E+00 0. -1.
</event>
<event>
 4    1  0.1635676E+006  0.2493212E+02  0.7546771E-02  0.1469564E+00
          3   -1    0    0  503    0 -0.00000000000E+00  0.00000000000E+00  0.47325921990E+02  0.47325921990E+02  0.00000000000E+00 0. -1.
         21   -1    0    0  501  502  0.00000000000E+00 -0.00000000000E+00 -0.17714564049E+02  0.17714564049E+02  0.00000000000E+00 0. -1.
         21    1    1    2  503  502  0.21547947025E+02  0.12541784542E+02 -0.17297798749E+01  0.24992049114E+02  0.00000000000E+00 0. -1.
          3    1    1    2  501    0 -0.21547947025E+02 -0.12541784542E+02  0.31341137816E+02  0.40048436924E+02  0.00000000000E+00 0. -1.
</event>
<event>
 4    1  0.1635676E+006  0.2839606E+02  0.7546771E-02  0.1434067E+00
         21   -1    0    0  501  502  0.00000000000E+00  0.00000000000E+00  0.21046957531E+03  0.21046957531E+03  0.00000000000E+00 0. -1.
         -2   -1    0    0    0  501 -0.00000000000E+00 -0.00000000000E+00 -0.93590307111E+01  0.93590307111E+01  0.00000000000E+00 0. -1.
         21    1    1    2  503  502  0.14290886008E+02  0.24537863783E+02  0.18502846597E+03  0.18719473658E+03  0.00000000000E+00 0. -1.
         -2    1    1    2    0  503 -0.14290886008E+02 -0.24537863783E+02  0.16082078625E+02  0.32633869443E+02  0.00000000000E+00 0. -1.
</event>
<event>
 4    1  0.1635676E+006  0.3905048E+02  0.7546771E-02  0.1354142E+00
         21   -1    0    0  501  502  0.00000000000E+00  0.00000000000E+00  0.13114281834E+02  0.13114281834E+02  0.00000000000E+00 0.  1.
         -3   -1    0    0    0  501 -0.00000000000E+00 -0.00000000000E+00 -0.15667305457E+03  0.15667305457E+03  0.00000000000E+00 0. -1.
         21    1    1    2  503  502 -0.30867437939E+02  0.23919471460E+02 -0.28674458525E+02  0.48447542885E+02  0.00000000000E+00 0.  1.
         -3    1    1    2    0  503  0.30867437939E+02 -0.23919471460E+02 -0.11488431421E+03  0.12133979352E+03  0.00000000000E+00 0. -1.
</event>
<event>
 4    1  0.1635676E+006  0.3433810E+02  0.7546771E-02  0.1385277E+00
          2   -1    0    0  502    0 -0.00000000000E+00  0.00000000000E+00  0.25725606246E+03  0.25725606246E+03  0.00000000000E+00 0.  1.
         21   -1    0    0  503  502  0.00000000000E+00 -0.00000000000E+00 -0.41883542188E+03  0.41883542188E+03  0.00000000000E+00 0. -1.
         21    1    1    2  503  501 -0.94495452952E+00 -0.34325096748E+02 -0.41698068607E+03  0.41839215787E+03  0.00000000000E+00 0. -1.
          2    1    1    2  501    0  0.94495452952E+00  0.34325096748E+02  0.25540132665E+03  0.25769932647E+03  0.00000000000E+00 0.  1.
</event>
<event>
 4    1  0.1635676E+006  0.5703117E+02  0.7546771E-02  0.1270267E+00
          2   -1    0    0  503    0 -0.00000000000E+00  0.00000000000E+00  0.65953516608E+02  0.65953516608E+02  0.00000000000E+00 0.  1.
         21   -1    0    0  501  502  0.00000000000E+00 -0.00000000000E+00 -0.13050625007E+03  0.13050625007E+03  0.00000000000E+00 0.  1.
         21    1    1    2  503  502 -0.51228061694E+02  0.25064719987E+02 -0.10975470234E+03  0.12368770828E+03  0.00000000000E+00 0.  1.
          2    1    1    2  501    0  0.51228061694E+02 -0.25064719987E+02  0.45201968881E+02  0.72772058399E+02  0.00000000000E+00 0.  1.
</event>
<event>
 4    1  0.1635676E+006  0.2519991E+02  0.7546771E-02  0.1466579E+00
          2   -1    0    0  503    0 -0.00000000000E+00  0.00000000000E+00  0.20926504454E+01  0.20926504454E+01  0.00000000000E+00 0.  1.
         21   -1    0    0  501  502  0.00000000000E+00 -0.00000000000E+00 -0.91117314251E+03  0.91117314251E+03  0.00000000000E+00 0.  1.
         21    1    1    2  503  502  0.25060561107E+02 -0.26464909718E+01 -0.82746058138E+03  0.82784421806E+03  0.00000000000E+00 0.  1.
          2    1    1    2  501    0 -0.25060561107E+02  0.26464909718E+01 -0.81619910688E+02  0.85421574899E+02  0.00000000000E+00 0.  1.
</event>
<event>
 4    1  0.1635676E+006  0.2494091E+02  0.7546771E-02  0.1469466E+00
          2   -1    0    0  503    0 -0.00000000000E+00  0.00000000000E+00  0.10704503907E+02  0.10704503907E+02  0.00000000000E+00 0. -1.
         21   -1    0    0  501  502  0.00000000000E+00 -0.00000000000E+00 -0.23720938907E+03  0.23720938907E+03  0.00000000000E+00 0.  1.
         21    1    1    2  503  502 -0.86411074196E+01  0.23396154878E+02 -0.22096115708E+03  0.22236429961E+03  0.00000000000E+00 0.  1.
          2    1    1    2  501    0  0.86411074196E+01 -0.23396154878E+02 -0.55437280851E+01  0.25549593374E+02  0.00000000000E+00 0. -1.
</event>
<event>
 4    1  0.1635676E+006  0.3504168E+02  0.7546771E-02  0.1380270E+00
          1   -1    0    0  503    0 -0.00000000000E+00  0.00000000000E+00  0.36716022217E+03  0.36716022217E+03  0.00000000000E+00 0. -1.
         21   -1    0    0  501  502  0.00000000000E+00 -0.00000000000E+00 -0.41370474659E+01  0.41370474659E+01  0.00000000000E+00 0. -1.
         21    1    1    2  503  502 -0.13428106814E+02 -0.32366727677E+02  0.10024815693E+03  0.10619610200E+03  0.00000000000E+00 0. -1.
          1    1    1    2  501    0  0.13428106814E+02  0.32366727677E+02  0.26277501777E+03  0.26510116763E+03  0.00000000000E+00 0. -1.
</event>
<event>
 4    1  0.1635676E+006  0.1075962E+03  0.7546771E-02  0.1151258E+00
          2   -1    0    0  503    0 -0.00000000000E+00  0.00000000000E+00  0.17824433199E+04  0.17824433199E+04  0.00000000000E+00 0.  1.
         21   -1    0    0  501  502  0.00000000000E+00 -0.00000000000E+00 -0.67028426947E+01  0.67028426947E+01  0.00000000000E+00 0.  1.
         21    1    1    2  503  502 -0.96771283057E+02 -0.47034692298E+02  0.10454022617E+04  0.10509247510E+04  0.00000000000E+00 0.  1.
          2    1    1    2  501    0  0.96771283057E+02  0.47034692298E+02  0.73033821547E+03  0.73822141156E+03  0.00000000000E+00 0.  1.
</event>
<event>
 4    1  0.1635676E+006  0.2181966E+02  0.7546771E-02  0.1507877E+00
          2   -1    0    0  503    0 -0.00000000000E+00  0.00000000000E+00  0.88096333325E+03  0.88096333325E+03  0.00000000000E+00 0. -1.
         21   -1    0    0  501  502  0.00000000000E+00 -0.00000000000E+00 -0.85323798874E+00  0.85323798874E+00  0.00000000000E+00 0. -1.
         21    1    1    2  503  502  0.98667314789E+01  0.19461372262E+02  0.17309064357E+03  0.17446050639E+03  0.00000000000E+00 0. -1.
          2    1    1    2  501    0 -0.98667314789E+01 -0.19461372262E+02  0.70701945170E+03  0.70735606485E+03  0.00000000000E+00 0. -1.
</event>
<event>
 4    1  0.1635676E+006  0.2387260E+02  0.7546771E-02  0.1481822E+00
          2   -1    0    0  502    0 -0.00000000000E+00  0.00000000000E+00  0.14033714608E+04  0.14033714608E+04  0.00000000000E+00 0. -1.
         21   -1    0    0  503  502  0.00000000000E+00 -0.00000000000E+00 -0.54018370370E+00  0.54018370370E+00  0.00000000000E+00 0. -1.
         21    1    1    2  503  501  0.19539807951E+02 -0.13714843702E+02  0.35168280391E+03  0.35249212133E+03  0.00000000000E+00 0. -1.
          2    1    1    2  501    0 -0.19539807951E+02  0.13714843702E+02  0.10511484732E+04  0.10514195232E+04  0.00000000000E+00 0. -1.
</event>
<event>
 4    1  0.1635676E+006  0.2541429E+02  0.7546771E-02  0.1464222E+00
         21   -1    0    0  501  502  0.00000000000E+00  0.00000000000E+00  0.44095464156E+01  0.44095464156E+01  0.00000000000E+00 0.  1.
          2   -1    0    0  503    0 -0.00000000000E+00 -0.00000000000E+00 -0.76125002239E+03  0.76125002239E+03  0.00000000000E+00 0. -1.
         21    1    1    2  503  502 -0.17971706659E+02 -0.17969523631E+02 -0.34387041724E+02  0.42759264006E+02  0.00000000000E+00 0.  1.
          2    1    1    2  501    0  0.17971706659E+02  0.17969523631E+02 -0.72245343425E+03  0.72290030480E+03  0.00000000000E+00 0. -1.
</event>
<event>
 4    1  0.1635676E+006  0.2863232E+02  0.7546771E-02  0.1431866E+00
         21   -1    0    0  501  502  0.00000000000E+00  0.00000000000E+00  0.10663562459E+02  0.10663562459E+02  0.00000000000E+00 0. -1.
          1   -1    0    0  503    0 -0.00000000000E+00 -0.00000000000E+00 -0.51849825895E+03  0.51849825895E+03  0.00000000000E+00 0. -1.
         21    1    1    2  503  502 -0.55123556061E+01  0.28096682248E+02 -0.97381857004E+01  0.30243046778E+02  0.00000000000E+00 0. -1.
          1    1    1    2  501    0  0.55123556061E+01 -0.28096682248E+02 -0.49809651079E+03  0.49891877463E+03  0.00000000000E+00 0. -1.
</event>
<event>
 4    1  0.1635676E+006  0.2537439E+02  0.7546771E-02  0.1464658E+00
          1   -1    0    0  503    0 -0.00000000000E+00  0.00000000000E+00  0.38947240646E+02  0.38947240646E+02  0.00000000000E+00 0.  1.
         21   -1    0    0  501  502  0.00000000000E+00 -0.00000000000E+00 -0.12276131605E+04  0.12276131605E+04  0.00000000000E+00 0. -1.
         21    1    1    2  503  502 -0.19400614908E+02  0.16354695182E+02 -0.12233346893E+04  0.12235978187E+04  0.00000000000E+00 0. -1.
          1    1    1    2  501    0  0.19400614908E+02 -0.16354695182E+02  0.34668769454E+02  0.42962582427E+02  0.00000000000E+00 0.  1.
</event>
<event>
 4    1  0.1635676E+006  0.2483228E+02  0.7546771E-02  0.1470688E+00
         21   -1    0    0  503  502  0.00000000000E+00  0.00000000000E+00  0.35012709088E+01  0.35012709088E+01  0.00000000000E+00 0.  1.
          2   -1    0    0  502    0 -0.00000000000E+00 -0.00000000000E+00 -0.25328636869E+03  0.25328636869E+03  0.00000000000E+00 0.  1.
         21    1    1    2  503  501  0.24814262103E+02 -0.94572764671E+00 -0.54023972011E+02  0.59457813249E+02  0.00000000000E+00 0.  1.
          2    1    1    2  501    0 -0.24814262103E+02  0.94572764671E+00 -0.19576112577E+03  0.19732982635E+03  0.00000000000E+00 0.  1.
</event>
<event>
 4    1  0.1635676E+006  0.7615224E+02  0.7546771E-02  0.1213073E+00
          2   -1    0    0  502    0 -0.00000000000E+00  0.00000000000E+00  0.80104643733E+03  0.80104643733E+03  0.00000000000E+00 0. -1.
         21   -1    0    0  503  502  0.00000000000E+00 -0.00000000000E+00 -0.32581471118E+02  0.32581471118E+02  0.00000000000E+00 0.  1.
         21    1    1    2  503  501 -0.35114239483E+02 -0.67573327127E+02  0.16631027727E+02  0.77947132319E+02  0.00000000000E+00 0.  1.
          2    1    1    2  501    0  0.35114239483E+02  0.67573327127E+02  0.75183393849E+03  0.75568077613E+03  0.00000000000E+00 0. -1.
</event>
<event>
 4    1  0.1635676E+006  0.2866417E+02  0.7546771E-02  0.1431571E+00
         -2   -1    0    0    0  501 -0.00000000000E+00  0.00000000000E+00  0.23820936692E+02  0.23820936692E+02  0.00000000000E+00 0. -1.
         21   -1    0    0  501  502  0.00000000000E+00 -0.00000000000E+00 -0.38374073275E+02  0.38374073275E+02  0.00000000000E+00 0.  1.
         21    1    1    2  503  502 -0.33880325856E+00 -0.28662166952E+02 -0.17167376012E+02  0.33411875152E+02  0.00000000000E+00 0.  1.
         -2    1    1    2    0  503  0.33880325856E+00  0.28662166952E+02  0.26142394286E+01  0.28783134816E+02  0.00000000000E+00 0. -1.
</event>
<event>
 4    1  0.1635676E+006  0.2725980E+02  0.7546771E-02  0.1445016E+00
          2   -1    0    0  503    0 -0.00000000000E+00  0.00000000000E+00  0.94035962752E+03  0.94035962752E+03  0.00000000000E+00 0.  1.
         21   -1    0    0  501  502  0.00000000000E+00 -0.00000000000E+00 -0.76924550685E+01  0.76924550685E+01  0.00000000000E+00 0. -1.
         21    1    1    2  503  502 -0.24473545833E+02 -0.12005934875E+02  0.17314924377E+02  0.32294016846E+02  0.00000000000E+00 0. -1.
          2    1    1    2  501    0  0.24473545833E+02  0.12005934875E+02  0.91535224807E+03  0.91575806574E+03  0.00000000000E+00 0.  1.
</event>
<event>
 4    1  0.1635676E+006  0.3104749E+02  0.7546771E-02  0.1410707E+00
          1   -1    0    0  502    0 -0.00000000000E+00  0.00000000000E+00  0.71916404500E+03  0.71916404500E+03  0.00000000000E+00 0. -1.
         21   -1    0    0  503  502  0.00000000000E+00 -0.00000000000E+00 -0.37889480970E+01  0.37889480970E+01  0.00000000000E+00 0.  1.
         21    1    1    2  503  501 -0.22762428407E+02 -0.21114411554E+02  0.67099571697E+02  0.73934423946E+02  0.00000000000E+00 0.  1.
          1    1    1    2  501    0  0.22762428407E+02  0.21114411554E+02  0.64827552521E+03  0.64901856915E+03  0.00000000000E+00 0. -1.
</event>
<event>
 4    1  0.1635676E+006  0.2749524E+02  0.7546771E-02  0.1442696E+00
          3   -1    0    0  502    0 -0.00000000000E+00  0.00000000000E+00  0.39386308764E+01  0.39386308764E+01  0.00000000000E+00 0.  1.
         21   -1    0    0  503  502  0.00000000000E+00 -0.00000000000E+00 -0.46920446892E+03  0.46920446892E+03  0.00000000000E+00 0.  1.
         21    1    1    2  503  501  0.26204277406E+02 -0.83261194881E+01 -0.41448867077E+03  0.41539962279E+03  0.00000000000E+00 0.  1.
          3    1    1    2  501    0 -0.26204277406E+02  0.83261194881E+01 -0.50777167275E+02  0.57743477004E+02  0.00000000000E+00 0.  1.
</event>
<event>
 4    1  0.1635676E+006  0.2434275E+02  0.7546771E-02  0.1476292E+00
         21   -1    0    0  501  502  0.00000000000E+00  0.00000000000E+00  0.18755525691E+01  0.18755525691E+01  0.00000000000E+00 0.  1.
         -1   -1    0    0    0  501 -0.00000000000E+00 -0.00000000000E+00 -0.49712021726E+03  0.49712021726E+03  0.00000000000E+00 0.  1.
         21    1    1    2  503  502  0.20196118036E+02  0.13589930667E+02 -0.97000868025E+02  0.10000868861E+03  0.00000000000E+00 0.  1.
         -1    1    1    2    0  503 -0.20196118036E+02 -0.13589930667E+02 -0.39824379667E+03  0.39898708122E+03  0.00000000000E+00 0.  1.
</event>
<event>
 4    1  0.1635676E+006  0.2352604E+02  0.7546771E-02  0.1485996E+00
          2   -1    0    0  503    0 -0.00000000000E+00  0.00000000000E+00  0.54403432781E+02  0.54403432781E+02  0.00000000000E+00 0. -1.
         21   -1    0    0  501  502  0.00000000000E+00 -0.00000000000E+00 -0.10789972448E+02  0.10789972448E+02  0.00000000000E+00 0. -1.
         21    1    1    2  503  502  0.43615694194E+01  0.23118200839E+02  0.14015379808E+02  0.27384400103E+02  0.00000000000E+00 0. -1.
          2    1    1    2  501    0 -0.43615694194E+01 -0.23118200839E+02  0.29598080524E+02  0.37809005125E+02  0.00000000000E+00 0. -1.
</event>
<event>
 4    1  0.1635676E+006  0.3310928E+02  0.7546771E-02  0.1394366E+00
          1   -1    0    0  503    0 -0.00000000000E+00  0.00000000000E+00  0.13893879804E+03  0.13893879804E+03  0.00000000000E+00 0. -1.
         21   -1    0    0  501  502  0.00000000000E+00 -0.00000000000E+00 -0.82456994596E+01  0.82456994596E+01  0.00000000000E+00 0. -1.
         21    1    1    2  503  502 -0.14836764935E+02 -0.29598901819E+02  0.50061351630E+02  0.60019692682E+02  0.00000000000E+00 0. -1.
          1    1    1    2  501    0  0.14836764935E+02  0.29598901819E+02  0.80631746948E+02  0.87164804815E+02  0.00000000000E+00 0. -1.
</event>
<event>
 4    1  0.1635676E+006  0.2189988E+02  0.7546771E-02  0.1506794E+00
         21   -1    0    0  501  502  0.00000000000E+00  0.00000000000E+00  0.51927245396E+01  0.51927245396E+01  0.00000000000E+00 0.  1.
          1   -1    0    0  503    0 -0.00000000000E+00 -0.00000000000E+00 -0.14272465192E+03  0.14272465192E+03  0.00000000000E+00 0. -1.
         21    1    1    2  503  502 -0.21616637164E+02 -0.35108319393E+01 -0.24832185867E+02  0.33109551464E+02  0.00000000000E+00 0.  1.
          1    1    1    2  501    0  0.21616637164E+02  0.35108319393E+01 -0.11269974151E+03  0.11480782499E+03  0.00000000000E+00 0. -1.
</event>
<event>
 4    1  0.1635676E+006  0.2251518E+02  0.7546771E-02  0.1498677E+00
          2   -1    0    0  503    0 -0.00000000000E+00  0.00000000000E+00  0.60540749856E+03  0.60540749856E+03  0.00000000000E+00 0.  1.
         21   -1    0    0  501  502  0.00000000000E+00 -0.00000000000E+00 -0.22606022253E+01  0.22606022253E+01  0.00000000000E+00 0. -1.
         21    1    1    2  503  502 -0.17366987069E+02 -0.14329035014E+02  0.60490533290E+02  0.64544853412E+02  0.00000000000E+00 0. -1.
          2    1    1    2  501    0  0.17366987069E+02  0.14329035014E+02  0.54265636304E+03  0.54312324737E+03  0.00000000000E+00 0.  1.
</event>
<event>
 4    1  0.1635676E+006  0.3196471E+02  0.7546771E-02  0.1403258E+00
          2   -1    0    0  503    0 -0.00000000000E+00  0.00000000000E+00  0.18911170035E+04  0.18911170035E+04  0.00000000000E+00 0.  1.
         21   -1    0    0  501  502  0.00000000000E+00 -0.00000000000E+00 -0.11958515503E+01  0.11958515503E+01  0.00000000000E+00 0.  1.
         21    1    1    2  503  502 -0.14807569712E+02 -0.28328055244E+02  0.24442115081E+03  0.24650241743E+03  0.00000000000E+00 0.  1.
          2    1    1    2  501    0  0.14807569712E+02  0.28328055244E+02  0.16455000011E+04  0.16458104376E+04  0.00000000000E+00 0.  1.
</event>
<event>
 4    1  0.1635676E+006  0.2872857E+02  0.7546771E-02  0.1430976E+00
          2   -1    0    0  502    0 -0.00000000000E+00  0.00000000000E+00  0.22268327200E+02  0.22268327200E+02  0.00000000000E+00 0. -1.
         21   -1    0    0  503  502  0.00000000000E+00 -0.00000000000E+00 -0.67884614211E+02  0.67884614211E+02  0.00000000000E+00 0.  1.
         21    1    1    2  503  501  0.18812585808E+02  0.21712150291E+02 -0.53181442657E+02  0.60444989024E+02  0.00000000000E+00 0.  1.
          2    1    1    2  501    0 -0.18812585808E+02 -0.21712150291E+02  0.75651556460E+01  0.29707952386E+02  0.00000000000E+00 0. -1.
</event>
<event>
 4    1  0.1635676E+006  0.2483643E+02  0.7546771E-02  0.1470642E+00
         21   -1    0    0  503  502  0.00000000000E+00  0.00000000000E+00  0.10218865381E+02  0.10218865381E+02  0.00000000000E+00 0.  1.
          1   -1    0    0  502    0 -0.00000000000E+00 -0.00000000000E+00 -0.94017426419E+02  0.94017426419E+02  0.00000000000E+00 0. -1.
         21    1    1    2  503  501  0.12811614477E+02 -0.21276995971E+02 -0.10717445148E+02  0.27050169196E+02  0.00000000000E+00 0.  1.
          1    1    1    2  501    0 -0.12811614477E+02  0.21276995971E+02 -0.73081115889E+02  0.77186122604E+02  0.00000000000E+00 0. -1.
</event>
<event>
 4    1  0.1635676E+006  0.2049556E+02  0.7546771E-02  0.1526590E+00
         21   -1    0    0  503  502  0.00000000000E+00  0.00000000000E+00  0.13466309410E+02  0.13466309410E+02  0.00000000000E+00 0.  1.
         -3   -1    0    0    0  501 -0.00000000000E+00 -0.00000000000E+00 -0.11642279889E+03  0.11642279889E+03  0.00000000000E+00 0. -1.
         21    1    1    2  503  501  0.15465637535E+02  0.13449245974E+02  0.40887469962E+01  0.20899426155E+02  0.00000000000E+00 0.  1.
         -3    1    1    2    0  502 -0.15465637535E+02 -0.13449245974E+02 -0.10704523647E+03  0.10898968214E+03  0.00000000000E+00 0. -1.
</event>
<event>
 4    1  0.1635676E+006  0.2099650E+02  0.7546771E-02  0.1519315E+00
         21   -1    0    0  501  502  0.00000000000E+00  0.00000000000E+00  0.49073899555E+02  0.49073899555E+02  0.00000000000E+00 0. -1.
          3   -1    0    0  503    0 -0.00000000000E+00 -0.00000000000E+00 -0.15942445462E+02  0.15942445462E+02  0.00000000000E+00 0. -1.
         21    1    1    2  503  502  0.19375872161E+02 -0.80887834334E+01  0.38043458876E+02  0.43452935490E+02  0.00000000000E+00 0. -1.
          3    1    1    2  501    0 -0.19375872161E+02  0.80887834334E+01 -0.49120047833E+01  0.21563409527E+02  0.00000000000E+00 0. -1.
</event>
<event>
 4    1  0.1635676E+006  0.2611421E+02  0.7546771E-02  0.1456715E+00
          3   -1    0    0  502    0 -0.00000000000E+00  0.00000000000E+00  0.20503224879E+03  0.20503224879E+03  0.00000000000E+00 0. -1.
         21   -1    0    0  503  502  0.00000000000E+00 -0.00000000000E+00 -0.12449497927E+03  0.12449497927E+03  0.00000000000E+00 0. -1.
         21    1    1    2  503  501  0.99799600939E+01 -0.24131977201E+02 -0.12227912461E+03  0.12503653963E+03  0.00000000000E+00 0. -1.
          3    1    1    2  501    0 -0.99799600939E+01  0.24131977201E+02  0.20281639413E+03  0.20449068843E+03  0.00000000000E+00 0. -1.
</event>
<event>
 4    1  0.1635676E+006  0.2239075E+02  0.7546771E-02  0.1500294E+00
         21   -1    0    0  501  502  0.00000000000E+00  0.00000000000E+00  0.10904428200E+03  0.10904428200E+03  0.00000000000E+00 0. -1.
          4   -1    0    0  503    0 -0.00000000000E+00 -0.00000000000E+00 -0.70106222500E+01  0.70106222500E+01  0.00000000000E+00 0. -1.
         21    1    1    2  503  502 -0.13912909254E+01  0.22347479641E+02  0.16973427694E+02  0.28097024477E+02  0.00000000000E+00 0. -1.
          4    1    1    2  501    0  0.13912909254E+01 -0.22347479641E+02  0.85060232052E+02  0.87957879769E+02  0.00000000000E+00 0. -1.
</event>
<event>
 4    1  0.1635676E+006  0.2005235E+02  0.7546771E-02  0.1533237E+00
         21   -1    0    0  501  502  0.00000000000E+00  0.00000000000E+00  0.45162713823E+02  0.45162713823E+02  0.00000000000E+00 0. -1.
         -2   -1    0    0    0  501 -0.00000000000E+00 -0.00000000000E+00 -0.89097838967E+01  0.89097838967E+01  0.00000000000E+00 0.  1.
         21    1    1    2  503  502  0.18873500041E+02 -0.67740529938E+01  0.17396635218E+02  0.26546934186E+02  0.00000000000E+00 0. -1.
         -2    1    1    2    0  503 -0.18873500041E+02  0.67740529938E+01  0.18856294708E+02  0.27525563534E+02  0.00000000000E+00 0.  1.
</event>
<event>
 4    1  0.1635676E+006  0.2023667E+02  0.7546771E-02  0.1530448E+00
         21   -1    0    0  503  502  0.00000000000E+00  0.00000000000E+00  0.58191151028E+01  0.58191151028E+01  0.00000000000E+00 0.  1.
          2   -1    0    0  502    0 -0.00000000000E+00 -0.00000000000E+00 -0.11222509112E+03  0.11222509112E+03  0.00000000000E+00 0. -1.
         21    1    1    2  503  501  0.39987785242E+01 -0.19837652166E+02 -0.17160420673E+02  0.26533049407E+02  0.00000000000E+00 0.  1.
          2    1    1    2  501    0 -0.39987785242E+01  0.19837652166E+02 -0.89245555345E+02  0.91511156817E+02  0.00000000000E+00 0. -1.
</event>
<event>
 4    1  0.1635676E+006  0.3574399E+02  0.7546771E-02  0.1375407E+00
          2   -1    0    0  503    0 -0.00000000000E+00  0.00000000000E+00  0.17059108680E+02  0.17059108680E+02  0.00000000000E+00 0.  1.
         21   -1    0    0  501  502  0.00000000000E+00 -0.00000000000E+00 -0.77742565494E+02  0.77742565494E+02  0.00000000000E+00 0.  1.
         21    1    1    2  503  502 -0.10893705023E+01  0.35727383543E+02 -0.39414394443E+02  0.53208337244E+02  0.00000000000E+00 0.  1.
          2    1    1    2  501    0  0.10893705023E+01 -0.35727383543E+02 -0.21269062370E+02  0.41593336931E+02  0.00000000000E+00 0.  1.
</event>
<event>
 4    1  0.1635676E+006  0.2351260E+02  0.7546771E-02  0.1486160E+00
          1   -1    0    0  503    0 -0.00000000000E+00  0.00000000000E+00  0.36173663382E+02  0.36173663382E+02  0.00000000000E+00 0.  1.
         21   -1    0    0  501  502  0.00000000000E+00 -0.00000000000E+00 -0.39757467588E+02  0.39757467588E+02  0.00000000000E+00 0.  1.
         21    1    1    2  503  502  0.23374598781E+02  0.25436713611E+01 -0.31579613273E+02  0.39371488500E+02  0.00000000000E+00 0.  1.
          1    1    1    2  501    0 -0.23374598781E+02 -0.25436713611E+01  0.27995809068E+02  0.36559642470E+02  0.00000000000E+00 0.  1.
</event>
<event>
 4    1  0.1635676E+006  0.2142444E+02  0.7546771E-02  0.1513290E+00
          1   -1    0    0  502    0 -0.00000000000E+00  0.00000000000E+00  0.59024724175E+03  0.59024724175E+03  0.00000000000E+00 0.  1.
         21   -1    0    0  503  502  0.00000000000E+00 -0.00000000000E+00 -0.30619935973E+01  0.30619935973E+01  0.00000000000E+00 0.  1.
         21    1    1    2  503  501 -0.18432568906E+02  0.10920020477E+02  0.37362858594E+02  0.43069590734E+02  0.00000000000E+00 0.  1.
          1    1    1    2  501    0  0.18432568906E+02 -0.10920020477E+02  0.54982238956E+03  0.55023964461E+03  0.00000000000E+00 0.  1.
</event>
<event>
 4    1  0.1635676E+006  0.3002831E+02  0.7546771E-02  0.1419351E+00
         21   -1    0    0  501  502  0.00000000000E+00  0.00000000000E+00  0.10734161385E+02  0.10734161385E+02  0.00000000000E+00 0. -1.
          2   -1    0    0  503    0 -0.00000000000E+00 -0.00000000000E+00 -0.73125524024E+03  0.73125524024E+03  0.00000000000E+00 0. -1.
         21    1    1    2  503  502 -0.29762657777E+02 -0.39854517833E+01 -0.11224671557E+02  0.32057649250E+02  0.00000000000E+00 0. -1.
          2    1    1    2  501    0  0.29762657777E+02  0.39854517833E+01 -0.70929640730E+03  0.70993175237E+03  0.00000000000E+00 0. -1.
</event>
<event>
 4    1  0.1635676E+006  0.2622081E+02  0.7546771E-02  0.1455596E+00
         21   -1    0    0  501  502  0.00000000000E+00  0.00000000000E+00  0.13336722137E+01  0.13336722137E+01  0.00000000000E+00 0. -1.
          4   -1    0    0  503    0 -0.00000000000E+00 -0.00000000000E+00 -0.14761572063E+04  0.14761572063E+04  0.00000000000E+00 0. -1.
         21    1    1    2  503  502  0.26175317686E+02  0.15438930891E+01 -0.14146309098E+03  0.14387264150E+03  0.00000000000E+00 0. -1.
          4    1    1    2  501    0 -0.26175317686E+02 -0.15438930891E+01 -0.13333604431E+04  0.13336182370E+04  0.00000000000E+00 0. -1.
</event>
<event>
 4    1  0.1635676E+006  0.2895777E+02  0.7546771E-02  0.1428875E+00
          2   -1    0    0  502    0 -0.00000000000E+00  0.00000000000E+00  0.44487031161E+03  0.44487031161E+03  0.00000000000E+00 0. -1.
         21   -1    0    0  503  502  0.00000000000E+00 -0.00000000000E+00 -0.18273868331E+02  0.18273868331E+02  0.00000000000E+00 0.  1.
         21    1    1    2  503  501 -0.14860439858E+02  0.24853966217E+02 -0.60056471968E+01  0.29573976868E+02  0.00000000000E+00 0.  1.
          2    1    1    2  501    0  0.14860439858E+02 -0.24853966217E+02  0.43260209047E+03  0.43357020307E+03  0.00000000000E+00 0. -1.
</event>
<event>
 4    1  0.1635676E+006  0.2171615E+02  0.7546771E-02  0.1509281E+00
         21   -1    0    0  503  502  0.00000000000E+00  0.00000000000E+00  0.73209530191E+02  0.73209530191E+02  0.00000000000E+00 0.  1.
          2   -1    0    0  502    0 -0.00000000000E+00 -0.00000000000E+00 -0.70397778554E+01  0.70397778554E+01  0.00000000000E+00 0.  1.
         21    1    1    2  503  501 -0.11695569623E+01 -0.21684636807E+02  0.44780490835E+02  0.49768300115E+02  0.00000000000E+00 0.  1.
          2    1    1    2  501    0  0.11695569623E+01  0.21684636807E+02  0.21389261500E+02  0.30481007930E+02  0.00000000000E+00 0.  1.
</event>
<event>
 4    1  0.1635676E+006  0.4171604E+02  0.7546771E-02  0.1338713E+00
         21   -1    0    0  503  502  0.00000000000E+00  0.00000000000E+00  0.48448364713E+02  0.48448364713E+02  0.00000000000E+00 0.  1.
         -1   -1    0    0    0  501 -0.00000000000E+00 -0.00000000000E+00 -0.55878606480E+02  0.55878606480E+02  0.00000000000E+00 0.  1.
         21    1    1    2  503  501  0.77460813333E+00 -0.41708843643E+02  0.27460662290E+02  0.49943123943E+02  0.00000000000E+00 0.  1.
         -1    1    1    2    0  502 -0.77460813333E+00  0.41708843643E+02 -0.34890904057E+02  0.54383847250E+02  0.00000000000E+00 0.  1.
</event>
<event>
 4    1  0.1635676E+006  0.2955583E+02  0.7546771E-02  0.1423496E+00
         21   -1    0    0  503  502  0.00000000000E+00  0.00000000000E+00  0.20235934190E+01  0.20235934190E+01  0.00000000000E+00 0.  1.
          1   -1    0    0  502    0 -0.00000000000E+00 -0.00000000000E+00 -0.63064542914E+03  0.63064542914E+03  0.00000000000E+00 0. -1.
         21    1    1    2  503  501 -0.21968952854E+02 -0.19771502672E+02 -0.13662972317E+03  0.13978994406E+03  0.00000000000E+00 0.  1.
          1    1    1    2  501    0  0.21968952854E+02  0.19771502672E+02 -0.49199211255E+03  0.49287907849E+03  0.00000000000E+00 0. -1.
</event>
<event>
 4    1  0.1635676E+006  0.3947718E+02  0.7546771E-02  0.1351577E+00
         21   -1    0    0  501  502  0.00000000000E+00  0.00000000000E+00  0.32406896078E+03  0.32406896078E+03  0.00000000000E+00 0.  1.
          1   -1    0    0  503    0 -0.00000000000E+00 -0.00000000000E+00 -0.66406246499E+02  0.66406246499E+02  0.00000000000E+00 0. -1.
         21    1    1    2  503  502  0.37323669489E+02  0.12860462559E+02  0.31686677065E+03  0.31931645454E+03  0.00000000000E+00 0.  1.
          1    1    1    2  501    0 -0.37323669489E+02 -0.12860462559E+02 -0.59204056364E+02  0.71158752739E+02  0.00000000000E+00 0. -1.
</event>
<event>
 4    1  0.1635676E+006  0.2706478E+02  0.7546771E-02  0.1446958E+00
         -2   -1    0    0    0  501 -0.00000000000E+00  0.00000000000E+00  0.33183077775E+02  0.33183077775E+02  0.00000000000E+00 0. -1.
         21   -1    0    0  501  502  0.00000000000E+00 -0.00000000000E+00 -0.92799238561E+02  0.92799238561E+02  0.00000000000E+00 0.  1.
         21    1    1    2  503  502  0.23175817746E+02  0.13977970377E+02 -0.84799236037E+02  0.89013552993E+02  0.00000000000E+00 0.  1.
         -2    1    1    2    0  503 -0.23175817746E+02 -0.13977970377E+02  0.25183075251E+02  0.36968763343E+02  0.00000000000E+00 0. -1.
</event>
<event>
 4    1  0.1635676E+006  0.2219332E+02  0.7546771E-02  0.1502884E+00
         21   -1    0    0  501  502  0.00000000000E+00  0.00000000000E+00  0.27685721421E+03  0.27685721421E+03  0.00000000000E+00 0.  1.
         -2   -1    0    0    0  501 -0.00000000000E+00 -0.00000000000E+00 -0.15221677624E+02  0.15221677624E+02  0.00000000000E+00 0. -1.
         21    1    1    2  503  502  0.20526502673E+02 -0.84383766281E+01  0.26805784774E+03  0.26897500488E+03  0.00000000000E+00 0.  1.
         -2    1    1    2    0  503 -0.20526502673E+02  0.84383766281E+01 -0.64223111528E+01  0.23103886960E+02  0.00000000000E+00 0. -1.
</event>
<event>
 4    1  0.1635676E+006  0.2969211E+02  0.7546771E-02  0.1422291E+00
         21   -1    0    0  501  502  0.00000000000E+00  0.00000000000E+00  0.22329423595E+03  0.22329423595E+03  0.00000000000E+00 0. -1.
          1   -1    0    0  503    0 -0.00000000000E+00 -0.00000000000E+00 -0.28052095435E+02  0.28052095435E+02  0.00000000000E+00 0. -1.
         21    1    1    2  503  502  0.29307592744E+02 -0.47630198661E+01  0.21411494018E+03  0.21616389375E+03  0.00000000000E+00 0. -1.
          1    1    1    2  501    0 -0.29307592744E+02  0.47630198661E+01 -0.18872799669E+02  0.35182437636E+02  0.00000000000E+00 0. -1.
</event>
<event>
 4    1  0.1635676E+006  0.2303384E+02  0.7546771E-02  0.1492074E+00
         -3   -1    0    0    0  501 -0.00000000000E+00  0.00000000000E+00  0.60428182255E+02  0.60428182255E+02  0.00000000000E+00 0. -1.
         21   -1    0    0  503  502  0.00000000000E+00 -0.00000000000E+00 -0.10722473828E+02  0.10722473828E+02  0.00000000000E+00 0.  1.
         21    1    1    2  503  501  0.20773697185E+02  0.99504308598E+01  0.97108812797E+01  0.24997175525E+02  0.00000000000E+00 0.  1.
         -3    1    1    2    0  502 -0.20773697185E+02 -0.99504308598E+01  0.39994827147E+02  0.46153480557E+02  0.00000000000E+00 0. -1.
</event>
<event>
 4    1  0.1635676E+006  0.3128654E+02  0.7546771E-02  0.1408736E+00
         21   -1    0    0  501  502  0.00000000000E+00  0.00000000000E+00  0.10769156930E+02  0.10769156930E+02  0.00000000000E+00 0.  1.
          3   -1    0    0  503    0 -0.00000000000E+00 -0.00000000000E+00 -0.13932898323E+03  0.13932898323E+03  0.00000000000E+00 0. -1.
         21    1    1    2  503  502 -0.20789964148E+02 -0.23380017090E+02 -0.20030674854E+02  0.37149370702E+02  0.00000000000E+00 0.  1.
          3    1    1    2  501    0  0.20789964148E+02  0.23380017090E+02 -0.10852915145E+03  0.11294876946E+03  0.00000000000E+00 0. -1.
</event>
<event>
 4    1  0.1635676E+006  0.2198356E+02  0.7546771E-02  0.1505672E+00
         21   -1    0    0  501  502  0.00000000000E+00  0.00000000000E+00  0.95605858154E+03  0.95605858154E+03  0.00000000000E+00 0.  1.
          1   -1    0    0  503    0 -0.00000000000E+00 -0.00000000000E+00 -0.17933562795E+02  0.17933562795E+02  0.00000000000E+00 0.  1.
         21    1    1    2  503  502 -0.14235899655E+02 -0.16751597457E+02  0.94914610645E+03  0.94940065739E+03  0.00000000000E+00 0.  1.
          1    1    1    2  501    0  0.14235899655E+02  0.16751597457E+02 -0.11021087703E+02  0.24591486952E+02  0.00000000000E+00 0.  1.
</event>
<event>
 4    1  0.1635676E+006  0.4652978E+02  0.7546771E-02  0.1313962E+00
         21   -1    0    0  503  502  0.00000000000E+00  0.00000000000E+00  0.16043114515E+02  0.16043114515E+02  0.00000000000E+00 0.  1.
          2   -1    0    0  502    0 -0.00000000000E+00 -0.00000000000E+00 -0.25181453967E+03  0.25181453967E+03  0.00000000000E+00 0. -1.
         21    1    1    2  503  501  0.18661027720E+02  0.42623781314E+02 -0.26647921063E+02  0.53620260966E+02  0.00000000000E+00 0.  1.
          2    1    1    2  501    0 -0.18661027720E+02 -0.42623781314E+02 -0.20912350409E+03  0.21423739321E+03  0.00000000000E+00 0. -1.
</event>
<event>
 4    1  0.1635676E+006  0.2433645E+02  0.7546771E-02  0.1476365E+00
         21   -1    0    0  501  502  0.00000000000E+00  0.00000000000E+00  0.51484836121E+03  0.51484836121E+03  0.00000000000E+00 0.  1.
          1   -1    0    0  503    0 -0.00000000000E+00 -0.00000000000E+00 -0.53274107577E+02  0.53274107577E+02  0.00000000000E+00 0. -1.
         21    1    1    2  503  502  0.49893946965E+01 -0.23819505514E+02  0.51176471415E+03  0.51234303504E+03  0.00000000000E+00 0.  1.
          1    1    1    2  501    0 -0.49893946965E+01  0.23819505514E+02 -0.50190460518E+02  0.55779433749E+02  0.00000000000E+00 0. -1.
</event>
<event>
 4    1  0.1635676E+006  0.3583876E+02  0.7546771E-02  0.1374760E+00
          1   -1    0    0  503    0 -0.00000000000E+00  0.00000000000E+00  0.48232989735E+01  0.48232989735E+01  0.00000000000E+00 0. -1.
         21   -1    0    0  501  502  0.00000000000E+00 -0.00000000000E+00 -0.30585410808E+03  0.30585410808E+03  0.00000000000E+00 0. -1.
         21    1    1    2  503  502 -0.11776164976E+02 -0.33848764866E+02 -0.20638167706E+03  0.20947031668E+03  0.00000000000E+00 0. -1.
          1    1    1    2  501    0  0.11776164976E+02  0.33848764866E+02 -0.94649132051E+02  0.10120709038E+03  0.00000000000E+00 0. -1.
</event>
<event>
 4    1  0.1635676E+006  0.2681654E+02  0.7546771E-02  0.1449460E+00
         21   -1    0    0  501  502  0.00000000000E+00  0.00000000000E+00  0.54746363503E+02  0.54746363503E+02  0.00000000000E+00 0.  1.
         -2   -1    0    0    0  501 -0.00000000000E+00 -0.00000000000E+00 -0.31580228958E+02  0.31580228958E+02  0.00000000000E+00 0. -1.
         21    1    1    2  503  502 -0.17348291487E+02  0.20449051254E+02  0.44569989917E+02  0.52015487270E+02  0.00000000000E+00 0.  1.
         -2    1    1    2    0  503  0.17348291487E+02 -0.20449051254E+02 -0.21403855372E+02  0.34311105192E+02  0.00000000000E+00 0. -1.
</event>
<event>
 4    1  0.1635676E+006  0.2132204E+02  0.7546771E-02  0.1514716E+00
         21   -1    0    0  503  502  0.00000000000E+00  0.00000000000E+00  0.29363503774E+01  0.29363503774E+01  0.00000000000E+00 0.  1.
          4   -1    0    0  502    0 -0.00000000000E+00 -0.00000000000E+00 -0.55435835343E+03  0.55435835343E+03  0.00000000000E+00 0. -1.
         21    1    1    2  503  501  0.20906563980E+02  0.41886814003E+01 -0.39154726786E+02  0.44583877119E+02  0.00000000000E+00 0.  1.
          4    1    1    2  501    0 -0.20906563980E+02 -0.41886814003E+01 -0.51226727627E+03  0.51271082669E+03  0.00000000000E+00 0. -1.
</event>
<event>
 4    1  0.1635676E+006  0.2713413E+02  0.7546771E-02  0.1446265E+00
         21   -1    0    0  503  502  0.00000000000E+00  0.00000000000E+00  0.41082592937E+03  0.41082592937E+03  0.00000000000E+00 0.  1.
          2   -1    0    0  502    0 -0.00000000000E+00 -0.00000000000E+00 -0.14104459846E+03  0.14104459846E+03  0.00000000000E+00 0. -1.
         21    1    1    2  503  501 -0.24888461575E+02 -0.10808579283E+02  0.40906727365E+03  0.40996621236E+03  0.00000000000E+00 0.  1.
          2    1    1    2  501    0  0.24888461575E+02  0.10808579283E+02 -0.13928594274E+03  0.14190431547E+03  0.00000000000E+00 0. -1.
</event>
<event>
 4    1  0.1635676E+006  0.2261739E+02  0.7546771E-02  0.1497359E+00
          3   -1    0    0  503    0 -0.00000000000E+00  0.00000000000E+00  0.20547887023E+03  0.20547887023E+03  0.00000000000E+00 0.  1.
         21   -1    0    0  501  502  0.00000000000E+00 -0.00000000000E+00 -0.13583419777E+02  0.13583419777E+02  0.00000000000E+00 0. -1.
         21    1    1    2  503  502 -0.16732121543E+02 -0.15217832339E+02 -0.30385408384E+01  0.22820583754E+02  0.00000000000E+00 0. -1.
          3    1    1    2  501    0  0.16732121543E+02  0.15217832339E+02  0.19493399130E+03  0.19624170626E+03  0.00000000000E+00 0.  1.
</event>
<event>
 4    1  0.1635676E+006  0.4123054E+02  0.7546771E-02  0.1341422E+00
          1   -1    0    0  503    0 -0.00000000000E+00  0.00000000000E+00  0.25599449578E+02  0.25599449578E+02  0.00000000000E+00 0.  1.
         21   -1    0    0  501  502  0.00000000000E+00 -0.00000000000E+00 -0.25566905174E+03  0.25566905174E+03  0.00000000000E+00 0.  1.
         21    1    1    2  503  502  0.32076041135E+02 -0.25905301703E+02 -0.23603468158E+03  0.23960869763E+03  0.00000000000E+00 0.  1.
          1    1    1    2  501    0 -0.32076041135E+02  0.25905301703E+02  0.59650794136E+01  0.41659803692E+02  0.00000000000E+00 0.  1.
</event>
<event>
 4    1  0.1635676E+006  0.4734462E+02  0.7546771E-02  0.1310115E+00
          2   -1    0    0  502    0 -0.00000000000E+00  0.00000000000E+00  0.19735646191E+04  0.19735646191E+04  0.00000000000E+00 0.  1.
         21   -1    0    0  503  502  0.00000000000E+00 -0.00000000000E+00 -0.22454845569E+02  0.22454845569E+02  0.00000000000E+00 0.  1.
         21    1    1    2  503  501  0.15509823524E+02  0.44732073418E+02  0.31123727982E+01  0.47446811089E+02  0.00000000000E+00 0.  1.
          2    1    1    2  501    0 -0.15509823524E+02 -0.44732073418E+02  0.19479974008E+04  0.19485726536E+04  0.00000000000E+00 0.  1.
</event>
<event>
 4    1  0.1635676E+006  0.3114942E+02  0.7546771E-02  0.1409864E+00
         21   -1    0    0  501  502  0.00000000000E+00  0.00000000000E+00  0.29168234086E+03  0.29168234086E+03  0.00000000000E+00 0. -1.
         -1   -1    0    0    0  501 -0.00000000000E+00 -0.00000000000E+00 -0.29002241226E+03  0.29002241226E+03  0.00000000000E+00 0. -1.
         21    1    1    2  503  502 -0.21757923132E+02 -0.22290789867E+02  0.29000951150E+03  0.29167756734E+03  0.00000000000E+00 0. -1.
         -1    1    1    2    0  503  0.21757923132E+02  0.22290789867E+02 -0.28834958289E+03  0.29002718577E+03  0.00000000000E+00 0. -1.
</event>
<event>
 4    1  0.1635676E+006  0.2373070E+02  0.7546771E-02  0.1483521E+00
          4   -1    0    0  503    0 -0.00000000000E+00  0.00000000000E+00  0.12171248989E+02  0.12171248989E+02  0.00000000000E+00 0. -1.
         21   -1    0    0  501  502  0.00000000000E+00 -0.00000000000E+00 -0.52801388720E+02  0.52801388720E+02  0.00000000000E+00 0.  1.
         21    1    1    2  503  502 -0.23224319585E+02  0.48761706611E+01 -0.31741978343E+02  0.39632048264E+02  0.00000000000E+00 0.  1.
          4    1    1    2  501    0  0.23224319585E+02 -0.48761706611E+01 -0.88881613884E+01  0.25340589444E+02  0.00000000000E+00 0. -1.
</event>
<event>
 4    1  0.1635676E+006  0.2407202E+02  0.7546771E-02  0.1479458E+00
         21   -1    0    0  503  502  0.00000000000E+00  0.00000000000E+00  0.72108891611E+01  0.72108891611E+01  0.00000000000E+00 0. -1.
         -3   -1    0    0    0  501 -0.00000000000E+00 -0.00000000000E+00 -0.99648535898E+02  0.99648535898E+02  0.00000000000E+00 0. -1.
         21    1    1    2  503  501 -0.20316842450E+02 -0.12910771021E+02 -0.22711415217E+02  0.33094870851E+02  0.00000000000E+00 0. -1.
         -3    1    1    2    0  502  0.20316842450E+02  0.12910771021E+02 -0.69726231520E+02  0.73764554208E+02  0.00000000000E+00 0. -1.
</event>
<event>
 4    1  0.1635676E+006  0.2247193E+02  0.7546771E-02  0.1499238E+00
         -2   -1    0    0    0  501 -0.00000000000E+00  0.00000000000E+00  0.93912024638E+03  0.93912024638E+03  0.00000000000E+00 0. -1.
         21   -1    0    0  501  502  0.00000000000E+00 -0.00000000000E+00 -0.28631776727E+01  0.28631776727E+01  0.00000000000E+00 0.  1.
         21    1    1    2  503  502  0.20619415271E+02 -0.89346204627E+01  0.43662505346E+02  0.49106029182E+02  0.00000000000E+00 0.  1.
         -2    1    1    2    0  503 -0.20619415271E+02  0.89346204627E+01  0.89259456336E+03  0.89287739487E+03  0.00000000000E+00 0. -1.
</event>
<event>
 4    1  0.1635676E+006  0.4095742E+02  0.7546771E-02  0.1342965E+00
         -1   -1    0    0    0  501 -0.00000000000E+00  0.00000000000E+00  0.16476416875E+02  0.16476416875E+02  0.00000000000E+00 0.  1.
         21   -1    0    0  501  502  0.00000000000E+00 -0.00000000000E+00 -0.19571959614E+03  0.19571959614E+03  0.00000000000E+00 0. -1.
         21    1    1    2  503  502 -0.29697980035E+02 -0.28205325531E+02 -0.16311333175E+03  0.16817689913E+03  0.00000000000E+00 0. -1.
         -1    1    1    2    0  503  0.29697980035E+02  0.28205325531E+02 -0.16129847516E+02  0.44019113887E+02  0.00000000000E+00 0.  1.
</event>
<event>
 4    1  0.1635676E+006  0.2855690E+02  0.7546771E-02  0.1432566E+00
          2   -1    0    0  503    0 -0.00000000000E+00  0.00000000000E+00  0.38602901475E+03  0.38602901475E+03  0.00000000000E+00 0. -1.
         21   -1    0    0  501  502  0.00000000000E+00 -0.00000000000E+00 -0.37544794968E+01  0.37544794968E+01  0.00000000000E+00 0. -1.
         21    1    1    2  503  502  0.28041144482E+02  0.54028629245E+01  0.62253306199E+02  0.68490662461E+02  0.00000000000E+00 0. -1.
          2    1    1    2  501    0 -0.28041144482E+02 -0.54028629245E+01  0.32002122905E+03  0.32129283179E+03  0.00000000000E+00 0. -1.
</event>
<event>
 4    1  0.1635676E+006  0.2069433E+02  0.7546771E-02  0.1523674E+00
         21   -1    0    0  503  502  0.00000000000E+00  0.00000000000E+00  0.72755051103E+02  0.72755051103E+02  0.00000000000E+00 0.  1.
          4   -1    0    0  502    0 -0.00000000000E+00 -0.00000000000E+00 -0.12591950444E+02  0.12591950444E+02  0.00000000000E+00 0.  1.
         21    1    1    2  503  501  0.84577042768E+01 -0.18887101001E+02  0.61222613205E+02  0.64625565479E+02  0.00000000000E+00 0.  1.
          4    1    1    2  501    0 -0.84577042768E+01  0.18887101001E+02 -0.10595125462E+01  0.20721436067E+02  0.00000000000E+00 0.  1.
</event>
<event>
 4    1  0.1635676E+006  0.2873490E+02  0.7546771E-02  0.1430918E+00
          2   -1    0    0  502    0 -0.00000000000E+00  0.00000000000E+00  0.73417111072E+03  0.73417111072E+03  0.00000000000E+00 0.  1.
         21   -1    0    0  503  502  0.00000000000E+00 -0.00000000000E+00 -0.33055109162E+01  0.33055109162E+01  0.00000000000E+00 0. -1.
         21    1    1    2  503  501 -0.28250207108E+02 -0.52555126075E+01  0.65922530350E+02  0.71912965605E+02  0.00000000000E+00 0. -1.
          2    1    1    2  501    0  0.28250207108E+02  0.52555126075E+01  0.66494306945E+03  0.66556365603E+03  0.00000000000E+00 0.  1.
</event>
<event>
 4    1  0.1635676E+006  0.2218813E+02  0.7546771E-02  0.1502952E+00
         21   -1    0    0  501  502  0.00000000000E+00  0.00000000000E+00  0.13293631589E+01  0.13293631589E+01  0.00000000000E+00 0.  1.
          2   -1    0    0  503    0 -0.00000000000E+00 -0.00000000000E+00 -0.12919136316E+04  0.12919136316E+04  0.00000000000E+00 0.  1.
         21    1    1    2  503  502  0.20620745113E+02  0.81913244081E+01 -0.99158371334E+02  0.10161050896E+03  0.00000000000E+00 0.  1.
          2    1    1    2  501    0 -0.20620745113E+02 -0.81913244081E+01 -0.11914258971E+04  0.11916324858E+04  0.00000000000E+00 0.  1.
</event>
<event>
 4    1  0.1635676E+006  0.2429512E+02  0.7546771E-02  0.1476846E+00
         21   -1    0    0  501  502  0.00000000000E+00  0.00000000000E+00  0.11535649765E+02  0.11535649765E+02  0.00000000000E+00 0.  1.
         -1   -1    0    0    0  501 -0.00000000000E+00 -0.00000000000E+00 -0.18539545521E+03  0.18539545521E+03  0.00000000000E+00 0. -1.
         21    1    1    2  503  502  0.49093518060E+01  0.23793927245E+02 -0.31468967585E+01  0.24498074784E+02  0.00000000000E+00 0.  1.
         -1    1    1    2    0  503 -0.49093518060E+01 -0.23793927245E+02 -0.17071290868E+03  0.17243303019E+03  0.00000000000E+00 0. -1.
</event>
<event>
 4    1  0.1635676E+006  0.4251507E+02  0.7546771E-02  0.1334346E+00
         21   -1    0    0  501  502  0.00000000000E+00  0.00000000000E+00  0.25015983259E+03  0.25015983259E+03  0.00000000000E+00 0. -1.
          4   -1    0    0  503    0 -0.00000000000E+00 -0.00000000000E+00 -0.77466211524E+02  0.77466211524E+02  0.00000000000E+00 0.  1.
         21    1    1    2  503  502 -0.10012558291E+02  0.41319243722E+02  0.24233319721E+03  0.24603436689E+03  0.00000000000E+00 0. -1.
          4    1    1    2  501    0  0.10012558291E+02 -0.41319243722E+02 -0.69639576144E+02  0.81591677215E+02  0.00000000000E+00 0.  1.
</event>
<event>
 4    1  0.1635676E+006  0.2409099E+02  0.7546771E-02  0.1479235E+00
          1   -1    0    0  503    0 -0.00000000000E+00  0.00000000000E+00  0.11770169767E+04  0.11770169767E+04  0.00000000000E+00 0.  1.
         21   -1    0    0  501  502  0.00000000000E+00 -0.00000000000E+00 -0.90601665049E+00  0.90601665049E+00  0.00000000000E+00 0. -1.
         21    1    1    2  503  502 -0.15740764345E+02 -0.18237436420E+02  0.19044751973E+03  0.19196518830E+03  0.00000000000E+00 0. -1.
          1    1    1    2  501    0  0.15740764345E+02  0.18237436420E+02  0.98566344028E+03  0.98595780501E+03  0.00000000000E+00 0.  1.
</event>
<event>
 4    1  0.1635676E+006  0.2075627E+02  0.7546771E-02  0.1522773E+00
         21   -1    0    0  503  502  0.00000000000E+00  0.00000000000E+00  0.93682829281E+02  0.93682829281E+02  0.00000000000E+00 0. -1.
          3   -1    0    0  502    0 -0.00000000000E+00 -0.00000000000E+00 -0.21835902760E+02  0.21835902760E+02  0.00000000000E+00 0.  1.
         21    1    1    2  503  501  0.31799467839E+01 -0.20511230748E+02  0.87241469700E+02  0.89676622839E+02  0.00000000000E+00 0. -1.
          3    1    1    2  501    0 -0.31799467839E+01  0.20511230748E+02 -0.15394543179E+02  0.25842109202E+02  0.00000000000E+00 0.  1.
</event>
<event>
 4    1  0.1635676E+006  0.2383686E+02  0.7546771E-02  0.1482249E+00
          3   -1    0    0  503    0 -0.00000000000E+00  0.00000000000E+00  0.19131555133E+02  0.19131555133E+02  0.00000000000E+00 0.  1.
         21   -1    0    0  501  502  0.00000000000E+00 -0.00000000000E+00 -0.39225630712E+02  0.39225630712E+02  0.00000000000E+00 0.  1.
         21    1    1    2  503  502  0.11121419965E+02  0.21083406507E+02 -0.24426398011E+02  0.34129824667E+02  0.00000000000E+00 0.  1.
          3    1    1    2  501    0 -0.11121419965E+02 -0.21083406507E+02  0.43323224327E+01  0.24227361178E+02  0.00000000000E+00 0.  1.
</event>
<event>
 4    1  0.1635676E+006  0.2678019E+02  0.7546771E-02  0.1449829E+00
         21   -1    0    0  503  502  0.00000000000E+00  0.00000000000E+00  0.18891264174E+03  0.18891264174E+03  0.00000000000E+00 0.  1.
          3   -1    0    0  502    0 -0.00000000000E+00 -0.00000000000E+00 -0.48770646192E+02  0.48770646192E+02  0.00000000000E+00 0.  1.
         21    1    1    2  503  501 -0.25966941490E+02 -0.65495583950E+01  0.18419357670E+03  0.18613020299E+03  0.00000000000E+00 0.  1.
          3    1    1    2  501    0  0.25966941490E+02  0.65495583950E+01 -0.44051581152E+02  0.51553084947E+02  0.00000000000E+00 0.  1.
</event>
<event>
 4    1  0.1635676E+006  0.2686251E+02  0.7546771E-02  0.1448994E+00
         21   -1    0    0  501  502  0.00000000000E+00  0.00000000000E+00  0.86161413477E+02  0.86161413477E+02  0.00000000000E+00 0.  1.
         -4   -1    0    0    0  501 -0.00000000000E+00 -0.00000000000E+00 -0.11344642841E+02  0.11344642841E+02  0.00000000000E+00 0.  1.
         21    1    1    2  503  502 -0.19708096086E+02 -0.18253360761E+02  0.62352307791E+02  0.67892595452E+02  0.00000000000E+00 0.  1.
         -4    1    1    2    0  503  0.19708096086E+02  0.18253360761E+02  0.12464462846E+02  0.29613460866E+02  0.00000000000E+00 0.  1.
</event>
<event>
 4    1  0.1635676E+006  0.2363846E+02  0.7546771E-02  0.1484633E+00
         -1   -1    0    0    0  501 -0.00000000000E+00  0.00000000000E+00  0.20954888795E+03  0.20954888795E+03  0.00000000000E+00 0. -1.
         21   -1    0    0  501  502  0.00000000000E+00 -0.00000000000E+00 -0.64913715848E+02  0.64913715848E+02  0.00000000000E+00 0. -1.
         21    1    1    2  503  502  0.72539726237E+00 -0.23627330817E+02 -0.62065517505E+02  0.66414647676E+02  0.00000000000E+00 0. -1.
         -1    1    1    2    0  503 -0.72539726237E+00  0.23627330817E+02  0.20670068961E+03  0.20804795612E+03  0.00000000000E+00 0. -1.
</event>
<event>
 4    1  0.1635676E+006  0.2237073E+02  0.7546771E-02  0.1500555E+00
         21   -1    0    0  501  502  0.00000000000E+00  0.00000000000E+00  0.12428106448E+01  0.12428106448E+01  0.00000000000E+00 0. -1.
         -3   -1    0    0    0  501 -0.00000000000E+00 -0.00000000000E+00 -0.40890803739E+03  0.40890803739E+03  0.00000000000E+00 0. -1.
         21    1    1    2  503  502  0.12544426135E+01  0.22335533685E+02 -0.17851486887E+03  0.17991111166E+03  0.00000000000E+00 0. -1.
         -3    1    1    2    0  503 -0.12544426135E+01 -0.22335533685E+02 -0.22915035787E+03  0.23023973637E+03  0.00000000000E+00 0. -1.
</event>
<event>
 4    1  0.1635676E+006  0.2370550E+02  0.7546771E-02  0.1483824E+00
         21   -1    0    0  501  502  0.00000000000E+00  0.00000000000E+00  0.21062110598E+02  0.21062110598E+02  0.00000000000E+00 0. -1.
          1   -1    0    0  503    0 -0.00000000000E+00 -0.00000000000E+00 -0.37090744061E+02  0.37090744061E+02  0.00000000000E+00 0. -1.
         21    1    1    2  503  502  0.11540399535E+02 -0.20706763376E+02  0.73897548406E+01  0.24830613113E+02  0.00000000000E+00 0. -1.
          1    1    1    2  501    0 -0.11540399535E+02  0.20706763376E+02 -0.23418388304E+02  0.33322241546E+02  0.00000000000E+00 0. -1.
</event>
<event>
 4    1  0.1635676E+006  0.2365639E+02  0.7546771E-02  0.1484416E+00
         21   -1    0    0  503  502  0.00000000000E+00  0.00000000000E+00  0.38733442544E+03  0.38733442544E+03  0.00000000000E+00 0. -1.
         -3   -1    0    0    0  501 -0.00000000000E+00 -0.00000000000E+00 -0.65362397792E+02  0.65362397792E+02  0.00000000000E+00 0.  1.
         21    1    1    2  503  501  0.23613764893E+02  0.14194669502E+01  0.38481877417E+03  0.38554521619E+03  0.00000000000E+00 0. -1.
         -3    1    1    2    0  502 -0.23613764893E+02 -0.14194669502E+01 -0.62846746523E+02  0.67151607035E+02  0.00000000000E+00 0.  1.
</event>
<event>
 4    1  0.1635676E+006  0.2029915E+02  0.7546771E-02  0.1529511E+00
         21   -1    0    0  503  502  0.00000000000E+00  0.00000000000E+00  0.15925862351E+03  0.15925862351E+03  0.00000000000E+00 0.  1.
         -2   -1    0    0    0  501 -0.00000000000E+00 -0.00000000000E+00 -0.30988334938E+02  0.30988334938E+02  0.00000000000E+00 0. -1.
         21    1    1    2  503  501  0.16175091058E+02  0.12264660377E+02  0.15520096769E+03  0.15652282848E+03  0.00000000000E+00 0.  1.
         -2    1    1    2    0  502 -0.16175091058E+02 -0.12264660377E+02 -0.26930679111E+02  0.33724129970E+02  0.00000000000E+00 0. -1.
</event>
<event>
 4    1  0.1635676E+006  0.2163257E+02  0.7546771E-02  0.1510422E+00
          2   -1    0    0  503    0 -0.00000000000E+00  0.00000000000E+00  0.13172042161E+03  0.13172042161E+03  0.00000000000E+00 0.  1.
         21   -1    0    0  501  502  0.00000000000E+00 -0.00000000000E+00 -0.43383632267E+01  0.43383632267E+01  0.00000000000E+00 0.  1.
         21    1    1    2  503  502  0.10663593868E+02 -0.18821686766E+02  0.34741507680E+02  0.40926036734E+02  0.00000000000E+00 0.  1.
          2    1    1    2  501    0 -0.10663593868E+02  0.18821686766E+02  0.92640550702E+02  0.95132748101E+02  0.00000000000E+00 0.  1.
</event>
<event>
 4    1  0.1635676E+006  0.3327786E+02  0.7546771E-02  0.1393092E+00
         21   -1    0    0  501  502  0.00000000000E+00  0.00000000000E+00  0.15938690922E+02  0.15938690922E+02  0.00000000000E+00 0. -1.
          2   -1    0    0  503    0 -0.00000000000E+00 -0.00000000000E+00 -0.24869682769E+03  0.24869682769E+03  0.00000000000E+00 0.  1.
         21    1    1    2  503  502 -0.33250584011E+02  0.13470718001E+01 -0.40550232879E+01  0.33524008611E+02  0.00000000000E+00 0. -1.
          2    1    1    2  501    0  0.33250584011E+02 -0.13470718001E+01 -0.22870311348E+03  0.23111151000E+03  0.00000000000E+00 0.  1.
</event>
<event>
 4    1  0.1635676E+006  0.2176069E+02  0.7546771E-02  0.1508675E+00
          1   -1    0    0  502    0 -0.00000000000E+00  0.00000000000E+00  0.26373853990E+03  0.26373853990E+03  0.00000000000E+00 0.  1.
         21   -1    0    0  503  502  0.00000000000E+00 -0.00000000000E+00 -0.66758825715E+01  0.66758825715E+01  0.00000000000E+00 0.  1.
         21    1    1    2  503  501 -0.12416036979E+02  0.17870913329E+02  0.12926764616E+02  0.25310645209E+02  0.00000000000E+00 0.  1.
          1    1    1    2  501    0  0.12416036979E+02 -0.17870913329E+02  0.24413589272E+03  0.24510377727E+03  0.00000000000E+00 0.  1.
</event>
<event>
 4    1  0.1635676E+006  0.2746250E+02  0.7546771E-02  0.1443017E+00
          2   -1    0    0  503    0 -0.00000000000E+00  0.00000000000E+00  0.20317662254E+04  0.20317662254E+04  0.00000000000E+00 0.  1.
         21   -1    0    0  501  502  0.00000000000E+00 -0.00000000000E+00 -0.25834704644E+01  0.25834704644E+01  0.00000000000E+00 0. -1.
         21    1    1    2  503  502 -0.46222341676E+01  0.27070719342E+02  0.73323788596E+02  0.78297936552E+02  0.00000000000E+00 0. -1.
          2    1    1    2  501    0  0.46222341676E+01 -0.27070719342E+02  0.19558589663E+04  0.19560517593E+04  0.00000000000E+00 0.  1.
</event>
<event>
 4    1  0.1635676E+006  0.3037220E+02  0.7546771E-02  0.1416389E+00
         21   -1    0    0  503  502  0.00000000000E+00  0.00000000000E+00  0.25080375672E+02  0.25080375672E+02  0.00000000000E+00 0.  1.
         -3   -1    0    0    0  501 -0.00000000000E+00 -0.00000000000E+00 -0.37006327645E+02  0.37006327645E+02  0.00000000000E+00 0. -1.
         21    1    1    2  503  501  0.15951876618E+02 -0.25845848884E+02 -0.35382588630E+01  0.30577598793E+02  0.00000000000E+00 0.  1.
         -3    1    1    2    0  502 -0.15951876618E+02  0.25845848884E+02 -0.83876931100E+01  0.31509104524E+02  0.00000000000E+00 0. -1.
</event>
<event>
 4    1  0.1635676E+006  0.2280586E+02  0.7546771E-02  0.1494950E+00
         21   -1    0    0  501  502  0.00000000000E+00  0.00000000000E+00  0.38539023935E+02  0.38539023935E+02  0.00000000000E+00 0. -1.
          4   -1    0    0  503    0 -0.00000000000E+00 -0.00000000000E+00 -0.90408554734E+02  0.90408554734E+02  0.00000000000E+00 0. -1.
         21    1    1    2  503  502 -0.98683279784E+01 -0.20560240035E+02  0.33532527930E+02  0.40552901213E+02  0.00000000000E+00 0. -1.
          4    1    1    2  501    0  0.98683279784E+01  0.20560240035E+02 -0.85402058729E+02  0.88394677456E+02  0.00000000000E+00 0. -1.
</event>
<event>
 4    1  0.1635676E+006  0.2728138E+02  0.7546771E-02  0.1444802E+00
         21   -1    0    0  501  502  0.00000000000E+00  0.00000000000E+00  0.18850481042E+01  0.18850481042E+01  0.00000000000E+00 0. -1.
          2   -1    0    0  503    0 -0.00000000000E+00 -0.00000000000E+00 -0.51847675581E+03  0.51847675581E+03  0.00000000000E+00 0. -1.
         21    1    1    2  503  502 -0.23490931273E+02 -0.13872636441E+02 -0.38535379258E+03  0.38631828762E+03  0.00000000000E+00 0. -1.
          2    1    1    2  501    0  0.23490931273E+02  0.13872636441E+02 -0.13123791512E+03  0.13404351629E+03  0.00000000000E+00 0. -1.
</event>
<event>
 4    1  0.1635676E+006  0.2006072E+02  0.7546771E-02  0.1533109E+00
         -3   -1    0    0    0  501 -0.00000000000E+00  0.00000000000E+00  0.56097401989E+03  0.56097401989E+03  0.00000000000E+00 0.  1.
         21   -1    0    0  503  502  0.00000000000E+00 -0.00000000000E+00 -0.34798269836E+02  0.34798269836E+02  0.00000000000E+00 0.  1.
         21    1    1    2  503  501 -0.17348647296E+02 -0.10072587911E+02 -0.31711751575E+02  0.37524229215E+02  0.00000000000E+00 0.  1.
         -3    1    1    2    0  502  0.17348647296E+02  0.10072587911E+02  0.55788750163E+03  0.55824806051E+03  0.00000000000E+00 0.  1.
</event>
<event>
 4    1  0.1635676E+006  0.3372122E+02  0.7546771E-02  0.1389783E+00
         21   -1    0    0  501  502  0.00000000000E+00  0.00000000000E+00  0.36492456619E+01  0.36492456619E+01  0.00000000000E+00 0. -1.
          2   -1    0    0  503    0 -0.00000000000E+00 -0.00000000000E+00 -0.36757633678E+03  0.36757633678E+03  0.00000000000E+00 0.  1.
         21    1    1    2  503  502 -0.27789021183E+02 -0.19102120659E+02 -0.10953335832E+03  0.11460661978E+03  0.00000000000E+00 0. -1.
          2    1    1    2  501    0  0.27789021183E+02  0.19102120659E+02 -0.25439373280E+03  0.25661896267E+03  0.00000000000E+00 0.  1.
</event>
<event>
 4    1  0.1635676E+006  0.2235360E+02  0.7546771E-02  0.1500779E+00
         21   -1    0    0  503  502  0.00000000000E+00  0.00000000000E+00  0.45662304071E+02  0.45662304071E+02  0.00000000000E+00 0.  1.
          1   -1    0    0  502    0 -0.00000000000E+00 -0.00000000000E+00 -0.15021213158E+04  0.15021213158E+04  0.00000000000E+00 0.  1.
         21    1    1    2  503  501  0.17110734468E+02  0.14384235045E+02  0.42838233635E+02  0.48319744545E+02  0.00000000000E+00 0.  1.
          1    1    1    2  501    0 -0.17110734468E+02 -0.14384235045E+02 -0.14992972454E+04  0.14994638753E+04  0.00000000000E+00 0.  1.
</event>
<event>
 4    1  0.1635676E+006  0.3483574E+02  0.7546771E-02  0.1381722E+00
          2   -1    0    0  502    0 -0.00000000000E+00  0.00000000000E+00  0.59619760738E+03  0.59619760738E+03  0.00000000000E+00 0.  1.
         21   -1    0    0  503  502  0.00000000000E+00 -0.00000000000E+00 -0.63365526454E+01  0.63365526454E+01  0.00000000000E+00 0. -1.
         21    1    1    2  503  501 -0.32051663286E+02 -0.13646232237E+02  0.46722857579E+02  0.58279963916E+02  0.00000000000E+00 0. -1.
          2    1    1    2  501    0  0.32051663286E+02  0.13646232237E+02  0.54313819715E+03  0.54425419611E+03  0.00000000000E+00 0.  1.
</event>
<event>
 4    1  0.1635676E+006  0.3013858E+02  0.7546771E-02  0.1418396E+00
         21   -1    0    0  501  502  0.00000000000E+00  0.00000000000E+00  0.88537235109E+01  0.88537235109E+01  0.00000000000E+00 0.  1.
          1   -1    0    0  503    0 -0.00000000000E+00 -0.00000000000E+00 -0.21694670900E+03  0.21694670900E+03  0.00000000000E+00 0.  1.
         21    1    1    2  503  502 -0.89306959959E+01  0.28785005926E+02 -0.22078831361E+02  0.37360523168E+02  0.00000000000E+00 0.  1.
          1    1    1    2  501    0  0.89306959959E+01 -0.28785005926E+02 -0.18601415413E+03  0.18843990935E+03  0.00000000000E+00 0.  1.
</event>
<event>
 4    1  0.1635676E+006  0.2308435E+02  0.7546771E-02  0.1491442E+00
         21   -1    0    0  503  502  0.00000000000E+00  0.00000000000E+00  0.36701180674E+02  0.36701180674E+02  0.00000000000E+00 0.  1.
          2   -1    0    0  502    0 -0.00000000000E+00 -0.00000000000E+00 -0.62740580931E+03  0.62740580931E+03  0.00000000000E+00 0.  1.
         21    1    1    2  503  501 -0.21401399113E+02 -0.86525794712E+01  0.32836448872E+02  0.40138751725E+02  0.00000000000E+00 0.  1.
          2    1    1    2  501    0  0.21401399113E+02  0.86525794712E+01 -0.62354107751E+03  0.62396823826E+03  0.00000000000E+00 0.  1.
</event>
<event>
 4    1  0.1635676E+006  0.3317963E+02  0.7546771E-02  0.1393833E+00
         21   -1    0    0  503  502  0.00000000000E+00  0.00000000000E+00  0.50687371393E+03  0.50687371393E+03  0.00000000000E+00 0. -1.
          1   -1    0    0  502    0 -0.00000000000E+00 -0.00000000000E+00 -0.40956838734E+01  0.40956838734E+01  0.00000000000E+00 0. -1.
         21    1    1    2  503  501 -0.18978646570E+02  0.27215787738E+02  0.42648564709E+03  0.42777435092E+03  0.00000000000E+00 0. -1.
          1    1    1    2  501    0  0.18978646570E+02 -0.27215787738E+02  0.76292382963E+02  0.83195046884E+02  0.00000000000E+00 0. -1.
</event>
<event>
 4    1  0.1635676E+006  0.2075837E+02  0.7546771E-02  0.1522743E+00
         -3   -1    0    0    0  501 -0.00000000000E+00  0.00000000000E+00  0.17873235283E+03  0.17873235283E+03  0.00000000000E+00 0.  1.
         21   -1    0    0  501  502  0.00000000000E+00 -0.00000000000E+00 -0.12478637118E+02  0.12478637118E+02  0.00000000000E+00 0.  1.
         21    1    1    2  503  502  0.19526576909E+02 -0.70443278518E+01 -0.27477438243E+01  0.20939433058E+02  0.00000000000E+00 0.  1.
         -3    1    1    2    0  503 -0.19526576909E+02  0.70443278518E+01  0.16900145954E+03  0.17027155689E+03  0.00000000000E+00 0.  1.
</event>
<event>
 4    1  0.1635676E+006  0.3062129E+02  0.7546771E-02  0.1414273E+00
         21   -1    0    0  503  502  0.00000000000E+00  0.00000000000E+00  0.38194727533E+03  0.38194727533E+03  0.00000000000E+00 0.  1.
         -2   -1    0    0    0  501 -0.00000000000E+00 -0.00000000000E+00 -0.54673554610E+01  0.54673554610E+01  0.00000000000E+00 0.  1.
         21    1    1    2  503  501  0.20131047583E+02  0.23073887975E+02  0.33202500498E+03  0.33343405243E+03  0.00000000000E+00 0.  1.
         -2    1    1    2    0  502 -0.20131047583E+02 -0.23073887975E+02  0.44454914884E+02  0.53980578363E+02  0.00000000000E+00 0.  1.
</event>
<event>
 4    1  0.1635676E+006  0.2330767E+02  0.7546771E-02  0.1488670E+00
          2   -1    0    0  503    0 -0.00000000000E+00  0.00000000000E+00  0.92359234651E+03  0.92359234651E+03  0.00000000000E+00 0. -1.
         21   -1    0    0  501  502  0.00000000000E+00 -0.00000000000E+00 -0.82000271107E+00  0.82000271107E+00  0.00000000000E+00 0. -1.
         21    1    1    2  503  502 -0.18527954687E+02 -0.14140807409E+02  0.21563422418E+03  0.21689021687E+03  0.00000000000E+00 0. -1.
          2    1    1    2  501    0  0.18527954687E+02  0.14140807409E+02  0.70713811962E+03  0.70752213235E+03  0.00000000000E+00 0. -1.
</event>
<event>
 4    1  0.1635676E+006  0.3256869E+02  0.7546771E-02  0.1398512E+00
         21   -1    0    0  503  502  0.00000000000E+00  0.00000000000E+00  0.12489468709E+03  0.12489468709E+03  0.00000000000E+00 0. -1.
          2   -1    0    0  502    0 -0.00000000000E+00 -0.00000000000E+00 -0.37113891296E+03  0.37113891296E+03  0.00000000000E+00 0.  1.
         21    1    1    2  503  501 -0.83067336817E+01  0.31491551132E+02  0.12204053326E+03  0.12631156469E+03  0.00000000000E+00 0. -1.
          2    1    1    2  501    0  0.83067336817E+01 -0.31491551132E+02 -0.36828475913E+03  0.36972203535E+03  0.00000000000E+00 0.  1.
</event>
<event>
 4    1  0.1635676E+006  0.2184109E+02  0.7546771E-02  0.1507587E+00
          2   -1    0    0  502    0 -0.00000000000E+00  0.00000000000E+00  0.20919508663E+03  0.20919508663E+03  0.00000000000E+00 0. -1.
         21   -1    0    0  503  502  0.00000000000E+00 -0.00000000000E+00 -0.25293867645E+01  0.25293867645E+01  0.00000000000E+00 0. -1.
         21    1    1    2  503  501  0.20291235110E+02  0.80807805699E+01  0.70113961534E+02  0.73437053582E+02  0.00000000000E+00 0. -1.
          2    1    1    2  501    0 -0.20291235110E+02 -0.80807805699E+01  0.13655173833E+03  0.13828741981E+03  0.00000000000E+00 0. -1.
</event>
<event>
 4    1  0.1635676E+006  0.2272509E+02  0.7546771E-02  0.1495979E+00
         21   -1    0    0  501  502  0.00000000000E+00  0.00000000000E+00  0.24744680065E+03  0.24744680065E+03  0.00000000000E+00 0.  1.
          1   -1    0    0  503    0 -0.00000000000E+00 -0.00000000000E+00 -0.27106032705E+01  0.27106032705E+01  0.00000000000E+00 0.  1.
         21    1    1    2  503  502  0.22333243499E+02 -0.42018950478E+01  0.18236005427E+03  0.18377056098E+03  0.00000000000E+00 0.  1.
          1    1    1    2  501    0 -0.22333243499E+02  0.42018950478E+01  0.62376143100E+02  0.66386842938E+02  0.00000000000E+00 0.  1.
</event>
<event>
 4    1  0.1635676E+006  0.2812993E+02  0.7546771E-02  0.1436576E+00
          3   -1    0    0  503    0 -0.00000000000E+00  0.00000000000E+00  0.25278650054E+03  0.25278650054E+03  0.00000000000E+00 0. -1.
         21   -1    0    0  501  502  0.00000000000E+00 -0.00000000000E+00 -0.79333224547E+01  0.79333224547E+01  0.00000000000E+00 0. -1.
         21    1    1    2  503  502  0.20864260121E+02  0.18867317226E+02  0.20994672870E+02  0.35100844700E+02  0.00000000000E+00 0. -1.
          3    1    1    2  501    0 -0.20864260121E+02 -0.18867317226E+02  0.22385850521E+03  0.22561897829E+03  0.00000000000E+00 0. -1.
</event>
<event>
 4    1  0.1635676E+006  0.2611265E+02  0.7546771E-02  0.1456731E+00
         21   -1    0    0  503  502  0.00000000000E+00  0.00000000000E+00  0.28317152201E+01  0.28317152201E+01  0.00000000000E+00 0. -1.
          4   -1    0    0  502    0 -0.00000000000E+00 -0.00000000000E+00 -0.24158562213E+03  0.24158562213E+03  0.00000000000E+00 0. -1.
         21    1    1    2  503  501 -0.21706579785E+02 -0.14515332175E+02 -0.12635625255E+03  0.12902624939E+03  0.00000000000E+00 0. -1.
          4    1    1    2  501    0  0.21706579785E+02  0.14515332175E+02 -0.11239765436E+03  0.11539108796E+03  0.00000000000E+00 0. -1.
</event>
<event>
 4    1  0.1635676E+006  0.2200539E+02  0.7546771E-02  0.1505380E+00
         -3   -1    0    0    0  501 -0.00000000000E+00  0.00000000000E+00  0.28626496450E+01  0.28626496450E+01  0.00000000000E+00 0. -1.
         21   -1    0    0  501  502  0.00000000000E+00 -0.00000000000E+00 -0.16921102200E+03  0.16921102200E+03  0.00000000000E+00 0. -1.
         21    1    1    2  503  502 -0.80430240816E+01 -0.20482849128E+02 -0.81637487835E+02  0.84551267080E+02  0.00000000000E+00 0. -1.
         -3    1    1    2    0  503  0.80430240816E+01  0.20482849128E+02 -0.84710884524E+02  0.87522404570E+02  0.00000000000E+00 0. -1.
</event>
<event>
 4    1  0.1635676E+006  0.4371173E+02  0.7546771E-02  0.1328008E+00
          2   -1    0    0  502    0 -0.00000000000E+00  0.00000000000E+00  0.25407085751E+03  0.25407085751E+03  0.00000000000E+00 0.  1.
         21   -1    0    0  503  502  0.00000000000E+00 -0.00000000000E+00 -0.30781424232E+02  0.30781424232E+02  0.00000000000E+00 0.  1.
         21    1    1    2  503  501  0.13684785604E+02 -0.41514356507E+02 -0.12166429445E+02  0.45373308879E+02  0.00000000000E+00 0.  1.
          2    1    1    2  501    0 -0.13684785604E+02  0.41514356507E+02  0.23545586272E+03  0.23947897286E+03  0.00000000000E+00 0.  1.
</event>
<event>
 4    1  0.1635676E+006  0.2864703E+02  0.7546771E-02  0.1431730E+00
          2   -1    0    0  503    0 -0.00000000000E+00  0.00000000000E+00  0.87825243490E+02  0.87825243490E+02  0.00000000000E+00 0.  1.
         21   -1    0    0  501  502  0.00000000000E+00 -0.00000000000E+00 -0.12681870000E+02  0.12681870000E+02  0.00000000000E+00 0.  1.
         21    1    1    2  503  502 -0.28014961279E+02  0.59845139388E+01  0.11790675480E+02  0.30978581162E+02  0.00000000000E+00 0.  1.
          2    1    1    2  501    0  0.28014961279E+02 -0.59845139388E+01  0.63352698010E+02  0.69528532328E+02  0.00000000000E+00 0.  1.
</event>
<event>
 4    1  0.1635676E+006  0.4099101E+02  0.7546771E-02  0.1342774E+00
         21   -1    0    0  501  502  0.00000000000E+00  0.00000000000E+00  0.37301015406E+03  0.37301015406E+03  0.00000000000E+00 0.  1.
          1   -1    0    0  503    0 -0.00000000000E+00 -0.00000000000E+00 -0.12117091983E+02  0.12117091983E+02  0.00000000000E+00 0.  1.
         21    1    1    2  503  502 -0.40495245219E+02 -0.63559725402E+01  0.33307598051E+03  0.33558884378E+03  0.00000000000E+00 0.  1.
          1    1    1    2  501    0  0.40495245219E+02  0.63559725402E+01  0.27817081560E+02  0.49538402263E+02  0.00000000000E+00 0.  1.
</event>
<event>
 4    1  0.1635676E+006  0.2260964E+02  0.7546771E-02  0.1497459E+00
          1   -1    0    0  503    0 -0.00000000000E+00  0.00000000000E+00  0.94757895181E+02  0.94757895181E+02  0.00000000000E+00 0. -1.
         21   -1    0    0  501  502  0.00000000000E+00 -0.00000000000E+00 -0.55350042625E+01  0.55350042625E+01  0.00000000000E+00 0.  1.
         21    1    1    2  503  502 -0.14107869072E+02  0.17668158285E+02  0.52593761541E+02  0.57247703360E+02  0.00000000000E+00 0.  1.
          1    1    1    2  501    0  0.14107869072E+02 -0.17668158285E+02  0.36629129377E+02  0.43045196083E+02  0.00000000000E+00 0. -1.
</event>
<event>
 4    1  0.1635676E+006  0.2949697E+02  0.7546771E-02  0.1424019E+00
         -1   -1    0    0    0  501 -0.00000000000E+00  0.00000000000E+00  0.13648115956E+03  0.13648115956E+03  0.00000000000E+00 0.  1.
         21   -1    0    0  501  502  0.00000000000E+00 -0.00000000000E+00 -0.15774970778E+03  0.15774970778E+03  0.00000000000E+00 0.  1.
         21    1    1    2  503  502  0.10700708258E+02  0.27487559470E+02 -0.15474641657E+03  0.15753261416E+03  0.00000000000E+00 0.  1.
         -1    1    1    2    0  503 -0.10700708258E+02 -0.27487559470E+02  0.13347786835E+03  0.13669825318E+03  0.00000000000E+00 0.  1.
</event>
<event>
 4    1  0.1635676E+006  0.2057560E+02  0.7546771E-02  0.1525411E+00
         21   -1    0    0  501  502  0.00000000000E+00  0.00000000000E+00  0.86580753660E+01  0.86580753660E+01  0.00000000000E+00 0. -1.
          2   -1    0    0  503    0 -0.00000000000E+00 -0.00000000000E+00 -0.11740494977E+03  0.11740494977E+03  0.00000000000E+00 0.  1.
         21    1    1    2  503  502 -0.13250809505E+02 -0.15740751313E+02 -0.62247403567E+01  0.21496571748E+02  0.00000000000E+00 0. -1.
          2    1    1    2  501    0  0.13250809505E+02  0.15740751313E+02 -0.10252213405E+03  0.10456645339E+03  0.00000000000E+00 0.  1.
</event>
<event>
 4    1  0.1635676E+006  0.2008354E+02  0.7546771E-02  0.1532762E+00
         -3   -1    0    0    0  501 -0.00000000000E+00  0.00000000000E+00  0.20675404751E+03  0.20675404751E+03  0.00000000000E+00 0. -1.
         21   -1    0    0  501  502  0.00000000000E+00 -0.00000000000E+00 -0.47184314822E+01  0.47184314822E+01  0.00000000000E+00 0. -1.
         21    1    1    2  503  502 -0.10465824719E+02 -0.17141039833E+02  0.20038463773E+02  0.28370561573E+02  0.00000000000E+00 0. -1.
         -3    1    1    2    0  503  0.10465824719E+02  0.17141039833E+02  0.18199715225E+03  0.18310191741E+03  0.00000000000E+00 0. -1.
</event>
<event>
 4    1  0.1635676E+006  0.2818979E+02  0.7546771E-02  0.1436009E+00
         21   -1    0    0  503  502  0.00000000000E+00  0.00000000000E+00  0.81858013990E+02  0.81858013990E+02  0.00000000000E+00 0. -1.
          1   -1    0    0  502    0 -0.00000000000E+00 -0.00000000000E+00 -0.26777826929E+02  0.26777826929E+02  0.00000000000E+00 0.  1.
         21    1    1    2  503  501  0.20464639846E+02  0.19387181817E+02  0.70908363218E+02  0.76306358039E+02  0.00000000000E+00 0. -1.
          1    1    1    2  501    0 -0.20464639846E+02 -0.19387181817E+02 -0.15828176158E+02  0.32329482880E+02  0.00000000000E+00 0.  1.
</event>
<event>
 4    1  0.1635676E+006  0.5672816E+02  0.7546771E-02  0.1271373E+00
         -3   -1    0    0    0  501 -0.00000000000E+00  0.00000000000E+00  0.20060077612E+02  0.20060077612E+02  0.00000000000E+00 0. -1.
         21   -1    0    0  503  502  0.00000000000E+00 -0.00000000000E+00 -0.33607641783E+03  0.33607641783E+03  0.00000000000E+00 0. -1.
         21    1    1    2  503  501 -0.48817678058E+02 -0.28894952783E+02 -0.28674316518E+03  0.29230074712E+03  0.00000000000E+00 0. -1.
         -3    1    1    2    0  502  0.48817678058E+02  0.28894952783E+02 -0.29273175036E+02  0.63835748323E+02  0.00000000000E+00 0. -1.
</event>
<event>
 4    1  0.1635676E+006  0.3016074E+02  0.7546771E-02  0.1418205E+00
         21   -1    0    0  501  502  0.00000000000E+00  0.00000000000E+00  0.18853241845E+02  0.18853241845E+02  0.00000000000E+00 0.  1.
         -1   -1    0    0    0  501 -0.00000000000E+00 -0.00000000000E+00 -0.51184921933E+02  0.51184921933E+02  0.00000000000E+00 0.  1.
         21    1    1    2  503  502 -0.11808621410E+02 -0.27752960306E+02 -0.77803892938E+01  0.31148110743E+02  0.00000000000E+00 0.  1.
         -1    1    1    2    0  503  0.11808621410E+02  0.27752960306E+02 -0.24551290795E+02  0.38890053034E+02  0.00000000000E+00 0.  1.
</event>
<event>
 4    1  0.1635676E+006  0.2022310E+02  0.7546771E-02  0.1530652E+00
         21   -1    0    0  501  502  0.00000000000E+00  0.00000000000E+00  0.76816493196E+00  0.76816493196E+00  0.00000000000E+00 0. -1.
          2   -1    0    0  503    0 -0.00000000000E+00 -0.00000000000E+00 -0.10112902356E+04  0.10112902356E+04  0.00000000000E+00 0.  1.
         21    1    1    2  503  502 -0.11451271597E+01 -0.20190650572E+02 -0.15704073781E+03  0.15833750983E+03  0.00000000000E+00 0. -1.
          2    1    1    2  501    0  0.11451271597E+01  0.20190650572E+02 -0.85348133288E+03  0.85372089072E+03  0.00000000000E+00 0.  1.
</event>
<event>
 4    1  0.1635676E+006  0.2026041E+02  0.7546771E-02  0.1530091E+00
          2   -1    0    0  502    0 -0.00000000000E+00  0.00000000000E+00  0.56484063664E+01  0.56484063664E+01  0.00000000000E+00 0.  1.
         21   -1    0    0  503  502  0.00000000000E+00 -0.00000000000E+00 -0.39419835285E+03  0.39419835285E+03  0.00000000000E+00 0. -1.
         21    1    1    2  503  501 -0.17729886584E+02 -0.98048680127E+01 -0.37483186561E+03  0.37537902418E+03  0.00000000000E+00 0. -1.
          2    1    1    2  501    0  0.17729886584E+02  0.98048680127E+01 -0.13718080870E+02  0.24467735036E+02  0.00000000000E+00 0.  1.
</event>
<event>
 4    1  0.1635676E+006  0.2177896E+02  0.7546771E-02  0.1508428E+00
         -3   -1    0    0    0  501 -0.00000000000E+00  0.00000000000E+00  0.77577005433E+03  0.77577005433E+03  0.00000000000E+00 0.  1.
         21   -1    0    0  503  502  0.00000000000E+00 -0.00000000000E+00 -0.15018381694E+03  0.15018381694E+03  0.00000000000E+00 0.  1.
         21    1    1    2  503  501  0.85017994077E+01  0.20050992248E+02 -0.14924042972E+03  0.15082118136E+03  0.00000000000E+00 0.  1.
         -3    1    1    2    0  502 -0.85017994077E+01 -0.20050992248E+02  0.77482666712E+03  0.77513268991E+03  0.00000000000E+00 0.  1.
</event>
<event>
 4    1  0.1635676E+006  0.2053437E+02  0.7546771E-02  0.1526018E+00
         21   -1    0    0  501  502  0.00000000000E+00  0.00000000000E+00  0.49314817090E+02  0.49314817090E+02  0.00000000000E+00 0.  1.
          1   -1    0    0  503    0 -0.00000000000E+00 -0.00000000000E+00 -0.10371469359E+02  0.10371469359E+02  0.00000000000E+00 0. -1.
         21    1    1    2  503  502 -0.77720381226E+00 -0.20519657883E+02  0.31976858157E+02  0.38002366545E+02  0.00000000000E+00 0.  1.
          1    1    1    2  501    0  0.77720381226E+00  0.20519657883E+02  0.69664895739E+01  0.21683919904E+02  0.00000000000E+00 0. -1.
</event>
<event>
 4    1  0.1635676E+006  0.2007048E+02  0.7546771E-02  0.1532961E+00
         -3   -1    0    0    0  501 -0.00000000000E+00  0.00000000000E+00  0.19043282278E+03  0.19043282278E+03  0.00000000000E+00 0. -1.
         21   -1    0    0  503  502  0.00000000000E+00 -0.00000000000E+00 -0.77846841308E+02  0.77846841308E+02  0.00000000000E+00 0.  1.
         21    1    1    2  503  501  0.18129620051E+02  0.86105176198E+01 -0.76011819588E+02  0.78616924729E+02  0.00000000000E+00 0.  1.
         -3    1    1    2    0  502 -0.18129620051E+02 -0.86105176198E+01  0.18859780106E+03  0.18966273936E+03  0.00000000000E+00 0. -1.
</event>
<event>
 4    1  0.1635676E+006  0.9827752E+02  0.7546771E-02  0.1166827E+00
         21   -1    0    0  501  502  0.00000000000E+00  0.00000000000E+00  0.26417500496E+03  0.26417500496E+03  0.00000000000E+00 0.  1.
          2   -1    0    0  503    0 -0.00000000000E+00 -0.00000000000E+00 -0.13495482948E+03  0.13495482948E+03  0.00000000000E+00 0. -1.
         21    1    1    2  503  502 -0.94829892165E+02 -0.25802387470E+02  0.23501188430E+03  0.25473330644E+03  0.00000000000E+00 0.  1.
          2    1    1    2  501    0  0.94829892165E+02  0.25802387470E+02 -0.10579170881E+03  0.14439652800E+03  0.00000000000E+00 0. -1.
</event>
<event>
 4    1  0.1635676E+006  0.2444956E+02  0.7546771E-02  0.1475056E+00
         21   -1    0    0  503  502  0.00000000000E+00  0.00000000000E+00  0.50308757883E+01  0.50308757883E+01  0.00000000000E+00 0.  1.
         -1   -1    0    0    0  501 -0.00000000000E+00 -0.00000000000E+00 -0.12405659282E+03  0.12405659282E+03  0.00000000000E+00 0.  1.
         21    1    1    2  503  501  0.22075773444E+02  0.10509097628E+02 -0.46255176013E+02  0.52319424825E+02  0.00000000000E+00 0.  1.
         -1    1    1    2    0  502 -0.22075773444E+02 -0.10509097628E+02 -0.72770541023E+02  0.76768043787E+02  0.00000000000E+00 0.  1.
</event>
<event>
 4    1  0.1635676E+006  0.3751321E+02  0.7546771E-02  0.1363709E+00
          2   -1    0    0  503    0 -0.00000000000E+00  0.00000000000E+00  0.23391964634E+03  0.23391964634E+03  0.00000000000E+00 0.  1.
         21   -1    0    0  501  502  0.00000000000E+00 -0.00000000000E+00 -0.11212700006E+04  0.11212700006E+04  0.00000000000E+00 0.  1.
         21    1    1    2  503  502  0.18610225333E+02  0.32571461744E+02 -0.11194498168E+04  0.11200781817E+04  0.00000000000E+00 0.  1.
          2    1    1    2  501    0 -0.18610225333E+02 -0.32571461744E+02  0.23209946255E+03  0.23511146532E+03  0.00000000000E+00 0.  1.
</event>
<event>
 4    1  0.1635676E+006  0.3079157E+02  0.7546771E-02  0.1412840E+00
          2   -1    0    0  503    0 -0.00000000000E+00  0.00000000000E+00  0.12400333616E+03  0.12400333616E+03  0.00000000000E+00 0. -1.
         21   -1    0    0  501  502  0.00000000000E+00 -0.00000000000E+00 -0.89692979388E+01  0.89692979388E+01  0.00000000000E+00 0.  1.
         21    1    1    2  503  502  0.10462502507E+02  0.28959568736E+02  0.31978619190E+02  0.44393160119E+02  0.00000000000E+00 0.  1.
          2    1    1    2  501    0 -0.10462502507E+02 -0.28959568736E+02  0.83055419030E+02  0.88579473978E+02  0.00000000000E+00 0. -1.
</event>
<event>
 4    1  0.1635676E+006  0.3697119E+02  0.7546771E-02  0.1367211E+00
         21   -1    0    0  503  502  0.00000000000E+00  0.00000000000E+00  0.63409876687E+02  0.63409876687E+02  0.00000000000E+00 0. -1.
          3   -1    0    0  502    0 -0.00000000000E+00 -0.00000000000E+00 -0.33478983387E+02  0.33478983387E+02  0.00000000000E+00 0. -1.
         21    1    1    2  503  501 -0.14024256690E+02  0.34208021989E+02  0.43875486045E+02  0.57375315422E+02  0.00000000000E+00 0. -1.
          3    1    1    2  501    0  0.14024256690E+02 -0.34208021989E+02 -0.13944592745E+02  0.39513544652E+02  0.00000000000E+00 0. -1.
</event>
<event>
 4    1  0.1635676E+006  0.2075813E+02  0.7546771E-02  0.1522746E+00
         21   -1    0    0  501  502  0.00000000000E+00  0.00000000000E+00  0.20861318425E+02  0.20861318425E+02  0.00000000000E+00 0. -1.
         -4   -1    0    0    0  501 -0.00000000000E+00 -0.00000000000E+00 -0.46551403268E+02  0.46551403268E+02  0.00000000000E+00 0.  1.
         21    1    1    2  503  502 -0.83786352320E+01  0.18992060625E+02  0.12294735590E+02  0.24125928342E+02  0.00000000000E+00 0. -1.
         -4    1    1    2    0  503  0.83786352320E+01 -0.18992060625E+02 -0.37984820434E+02  0.43286793350E+02  0.00000000000E+00 0.  1.
</event>
<event>
 4    1  0.1635676E+006  0.3143269E+02  0.7546771E-02  0.1407542E+00
          2   -1    0    0  502    0 -0.00000000000E+00  0.00000000000E+00  0.91832544368E+03  0.91832544368E+03  0.00000000000E+00 0.  1.
         21   -1    0    0  503  502  0.00000000000E+00 -0.00000000000E+00 -0.14906197148E+02  0.14906197148E+02  0.00000000000E+00 0.  1.
         21    1    1    2  503  501 -0.31430727504E+02  0.35133302161E+00  0.22486433031E+01  0.31513020531E+02  0.00000000000E+00 0.  1.
          2    1    1    2  501    0  0.31430727504E+02 -0.35133302161E+00  0.90117060323E+03  0.90171862030E+03  0.00000000000E+00 0.  1.
</event>
<event>
 4    1  0.1635676E+006  0.6689766E+02  0.7546771E-02  0.1238041E+00
          2   -1    0    0  503    0 -0.00000000000E+00  0.00000000000E+00  0.18836283075E+03  0.18836283075E+03  0.00000000000E+00 0.  1.
         21   -1    0    0  501  502  0.00000000000E+00 -0.00000000000E+00 -0.54528018441E+02  0.54528018441E+02  0.00000000000E+00 0.  1.
         21    1    1    2  503  502  0.39336121283E+02  0.54110689662E+02 -0.24310707491E+02  0.71177999916E+02  0.00000000000E+00 0.  1.
          2    1    1    2  501    0 -0.39336121283E+02 -0.54110689662E+02  0.15814551980E+03  0.17171284928E+03  0.00000000000E+00 0.  1.
</event>
<event>
 4    1  0.1635676E+006  0.2161063E+02  0.7546771E-02  0.1510722E+00
          1   -1    0    0  502    0 -0.00000000000E+00  0.00000000000E+00  0.18646965174E+04  0.18646965174E+04  0.00000000000E+00 0.  1.
         21   -1    0    0  503  502  0.00000000000E+00 -0.00000000000E+00 -0.33818550513E+00  0.33818550513E+00  0.00000000000E+00 0. -1.
         21    1    1    2  503  501 -0.19204131160E+02  0.99106289977E+01  0.45721681841E+03  0.45772725313E+03  0.00000000000E+00 0. -1.
          1    1    1    2  501    0  0.19204131160E+02 -0.99106289977E+01  0.14071415135E+04  0.14073074498E+04  0.00000000000E+00 0.  1.
</event>
<event>
 4    1  0.1635676E+006  0.2647627E+02  0.7546771E-02  0.1452941E+00
         21   -1    0    0  501  502  0.00000000000E+00  0.00000000000E+00  0.16767615056E+01  0.16767615056E+01  0.00000000000E+00 0.  1.
          1   -1    0    0  503    0 -0.00000000000E+00 -0.00000000000E+00 -0.71548046040E+03  0.71548046040E+03  0.00000000000E+00 0.  1.
         21    1    1    2  503  502  0.15627315596E+02 -0.21372403531E+02 -0.12571217897E+03  0.12847001427E+03  0.00000000000E+00 0.  1.
          1    1    1    2  501    0 -0.15627315596E+02  0.21372403531E+02 -0.58809151993E+03  0.58868720764E+03  0.00000000000E+00 0.  1.
</event>
<event>
 4    1  0.1635676E+006  0.2279749E+02  0.7546771E-02  0.1495057E+00
          4   -1    0    0  503    0 -0.00000000000E+00  0.00000000000E+00  0.34272539469E+02  0.34272539469E+02  0.00000000000E+00 0.  1.
         21   -1    0    0  501  502  0.00000000000E+00 -0.00000000000E+00 -0.23501322166E+02  0.23501322166E+02  0.00000000000E+00 0.  1.
         21    1    1    2  503  502  0.11399927664E+02 -0.19742523391E+02 -0.11819435192E+02  0.25679264570E+02  0.00000000000E+00 0.  1.
          4    1    1    2  501    0 -0.11399927664E+02  0.19742523391E+02  0.22590652495E+02  0.32094597065E+02  0.00000000000E+00 0.  1.
</event>
<event>
 4    1  0.1635676E+006  0.6004511E+02  0.7546771E-02  0.1259679E+00
          1   -1    0    0  502    0 -0.00000000000E+00  0.00000000000E+00  0.10082782932E+04  0.10082782932E+04  0.00000000000E+00 0.  1.
         21   -1    0    0  503  502  0.00000000000E+00 -0.00000000000E+00 -0.28736039235E+02  0.28736039235E+02  0.00000000000E+00 0.  1.
         21    1    1    2  503  501 -0.59453442204E+02 -0.84085183714E+01  0.45959453508E+01  0.60220741317E+02  0.00000000000E+00 0.  1.
          1    1    1    2  501    0  0.59453442204E+02  0.84085183714E+01  0.97494630859E+03  0.97679359110E+03  0.00000000000E+00 0.  1.
</event>
<event>
 4    1  0.1635676E+006  0.2246423E+02  0.7546771E-02  0.1499338E+00
         21   -1    0    0  501  502  0.00000000000E+00  0.00000000000E+00  0.44389305996E+02  0.44389305996E+02  0.00000000000E+00 0.  1.
         -4   -1    0    0    0  501 -0.00000000000E+00 -0.00000000000E+00 -0.20808827606E+03  0.20808827606E+03  0.00000000000E+00 0.  1.
         21    1    1    2  503  502  0.20976738310E+02  0.80385378347E+01  0.40892455777E+02  0.46656559883E+02  0.00000000000E+00 0.  1.
         -4    1    1    2    0  503 -0.20976738310E+02 -0.80385378347E+01 -0.20459142584E+03  0.20582102217E+03  0.00000000000E+00 0.  1.
</event>
<event>
 4    1  0.1635676E+006  0.2172766E+02  0.7546771E-02  0.1509124E+00
         -4   -1    0    0    0  501 -0.00000000000E+00  0.00000000000E+00  0.16195660888E+02  0.16195660888E+02  0.00000000000E+00 0.  1.
         21   -1    0    0  503  502  0.00000000000E+00 -0.00000000000E+00 -0.48890404472E+02  0.48890404472E+02  0.00000000000E+00 0.  1.
         21    1    1    2  503  501  0.16100668356E+02  0.14589718799E+02 -0.37026510581E+02  0.42930803649E+02  0.00000000000E+00 0.  1.
         -4    1    1    2    0  502 -0.16100668356E+02 -0.14589718799E+02  0.43317669969E+01  0.22155261710E+02  0.00000000000E+00 0.  1.
</event>
<event>
 4    1  0.1635676E+006  0.2245814E+02  0.7546771E-02  0.1499417E+00
         -1   -1    0    0    0  501 -0.00000000000E+00  0.00000000000E+00  0.82783200833E+02  0.82783200833E+02  0.00000000000E+00 0.  1.
         21   -1    0    0  501  502  0.00000000000E+00 -0.00000000000E+00 -0.90385637697E+02  0.90385637697E+02  0.00000000000E+00 0.  1.
         21    1    1    2  503  502 -0.97725147991E+01  0.20220431212E+02 -0.87416526793E+02  0.90255288158E+02  0.00000000000E+00 0.  1.
         -1    1    1    2    0  503  0.97725147991E+01 -0.20220431212E+02  0.79814089930E+02  0.82913550372E+02  0.00000000000E+00 0.  1.
</event>
<event>
 4    1  0.1635676E+006  0.2382204E+02  0.7546771E-02  0.1482426E+00
         -1   -1    0    0    0  501 -0.00000000000E+00  0.00000000000E+00  0.76303437465E+02  0.76303437465E+02  0.00000000000E+00 0.  1.
         21   -1    0    0  501  502  0.00000000000E+00 -0.00000000000E+00 -0.35196537705E+03  0.35196537705E+03  0.00000000000E+00 0.  1.
         21    1    1    2  503  502 -0.64507167347E+01  0.22932022885E+02 -0.34969089343E+03  0.35050137000E+03  0.00000000000E+00 0.  1.
         -1    1    1    2    0  503  0.64507167347E+01 -0.22932022885E+02  0.74028953845E+02  0.77767444521E+02  0.00000000000E+00 0.  1.
</event>
<event>
 4    1  0.1635676E+006  0.2429694E+02  0.7546771E-02  0.1476824E+00
          1   -1    0    0  503    0 -0.00000000000E+00  0.00000000000E+00  0.64568457715E+03  0.64568457715E+03  0.00000000000E+00 0.  1.
         21   -1    0    0  501  502  0.00000000000E+00 -0.00000000000E+00 -0.94921649678E+00  0.94921649678E+00  0.00000000000E+00 0.  1.
         21    1    1    2  503  502  0.13668572452E+02 -0.20087588371E+02  0.26034631722E+03  0.26147762040E+03  0.00000000000E+00 0.  1.
          1    1    1    2  501    0 -0.13668572452E+02  0.20087588371E+02  0.38438904343E+03  0.38515617324E+03  0.00000000000E+00 0.  1.
</event>
<event>
 4    1  0.1635676E+006  0.2663690E+02  0.7546771E-02  0.1451290E+00
         21   -1    0    0  501  502  0.00000000000E+00  0.00000000000E+00  0.12006044669E+02  0.12006044669E+02  0.00000000000E+00 0. -1.
          1   -1    0    0  503    0 -0.00000000000E+00 -0.00000000000E+00 -0.37277316417E+03  0.37277316417E+03  0.00000000000E+00 0.  1.
         21    1    1    2  503  502  0.15865981884E+02  0.21396151320E+02 -0.39017933682E+01  0.26921156438E+02  0.00000000000E+00 0. -1.
          1    1    1    2  501    0 -0.15865981884E+02 -0.21396151320E+02 -0.35686532613E+03  0.35785805240E+03  0.00000000000E+00 0.  1.
</event>
<event>
 4    1  0.1635676E+006  0.2579024E+02  0.7546771E-02  0.1460154E+00
          3   -1    0    0  503    0 -0.00000000000E+00  0.00000000000E+00  0.15000436764E+03  0.15000436764E+03  0.00000000000E+00 0. -1.
         21   -1    0    0  501  502  0.00000000000E+00 -0.00000000000E+00 -0.92662460152E+01  0.92662460152E+01  0.00000000000E+00 0. -1.
         21    1    1    2  503  502 -0.19468693464E+02  0.16914686513E+02  0.12861746411E+02  0.28819458110E+02  0.00000000000E+00 0. -1.
          3    1    1    2  501    0  0.19468693464E+02 -0.16914686513E+02  0.12787637521E+03  0.13045115554E+03  0.00000000000E+00 0. -1.
</event>
<event>
 4    1  0.1635676E+006  0.4498955E+02  0.7546771E-02  0.1321492E+00
         21   -1    0    0  501  502  0.00000000000E+00  0.00000000000E+00  0.15050461743E+04  0.15050461743E+04  0.00000000000E+00 0.  1.
          2   -1    0    0  503    0 -0.00000000000E+00 -0.00000000000E+00 -0.27102121353E+01  0.27102121353E+01  0.00000000000E+00 0. -1.
         21    1    1    2  503  502 -0.32836350802E+02 -0.30754407968E+02  0.12862540648E+04  0.12870406283E+04  0.00000000000E+00 0.  1.
          2    1    1    2  501    0  0.32836350802E+02  0.30754407968E+02  0.21608189731E+03  0.22071575813E+03  0.00000000000E+00 0. -1.
</event>
<event>
 4    1  0.1635676E+006  0.2977336E+02  0.7546771E-02  0.1421576E+00
         -4   -1    0    0    0  501 -0.00000000000E+00  0.00000000000E+00  0.27659754047E+03  0.27659754047E+03  0.00000000000E+00 0.  1.
         21   -1    0    0  501  502  0.00000000000E+00 -0.00000000000E+00 -0.36877075347E+01  0.36877075347E+01  0.00000000000E+00 0. -1.
         21    1    1    2  503  502 -0.28392110976E+02  0.89633302639E+01  0.85743922682E+02  0.90766037327E+02  0.00000000000E+00 0. -1.
         -4    1    1    2    0  503  0.28392110976E+02 -0.89633302639E+01  0.18716591025E+03  0.18951921068E+03  0.00000000000E+00 0.  1.
</event>
<event>
 4    1  0.1635676E+006  0.2852452E+02  0.7546771E-02  0.1432867E+00
         21   -1    0    0  501  502  0.00000000000E+00  0.00000000000E+00  0.66950367356E+02  0.66950367356E+02  0.00000000000E+00 0. -1.
          1   -1    0    0  503    0 -0.00000000000E+00 -0.00000000000E+00 -0.12382584606E+02  0.12382584606E+02  0.00000000000E+00 0. -1.
         21    1    1    2  503  502  0.95263815136E+01 -0.26886733318E+02  0.32684981882E+02  0.43381521571E+02  0.00000000000E+00 0. -1.
          1    1    1    2  501    0 -0.95263815136E+01  0.26886733318E+02  0.21882800868E+02  0.35951430390E+02  0.00000000000E+00 0. -1.
</event>
<event>
 4    1  0.1635676E+006  0.2475466E+02  0.7546771E-02  0.1471567E+00
         21   -1    0    0  501  502  0.00000000000E+00  0.00000000000E+00  0.27206268462E+02  0.27206268462E+02  0.00000000000E+00 0. -1.
         -2   -1    0    0    0  501 -0.00000000000E+00 -0.00000000000E+00 -0.42571760969E+02  0.42571760969E+02  0.00000000000E+00 0. -1.
         21    1    1    2  503  502  0.21949805683E+02  0.11445485610E+02  0.16259295602E+02  0.29616849999E+02  0.00000000000E+00 0. -1.
         -2    1    1    2    0  503 -0.21949805683E+02 -0.11445485610E+02 -0.31624788110E+02  0.40161179432E+02  0.00000000000E+00 0. -1.
</event>
<event>
 4    1  0.1635676E+006  0.2010934E+02  0.7546771E-02  0.1532371E+00
          1   -1    0    0  502    0 -0.00000000000E+00  0.00000000000E+00  0.12705137601E+04  0.12705137601E+04  0.00000000000E+00 0. -1.
         21   -1    0    0  503  502  0.00000000000E+00 -0.00000000000E+00 -0.96027583293E+01  0.96027583293E+01  0.00000000000E+00 0.  1.
         21    1    1    2  503  501  0.11139758600E+02  0.16741904882E+02  0.10940468108E+01  0.20139079899E+02  0.00000000000E+00 0.  1.
          1    1    1    2  501    0 -0.11139758600E+02 -0.16741904882E+02  0.12598169549E+04  0.12599774385E+04  0.00000000000E+00 0. -1.
</event>
<event>
 4    1  0.1635676E+006  0.2506894E+02  0.7546771E-02  0.1468034E+00
          2   -1    0    0  502    0 -0.00000000000E+00  0.00000000000E+00  0.30503312455E+02  0.30503312455E+02  0.00000000000E+00 0.  1.
         21   -1    0    0  503  502  0.00000000000E+00 -0.00000000000E+00 -0.16503373105E+03  0.16503373105E+03  0.00000000000E+00 0. -1.
         21    1    1    2  503  501 -0.18918615247E+02 -0.16448029161E+02 -0.15872767236E+03  0.16069513260E+03  0.00000000000E+00 0. -1.
          2    1    1    2  501    0  0.18918615247E+02  0.16448029161E+02  0.24197253766E+02  0.34841910911E+02  0.00000000000E+00 0.  1.
</event>
<event>
 4    1  0.1635676E+006  0.2191070E+02  0.7546771E-02  0.1506649E+00
         21   -1    0    0  501  502  0.00000000000E+00  0.00000000000E+00  0.87574679803E+02  0.87574679803E+02  0.00000000000E+00 0. -1.
          2   -1    0    0  503    0 -0.00000000000E+00 -0.00000000000E+00 -0.55256587508E+01  0.55256587508E+01  0.00000000000E+00 0. -1.
         21    1    1    2  503  502  0.64016227517E+01  0.20954667776E+02  0.45165252046E+02  0.50199391110E+02  0.00000000000E+00 0. -1.
          2    1    1    2  501    0 -0.64016227517E+01 -0.20954667776E+02  0.36883769006E+02  0.42900947444E+02  0.00000000000E+00 0. -1.
</event>
<event>
 4    1  0.1635676E+006  0.2199691E+02  0.7546771E-02  0.1505493E+00
         21   -1    0    0  501  502  0.00000000000E+00  0.00000000000E+00  0.86569982540E+01  0.86569982540E+01  0.00000000000E+00 0.  1.
          2   -1    0    0  503    0 -0.00000000000E+00 -0.00000000000E+00 -0.87042076433E+03  0.87042076433E+03  0.00000000000E+00 0. -1.
         21    1    1    2  503  502  0.99339153248E+01  0.19626042004E+02 -0.56893133240E+01  0.22720750087E+02  0.00000000000E+00 0.  1.
          2    1    1    2  501    0 -0.99339153248E+01 -0.19626042004E+02 -0.85607445275E+03  0.85635701250E+03  0.00000000000E+00 0. -1.
</event>
<event>
 4    1  0.1635676E+006  0.2039813E+02  0.7546771E-02  0.1528034E+00
          1   -1    0    0  503    0 -0.00000000000E+00  0.00000000000E+00  0.95555110476E+03  0.95555110476E+03  0.00000000000E+00 0.  1.
         21   -1    0    0  501  502  0.00000000000E+00 -0.00000000000E+00 -0.22766941101E+01  0.22766941101E+01  0.00000000000E+00 0. -1.
         21    1    1    2  503  502 -0.70309513747E+01 -0.19148097070E+02  0.45949849763E+02  0.50273975294E+02  0.00000000000E+00 0. -1.
          1    1    1    2  501    0  0.70309513747E+01  0.19148097070E+02  0.90732456088E+03  0.90755382357E+03  0.00000000000E+00 0.  1.
</event>
<event>
 4    1  0.1635676E+006  0.3319288E+02  0.7546771E-02  0.1393733E+00
         21   -1    0    0  501  502  0.00000000000E+00  0.00000000000E+00  0.10773029942E+02  0.10773029942E+02  0.00000000000E+00 0.  1.
          1   -1    0    0  503    0 -0.00000000000E+00 -0.00000000000E+00 -0.15774575585E+03  0.15774575585E+03  0.00000000000E+00 0.  1.
         21    1    1    2  503  502 -0.27326033944E+02  0.18842908617E+02 -0.23518862743E+02  0.40680514266E+02  0.00000000000E+00 0.  1.
          1    1    1    2  501    0  0.27326033944E+02 -0.18842908617E+02 -0.12345386317E+03  0.12783827153E+03  0.00000000000E+00 0.  1.
</event>
<event>
 4    1  0.1635676E+006  0.2717296E+02  0.7546771E-02  0.1445878E+00
         -2   -1    0    0    0  501 -0.00000000000E+00  0.00000000000E+00  0.11696355833E+02  0.11696355833E+02  0.00000000000E+00 0. -1.
         21   -1    0    0  503  502  0.00000000000E+00 -0.00000000000E+00 -0.14246899250E+03  0.14246899250E+03  0.00000000000E+00 0. -1.
         21    1    1    2  503  501 -0.27044950407E+02  0.26344731645E+01 -0.12290976322E+03  0.12587763775E+03  0.00000000000E+00 0. -1.
         -2    1    1    2    0  502  0.27044950407E+02 -0.26344731645E+01 -0.78628734537E+01  0.28287710588E+02  0.00000000000E+00 0. -1.
</event>
<event>
 4    1  0.1635676E+006  0.2100945E+02  0.7546771E-02  0.1519130E+00
         21   -1    0    0  503  502  0.00000000000E+00  0.00000000000E+00  0.20057188170E+03  0.20057188170E+03  0.00000000000E+00 0. -1.
          2   -1    0    0  502    0 -0.00000000000E+00 -0.00000000000E+00 -0.96038034197E+02  0.96038034197E+02  0.00000000000E+00 0.  1.
         21    1    1    2  503  501 -0.12873409101E+02 -0.16603380652E+02  0.19886284554E+03  0.19996956831E+03  0.00000000000E+00 0. -1.
          2    1    1    2  501    0  0.12873409101E+02  0.16603380652E+02 -0.94328998041E+02  0.96640347590E+02  0.00000000000E+00 0.  1.
</event>
<event>
 4    1  0.1635676E+006  0.2215486E+02  0.7546771E-02  0.1503392E+00
         21   -1    0    0  501  502  0.00000000000E+00  0.00000000000E+00  0.10153899001E+03  0.10153899001E+03  0.00000000000E+00 0. -1.
          4   -1    0    0  503    0 -0.00000000000E+00 -0.00000000000E+00 -0.16694000762E+03  0.16694000762E+03  0.00000000000E+00 0.  1.
         21    1    1    2  503  502 -0.93672834222E+00  0.22135052536E+02  0.99581165111E+02  0.10201591276E+03  0.00000000000E+00 0. -1.
          4    1    1    2  501    0  0.93672834222E+00 -0.22135052536E+02 -0.16498218272E+03  0.16646308488E+03  0.00000000000E+00 0.  1.
</event>
<event>
 4    1  0.1635676E+006  0.2417615E+02  0.7546771E-02  0.1478235E+00
          1   -1    0    0  503    0 -0.00000000000E+00  0.00000000000E+00  0.11542025379E+04  0.11542025379E+04  0.00000000000E+00 0. -1.
         21   -1    0    0  501  502  0.00000000000E+00 -0.00000000000E+00 -0.35091364206E+02  0.35091364206E+02  0.00000000000E+00 0.  1.
         21    1    1    2  503  502 -0.12998545890E+02  0.20384402206E+02 -0.30785142061E+02  0.39143467147E+02  0.00000000000E+00 0.  1.
          1    1    1    2  501    0  0.12998545890E+02 -0.20384402206E+02  0.11498963158E+04  0.11501504350E+04  0.00000000000E+00 0. -1.
</event>
<event>
 4    1  0.1635676E+006  0.2253934E+02  0.7546771E-02  0.1498365E+00
         21   -1    0    0  503  502  0.00000000000E+00  0.00000000000E+00  0.16882132061E+03  0.16882132061E+03  0.00000000000E+00 0.  1.
         -2   -1    0    0    0  501 -0.00000000000E+00 -0.00000000000E+00 -0.43167230041E+02  0.43167230041E+02  0.00000000000E+00 0.  1.
         21    1    1    2  503  501 -0.21683975378E+02 -0.61503678101E+01  0.16506010735E+03  0.16659189912E+03  0.00000000000E+00 0.  1.
         -2    1    1    2    0  502  0.21683975378E+02  0.61503678101E+01 -0.39406016779E+02  0.45396651537E+02  0.00000000000E+00 0.  1.
</event>
<event>
 4    1  0.1635676E+006  0.2080344E+02  0.7546771E-02  0.1522090E+00
          2   -1    0    0  502    0 -0.00000000000E+00  0.00000000000E+00  0.67491274902E+03  0.67491274902E+03  0.00000000000E+00 0.  1.
         21   -1    0    0  503  502  0.00000000000E+00 -0.00000000000E+00 -0.28375022425E+01  0.28375022425E+01  0.00000000000E+00 0. -1.
         21    1    1    2  503  501  0.18836132723E+02  0.88308013678E+01  0.37902320711E+02  0.43236198538E+02  0.00000000000E+00 0. -1.
          2    1    1    2  501    0 -0.18836132723E+02 -0.88308013678E+01  0.63417292607E+03  0.63451405273E+03  0.00000000000E+00 0.  1.
</event>
<event>
 4    1  0.1635676E+006  0.2700327E+02  0.7546771E-02  0.1447575E+00
          2   -1    0    0  502    0 -0.00000000000E+00  0.00000000000E+00  0.31963716243E+03  0.31963716243E+03  0.00000000000E+00 0.  1.
         21   -1    0    0  503  502  0.00000000000E+00 -0.00000000000E+00 -0.45294653912E+02  0.45294653912E+02  0.00000000000E+00 0.  1.
         21    1    1    2  503  501  0.18391247009E+02 -0.19772171834E+02 -0.40640348151E+02  0.48793592237E+02  0.00000000000E+00 0.  1.
          2    1    1    2  501    0 -0.18391247009E+02  0.19772171834E+02  0.31498285666E+03  0.31613822410E+03  0.00000000000E+00 0.  1.
</event>
<event>
 4    1  0.1635676E+006  0.3288222E+02  0.7546771E-02  0.1396096E+00
         21   -1    0    0  501  502  0.00000000000E+00  0.00000000000E+00  0.18847987198E+01  0.18847987198E+01  0.00000000000E+00 0. -1.
          2   -1    0    0  503    0 -0.00000000000E+00 -0.00000000000E+00 -0.95397407371E+03  0.95397407371E+03  0.00000000000E+00 0. -1.
         21    1    1    2  503  502 -0.10713868103E+02  0.31087836698E+02 -0.17428260640E+03  0.17735745672E+03  0.00000000000E+00 0. -1.
          2    1    1    2  501    0  0.10713868103E+02 -0.31087836698E+02 -0.77780666859E+03  0.77850141571E+03  0.00000000000E+00 0. -1.
</event>
<event>
 4    1  0.1635676E+006  0.3286908E+02  0.7546771E-02  0.1396197E+00
          2   -1    0    0  502    0 -0.00000000000E+00  0.00000000000E+00  0.13898735026E+04  0.13898735026E+04  0.00000000000E+00 0.  1.
         21   -1    0    0  503  502  0.00000000000E+00 -0.00000000000E+00 -0.67726364045E+01  0.67726364045E+01  0.00000000000E+00 0. -1.
         21    1    1    2  503  501 -0.23433523583E+02 -0.23048787374E+02  0.34522915488E+02  0.47667686337E+02  0.00000000000E+00 0. -1.
          2    1    1    2  501    0  0.23433523583E+02  0.23048787374E+02  0.13485779507E+04  0.13489784526E+04  0.00000000000E+00 0.  1.
</event>
<event>
 4    1  0.1635676E+006  0.3001052E+02  0.7546771E-02  0.1419505E+00
         21   -1    0    0  501  502  0.00000000000E+00  0.00000000000E+00  0.10107106558E+03  0.10107106558E+03  0.00000000000E+00 0. -1.
          3   -1    0    0  503    0 -0.00000000000E+00 -0.00000000000E+00 -0.28111929655E+03  0.28111929655E+03  0.00000000000E+00 0.  1.
         21    1    1    2  503  502 -0.26713207872E+02  0.13676112148E+02  0.98018025033E+02  0.10250933982E+03  0.00000000000E+00 0. -1.
          3    1    1    2  501    0  0.26713207872E+02 -0.13676112148E+02 -0.27806625600E+03  0.27968102232E+03  0.00000000000E+00 0.  1.
</event>
<event>
 4    1  0.1635676E+006  0.5466248E+02  0.7546771E-02  0.1279132E+00
         21   -1    0    0  501  502  0.00000000000E+00  0.00000000000E+00  0.13593378579E+03  0.13593378579E+03  0.00000000000E+00 0. -1.
          1   -1    0    0  503    0 -0.00000000000E+00 -0.00000000000E+00 -0.31400534907E+02  0.31400534907E+02  0.00000000000E+00 0.  1.
         21    1    1    2  503  502 -0.52351728858E+02  0.15725258103E+02  0.98091016884E+02  0.11229352096E+03  0.00000000000E+00 0. -1.
          1    1    1    2  501    0  0.52351728858E+02 -0.15725258103E+02  0.64422340020E+01  0.55040799738E+02  0.00000000000E+00 0.  1.
</event>
<event>
 4    1  0.1635676E+006  0.3566667E+02  0.7546771E-02  0.1375936E+00
          2   -1    0    0  502    0 -0.00000000000E+00  0.00000000000E+00  0.14170741248E+04  0.14170741248E+04  0.00000000000E+00 0.  1.
         21   -1    0    0  503  502  0.00000000000E+00 -0.00000000000E+00 -0.42458734330E+02  0.42458734330E+02  0.00000000000E+00 0.  1.
         21    1    1    2  503  501 -0.12809019893E+02 -0.33287235182E+02 -0.34702815231E+02  0.49763404241E+02  0.00000000000E+00 0.  1.
          2    1    1    2  501    0  0.12809019893E+02  0.33287235182E+02  0.14093182057E+04  0.14097694549E+04  0.00000000000E+00 0.  1.
</event>
<event>
 4    1  0.1635676E+006  0.2262334E+02  0.7546771E-02  0.1497283E+00
          2   -1    0    0  503    0 -0.00000000000E+00  0.00000000000E+00  0.41378817546E+03  0.41378817546E+03  0.00000000000E+00 0.  1.
         21   -1    0    0  501  502  0.00000000000E+00 -0.00000000000E+00 -0.18825611281E+01  0.18825611281E+01  0.00000000000E+00 0. -1.
         21    1    1    2  503  502  0.14034286106E+02 -0.17744132460E+02  0.84237119144E+02  0.87222174159E+02  0.00000000000E+00 0. -1.
          2    1    1    2  501    0 -0.14034286106E+02  0.17744132460E+02  0.32766849518E+03  0.32844856242E+03  0.00000000000E+00 0.  1.
</event>
<event>
 4    1  0.1635676E+006  0.2292547E+02  0.7546771E-02  0.1493436E+00
         21   -1    0    0  501  502  0.00000000000E+00  0.00000000000E+00  0.60005608658E+03  0.60005608658E+03  0.00000000000E+00 0.  1.
         -1   -1    0    0    0  501 -0.00000000000E+00 -0.00000000000E+00 -0.37107133710E+01  0.37107133710E+01  0.00000000000E+00 0.  1.
         21    1    1    2  503  502  0.89450356393E+01  0.21108372431E+02  0.56203314098E+03  0.56250051432E+03  0.00000000000E+00 0.  1.
         -1    1    1    2    0  503 -0.89450356393E+01 -0.21108372431E+02  0.34312232223E+02  0.41266285627E+02  0.00000000000E+00 0.  1.
</event>
<event>
 4    1  0.1635676E+006  0.2854730E+02  0.7546771E-02  0.1432655E+00
         21   -1    0    0  501  502  0.00000000000E+00  0.00000000000E+00  0.50089870016E+01  0.50089870016E+01  0.00000000000E+00 0. -1.
          2   -1    0    0  503    0 -0.00000000000E+00 -0.00000000000E+00 -0.59661620367E+03  0.59661620367E+03  0.00000000000E+00 0.  1.
         21    1    1    2  503  502 -0.18133411755E+01  0.28489653925E+02 -0.39264968860E+02  0.48545714194E+02  0.00000000000E+00 0. -1.
          2    1    1    2  501    0  0.18133411755E+01 -0.28489653925E+02 -0.55234224781E+03  0.55307947648E+03  0.00000000000E+00 0.  1.
</event>
<event>
 4    1  0.1635676E+006  0.2205047E+02  0.7546771E-02  0.1504779E+00
         -2   -1    0    0    0  501 -0.00000000000E+00  0.00000000000E+00  0.85096209473E+02  0.85096209473E+02  0.00000000000E+00 0. -1.
         21   -1    0    0  503  502  0.00000000000E+00 -0.00000000000E+00 -0.10592541580E+03  0.10592541580E+03  0.00000000000E+00 0.  1.
         21    1    1    2  503  501 -0.11189617279E+02  0.19000407713E+02 -0.10331369662E+03  0.10564063110E+03  0.00000000000E+00 0.  1.
         -2    1    1    2    0  502  0.11189617279E+02 -0.19000407713E+02  0.82484490295E+02  0.85380994181E+02  0.00000000000E+00 0. -1.
</event>
<event>
 4    1  0.1635676E+006  0.2093319E+02  0.7546771E-02  0.1520221E+00
          2   -1    0    0  503    0 -0.00000000000E+00  0.00000000000E+00  0.68965751203E+03  0.68965751203E+03  0.00000000000E+00 0. -1.
         21   -1    0    0  501  502  0.00000000000E+00 -0.00000000000E+00 -0.30988163432E+01  0.30988163432E+01  0.00000000000E+00 0. -1.
         21    1    1    2  503  502  0.20673771401E+02 -0.32853837120E+01  0.34447023058E+02  0.40308757952E+02  0.00000000000E+00 0. -1.
          2    1    1    2  501    0 -0.20673771401E+02  0.32853837120E+01  0.65211167263E+03  0.65244757042E+03  0.00000000000E+00 0. -1.
</event>
<event>
 4    1  0.1635676E+006  0.2217166E+02  0.7546771E-02  0.1503170E+00
         -2   -1    0    0    0  501 -0.00000000000E+00  0.00000000000E+00  0.43666530231E+02  0.43666530231E+02  0.00000000000E+00 0. -1.
         21   -1    0    0  503  502  0.00000000000E+00 -0.00000000000E+00 -0.17874230706E+02  0.17874230706E+02  0.00000000000E+00 0. -1.
         21    1    1    2  503  501  0.15319502710E+02  0.16027957783E+02 -0.58251472629E+01  0.22924112515E+02  0.00000000000E+00 0. -1.
         -2    1    1    2    0  502 -0.15319502710E+02 -0.16027957783E+02  0.31617446787E+02  0.38616648422E+02  0.00000000000E+00 0. -1.
</event>
<event>
 4    1  0.1635676E+006  0.3704251E+02  0.7546771E-02  0.1366746E+00
         21   -1    0    0  503  502  0.00000000000E+00  0.00000000000E+00  0.32790997523E+02  0.32790997523E+02  0.00000000000E+00 0. -1.
          2   -1    0    0  502    0 -0.00000000000E+00 -0.00000000000E+00 -0.85143815937E+02  0.85143815937E+02  0.00000000000E+00 0. -1.
         21    1    1    2  503  501 -0.15884995208E+02 -0.33463631943E+02  0.15874190341E+02  0.40300591244E+02  0.00000000000E+00 0. -1.
          2    1    1    2  501    0  0.15884995208E+02  0.33463631943E+02 -0.68227008755E+02  0.77634222217E+02  0.00000000000E+00 0. -1.
</event>
<event>
 4    1  0.1635676E+006  0.2058196E+02  0.7546771E-02  0.1525318E+00
          1   -1    0    0  503    0 -0.00000000000E+00  0.00000000000E+00  0.87602022854E+01  0.87602022854E+01  0.00000000000E+00 0.  1.
         21   -1    0    0  501  502  0.00000000000E+00 -0.00000000000E+00 -0.14261031739E+03  0.14261031739E+03  0.00000000000E+00 0.  1.
         21    1    1    2  503  502 -0.10815117462E+02  0.17511438078E+02 -0.12845466183E+03  0.13009311041E+03  0.00000000000E+00 0.  1.
          1    1    1    2  501    0  0.10815117462E+02 -0.17511438078E+02 -0.53954532771E+01  0.21277409272E+02  0.00000000000E+00 0.  1.
</event>
<event>
 4    1  0.1635676E+006  0.2552268E+02  0.7546771E-02  0.1463040E+00
         21   -1    0    0  503  502  0.00000000000E+00  0.00000000000E+00  0.76081543818E+01  0.76081543818E+01  0.00000000000E+00 0.  1.
         -3   -1    0    0    0  501 -0.00000000000E+00 -0.00000000000E+00 -0.17169921238E+03  0.17169921238E+03  0.00000000000E+00 0. -1.
         21    1    1    2  503  501  0.25385091551E+02  0.26465776795E+01 -0.18565940922E+02  0.31561074265E+02  0.00000000000E+00 0.  1.
         -3    1    1    2    0  502 -0.25385091551E+02 -0.26465776795E+01 -0.14552511708E+03  0.14774629250E+03  0.00000000000E+00 0. -1.
</event>
<event>
 4    1  0.1635676E+006  0.2980344E+02  0.7546771E-02  0.1421312E+00
          2   -1    0    0  503    0 -0.00000000000E+00  0.00000000000E+00  0.12524372942E+04  0.12524372942E+04  0.00000000000E+00 0.  1.
         21   -1    0    0  501  502  0.00000000000E+00 -0.00000000000E+00 -0.81387913125E+00  0.81387913125E+00  0.00000000000E+00 0.  1.
         21    1    1    2  503  502  0.16403490967E+02 -0.24883142560E+02  0.40109754536E+03  0.40220328964E+03  0.00000000000E+00 0.  1.
          2    1    1    2  501    0 -0.16403490967E+02  0.24883142560E+02  0.85052586970E+03  0.85104788369E+03  0.00000000000E+00 0.  1.
</event>
<event>
 4    1  0.1635676E+006  0.2251253E+02  0.7546771E-02  0.1498712E+00
         21   -1    0    0  503  502  0.00000000000E+00  0.00000000000E+00  0.57899432376E+01  0.57899432376E+01  0.00000000000E+00 0. -1.
          1   -1    0    0  502    0 -0.00000000000E+00 -0.00000000000E+00 -0.70976563091E+03  0.70976563091E+03  0.00000000000E+00 0.  1.
         21    1    1    2  503  501  0.24469539430E+01  0.22379152079E+02 -0.16997641319E+02  0.28208754701E+02  0.00000000000E+00 0. -1.
          1    1    1    2  501    0 -0.24469539430E+01 -0.22379152079E+02 -0.68697804635E+03  0.68734681945E+03  0.00000000000E+00 0.  1.
</event>
<event>
 4    1  0.1635676E+006  0.3044342E+02  0.7546771E-02  0.1415781E+00
         21   -1    0    0  501  502  0.00000000000E+00  0.00000000000E+00  0.24284620915E+02  0.24284620915E+02  0.00000000000E+00 0. -1.
          2   -1    0    0  503    0 -0.00000000000E+00 -0.00000000000E+00 -0.21892016134E+03  0.21892016134E+03  0.00000000000E+00 0.  1.
         21    1    1    2  503  502 -0.30293807959E+02  0.30144861844E+01  0.13177988696E+02  0.33173201740E+02  0.00000000000E+00 0. -1.
          2    1    1    2  501    0  0.30293807959E+02 -0.30144861844E+01 -0.20781352912E+03  0.21003158051E+03  0.00000000000E+00 0.  1.
</event>
<event>
 4    1  0.1635676E+006  0.2667782E+02  0.7546771E-02  0.1450872E+00
         21   -1    0    0  503  502  0.00000000000E+00  0.00000000000E+00  0.28175731122E+02  0.28175731122E+02  0.00000000000E+00 0. -1.
          2   -1    0    0  502    0 -0.00000000000E+00 -0.00000000000E+00 -0.77233433864E+02  0.77233433864E+02  0.00000000000E+00 0.  1.
         21    1    1    2  503  501  0.12702572884E+02 -0.23459556665E+02  0.18706432084E+02  0.32582767810E+02  0.00000000000E+00 0. -1.
          2    1    1    2  501    0 -0.12702572884E+02  0.23459556665E+02 -0.67764134827E+02  0.72826397176E+02  0.00000000000E+00 0.  1.
</event>
<event>
 4    1  0.1635676E+006  0.3091563E+02  0.7546771E-02  0.1411803E+00
         21   -1    0    0  501  502  0.00000000000E+00  0.00000000000E+00  0.18855438612E+02  0.18855438612E+02  0.00000000000E+00 0.  1.
          2   -1    0    0  503    0 -0.00000000000E+00 -0.00000000000E+00 -0.30897466011E+03  0.30897466011E+03  0.00000000000E+00 0. -1.
         21    1    1    2  503  502  0.28485157906E+02 -0.12015476914E+02  0.48077240175E+01  0.31287219702E+02  0.00000000000E+00 0.  1.
          2    1    1    2  501    0 -0.28485157906E+02  0.12015476914E+02 -0.29492694552E+03  0.29654287902E+03  0.00000000000E+00 0. -1.
</event>
<event>
 4    1  0.1635676E+006  0.2177312E+02  0.7546771E-02  0.1508507E+00
         21   -1    0    0  503  502  0.00000000000E+00  0.00000000000E+00  0.34745786243E+02  0.34745786243E+02  0.00000000000E+00 0. -1.
         -4   -1    0    0    0  501 -0.00000000000E+00 -0.00000000000E+00 -0.90610717538E+02  0.90610717538E+02  0.00000000000E+00 0. -1.
         21    1    1    2  503  501 -0.21733504937E+02  0.13127909359E+01  0.29834400102E+02  0.36934537852E+02  0.00000000000E+00 0. -1.
         -4    1    1    2    0  502  0.21733504937E+02 -0.13127909359E+01 -0.85699331397E+02  0.88421965930E+02  0.00000000000E+00 0. -1.
</event>
<event>
 4    1  0.1635676E+006  0.2349112E+02  0.7546771E-02  0.1486422E+00
         21   -1    0    0  503  502  0.00000000000E+00  0.00000000000E+00  0.34963241363E+00  0.34963241363E+00  0.00000000000E+00 0. -1.
          2   -1    0    0  502    0 -0.00000000000E+00 -0.00000000000E+00 -0.15869713383E+04  0.15869713383E+04  0.00000000000E+00 0. -1.
         21    1    1    2  503  501  0.81090738331E+00  0.23477120006E+02 -0.73472038109E+03  0.73509582445E+03  0.00000000000E+00 0. -1.
          2    1    1    2  501    0 -0.81090738331E+00 -0.23477120006E+02 -0.85190132479E+03  0.85222514626E+03  0.00000000000E+00 0. -1.
</event>
<event>
 4    1  0.1635676E+006  0.2288255E+02  0.7546771E-02  0.1493978E+00
         21   -1    0    0  503  502  0.00000000000E+00  0.00000000000E+00  0.10037900552E+02  0.10037900552E+02  0.00000000000E+00 0.  1.
          1   -1    0    0  502    0 -0.00000000000E+00 -0.00000000000E+00 -0.16753589823E+04  0.16753589823E+04  0.00000000000E+00 0. -1.
         21    1    1    2  503  501  0.47299805004E+01 -0.22388354820E+02 -0.31848252030E+01  0.23103122271E+02  0.00000000000E+00 0.  1.
          1    1    1    2  501    0 -0.47299805004E+01  0.22388354820E+02 -0.16621362565E+04  0.16622937606E+04  0.00000000000E+00 0. -1.
</event>
<event>
 4    1  0.1635676E+006  0.3097435E+02  0.7546771E-02  0.1411314E+00
         21   -1    0    0  503  502  0.00000000000E+00  0.00000000000E+00  0.14197612188E+03  0.14197612188E+03  0.00000000000E+00 0. -1.
         -1   -1    0    0    0  501 -0.00000000000E+00 -0.00000000000E+00 -0.43780480305E+02  0.43780480305E+02  0.00000000000E+00 0.  1.
         21    1    1    2  503  501  0.22893013697E+02 -0.20864324249E+02  0.13450795869E+03  0.13802826179E+03  0.00000000000E+00 0. -1.
         -1    1    1    2    0  502 -0.22893013697E+02  0.20864324249E+02 -0.36312317114E+02  0.47728340393E+02  0.00000000000E+00 0.  1.
</event>
<event>
 4    1  0.1635676E+006  0.2012836E+02  0.7546771E-02  0.1532082E+00
          1   -1    0    0  503    0 -0.00000000000E+00  0.00000000000E+00  0.58166508892E+00  0.58166508892E+00  0.00000000000E+00 0.  1.
         21   -1    0    0  501  502  0.00000000000E+00 -0.00000000000E+00 -0.69653741243E+03  0.69653741243E+03  0.00000000000E+00 0.  1.
         21    1    1    2  503  502  0.12374775519E+02 -0.15875010809E+02 -0.34760702398E+03  0.34818930793E+03  0.00000000000E+00 0.  1.
          1    1    1    2  501    0 -0.12374775519E+02  0.15875010809E+02 -0.34834872336E+03  0.34892976959E+03  0.00000000000E+00 0.  1.
</event>
<event>
 4    1  0.1635676E+006  0.2084339E+02  0.7546771E-02  0.1521513E+00
         21   -1    0    0  501  502  0.00000000000E+00  0.00000000000E+00  0.82401219393E+01  0.82401219393E+01  0.00000000000E+00 0. -1.
          4   -1    0    0  503    0 -0.00000000000E+00 -0.00000000000E+00 -0.57823765770E+02  0.57823765770E+02  0.00000000000E+00 0. -1.
         21    1    1    2  503  502 -0.20566351302E+02  0.33870663259E+01 -0.14981511526E+02  0.25668905543E+02  0.00000000000E+00 0. -1.
          4    1    1    2  501    0  0.20566351302E+02 -0.33870663259E+01 -0.34602132305E+02  0.40394982166E+02  0.00000000000E+00 0. -1.
</event>
<event>
 4    1  0.1635676E+006  0.2085687E+02  0.7546771E-02  0.1521318E+00
         21   -1    0    0  503  502  0.00000000000E+00  0.00000000000E+00  0.39086704346E+03  0.39086704346E+03  0.00000000000E+00 0.  1.
         -3   -1    0    0    0  501 -0.00000000000E+00 -0.00000000000E+00 -0.51808696845E+01  0.51808696845E+01  0.00000000000E+00 0. -1.
         21    1    1    2  503  501 -0.58794363104E+01  0.20011027457E+02  0.36831332679E+03  0.36890339614E+03  0.00000000000E+00 0.  1.
         -3    1    1    2    0  502  0.58794363104E+01 -0.20011027457E+02  0.17372846990E+02  0.27144517010E+02  0.00000000000E+00 0. -1.
</event>
<event>
 4    1  0.1635676E+006  0.2556259E+02  0.7546771E-02  0.1462607E+00
         21   -1    0    0  501  502  0.00000000000E+00  0.00000000000E+00  0.44211006346E+00  0.44211006346E+00  0.00000000000E+00 0. -1.
          2   -1    0    0  503    0 -0.00000000000E+00 -0.00000000000E+00 -0.14780823361E+04  0.14780823361E+04  0.00000000000E+00 0. -1.
         21    1    1    2  503  502  0.25285125968E+02  0.37560842837E+01 -0.73386903554E+03  0.73431410656E+03  0.00000000000E+00 0. -1.
          2    1    1    2  501    0 -0.25285125968E+02 -0.37560842837E+01 -0.74377119053E+03  0.74421033964E+03  0.00000000000E+00 0. -1.
</event>
<event>
 4    1  0.1635676E+006  0.2149045E+02  0.7546771E-02  0.1512376E+00
         21   -1    0    0  501  502  0.00000000000E+00  0.00000000000E+00  0.18528132215E+02  0.18528132215E+02  0.00000000000E+00 0. -1.
          2   -1    0    0  503    0 -0.00000000000E+00 -0.00000000000E+00 -0.12941466059E+04  0.12941466059E+04  0.00000000000E+00 0. -1.
         21    1    1    2  503  502  0.18486915763E+02  0.10957795753E+02  0.12176586424E+02  0.24700376497E+02  0.00000000000E+00 0. -1.
          2    1    1    2  501    0 -0.18486915763E+02 -0.10957795753E+02 -0.12877950602E+04  0.12879743617E+04  0.00000000000E+00 0. -1.
</event>
<event>
 4    1  0.1635676E+006  0.2939459E+02  0.7546771E-02  0.1424931E+00
          2   -1    0    0  503    0 -0.00000000000E+00  0.00000000000E+00  0.93734639426E+03  0.93734639426E+03  0.00000000000E+00 0.  1.
         21   -1    0    0  501  502  0.00000000000E+00 -0.00000000000E+00 -0.24492352661E+01  0.24492352661E+01  0.00000000000E+00 0. -1.
         21    1    1    2  503  502 -0.21543085572E+02  0.19998433952E+02  0.96366323505E+02  0.10074974046E+03  0.00000000000E+00 0. -1.
          2    1    1    2  501    0  0.21543085572E+02 -0.19998433952E+02  0.83853083549E+03  0.83904588907E+03  0.00000000000E+00 0.  1.
</event>
<event>
 4    1  0.1635676E+006  0.2038341E+02  0.7546771E-02  0.1528253E+00
         -3   -1    0    0    0  501 -0.00000000000E+00  0.00000000000E+00  0.88327054334E+00  0.88327054334E+00  0.00000000000E+00 0. -1.
         21   -1    0    0  503  502  0.00000000000E+00 -0.00000000000E+00 -0.54373985651E+03  0.54373985651E+03  0.00000000000E+00 0.  1.
         21    1    1    2  503  501 -0.20342667676E+02 -0.12881170889E+01 -0.37144309789E+03  0.37200196013E+03  0.00000000000E+00 0.  1.
         -3    1    1    2    0  502  0.20342667676E+02  0.12881170889E+01 -0.17141348808E+03  0.17262116692E+03  0.00000000000E+00 0. -1.
</event>
<event>
 4    1  0.1635676E+006  0.5226344E+02  0.7546771E-02  0.1288646E+00
         -3   -1    0    0    0  501 -0.00000000000E+00  0.00000000000E+00  0.27110008153E+03  0.27110008153E+03  0.00000000000E+00 0. -1.
         21   -1    0    0  503  502  0.00000000000E+00 -0.00000000000E+00 -0.37950021192E+02  0.37950021192E+02  0.00000000000E+00 0. -1.
         21    1    1    2  503  501 -0.34187544117E+02 -0.39530736552E+02 -0.15858098240E+02  0.54616358217E+02  0.00000000000E+00 0. -1.
         -3    1    1    2    0  502  0.34187544117E+02  0.39530736552E+02  0.24900815858E+03  0.25443374451E+03  0.00000000000E+00 0. -1.
</event>
<event>
 4    1  0.1635676E+006  0.3677785E+02  0.7546771E-02  0.1368477E+00
         21   -1    0    0  503  502  0.00000000000E+00  0.00000000000E+00  0.16301096325E+01  0.16301096325E+01  0.00000000000E+00 0. -1.
          2   -1    0    0  502    0 -0.00000000000E+00 -0.00000000000E+00 -0.13046941265E+04  0.13046941265E+04  0.00000000000E+00 0. -1.
         21    1    1    2  503  501 -0.25499598230E+02 -0.26502465125E+02 -0.25745562681E+03  0.26006924067E+03  0.00000000000E+00 0. -1.
          2    1    1    2  501    0  0.25499598230E+02  0.26502465125E+02 -0.10456083901E+04  0.10462549955E+04  0.00000000000E+00 0. -1.
</event>
<event>
 4    1  0.1635676E+006  0.2208063E+02  0.7546771E-02  0.1504377E+00
         21   -1    0    0  501  502  0.00000000000E+00  0.00000000000E+00  0.30558047085E+02  0.30558047085E+02  0.00000000000E+00 0.  1.
         -2   -1    0    0    0  501 -0.00000000000E+00 -0.00000000000E+00 -0.20467835547E+02  0.20467835547E+02  0.00000000000E+00 0. -1.
         21    1    1    2  503  502  0.85837484452E+01  0.20343879827E+02  0.17024875495E+02  0.27881903977E+02  0.00000000000E+00 0.  1.
         -2    1    1    2    0  503 -0.85837484452E+01 -0.20343879827E+02 -0.69346639567E+01  0.23143978655E+02  0.00000000000E+00 0. -1.
</event>
<event>
 4    1  0.1635676E+006  0.2490833E+02  0.7546771E-02  0.1469832E+00
         21   -1    0    0  503  502  0.00000000000E+00  0.00000000000E+00  0.35960343242E+03  0.35960343242E+03  0.00000000000E+00 0.  1.
          2   -1    0    0  502    0 -0.00000000000E+00 -0.00000000000E+00 -0.22403446110E+02  0.22403446110E+02  0.00000000000E+00 0. -1.
         21    1    1    2  503  501  0.24827798288E+02  0.20013725852E+01  0.35210145865E+03  0.35298139079E+03  0.00000000000E+00 0.  1.
          2    1    1    2  501    0 -0.24827798288E+02 -0.20013725852E+01 -0.14901472348E+02  0.29025487734E+02  0.00000000000E+00 0. -1.
</event>
<event>
 4    1  0.1635676E+006  0.3463716E+02  0.7546771E-02  0.1383132E+00
          3   -1    0    0  503    0 -0.00000000000E+00  0.00000000000E+00  0.26097830663E+03  0.26097830663E+03  0.00000000000E+00 0. -1.
         21   -1    0    0  501  502  0.00000000000E+00 -0.00000000000E+00 -0.69581541828E+01  0.69581541828E+01  0.00000000000E+00 0.  1.
         21    1    1    2  503  502  0.12256184190E+02 -0.32396274310E+02  0.48971101294E+02  0.59982509134E+02  0.00000000000E+00 0.  1.
          3    1    1    2  501    0 -0.12256184190E+02  0.32396274310E+02  0.20504905115E+03  0.20795395168E+03  0.00000000000E+00 0. -1.
</event>
<event>
 4    1  0.1635676E+006  0.3089120E+02  0.7546771E-02  0.1412007E+00
         21   -1    0    0  503  502  0.00000000000E+00  0.00000000000E+00  0.86567716472E+03  0.86567716472E+03  0.00000000000E+00 0. -1.
         -3   -1    0    0    0  501 -0.00000000000E+00 -0.00000000000E+00 -0.30477504942E+01  0.30477504942E+01  0.00000000000E+00 0.  1.
         21    1    1    2  503  501 -0.30557570578E+02  0.45278374327E+01  0.77834607869E+03  0.77895884657E+03  0.00000000000E+00 0. -1.
         -3    1    1    2    0  502  0.30557570578E+02 -0.45278374327E+01  0.84283335531E+02  0.89766068643E+02  0.00000000000E+00 0.  1.
</event>
<event>
 4    1  0.1635676E+006  0.2060980E+02  0.7546771E-02  0.1524909E+00
         -1   -1    0    0    0  501 -0.00000000000E+00  0.00000000000E+00  0.10235266427E+02  0.10235266427E+02  0.00000000000E+00 0. -1.
         21   -1    0    0  503  502  0.00000000000E+00 -0.00000000000E+00 -0.90502731239E+02  0.90502731239E+02  0.00000000000E+00 0.  1.
         21    1    1    2  503  501  0.16948783644E+02  0.11726157224E+02 -0.77196889816E+02  0.79900712309E+02  0.00000000000E+00 0.  1.
         -1    1    1    2    0  502 -0.16948783644E+02 -0.11726157224E+02 -0.30705749960E+01  0.20837285357E+02  0.00000000000E+00 0. -1.
</event>
<event>
 4    1  0.1635676E+006  0.2131138E+02  0.7546771E-02  0.1514865E+00
          2   -1    0    0  502    0 -0.00000000000E+00  0.00000000000E+00  0.36183118656E+03  0.36183118656E+03  0.00000000000E+00 0.  1.
         21   -1    0    0  503  502  0.00000000000E+00 -0.00000000000E+00 -0.28679744464E+01  0.28679744464E+01  0.00000000000E+00 0. -1.
         21    1    1    2  503  501  0.57958269076E+01  0.20508128403E+02  0.42739489947E+02  0.47758129581E+02  0.00000000000E+00 0. -1.
          2    1    1    2  501    0 -0.57958269076E+01 -0.20508128403E+02  0.31622372217E+03  0.31694103143E+03  0.00000000000E+00 0.  1.
</event>
<event>
 4    1  0.1635676E+006  0.2659551E+02  0.7546771E-02  0.1451714E+00
         -3   -1    0    0    0  501 -0.00000000000E+00  0.00000000000E+00  0.24250554573E+01  0.24250554573E+01  0.00000000000E+00 0. -1.
         21   -1    0    0  503  502  0.00000000000E+00 -0.00000000000E+00 -0.64246395103E+03  0.64246395103E+03  0.00000000000E+00 0. -1.
         21    1    1    2  503  501  0.15623764411E+02 -0.21522522781E+02 -0.55828175778E+03  0.55891487909E+03  0.00000000000E+00 0. -1.
         -3    1    1    2    0  502 -0.15623764411E+02  0.21522522781E+02 -0.81757137793E+02  0.85974127395E+02  0.00000000000E+00 0. -1.
</event>
<event>
 4    1  0.1635676E+006  0.2897081E+02  0.7546771E-02  0.1428756E+00
         21   -1    0    0  503  502  0.00000000000E+00  0.00000000000E+00  0.28743037102E+02  0.28743037102E+02  0.00000000000E+00 0. -1.
          3   -1    0    0  502    0 -0.00000000000E+00 -0.00000000000E+00 -0.52367421995E+02  0.52367421995E+02  0.00000000000E+00 0.  1.
         21    1    1    2  503  501 -0.28436056148E+02 -0.55406294136E+01  0.15162187817E+02  0.32698620812E+02  0.00000000000E+00 0. -1.
          3    1    1    2  501    0  0.28436056148E+02  0.55406294136E+01 -0.38786572711E+02  0.48411838286E+02  0.00000000000E+00 0.  1.
</event>
<event>
 4    1  0.1635676E+006  0.3638505E+02  0.7546771E-02  0.1371079E+00
         21   -1    0    0  501  502  0.00000000000E+00  0.00000000000E+00  0.27328347421E+03  0.27328347421E+03  0.00000000000E+00 0. -1.
          3   -1    0    0  503    0 -0.00000000000E+00 -0.00000000000E+00 -0.50668216527E+01  0.50668216527E+01  0.00000000000E+00 0. -1.
         21    1    1    2  503  502  0.33449325405E+02  0.14318335315E+02  0.16327334782E+03  0.16727838534E+03  0.00000000000E+00 0. -1.
          3    1    1    2  501    0 -0.33449325405E+02 -0.14318335315E+02  0.10494330474E+03  0.11107191052E+03  0.00000000000E+00 0. -1.
</event>
<event>
 4    1  0.1635676E+006  0.5264495E+02  0.7546771E-02  0.1287095E+00
          2   -1    0    0  503    0 -0.00000000000E+00  0.00000000000E+00  0.37664239417E+03  0.37664239417E+03  0.00000000000E+00 0.  1.
         21   -1    0    0  501  502  0.00000000000E+00 -0.00000000000E+00 -0.87442277507E+01  0.87442277507E+01  0.00000000000E+00 0.  1.
         21    1    1    2  503  502  0.48856643248E+02 -0.19609155996E+02  0.10723795425E+03  0.11946325552E+03  0.00000000000E+00 0.  1.
          2    1    1    2  501    0 -0.48856643248E+02  0.19609155996E+02  0.26066021217E+03  0.26592336640E+03  0.00000000000E+00 0.  1.
</event>
<event>
 4    1  0.1635676E+006  0.2503533E+02  0.7546771E-02  0.1468409E+00
         21   -1    0    0  501  502  0.00000000000E+00  0.00000000000E+00  0.14224092601E+03  0.14224092601E+03  0.00000000000E+00 0. -1.
          1   -1    0    0  503    0 -0.00000000000E+00 -0.00000000000E+00 -0.15144701912E+04  0.15144701912E+04  0.00000000000E+00 0.  1.
         21    1    1    2  503  502 -0.21444049993E+02 -0.12919774374E+02  0.14103498949E+03  0.14323978536E+03  0.00000000000E+00 0. -1.
          1    1    1    2  501    0  0.21444049993E+02  0.12919774374E+02 -0.15132642547E+04  0.15134713318E+04  0.00000000000E+00 0.  1.
</event>
<event>
 4    1  0.1635676E+006  0.2089772E+02  0.7546771E-02  0.1520730E+00
         21   -1    0    0  503  502  0.00000000000E+00  0.00000000000E+00  0.22085690585E+01  0.22085690585E+01  0.00000000000E+00 0.  1.
          2   -1    0    0  502    0 -0.00000000000E+00 -0.00000000000E+00 -0.69750612429E+03  0.69750612429E+03  0.00000000000E+00 0.  1.
         21    1    1    2  503  501  0.54358291967E+01  0.20178364713E+02 -0.51505466170E+02  0.55583519922E+02  0.00000000000E+00 0.  1.
          2    1    1    2  501    0 -0.54358291967E+01 -0.20178364713E+02 -0.64379208906E+03  0.64413117343E+03  0.00000000000E+00 0.  1.
</event>
<event>
 4    1  0.1635676E+006  0.2282768E+02  0.7546771E-02  0.1494673E+00
         21   -1    0    0  501  502  0.00000000000E+00  0.00000000000E+00  0.94913597338E+02  0.94913597338E+02  0.00000000000E+00 0. -1.
          2   -1    0    0  503    0 -0.00000000000E+00 -0.00000000000E+00 -0.55601655472E+01  0.55601655472E+01  0.00000000000E+00 0. -1.
         21    1    1    2  503  502 -0.24569064597E+01 -0.22695074489E+02  0.39044830253E+02  0.45228327019E+02  0.00000000000E+00 0. -1.
          2    1    1    2  501    0  0.24569064597E+01  0.22695074489E+02  0.50308601538E+02  0.55245435866E+02  0.00000000000E+00 0. -1.
</event>
<event>
 4    1  0.1635676E+006  0.3345178E+02  0.7546771E-02  0.1391787E+00
         21   -1    0    0  501  502  0.00000000000E+00  0.00000000000E+00  0.14995489121E+02  0.14995489121E+02  0.00000000000E+00 0.  1.
          3   -1    0    0  503    0 -0.00000000000E+00 -0.00000000000E+00 -0.23286544134E+03  0.23286544134E+03  0.00000000000E+00 0. -1.
         21    1    1    2  503  502 -0.32491836665E+02 -0.79562504288E+01 -0.67738060590E+01  0.34130716653E+02  0.00000000000E+00 0.  1.
          3    1    1    2  501    0  0.32491836665E+02  0.79562504288E+01 -0.21109614616E+03  0.21373021380E+03  0.00000000000E+00 0. -1.
</event>
<event>
 4    1  0.1635676E+006  0.2577436E+02  0.7546771E-02  0.1460324E+00
          2   -1    0    0  503    0 -0.00000000000E+00  0.00000000000E+00  0.36818580434E+03  0.36818580434E+03  0.00000000000E+00 0.  1.
         21   -1    0    0  501  502  0.00000000000E+00 -0.00000000000E+00 -0.63646778299E+02  0.63646778299E+02  0.00000000000E+00 0.  1.
         21    1    1    2  503  502 -0.25432152692E+02  0.41860628302E+01 -0.60564308625E+02  0.65820612211E+02  0.00000000000E+00 0.  1.
          2    1    1    2  501    0  0.25432152692E+02 -0.41860628302E+01  0.36510333466E+03  0.36601197043E+03  0.00000000000E+00 0.  1.
</event>
<event>
 4    1  0.1635676E+006  0.2700082E+02  0.7546771E-02  0.1447600E+00
         21   -1    0    0  501  502  0.00000000000E+00  0.00000000000E+00  0.56013966710E+02  0.56013966710E+02  0.00000000000E+00 0.  1.
          2   -1    0    0  503    0 -0.00000000000E+00 -0.00000000000E+00 -0.22332208731E+02  0.22332208731E+02  0.00000000000E+00 0.  1.
         21    1    1    2  503  502 -0.74577499671E+01 -0.25950453448E+02  0.42142922778E+02  0.50050674411E+02  0.00000000000E+00 0.  1.
          2    1    1    2  501    0  0.74577499671E+01  0.25950453448E+02 -0.84611647994E+01  0.28295501029E+02  0.00000000000E+00 0.  1.
</event>
<event>
 4    1  0.1635676E+006  0.3140927E+02  0.7546771E-02  0.1407733E+00
         21   -1    0    0  503  502  0.00000000000E+00  0.00000000000E+00  0.15306200028E+03  0.15306200028E+03  0.00000000000E+00 0. -1.
         -3   -1    0    0    0  501 -0.00000000000E+00 -0.00000000000E+00 -0.13237779753E+03  0.13237779753E+03  0.00000000000E+00 0.  1.
         21    1    1    2  503  501 -0.31067799752E+02  0.46188766850E+01  0.14954418319E+03  0.15280708403E+03  0.00000000000E+00 0. -1.
         -3    1    1    2    0  502  0.31067799752E+02 -0.46188766850E+01 -0.12885998045E+03  0.13263271378E+03  0.00000000000E+00 0.  1.
</event>
<event>
 4    1  0.1635676E+006  0.2381528E+02  0.7546771E-02  0.1482507E+00
          3   -1    0    0  502    0 -0.00000000000E+00  0.00000000000E+00  0.15539541931E+03  0.15539541931E+03  0.00000000000E+00 0. -1.
         21   -1    0    0  503  502  0.00000000000E+00 -0.00000000000E+00 -0.81324586669E+01  0.81324586669E+01  0.00000000000E+00 0. -1.
         21    1    1    2  503  501 -0.97026877923E-01  0.23815081553E+02  0.12927516638E+02  0.27097752859E+02  0.00000000000E+00 0. -1.
          3    1    1    2  501    0  0.97026877923E-01 -0.23815081553E+02  0.13433544400E+03  0.13643012512E+03  0.00000000000E+00 0. -1.
</event>
<event>
 4    1  0.1635676E+006  0.2219861E+02  0.7546771E-02  0.1502814E+00
         21   -1    0    0  503  502  0.00000000000E+00  0.00000000000E+00  0.90595269708E+02  0.90595269708E+02  0.00000000000E+00 0. -1.
         -1   -1    0    0    0  501 -0.00000000000E+00 -0.00000000000E+00 -0.92675431200E+01  0.92675431200E+01  0.00000000000E+00 0.  1.
         21    1    1    2  503  501 -0.23766420276E+01 -0.22071018638E+02  0.72755294971E+02  0.76066492212E+02  0.00000000000E+00 0. -1.
         -1    1    1    2    0  502  0.23766420276E+01  0.22071018638E+02  0.85724316173E+01  0.23796320617E+02  0.00000000000E+00 0.  1.
</event>
<event>
 4    1  0.1635676E+006  0.2442488E+02  0.7546771E-02  0.1475341E+00
         21   -1    0    0  501  502  0.00000000000E+00  0.00000000000E+00  0.10038886918E+03  0.10038886918E+03  0.00000000000E+00 0. -1.
         -2   -1    0    0    0  501 -0.00000000000E+00 -0.00000000000E+00 -0.26283094637E+02  0.26283094637E+02  0.00000000000E+00 0. -1.
         21    1    1    2  503  502 -0.34477133638E+01  0.24180320223E+02  0.92770515061E+02  0.95931971095E+02  0.00000000000E+00 0. -1.
         -2    1    1    2    0  503  0.34477133638E+01 -0.24180320223E+02 -0.18664740522E+02  0.30739992718E+02  0.00000000000E+00 0. -1.
</event>
<event>
 4    1  0.1635676E+006  0.4304301E+02  0.7546771E-02  0.1331521E+00
          1   -1    0    0  502    0 -0.00000000000E+00  0.00000000000E+00  0.96487342765E+02  0.96487342765E+02  0.00000000000E+00 0.  1.
         21   -1    0    0  503  502  0.00000000000E+00 -0.00000000000E+00 -0.26433438721E+02  0.26433438721E+02  0.00000000000E+00 0.  1.
         21    1    1    2  503  501  0.33906685911E+02 -0.26514848410E+02  0.28795249442E+01  0.43139218810E+02  0.00000000000E+00 0.  1.
          1    1    1    2  501    0 -0.33906685911E+02  0.26514848410E+02  0.67174379099E+02  0.79781562676E+02  0.00000000000E+00 0.  1.
</event>
<event>
 4    1  0.1635676E+006  0.3346634E+02  0.7546771E-02  0.1391678E+00
         -4   -1    0    0    0  501 -0.00000000000E+00  0.00000000000E+00  0.59368277483E+00  0.59368277483E+00  0.00000000000E+00 0. -1.
         21   -1    0    0  503  502  0.00000000000E+00 -0.00000000000E+00 -0.26476975006E+04  0.26476975006E+04  0.00000000000E+00 0.  1.
         21    1    1    2  503  501 -0.33395178976E+02  0.21812304724E+01 -0.20335282797E+04  0.20338036434E+04  0.00000000000E+00 0.  1.
         -4    1    1    2    0  502  0.33395178976E+02 -0.21812304724E+01 -0.61357553822E+03  0.61448754003E+03  0.00000000000E+00 0. -1.
</event>
<event>
 4    1  0.1635676E+006  0.2977525E+02  0.7546771E-02  0.1421560E+00
         21   -1    0    0  501  502  0.00000000000E+00  0.00000000000E+00  0.72340253968E+02  0.72340253968E+02  0.00000000000E+00 0. -1.
         -1   -1    0    0    0  501 -0.00000000000E+00 -0.00000000000E+00 -0.55757707310E+02  0.55757707310E+02  0.00000000000E+00 0. -1.
         21    1    1    2  503  502 -0.22123123880E+02 -0.19928192386E+02  0.64865086389E+02  0.71372578027E+02  0.00000000000E+00 0. -1.
         -1    1    1    2    0  503  0.22123123880E+02  0.19928192386E+02 -0.48282539731E+02  0.56725383251E+02  0.00000000000E+00 0. -1.
</event>
<event>
 4    1  0.1635676E+006  0.2179792E+02  0.7546771E-02  0.1508171E+00
         -1   -1    0    0    0  501 -0.00000000000E+00  0.00000000000E+00  0.46430663103E+02  0.46430663103E+02  0.00000000000E+00 0.  1.
         21   -1    0    0  501  502  0.00000000000E+00 -0.00000000000E+00 -0.18506598647E+02  0.18506598647E+02  0.00000000000E+00 0. -1.
         21    1    1    2  503  502 -0.21057069059E+02 -0.56346199946E+01 -0.77466899226E+01  0.23133532039E+02  0.00000000000E+00 0. -1.
         -1    1    1    2    0  503  0.21057069059E+02  0.56346199946E+01  0.35670754379E+02  0.41803729711E+02  0.00000000000E+00 0.  1.
</event>
<event>
 4    1  0.1635676E+006  0.2261374E+02  0.7546771E-02  0.1497406E+00
         21   -1    0    0  503  502  0.00000000000E+00  0.00000000000E+00  0.32783359525E+00  0.32783359525E+00  0.00000000000E+00 0. -1.
          2   -1    0    0  502    0 -0.00000000000E+00 -0.00000000000E+00 -0.21857141341E+04  0.21857141341E+04  0.00000000000E+00 0. -1.
         21    1    1    2  503  501 -0.19691464809E+02  0.11118795133E+02 -0.50782078634E+03  0.50832404274E+03  0.00000000000E+00 0. -1.
          2    1    1    2  501    0  0.19691464809E+02 -0.11118795133E+02 -0.16775655142E+04  0.16777179250E+04  0.00000000000E+00 0. -1.
</event>
<event>
 4    1  0.1635676E+006  0.2150303E+02  0.7546771E-02  0.1512203E+00
          2   -1    0    0  502    0 -0.00000000000E+00  0.00000000000E+00  0.71319223959E+03  0.71319223959E+03  0.00000000000E+00 0.  1.
         21   -1    0    0  503  502  0.00000000000E+00 -0.00000000000E+00 -0.12315156709E+03  0.12315156709E+03  0.00000000000E+00 0. -1.
         21    1    1    2  503  501 -0.19259959838E+02  0.95621284062E+01 -0.12204939252E+03  0.12392915140E+03  0.00000000000E+00 0. -1.
          2    1    1    2  501    0  0.19259959838E+02 -0.95621284062E+01  0.71209006502E+03  0.71241465528E+03  0.00000000000E+00 0.  1.
</event>
<event>
 4    1  0.1635676E+006  0.2122265E+02  0.7546771E-02  0.1516110E+00
         -2   -1    0    0    0  501 -0.00000000000E+00  0.00000000000E+00  0.34387805605E+02  0.34387805605E+02  0.00000000000E+00 0. -1.
         21   -1    0    0  503  502  0.00000000000E+00 -0.00000000000E+00 -0.35700961389E+02  0.35700961389E+02  0.00000000000E+00 0.  1.
         21    1    1    2  503  501 -0.17017149536E+02 -0.12681377982E+02 -0.28541160231E+02  0.35566818149E+02  0.00000000000E+00 0.  1.
         -2    1    1    2    0  502  0.17017149536E+02  0.12681377982E+02  0.27228004447E+02  0.34521948845E+02  0.00000000000E+00 0. -1.
</event>
<event>
 4    1  0.1635676E+006  0.2607607E+02  0.7546771E-02  0.1457117E+00
         21   -1    0    0  501  502  0.00000000000E+00  0.00000000000E+00  0.35993857385E+01  0.35993857385E+01  0.00000000000E+00 0.  1.
          2   -1    0    0  503    0 -0.00000000000E+00 -0.00000000000E+00 -0.29565626987E+03  0.29565626987E+03  0.00000000000E+00 0.  1.
         21    1    1    2  503  502 -0.25444817656E+02 -0.57028498561E+01 -0.56121245925E+02  0.61883402349E+02  0.00000000000E+00 0.  1.
          2    1    1    2  501    0  0.25444817656E+02  0.57028498561E+01 -0.23593563821E+03  0.23737225326E+03  0.00000000000E+00 0.  1.
</event>
<event>
 4    1  0.1635676E+006  0.3022209E+02  0.7546771E-02  0.1417676E+00
         21   -1    0    0  501  502  0.00000000000E+00  0.00000000000E+00  0.60967464600E+01  0.60967464600E+01  0.00000000000E+00 0.  1.
          2   -1    0    0  503    0 -0.00000000000E+00 -0.00000000000E+00 -0.83395207228E+03  0.83395207228E+03  0.00000000000E+00 0. -1.
         21    1    1    2  503  502  0.45436802131E+01  0.29878585456E+02 -0.33496553636E+02  0.45115341118E+02  0.00000000000E+00 0.  1.
          2    1    1    2  501    0 -0.45436802131E+01 -0.29878585456E+02 -0.79435877219E+03  0.79493347763E+03  0.00000000000E+00 0. -1.
</event>
<event>
 4    1  0.1635676E+006  0.2279014E+02  0.7546771E-02  0.1495150E+00
         21   -1    0    0  503  502  0.00000000000E+00  0.00000000000E+00  0.16320967079E+02  0.16320967079E+02  0.00000000000E+00 0.  1.
         -4   -1    0    0    0  501 -0.00000000000E+00 -0.00000000000E+00 -0.43931581861E+02  0.43931581861E+02  0.00000000000E+00 0.  1.
         21    1    1    2  503  501 -0.64553203050E+01  0.21856793806E+02  0.20106087106E+01  0.22878661305E+02  0.00000000000E+00 0.  1.
         -4    1    1    2    0  502  0.64553203050E+01 -0.21856793806E+02 -0.29621223493E+02  0.37373887635E+02  0.00000000000E+00 0.  1.
</event>
<event>
 4    1  0.1635676E+006  0.5958306E+02  0.7546771E-02  0.1261256E+00
         21   -1    0    0  501  502  0.00000000000E+00  0.00000000000E+00  0.39366782971E+02  0.39366782971E+02  0.00000000000E+00 0.  1.
         -4   -1    0    0    0  501 -0.00000000000E+00 -0.00000000000E+00 -0.27876761543E+03  0.27876761543E+03  0.00000000000E+00 0.  1.
         21    1    1    2  503  502 -0.33489812746E+02  0.49280556340E+02  0.11131819507E+02  0.60614009903E+02  0.00000000000E+00 0.  1.
         -4    1    1    2    0  503  0.33489812746E+02 -0.49280556340E+02 -0.25053265196E+03  0.25752038849E+03  0.00000000000E+00 0.  1.
</event>
<event>
 4    1  0.1635676E+006  0.2028081E+02  0.7546771E-02  0.1529785E+00
         21   -1    0    0  503  502  0.00000000000E+00  0.00000000000E+00  0.38723333056E+01  0.38723333056E+01  0.00000000000E+00 0. -1.
          2   -1    0    0  502    0 -0.00000000000E+00 -0.00000000000E+00 -0.34013000863E+03  0.34013000863E+03  0.00000000000E+00 0.  1.
         21    1    1    2  503  501  0.10949392705E+02  0.17071087077E+02 -0.25490832703E+02  0.32574434247E+02  0.00000000000E+00 0. -1.
          2    1    1    2  501    0 -0.10949392705E+02 -0.17071087077E+02 -0.31076684263E+03  0.31142790769E+03  0.00000000000E+00 0.  1.
</event>
<event>
 4    1  0.1635676E+006  0.3225851E+02  0.7546771E-02  0.1400934E+00
         21   -1    0    0  503  502  0.00000000000E+00  0.00000000000E+00  0.96507218938E+01  0.96507218938E+01  0.00000000000E+00 0. -1.
         -2   -1    0    0    0  501 -0.00000000000E+00 -0.00000000000E+00 -0.38464016265E+03  0.38464016265E+03  0.00000000000E+00 0.  1.
         21    1    1    2  503  501 -0.21825726189E+02  0.23753924668E+02 -0.20249944185E+02  0.38087681739E+02  0.00000000000E+00 0. -1.
         -2    1    1    2    0  502  0.21825726189E+02 -0.23753924668E+02 -0.35473949657E+03  0.35620320281E+03  0.00000000000E+00 0.  1.
</event>
<event>
 4    1  0.1635676E+006  0.2752924E+02  0.7546771E-02  0.1442363E+00
          2   -1    0    0  502    0 -0.00000000000E+00  0.00000000000E+00  0.61715365810E+03  0.61715365810E+03  0.00000000000E+00 0.  1.
         21   -1    0    0  503  502  0.00000000000E+00 -0.00000000000E+00 -0.76546220638E+02  0.76546220638E+02  0.00000000000E+00 0. -1.
         21    1    1    2  503  501  0.18929962812E+02 -0.19987879660E+02 -0.73752807052E+02  0.78723156525E+02  0.00000000000E+00 0. -1.
          2    1    1    2  501    0 -0.18929962812E+02  0.19987879660E+02  0.61436024451E+03  0.61497672221E+03  0.00000000000E+00 0.  1.
</event>
<event>
 4    1  0.1635676E+006  0.4139209E+02  0.7546771E-02  0.1340516E+00
         21   -1    0    0  503  502  0.00000000000E+00  0.00000000000E+00  0.65452019854E+01  0.65452019854E+01  0.00000000000E+00 0. -1.
          1   -1    0    0  502    0 -0.00000000000E+00 -0.00000000000E+00 -0.72293295404E+03  0.72293295404E+03  0.00000000000E+00 0. -1.
         21    1    1    2  503  501 -0.87156054736E+01 -0.40464097691E+02 -0.66878886058E+02  0.78651702976E+02  0.00000000000E+00 0. -1.
          1    1    1    2  501    0  0.87156054736E+01  0.40464097691E+02 -0.64950886600E+03  0.65082645305E+03  0.00000000000E+00 0. -1.
</event>
<event>
 4    1  0.1635676E+006  0.2481964E+02  0.7546771E-02  0.1470831E+00
         -1   -1    0    0    0  501 -0.00000000000E+00  0.00000000000E+00  0.36386233711E+03  0.36386233711E+03  0.00000000000E+00 0.  1.
         21   -1    0    0  501  502  0.00000000000E+00 -0.00000000000E+00 -0.76169025755E+01  0.76169025755E+01  0.00000000000E+00 0. -1.
         21    1    1    2  503  502 -0.10618193715E+02  0.22433650665E+02  0.14320517226E+02  0.28654701771E+02  0.00000000000E+00 0. -1.
         -1    1    1    2    0  503  0.10618193715E+02 -0.22433650665E+02  0.34192491731E+03  0.34282453792E+03  0.00000000000E+00 0.  1.
</event>
<event>
 4    1  0.1635676E+006  0.2058259E+02  0.7546771E-02  0.1525309E+00
         21   -1    0    0  503  502  0.00000000000E+00  0.00000000000E+00  0.14353861895E+02  0.14353861895E+02  0.00000000000E+00 0. -1.
          4   -1    0    0  502    0 -0.00000000000E+00 -0.00000000000E+00 -0.39330895122E+02  0.39330895122E+02  0.00000000000E+00 0. -1.
         21    1    1    2  503  501 -0.17989027885E+02 -0.10001889635E+02  0.92172093000E+00  0.20603215526E+02  0.00000000000E+00 0. -1.
          4    1    1    2  501    0  0.17989027885E+02  0.10001889635E+02 -0.25898754157E+02  0.33081541491E+02  0.00000000000E+00 0. -1.
</event>
<event>
 4    1  0.1635676E+006  0.2664538E+02  0.7546771E-02  0.1451203E+00
         21   -1    0    0  501  502  0.00000000000E+00  0.00000000000E+00  0.43110455381E+01  0.43110455381E+01  0.00000000000E+00 0. -1.
         -2   -1    0    0    0  501 -0.00000000000E+00 -0.00000000000E+00 -0.18314963625E+03  0.18314963625E+03  0.00000000000E+00 0.  1.
         21    1    1    2  503  502 -0.25514218349E+02 -0.76812103919E+01 -0.59660498959E+02  0.65340274464E+02  0.00000000000E+00 0. -1.
         -2    1    1    2    0  503  0.25514218349E+02  0.76812103919E+01 -0.11917809175E+03  0.12212040732E+03  0.00000000000E+00 0.  1.
</event>
<event>
 4    1  0.1635676E+006  0.2061854E+02  0.7546771E-02  0.1524781E+00
         21   -1    0    0  503  502  0.00000000000E+00  0.00000000000E+00  0.22762152628E+01  0.22762152628E+01  0.00000000000E+00 0.  1.
         -4   -1    0    0    0  501 -0.00000000000E+00 -0.00000000000E+00 -0.29620534574E+03  0.29620534574E+03  0.00000000000E+00 0.  1.
         21    1    1    2  503  501 -0.19126722876E+02  0.77001645723E+01 -0.23767848576E+03  0.23857113542E+03  0.00000000000E+00 0.  1.
         -4    1    1    2    0  502  0.19126722876E+02 -0.77001645723E+01 -0.56250644715E+02  0.59910425581E+02  0.00000000000E+00 0.  1.
</event>
<event>
 4    1  0.1635676E+006  0.3907200E+02  0.7546771E-02  0.1354011E+00
         21   -1    0    0  501  502  0.00000000000E+00  0.00000000000E+00  0.36743767622E+03  0.36743767622E+03  0.00000000000E+00 0. -1.
          3   -1    0    0  503    0 -0.00000000000E+00 -0.00000000000E+00 -0.55093293095E+01  0.55093293095E+01  0.00000000000E+00 0.  1.
         21    1    1    2  503  502 -0.34195801291E+02  0.18901553131E+02  0.27342668448E+03  0.27620422394E+03  0.00000000000E+00 0. -1.
          3    1    1    2  501    0  0.34195801291E+02 -0.18901553131E+02  0.88501662434E+02  0.96742781593E+02  0.00000000000E+00 0.  1.
</event>
<event>
 4    1  0.1635676E+006  0.6186626E+02  0.7546771E-02  0.1253620E+00
         -3   -1    0    0    0  501 -0.00000000000E+00  0.00000000000E+00  0.11112842483E+03  0.11112842483E+03  0.00000000000E+00 0.  1.
         21   -1    0    0  501  502  0.00000000000E+00 -0.00000000000E+00 -0.89100587542E+02  0.89100587542E+02  0.00000000000E+00 0. -1.
         21    1    1    2  503  502 -0.60776426904E+02  0.11561161225E+02 -0.67399021837E+02  0.91488046545E+02  0.00000000000E+00 0. -1.
         -3    1    1    2    0  503  0.60776426904E+02 -0.11561161225E+02  0.89426859126E+02  0.10874096583E+03  0.00000000000E+00 0.  1.
</event>
<event>
 4    1  0.1635676E+006  0.2784207E+02  0.7546771E-02  0.1439328E+00
          2   -1    0    0  503    0 -0.00000000000E+00  0.00000000000E+00  0.20462439127E+03  0.20462439127E+03  0.00000000000E+00 0. -1.
         21   -1    0    0  501  502  0.00000000000E+00 -0.00000000000E+00 -0.66367032744E+01  0.66367032744E+01  0.00000000000E+00 0. -1.
         21    1    1    2  503  502  0.27742841622E+02 -0.23484964777E+01  0.29792699138E+02  0.40777268409E+02  0.00000000000E+00 0. -1.
          2    1    1    2  501    0 -0.27742841622E+02  0.23484964777E+01  0.16819498886E+03  0.17048382614E+03  0.00000000000E+00 0. -1.
</event>
<event>
 4    1  0.1635676E+006  0.2516832E+02  0.7546771E-02  0.1466929E+00
          3   -1    0    0  502    0 -0.00000000000E+00  0.00000000000E+00  0.97321549595E+02  0.97321549595E+02  0.00000000000E+00 0.  1.
         21   -1    0    0  503  502  0.00000000000E+00 -0.00000000000E+00 -0.10012366268E+02  0.10012366268E+02  0.00000000000E+00 0. -1.
         21    1    1    2  503  501 -0.22528381273E+02 -0.11221251010E+02  0.11908146824E+02  0.27843282812E+02  0.00000000000E+00 0. -1.
          3    1    1    2  501    0  0.22528381273E+02  0.11221251010E+02  0.75401036504E+02  0.79490633051E+02  0.00000000000E+00 0.  1.
</event>
<event>
 4    1  0.1635676E+006  0.2139771E+02  0.7546771E-02  0.1513662E+00
         21   -1    0    0  501  502  0.00000000000E+00  0.00000000000E+00  0.19039338258E+02  0.19039338258E+02  0.00000000000E+00 0. -1.
          1   -1    0    0  503    0 -0.00000000000E+00 -0.00000000000E+00 -0.75931394124E+02  0.75931394124E+02  0.00000000000E+00 0.  1.
         21    1    1    2  503  502  0.19134447528E+02  0.95778251575E+01  0.10806032295E+02  0.23971486206E+02  0.00000000000E+00 0. -1.
          1    1    1    2  501    0 -0.19134447528E+02 -0.95778251575E+01 -0.67698088161E+02  0.70999246176E+02  0.00000000000E+00 0.  1.
</event>
<event>
 4    1  0.1635676E+006  0.2197330E+02  0.7546771E-02  0.1505809E+00
          2   -1    0    0  503    0 -0.00000000000E+00  0.00000000000E+00  0.10035713808E+04  0.10035713808E+04  0.00000000000E+00 0.  1.
         21   -1    0    0  501  502  0.00000000000E+00 -0.00000000000E+00 -0.10386916339E+01  0.10386916339E+01  0.00000000000E+00 0.  1.
         21    1    1    2  503  502  0.21970083020E+02 -0.37625591149E+00  0.13323969770E+03  0.13503941336E+03  0.00000000000E+00 0.  1.
          2    1    1    2  501    0 -0.21970083020E+02  0.37625591149E+00  0.86929299146E+03  0.86957065908E+03  0.00000000000E+00 0.  1.
</event>
<event>
 4    1  0.1635676E+006  0.2428318E+02  0.7546771E-02  0.1476985E+00
          1   -1    0    0  503    0 -0.00000000000E+00  0.00000000000E+00  0.23611042552E+01  0.23611042552E+01  0.00000000000E+00 0. -1.
         21   -1    0    0  501  502  0.00000000000E+00 -0.00000000000E+00 -0.25780906838E+03  0.25780906838E+03  0.00000000000E+00 0. -1.
         21    1    1    2  503  502  0.77564556924E+01  0.23011093468E+02 -0.15073132169E+03  0.15267483213E+03  0.00000000000E+00 0. -1.
          1    1    1    2  501    0 -0.77564556924E+01 -0.23011093468E+02 -0.10471664243E+03  0.10749534050E+03  0.00000000000E+00 0. -1.
</event>
<event>
 4    1  0.1635676E+006  0.2233397E+02  0.7546771E-02  0.1501035E+00
         21   -1    0    0  501  502  0.00000000000E+00  0.00000000000E+00  0.40032922191E+03  0.40032922191E+03  0.00000000000E+00 0. -1.
         -2   -1    0    0    0  501 -0.00000000000E+00 -0.00000000000E+00 -0.53191836093E+01  0.53191836093E+01  0.00000000000E+00 0. -1.
         21    1    1    2  503  502 -0.60378349633E+01 -0.21502341484E+02  0.37499131367E+03  0.37565581517E+03  0.00000000000E+00 0. -1.
         -2    1    1    2    0  503  0.60378349633E+01  0.21502341484E+02  0.20018724636E+02  0.29992590358E+02  0.00000000000E+00 0. -1.
</event>
<event>
 4    1  0.1635676E+006  0.2586374E+02  0.7546771E-02  0.1459368E+00
          1   -1    0    0  503    0 -0.00000000000E+00  0.00000000000E+00  0.19704248205E+02  0.19704248205E+02  0.00000000000E+00 0. -1.
         21   -1    0    0  501  502  0.00000000000E+00 -0.00000000000E+00 -0.28202170700E+03  0.28202170700E+03  0.00000000000E+00 0.  1.
         21    1    1    2  503  502  0.13477299987E+02  0.22074766475E+02 -0.27265050364E+03  0.27387447866E+03  0.00000000000E+00 0.  1.
          1    1    1    2  501    0 -0.13477299987E+02 -0.22074766475E+02  0.10333044841E+02  0.27851476542E+02  0.00000000000E+00 0. -1.
</event>
<event>
 4    1  0.1635676E+006  0.2323755E+02  0.7546771E-02  0.1489537E+00
         21   -1    0    0  501  502  0.00000000000E+00  0.00000000000E+00  0.99177079662E+00  0.99177079662E+00  0.00000000000E+00 0.  1.
          2   -1    0    0  503    0 -0.00000000000E+00 -0.00000000000E+00 -0.10211953654E+04  0.10211953654E+04  0.00000000000E+00 0. -1.
         21    1    1    2  503  502  0.21047917255E+02  0.98472872533E+01 -0.16089500608E+03  0.16256440837E+03  0.00000000000E+00 0.  1.
          2    1    1    2  501    0 -0.21047917255E+02 -0.98472872533E+01 -0.85930858857E+03  0.85962272787E+03  0.00000000000E+00 0. -1.
</event>
<event>
 4    1  0.1635676E+006  0.3982178E+02  0.7546771E-02  0.1349533E+00
         -1   -1    0    0    0  501 -0.00000000000E+00  0.00000000000E+00  0.36726553405E+03  0.36726553405E+03  0.00000000000E+00 0.  1.
         21   -1    0    0  503  502  0.00000000000E+00 -0.00000000000E+00 -0.18925649811E+02  0.18925649811E+02  0.00000000000E+00 0.  1.
         21    1    1    2  503  501 -0.23591513729E+02  0.32081380361E+02  0.45252425771E+01  0.40078077627E+02  0.00000000000E+00 0.  1.
         -1    1    1    2    0  502  0.23591513729E+02 -0.32081380361E+02  0.34381464166E+03  0.34611310623E+03  0.00000000000E+00 0.  1.
</event>
<event>
 4    1  0.1635676E+006  0.8902324E+02  0.7546771E-02  0.1184321E+00
         21   -1    0    0  503  502  0.00000000000E+00  0.00000000000E+00  0.14018356634E+03  0.14018356634E+03  0.00000000000E+00 0. -1.
          3   -1    0    0  502    0 -0.00000000000E+00 -0.00000000000E+00 -0.96410114915E+02  0.96410114915E+02  0.00000000000E+00 0.  1.
         21    1    1    2  503  501 -0.15938038299E+02 -0.87584908016E+02  0.97966337352E+02  0.13237273296E+03  0.00000000000E+00 0. -1.
          3    1    1    2  501    0  0.15938038299E+02  0.87584908016E+02 -0.54192885932E+02  0.10422094829E+03  0.00000000000E+00 0.  1.
</event>
<event>
 4    1  0.1635676E+006  0.2948432E+02  0.7546771E-02  0.1424131E+00
         21   -1    0    0  503  502  0.00000000000E+00  0.00000000000E+00  0.10986091881E+02  0.10986091881E+02  0.00000000000E+00 0.  1.
         -2   -1    0    0    0  501 -0.00000000000E+00 -0.00000000000E+00 -0.40804941522E+03  0.40804941522E+03  0.00000000000E+00 0.  1.
         21    1    1    2  503  501 -0.29101262323E+02 -0.47372654936E+01 -0.10422710476E+02  0.31272320778E+02  0.00000000000E+00 0.  1.
         -2    1    1    2    0  502  0.29101262323E+02  0.47372654936E+01 -0.38664061286E+03  0.38776318632E+03  0.00000000000E+00 0.  1.
</event>
<event>
 4    1  0.1635676E+006  0.2801349E+02  0.7546771E-02  0.1437685E+00
         21   -1    0    0  501  502  0.00000000000E+00  0.00000000000E+00  0.26219340164E+02  0.26219340164E+02  0.00000000000E+00 0. -1.
          1   -1    0    0  503    0 -0.00000000000E+00 -0.00000000000E+00 -0.38918008830E+02  0.38918008830E+02  0.00000000000E+00 0. -1.
         21    1    1    2  503  502  0.49008047948E+01 -0.27581478633E+02  0.93018204542E+01  0.29517447636E+02  0.00000000000E+00 0. -1.
          1    1    1    2  501    0 -0.49008047948E+01  0.27581478633E+02 -0.22000489120E+02  0.35619901358E+02  0.00000000000E+00 0. -1.
</event>
<event>
 4    1  0.1635676E+006  0.2522497E+02  0.7546771E-02  0.1466302E+00
         -1   -1    0    0    0  501 -0.00000000000E+00  0.00000000000E+00  0.29288357679E+02  0.29288357679E+02  0.00000000000E+00 0. -1.
         21   -1    0    0  501  502  0.00000000000E+00 -0.00000000000E+00 -0.22793879893E+03  0.22793879893E+03  0.00000000000E+00 0.  1.
         21    1    1    2  503  502 -0.19270672792E+02  0.16276991588E+02 -0.22165613048E+03  0.22308684288E+03  0.00000000000E+00 0.  1.
         -1    1    1    2    0  503  0.19270672792E+02 -0.16276991588E+02  0.23005689227E+02  0.34140313734E+02  0.00000000000E+00 0. -1.
</event>
<event>
 4    1  0.1635676E+006  0.3105123E+02  0.7546771E-02  0.1410676E+00
         -2   -1    0    0    0  501 -0.00000000000E+00  0.00000000000E+00  0.30215962137E+03  0.30215962137E+03  0.00000000000E+00 0.  1.
         21   -1    0    0  503  502  0.00000000000E+00 -0.00000000000E+00 -0.27374686094E+02  0.27374686094E+02  0.00000000000E+00 0. -1.
         21    1    1    2  503  501 -0.81868752231E+01 -0.29952532001E+02 -0.17474101864E+02  0.35630370966E+02  0.00000000000E+00 0. -1.
         -2    1    1    2    0  502  0.81868752231E+01  0.29952532001E+02  0.29225903714E+03  0.29390393650E+03  0.00000000000E+00 0.  1.
</event>
<event>
 4    1  0.1635676E+006  0.3784944E+02  0.7546771E-02  0.1361571E+00
         21   -1    0    0  501  502  0.00000000000E+00  0.00000000000E+00  0.10635634496E+03  0.10635634496E+03  0.00000000000E+00 0.  1.
          4   -1    0    0  503    0 -0.00000000000E+00 -0.00000000000E+00 -0.16152624105E+04  0.16152624105E+04  0.00000000000E+00 0. -1.
         21    1    1    2  503  502  0.63339158478E+00  0.37844142815E+02  0.10275969871E+03  0.10950861158E+03  0.00000000000E+00 0.  1.
          4    1    1    2  501    0 -0.63339158478E+00 -0.37844142815E+02 -0.16116657642E+04  0.16121101439E+04  0.00000000000E+00 0. -1.
</event>
<event>
 4    1  0.1635676E+006  0.2162657E+02  0.7546771E-02  0.1510504E+00
         -2   -1    0    0    0  501 -0.00000000000E+00  0.00000000000E+00  0.16389563950E+02  0.16389563950E+02  0.00000000000E+00 0. -1.
         21   -1    0    0  503  502  0.00000000000E+00 -0.00000000000E+00 -0.54253157311E+02  0.54253157311E+02  0.00000000000E+00 0. -1.
         21    1    1    2  503  501 -0.18807316828E+02  0.10676776121E+02 -0.43249810062E+02  0.48355504185E+02  0.00000000000E+00 0. -1.
         -2    1    1    2    0  502  0.18807316828E+02 -0.10676776121E+02  0.53862167012E+01  0.22287217075E+02  0.00000000000E+00 0. -1.
</event>
<event>
 4    1  0.1635676E+006  0.3385247E+02  0.7546771E-02  0.1388815E+00
          2   -1    0    0  502    0 -0.00000000000E+00  0.00000000000E+00  0.13231285380E+02  0.13231285380E+02  0.00000000000E+00 0. -1.
         21   -1    0    0  503  502  0.00000000000E+00 -0.00000000000E+00 -0.10755580671E+03  0.10755580671E+03  0.00000000000E+00 0.  1.
         21    1    1    2  503  501  0.11159177915E+01  0.33834069453E+02 -0.73812448983E+02  0.81205093147E+02  0.00000000000E+00 0.  1.
          2    1    1    2  501    0 -0.11159177915E+01 -0.33834069453E+02 -0.20512072346E+02  0.39581998941E+02  0.00000000000E+00 0. -1.
</event>
<event>
 4    1  0.1635676E+006  0.2353782E+02  0.7546771E-02  0.1485853E+00
          2   -1    0    0  502    0 -0.00000000000E+00  0.00000000000E+00  0.14812337754E+04  0.14812337754E+04  0.00000000000E+00 0. -1.
         21   -1    0    0  503  502  0.00000000000E+00 -0.00000000000E+00 -0.11115637531E+03  0.11115637531E+03  0.00000000000E+00 0. -1.
         21    1    1    2  503  501  0.22662478712E+02 -0.63593434466E+01 -0.10981568040E+03  0.11230989651E+03  0.00000000000E+00 0. -1.
          2    1    1    2  501    0 -0.22662478712E+02  0.63593434466E+01  0.14798930805E+04  0.14800802542E+04  0.00000000000E+00 0. -1.
</event>
<event>
 4    1  0.1635676E+006  0.2094981E+02  0.7546771E-02  0.1519983E+00
         21   -1    0    0  501  502  0.00000000000E+00  0.00000000000E+00  0.31432937711E+01  0.31432937711E+01  0.00000000000E+00 0. -1.
          1   -1    0    0  503    0 -0.00000000000E+00 -0.00000000000E+00 -0.14600001621E+03  0.14600001621E+03  0.00000000000E+00 0.  1.
         21    1    1    2  503  502 -0.19495419297E+02 -0.76696126852E+01 -0.55850473995E+02  0.59650396292E+02  0.00000000000E+00 0. -1.
          1    1    1    2  501    0  0.19495419297E+02  0.76696126852E+01 -0.87006248447E+02  0.89492913692E+02  0.00000000000E+00 0.  1.
</event>
<event>
 4    1  0.1635676E+006  0.2128635E+02  0.7546771E-02  0.1515216E+00
         21   -1    0    0  501  502  0.00000000000E+00  0.00000000000E+00  0.12273895917E+01  0.12273895917E+01  0.00000000000E+00 0.  1.
          2   -1    0    0  503    0 -0.00000000000E+00 -0.00000000000E+00 -0.42138765888E+03  0.42138765888E+03  0.00000000000E+00 0. -1.
         21    1    1    2  503  502  0.13893063293E+02  0.16127353964E+02 -0.13569171638E+03  0.13735119456E+03  0.00000000000E+00 0.  1.
          2    1    1    2  501    0 -0.13893063293E+02 -0.16127353964E+02 -0.28446855291E+03  0.28526385391E+03  0.00000000000E+00 0. -1.
</event>
<event>
 4    1  0.1635676E+006  0.3231477E+02  0.7546771E-02  0.1400492E+00
          3   -1    0    0  502    0 -0.00000000000E+00  0.00000000000E+00  0.13482080743E+03  0.13482080743E+03  0.00000000000E+00 0.  1.
         21   -1    0    0  503  502  0.00000000000E+00 -0.00000000000E+00 -0.39811587856E+02  0.39811587856E+02  0.00000000000E+00 0. -1.
         21    1    1    2  503  501  0.29671254150E+02 -0.12800829023E+02 -0.30858842001E+02  0.44682353073E+02  0.00000000000E+00 0. -1.
          3    1    1    2  501    0 -0.29671254150E+02  0.12800829023E+02  0.12586806158E+03  0.12995004221E+03  0.00000000000E+00 0.  1.
</event>
<event>
 4    1  0.1635676E+006  0.2915859E+02  0.7546771E-02  0.1427052E+00
         21   -1    0    0  503  502  0.00000000000E+00  0.00000000000E+00  0.19151748320E+03  0.19151748320E+03  0.00000000000E+00 0.  1.
          3   -1    0    0  502    0 -0.00000000000E+00 -0.00000000000E+00 -0.12435133884E+02  0.12435133884E+02  0.00000000000E+00 0.  1.
         21    1    1    2  503  501  0.28801434872E+02  0.45498317047E+01  0.17131288688E+03  0.17377666365E+03  0.00000000000E+00 0.  1.
          3    1    1    2  501    0 -0.28801434872E+02 -0.45498317047E+01  0.77694624436E+01  0.30175953438E+02  0.00000000000E+00 0.  1.
</event>
<event>
 4    1  0.1635676E+006  0.2660917E+02  0.7546771E-02  0.1451574E+00
          1   -1    0    0  502    0 -0.00000000000E+00  0.00000000000E+00  0.12537177660E+02  0.12537177660E+02  0.00000000000E+00 0.  1.
         21   -1    0    0  503  502  0.00000000000E+00 -0.00000000000E+00 -0.20052518278E+03  0.20052518278E+03  0.00000000000E+00 0.  1.
         21    1    1    2  503  501  0.12355827401E+02 -0.23566531594E+02 -0.18428571492E+03  0.18619686519E+03  0.00000000000E+00 0.  1.
          1    1    1    2  501    0 -0.12355827401E+02  0.23566531594E+02 -0.37022901938E+01  0.26865495246E+02  0.00000000000E+00 0.  1.
</event>
<event>
 4    1  0.1635676E+006  0.2412195E+02  0.7546771E-02  0.1478871E+00
         21   -1    0    0  503  502  0.00000000000E+00  0.00000000000E+00  0.42594053281E+02  0.42594053281E+02  0.00000000000E+00 0. -1.
          1   -1    0    0  502    0 -0.00000000000E+00 -0.00000000000E+00 -0.42119214304E+02  0.42119214304E+02  0.00000000000E+00 0.  1.
         21    1    1    2  503  501 -0.60348447416E+01 -0.23354847303E+02  0.35054052014E+02  0.42551789694E+02  0.00000000000E+00 0. -1.
          1    1    1    2  501    0  0.60348447416E+01  0.23354847303E+02 -0.34579213037E+02  0.42161477890E+02  0.00000000000E+00 0.  1.
</event>
<event>
 4    1  0.1635676E+006  0.2148908E+02  0.7546771E-02  0.1512395E+00
         21   -1    0    0  503  502  0.00000000000E+00  0.00000000000E+00  0.32293965451E+02  0.32293965451E+02  0.00000000000E+00 0. -1.
          3   -1    0    0  502    0 -0.00000000000E+00 -0.00000000000E+00 -0.10966822873E+03  0.10966822873E+03  0.00000000000E+00 0.  1.
         21    1    1    2  503  501 -0.16113943751E+02 -0.14216943009E+02  0.27504909997E+02  0.34904164876E+02  0.00000000000E+00 0. -1.
          3    1    1    2  501    0  0.16113943751E+02  0.14216943009E+02 -0.10487917328E+03  0.10705802930E+03  0.00000000000E+00 0.  1.
</event>
<event>
 4    1  0.1635676E+006  0.2257576E+02  0.7546771E-02  0.1497895E+00
         21   -1    0    0  503  502  0.00000000000E+00  0.00000000000E+00  0.49252620427E+03  0.49252620427E+03  0.00000000000E+00 0. -1.
         -3   -1    0    0    0  501 -0.00000000000E+00 -0.00000000000E+00 -0.67601073288E+02  0.67601073288E+02  0.00000000000E+00 0.  1.
         21    1    1    2  503  501  0.22197354217E+02 -0.41161235031E+01  0.49037441262E+03  0.49089380680E+03  0.00000000000E+00 0. -1.
         -3    1    1    2    0  502 -0.22197354217E+02  0.41161235031E+01 -0.65449281633E+02  0.69233470758E+02  0.00000000000E+00 0.  1.
</event>
<event>
 4    1  0.1635676E+006  0.2405669E+02  0.7546771E-02  0.1479639E+00
          2   -1    0    0  503    0 -0.00000000000E+00  0.00000000000E+00  0.99383710666E+03  0.99383710666E+03  0.00000000000E+00 0.  1.
         21   -1    0    0  501  502  0.00000000000E+00 -0.00000000000E+00 -0.46315105543E+01  0.46315105543E+01  0.00000000000E+00 0.  1.
         21    1    1    2  503  502 -0.21455006321E+02 -0.10881499638E+02  0.27806316459E+02  0.36768404447E+02  0.00000000000E+00 0.  1.
          2    1    1    2  501    0  0.21455006321E+02  0.10881499638E+02  0.96139927964E+03  0.96170021276E+03  0.00000000000E+00 0.  1.
</event>
<event>
 4    1  0.1635676E+006  0.2291389E+02  0.7546771E-02  0.1493582E+00
         21   -1    0    0  503  502  0.00000000000E+00  0.00000000000E+00  0.12432465646E+03  0.12432465646E+03  0.00000000000E+00 0.  1.
         -2   -1    0    0    0  501 -0.00000000000E+00 -0.00000000000E+00 -0.54031195082E+01  0.54031195082E+01  0.00000000000E+00 0. -1.
         21    1    1    2  503  501 -0.57352841836E+01  0.22184520868E+02  0.89772378879E+02  0.92650561037E+02  0.00000000000E+00 0.  1.
         -2    1    1    2    0  502  0.57352841836E+01 -0.22184520868E+02  0.29149158078E+02  0.37077214936E+02  0.00000000000E+00 0. -1.
</event>
<event>
 4    1  0.1635676E+006  0.2010960E+02  0.7546771E-02  0.1532367E+00
         21   -1    0    0  501  502  0.00000000000E+00  0.00000000000E+00  0.52394202501E+01  0.52394202501E+01  0.00000000000E+00 0.  1.
          1   -1    0    0  503    0 -0.00000000000E+00 -0.00000000000E+00 -0.95965256756E+02  0.95965256756E+02  0.00000000000E+00 0.  1.
         21    1    1    2  503  502  0.20096688152E+02 -0.72063716943E+00 -0.22976583016E+02  0.30533908360E+02  0.00000000000E+00 0.  1.
          1    1    1    2  501    0 -0.20096688152E+02  0.72063716943E+00 -0.67749253490E+02  0.70670768646E+02  0.00000000000E+00 0.  1.
</event>
<event>
 4    1  0.1635676E+006  0.2604428E+02  0.7546771E-02  0.1457452E+00
         -3   -1    0    0    0  501 -0.00000000000E+00  0.00000000000E+00  0.87074173836E+02  0.87074173836E+02  0.00000000000E+00 0. -1.
         21   -1    0    0  503  502  0.00000000000E+00 -0.00000000000E+00 -0.12288980955E+02  0.12288980955E+02  0.00000000000E+00 0.  1.
         21    1    1    2  503  501 -0.12345551868E+02  0.22932336295E+02  0.73320933335E+01  0.27056686632E+02  0.00000000000E+00 0.  1.
         -3    1    1    2    0  502  0.12345551868E+02 -0.22932336295E+02  0.67453099548E+02  0.72306468158E+02  0.00000000000E+00 0. -1.
</event>
<event>
 4    1  0.1635676E+006  0.3112139E+02  0.7546771E-02  0.1410095E+00
         -1   -1    0    0    0  501 -0.00000000000E+00  0.00000000000E+00  0.61522656095E+03  0.61522656095E+03  0.00000000000E+00 0. -1.
         21   -1    0    0  503  502  0.00000000000E+00 -0.00000000000E+00 -0.15768637196E+01  0.15768637196E+01  0.00000000000E+00 0. -1.
         21    1    1    2  503  501  0.79397121606E+01 -0.30091560324E+02  0.29434966611E+03  0.29599031567E+03  0.00000000000E+00 0. -1.
         -1    1    1    2    0  502 -0.79397121606E+01  0.30091560324E+02  0.31930003112E+03  0.32081310899E+03  0.00000000000E+00 0. -1.
</event>
<event>
 4    1  0.1635676E+006  0.2072855E+02  0.7546771E-02  0.1523176E+00
         21   -1    0    0  501  502  0.00000000000E+00  0.00000000000E+00  0.22008199205E+01  0.22008199205E+01  0.00000000000E+00 0.  1.
          2   -1    0    0  503    0 -0.00000000000E+00 -0.00000000000E+00 -0.60762071349E+03  0.60762071349E+03  0.00000000000E+00 0. -1.
         21    1    1    2  503  502  0.62177085149E+01  0.19774048282E+02 -0.51515934082E+02  0.55529850972E+02  0.00000000000E+00 0.  1.
          2    1    1    2  501    0 -0.62177085149E+01 -0.19774048282E+02 -0.55390395949E+03  0.55429168244E+03  0.00000000000E+00 0. -1.
</event>
<event>
 4    1  0.1635676E+006  0.2738184E+02  0.7546771E-02  0.1443810E+00
         21   -1    0    0  503  502  0.00000000000E+00  0.00000000000E+00  0.99704258893E+00  0.99704258893E+00  0.00000000000E+00 0. -1.
         -4   -1    0    0    0  501 -0.00000000000E+00 -0.00000000000E+00 -0.99623068236E+03  0.99623068236E+03  0.00000000000E+00 0.  1.
         21    1    1    2  503  501 -0.27379981536E+02  0.31909250395E+00 -0.25073213496E+03  0.25222285525E+03  0.00000000000E+00 0. -1.
         -4    1    1    2    0  502  0.27379981536E+02 -0.31909250395E+00 -0.74450150481E+03  0.74500486970E+03  0.00000000000E+00 0.  1.
</event>
<event>
 4    1  0.1635676E+006  0.2000532E+02  0.7546771E-02  0.1533954E+00
         21   -1    0    0  503  502  0.00000000000E+00  0.00000000000E+00  0.43408801586E+01  0.43408801586E+01  0.00000000000E+00 0.  1.
          1   -1    0    0  502    0 -0.00000000000E+00 -0.00000000000E+00 -0.25932476982E+03  0.25932476982E+03  0.00000000000E+00 0.  1.
         21    1    1    2  503  501 -0.86980638739E+01  0.18015446873E+02 -0.21657530568E+02  0.29483237127E+02  0.00000000000E+00 0.  1.
          1    1    1    2  501    0  0.86980638739E+01 -0.18015446873E+02 -0.23332635909E+03  0.23418241285E+03  0.00000000000E+00 0.  1.
</event>
<event>
 4    1  0.1635676E+006  0.2467175E+02  0.7546771E-02  0.1472509E+00
         21   -1    0    0  503  502  0.00000000000E+00  0.00000000000E+00  0.11576378364E+01  0.11576378364E+01  0.00000000000E+00 0.  1.
          2   -1    0    0  502    0 -0.00000000000E+00 -0.00000000000E+00 -0.15272775452E+04  0.15272775452E+04  0.00000000000E+00 0.  1.
         21    1    1    2  503  501 -0.17734484211E+02  0.17151772013E+02 -0.14422202366E+03  0.14631707802E+03  0.00000000000E+00 0.  1.
          2    1    1    2  501    0  0.17734484211E+02 -0.17151772013E+02 -0.13818978837E+04  0.13821181050E+04  0.00000000000E+00 0.  1.
</event>
<event>
 4    1  0.1635676E+006  0.2391467E+02  0.7546771E-02  0.1481321E+00
          2   -1    0    0  503    0 -0.00000000000E+00  0.00000000000E+00  0.98103757398E+02  0.98103757398E+02  0.00000000000E+00 0. -1.
         21   -1    0    0  501  502  0.00000000000E+00 -0.00000000000E+00 -0.83607191882E+01  0.83607191882E+01  0.00000000000E+00 0.  1.
         21    1    1    2  503  502 -0.67798585128E+01 -0.22933485686E+02  0.15582533887E+02  0.28543416220E+02  0.00000000000E+00 0.  1.
          2    1    1    2  501    0  0.67798585128E+01  0.22933485686E+02  0.74160504324E+02  0.77921060367E+02  0.00000000000E+00 0. -1.
</event>
<event>
 4    1  0.1635676E+006  0.4666835E+02  0.7546771E-02  0.1313302E+00
         -4   -1    0    0    0  501 -0.00000000000E+00  0.00000000000E+00  0.24279551261E+03  0.24279551261E+03  0.00000000000E+00 0. -1.
         21   -1    0    0  503  502  0.00000000000E+00 -0.00000000000E+00 -0.47997804225E+02  0.47997804225E+02  0.00000000000E+00 0. -1.
         21    1    1    2  503  501 -0.38047523712E+02  0.27024453564E+02 -0.33709219954E+02  0.57569494187E+02  0.00000000000E+00 0. -1.
         -4    1    1    2    0  502  0.38047523712E+02 -0.27024453564E+02  0.22850692834E+03  0.23322382264E+03  0.00000000000E+00 0. -1.
</event>
<event>
 4    1  0.1635676E+006  0.3190448E+02  0.7546771E-02  0.1403738E+00
          3   -1    0    0  503    0 -0.00000000000E+00  0.00000000000E+00  0.83018352749E+03  0.83018352749E+03  0.00000000000E+00 0. -1.
         21   -1    0    0  501  502  0.00000000000E+00 -0.00000000000E+00 -0.29482355580E+01  0.29482355580E+01  0.00000000000E+00 0.  1.
         21    1    1    2  503  502  0.10401312927E+02 -0.30161373083E+02  0.95245472701E+02  0.10044698008E+03  0.00000000000E+00 0.  1.
          3    1    1    2  501    0 -0.10401312927E+02  0.30161373083E+02  0.73198981923E+03  0.73268478297E+03  0.00000000000E+00 0. -1.
</event>
<event>
 4    1  0.1635676E+006  0.2026471E+02  0.7546771E-02  0.1530027E+00
         21   -1    0    0  501  502  0.00000000000E+00  0.00000000000E+00  0.25107820866E+02  0.25107820866E+02  0.00000000000E+00 0.  1.
         -1   -1    0    0    0  501 -0.00000000000E+00 -0.00000000000E+00 -0.36604174331E+02  0.36604174331E+02  0.00000000000E+00 0.  1.
         21    1    1    2  503  502  0.16006681647E+02  0.12427575611E+02  0.17201119218E+02  0.26580763632E+02  0.00000000000E+00 0.  1.
         -1    1    1    2    0  503 -0.16006681647E+02 -0.12427575611E+02 -0.28697472683E+02  0.35131231566E+02  0.00000000000E+00 0.  1.
</event>
<event>
 4    1  0.1635676E+006  0.2452932E+02  0.7546771E-02  0.1474138E+00
         21   -1    0    0  503  502  0.00000000000E+00  0.00000000000E+00  0.90735260995E+02  0.90735260995E+02  0.00000000000E+00 0.  1.
         -1   -1    0    0    0  501 -0.00000000000E+00 -0.00000000000E+00 -0.96343080370E+01  0.96343080370E+01  0.00000000000E+00 0.  1.
         21    1    1    2  503  501 -0.11829640263E+02 -0.21488305231E+02  0.68568926085E+02  0.72824345345E+02  0.00000000000E+00 0.  1.
         -1    1    1    2    0  502  0.11829640263E+02  0.21488305231E+02  0.12532026874E+02  0.27545223688E+02  0.00000000000E+00 0.  1.
</event>
<event>
 4    1  0.1635676E+006  0.2630623E+02  0.7546771E-02  0.1454704E+00
          2   -1    0    0  502    0 -0.00000000000E+00  0.00000000000E+00  0.61968151887E+03  0.61968151887E+03  0.00000000000E+00 0.  1.
         21   -1    0    0  503  502  0.00000000000E+00 -0.00000000000E+00 -0.34131863421E+02  0.34131863421E+02  0.00000000000E+00 0.  1.
         21    1    1    2  503  501 -0.19419692228E+02 -0.17745235081E+02 -0.28739498590E+02  0.38961219097E+02  0.00000000000E+00 0.  1.
          2    1    1    2  501    0  0.19419692228E+02  0.17745235081E+02  0.61428915404E+03  0.61485216319E+03  0.00000000000E+00 0.  1.
</event>
<event>
 4    1  0.1635676E+006  0.3099808E+02  0.7546771E-02  0.1411117E+00
          1   -1    0    0  503    0 -0.00000000000E+00  0.00000000000E+00  0.75784031971E+01  0.75784031971E+01  0.00000000000E+00 0.  1.
         21   -1    0    0  501  502  0.00000000000E+00 -0.00000000000E+00 -0.37787122576E+03  0.37787122576E+03  0.00000000000E+00 0.  1.
         21    1    1    2  503  502  0.24284949212E+02 -0.19264533137E+02 -0.34224457344E+03  0.34364549908E+03  0.00000000000E+00 0.  1.
          1    1    1    2  501    0 -0.24284949212E+02  0.19264533137E+02 -0.28048249125E+02  0.41804129870E+02  0.00000000000E+00 0.  1.
</event>
<event>
 4    1  0.1635676E+006  0.2491915E+02  0.7546771E-02  0.1469710E+00
         21   -1    0    0  503  502  0.00000000000E+00  0.00000000000E+00  0.13917093557E+03  0.13917093557E+03  0.00000000000E+00 0. -1.
         -3   -1    0    0    0  501 -0.00000000000E+00 -0.00000000000E+00 -0.10379506900E+02  0.10379506900E+02  0.00000000000E+00 0.  1.
         21    1    1    2  503  501  0.38676060087E+01 -0.24617181956E+02  0.12085600804E+03  0.12339829295E+03  0.00000000000E+00 0. -1.
         -3    1    1    2    0  502 -0.38676060087E+01  0.24617181956E+02  0.79354206254E+01  0.26152149514E+02  0.00000000000E+00 0.  1.
</event>
<event>
 4    1  0.1635676E+006  0.3321914E+02  0.7546771E-02  0.1393535E+00
         -2   -1    0    0    0  501 -0.00000000000E+00  0.00000000000E+00  0.39684334485E+02  0.39684334485E+02  0.00000000000E+00 0. -1.
         21   -1    0    0  501  502  0.00000000000E+00 -0.00000000000E+00 -0.45320511395E+02  0.45320511395E+02  0.00000000000E+00 0.  1.
         21    1    1    2  503  502  0.14183175205E+02 -0.30039123322E+02 -0.29239137620E+02  0.44254249035E+02  0.00000000000E+00 0.  1.
         -2    1    1    2    0  503 -0.14183175205E+02  0.30039123322E+02  0.23602960710E+02  0.40750596844E+02  0.00000000000E+00 0. -1.
</event>
<event>
 4    1  0.1635676E+006  0.2779620E+02  0.7546771E-02  0.1439770E+00
         21   -1    0    0  501  502  0.00000000000E+00  0.00000000000E+00  0.42324379210E+03  0.42324379210E+03  0.00000000000E+00 0. -1.
          3   -1    0    0  503    0 -0.00000000000E+00 -0.00000000000E+00 -0.18675393121E+01  0.18675393121E+01  0.00000000000E+00 0. -1.
         21    1    1    2  503  502 -0.27793156617E+02 -0.41136521284E+00  0.24258141983E+03  0.24416874088E+03  0.00000000000E+00 0. -1.
          3    1    1    2  501    0  0.27793156617E+02  0.41136521284E+00  0.17879483296E+03  0.18094259053E+03  0.00000000000E+00 0. -1.
</event>
<event>
 4    1  0.1635676E+006  0.3109283E+02  0.7546771E-02  0.1410332E+00
          3   -1    0    0  502    0 -0.00000000000E+00  0.00000000000E+00  0.29494602367E+01  0.29494602367E+01  0.00000000000E+00 0. -1.
         21   -1    0    0  503  502  0.00000000000E+00 -0.00000000000E+00 -0.16236402342E+04  0.16236402342E+04  0.00000000000E+00 0.  1.
         21    1    1    2  503  501  0.10744594669E+02 -0.29177344874E+02 -0.15369242934E+04  0.15372387737E+04  0.00000000000E+00 0.  1.
          3    1    1    2  501    0 -0.10744594669E+02  0.29177344874E+02 -0.83766480618E+02  0.89350920777E+02  0.00000000000E+00 0. -1.
</event>
<event>
 4    1  0.1635676E+006  0.4785991E+02  0.7546771E-02  0.1307728E+00
          1   -1    0    0  502    0 -0.00000000000E+00  0.00000000000E+00  0.39572340067E+03  0.39572340067E+03  0.00000000000E+00 0.  1.
         21   -1    0    0  503  502  0.00000000000E+00 -0.00000000000E+00 -0.98842632395E+01  0.98842632395E+01  0.00000000000E+00 0.  1.
         21    1    1    2  503  501  0.34244655697E+02  0.33434636387E+02  0.62368244653E+02  0.78615324812E+02  0.00000000000E+00 0.  1.
          1    1    1    2  501    0 -0.34244655697E+02 -0.33434636387E+02  0.32347089278E+03  0.32699233910E+03  0.00000000000E+00 0.  1.
</event>
<event>
 4    1  0.1635676E+006  0.2515667E+02  0.7546771E-02  0.1467058E+00
          1   -1    0    0  502    0 -0.00000000000E+00  0.00000000000E+00  0.13750883392E+04  0.13750883392E+04  0.00000000000E+00 0. -1.
         21   -1    0    0  503  502  0.00000000000E+00 -0.00000000000E+00 -0.90247304298E+00  0.90247304298E+00  0.00000000000E+00 0. -1.
         21    1    1    2  503  501  0.17996661514E+02 -0.17577779812E+02  0.20547963132E+03  0.20701385716E+03  0.00000000000E+00 0. -1.
          1    1    1    2  501    0 -0.17996661514E+02  0.17577779812E+02  0.11687062349E+04  0.11689769551E+04  0.00000000000E+00 0. -1.
</event>
<event>
 4    1  0.1635676E+006  0.2154555E+02  0.7546771E-02  0.1511616E+00
         -2   -1    0    0    0  501 -0.00000000000E+00  0.00000000000E+00  0.66356794109E+02  0.66356794109E+02  0.00000000000E+00 0. -1.
         21   -1    0    0  501  502  0.00000000000E+00 -0.00000000000E+00 -0.25163638418E+02  0.25163638418E+02  0.00000000000E+00 0.  1.
         21    1    1    2  503  502  0.18859881619E+02 -0.10417076952E+02 -0.18285947392E+02  0.28259272795E+02  0.00000000000E+00 0.  1.
         -2    1    1    2    0  503 -0.18859881619E+02  0.10417076952E+02  0.59479103084E+02  0.63261159731E+02  0.00000000000E+00 0. -1.
</event>
<event>
 4    1  0.1635676E+006  0.2877598E+02  0.7546771E-02  0.1430540E+00
         -4   -1    0    0    0  501 -0.00000000000E+00  0.00000000000E+00  0.10854137445E+03  0.10854137445E+03  0.00000000000E+00 0.  1.
         21   -1    0    0  501  502  0.00000000000E+00 -0.00000000000E+00 -0.26163851802E+02  0.26163851802E+02  0.00000000000E+00 0. -1.
         21    1    1    2  503  502  0.15757967084E+02  0.24077864710E+02 -0.15500227938E+02  0.32685075519E+02  0.00000000000E+00 0. -1.
         -4    1    1    2    0  503 -0.15757967084E+02 -0.24077864710E+02  0.97877750585E+02  0.10202015073E+03  0.00000000000E+00 0.  1.
</event>
<event>
 4    1  0.1635676E+006  0.2773831E+02  0.7546771E-02  0.1440329E+00
          1   -1    0    0  502    0 -0.00000000000E+00  0.00000000000E+00  0.29355131269E+03  0.29355131269E+03  0.00000000000E+00 0. -1.
         21   -1    0    0  503  502  0.00000000000E+00 -0.00000000000E+00 -0.37665211223E+01  0.37665211223E+01  0.00000000000E+00 0. -1.
         21    1    1    2  503  501  0.27229613515E+02 -0.52879070400E+01  0.62911606771E+02  0.68755247651E+02  0.00000000000E+00 0. -1.
          1    1    1    2  501    0 -0.27229613515E+02  0.52879070400E+01  0.22687318480E+03  0.22856258617E+03  0.00000000000E+00 0. -1.
</event>
<event>
 4    1  0.1635676E+006  0.2389240E+02  0.7546771E-02  0.1481586E+00
          2   -1    0    0  503    0 -0.00000000000E+00  0.00000000000E+00  0.15172200810E+04  0.15172200810E+04  0.00000000000E+00 0.  1.
         21   -1    0    0  501  502  0.00000000000E+00 -0.00000000000E+00 -0.11313550562E+01  0.11313550562E+01  0.00000000000E+00 0. -1.
         21    1    1    2  503  502 -0.49680861382E+01 -0.23370168020E+02  0.13782125377E+03  0.13987689095E+03  0.00000000000E+00 0. -1.
          2    1    1    2  501    0  0.49680861382E+01  0.23370168020E+02  0.13782674722E+04  0.13784745451E+04  0.00000000000E+00 0.  1.
</event>
<event>
 4    1  0.1635676E+006  0.3033889E+02  0.7546771E-02  0.1416674E+00
         21   -1    0    0  501  502  0.00000000000E+00  0.00000000000E+00  0.22651542918E+03  0.22651542918E+03  0.00000000000E+00 0. -1.
          3   -1    0    0  503    0 -0.00000000000E+00 -0.00000000000E+00 -0.25372603186E+02  0.25372603186E+02  0.00000000000E+00 0.  1.
         21    1    1    2  503  502  0.59139281852E+01  0.29756906245E+02  0.21599046294E+03  0.21811081610E+03  0.00000000000E+00 0. -1.
          3    1    1    2  501    0 -0.59139281852E+01 -0.29756906245E+02 -0.14847636950E+02  0.33777216269E+02  0.00000000000E+00 0.  1.
</event>
<event>
 4    1  0.1635676E+006  0.2161053E+02  0.7546771E-02  0.1510724E+00
         21   -1    0    0  501  502  0.00000000000E+00  0.00000000000E+00  0.72341612715E+00  0.72341612715E+00  0.00000000000E+00 0.  1.
          2   -1    0    0  503    0 -0.00000000000E+00 -0.00000000000E+00 -0.17270280016E+04  0.17270280016E+04  0.00000000000E+00 0.  1.
         21    1    1    2  503  502  0.67974121528E+01  0.20513654044E+02 -0.17954504049E+03  0.18084091456E+03  0.00000000000E+00 0.  1.
          2    1    1    2  501    0 -0.67974121528E+01 -0.20513654044E+02 -0.15467595450E+04  0.15469105032E+04  0.00000000000E+00 0.  1.
</event>
<event>
 4    1  0.1635676E+006  0.2131072E+02  0.7546771E-02  0.1514874E+00
         21   -1    0    0  503  502  0.00000000000E+00  0.00000000000E+00  0.22431757927E+03  0.22431757927E+03  0.00000000000E+00 0. -1.
          1   -1    0    0  502    0 -0.00000000000E+00 -0.00000000000E+00 -0.30600424284E+01  0.30600424284E+01  0.00000000000E+00 0. -1.
         21    1    1    2  503  501 -0.20554858913E+02 -0.56253626787E+01  0.17676249563E+03  0.17804248592E+03  0.00000000000E+00 0. -1.
          1    1    1    2  501    0  0.20554858913E+02  0.56253626787E+01  0.44495041216E+02  0.49335135786E+02  0.00000000000E+00 0. -1.
</event>
<event>
 4    1  0.1635676E+006  0.2444694E+02  0.7546771E-02  0.1475086E+00
          2   -1    0    0  502    0 -0.00000000000E+00  0.00000000000E+00  0.68421655846E+02  0.68421655846E+02  0.00000000000E+00 0.  1.
         21   -1    0    0  503  502  0.00000000000E+00 -0.00000000000E+00 -0.62608027040E+02  0.62608027040E+02  0.00000000000E+00 0. -1.
         21    1    1    2  503  501  0.27267888467E+01  0.24294392664E+02 -0.57866228165E+02  0.62818414931E+02  0.00000000000E+00 0. -1.
          2    1    1    2  501    0 -0.27267888467E+01 -0.24294392664E+02  0.63679856971E+02  0.68211267956E+02  0.00000000000E+00 0.  1.
</event>
<event>
 4    1  0.1635676E+006  0.2487923E+02  0.7546771E-02  0.1470159E+00
         21   -1    0    0  501  502  0.00000000000E+00  0.00000000000E+00  0.19763912921E+02  0.19763912921E+02  0.00000000000E+00 0.  1.
         -2   -1    0    0    0  501 -0.00000000000E+00 -0.00000000000E+00 -0.54262839812E+03  0.54262839812E+03  0.00000000000E+00 0. -1.
         21    1    1    2  503  502  0.69650996307E+01  0.23884378373E+02  0.11528517426E+02  0.27420482439E+02  0.00000000000E+00 0.  1.
         -2    1    1    2    0  503 -0.69650996307E+01 -0.23884378373E+02 -0.53439300262E+03  0.53497182860E+03  0.00000000000E+00 0. -1.
</event>
<event>
 4    1  0.1635676E+006  0.2490199E+02  0.7546771E-02  0.1469903E+00
         21   -1    0    0  501  502  0.00000000000E+00  0.00000000000E+00  0.12605053752E+01  0.12605053752E+01  0.00000000000E+00 0. -1.
         -4   -1    0    0    0  501 -0.00000000000E+00 -0.00000000000E+00 -0.75604999475E+03  0.75604999475E+03  0.00000000000E+00 0.  1.
         21    1    1    2  503  502  0.21345475657E+02  0.12824967110E+02 -0.15359960876E+03  0.15560510571E+03  0.00000000000E+00 0. -1.
         -4    1    1    2    0  503 -0.21345475657E+02 -0.12824967110E+02 -0.60118988062E+03  0.60170539442E+03  0.00000000000E+00 0.  1.
</event>
<event>
 4    1  0.1635676E+006  0.2534051E+02  0.7546771E-02  0.1465030E+00
         21   -1    0    0  501  502  0.00000000000E+00  0.00000000000E+00  0.32461053354E+01  0.32461053354E+01  0.00000000000E+00 0. -1.
          1   -1    0    0  503    0 -0.00000000000E+00 -0.00000000000E+00 -0.38536496021E+03  0.38536496021E+03  0.00000000000E+00 0.  1.
         21    1    1    2  503  502  0.16157320990E+02  0.19521329460E+02 -0.55508370800E+02  0.61019017973E+02  0.00000000000E+00 0. -1.
          1    1    1    2  501    0 -0.16157320990E+02 -0.19521329460E+02 -0.32661048407E+03  0.32759204757E+03  0.00000000000E+00 0.  1.
</event>
<event>
 4    1  0.1635676E+006  0.2297567E+02  0.7546771E-02  0.1492804E+00
          1   -1    0    0  503    0 -0.00000000000E+00  0.00000000000E+00  0.61714873845E+03  0.61714873845E+03  0.00000000000E+00 0.  1.
         21   -1    0    0  501  502  0.00000000000E+00 -0.00000000000E+00 -0.12665159062E+01  0.12665159062E+01  0.00000000000E+00 0. -1.
         21    1    1    2  503  502 -0.90363676415E+01  0.21124046818E+02  0.13176348624E+03  0.13375162653E+03  0.00000000000E+00 0. -1.
          1    1    1    2  501    0  0.90363676415E+01 -0.21124046818E+02  0.48411873630E+03  0.48466362782E+03  0.00000000000E+00 0.  1.
</event>
<event>
 4    1  0.1635676E+006  0.2034714E+02  0.7546771E-02  0.1528794E+00
         -1   -1    0    0    0  501 -0.00000000000E+00  0.00000000000E+00  0.19853399664E+03  0.19853399664E+03  0.00000000000E+00 0. -1.
         21   -1    0    0  503  502  0.00000000000E+00 -0.00000000000E+00 -0.25986788305E+02  0.25986788305E+02  0.00000000000E+00 0.  1.
         21    1    1    2  503  501  0.14297195375E+02  0.14477438025E+02 -0.21388430714E+02  0.29520687251E+02  0.00000000000E+00 0.  1.
         -1    1    1    2    0  502 -0.14297195375E+02 -0.14477438025E+02  0.19393563905E+03  0.19500009770E+03  0.00000000000E+00 0. -1.
</event>
<event>
 4    1  0.1635676E+006  0.2554236E+02  0.7546771E-02  0.1462827E+00
         21   -1    0    0  501  502  0.00000000000E+00  0.00000000000E+00  0.28621695555E+01  0.28621695555E+01  0.00000000000E+00 0.  1.
          2   -1    0    0  503    0 -0.00000000000E+00 -0.00000000000E+00 -0.11948273057E+04  0.11948273057E+04  0.00000000000E+00 0. -1.
         21    1    1    2  503  502 -0.19396628518E-01  0.25542350153E+02 -0.57280201793E+02  0.62717091331E+02  0.00000000000E+00 0.  1.
          2    1    1    2  501    0  0.19396628518E-01 -0.25542350153E+02 -0.11346849344E+04  0.11349723839E+04  0.00000000000E+00 0. -1.
</event>
<event>
 4    1  0.1635676E+006  0.3541920E+02  0.7546771E-02  0.1377640E+00
         -4   -1    0    0    0  501 -0.00000000000E+00  0.00000000000E+00  0.10651314664E+04  0.10651314664E+04  0.00000000000E+00 0.  1.
         21   -1    0    0  503  502  0.00000000000E+00 -0.00000000000E+00 -0.24223253277E+01  0.24223253277E+01  0.00000000000E+00 0. -1.
         21    1    1    2  503  501  0.34814071062E+02 -0.65192218353E+01  0.14875533046E+03  0.15291392395E+03  0.00000000000E+00 0. -1.
         -4    1    1    2    0  502 -0.34814071062E+02  0.65192218353E+01  0.91395381059E+03  0.91463986776E+03  0.00000000000E+00 0.  1.
</event>
<event>
 4    1  0.1635676E+006  0.4770807E+02  0.7546771E-02  0.1308427E+00
         21   -1    0    0  503  502  0.00000000000E+00  0.00000000000E+00  0.54699526940E+02  0.54699526940E+02  0.00000000000E+00 0. -1.
         -4   -1    0    0    0  501 -0.00000000000E+00 -0.00000000000E+00 -0.53655417287E+02  0.53655417287E+02  0.00000000000E+00 0.  1.
         21    1    1    2  503  501 -0.43121245492E+02  0.20411225063E+02  0.26191632253E+02  0.54424824496E+02  0.00000000000E+00 0. -1.
         -4    1    1    2    0  502  0.43121245492E+02 -0.20411225063E+02 -0.25147522600E+02  0.53930119732E+02  0.00000000000E+00 0.  1.
</event>
<event>
 4    1  0.1635676E+006  0.2013182E+02  0.7546771E-02  0.1532030E+00
         21   -1    0    0  503  502  0.00000000000E+00  0.00000000000E+00  0.60778818915E+02  0.60778818915E+02  0.00000000000E+00 0. -1.
          2   -1    0    0  502    0 -0.00000000000E+00 -0.00000000000E+00 -0.81369432813E+03  0.81369432813E+03  0.00000000000E+00 0.  1.
         21    1    1    2  503  501 -0.14535013678E+02 -0.13929228199E+02  0.58983542330E+02  0.62324540003E+02  0.00000000000E+00 0. -1.
          2    1    1    2  501    0  0.14535013678E+02  0.13929228199E+02 -0.81189905155E+03  0.81214860704E+03  0.00000000000E+00 0.  1.
</event>
<event>
 4    1  0.1635676E+006  0.2596125E+02  0.7546771E-02  0.1458331E+00
          1   -1    0    0  503    0 -0.00000000000E+00  0.00000000000E+00  0.47757926060E+02  0.47757926060E+02  0.00000000000E+00 0.  1.
         21   -1    0    0  501  502  0.00000000000E+00 -0.00000000000E+00 -0.27385009671E+02  0.27385009671E+02  0.00000000000E+00 0.  1.
         21    1    1    2  503  502  0.23349177285E+02 -0.11349106424E+02 -0.15969905046E+02  0.30479897698E+02  0.00000000000E+00 0.  1.
          1    1    1    2  501    0 -0.23349177285E+02  0.11349106424E+02  0.36342821435E+02  0.44663038034E+02  0.00000000000E+00 0.  1.
</event>
<event>
 4    1  0.1635676E+006  0.2466465E+02  0.7546771E-02  0.1472590E+00
          1   -1    0    0  502    0 -0.00000000000E+00  0.00000000000E+00  0.13160289479E+02  0.13160289479E+02  0.00000000000E+00 0.  1.
         21   -1    0    0  503  502  0.00000000000E+00 -0.00000000000E+00 -0.21652987111E+03  0.21652987111E+03  0.00000000000E+00 0. -1.
         21    1    1    2  503  501 -0.16770226705E+02 -0.18086029604E+02 -0.20353595467E+03  0.20502494924E+03  0.00000000000E+00 0. -1.
          1    1    1    2  501    0  0.16770226705E+02  0.18086029604E+02  0.16637303843E+00  0.24665211343E+02  0.00000000000E+00 0.  1.
</event>
<event>
 4    1  0.1635676E+006  0.2152358E+02  0.7546771E-02  0.1511919E+00
         21   -1    0    0  501  502  0.00000000000E+00  0.00000000000E+00  0.12095350943E+02  0.12095350943E+02  0.00000000000E+00 0.  1.
          1   -1    0    0  503    0 -0.00000000000E+00 -0.00000000000E+00 -0.48544431980E+02  0.48544431980E+02  0.00000000000E+00 0.  1.
         21    1    1    2  503  502  0.87757261912E+01 -0.19653270635E+02 -0.32152259894E+02  0.38691500787E+02  0.00000000000E+00 0.  1.
          1    1    1    2  501    0 -0.87757261912E+01  0.19653270635E+02 -0.42968211426E+01  0.21948282137E+02  0.00000000000E+00 0.  1.
</event>
<event>
 4    1  0.1635676E+006  0.2583579E+02  0.7546771E-02  0.1459667E+00
         21   -1    0    0  501  502  0.00000000000E+00  0.00000000000E+00  0.80672248742E+01  0.80672248742E+01  0.00000000000E+00 0.  1.
          2   -1    0    0  503    0 -0.00000000000E+00 -0.00000000000E+00 -0.14974483277E+04  0.14974483277E+04  0.00000000000E+00 0. -1.
         21    1    1    2  503  502 -0.61363039606E+01 -0.25096494674E+02 -0.13024899908E+02  0.28933307602E+02  0.00000000000E+00 0.  1.
          2    1    1    2  501    0  0.61363039606E+01  0.25096494674E+02 -0.14763562029E+04  0.14765822449E+04  0.00000000000E+00 0. -1.
</event>
<event>
 4    1  0.1635676E+006  0.2138801E+02  0.7546771E-02  0.1513797E+00
          2   -1    0    0  503    0 -0.00000000000E+00  0.00000000000E+00  0.35521490194E+02  0.35521490194E+02  0.00000000000E+00 0.  1.
         21   -1    0    0  501  502  0.00000000000E+00 -0.00000000000E+00 -0.13140653547E+02  0.13140653547E+02  0.00000000000E+00 0.  1.
         21    1    1    2  503  502 -0.99001495175E+01 -0.18958747224E+02  0.77507703812E+01  0.22749098846E+02  0.00000000000E+00 0.  1.
          2    1    1    2  501    0  0.99001495175E+01  0.18958747224E+02  0.14630066266E+02  0.25913044895E+02  0.00000000000E+00 0.  1.
</event>
<event>
 4    1  0.1635676E+006  0.2162206E+02  0.7546771E-02  0.1510566E+00
         21   -1    0    0  501  502  0.00000000000E+00  0.00000000000E+00  0.20988967586E+03  0.20988967586E+03  0.00000000000E+00 0.  1.
          2   -1    0    0  503    0 -0.00000000000E+00 -0.00000000000E+00 -0.72083832021E+01  0.72083832021E+01  0.00000000000E+00 0.  1.
         21    1    1    2  503  502 -0.17447197608E+02  0.12771407084E+02  0.19157324271E+03  0.19278957666E+03  0.00000000000E+00 0.  1.
          2    1    1    2  501    0  0.17447197608E+02 -0.12771407084E+02  0.11108049942E+02  0.24308482404E+02  0.00000000000E+00 0.  1.
</event>
<event>
 4    1  0.1635676E+006  0.2188246E+02  0.7546771E-02  0.1507029E+00
         21   -1    0    0  501  502  0.00000000000E+00  0.00000000000E+00  0.50195920171E+02  0.50195920171E+02  0.00000000000E+00 0.  1.
          1   -1    0    0  503    0 -0.00000000000E+00 -0.00000000000E+00 -0.13172756723E+04  0.13172756723E+04  0.00000000000E+00 0.  1.
         21    1    1    2  503  502 -0.15591657716E+02  0.15353903822E+02  0.47715678391E+02  0.52494076973E+02  0.00000000000E+00 0.  1.
          1    1    1    2  501    0  0.15591657716E+02 -0.15353903822E+02 -0.13147954305E+04  0.13149775155E+04  0.00000000000E+00 0.  1.
</event>
<event>
 4    1  0.1635676E+006  0.3511152E+02  0.7546771E-02  0.1379781E+00
         21   -1    0    0  503  502  0.00000000000E+00  0.00000000000E+00  0.10473818795E+03  0.10473818795E+03  0.00000000000E+00 0. -1.
          1   -1    0    0  502    0 -0.00000000000E+00 -0.00000000000E+00 -0.18284936835E+03  0.18284936835E+03  0.00000000000E+00 0.  1.
         21    1    1    2  503  501 -0.34160004617E+02 -0.81186806827E+01  0.10003302099E+03  0.10601615056E+03  0.00000000000E+00 0. -1.
          1    1    1    2  501    0  0.34160004617E+02  0.81186806827E+01 -0.17814420139E+03  0.18157140574E+03  0.00000000000E+00 0.  1.
</event>
<event>
 4    1  0.1635676E+006  0.2237194E+02  0.7546771E-02  0.1500539E+00
         21   -1    0    0  501  502  0.00000000000E+00  0.00000000000E+00  0.17229712174E+01  0.17229712174E+01  0.00000000000E+00 0. -1.
          2   -1    0    0  503    0 -0.00000000000E+00 -0.00000000000E+00 -0.77475685969E+03  0.77475685969E+03  0.00000000000E+00 0.  1.
         21    1    1    2  503  502  0.20091121956E+01  0.22281546185E+02 -0.79572071035E+02  0.82657233930E+02  0.00000000000E+00 0. -1.
          2    1    1    2  501    0 -0.20091121956E+01 -0.22281546185E+02 -0.69346181744E+03  0.69382259698E+03  0.00000000000E+00 0.  1.
</event>
<event>
 4    1  0.1635676E+006  0.2914927E+02  0.7546771E-02  0.1427136E+00
         21   -1    0    0  503  502  0.00000000000E+00  0.00000000000E+00  0.29275959450E+02  0.29275959450E+02  0.00000000000E+00 0. -1.
          1   -1    0    0  502    0 -0.00000000000E+00 -0.00000000000E+00 -0.46864623096E+03  0.46864623096E+03  0.00000000000E+00 0.  1.
         21    1    1    2  503  501  0.29038899318E+02  0.25341750103E+01  0.21443716280E+02  0.36187189508E+02  0.00000000000E+00 0. -1.
          1    1    1    2  501    0 -0.29038899318E+02 -0.25341750103E+01 -0.46081398779E+03  0.46173500091E+03  0.00000000000E+00 0.  1.
</event>
<event>
 4    1  0.1635676E+006  0.2202913E+02  0.7546771E-02  0.1505063E+00
         21   -1    0    0  501  502  0.00000000000E+00  0.00000000000E+00  0.91404235410E+02  0.91404235410E+02  0.00000000000E+00 0.  1.
          2   -1    0    0  503    0 -0.00000000000E+00 -0.00000000000E+00 -0.12492701306E+02  0.12492701306E+02  0.00000000000E+00 0.  1.
         21    1    1    2  503  502 -0.88619410964E+01  0.20168009222E+02  0.78848209721E+02  0.81867715079E+02  0.00000000000E+00 0.  1.
          2    1    1    2  501    0  0.88619410964E+01 -0.20168009222E+02  0.63324382646E-01  0.22029221637E+02  0.00000000000E+00 0.  1.
</event>
<event>
 4    1  0.1635676E+006  0.2200053E+02  0.7546771E-02  0.1505445E+00
         21   -1    0    0  503  502  0.00000000000E+00  0.00000000000E+00  0.36795148115E+02  0.36795148115E+02  0.00000000000E+00 0.  1.
          2   -1    0    0  502    0 -0.00000000000E+00 -0.00000000000E+00 -0.24923848249E+02  0.24923848249E+02  0.00000000000E+00 0.  1.
         21    1    1    2  503  501  0.21911036542E+02  0.19823247241E+01  0.27141556147E+02  0.34938334301E+02  0.00000000000E+00 0.  1.
          2    1    1    2  501    0 -0.21911036542E+02 -0.19823247241E+01 -0.15270256281E+02  0.26780662063E+02  0.00000000000E+00 0.  1.
</event>
<event>
 4    1  0.1635676E+006  0.2991827E+02  0.7546771E-02  0.1420308E+00
         -3   -1    0    0    0  501 -0.00000000000E+00  0.00000000000E+00  0.12272355639E+03  0.12272355639E+03  0.00000000000E+00 0.  1.
         21   -1    0    0  503  502  0.00000000000E+00 -0.00000000000E+00 -0.11402169391E+02  0.11402169391E+02  0.00000000000E+00 0.  1.
         21    1    1    2  503  501  0.25176619266E+02 -0.16162936843E+02  0.15404657497E+02  0.33651243033E+02  0.00000000000E+00 0.  1.
         -3    1    1    2    0  502 -0.25176619266E+02  0.16162936843E+02  0.95916729501E+02  0.10047448275E+03  0.00000000000E+00 0.  1.
</event>
<event>
 4    1  0.1635676E+006  0.2152328E+02  0.7546771E-02  0.1511923E+00
         -1   -1    0    0    0  501 -0.00000000000E+00  0.00000000000E+00  0.11761691423E+04  0.11761691423E+04  0.00000000000E+00 0.  1.
         21   -1    0    0  503  502  0.00000000000E+00 -0.00000000000E+00 -0.75207166639E+00  0.75207166639E+00  0.00000000000E+00 0.  1.
         21    1    1    2  503  501  0.21370457135E+02 -0.25602628039E+01  0.18158808526E+03  0.18285919198E+03  0.00000000000E+00 0.  1.
         -1    1    1    2    0  502 -0.21370457135E+02  0.25602628039E+01  0.99382898541E+03  0.99406202202E+03  0.00000000000E+00 0.  1.
</event>
<event>
 4    1  0.1635676E+006  0.3169382E+02  0.7546771E-02  0.1405427E+00
         21   -1    0    0  501  502  0.00000000000E+00  0.00000000000E+00  0.86141032975E+02  0.86141032975E+02  0.00000000000E+00 0.  1.
          4   -1    0    0  503    0 -0.00000000000E+00 -0.00000000000E+00 -0.20045779729E+02  0.20045779729E+02  0.00000000000E+00 0. -1.
         21    1    1    2  503  502  0.19528645882E+02  0.24962581853E+02  0.67385434104E+02  0.74466739100E+02  0.00000000000E+00 0.  1.
          4    1    1    2  501    0 -0.19528645882E+02 -0.24962581853E+02 -0.12901808586E+01  0.31720073604E+02  0.00000000000E+00 0. -1.
</event>
<event>
 4    1  0.1635676E+006  0.2682747E+02  0.7546771E-02  0.1449349E+00
         21   -1    0    0  501  502  0.00000000000E+00  0.00000000000E+00  0.17147761812E+01  0.17147761812E+01  0.00000000000E+00 0.  1.
          2   -1    0    0  503    0 -0.00000000000E+00 -0.00000000000E+00 -0.47061168036E+03  0.47061168036E+03  0.00000000000E+00 0. -1.
         21    1    1    2  503  502 -0.19075091621E+02  0.18864091381E+02 -0.31211538515E+03  0.31326622338E+03  0.00000000000E+00 0.  1.
          2    1    1    2  501    0  0.19075091621E+02 -0.18864091381E+02 -0.15678151902E+03  0.15906023316E+03  0.00000000000E+00 0. -1.
</event>
<event>
 4    1  0.1635676E+006  0.2430676E+02  0.7546771E-02  0.1476710E+00
         21   -1    0    0  501  502  0.00000000000E+00  0.00000000000E+00  0.12192832156E+01  0.12192832156E+01  0.00000000000E+00 0. -1.
          2   -1    0    0  503    0 -0.00000000000E+00 -0.00000000000E+00 -0.73848009537E+03  0.73848009537E+03  0.00000000000E+00 0. -1.
         21    1    1    2  503  502 -0.38542097633E+01 -0.23999241737E+02 -0.15175888253E+03  0.15369312595E+03  0.00000000000E+00 0. -1.
          2    1    1    2  501    0  0.38542097633E+01  0.23999241737E+02 -0.58550192963E+03  0.58600625264E+03  0.00000000000E+00 0. -1.
</event>
<event>
 4    1  0.1635676E+006  0.2658952E+02  0.7546771E-02  0.1451776E+00
         -2   -1    0    0    0  501 -0.00000000000E+00  0.00000000000E+00  0.78940658782E+02  0.78940658782E+02  0.00000000000E+00 0. -1.
         21   -1    0    0  503  502  0.00000000000E+00 -0.00000000000E+00 -0.25901847987E+02  0.25901847987E+02  0.00000000000E+00 0.  1.
         21    1    1    2  503  501 -0.33035999419E+01  0.26383495310E+02 -0.15881198883E+02  0.30971197512E+02  0.00000000000E+00 0.  1.
         -2    1    1    2    0  502  0.33035999419E+01 -0.26383495310E+02  0.68920009678E+02  0.73871309257E+02  0.00000000000E+00 0. -1.
</event>
<event>
 4    1  0.1635676E+006  0.2515455E+02  0.7546771E-02  0.1467082E+00
         -2   -1    0    0    0  501 -0.00000000000E+00  0.00000000000E+00  0.23052245418E+02  0.23052245418E+02  0.00000000000E+00 0. -1.
         21   -1    0    0  503  502  0.00000000000E+00 -0.00000000000E+00 -0.69922678217E+02  0.69922678217E+02  0.00000000000E+00 0.  1.
         21    1    1    2  503  501 -0.23419940169E+02  0.91792161276E+01 -0.59666927578E+02  0.64752558659E+02  0.00000000000E+00 0.  1.
         -2    1    1    2    0  502  0.23419940169E+02 -0.91792161276E+01  0.12796494780E+02  0.28222364977E+02  0.00000000000E+00 0. -1.
</event>
<event>
 4    1  0.1635676E+006  0.2144320E+02  0.7546771E-02  0.1513030E+00
         -1   -1    0    0    0  501 -0.00000000000E+00  0.00000000000E+00  0.39139639742E+02  0.39139639742E+02  0.00000000000E+00 0. -1.
         21   -1    0    0  501  502  0.00000000000E+00 -0.00000000000E+00 -0.62295342640E+02  0.62295342640E+02  0.00000000000E+00 0.  1.
         21    1    1    2  503  502 -0.18276761076E+02  0.11214758738E+02 -0.57263450263E+02  0.61146656041E+02  0.00000000000E+00 0.  1.
         -1    1    1    2    0  503  0.18276761076E+02 -0.11214758738E+02  0.34107747365E+02  0.40288326340E+02  0.00000000000E+00 0. -1.
</event>
<event>
 4    1  0.1635676E+006  0.3271731E+02  0.7546771E-02  0.1397363E+00
          2   -1    0    0  503    0 -0.00000000000E+00  0.00000000000E+00  0.24707377099E+02  0.24707377099E+02  0.00000000000E+00 0. -1.
         21   -1    0    0  501  502  0.00000000000E+00 -0.00000000000E+00 -0.11292242916E+03  0.11292242916E+03  0.00000000000E+00 0. -1.
         21    1    1    2  503  502  0.14406229764E+02  0.29374870260E+02 -0.98132194314E+02  0.10344249620E+03  0.00000000000E+00 0. -1.
          2    1    1    2  501    0 -0.14406229764E+02 -0.29374870260E+02  0.99171422530E+01  0.34187310062E+02  0.00000000000E+00 0. -1.
</event>
<event>
 4    1  0.1635676E+006  0.2586932E+02  0.7546771E-02  0.1459309E+00
         21   -1    0    0  503  502  0.00000000000E+00  0.00000000000E+00  0.92546746640E+02  0.92546746640E+02  0.00000000000E+00 0.  1.
          4   -1    0    0  502    0 -0.00000000000E+00 -0.00000000000E+00 -0.67574757247E+02  0.67574757247E+02  0.00000000000E+00 0. -1.
         21    1    1    2  503  501 -0.18788983338E+02 -0.17781896299E+02  0.88141922451E+02  0.91859785675E+02  0.00000000000E+00 0.  1.
          4    1    1    2  501    0  0.18788983338E+02  0.17781896299E+02 -0.63169933057E+02  0.68261718212E+02  0.00000000000E+00 0. -1.
</event>
<event>
 4    1  0.1635676E+006  0.2190987E+02  0.7546771E-02  0.1506660E+00
         21   -1    0    0  503  502  0.00000000000E+00  0.00000000000E+00  0.52793707769E+02  0.52793707769E+02  0.00000000000E+00 0.  1.
          2   -1    0    0  502    0 -0.00000000000E+00 -0.00000000000E+00 -0.32526180426E+03  0.32526180426E+03  0.00000000000E+00 0. -1.
         21    1    1    2  503  501 -0.21731907678E+02 -0.27868470692E+01  0.50132814733E+02  0.54711437936E+02  0.00000000000E+00 0.  1.
          2    1    1    2  501    0  0.21731907678E+02  0.27868470692E+01 -0.32260091123E+03  0.32334407409E+03  0.00000000000E+00 0. -1.
</event>
<event>
 4    1  0.1635676E+006  0.2405198E+02  0.7546771E-02  0.1479695E+00
         21   -1    0    0  503  502  0.00000000000E+00  0.00000000000E+00  0.15407404014E+02  0.15407404014E+02  0.00000000000E+00 0. -1.
          2   -1    0    0  502    0 -0.00000000000E+00 -0.00000000000E+00 -0.61803449717E+02  0.61803449717E+02  0.00000000000E+00 0. -1.
         21    1    1    2  503  501 -0.12170210351E+02 -0.20745697178E+02  0.98763150384E+00  0.24072253475E+02  0.00000000000E+00 0. -1.
          2    1    1    2  501    0  0.12170210351E+02  0.20745697178E+02 -0.47383677207E+02  0.53138600255E+02  0.00000000000E+00 0. -1.
</event>
<event>
 4    1  0.1635676E+006  0.2119032E+02  0.7546771E-02  0.1516565E+00
         21   -1    0    0  501  502  0.00000000000E+00  0.00000000000E+00  0.27246090397E+02  0.27246090397E+02  0.00000000000E+00 0. -1.
         -2   -1    0    0    0  501 -0.00000000000E+00 -0.00000000000E+00 -0.35002817314E+03  0.35002817314E+03  0.00000000000E+00 0.  1.
         21    1    1    2  503  502  0.54318676619E+01 -0.20482298868E+02  0.22751710026E+02  0.31091318118E+02  0.00000000000E+00 0. -1.
         -2    1    1    2    0  503 -0.54318676619E+01  0.20482298868E+02 -0.34553379277E+03  0.34618294542E+03  0.00000000000E+00 0.  1.
</event>
<event>
 4    1  0.1635676E+006  0.2545816E+02  0.7546771E-02  0.1463743E+00
         21   -1    0    0  501  502  0.00000000000E+00  0.00000000000E+00  0.22074964091E+03  0.22074964091E+03  0.00000000000E+00 0.  1.
          1   -1    0    0  503    0 -0.00000000000E+00 -0.00000000000E+00 -0.77019908076E+03  0.77019908076E+03  0.00000000000E+00 0. -1.
         21    1    1    2  503  502 -0.25091582186E+02  0.43047035703E+01  0.21980436905E+03  0.22127376398E+03  0.00000000000E+00 0.  1.
          1    1    1    2  501    0  0.25091582186E+02 -0.43047035703E+01 -0.76925380891E+03  0.76967495769E+03  0.00000000000E+00 0. -1.
</event>
<event>
 4    1  0.1635676E+006  0.2185202E+02  0.7546771E-02  0.1507439E+00
          4   -1    0    0  503    0 -0.00000000000E+00  0.00000000000E+00  0.63345914576E+03  0.63345914576E+03  0.00000000000E+00 0. -1.
         21   -1    0    0  501  502  0.00000000000E+00 -0.00000000000E+00 -0.26397073245E+03  0.26397073245E+03  0.00000000000E+00 0.  1.
         21    1    1    2  503  502 -0.85238269290E+01 -0.20121013512E+02 -0.26332958232E+03  0.26423470577E+03  0.00000000000E+00 0.  1.
          4    1    1    2  501    0  0.85238269290E+01  0.20121013512E+02  0.63281799562E+03  0.63319517243E+03  0.00000000000E+00 0. -1.
</event>
<event>
 4    1  0.1635676E+006  0.2471397E+02  0.7546771E-02  0.1472029E+00
         21   -1    0    0  501  502  0.00000000000E+00  0.00000000000E+00  0.16182565209E+02  0.16182565209E+02  0.00000000000E+00 0. -1.
          2   -1    0    0  503    0 -0.00000000000E+00 -0.00000000000E+00 -0.10354313094E+03  0.10354313094E+03  0.00000000000E+00 0. -1.
         21    1    1    2  503  502 -0.17931823961E+02  0.17006766185E+02  0.40407385651E+01  0.25042124007E+02  0.00000000000E+00 0. -1.
          2    1    1    2  501    0  0.17931823961E+02 -0.17006766185E+02 -0.91401304299E+02  0.94683572145E+02  0.00000000000E+00 0. -1.
</event>
<event>
 4    1  0.1635676E+006  0.2337801E+02  0.7546771E-02  0.1487805E+00
          3   -1    0    0  502    0 -0.00000000000E+00  0.00000000000E+00  0.55256535911E+02  0.55256535911E+02  0.00000000000E+00 0.  1.
         21   -1    0    0  503  502  0.00000000000E+00 -0.00000000000E+00 -0.13055172584E+03  0.13055172584E+03  0.00000000000E+00 0. -1.
         21    1    1    2  503  501  0.22704859593E+02 -0.55696289207E+01 -0.12696313748E+03  0.12909752009E+03  0.00000000000E+00 0. -1.
          3    1    1    2  501    0 -0.22704859593E+02  0.55696289207E+01  0.51667947550E+02  0.56710741659E+02  0.00000000000E+00 0.  1.
</event>
<event>
 4    1  0.1635676E+006  0.2602166E+02  0.7546771E-02  0.1457691E+00
         21   -1    0    0  503  502  0.00000000000E+00  0.00000000000E+00  0.13215491461E+01  0.13215491461E+01  0.00000000000E+00 0. -1.
          2   -1    0    0  502    0 -0.00000000000E+00 -0.00000000000E+00 -0.77421474217E+03  0.77421474217E+03  0.00000000000E+00 0. -1.
         21    1    1    2  503  501  0.15815764267E+02  0.20663701974E+02 -0.16093945421E+03  0.16302955223E+03  0.00000000000E+00 0. -1.
          2    1    1    2  501    0 -0.15815764267E+02 -0.20663701974E+02 -0.61195373882E+03  0.61250673909E+03  0.00000000000E+00 0. -1.
</event>
<event>
 4    1  0.1635676E+006  0.2359092E+02  0.7546771E-02  0.1485208E+00
          2   -1    0    0  502    0 -0.00000000000E+00  0.00000000000E+00  0.17589517602E+04  0.17589517602E+04  0.00000000000E+00 0. -1.
         21   -1    0    0  503  502  0.00000000000E+00 -0.00000000000E+00 -0.44120340629E+00  0.44120340629E+00  0.00000000000E+00 0. -1.
         21    1    1    2  503  501 -0.12620687040E+02 -0.19931122400E+02  0.41138270117E+03  0.41205856161E+03  0.00000000000E+00 0. -1.
          2    1    1    2  501    0  0.12620687040E+02  0.19931122400E+02  0.13471278556E+04  0.13473344019E+04  0.00000000000E+00 0. -1.
</event>
<event>
 4    1  0.1635676E+006  0.3623593E+02  0.7546771E-02  0.1372076E+00
         21   -1    0    0  501  502  0.00000000000E+00  0.00000000000E+00  0.17620060852E+02  0.17620060852E+02  0.00000000000E+00 0.  1.
         -3   -1    0    0    0  501 -0.00000000000E+00 -0.00000000000E+00 -0.14305277036E+03  0.14305277036E+03  0.00000000000E+00 0.  1.
         21    1    1    2  503  502 -0.32111237763E+02 -0.16790213146E+02 -0.71113101749E+01  0.36927138808E+02  0.00000000000E+00 0.  1.
         -3    1    1    2    0  503  0.32111237763E+02  0.16790213146E+02 -0.11832139933E+03  0.12374569240E+03  0.00000000000E+00 0.  1.
</event>
<event>
 4    1  0.1635676E+006  0.2183848E+02  0.7546771E-02  0.1507622E+00
         21   -1    0    0  501  502  0.00000000000E+00  0.00000000000E+00  0.38501886589E+02  0.38501886589E+02  0.00000000000E+00 0. -1.
         -4   -1    0    0    0  501 -0.00000000000E+00 -0.00000000000E+00 -0.31929547814E+03  0.31929547814E+03  0.00000000000E+00 0.  1.
         21    1    1    2  503  502 -0.39548619981E+01  0.21477385127E+02  0.34997421924E+02  0.41252133844E+02  0.00000000000E+00 0. -1.
         -4    1    1    2    0  503  0.39548619981E+01 -0.21477385127E+02 -0.31579101347E+03  0.31654523088E+03  0.00000000000E+00 0.  1.
</event>
<event>
 4    1  0.1635676E+006  0.2869611E+02  0.7546771E-02  0.1431276E+00
          2   -1    0    0  503    0 -0.00000000000E+00  0.00000000000E+00  0.11099874643E+02  0.11099874643E+02  0.00000000000E+00 0. -1.
         21   -1    0    0  501  502  0.00000000000E+00 -0.00000000000E+00 -0.13633718548E+03  0.13633718548E+03  0.00000000000E+00 0. -1.
         21    1    1    2  503  502 -0.25446317689E+02 -0.13264668957E+02 -0.11239129572E+03  0.11599685289E+03  0.00000000000E+00 0. -1.
          2    1    1    2  501    0  0.25446317689E+02  0.13264668957E+02 -0.12846015116E+02  0.31440207233E+02  0.00000000000E+00 0. -1.
</event>
<event>
 4    1  0.1635676E+006  0.2238218E+02  0.7546771E-02  0.1500405E+00
         -1   -1    0    0    0  501 -0.00000000000E+00  0.00000000000E+00  0.27582670390E+01  0.27582670390E+01  0.00000000000E+00 0.  1.
         21   -1    0    0  503  502  0.00000000000E+00 -0.00000000000E+00 -0.13108451914E+04  0.13108451914E+04  0.00000000000E+00 0. -1.
         21    1    1    2  503  501  0.84520330300E+01  0.20724987097E+02 -0.12636484068E+04  0.12638466117E+04  0.00000000000E+00 0. -1.
         -1    1    1    2    0  502 -0.84520330300E+01 -0.20724987097E+02 -0.44438517589E+02  0.49756846745E+02  0.00000000000E+00 0.  1.
</event>
<event>
 4    1  0.1635676E+006  0.2264315E+02  0.7546771E-02  0.1497028E+00
         21   -1    0    0  501  502  0.00000000000E+00  0.00000000000E+00  0.25218505142E+00  0.25218505142E+00  0.00000000000E+00 0.  1.
          2   -1    0    0  503    0 -0.00000000000E+00 -0.00000000000E+00 -0.20840756048E+04  0.20840756048E+04  0.00000000000E+00 0.  1.
         21    1    1    2  503  502  0.14387133697E+02 -0.17484930199E+02 -0.87889001803E+03  0.87918165142E+03  0.00000000000E+00 0.  1.
          2    1    1    2  501    0 -0.14387133697E+02  0.17484930199E+02 -0.12049334017E+04  0.12051461384E+04  0.00000000000E+00 0.  1.
</event>
<event>
 4    1  0.1635676E+006  0.2179245E+02  0.7546771E-02  0.1508245E+00
         21   -1    0    0  501  502  0.00000000000E+00  0.00000000000E+00  0.16781271142E+01  0.16781271142E+01  0.00000000000E+00 0.  1.
         -2   -1    0    0    0  501 -0.00000000000E+00 -0.00000000000E+00 -0.43833683265E+03  0.43833683265E+03  0.00000000000E+00 0.  1.
         21    1    1    2  503  502 -0.11077429442E+01  0.21764278476E+02 -0.87359932666E+02  0.90037040974E+02  0.00000000000E+00 0.  1.
         -2    1    1    2    0  503  0.11077429442E+01 -0.21764278476E+02 -0.34929877287E+03  0.34997791879E+03  0.00000000000E+00 0.  1.
</event>
<event>
 4    1  0.1635676E+006  0.3111980E+02  0.7546771E-02  0.1410109E+00
          3   -1    0    0  503    0 -0.00000000000E+00  0.00000000000E+00  0.22614019743E+03  0.22614019743E+03  0.00000000000E+00 0. -1.
         21   -1    0    0  501  502  0.00000000000E+00 -0.00000000000E+00 -0.18433566391E+02  0.18433566391E+02  0.00000000000E+00 0.  1.
         21    1    1    2  503  502 -0.16389849876E+02 -0.26454008876E+02 -0.32912179905E+01  0.31293352017E+02  0.00000000000E+00 0.  1.
          3    1    1    2  501    0  0.16389849876E+02  0.26454008876E+02  0.21099784903E+03  0.21328041180E+03  0.00000000000E+00 0. -1.
</event>
<event>
 4    1  0.1635676E+006  0.2736978E+02  0.7546771E-02  0.1443929E+00
         21   -1    0    0  501  502  0.00000000000E+00  0.00000000000E+00  0.96126597726E+02  0.96126597726E+02  0.00000000000E+00 0.  1.
          4   -1    0    0  503    0 -0.00000000000E+00 -0.00000000000E+00 -0.78276263950E+02  0.78276263950E+02  0.00000000000E+00 0.  1.
         21    1    1    2  503  502  0.10531655731E+02  0.25262405037E+02  0.91672095167E+02  0.95670674258E+02  0.00000000000E+00 0.  1.
          4    1    1    2  501    0 -0.10531655731E+02 -0.25262405037E+02 -0.73821761391E+02  0.78732187418E+02  0.00000000000E+00 0.  1.
</event>
<event>
 4    1  0.1635676E+006  0.2087593E+02  0.7546771E-02  0.1521044E+00
          2   -1    0    0  503    0 -0.00000000000E+00  0.00000000000E+00  0.16790793419E+04  0.16790793419E+04  0.00000000000E+00 0.  1.
         21   -1    0    0  501  502  0.00000000000E+00 -0.00000000000E+00 -0.60681690784E+00  0.60681690784E+00  0.00000000000E+00 0. -1.
         21    1    1    2  503  502 -0.20869333326E+02 -0.52472757276E+00  0.20390350765E+03  0.20496937538E+03  0.00000000000E+00 0. -1.
          2    1    1    2  501    0  0.20869333326E+02  0.52472757276E+00  0.14745690173E+04  0.14747167834E+04  0.00000000000E+00 0.  1.
</event>
<event>
 4    1  0.1635676E+006  0.2382299E+02  0.7546771E-02  0.1482415E+00
         -2   -1    0    0    0  501 -0.00000000000E+00  0.00000000000E+00  0.24454640136E+02  0.24454640136E+02  0.00000000000E+00 0.  1.
         21   -1    0    0  503  502  0.00000000000E+00 -0.00000000000E+00 -0.76431630783E+02  0.76431630783E+02  0.00000000000E+00 0.  1.
         21    1    1    2  503  501 -0.23340172661E+02  0.47719159438E+01 -0.68082395692E+02  0.72130073095E+02  0.00000000000E+00 0.  1.
         -2    1    1    2    0  502  0.23340172661E+02 -0.47719159438E+01  0.16105405045E+02  0.28756197824E+02  0.00000000000E+00 0.  1.
</event>
<event>
 4    1  0.1635676E+006  0.2982975E+02  0.7546771E-02  0.1421082E+00
          3   -1    0    0  502    0 -0.00000000000E+00  0.00000000000E+00  0.12725146486E+03  0.12725146486E+03  0.00000000000E+00 0. -1.
         21   -1    0    0  503  502  0.00000000000E+00 -0.00000000000E+00 -0.93355255975E+01  0.93355255975E+01  0.00000000000E+00 0. -1.
         21    1    1    2  503  501  0.29818036169E+02  0.83573788740E+00  0.24744845157E+02  0.38757207080E+02  0.00000000000E+00 0. -1.
          3    1    1    2  501    0 -0.29818036169E+02 -0.83573788740E+00  0.93171094107E+02  0.97829783379E+02  0.00000000000E+00 0. -1.
</event>
<event>
 4    1  0.1635676E+006  0.2027755E+02  0.7546771E-02  0.1529834E+00
          4   -1    0    0  502    0 -0.00000000000E+00  0.00000000000E+00  0.87405472887E+02  0.87405472887E+02  0.00000000000E+00 0.  1.
         21   -1    0    0  503  502  0.00000000000E+00 -0.00000000000E+00 -0.31626099819E+02  0.31626099819E+02  0.00000000000E+00 0. -1.
         21    1    1    2  503  501 -0.13255669488E+02 -0.15344909032E+02 -0.27021602514E+02  0.33783812828E+02  0.00000000000E+00 0. -1.
          4    1    1    2  501    0  0.13255669488E+02  0.15344909032E+02  0.82800975582E+02  0.85247759878E+02  0.00000000000E+00 0.  1.
</event>
<event>
 4    1  0.1635676E+006  0.3840389E+02  0.7546771E-02  0.1358102E+00
          2   -1    0    0  503    0 -0.00000000000E+00  0.00000000000E+00  0.38966737625E+03  0.38966737625E+03  0.00000000000E+00 0.  1.
         21   -1    0    0  501  502  0.00000000000E+00 -0.00000000000E+00 -0.53465323494E+02  0.53465323494E+02  0.00000000000E+00 0. -1.
         21    1    1    2  503  502  0.17545210314E+02 -0.34161741715E+02 -0.45478820267E+02  0.59524634353E+02  0.00000000000E+00 0. -1.
          2    1    1    2  501    0 -0.17545210314E+02  0.34161741715E+02  0.38168087302E+03  0.38360806539E+03  0.00000000000E+00 0.  1.
</event>
<event>
 4    1  0.1635676E+006  0.2867548E+02  0.7546771E-02  0.1431467E+00
          2   -1    0    0  503    0 -0.00000000000E+00  0.00000000000E+00  0.13087770078E+04  0.13087770078E+04  0.00000000000E+00 0.  1.
         21   -1    0    0  501  502  0.00000000000E+00 -0.00000000000E+00 -0.28530629196E+01  0.28530629196E+01  0.00000000000E+00 0. -1.
         21    1    1    2  503  502 -0.27049496479E+02  0.95188168746E+01  0.73841172391E+02  0.79213647022E+02  0.00000000000E+00 0. -1.
          2    1    1    2  501    0  0.27049496479E+02 -0.95188168746E+01  0.12320827725E+04  0.12324164237E+04  0.00000000000E+00 0.  1.
</event>
<event>
 4    1  0.1635676E+006  0.2216132E+02  0.7546771E-02  0.1503307E+00
          2   -1    0    0  503    0 -0.00000000000E+00  0.00000000000E+00  0.92952159872E+03  0.92952159872E+03  0.00000000000E+00 0. -1.
         21   -1    0    0  501  502  0.00000000000E+00 -0.00000000000E+00 -0.10582812451E+04  0.10582812451E+04  0.00000000000E+00 0.  1.
         21    1    1    2  503  502  0.21458326534E+02 -0.55375516893E+01 -0.10580331042E+04  0.10582651718E+04  0.00000000000E+00 0.  1.
          2    1    1    2  501    0 -0.21458326534E+02  0.55375516893E+01  0.92927345783E+03  0.92953767201E+03  0.00000000000E+00 0. -1.
</event>
<event>
 4    1  0.1635676E+006  0.2611141E+02  0.7546771E-02  0.1456744E+00
         21   -1    0    0  501  502  0.00000000000E+00  0.00000000000E+00  0.47146186226E+01  0.47146186226E+01  0.00000000000E+00 0.  1.
          1   -1    0    0  503    0 -0.00000000000E+00 -0.00000000000E+00 -0.22032762734E+03  0.22032762734E+03  0.00000000000E+00 0. -1.
         21    1    1    2  503  502  0.14595914848E+02  0.21650982396E+02 -0.41846145542E+02  0.49324493567E+02  0.00000000000E+00 0.  1.
          1    1    1    2  501    0 -0.14595914848E+02 -0.21650982396E+02 -0.17376686317E+03  0.17571775239E+03  0.00000000000E+00 0. -1.
</event>
<event>
 4    1  0.1635676E+006  0.2636768E+02  0.7546771E-02  0.1454065E+00
          1   -1    0    0  502    0 -0.00000000000E+00  0.00000000000E+00  0.74506673530E+02  0.74506673530E+02  0.00000000000E+00 0. -1.
         21   -1    0    0  503  502  0.00000000000E+00 -0.00000000000E+00 -0.20856687874E+02  0.20856687874E+02  0.00000000000E+00 0. -1.
         21    1    1    2  503  501 -0.26026874206E+02 -0.42256867832E+01 -0.86199277321E+01  0.27740904164E+02  0.00000000000E+00 0. -1.
          1    1    1    2  501    0  0.26026874206E+02  0.42256867832E+01  0.62269913389E+02  0.67622457240E+02  0.00000000000E+00 0. -1.
</event>
<event>
 4    1  0.1635676E+006  0.3894018E+02  0.7546771E-02  0.1354811E+00
         21   -1    0    0  501  502  0.00000000000E+00  0.00000000000E+00  0.12088211758E+02  0.12088211758E+02  0.00000000000E+00 0. -1.
          1   -1    0    0  503    0 -0.00000000000E+00 -0.00000000000E+00 -0.86345648426E+03  0.86345648426E+03  0.00000000000E+00 0. -1.
         21    1    1    2  503  502 -0.65429153675E+01  0.38386555683E+02 -0.20957934573E+02  0.44221854555E+02  0.00000000000E+00 0. -1.
          1    1    1    2  501    0  0.65429153675E+01 -0.38386555683E+02 -0.83041033793E+03  0.83132284146E+03  0.00000000000E+00 0. -1.
</event>
<event>
 4    1  0.1635676E+006  0.3374932E+02  0.7546771E-02  0.1389576E+00
         21   -1    0    0  503  502  0.00000000000E+00  0.00000000000E+00  0.51649658610E+01  0.51649658610E+01  0.00000000000E+00 0.  1.
          2   -1    0    0  502    0 -0.00000000000E+00 -0.00000000000E+00 -0.87350784785E+03  0.87350784785E+03  0.00000000000E+00 0. -1.
         21    1    1    2  503  501 -0.24476375795E+02  0.23236259897E+02 -0.54319927997E+02  0.63950538103E+02  0.00000000000E+00 0.  1.
          2    1    1    2  501    0  0.24476375795E+02 -0.23236259897E+02 -0.81402295399E+03  0.81472227560E+03  0.00000000000E+00 0. -1.
</event>
<event>
 4    1  0.1635676E+006  0.2004081E+02  0.7546771E-02  0.1533413E+00
         21   -1    0    0  503  502  0.00000000000E+00  0.00000000000E+00  0.14479259378E+01  0.14479259378E+01  0.00000000000E+00 0.  1.
         -2   -1    0    0    0  501 -0.00000000000E+00 -0.00000000000E+00 -0.98290928957E+03  0.98290928957E+03  0.00000000000E+00 0.  1.
         21    1    1    2  503  501 -0.38387644259E+00  0.20037130594E+02 -0.73744387830E+02  0.76419033624E+02  0.00000000000E+00 0.  1.
         -2    1    1    2    0  502  0.38387644259E+00 -0.20037130594E+02 -0.90771697581E+03  0.90793818189E+03  0.00000000000E+00 0.  1.
</event>
<event>
 4    1  0.1635676E+006  0.2546904E+02  0.7546771E-02  0.1463624E+00
          2   -1    0    0  503    0 -0.00000000000E+00  0.00000000000E+00  0.38659423794E+02  0.38659423794E+02  0.00000000000E+00 0. -1.
         21   -1    0    0  501  502  0.00000000000E+00 -0.00000000000E+00 -0.24215126246E+02  0.24215126246E+02  0.00000000000E+00 0.  1.
         21    1    1    2  503  502 -0.27236873031E+01  0.25322985205E+02 -0.10198755227E+02  0.27435135509E+02  0.00000000000E+00 0.  1.
          2    1    1    2  501    0  0.27236873031E+01 -0.25322985205E+02  0.24643052776E+02  0.35439414531E+02  0.00000000000E+00 0. -1.
</event>
<event>
 4    1  0.1635676E+006  0.2130549E+02  0.7546771E-02  0.1514948E+00
         21   -1    0    0  501  502  0.00000000000E+00  0.00000000000E+00  0.21954097098E+02  0.21954097098E+02  0.00000000000E+00 0. -1.
          1   -1    0    0  503    0 -0.00000000000E+00 -0.00000000000E+00 -0.21044055699E+02  0.21044055699E+02  0.00000000000E+00 0.  1.
         21    1    1    2  503  502 -0.21221383803E+02  0.18912497487E+01  0.32980660211E+01  0.21559248494E+02  0.00000000000E+00 0. -1.
          1    1    1    2  501    0  0.21221383803E+02 -0.18912497487E+01 -0.23880246219E+01  0.21438904303E+02  0.00000000000E+00 0.  1.
</event>
<event>
 4    1  0.1635676E+006  0.3495381E+02  0.7546771E-02  0.1380888E+00
          2   -1    0    0  503    0 -0.00000000000E+00  0.00000000000E+00  0.82671457967E+03  0.82671457967E+03  0.00000000000E+00 0.  1.
         21   -1    0    0  501  502  0.00000000000E+00 -0.00000000000E+00 -0.14884057770E+01  0.14884057770E+01  0.00000000000E+00 0.  1.
         21    1    1    2  503  502 -0.27792133978E+02  0.21198252861E+02  0.37775690878E+03  0.37937059819E+03  0.00000000000E+00 0.  1.
          2    1    1    2  501    0  0.27792133978E+02 -0.21198252861E+02  0.44746926511E+03  0.44883238726E+03  0.00000000000E+00 0.  1.
</event>
<event>
 4    1  0.1635676E+006  0.2829197E+02  0.7546771E-02  0.1435045E+00
         21   -1    0    0  501  502  0.00000000000E+00  0.00000000000E+00  0.76037080976E+01  0.76037080976E+01  0.00000000000E+00 0.  1.
          1   -1    0    0  503    0 -0.00000000000E+00 -0.00000000000E+00 -0.13124080357E+03  0.13124080357E+03  0.00000000000E+00 0. -1.
         21    1    1    2  503  502 -0.28253946750E+02 -0.14662613807E+01 -0.30935895815E+02  0.41922131139E+02  0.00000000000E+00 0.  1.
          1    1    1    2  501    0  0.28253946750E+02  0.14662613807E+01 -0.92701199661E+02  0.96922380532E+02  0.00000000000E+00 0. -1.
</event>
<event>
 4    1  0.1635676E+006  0.4927433E+02  0.7546771E-02  0.1301350E+00
         21   -1    0    0  503  502  0.00000000000E+00  0.00000000000E+00  0.31603075382E+03  0.31603075382E+03  0.00000000000E+00 0. -1.
         -2   -1    0    0    0  501 -0.00000000000E+00 -0.00000000000E+00 -0.18951016263E+02  0.18951016263E+02  0.00000000000E+00 0.  1.
         21    1    1    2  503  501  0.48091360337E+02  0.10732214251E+02  0.27769303445E+03  0.28203081524E+03  0.00000000000E+00 0. -1.
         -2    1    1    2    0  502 -0.48091360337E+02 -0.10732214251E+02  0.19386703109E+02  0.52950954848E+02  0.00000000000E+00 0.  1.
</event>
<event>
 4    1  0.1635676E+006  0.4240955E+02  0.7546771E-02  0.1334916E+00
          2   -1    0    0  502    0 -0.00000000000E+00  0.00000000000E+00  0.46722641277E+02  0.46722641277E+02  0.00000000000E+00 0. -1.
         21   -1    0    0  503  502  0.00000000000E+00 -0.00000000000E+00 -0.54017850532E+02  0.54017850532E+02  0.00000000000E+00 0. -1.
         21    1    1    2  503  501  0.35841694415E+02  0.22670306552E+02 -0.30649646974E+02  0.52325621997E+02  0.00000000000E+00 0. -1.
          2    1    1    2  501    0 -0.35841694415E+02 -0.22670306552E+02  0.23354437719E+02  0.48414869812E+02  0.00000000000E+00 0. -1.
</event>
<event>
 4    1  0.1635676E+006  0.3272883E+02  0.7546771E-02  0.1397274E+00
         21   -1    0    0  503  502  0.00000000000E+00  0.00000000000E+00  0.38014425869E+03  0.38014425869E+03  0.00000000000E+00 0.  1.
         -4   -1    0    0    0  501 -0.00000000000E+00 -0.00000000000E+00 -0.74046054390E+01  0.74046054390E+01  0.00000000000E+00 0. -1.
         21    1    1    2  503  501 -0.65557479636E+01  0.32065535288E+02  0.33888039423E+03  0.34045718964E+03  0.00000000000E+00 0.  1.
         -4    1    1    2    0  502  0.65557479636E+01 -0.32065535288E+02  0.33859259023E+02  0.47091674490E+02  0.00000000000E+00 0. -1.
</event>
<event>
 4    1  0.1635676E+006  0.2171119E+02  0.7546771E-02  0.1509348E+00
         -2   -1    0    0    0  501 -0.00000000000E+00  0.00000000000E+00  0.55919950194E+02  0.55919950194E+02  0.00000000000E+00 0.  1.
         21   -1    0    0  503  502  0.00000000000E+00 -0.00000000000E+00 -0.84597571442E+02  0.84597571442E+02  0.00000000000E+00 0. -1.
         21    1    1    2  503  501 -0.44965858544E+01 -0.21240449142E+02 -0.81005376071E+02  0.83864455620E+02  0.00000000000E+00 0. -1.
         -2    1    1    2    0  502  0.44965858544E+01  0.21240449142E+02  0.52327754824E+02  0.56653066016E+02  0.00000000000E+00 0.  1.
</event>
<event>
 4    1  0.1635676E+006  0.3654912E+02  0.7546771E-02  0.1369988E+00
         -4   -1    0    0    0  501 -0.00000000000E+00  0.00000000000E+00  0.52431872442E+01  0.52431872442E+01  0.00000000000E+00 0. -1.
         21   -1    0    0  503  502  0.00000000000E+00 -0.00000000000E+00 -0.25505973833E+03  0.25505973833E+03  0.00000000000E+00 0. -1.
         21    1    1    2  503  501 -0.26747010909E+02 -0.24908545097E+02 -0.12056721197E+03  0.12598528015E+03  0.00000000000E+00 0. -1.
         -4    1    1    2    0  502  0.26747010909E+02  0.24908545097E+02 -0.12924933912E+03  0.13431764543E+03  0.00000000000E+00 0. -1.
</event>
<event>
 4    1  0.1635676E+006  0.2197375E+02  0.7546771E-02  0.1505803E+00
          1   -1    0    0  503    0 -0.00000000000E+00  0.00000000000E+00  0.12836388210E+03  0.12836388210E+03  0.00000000000E+00 0. -1.
         21   -1    0    0  501  502  0.00000000000E+00 -0.00000000000E+00 -0.51226072761E+01  0.51226072761E+01  0.00000000000E+00 0. -1.
         21    1    1    2  503  502  0.45192009952E+01  0.21504011912E+02  0.27217203440E+02  0.34980306874E+02  0.00000000000E+00 0. -1.
          1    1    1    2  501    0 -0.45192009952E+01 -0.21504011912E+02  0.96024071385E+02  0.98506182503E+02  0.00000000000E+00 0. -1.
</event>
<event>
 4    1  0.1635676E+006  0.2804630E+02  0.7546771E-02  0.1437372E+00
         -1   -1    0    0    0  501 -0.00000000000E+00  0.00000000000E+00  0.14095465917E+03  0.14095465917E+03  0.00000000000E+00 0. -1.
         21   -1    0    0  503  502  0.00000000000E+00 -0.00000000000E+00 -0.78519879640E+01  0.78519879640E+01  0.00000000000E+00 0. -1.
         21    1    1    2  503  501  0.27631911242E+02 -0.48033987039E+01  0.10656969819E+03  0.11019843797E+03  0.00000000000E+00 0. -1.
         -1    1    1    2    0  502 -0.27631911242E+02  0.48033987039E+01  0.26532973013E+02  0.38608209164E+02  0.00000000000E+00 0. -1.
</event>
<event>
 4    1  0.1635676E+006  0.5753088E+02  0.7546771E-02  0.1268461E+00
          4   -1    0    0  502    0 -0.00000000000E+00  0.00000000000E+00  0.54715805942E+03  0.54715805942E+03  0.00000000000E+00 0.  1.
         21   -1    0    0  503  502  0.00000000000E+00 -0.00000000000E+00 -0.10285578827E+02  0.10285578827E+02  0.00000000000E+00 0. -1.
         21    1    1    2  503  501 -0.32514462207E+02  0.47461688112E+02  0.89556886220E+02  0.10644359051E+03  0.00000000000E+00 0. -1.
          4    1    1    2  501    0  0.32514462207E+02 -0.47461688112E+02  0.44731559437E+03  0.45100004773E+03  0.00000000000E+00 0.  1.
</event>
<event>
 4    1  0.1635676E+006  0.3396294E+02  0.7546771E-02  0.1388004E+00
         -3   -1    0    0    0  501 -0.00000000000E+00  0.00000000000E+00  0.82773553358E+00  0.82773553358E+00  0.00000000000E+00 0.  1.
         21   -1    0    0  501  502  0.00000000000E+00 -0.00000000000E+00 -0.26289396538E+04  0.26289396538E+04  0.00000000000E+00 0.  1.
         21    1    1    2  503  502 -0.25405135720E+02  0.22540191349E+02 -0.22154217517E+04  0.22156820664E+04  0.00000000000E+00 0.  1.
         -3    1    1    2    0  503  0.25405135720E+02 -0.22540191349E+02 -0.41269016652E+03  0.41408532296E+03  0.00000000000E+00 0.  1.
</event>
<event>
 4    1  0.1635676E+006  0.2086383E+02  0.7546771E-02  0.1521218E+00
          1   -1    0    0  503    0 -0.00000000000E+00  0.00000000000E+00  0.26754149519E+02  0.26754149519E+02  0.00000000000E+00 0. -1.
         21   -1    0    0  501  502  0.00000000000E+00 -0.00000000000E+00 -0.46538599252E+02  0.46538599252E+02  0.00000000000E+00 0.  1.
         21    1    1    2  503  502 -0.19162706639E+02 -0.82516707559E+01 -0.39446343071E+02  0.44624134476E+02  0.00000000000E+00 0.  1.
          1    1    1    2  501    0  0.19162706639E+02  0.82516707559E+01  0.19661893338E+02  0.28668614296E+02  0.00000000000E+00 0. -1.
</event>
<event>
 4    1  0.1635676E+006  0.3287792E+02  0.7546771E-02  0.1396129E+00
         21   -1    0    0  501  502  0.00000000000E+00  0.00000000000E+00  0.55783486638E+02  0.55783486638E+02  0.00000000000E+00 0. -1.
         -2   -1    0    0    0  501 -0.00000000000E+00 -0.00000000000E+00 -0.43108673824E+02  0.43108673824E+02  0.00000000000E+00 0.  1.
         21    1    1    2  503  502  0.29836585884E+02 -0.13810716992E+02  0.43023965041E+02  0.54148123965E+02  0.00000000000E+00 0. -1.
         -2    1    1    2    0  503 -0.29836585884E+02  0.13810716992E+02 -0.30349152228E+02  0.44744036497E+02  0.00000000000E+00 0.  1.
</event>
<event>
 4    1  0.1635676E+006  0.2569772E+02  0.7546771E-02  0.1461147E+00
         -2   -1    0    0    0  501 -0.00000000000E+00  0.00000000000E+00  0.64165345453E+02  0.64165345453E+02  0.00000000000E+00 0. -1.
         21   -1    0    0  501  502  0.00000000000E+00 -0.00000000000E+00 -0.98381914019E+02  0.98381914019E+02  0.00000000000E+00 0.  1.
         21    1    1    2  503  502 -0.85349855987E+00  0.25683547108E+02 -0.94013493204E+02  0.97462351482E+02  0.00000000000E+00 0.  1.
         -2    1    1    2    0  503  0.85349855987E+00 -0.25683547108E+02  0.59796924639E+02  0.65084907990E+02  0.00000000000E+00 0. -1.
</event>
<event>
 4    1  0.1635676E+006  0.2192951E+02  0.7546771E-02  0.1506396E+00
          1   -1    0    0  503    0 -0.00000000000E+00  0.00000000000E+00  0.23714644830E+01  0.23714644830E+01  0.00000000000E+00 0.  1.
         21   -1    0    0  501  502  0.00000000000E+00 -0.00000000000E+00 -0.27858885148E+03  0.27858885148E+03  0.00000000000E+00 0. -1.
         21    1    1    2  503  502 -0.15337709682E+02  0.15673479300E+02 -0.21138636660E+03  0.21252082081E+03  0.00000000000E+00 0. -1.
          1    1    1    2  501    0  0.15337709682E+02 -0.15673479300E+02 -0.64831020399E+02  0.68439495159E+02  0.00000000000E+00 0.  1.
</event>
<event>
 4    1  0.1635676E+006  0.3156982E+02  0.7546771E-02  0.1406428E+00
          2   -1    0    0  503    0 -0.00000000000E+00  0.00000000000E+00  0.24507577734E+03  0.24507577734E+03  0.00000000000E+00 0.  1.
         21   -1    0    0  501  502  0.00000000000E+00 -0.00000000000E+00 -0.47744780560E+01  0.47744780560E+01  0.00000000000E+00 0.  1.
         21    1    1    2  503  502 -0.29041202344E+02  0.12379900535E+02  0.16824906376E+03  0.17118528215E+03  0.00000000000E+00 0.  1.
          2    1    1    2  501    0  0.29041202344E+02 -0.12379900535E+02  0.72052235528E+02  0.78664973244E+02  0.00000000000E+00 0.  1.
</event>
<event>
 4    1  0.1635676E+006  0.3348712E+02  0.7546771E-02  0.1391523E+00
         21   -1    0    0  503  502  0.00000000000E+00  0.00000000000E+00  0.89254735074E+01  0.89254735074E+01  0.00000000000E+00 0.  1.
         -1   -1    0    0    0  501 -0.00000000000E+00 -0.00000000000E+00 -0.17899069601E+03  0.17899069601E+03  0.00000000000E+00 0.  1.
         21    1    1    2  503  501 -0.15024006196E+02 -0.29927681559E+02 -0.33735447630E+02  0.47533854383E+02  0.00000000000E+00 0.  1.
         -1    1    1    2    0  502  0.15024006196E+02  0.29927681559E+02 -0.13632977487E+03  0.14038231514E+03  0.00000000000E+00 0.  1.
</event>
<event>
 4    1  0.1635676E+006  0.2784305E+02  0.7546771E-02  0.1439319E+00
         21   -1    0    0  501  502  0.00000000000E+00  0.00000000000E+00  0.21957318798E+01  0.21957318798E+01  0.00000000000E+00 0. -1.
          2   -1    0    0  503    0 -0.00000000000E+00 -0.00000000000E+00 -0.14096648117E+04  0.14096648117E+04  0.00000000000E+00 0. -1.
         21    1    1    2  503  502 -0.27511080244E+02 -0.42866923918E+01 -0.92568496874E+02  0.96665205122E+02  0.00000000000E+00 0. -1.
          2    1    1    2  501    0  0.27511080244E+02  0.42866923918E+01 -0.13149005830E+04  0.13151953385E+04  0.00000000000E+00 0. -1.
</event>
<event>
 4    1  0.1635676E+006  0.2245754E+02  0.7546771E-02  0.1499425E+00
         -4   -1    0    0    0  501 -0.00000000000E+00  0.00000000000E+00  0.50929285416E+03  0.50929285416E+03  0.00000000000E+00 0.  1.
         21   -1    0    0  501  502  0.00000000000E+00 -0.00000000000E+00 -0.15628961289E+01  0.15628961289E+01  0.00000000000E+00 0.  1.
         21    1    1    2  503  502 -0.21339888483E+02  0.69964304610E+01  0.99255453182E+02  0.10176436442E+03  0.00000000000E+00 0.  1.
         -4    1    1    2    0  503  0.21339888483E+02 -0.69964304610E+01  0.40847450485E+03  0.40909138587E+03  0.00000000000E+00 0.  1.
</event>
<event>
 4    1  0.1635676E+006  0.2106441E+02  0.7546771E-02  0.1518347E+00
         21   -1    0    0  503  502  0.00000000000E+00  0.00000000000E+00  0.92245169004E+00  0.92245169004E+00  0.00000000000E+00 0. -1.
         -2   -1    0    0    0  501 -0.00000000000E+00 -0.00000000000E+00 -0.49257424215E+03  0.49257424215E+03  0.00000000000E+00 0. -1.
         21    1    1    2  503  501 -0.38850524854E+01 -0.20703039163E+02 -0.28363158126E+03  0.28441269900E+03  0.00000000000E+00 0. -1.
         -2    1    1    2    0  502  0.38850524854E+01  0.20703039163E+02 -0.20802020920E+03  0.20908399484E+03  0.00000000000E+00 0. -1.
</event>
<event>
 4    1  0.1635676E+006  0.2596267E+02  0.7546771E-02  0.1458316E+00
          2   -1    0    0  503    0 -0.00000000000E+00  0.00000000000E+00  0.15532292039E+01  0.15532292039E+01  0.00000000000E+00 0.  1.
         21   -1    0    0  501  502  0.00000000000E+00 -0.00000000000E+00 -0.44744444865E+03  0.44744444865E+03  0.00000000000E+00 0.  1.
         21    1    1    2  503  502 -0.17711231881E+02  0.18983485154E+02 -0.26189873289E+03  0.26318245901E+03  0.00000000000E+00 0.  1.
          2    1    1    2  501    0  0.17711231881E+02 -0.18983485154E+02 -0.18399248656E+03  0.18581521884E+03  0.00000000000E+00 0.  1.
</event>
<event>
 4    1  0.1635676E+006  0.2012399E+02  0.7546771E-02  0.1532149E+00
         21   -1    0    0  501  502  0.00000000000E+00  0.00000000000E+00  0.16329901234E+01  0.16329901234E+01  0.00000000000E+00 0.  1.
          4   -1    0    0  503    0 -0.00000000000E+00 -0.00000000000E+00 -0.25947614434E+03  0.25947614434E+03  0.00000000000E+00 0.  1.
         21    1    1    2  503  502 -0.56166881004E+01  0.19324282622E+02 -0.10146058219E+03  0.10343705730E+03  0.00000000000E+00 0.  1.
          4    1    1    2  501    0  0.56166881004E+01 -0.19324282622E+02 -0.15638257203E+03  0.15767207717E+03  0.00000000000E+00 0.  1.
</event>
<event>
 4    1  0.1635676E+006  0.2258276E+02  0.7546771E-02  0.1497805E+00
         21   -1    0    0  503  502  0.00000000000E+00  0.00000000000E+00  0.14010109508E+03  0.14010109508E+03  0.00000000000E+00 0. -1.
         -2   -1    0    0    0  501 -0.00000000000E+00 -0.00000000000E+00 -0.81426163174E+01  0.81426163174E+01  0.00000000000E+00 0. -1.
         21    1    1    2  503  501  0.59846650555E+00  0.22574826184E+02  0.12109709458E+03  0.12318476876E+03  0.00000000000E+00 0. -1.
         -2    1    1    2    0  502 -0.59846650555E+00 -0.22574826184E+02  0.10861384176E+02  0.25058942628E+02  0.00000000000E+00 0. -1.
</event>
<event>
 4    1  0.1635676E+006  0.3277401E+02  0.7546771E-02  0.1396926E+00
         -1   -1    0    0    0  501 -0.00000000000E+00  0.00000000000E+00  0.92729251585E+02  0.92729251585E+02  0.00000000000E+00 0. -1.
         21   -1    0    0  503  502  0.00000000000E+00 -0.00000000000E+00 -0.11672884622E+03  0.11672884622E+03  0.00000000000E+00 0.  1.
         21    1    1    2  503  501 -0.20782068083E+02 -0.25342475898E+02 -0.11139672340E+03  0.11611789450E+03  0.00000000000E+00 0.  1.
         -1    1    1    2    0  502  0.20782068083E+02  0.25342475898E+02  0.87397128761E+02  0.93340203311E+02  0.00000000000E+00 0. -1.
</event>
<event>
 4    1  0.1635676E+006  0.5563937E+02  0.7546771E-02  0.1275414E+00
          1   -1    0    0  502    0 -0.00000000000E+00  0.00000000000E+00  0.17959270642E+03  0.17959270642E+03  0.00000000000E+00 0.  1.
         21   -1    0    0  503  502  0.00000000000E+00 -0.00000000000E+00 -0.36667483275E+02  0.36667483275E+02  0.00000000000E+00 0. -1.
         21    1    1    2  503  501  0.42401879168E+02  0.36025271283E+02 -0.72495081482E+01  0.56109668475E+02  0.00000000000E+00 0. -1.
          1    1    1    2  501    0 -0.42401879168E+02 -0.36025271283E+02  0.15017473129E+03  0.16015052122E+03  0.00000000000E+00 0.  1.
</event>
<event>
 4    1  0.1635676E+006  0.2723293E+02  0.7546771E-02  0.1445282E+00
          3   -1    0    0  502    0 -0.00000000000E+00  0.00000000000E+00  0.27850446737E+03  0.27850446737E+03  0.00000000000E+00 0.  1.
         21   -1    0    0  503  502  0.00000000000E+00 -0.00000000000E+00 -0.61047941165E+02  0.61047941165E+02  0.00000000000E+00 0.  1.
         21    1    1    2  503  501 -0.26307549810E+02 -0.70388317943E+01 -0.57303839173E+02  0.63445743072E+02  0.00000000000E+00 0.  1.
          3    1    1    2  501    0  0.26307549810E+02  0.70388317943E+01  0.27476036538E+03  0.27610666547E+03  0.00000000000E+00 0.  1.
</event>
<event>
 4    1  0.1635676E+006  0.2050950E+02  0.7546771E-02  0.1526384E+00
         21   -1    0    0  501  502  0.00000000000E+00  0.00000000000E+00  0.20446554143E+02  0.20446554143E+02  0.00000000000E+00 0.  1.
          1   -1    0    0  503    0 -0.00000000000E+00 -0.00000000000E+00 -0.83488778002E+02  0.83488778002E+02  0.00000000000E+00 0.  1.
         21    1    1    2  503  502  0.72835332294E+01 -0.19172632183E+02  0.13591728718E+02  0.24604364871E+02  0.00000000000E+00 0.  1.
          1    1    1    2  501    0 -0.72835332294E+01  0.19172632183E+02 -0.76633952577E+02  0.79330967275E+02  0.00000000000E+00 0.  1.
</event>
<event>
 4    1  0.1635676E+006  0.2567862E+02  0.7546771E-02  0.1461353E+00
         21   -1    0    0  501  502  0.00000000000E+00  0.00000000000E+00  0.52475671560E+03  0.52475671560E+03  0.00000000000E+00 0. -1.
          2   -1    0    0  503    0 -0.00000000000E+00 -0.00000000000E+00 -0.12230693886E+02  0.12230693886E+02  0.00000000000E+00 0. -1.
         21    1    1    2  503  502 -0.57440797191E+01 -0.25027930236E+02  0.51059064797E+03  0.51123595486E+03  0.00000000000E+00 0. -1.
          2    1    1    2  501    0  0.57440797191E+01  0.25027930236E+02  0.19353737375E+01  0.25751454623E+02  0.00000000000E+00 0. -1.
</event>
<event>
 4    1  0.1635676E+006  0.3001243E+02  0.7546771E-02  0.1419489E+00
          3   -1    0    0  503    0 -0.00000000000E+00  0.00000000000E+00  0.32682691356E+03  0.32682691356E+03  0.00000000000E+00 0.  1.
         21   -1    0    0  501  502  0.00000000000E+00 -0.00000000000E+00 -0.48788862337E+01  0.48788862337E+01  0.00000000000E+00 0. -1.
         21    1    1    2  503  502 -0.13338988464E+02 -0.26885262027E+02  0.51572670024E+02  0.59669809961E+02  0.00000000000E+00 0. -1.
          3    1    1    2  501    0  0.13338988464E+02  0.26885262027E+02  0.27037535730E+03  0.27203598983E+03  0.00000000000E+00 0.  1.
</event>
<event>
 4    1  0.1635676E+006  0.2112732E+02  0.7546771E-02  0.1517455E+00
          3   -1    0    0  502    0 -0.00000000000E+00  0.00000000000E+00  0.56107228746E+02  0.56107228746E+02  0.00000000000E+00 0.  1.
         21   -1    0    0  503  502  0.00000000000E+00 -0.00000000000E+00 -0.43665115739E+02  0.43665115739E+02  0.00000000000E+00 0.  1.
         21    1    1    2  503  501 -0.17464850288E+02  0.11888753920E+02 -0.38892306352E+02  0.44260309067E+02  0.00000000000E+00 0.  1.
          3    1    1    2  501    0  0.17464850288E+02 -0.11888753920E+02  0.51334419359E+02  0.55512035418E+02  0.00000000000E+00 0.  1.
</event>
<event>
 4    1  0.1635676E+006  0.2446551E+02  0.7546771E-02  0.1474872E+00
          1   -1    0    0  503    0 -0.00000000000E+00  0.00000000000E+00  0.48795044930E+03  0.48795044930E+03  0.00000000000E+00 0. -1.
         21   -1    0    0  501  502  0.00000000000E+00 -0.00000000000E+00 -0.16088474670E+01  0.16088474670E+01  0.00000000000E+00 0. -1.
         21    1    1    2  503  502 -0.14068442114E+02  0.20015999024E+02  0.12387033519E+03  0.12626330117E+03  0.00000000000E+00 0. -1.
          1    1    1    2  501    0  0.14068442114E+02 -0.20015999024E+02  0.36247126664E+03  0.36329599560E+03  0.00000000000E+00 0. -1.
</event>
<event>
 4    1  0.1635676E+006  0.2060650E+02  0.7546771E-02  0.1524958E+00
         21   -1    0    0  501  502  0.00000000000E+00  0.00000000000E+00  0.19874536251E+01  0.19874536251E+01  0.00000000000E+00 0.  1.
          2   -1    0    0  503    0 -0.00000000000E+00 -0.00000000000E+00 -0.80449963679E+03  0.80449963679E+03  0.00000000000E+00 0. -1.
         21    1    1    2  503  502  0.16703688698E+02  0.12067083878E+02 -0.55681775916E+02  0.59372450670E+02  0.00000000000E+00 0.  1.
          2    1    1    2  501    0 -0.16703688698E+02 -0.12067083878E+02 -0.74683040725E+03  0.74711463974E+03  0.00000000000E+00 0. -1.
</event>
<event>
 4    1  0.1635676E+006  0.6778632E+02  0.7546771E-02  0.1235449E+00
          2   -1    0    0  502    0 -0.00000000000E+00  0.00000000000E+00  0.64061768479E+03  0.64061768479E+03  0.00000000000E+00 0. -1.
         21   -1    0    0  503  502  0.00000000000E+00 -0.00000000000E+00 -0.69050488150E+02  0.69050488150E+02  0.00000000000E+00 0.  1.
         21    1    1    2  503  501  0.61298801323E+02 -0.28938594522E+02 -0.50115779901E+02  0.84300514184E+02  0.00000000000E+00 0.  1.
          2    1    1    2  501    0 -0.61298801323E+02  0.28938594522E+02  0.62168297654E+03  0.62536765875E+03  0.00000000000E+00 0. -1.
</event>
<event>
 4    1  0.1635676E+006  0.2086930E+02  0.7546771E-02  0.1521139E+00
         21   -1    0    0  501  502  0.00000000000E+00  0.00000000000E+00  0.45324977291E+03  0.45324977291E+03  0.00000000000E+00 0. -1.
          2   -1    0    0  503    0 -0.00000000000E+00 -0.00000000000E+00 -0.10224882272E+03  0.10224882272E+03  0.00000000000E+00 0. -1.
         21    1    1    2  503  502  0.10623339205E+02 -0.17963087490E+02  0.45194159460E+03  0.45242317887E+03  0.00000000000E+00 0. -1.
          2    1    1    2  501    0 -0.10623339205E+02  0.17963087490E+02 -0.10094064441E+03  0.10307541677E+03  0.00000000000E+00 0. -1.
</event>
<event>
 4    1  0.1635676E+006  0.2108659E+02  0.7546771E-02  0.1518032E+00
         -3   -1    0    0    0  501 -0.00000000000E+00  0.00000000000E+00  0.18286522348E+02  0.18286522348E+02  0.00000000000E+00 0.  1.
         21   -1    0    0  503  502  0.00000000000E+00 -0.00000000000E+00 -0.30789532411E+02  0.30789532411E+02  0.00000000000E+00 0.  1.
         21    1    1    2  503  501 -0.90349574141E+01 -0.19052926768E+02 -0.17503465897E+02  0.27404667345E+02  0.00000000000E+00 0.  1.
         -3    1    1    2    0  502  0.90349574141E+01  0.19052926768E+02  0.50004558336E+01  0.21671387414E+02  0.00000000000E+00 0.  1.
</event>
<event>
 4    1  0.1635676E+006  0.3925799E+02  0.7546771E-02  0.1352890E+00
         21   -1    0    0  503  502  0.00000000000E+00  0.00000000000E+00  0.44529276091E+01  0.44529276091E+01  0.00000000000E+00 0. -1.
         -4   -1    0    0    0  501 -0.00000000000E+00 -0.00000000000E+00 -0.35419020319E+03  0.35419020319E+03  0.00000000000E+00 0. -1.
         21    1    1    2  503  501  0.34153752475E+02  0.19357460956E+02 -0.20195819172E+03  0.20573842934E+03  0.00000000000E+00 0. -1.
         -4    1    1    2    0  502 -0.34153752475E+02 -0.19357460956E+02 -0.14777908386E+03  0.15290470146E+03  0.00000000000E+00 0. -1.
</event>
<event>
 4    1  0.1635676E+006  0.2046164E+02  0.7546771E-02  0.1527092E+00
         -1   -1    0    0    0  501 -0.00000000000E+00  0.00000000000E+00  0.24970618179E+01  0.24970618179E+01  0.00000000000E+00 0. -1.
         21   -1    0    0  501  502  0.00000000000E+00 -0.00000000000E+00 -0.10565146090E+04  0.10565146090E+04  0.00000000000E+00 0.  1.
         21    1    1    2  503  502  0.19491453436E+02 -0.62259139950E+01 -0.10126843566E+04  0.10128910528E+04  0.00000000000E+00 0.  1.
         -1    1    1    2    0  503 -0.19491453436E+02  0.62259139950E+01 -0.41333190632E+02  0.46120618057E+02  0.00000000000E+00 0. -1.
</event>
<event>
 4    1  0.1635676E+006  0.2011497E+02  0.7546771E-02  0.1532285E+00
          2   -1    0    0  502    0 -0.00000000000E+00  0.00000000000E+00  0.68955157993E+03  0.68955157993E+03  0.00000000000E+00 0.  1.
         21   -1    0    0  503  502  0.00000000000E+00 -0.00000000000E+00 -0.82631057235E+00  0.82631057235E+00  0.00000000000E+00 0. -1.
         21    1    1    2  503  501 -0.18428493590E+02 -0.80624120470E+01  0.15850948603E+03  0.15978069040E+03  0.00000000000E+00 0. -1.
          2    1    1    2  501    0  0.18428493590E+02  0.80624120470E+01  0.53021578333E+03  0.53059720010E+03  0.00000000000E+00 0.  1.
</event>
<event>
 4    1  0.1635676E+006  0.2241972E+02  0.7546771E-02  0.1499916E+00
         21   -1    0    0  503  502  0.00000000000E+00  0.00000000000E+00  0.41912154474E+02  0.41912154474E+02  0.00000000000E+00 0.  1.
         -2   -1    0    0    0  501 -0.00000000000E+00 -0.00000000000E+00 -0.10766199121E+03  0.10766199121E+03  0.00000000000E+00 0.  1.
         21    1    1    2  503  501  0.21886829154E+02 -0.48590600921E+01  0.37623829013E+02  0.43797217549E+02  0.00000000000E+00 0.  1.
         -2    1    1    2    0  502 -0.21886829154E+02  0.48590600921E+01 -0.10337366575E+03  0.10577692814E+03  0.00000000000E+00 0.  1.
</event>
<event>
 4    1  0.1635676E+006  0.2142117E+02  0.7546771E-02  0.1513336E+00
         21   -1    0    0  503  502  0.00000000000E+00  0.00000000000E+00  0.33267320615E+02  0.33267320615E+02  0.00000000000E+00 0.  1.
         -4   -1    0    0    0  501 -0.00000000000E+00 -0.00000000000E+00 -0.14445278077E+02  0.14445278077E+02  0.00000000000E+00 0.  1.
         21    1    1    2  503  501 -0.95576455549E+01  0.19170753694E+02  0.14479225329E+02  0.25855644488E+02  0.00000000000E+00 0.  1.
         -4    1    1    2    0  502  0.95576455549E+01 -0.19170753694E+02  0.43428172095E+01  0.21856954204E+02  0.00000000000E+00 0.  1.
</event>
<event>
 4    1  0.1635676E+006  0.2316850E+02  0.7546771E-02  0.1490393E+00
         21   -1    0    0  501  502  0.00000000000E+00  0.00000000000E+00  0.10160831816E+03  0.10160831816E+03  0.00000000000E+00 0.  1.
          2   -1    0    0  503    0 -0.00000000000E+00 -0.00000000000E+00 -0.54013959816E+01  0.54013959816E+01  0.00000000000E+00 0.  1.
         21    1    1    2  503  502  0.22953174336E+02 -0.31513938767E+01  0.56030661101E+02  0.60631794291E+02  0.00000000000E+00 0.  1.
          2    1    1    2  501    0 -0.22953174336E+02  0.31513938767E+01  0.40176261072E+02  0.46377919846E+02  0.00000000000E+00 0.  1.
</event>
<event>
 4    1  0.1635676E+006  0.2081813E+02  0.7546771E-02  0.1521877E+00
          3   -1    0    0  503    0 -0.00000000000E+00  0.00000000000E+00  0.25968313021E+03  0.25968313021E+03  0.00000000000E+00 0.  1.
         21   -1    0    0  501  502  0.00000000000E+00 -0.00000000000E+00 -0.17180630667E+01  0.17180630667E+01  0.00000000000E+00 0. -1.
         21    1    1    2  503  502  0.17969494715E+02 -0.10511513085E+02  0.10688130881E+03  0.10888989310E+03  0.00000000000E+00 0. -1.
          3    1    1    2  501    0 -0.17969494715E+02  0.10511513085E+02  0.15108375833E+03  0.15251130017E+03  0.00000000000E+00 0.  1.
</event>
<event>
 4    1  0.1635676E+006  0.2652721E+02  0.7546771E-02  0.1452416E+00
          2   -1    0    0  502    0 -0.00000000000E+00  0.00000000000E+00  0.24274214261E+02  0.24274214261E+02  0.00000000000E+00 0.  1.
         21   -1    0    0  503  502  0.00000000000E+00 -0.00000000000E+00 -0.97464002477E+02  0.97464002477E+02  0.00000000000E+00 0. -1.
         21    1    1    2  503  501  0.13441285335E+02 -0.22869728305E+02 -0.87614826296E+02  0.91542615273E+02  0.00000000000E+00 0. -1.
          2    1    1    2  501    0 -0.13441285335E+02  0.22869728305E+02  0.14425038079E+02  0.30195601465E+02  0.00000000000E+00 0.  1.
</event>
<event>
 4    1  0.1635676E+006  0.2458247E+02  0.7546771E-02  0.1473529E+00
          2   -1    0    0  503    0 -0.00000000000E+00  0.00000000000E+00  0.25287154416E+03  0.25287154416E+03  0.00000000000E+00 0. -1.
         21   -1    0    0  501  502  0.00000000000E+00 -0.00000000000E+00 -0.81000502307E+01  0.81000502307E+01  0.00000000000E+00 0. -1.
         21    1    1    2  503  502 -0.70080694752E+01 -0.23562355665E+02  0.12826464586E+02  0.27727528487E+02  0.00000000000E+00 0. -1.
          2    1    1    2  501    0  0.70080694752E+01  0.23562355665E+02  0.23194502934E+03  0.23324406590E+03  0.00000000000E+00 0. -1.
</event>
<event>
 4    1  0.1635676E+006  0.2259246E+02  0.7546771E-02  0.1497680E+00
         21   -1    0    0  503  502  0.00000000000E+00  0.00000000000E+00  0.26874605833E+01  0.26874605833E+01  0.00000000000E+00 0. -1.
          3   -1    0    0  502    0 -0.00000000000E+00 -0.00000000000E+00 -0.23725537080E+03  0.23725537080E+03  0.00000000000E+00 0.  1.
         21    1    1    2  503  501  0.31469974847E+01  0.22372204580E+02 -0.63700059682E+02  0.67587844576E+02  0.00000000000E+00 0. -1.
          3    1    1    2  501    0 -0.31469974847E+01 -0.22372204580E+02 -0.17086785053E+03  0.17235498680E+03  0.00000000000E+00 0.  1.
</event>
<event>
 4    1  0.1635676E+006  0.2195451E+02  0.7546771E-02  0.1506061E+00
          4   -1    0    0  502    0 -0.00000000000E+00  0.00000000000E+00  0.15414340202E+03  0.15414340202E+03  0.00000000000E+00 0.  1.
         21   -1    0    0  503  502  0.00000000000E+00 -0.00000000000E+00 -0.11326696687E+02  0.11326696687E+02  0.00000000000E+00 0.  1.
         21    1    1    2  503  501 -0.44897194416E+01 -0.21490534328E+02  0.10140063575E+01  0.21977917446E+02  0.00000000000E+00 0.  1.
          4    1    1    2  501    0  0.44897194416E+01  0.21490534328E+02  0.14180269898E+03  0.14349218126E+03  0.00000000000E+00 0.  1.
</event>
<event>
 4    1  0.1635676E+006  0.3096833E+02  0.7546771E-02  0.1411364E+00
         -2   -1    0    0    0  501 -0.00000000000E+00  0.00000000000E+00  0.17600243121E+03  0.17600243121E+03  0.00000000000E+00 0. -1.
         21   -1    0    0  503  502  0.00000000000E+00 -0.00000000000E+00 -0.19874211892E+03  0.19874211892E+03  0.00000000000E+00 0. -1.
         21    1    1    2  503  501  0.25193843981E+02  0.18008550910E+02 -0.19615563183E+03  0.19858516958E+03  0.00000000000E+00 0. -1.
         -2    1    1    2    0  502 -0.25193843981E+02 -0.18008550910E+02  0.17341594412E+03  0.17615938055E+03  0.00000000000E+00 0. -1.
</event>
<event>
 4    1  0.1635676E+006  0.2399340E+02  0.7546771E-02  0.1480387E+00
         21   -1    0    0  503  502  0.00000000000E+00  0.00000000000E+00  0.11916028712E+02  0.11916028712E+02  0.00000000000E+00 0.  1.
         -3   -1    0    0    0  501 -0.00000000000E+00 -0.00000000000E+00 -0.32907513783E+03  0.32907513783E+03  0.00000000000E+00 0. -1.
         21    1    1    2  503  501  0.23495887853E+02 -0.48607075093E+01 -0.10957502136E+01  0.24018407358E+02  0.00000000000E+00 0.  1.
         -3    1    1    2    0  502 -0.23495887853E+02  0.48607075093E+01 -0.31606335891E+03  0.31697275919E+03  0.00000000000E+00 0. -1.
</event>
<event>
 4    1  0.1635676E+006  0.3629723E+02  0.7546771E-02  0.1371666E+00
          1   -1    0    0  503    0 -0.00000000000E+00  0.00000000000E+00  0.25026727260E+03  0.25026727260E+03  0.00000000000E+00 0.  1.
         21   -1    0    0  501  502  0.00000000000E+00 -0.00000000000E+00 -0.35227998109E+03  0.35227998109E+03  0.00000000000E+00 0.  1.
         21    1    1    2  503  502  0.35633585048E+02 -0.69091724194E+01 -0.35002045294E+03  0.35189743750E+03  0.00000000000E+00 0.  1.
          1    1    1    2  501    0 -0.35633585048E+02  0.69091724194E+01  0.24800774445E+03  0.25064981618E+03  0.00000000000E+00 0.  1.
</event>
<event>
 4    1  0.1635676E+006  0.2570196E+02  0.7546771E-02  0.1461102E+00
         21   -1    0    0  503  502  0.00000000000E+00  0.00000000000E+00  0.48668344379E+02  0.48668344379E+02  0.00000000000E+00 0. -1.
          2   -1    0    0  502    0 -0.00000000000E+00 -0.00000000000E+00 -0.29827665524E+02  0.29827665524E+02  0.00000000000E+00 0.  1.
         21    1    1    2  503  501  0.25700364627E+02 -0.28627148930E+00  0.38393293947E+02  0.46202118062E+02  0.00000000000E+00 0. -1.
          2    1    1    2  501    0 -0.25700364627E+02  0.28627148930E+00 -0.19552615092E+02  0.32293891841E+02  0.00000000000E+00 0.  1.
</event>
<event>
 4    1  0.1635676E+006  0.2617756E+02  0.7546771E-02  0.1456049E+00
         -3   -1    0    0    0  501 -0.00000000000E+00  0.00000000000E+00  0.43146499575E+02  0.43146499575E+02  0.00000000000E+00 0.  1.
         21   -1    0    0  501  502  0.00000000000E+00 -0.00000000000E+00 -0.58984955828E+03  0.58984955828E+03  0.00000000000E+00 0. -1.
         21    1    1    2  503  502  0.30310933487E-02  0.26177562909E+02 -0.58555947189E+03  0.58614431664E+03  0.00000000000E+00 0. -1.
         -3    1    1    2    0  503 -0.30310933487E-02 -0.26177562909E+02  0.38856413186E+02  0.46851741214E+02  0.00000000000E+00 0.  1.
</event>
<event>
 4    1  0.1635676E+006  0.2031551E+02  0.7546771E-02  0.1529266E+00
         -2   -1    0    0    0  501 -0.00000000000E+00  0.00000000000E+00  0.34625686740E+03  0.34625686740E+03  0.00000000000E+00 0.  1.
         21   -1    0    0  501  502  0.00000000000E+00 -0.00000000000E+00 -0.53309090637E+02  0.53309090637E+02  0.00000000000E+00 0. -1.
         21    1    1    2  503  502  0.20293414920E+02 -0.94731566473E+00 -0.51062972141E+02  0.54955866110E+02  0.00000000000E+00 0. -1.
         -2    1    1    2    0  503 -0.20293414920E+02  0.94731566473E+00  0.34401074890E+03  0.34461009192E+03  0.00000000000E+00 0.  1.
</event>
<event>
 4    1  0.1635676E+006  0.2920517E+02  0.7546771E-02  0.1426632E+00
         21   -1    0    0  501  502  0.00000000000E+00  0.00000000000E+00  0.22657920023E+02  0.22657920023E+02  0.00000000000E+00 0.  1.
          1   -1    0    0  503    0 -0.00000000000E+00 -0.00000000000E+00 -0.60525315543E+02  0.60525315543E+02  0.00000000000E+00 0. -1.
         21    1    1    2  503  502 -0.27826845431E+02 -0.88661400243E+01  0.66388992788E+01  0.29950237883E+02  0.00000000000E+00 0.  1.
          1    1    1    2  501    0  0.27826845431E+02  0.88661400243E+01 -0.44506294800E+02  0.53232997684E+02  0.00000000000E+00 0. -1.
</event>
<event>
 4    1  0.1635676E+006  0.2362117E+02  0.7546771E-02  0.1484842E+00
          4   -1    0    0  503    0 -0.00000000000E+00  0.00000000000E+00  0.10232640508E+02  0.10232640508E+02  0.00000000000E+00 0. -1.
         21   -1    0    0  501  502  0.00000000000E+00 -0.00000000000E+00 -0.71384438008E+02  0.71384438008E+02  0.00000000000E+00 0.  1.
         21    1    1    2  503  502  0.54309401910E+01  0.22988352580E+02 -0.50406673377E+02  0.55666796088E+02  0.00000000000E+00 0.  1.
          4    1    1    2  501    0 -0.54309401910E+01 -0.22988352580E+02 -0.10745124123E+02  0.25950282428E+02  0.00000000000E+00 0. -1.
</event>
<event>
 4    1  0.1635676E+006  0.2151810E+02  0.7546771E-02  0.1511995E+00
         -3   -1    0    0    0  501 -0.00000000000E+00  0.00000000000E+00  0.13837158132E+01  0.13837158132E+01  0.00000000000E+00 0.  1.
         21   -1    0    0  503  502  0.00000000000E+00 -0.00000000000E+00 -0.11443238984E+04  0.11443238984E+04  0.00000000000E+00 0.  1.
         21    1    1    2  503  501 -0.20920769979E+01  0.21416154621E+02 -0.10533408774E+04  0.10535606449E+04  0.00000000000E+00 0.  1.
         -3    1    1    2    0  502  0.20920769979E+01 -0.21416154621E+02 -0.89599305171E+02  0.92146969305E+02  0.00000000000E+00 0.  1.
</event>
<event>
 4    1  0.1635676E+006  0.3510885E+02  0.7546771E-02  0.1379800E+00
         -2   -1    0    0    0  501 -0.00000000000E+00  0.00000000000E+00  0.64966890067E+02  0.64966890067E+02  0.00000000000E+00 0.  1.
         21   -1    0    0  503  502  0.00000000000E+00 -0.00000000000E+00 -0.29494220969E+02  0.29494220969E+02  0.00000000000E+00 0. -1.
         21    1    1    2  503  501 -0.20788778549E+02 -0.28292361654E+02 -0.10472369672E+02  0.36637433972E+02  0.00000000000E+00 0. -1.
         -2    1    1    2    0  502  0.20788778549E+02  0.28292361654E+02  0.45945038770E+02  0.57823677063E+02  0.00000000000E+00 0.  1.
</event>
<event>
 4    1  0.1635676E+006  0.2516315E+02  0.7546771E-02  0.1466986E+00
         21   -1    0    0  501  502  0.00000000000E+00  0.00000000000E+00  0.61708232764E+01  0.61708232764E+01  0.00000000000E+00 0.  1.
          4   -1    0    0  503    0 -0.00000000000E+00 -0.00000000000E+00 -0.18245765233E+04  0.18245765233E+04  0.00000000000E+00 0.  1.
         21    1    1    2  503  502  0.13217119276E+02  0.21412419370E+02 -0.19940685117E+02  0.32106305738E+02  0.00000000000E+00 0.  1.
          4    1    1    2  501    0 -0.13217119276E+02 -0.21412419370E+02 -0.17984650149E+04  0.17986410408E+04  0.00000000000E+00 0.  1.
</event>
<event>
 4    1  0.1635676E+006  0.2724021E+02  0.7546771E-02  0.1445210E+00
          2   -1    0    0  502    0 -0.00000000000E+00  0.00000000000E+00  0.15390503549E+04  0.15390503549E+04  0.00000000000E+00 0.  1.
         21   -1    0    0  503  502  0.00000000000E+00 -0.00000000000E+00 -0.14548632827E+02  0.14548632827E+02  0.00000000000E+00 0. -1.
         21    1    1    2  503  501 -0.14624722588E+02  0.22981434938E+02 -0.15688222733E+01  0.27285345260E+02  0.00000000000E+00 0. -1.
          2    1    1    2  501    0  0.14624722588E+02 -0.22981434938E+02  0.15260705444E+04  0.15263136425E+04  0.00000000000E+00 0.  1.
</event>
<event>
 4    1  0.1635676E+006  0.2168469E+02  0.7546771E-02  0.1509710E+00
         21   -1    0    0  503  502  0.00000000000E+00  0.00000000000E+00  0.88863387845E+02  0.88863387845E+02  0.00000000000E+00 0.  1.
          2   -1    0    0  502    0 -0.00000000000E+00 -0.00000000000E+00 -0.22372955363E+03  0.22372955363E+03  0.00000000000E+00 0.  1.
         21    1    1    2  503  501 -0.21676268803E+02 -0.60414604929E+00  0.87003998836E+02  0.89665608987E+02  0.00000000000E+00 0.  1.
          2    1    1    2  501    0  0.21676268803E+02  0.60414604929E+00 -0.22187016462E+03  0.22292733249E+03  0.00000000000E+00 0.  1.
</event>
<event>
 4    1  0.1635676E+006  0.2287183E+02  0.7546771E-02  0.1494114E+00
         21   -1    0    0  501  502  0.00000000000E+00  0.00000000000E+00  0.25418842239E+02  0.25418842239E+02  0.00000000000E+00 0. -1.
          2   -1    0    0  503    0 -0.00000000000E+00 -0.00000000000E+00 -0.25878250140E+02  0.25878250140E+02  0.00000000000E+00 0. -1.
         21    1    1    2  503  502  0.72709086478E+01  0.21685354531E+02  0.11375693360E+02  0.25544610255E+02  0.00000000000E+00 0. -1.
          2    1    1    2  501    0 -0.72709086478E+01 -0.21685354531E+02 -0.11835101261E+02  0.25752482124E+02  0.00000000000E+00 0. -1.
</event>
<event>
 4    1  0.1635676E+006  0.2644765E+02  0.7546771E-02  0.1453237E+00
          1   -1    0    0  502    0 -0.00000000000E+00  0.00000000000E+00  0.19204750505E+03  0.19204750505E+03  0.00000000000E+00 0. -1.
         21   -1    0    0  503  502  0.00000000000E+00 -0.00000000000E+00 -0.40500382129E+01  0.40500382129E+01  0.00000000000E+00 0. -1.
         21    1    1    2  503  501 -0.17969570970E+02 -0.19405484753E+02  0.62885258087E+02  0.68220480825E+02  0.00000000000E+00 0. -1.
          1    1    1    2  501    0  0.17969570970E+02  0.19405484753E+02  0.12511220875E+03  0.12787706243E+03  0.00000000000E+00 0. -1.
</event>
<event>
 4    1  0.1635676E+006  0.3424631E+02  0.7546771E-02  0.1385941E+00
         21   -1    0    0  501  502  0.00000000000E+00  0.00000000000E+00  0.28254207538E+02  0.28254207538E+02  0.00000000000E+00 0. -1.
          2   -1    0    0  503    0 -0.00000000000E+00 -0.00000000000E+00 -0.90897960743E+03  0.90897960743E+03  0.00000000000E+00 0. -1.
         21    1    1    2  503  502  0.64327764342E+01 -0.33636722626E+02  0.17429318259E+02  0.38426434347E+02  0.00000000000E+00 0. -1.
          2    1    1    2  501    0 -0.64327764342E+01  0.33636722626E+02 -0.89815471815E+03  0.89880738062E+03  0.00000000000E+00 0. -1.
</event>
<event>
 4    1  0.1635676E+006  0.3203555E+02  0.7546771E-02  0.1402695E+00
          3   -1    0    0  502    0 -0.00000000000E+00  0.00000000000E+00  0.12932543793E+03  0.12932543793E+03  0.00000000000E+00 0.  1.
         21   -1    0    0  503  502  0.00000000000E+00 -0.00000000000E+00 -0.12057741231E+02  0.12057741231E+02  0.00000000000E+00 0.  1.
         21    1    1    2  503  501 -0.22732780647E+02  0.22572039137E+02  0.17300968740E+02  0.36408787210E+02  0.00000000000E+00 0.  1.
          3    1    1    2  501    0  0.22732780647E+02 -0.22572039137E+02  0.99966727956E+02  0.10497439195E+03  0.00000000000E+00 0.  1.
</event>
<event>
 4    1  0.1635676E+006  0.5289232E+02  0.7546771E-02  0.1286097E+00
         21   -1    0    0  503  502  0.00000000000E+00  0.00000000000E+00  0.34269918206E+02  0.34269918206E+02  0.00000000000E+00 0. -1.
          1   -1    0    0  502    0 -0.00000000000E+00 -0.00000000000E+00 -0.53637354471E+03  0.53637354471E+03  0.00000000000E+00 0. -1.
         21    1    1    2  503  501  0.44908052366E+02 -0.27943941979E+02  0.11661720518E+02  0.54162651210E+02  0.00000000000E+00 0. -1.
          1    1    1    2  501    0 -0.44908052366E+02  0.27943941979E+02 -0.51376534702E+03  0.51648081170E+03  0.00000000000E+00 0. -1.
</event>
<event>
 4    1  0.1635676E+006  0.3704269E+02  0.7546771E-02  0.1366745E+00
         -4   -1    0    0    0  501 -0.00000000000E+00  0.00000000000E+00  0.81662976592E+03  0.81662976592E+03  0.00000000000E+00 0. -1.
         21   -1    0    0  501  502  0.00000000000E+00 -0.00000000000E+00 -0.79440611144E+02  0.79440611144E+02  0.00000000000E+00 0.  1.
         21    1    1    2  503  502  0.20361202491E+02  0.30944826225E+02 -0.74677022264E+02  0.83359573482E+02  0.00000000000E+00 0.  1.
         -4    1    1    2    0  503 -0.20361202491E+02 -0.30944826225E+02  0.81186617704E+03  0.81271080358E+03  0.00000000000E+00 0. -1.
</event>
<event>
 4    1  0.1635676E+006  0.2078777E+02  0.7546771E-02  0.1522317E+00
         21   -1    0    0  501  502  0.00000000000E+00  0.00000000000E+00  0.12150316600E+01  0.12150316600E+01  0.00000000000E+00 0.  1.
          2   -1    0    0  503    0 -0.00000000000E+00 -0.00000000000E+00 -0.10720680007E+04  0.10720680007E+04  0.00000000000E+00 0.  1.
         21    1    1    2  503  502  0.16303131042E+02  0.12897258027E+02 -0.96739232013E+02  0.98947513141E+02  0.00000000000E+00 0.  1.
          2    1    1    2  501    0 -0.16303131042E+02 -0.12897258027E+02 -0.97411373704E+03  0.97433551923E+03  0.00000000000E+00 0.  1.
</event>
<event>
 4    1  0.1635676E+006  0.2015238E+02  0.7546771E-02  0.1531719E+00
         -1   -1    0    0    0  501 -0.00000000000E+00  0.00000000000E+00  0.17170997603E+03  0.17170997603E+03  0.00000000000E+00 0.  1.
         21   -1    0    0  503  502  0.00000000000E+00 -0.00000000000E+00 -0.48089607299E+02  0.48089607299E+02  0.00000000000E+00 0.  1.
         21    1    1    2  503  501  0.77079952807E+01  0.18620022973E+02 -0.45352990667E+02  0.49628743780E+02  0.00000000000E+00 0.  1.
         -1    1    1    2    0  502 -0.77079952807E+01 -0.18620022973E+02  0.16897335940E+03  0.17017083955E+03  0.00000000000E+00 0.  1.
</event>
<event>
 4    1  0.1635676E+006  0.2141933E+02  0.7546771E-02  0.1513361E+00
         -1   -1    0    0    0  501 -0.00000000000E+00  0.00000000000E+00  0.64358783916E+03  0.64358783916E+03  0.00000000000E+00 0. -1.
         21   -1    0    0  501  502  0.00000000000E+00 -0.00000000000E+00 -0.17321211060E+02  0.17321211060E+02  0.00000000000E+00 0.  1.
         21    1    1    2  503  502  0.10356649920E+02 -0.18749063308E+02 -0.10449795248E+02  0.23832452522E+02  0.00000000000E+00 0.  1.
         -1    1    1    2    0  503 -0.10356649920E+02  0.18749063308E+02  0.63671642335E+03  0.63707659770E+03  0.00000000000E+00 0. -1.
</event>
<event>
 4    1  0.1635676E+006  0.2167926E+02  0.7546771E-02  0.1509784E+00
          2   -1    0    0  502    0 -0.00000000000E+00  0.00000000000E+00  0.10683903163E+03  0.10683903163E+03  0.00000000000E+00 0.  1.
         21   -1    0    0  503  502  0.00000000000E+00 -0.00000000000E+00 -0.28128665497E+02  0.28128665497E+02  0.00000000000E+00 0.  1.
         21    1    1    2  503  501 -0.19713263140E+02  0.90209466836E+01 -0.22627536880E+02  0.31336809792E+02  0.00000000000E+00 0.  1.
          2    1    1    2  501    0  0.19713263140E+02 -0.90209466836E+01  0.10133790301E+03  0.10363088733E+03  0.00000000000E+00 0.  1.
</event>
<event>
 4    1  0.1635676E+006  0.2792297E+02  0.7546771E-02  0.1438551E+00
         -2   -1    0    0    0  501 -0.00000000000E+00  0.00000000000E+00  0.99322787341E+02  0.99322787341E+02  0.00000000000E+00 0.  1.
         21   -1    0    0  503  502  0.00000000000E+00 -0.00000000000E+00 -0.32442563692E+02  0.32442563692E+02  0.00000000000E+00 0.  1.
         21    1    1    2  503  501  0.25517185809E+02  0.11338660714E+02 -0.23920638747E+02  0.36768042597E+02  0.00000000000E+00 0.  1.
         -2    1    1    2    0  502 -0.25517185809E+02 -0.11338660714E+02  0.90800862395E+02  0.94997308436E+02  0.00000000000E+00 0.  1.
</event>
<event>
 4    1  0.1635676E+006  0.2348187E+02  0.7546771E-02  0.1486534E+00
         -4   -1    0    0    0  501 -0.00000000000E+00  0.00000000000E+00  0.66477343750E+02  0.66477343750E+02  0.00000000000E+00 0.  1.
         21   -1    0    0  503  502  0.00000000000E+00 -0.00000000000E+00 -0.25537755680E+02  0.25537755680E+02  0.00000000000E+00 0.  1.
         21    1    1    2  503  501  0.23409995912E+02  0.18358459474E+01 -0.17335011821E+02  0.29187340985E+02  0.00000000000E+00 0.  1.
         -4    1    1    2    0  502 -0.23409995912E+02 -0.18358459474E+01  0.58274599890E+02  0.62827758445E+02  0.00000000000E+00 0.  1.
</event>
<event>
 4    1  0.1635676E+006  0.3405327E+02  0.7546771E-02  0.1387344E+00
         -2   -1    0    0    0  501 -0.00000000000E+00  0.00000000000E+00  0.17917120740E+03  0.17917120740E+03  0.00000000000E+00 0. -1.
         21   -1    0    0  503  502  0.00000000000E+00 -0.00000000000E+00 -0.26266620313E+02  0.26266620313E+02  0.00000000000E+00 0. -1.
         21    1    1    2  503  501 -0.21140508208E+02 -0.26696518023E+02 -0.12717985587E+02  0.36350685265E+02  0.00000000000E+00 0. -1.
         -2    1    1    2    0  502  0.21140508208E+02  0.26696518023E+02  0.16562257267E+03  0.16908714245E+03  0.00000000000E+00 0. -1.
</event>
<event>
 4    1  0.1635676E+006  0.2288670E+02  0.7546771E-02  0.1493926E+00
          2   -1    0    0  503    0 -0.00000000000E+00  0.00000000000E+00  0.69542729294E+03  0.69542729294E+03  0.00000000000E+00 0.  1.
         21   -1    0    0  501  502  0.00000000000E+00 -0.00000000000E+00 -0.80578225325E+00  0.80578225325E+00  0.00000000000E+00 0. -1.
         21    1    1    2  503  502 -0.19448703784E+02  0.12064376484E+02  0.25838998761E+03  0.25940159397E+03  0.00000000000E+00 0. -1.
          2    1    1    2  501    0  0.19448703784E+02 -0.12064376484E+02  0.43623152308E+03  0.43683148123E+03  0.00000000000E+00 0.  1.
</event>
<event>
 4    1  0.1635676E+006  0.2939608E+02  0.7546771E-02  0.1424918E+00
         21   -1    0    0  503  502  0.00000000000E+00  0.00000000000E+00  0.49784924285E+01  0.49784924285E+01  0.00000000000E+00 0.  1.
          1   -1    0    0  502    0 -0.00000000000E+00 -0.00000000000E+00 -0.93503651384E+03  0.93503651384E+03  0.00000000000E+00 0.  1.
         21    1    1    2  503  501 -0.10678831144E+02 -0.27387810118E+02 -0.40883195885E+02  0.50354396863E+02  0.00000000000E+00 0.  1.
          1    1    1    2  501    0  0.10678831144E+02  0.27387810118E+02 -0.88917482553E+03  0.88966060941E+03  0.00000000000E+00 0.  1.
</event>
<event>
 4    1  0.1635676E+006  0.2781273E+02  0.7546771E-02  0.1439611E+00
         21   -1    0    0  503  502  0.00000000000E+00  0.00000000000E+00  0.50587244632E+01  0.50587244632E+01  0.00000000000E+00 0. -1.
          1   -1    0    0  502    0 -0.00000000000E+00 -0.00000000000E+00 -0.84477114928E+03  0.84477114928E+03  0.00000000000E+00 0. -1.
         21    1    1    2  503  501 -0.17938066438E+01  0.27754827150E+02 -0.35316870866E+02  0.44953637675E+02  0.00000000000E+00 0. -1.
          1    1    1    2  501    0  0.17938066438E+01 -0.27754827150E+02 -0.80439555395E+03  0.80487623607E+03  0.00000000000E+00 0. -1.
</event>
<event>
 4    1  0.1635676E+006  0.2009269E+02  0.7546771E-02  0.1532624E+00
         21   -1    0    0  501  502  0.00000000000E+00  0.00000000000E+00  0.93803635619E+01  0.93803635619E+01  0.00000000000E+00 0. -1.
          3   -1    0    0  503    0 -0.00000000000E+00 -0.00000000000E+00 -0.18837682337E+03  0.18837682337E+03  0.00000000000E+00 0.  1.
         21    1    1    2  503  502 -0.40785130378E+01  0.19674395381E+02 -0.26464494413E+01  0.20266223053E+02  0.00000000000E+00 0. -1.
          3    1    1    2  501    0  0.40785130378E+01 -0.19674395381E+02 -0.17635001036E+03  0.17749096388E+03  0.00000000000E+00 0.  1.
</event>
<event>
 4    1  0.1635676E+006  0.2555435E+02  0.7546771E-02  0.1462696E+00
          2   -1    0    0  503    0 -0.00000000000E+00  0.00000000000E+00  0.27245832361E+04  0.27245832361E+04  0.00000000000E+00 0. -1.
         21   -1    0    0  501  502  0.00000000000E+00 -0.00000000000E+00 -0.27516455517E+00  0.27516455517E+00  0.00000000000E+00 0. -1.
         21    1    1    2  503  502  0.48898404570E+01 -0.25082151709E+02  0.87288847319E+03  0.87326245282E+03  0.00000000000E+00 0. -1.
          2    1    1    2  501    0 -0.48898404570E+01  0.25082151709E+02  0.18514195983E+04  0.18515959478E+04  0.00000000000E+00 0. -1.
</event>
<event>
 4    1  0.1635676E+006  0.2954150E+02  0.7546771E-02  0.1423623E+00
         21   -1    0    0  503  502  0.00000000000E+00  0.00000000000E+00  0.45397043366E+02  0.45397043366E+02  0.00000000000E+00 0. -1.
         -2   -1    0    0    0  501 -0.00000000000E+00 -0.00000000000E+00 -0.38054997640E+02  0.38054997640E+02  0.00000000000E+00 0.  1.
         21    1    1    2  503  501  0.28002605352E+02 -0.94103328796E+01  0.33023242911E+02  0.44308406016E+02  0.00000000000E+00 0. -1.
         -2    1    1    2    0  502 -0.28002605352E+02  0.94103328796E+01 -0.25681197184E+02  0.39143634990E+02  0.00000000000E+00 0.  1.
</event>
<event>
 4    1  0.1635676E+006  0.3477485E+02  0.7546771E-02  0.1382153E+00
         21   -1    0    0  503  502  0.00000000000E+00  0.00000000000E+00  0.68284746064E+01  0.68284746064E+01  0.00000000000E+00 0.  1.
          2   -1    0    0  502    0 -0.00000000000E+00 -0.00000000000E+00 -0.41205417532E+03  0.41205417532E+03  0.00000000000E+00 0. -1.
         21    1    1    2  503  501  0.12934653776E+02 -0.32279787682E+02 -0.44458460013E+02  0.56443286827E+02  0.00000000000E+00 0.  1.
          2    1    1    2  501    0 -0.12934653776E+02  0.32279787682E+02 -0.36076724070E+03  0.36243936310E+03  0.00000000000E+00 0. -1.
</event>
<event>
 4    1  0.1635676E+006  0.4359882E+02  0.7546771E-02  0.1328596E+00
          1   -1    0    0  502    0 -0.00000000000E+00  0.00000000000E+00  0.62282143295E+03  0.62282143295E+03  0.00000000000E+00 0. -1.
         21   -1    0    0  503  502  0.00000000000E+00 -0.00000000000E+00 -0.20500996454E+02  0.20500996454E+02  0.00000000000E+00 0.  1.
         21    1    1    2  503  501  0.36547748080E+02 -0.23772235656E+02  0.44063980804E+01  0.43820924475E+02  0.00000000000E+00 0.  1.
          1    1    1    2  501    0 -0.36547748080E+02  0.23772235656E+02  0.59791403842E+03  0.59950150493E+03  0.00000000000E+00 0. -1.
</event>
<event>
 4    1  0.1635676E+006  0.2048739E+02  0.7546771E-02  0.1526711E+00
          3   -1    0    0  503    0 -0.00000000000E+00  0.00000000000E+00  0.20696412595E+02  0.20696412595E+02  0.00000000000E+00 0. -1.
         21   -1    0    0  501  502  0.00000000000E+00 -0.00000000000E+00 -0.29845273642E+02  0.29845273642E+02  0.00000000000E+00 0. -1.
         21    1    1    2  503  502  0.14072959196E+02 -0.14889085109E+02 -0.18880486215E+02  0.27860470126E+02  0.00000000000E+00 0. -1.
          3    1    1    2  501    0 -0.14072959196E+02  0.14889085109E+02  0.97316251675E+01  0.22681216112E+02  0.00000000000E+00 0. -1.
</event>
<event>
 4    1  0.1635676E+006  0.2253325E+02  0.7546771E-02  0.1498444E+00
          3   -1    0    0  502    0 -0.00000000000E+00  0.00000000000E+00  0.21566469313E+02  0.21566469313E+02  0.00000000000E+00 0.  1.
         21   -1    0    0  503  502  0.00000000000E+00 -0.00000000000E+00 -0.41056792325E+02  0.41056792325E+02  0.00000000000E+00 0.  1.
         21    1    1    2  503  501  0.12293993967E+02  0.18883989881E+02 -0.30195414874E+02  0.37676391028E+02  0.00000000000E+00 0.  1.
          3    1    1    2  501    0 -0.12293993967E+02 -0.18883989881E+02  0.10705091862E+02  0.24946870611E+02  0.00000000000E+00 0.  1.
</event>
<event>
 4    1  0.1635676E+006  0.2504495E+02  0.7546771E-02  0.1468301E+00
          4   -1    0    0  502    0 -0.00000000000E+00  0.00000000000E+00  0.36223183727E+02  0.36223183727E+02  0.00000000000E+00 0.  1.
         21   -1    0    0  503  502  0.00000000000E+00 -0.00000000000E+00 -0.81932659522E+02  0.81932659522E+02  0.00000000000E+00 0.  1.
         21    1    1    2  503  501 -0.10249516985E+02  0.22851628490E+02 -0.75319548606E+02  0.79374327872E+02  0.00000000000E+00 0.  1.
          4    1    1    2  501    0  0.10249516985E+02 -0.22851628490E+02  0.29610072811E+02  0.38781515377E+02  0.00000000000E+00 0.  1.
</event>
<event>
 4    1  0.1635676E+006  0.2305369E+02  0.7546771E-02  0.1491825E+00
         -2   -1    0    0    0  501 -0.00000000000E+00  0.00000000000E+00  0.57264615473E+02  0.57264615473E+02  0.00000000000E+00 0. -1.
         21   -1    0    0  501  502  0.00000000000E+00 -0.00000000000E+00 -0.27503742238E+02  0.27503742238E+02  0.00000000000E+00 0. -1.
         21    1    1    2  503  502 -0.16106982571E+02  0.16493563752E+02 -0.19619223830E+02  0.30271875999E+02  0.00000000000E+00 0. -1.
         -2    1    1    2    0  503  0.16106982571E+02 -0.16493563752E+02  0.49380097066E+02  0.54496481712E+02  0.00000000000E+00 0. -1.
</event>
<event>
 4    1  0.1635676E+006  0.5152804E+02  0.7546771E-02  0.1291680E+00
          2   -1    0    0  503    0 -0.00000000000E+00  0.00000000000E+00  0.53798391199E+03  0.53798391199E+03  0.00000000000E+00 0.  1.
         21   -1    0    0  501  502  0.00000000000E+00 -0.00000000000E+00 -0.45084839172E+02  0.45084839172E+02  0.00000000000E+00 0.  1.
         21    1    1    2  503  502  0.40366208050E+02 -0.32026685293E+02 -0.28665619661E+02  0.58964880002E+02  0.00000000000E+00 0.  1.
          2    1    1    2  501    0 -0.40366208050E+02  0.32026685293E+02  0.52156469248E+03  0.52410387116E+03  0.00000000000E+00 0.  1.
</event>
<event>
 4    1  0.1635676E+006  0.2120585E+02  0.7546771E-02  0.1516346E+00
          2   -1    0    0  503    0 -0.00000000000E+00  0.00000000000E+00  0.15840486837E+04  0.15840486837E+04  0.00000000000E+00 0.  1.
         21   -1    0    0  501  502  0.00000000000E+00 -0.00000000000E+00 -0.26982799645E+01  0.26982799645E+01  0.00000000000E+00 0. -1.
         21    1    1    2  503  502  0.33603964586E+01  0.20937905556E+02  0.40196613058E+02  0.45447286550E+02  0.00000000000E+00 0. -1.
          2    1    1    2  501    0 -0.33603964586E+01 -0.20937905556E+02  0.15411537906E+04  0.15412996771E+04  0.00000000000E+00 0.  1.
</event>
<event>
 4    1  0.1635676E+006  0.2776498E+02  0.7546771E-02  0.1440072E+00
          2   -1    0    0  502    0 -0.00000000000E+00  0.00000000000E+00  0.13770069764E+04  0.13770069764E+04  0.00000000000E+00 0. -1.
         21   -1    0    0  503  502  0.00000000000E+00 -0.00000000000E+00 -0.11798042312E+02  0.11798042312E+02  0.00000000000E+00 0. -1.
         21    1    1    2  503  501 -0.14865883513E+02 -0.23449932761E+02  0.48773440321E+01  0.28190110392E+02  0.00000000000E+00 0. -1.
          2    1    1    2  501    0  0.14865883513E+02  0.23449932761E+02  0.13603315901E+04  0.13606149084E+04  0.00000000000E+00 0. -1.
</event>
<event>
 4    1  0.1635676E+006  0.2814361E+02  0.7546771E-02  0.1436447E+00
         21   -1    0    0  503  502  0.00000000000E+00  0.00000000000E+00  0.10258649530E+02  0.10258649530E+02  0.00000000000E+00 0.  1.
         -1   -1    0    0    0  501 -0.00000000000E+00 -0.00000000000E+00 -0.60194675296E+03  0.60194675296E+03  0.00000000000E+00 0.  1.
         21    1    1    2  503  501  0.27483349849E+02 -0.60603672370E+01 -0.10046055939E+02  0.29882868167E+02  0.00000000000E+00 0.  1.
         -1    1    1    2    0  502 -0.27483349849E+02  0.60603672370E+01 -0.58164204749E+03  0.58232253432E+03  0.00000000000E+00 0.  1.
</event>
<event>
 4    1  0.1635676E+006  0.2710531E+02  0.7546771E-02  0.1446553E+00
          2   -1    0    0  502    0 -0.00000000000E+00  0.00000000000E+00  0.64032418770E+01  0.64032418770E+01  0.00000000000E+00 0.  1.
         21   -1    0    0  503  502  0.00000000000E+00 -0.00000000000E+00 -0.32689037439E+03  0.32689037439E+03  0.00000000000E+00 0.  1.
         21    1    1    2  503  501  0.95370840394E+01  0.25372069815E+02 -0.29449515850E+03  0.29573991323E+03  0.00000000000E+00 0.  1.
          2    1    1    2  501    0 -0.95370840394E+01 -0.25372069815E+02 -0.25991974018E+02  0.37553703040E+02  0.00000000000E+00 0.  1.
</event>
<event>
 4    1  0.1635676E+006  0.3437104E+02  0.7546771E-02  0.1385040E+00
         21   -1    0    0  503  502  0.00000000000E+00  0.00000000000E+00  0.35551337913E+02  0.35551337913E+02  0.00000000000E+00 0.  1.
         -4   -1    0    0    0  501 -0.00000000000E+00 -0.00000000000E+00 -0.39268941215E+02  0.39268941215E+02  0.00000000000E+00 0.  1.
         21    1    1    2  503  501  0.11100689518E+02 -0.32529113854E+02  0.12811787808E+02  0.36681200399E+02  0.00000000000E+00 0.  1.
         -4    1    1    2    0  502 -0.11100689518E+02  0.32529113854E+02 -0.16529391110E+02  0.38139078729E+02  0.00000000000E+00 0.  1.
</event>
<event>
 4    1  0.1635676E+006  0.4068650E+02  0.7546771E-02  0.1344509E+00
          2   -1    0    0  503    0 -0.00000000000E+00  0.00000000000E+00  0.43531274901E+03  0.43531274901E+03  0.00000000000E+00 0.  1.
         21   -1    0    0  501  502  0.00000000000E+00 -0.00000000000E+00 -0.40370899055E+01  0.40370899055E+01  0.00000000000E+00 0. -1.
         21    1    1    2  503  502 -0.19229210448E+02  0.35855661358E+02  0.16271319932E+03  0.16772291501E+03  0.00000000000E+00 0. -1.
          2    1    1    2  501    0  0.19229210448E+02 -0.35855661358E+02  0.26856245978E+03  0.27162692391E+03  0.00000000000E+00 0.  1.
</event>
<event>
 4    1  0.1635676E+006  0.3360844E+02  0.7546771E-02  0.1390619E+00
         21   -1    0    0  503  502  0.00000000000E+00  0.00000000000E+00  0.11307617522E+04  0.11307617522E+04  0.00000000000E+00 0. -1.
         -2   -1    0    0    0  501 -0.00000000000E+00 -0.00000000000E+00 -0.47064322184E+01  0.47064322184E+01  0.00000000000E+00 0.  1.
         21    1    1    2  503  501  0.33291787213E+02  0.46025918241E+01  0.10669238435E+04  0.10674530504E+04  0.00000000000E+00 0. -1.
         -2    1    1    2    0  502 -0.33291787213E+02 -0.46025918241E+01  0.59131476520E+02  0.68015134071E+02  0.00000000000E+00 0.  1.
</event>
<event>
 4    1  0.1635676E+006  0.2545282E+02  0.7546771E-02  0.1463801E+00
         21   -1    0    0  501  502  0.00000000000E+00  0.00000000000E+00  0.97533973107E+01  0.97533973107E+01  0.00000000000E+00 0. -1.
          1   -1    0    0  503    0 -0.00000000000E+00 -0.00000000000E+00 -0.17289351376E+03  0.17289351376E+03  0.00000000000E+00 0. -1.
         21    1    1    2  503  502  0.57575585325E+01  0.24793078807E+02 -0.99048398404E+01  0.27312123485E+02  0.00000000000E+00 0. -1.
          1    1    1    2  501    0 -0.57575585325E+01 -0.24793078807E+02 -0.15323527661E+03  0.15533478758E+03  0.00000000000E+00 0. -1.
</event>
<event>
 4    1  0.1635676E+006  0.2402176E+02  0.7546771E-02  0.1480052E+00
          1   -1    0    0  503    0 -0.00000000000E+00  0.00000000000E+00  0.14067223282E+03  0.14067223282E+03  0.00000000000E+00 0. -1.
         21   -1    0    0  501  502  0.00000000000E+00 -0.00000000000E+00 -0.70458062753E+01  0.70458062753E+01  0.00000000000E+00 0. -1.
         21    1    1    2  503  502  0.12800512494E+02 -0.20327119011E+02  0.19072497250E+02  0.30672545358E+02  0.00000000000E+00 0. -1.
          1    1    1    2  501    0 -0.12800512494E+02  0.20327119011E+02  0.11455392930E+03  0.11704549374E+03  0.00000000000E+00 0. -1.
</event>
<event>
 4    1  0.1635676E+006  0.4844668E+02  0.7546771E-02  0.1305051E+00
         21   -1    0    0  501  502  0.00000000000E+00  0.00000000000E+00  0.63197237196E+01  0.63197237196E+01  0.00000000000E+00 0.  1.
          1   -1    0    0  503    0 -0.00000000000E+00 -0.00000000000E+00 -0.37703128706E+03  0.37703128706E+03  0.00000000000E+00 0.  1.
         21    1    1    2  503  502  0.23846966746E+02 -0.42171114178E+02 -0.20880218044E+03  0.21434885409E+03  0.00000000000E+00 0.  1.
          1    1    1    2  501    0 -0.23846966746E+02  0.42171114178E+02 -0.16190938291E+03  0.16900215669E+03  0.00000000000E+00 0.  1.
</event>
<event>
 4    1  0.1635676E+006  0.2164246E+02  0.7546771E-02  0.1510287E+00
         21   -1    0    0  501  502  0.00000000000E+00  0.00000000000E+00  0.57933459345E+00  0.57933459345E+00  0.00000000000E+00 0.  1.
          2   -1    0    0  503    0 -0.00000000000E+00 -0.00000000000E+00 -0.16131250012E+04  0.16131250012E+04  0.00000000000E+00 0.  1.
         21    1    1    2  503  502 -0.19870709007E+02  0.85761898839E+01 -0.23643036177E+03  0.23741885366E+03  0.00000000000E+00 0.  1.
          2    1    1    2  501    0  0.19870709007E+02 -0.85761898839E+01 -0.13761153049E+04  0.13762854822E+04  0.00000000000E+00 0.  1.
</event>
<event>
 4    1  0.1635676E+006  0.2133256E+02  0.7546771E-02  0.1514569E+00
         21   -1    0    0  501  502  0.00000000000E+00  0.00000000000E+00  0.64732307115E+03  0.64732307115E+03  0.00000000000E+00 0.  1.
          2   -1    0    0  503    0 -0.00000000000E+00 -0.00000000000E+00 -0.76488888749E+00  0.76488888749E+00  0.00000000000E+00 0.  1.
         21    1    1    2  503  502 -0.16173537226E+02  0.13910234608E+02  0.41544237010E+03  0.41598971239E+03  0.00000000000E+00 0.  1.
          2    1    1    2  501    0  0.16173537226E+02 -0.13910234608E+02  0.23111581215E+03  0.23209824765E+03  0.00000000000E+00 0.  1.
</event>
<event>
 4    1  0.1635676E+006  0.2100352E+02  0.7546771E-02  0.1519214E+00
          2   -1    0    0  503    0 -0.00000000000E+00  0.00000000000E+00  0.14487791816E+04  0.14487791816E+04  0.00000000000E+00 0. -1.
         21   -1    0    0  501  502  0.00000000000E+00 -0.00000000000E+00 -0.11555563727E+01  0.11555563727E+01  0.00000000000E+00 0. -1.
         21    1    1    2  503  502 -0.15313170814E+02 -0.14375489765E+02  0.10165050630E+03  0.10379775208E+03  0.00000000000E+00 0. -1.
          2    1    1    2  501    0  0.15313170814E+02  0.14375489765E+02  0.13459731189E+04  0.13461369859E+04  0.00000000000E+00 0. -1.
</event>
<event>
 4    1  0.1635676E+006  0.2467833E+02  0.7546771E-02  0.1472434E+00
         21   -1    0    0  501  502  0.00000000000E+00  0.00000000000E+00  0.19593335013E+03  0.19593335013E+03  0.00000000000E+00 0.  1.
         -1   -1    0    0    0  501 -0.00000000000E+00 -0.00000000000E+00 -0.10788660722E+02  0.10788660722E+02  0.00000000000E+00 0.  1.
         21    1    1    2  503  502  0.23321523011E+02 -0.80701038773E+01  0.17978182762E+03  0.18146769837E+03  0.00000000000E+00 0.  1.
         -1    1    1    2    0  503 -0.23321523011E+02  0.80701038773E+01  0.53628617915E+01  0.25254312478E+02  0.00000000000E+00 0.  1.
</event>
<event>
 4    1  0.1635676E+006  0.2617092E+02  0.7546771E-02  0.1456119E+00
         -2   -1    0    0    0  501 -0.00000000000E+00  0.00000000000E+00  0.10502767313E+03  0.10502767313E+03  0.00000000000E+00 0.  1.
         21   -1    0    0  503  502  0.00000000000E+00 -0.00000000000E+00 -0.26292041469E+03  0.26292041469E+03  0.00000000000E+00 0.  1.
         21    1    1    2  503  501 -0.22361286350E+02 -0.13597422827E+02 -0.26062450468E+03  0.26193520091E+03  0.00000000000E+00 0.  1.
         -2    1    1    2    0  502  0.22361286350E+02  0.13597422827E+02  0.10273176312E+03  0.10601288690E+03  0.00000000000E+00 0.  1.
</event>
<event>
 4    1  0.1635676E+006  0.2209720E+02  0.7546771E-02  0.1504157E+00
         21   -1    0    0  501  502  0.00000000000E+00  0.00000000000E+00  0.19890278777E+02  0.19890278777E+02  0.00000000000E+00 0. -1.
         -3   -1    0    0    0  501 -0.00000000000E+00 -0.00000000000E+00 -0.66584825902E+02  0.66584825902E+02  0.00000000000E+00 0.  1.
         21    1    1    2  503  502 -0.15577754866E+02 -0.15672267738E+02  0.11007197542E+02  0.24686936230E+02  0.00000000000E+00 0. -1.
         -3    1    1    2    0  503  0.15577754866E+02  0.15672267738E+02 -0.57701744667E+02  0.61788168449E+02  0.00000000000E+00 0.  1.
</event>
<event>
 4    1  0.1635676E+006  0.2258725E+02  0.7546771E-02  0.1497747E+00
          2   -1    0    0  503    0 -0.00000000000E+00  0.00000000000E+00  0.38678800132E+01  0.38678800132E+01  0.00000000000E+00 0.  1.
         21   -1    0    0  501  502  0.00000000000E+00 -0.00000000000E+00 -0.40454105554E+03  0.40454105554E+03  0.00000000000E+00 0. -1.
         21    1    1    2  503  502  0.19470381656E+02 -0.11449370060E+02 -0.36797649462E+03  0.36866907170E+03  0.00000000000E+00 0. -1.
          2    1    1    2  501    0 -0.19470381656E+02  0.11449370060E+02 -0.32696680906E+02  0.39739863850E+02  0.00000000000E+00 0.  1.
</event>
<event>
 4    1  0.1635676E+006  0.2542763E+02  0.7546771E-02  0.1464076E+00
          1   -1    0    0  503    0 -0.00000000000E+00  0.00000000000E+00  0.24110202766E+03  0.24110202766E+03  0.00000000000E+00 0.  1.
         21   -1    0    0  501  502  0.00000000000E+00 -0.00000000000E+00 -0.20362786815E+02  0.20362786815E+02  0.00000000000E+00 0.  1.
         21    1    1    2  503  502 -0.24488509038E+02  0.68467078639E+01 -0.11450512560E+02  0.27886891568E+02  0.00000000000E+00 0.  1.
          1    1    1    2  501    0  0.24488509038E+02 -0.68467078639E+01  0.23218975340E+03  0.23357792291E+03  0.00000000000E+00 0.  1.
</event>
<event>
 4    1  0.1635676E+006  0.2358375E+02  0.7546771E-02  0.1485295E+00
         21   -1    0    0  503  502  0.00000000000E+00  0.00000000000E+00  0.24163980057E+02  0.24163980057E+02  0.00000000000E+00 0.  1.
          1   -1    0    0  502    0 -0.00000000000E+00 -0.00000000000E+00 -0.75167144873E+02  0.75167144873E+02  0.00000000000E+00 0. -1.
         21    1    1    2  503  501 -0.21370556646E+02  0.99745872977E+01  0.15866675990E+02  0.28424364374E+02  0.00000000000E+00 0.  1.
          1    1    1    2  501    0  0.21370556646E+02 -0.99745872977E+01 -0.66869840806E+02  0.70906760556E+02  0.00000000000E+00 0. -1.
</event>
<event>
 4    1  0.1635676E+006  0.2040170E+02  0.7546771E-02  0.1527981E+00
         -3   -1    0    0    0  501 -0.00000000000E+00  0.00000000000E+00  0.10102923511E+02  0.10102923511E+02  0.00000000000E+00 0.  1.
         21   -1    0    0  503  502  0.00000000000E+00 -0.00000000000E+00 -0.80023221720E+02  0.80023221720E+02  0.00000000000E+00 0.  1.
         21    1    1    2  503  501  0.35716711491E+01 -0.20086622382E+02 -0.66348231188E+02  0.69414098102E+02  0.00000000000E+00 0.  1.
         -3    1    1    2    0  502 -0.35716711491E+01  0.20086622382E+02 -0.35720670214E+01  0.20712047130E+02  0.00000000000E+00 0.  1.
</event>
<event>
 4    1  0.1635676E+006  0.2374792E+02  0.7546771E-02  0.1483314E+00
         21   -1    0    0  501  502  0.00000000000E+00  0.00000000000E+00  0.14134218672E+03  0.14134218672E+03  0.00000000000E+00 0. -1.
         -3   -1    0    0    0  501 -0.00000000000E+00 -0.00000000000E+00 -0.29851582425E+03  0.29851582425E+03  0.00000000000E+00 0. -1.
         21    1    1    2  503  502 -0.23592306838E+02 -0.27142212856E+01  0.13986742028E+03  0.14186916224E+03  0.00000000000E+00 0. -1.
         -3    1    1    2    0  503  0.23592306838E+02  0.27142212856E+01 -0.29704105781E+03  0.29798884872E+03  0.00000000000E+00 0. -1.
</event>
<event>
 4    1  0.1635676E+006  0.2417323E+02  0.7546771E-02  0.1478269E+00
         21   -1    0    0  501  502  0.00000000000E+00  0.00000000000E+00  0.13714384954E+03  0.13714384954E+03  0.00000000000E+00 0. -1.
          2   -1    0    0  503    0 -0.00000000000E+00 -0.00000000000E+00 -0.14695020894E+02  0.14695020894E+02  0.00000000000E+00 0. -1.
         21    1    1    2  503  502  0.22469263556E+02 -0.89150061170E+01  0.12519752661E+03  0.12750986553E+03  0.00000000000E+00 0. -1.
          2    1    1    2  501    0 -0.22469263556E+02  0.89150061170E+01 -0.27486979676E+01  0.24329004898E+02  0.00000000000E+00 0. -1.
</event>
<event>
 4    1  0.1635676E+006  0.2275132E+02  0.7546771E-02  0.1495645E+00
         21   -1    0    0  501  502  0.00000000000E+00  0.00000000000E+00  0.11993066898E+01  0.11993066898E+01  0.00000000000E+00 0. -1.
          1   -1    0    0  503    0 -0.00000000000E+00 -0.00000000000E+00 -0.13326613258E+04  0.13326613258E+04  0.00000000000E+00 0. -1.
         21    1    1    2  503  502 -0.12188773478E+02 -0.19210844450E+02 -0.11733114367E+03  0.11951660980E+03  0.00000000000E+00 0. -1.
          1    1    1    2  501    0  0.12188773478E+02  0.19210844450E+02 -0.12141308754E+04  0.12143440227E+04  0.00000000000E+00 0. -1.
</event>
<event>
 4    1  0.1635676E+006  0.2036581E+02  0.7546771E-02  0.1528515E+00
         21   -1    0    0  503  502  0.00000000000E+00  0.00000000000E+00  0.16470810083E+01  0.16470810083E+01  0.00000000000E+00 0.  1.
          4   -1    0    0  502    0 -0.00000000000E+00 -0.00000000000E+00 -0.70160240029E+03  0.70160240029E+03  0.00000000000E+00 0.  1.
         21    1    1    2  503  501 -0.19526332355E+02  0.57869192312E+01 -0.68440540107E+02  0.71406397609E+02  0.00000000000E+00 0.  1.
          4    1    1    2  501    0  0.19526332355E+02 -0.57869192312E+01 -0.63151477917E+03  0.63184308369E+03  0.00000000000E+00 0.  1.
</event>
<event>
 4    1  0.1635676E+006  0.2032415E+02  0.7546771E-02  0.1529137E+00
          2   -1    0    0  502    0 -0.00000000000E+00  0.00000000000E+00  0.50851033437E+02  0.50851033437E+02  0.00000000000E+00 0. -1.
         21   -1    0    0  503  502  0.00000000000E+00 -0.00000000000E+00 -0.33984272448E+02  0.33984272448E+02  0.00000000000E+00 0. -1.
         21    1    1    2  503  501 -0.20299364253E+02  0.10033753049E+01 -0.28569136673E+02  0.35060897326E+02  0.00000000000E+00 0. -1.
          2    1    1    2  501    0  0.20299364253E+02 -0.10033753049E+01  0.45435897662E+02  0.49774408559E+02  0.00000000000E+00 0. -1.
</event>
<event>
 4    1  0.1635676E+006  0.2534798E+02  0.7546771E-02  0.1464948E+00
          2   -1    0    0  503    0 -0.00000000000E+00  0.00000000000E+00  0.40897507944E+03  0.40897507944E+03  0.00000000000E+00 0.  1.
         21   -1    0    0  501  502  0.00000000000E+00 -0.00000000000E+00 -0.17433265906E+02  0.17433265906E+02  0.00000000000E+00 0.  1.
         21    1    1    2  503  502 -0.23479073747E+02  0.95526556774E+01 -0.75997339471E+01  0.26462730217E+02  0.00000000000E+00 0.  1.
          2    1    1    2  501    0  0.23479073747E+02 -0.95526556774E+01  0.39914154748E+03  0.39994561513E+03  0.00000000000E+00 0.  1.
</event>
<event>
 4    1  0.1635676E+006  0.4364079E+02  0.7546771E-02  0.1328377E+00
         21   -1    0    0  501  502  0.00000000000E+00  0.00000000000E+00  0.21972601650E+02  0.21972601650E+02  0.00000000000E+00 0. -1.
          3   -1    0    0  503    0 -0.00000000000E+00 -0.00000000000E+00 -0.87058430752E+02  0.87058430752E+02  0.00000000000E+00 0. -1.
         21    1    1    2  503  502  0.38310920564E+02  0.20899575558E+02 -0.28934384377E+02  0.52361412245E+02  0.00000000000E+00 0. -1.
          3    1    1    2  501    0 -0.38310920564E+02 -0.20899575558E+02 -0.36151444725E+02  0.56669620156E+02  0.00000000000E+00 0. -1.
</event>
<event>
 4    1  0.1635676E+006  0.2811576E+02  0.7546771E-02  0.1436711E+00
          3   -1    0    0  503    0 -0.00000000000E+00  0.00000000000E+00  0.19390665569E+03  0.19390665569E+03  0.00000000000E+00 0.  1.
         21   -1    0    0  501  502  0.00000000000E+00 -0.00000000000E+00 -0.18903612846E+02  0.18903612846E+02  0.00000000000E+00 0. -1.
         21    1    1    2  503  502  0.27959592057E+02  0.29592725848E+01 -0.67342488136E+01  0.28911004640E+02  0.00000000000E+00 0. -1.
          3    1    1    2  501    0 -0.27959592057E+02 -0.29592725848E+01  0.18173729165E+03  0.18389926389E+03  0.00000000000E+00 0.  1.
</event>
<event>
 4    1  0.1635676E+006  0.2684403E+02  0.7546771E-02  0.1449181E+00
          2   -1    0    0  502    0 -0.00000000000E+00  0.00000000000E+00  0.79824732734E+03  0.79824732734E+03  0.00000000000E+00 0. -1.
         21   -1    0    0  503  502  0.00000000000E+00 -0.00000000000E+00 -0.29042541887E+02  0.29042541887E+02  0.00000000000E+00 0.  1.
         21    1    1    2  503  501 -0.23235598896E+02  0.13442799254E+02 -0.22563126063E+02  0.35067029608E+02  0.00000000000E+00 0.  1.
          2    1    1    2  501    0  0.23235598896E+02 -0.13442799254E+02  0.79176791152E+03  0.79222283962E+03  0.00000000000E+00 0. -1.
</event>
<event>
 4    1  0.1635676E+006  0.2890008E+02  0.7546771E-02  0.1429402E+00
         -1   -1    0    0    0  501 -0.00000000000E+00  0.00000000000E+00  0.44495527204E+03  0.44495527204E+03  0.00000000000E+00 0. -1.
         21   -1    0    0  501  502  0.00000000000E+00 -0.00000000000E+00 -0.12951932559E+04  0.12951932559E+04  0.00000000000E+00 0. -1.
         21    1    1    2  503  502  0.14018936639E+02 -0.25272198682E+02 -0.12945625442E+04  0.12948850897E+04  0.00000000000E+00 0. -1.
         -1    1    1    2    0  503 -0.14018936639E+02  0.25272198682E+02  0.44432456030E+03  0.44526343831E+03  0.00000000000E+00 0. -1.
</event>
<event>
 4    1  0.1635676E+006  0.2781161E+02  0.7546771E-02  0.1439621E+00
          2   -1    0    0  503    0 -0.00000000000E+00  0.00000000000E+00  0.46521949913E+01  0.46521949913E+01  0.00000000000E+00 0. -1.
         21   -1    0    0  501  502  0.00000000000E+00 -0.00000000000E+00 -0.52456825386E+03  0.52456825386E+03  0.00000000000E+00 0. -1.
         21    1    1    2  503  502  0.14763203244E+02 -0.23569760349E+02 -0.47864982168E+03  0.47945712797E+03  0.00000000000E+00 0. -1.
          2    1    1    2  501    0 -0.14763203244E+02  0.23569760349E+02 -0.41266237196E+02  0.49763320882E+02  0.00000000000E+00 0. -1.
</event>
<event>
 4    1  0.1635676E+006  0.2061336E+02  0.7546771E-02  0.1524857E+00
         21   -1    0    0  501  502  0.00000000000E+00  0.00000000000E+00  0.64260566248E+02  0.64260566248E+02  0.00000000000E+00 0.  1.
          2   -1    0    0  503    0 -0.00000000000E+00 -0.00000000000E+00 -0.12892349424E+02  0.12892349424E+02  0.00000000000E+00 0. -1.
         21    1    1    2  503  502  0.10326079044E+02  0.17840477233E+02  0.52607987545E+02  0.56502308713E+02  0.00000000000E+00 0.  1.
          2    1    1    2  501    0 -0.10326079044E+02 -0.17840477233E+02 -0.12397707211E+01  0.20650606959E+02  0.00000000000E+00 0. -1.
</event>
<event>
 4    1  0.1635676E+006  0.2492245E+02  0.7546771E-02  0.1469673E+00
         -3   -1    0    0    0  501 -0.00000000000E+00  0.00000000000E+00  0.26327083919E+01  0.26327083919E+01  0.00000000000E+00 0. -1.
         21   -1    0    0  503  502  0.00000000000E+00 -0.00000000000E+00 -0.23926088122E+03  0.23926088122E+03  0.00000000000E+00 0. -1.
         21    1    1    2  503  501  0.24908818610E+02 -0.82425170675E+00 -0.13258963916E+03  0.13491160457E+03  0.00000000000E+00 0. -1.
         -3    1    1    2    0  502 -0.24908818610E+02  0.82425170675E+00 -0.10403853366E+03  0.10698198504E+03  0.00000000000E+00 0. -1.
</event>
<event>
 4    1  0.1635676E+006  0.2422690E+02  0.7546771E-02  0.1477641E+00
         21   -1    0    0  503  502  0.00000000000E+00  0.00000000000E+00  0.41869439342E+02  0.41869439342E+02  0.00000000000E+00 0. -1.
         -2   -1    0    0    0  501 -0.00000000000E+00 -0.00000000000E+00 -0.54847769535E+02  0.54847769535E+02  0.00000000000E+00 0. -1.
         21    1    1    2  503  501  0.74415645392E+01 -0.23055708666E+02  0.35234322768E+02  0.42759795203E+02  0.00000000000E+00 0. -1.
         -2    1    1    2    0  502 -0.74415645392E+01  0.23055708666E+02 -0.48212652961E+02  0.53957413674E+02  0.00000000000E+00 0. -1.
</event>
<event>
 4    1  0.1635676E+006  0.2155638E+02  0.7546771E-02  0.1511467E+00
         21   -1    0    0  503  502  0.00000000000E+00  0.00000000000E+00  0.16425848484E+02  0.16425848484E+02  0.00000000000E+00 0. -1.
          2   -1    0    0  502    0 -0.00000000000E+00 -0.00000000000E+00 -0.62667601933E+03  0.62667601933E+03  0.00000000000E+00 0. -1.
         21    1    1    2  503  501 -0.21404169438E+02 -0.25571858227E+01  0.90843106988E+01  0.23392357075E+02  0.00000000000E+00 0. -1.
          2    1    1    2  501    0  0.21404169438E+02  0.25571858227E+01 -0.61933448154E+03  0.61970951073E+03  0.00000000000E+00 0. -1.
</event>
