<event>
 4    1  0.5452128E+002  0.2543710E+02  0.7546771E-02  0.1463972E+00
          2   -1    0    0  503    0  0.00000000000E+00  0.00000000000E+00  0.10399242473E+03  0.10399242473E+03  0.00000000000E+00 0. -1.
         -2   -1    0    0    0  501 -0.00000000000E+00 -0.00000000000E+00 -0.62735113003E+01  0.62735113003E+01  0.00000000000E+00 0.  1.
         21    1    1    2  502  501  0.17654712732E+02 -0.18312763573E+02  0.43866114459E+02  0.50707811914E+02  0.00000000000E+00 0.  1.
         21    1    1    2  503  502 -0.17654712732E+02  0.18312763573E+02  0.53852798973E+02  0.59558124119E+02  0.00000000000E+00 0. -1.
</event>
<event>
 4    1  0.5452128E+002  0.2306623E+02  0.7546771E-02  0.1491668E+00
          2   -1    0    0  503    0  0.00000000000E+00  0.00000000000E+00  0.15572592140E+04  0.15572592140E+04  0.00000000000E+00 0. -1.
         -2   -1    0    0    0  501 -0.00000000000E+00 -0.00000000000E+00 -0.58152647210E+00  0.58152647210E+00  0.00000000000E+00 0.  1.
         21    1    1    2  502  501 -0.22982006006E+02 -0.19693045465E+01  0.27808031780E+03  0.27903532735E+03  0.00000000000E+00 0.  1.
         21    1    1    2  503  502  0.22982006006E+02  0.19693045465E+01  0.12785973697E+04  0.12788054131E+04  0.00000000000E+00 0. -1.
</event>
<event>
 4    1  0.5452128E+002  0.2645846E+02  0.7546771E-02  0.1453125E+00
          2   -1    0    0  502    0  0.00000000000E+00  0.00000000000E+00  0.28142593073E+04  0.28142593073E+04  0.00000000000E+00 0.  1.
         -2   -1    0    0    0  501 -0.00000000000E+00 -0.00000000000E+00 -0.26706449070E+00  0.26706449070E+00  0.00000000000E+00 0. -1.
         21    1    1    2  502  503  0.11196001992E+02 -0.23972896928E+02  0.17755075865E+04  0.17757047164E+04  0.00000000000E+00 0.  1.
         21    1    1    2  503  501 -0.11196001992E+02  0.23972896928E+02  0.10384846564E+04  0.10388216554E+04  0.00000000000E+00 0. -1.
</event>
<event>
 4    1  0.5452128E+002  0.2538101E+02  0.7546771E-02  0.1464586E+00
          2   -1    0    0  503    0  0.00000000000E+00  0.00000000000E+00  0.94618967418E+03  0.94618967418E+03  0.00000000000E+00 0.  1.
         -2   -1    0    0    0  501 -0.00000000000E+00 -0.00000000000E+00 -0.13456587112E+01  0.13456587112E+01  0.00000000000E+00 0. -1.
         21    1    1    2  502  501  0.77249371626E+01 -0.24176871588E+02  0.13941579640E+03  0.14170730418E+03  0.00000000000E+00 0. -1.
         21    1    1    2  503  502 -0.77249371626E+01  0.24176871588E+02  0.80542821907E+03  0.80582802871E+03  0.00000000000E+00 0.  1.
</event>
<event>
 4    1  0.5452128E+002  0.2074526E+02  0.7546771E-02  0.1522933E+00
          2   -1    0    0  503    0  0.00000000000E+00  0.00000000000E+00  0.10008553679E+01  0.10008553679E+01  0.00000000000E+00 0. -1.
         -2   -1    0    0    0  501 -0.00000000000E+00 -0.00000000000E+00 -0.56672746759E+03  0.56672746759E+03  0.00000000000E+00 0.  1.
         21    1    1    2  502  501 -0.51969267212E-01 -0.20745195834E+02 -0.42229272743E+03  0.42280197905E+03  0.00000000000E+00 0. -1.
         21    1    1    2  503  502  0.51969267212E-01  0.20745195834E+02 -0.14343388479E+03  0.14492634390E+03  0.00000000000E+00 0.  1.
</event>
<event>
 4    1  0.5452128E+002  0.5820739E+02  0.7546771E-02  0.1266048E+00
          2   -1    0    0  502    0  0.00000000000E+00  0.00000000000E+00  0.32805351080E+03  0.32805351080E+03  0.00000000000E+00 0.  1.
         -2   -1    0    0    0  501 -0.00000000000E+00 -0.00000000000E+00 -0.10332294033E+02  0.10332294033E+02  0.00000000000E+00 0. -1.
         21    1    1    2  502  503 -0.47031174689E+02  0.34295325052E+02  0.16235352385E+03  0.17247251206E+03  0.00000000000E+00 0. -1.
         21    1    1    2  503  501  0.47031174689E+02 -0.34295325052E+02  0.15536769292E+03  0.16591329276E+03  0.00000000000E+00 0.  1.
</event>
<event>
 4    1  0.5452128E+002  0.3259463E+02  0.7546771E-02  0.1398311E+00
          2   -1    0    0  503    0  0.00000000000E+00  0.00000000000E+00  0.12332622554E+04  0.12332622554E+04  0.00000000000E+00 0.  1.
         -2   -1    0    0    0  501 -0.00000000000E+00 -0.00000000000E+00 -0.10429180137E+01  0.10429180137E+01  0.00000000000E+00 0. -1.
         21    1    1    2  502  501  0.16560776988E+02 -0.28074021475E+02  0.35868406030E+03  0.36016199845E+03  0.00000000000E+00 0.  1.
         21    1    1    2  503  502 -0.16560776988E+02  0.28074021475E+02  0.87353527706E+03  0.87414317493E+03  0.00000000000E+00 0. -1.
</event>
<event>
 4    1  0.5452128E+002  0.2071853E+02  0.7546771E-02  0.1523322E+00
          2   -1    0    0  503    0  0.00000000000E+00  0.00000000000E+00  0.16500150858E+02  0.16500150858E+02  0.00000000000E+00 0.  1.
         -2   -1    0    0    0  501 -0.00000000000E+00 -0.00000000000E+00 -0.15204038426E+03  0.15204038426E+03  0.00000000000E+00 0. -1.
         21    1    1    2  502  501  0.72114713766E+01 -0.19422981367E+02 -0.14449270959E+03  0.14597054720E+03  0.00000000000E+00 0. -1.
         21    1    1    2  503  502 -0.72114713766E+01  0.19422981367E+02  0.89524761915E+01  0.22569987917E+02  0.00000000000E+00 0.  1.
</event>
<event>
 4    1  0.5452128E+002  0.2130225E+02  0.7546771E-02  0.1514993E+00
          2   -1    0    0  503    0  0.00000000000E+00  0.00000000000E+00  0.35879933359E+03  0.35879933359E+03  0.00000000000E+00 0.  1.
         -2   -1    0    0    0  501 -0.00000000000E+00 -0.00000000000E+00 -0.27113277261E+01  0.27113277261E+01  0.00000000000E+00 0. -1.
         21    1    1    2  502  501  0.16289958950E+02  0.13726722907E+02  0.46013764262E+02  0.50705543937E+02  0.00000000000E+00 0. -1.
         21    1    1    2  503  502 -0.16289958950E+02 -0.13726722907E+02  0.31007424160E+03  0.31080511738E+03  0.00000000000E+00 0.  1.
</event>
<event>
 4    1  0.5452128E+002  0.2309951E+02  0.7546771E-02  0.1491252E+00
          2   -1    0    0  503    0  0.00000000000E+00  0.00000000000E+00  0.92666922548E+03  0.92666922548E+03  0.00000000000E+00 0. -1.
         -2   -1    0    0    0  501 -0.00000000000E+00 -0.00000000000E+00 -0.25702024088E+01  0.25702024088E+01  0.00000000000E+00 0.  1.
         21    1    1    2  502  501 -0.16659188632E+02  0.16001836600E+02  0.52770900462E+02  0.57605167095E+02  0.00000000000E+00 0.  1.
         21    1    1    2  503  502  0.16659188632E+02 -0.16001836600E+02  0.87132812261E+03  0.87163426080E+03  0.00000000000E+00 0. -1.
</event>
<event>
 4    1  0.5452128E+002  0.2230427E+02  0.7546771E-02  0.1501424E+00
          2   -1    0    0  502    0  0.00000000000E+00  0.00000000000E+00  0.11645258822E+02  0.11645258822E+02  0.00000000000E+00 0.  1.
         -2   -1    0    0    0  501 -0.00000000000E+00 -0.00000000000E+00 -0.26767424566E+03  0.26767424566E+03  0.00000000000E+00 0. -1.
         21    1    1    2  502  503  0.21686587942E+02  0.52127312627E+01  0.16603965097E-01  0.22304280743E+02  0.00000000000E+00 0.  1.
         21    1    1    2  503  501 -0.21686587942E+02 -0.52127312627E+01 -0.25604559081E+03  0.25701522374E+03  0.00000000000E+00 0. -1.
</event>
<event>
 4    1  0.5452128E+002  0.2111981E+02  0.7546771E-02  0.1517561E+00
          2   -1    0    0  503    0  0.00000000000E+00  0.00000000000E+00  0.17176215132E+04  0.17176215132E+04  0.00000000000E+00 0. -1.
         -2   -1    0    0    0  501 -0.00000000000E+00 -0.00000000000E+00 -0.75652344091E+00  0.75652344091E+00  0.00000000000E+00 0.  1.
         21    1    1    2  502  501 -0.14684897960E+00  0.21119297442E+02  0.16215291948E+03  0.16352252317E+03  0.00000000000E+00 0.  1.
         21    1    1    2  503  502  0.14684897960E+00 -0.21119297442E+02  0.15547120703E+04  0.15548555135E+04  0.00000000000E+00 0. -1.
</event>
<event>
 4    1  0.5452128E+002  0.2963457E+02  0.7546771E-02  0.1422799E+00
          2   -1    0    0  502    0  0.00000000000E+00  0.00000000000E+00  0.31858295926E+01  0.31858295926E+01  0.00000000000E+00 0.  1.
         -2   -1    0    0    0  501 -0.00000000000E+00 -0.00000000000E+00 -0.28328229156E+03  0.28328229156E+03  0.00000000000E+00 0. -1.
         21    1    1    2  502  503  0.29599494131E+02  0.14413193117E+01 -0.11655382621E+03  0.12026222124E+03  0.00000000000E+00 0.  1.
         21    1    1    2  503  501 -0.29599494131E+02 -0.14413193117E+01 -0.16354263576E+03  0.16620589991E+03  0.00000000000E+00 0. -1.
</event>
<event>
 4    1  0.5452128E+002  0.2351647E+02  0.7546771E-02  0.1486113E+00
          2   -1    0    0  502    0  0.00000000000E+00  0.00000000000E+00  0.94347989901E+03  0.94347989901E+03  0.00000000000E+00 0. -1.
         -2   -1    0    0    0  501 -0.00000000000E+00 -0.00000000000E+00 -0.42493923302E+01  0.42493923302E+01  0.00000000000E+00 0.  1.
         21    1    1    2  502  503 -0.11841996954E+02  0.20317268670E+02  0.90958568859E+03  0.90988963572E+03  0.00000000000E+00 0. -1.
         21    1    1    2  503  501  0.11841996954E+02 -0.20317268670E+02  0.29644818090E+02  0.37839655623E+02  0.00000000000E+00 0.  1.
</event>
<event>
 4    1  0.5452128E+002  0.1754196E+03  0.7546771E-02  0.1074080E+00
          2   -1    0    0  502    0  0.00000000000E+00  0.00000000000E+00  0.20396683668E+04  0.20396683668E+04  0.00000000000E+00 0. -1.
         -2   -1    0    0    0  501 -0.00000000000E+00 -0.00000000000E+00 -0.23558857618E+02  0.23558857618E+02  0.00000000000E+00 0.  1.
         21    1    1    2  502  503 -0.57480593412E+02  0.16573477525E+03  0.16266902467E+04  0.16361213870E+04  0.00000000000E+00 0. -1.
         21    1    1    2  503  501  0.57480593412E+02 -0.16573477525E+03  0.38941926245E+03  0.42710583737E+03  0.00000000000E+00 0.  1.
</event>
<event>
 4    1  0.5452128E+002  0.2188763E+02  0.7546771E-02  0.1506959E+00
          2   -1    0    0  502    0  0.00000000000E+00  0.00000000000E+00  0.99401442984E+02  0.99401442984E+02  0.00000000000E+00 0.  1.
         -2   -1    0    0    0  501 -0.00000000000E+00 -0.00000000000E+00 -0.84515247748E+01  0.84515247748E+01  0.00000000000E+00 0. -1.
         21    1    1    2  502  503  0.51771105788E+01 -0.21266539305E+02  0.80826408028E+02  0.83737544762E+02  0.00000000000E+00 0.  1.
         21    1    1    2  503  501 -0.51771105788E+01  0.21266539305E+02  0.10123510181E+02  0.24115422997E+02  0.00000000000E+00 0. -1.
</event>
<event>
 4    1  0.5452128E+002  0.3139016E+02  0.7546771E-02  0.1407889E+00
          2   -1    0    0  502    0  0.00000000000E+00  0.00000000000E+00  0.21329298743E+03  0.21329298743E+03  0.00000000000E+00 0. -1.
         -2   -1    0    0    0  501 -0.00000000000E+00 -0.00000000000E+00 -0.46273686819E+01  0.46273686819E+01  0.00000000000E+00 0.  1.
         21    1    1    2  502  503  0.28854833556E+02  0.12358821979E+02  0.10877894558E+03  0.11321749379E+03  0.00000000000E+00 0. -1.
         21    1    1    2  503  501 -0.28854833556E+02 -0.12358821979E+02  0.99886673169E+02  0.10470286232E+03  0.00000000000E+00 0.  1.
</event>
<event>
 4    1  0.5452128E+002  0.2357942E+02  0.7546771E-02  0.1485348E+00
          2   -1    0    0  502    0  0.00000000000E+00  0.00000000000E+00  0.67760222996E+03  0.67760222996E+03  0.00000000000E+00 0.  1.
         -2   -1    0    0    0  501 -0.00000000000E+00 -0.00000000000E+00 -0.88991010081E+00  0.88991010081E+00  0.00000000000E+00 0. -1.
         21    1    1    2  502  503  0.16193614909E+02  0.17139302030E+02  0.43308413396E+03  0.43372555369E+03  0.00000000000E+00 0.  1.
         21    1    1    2  503  501 -0.16193614909E+02 -0.17139302030E+02  0.24362818590E+03  0.24476658637E+03  0.00000000000E+00 0. -1.
</event>
<event>
 4    1  0.5452128E+002  0.2055060E+02  0.7546771E-02  0.1525779E+00
          2   -1    0    0  503    0  0.00000000000E+00  0.00000000000E+00  0.78117838367E+03  0.78117838367E+03  0.00000000000E+00 0. -1.
         -2   -1    0    0    0  501 -0.00000000000E+00 -0.00000000000E+00 -0.67127666205E+00  0.67127666205E+00  0.00000000000E+00 0.  1.
         21    1    1    2  502  501 -0.16957435795E+02 -0.11609150716E+02  0.21779102526E+03  0.21875844600E+03  0.00000000000E+00 0. -1.
         21    1    1    2  503  502  0.16957435795E+02  0.11609150716E+02  0.56271608174E+03  0.56309121433E+03  0.00000000000E+00 0.  1.
</event>
<event>
 4    1  0.5452128E+002  0.3564121E+02  0.7546771E-02  0.1376111E+00
          2   -1    0    0  502    0  0.00000000000E+00  0.00000000000E+00  0.24144214702E+01  0.24144214702E+01  0.00000000000E+00 0.  1.
         -2   -1    0    0    0  501 -0.00000000000E+00 -0.00000000000E+00 -0.57438297749E+03  0.57438297749E+03  0.00000000000E+00 0. -1.
         21    1    1    2  502  503  0.27567582617E+02 -0.22590361595E+02 -0.20239296709E+03  0.20550719981E+03  0.00000000000E+00 0.  1.
         21    1    1    2  503  501 -0.27567582617E+02  0.22590361595E+02 -0.36957558893E+03  0.37129019915E+03  0.00000000000E+00 0. -1.
</event>
<event>
 4    1  0.5452128E+002  0.3603111E+02  0.7546771E-02  0.1373456E+00
          2   -1    0    0  502    0  0.00000000000E+00  0.00000000000E+00  0.26262686385E+03  0.26262686385E+03  0.00000000000E+00 0. -1.
         -2   -1    0    0    0  501 -0.00000000000E+00 -0.00000000000E+00 -0.69719457973E+01  0.69719457973E+01  0.00000000000E+00 0.  1.
         21    1    1    2  502  503  0.35940020648E+02  0.25604213415E+01  0.20054097072E+03  0.20375210865E+03  0.00000000000E+00 0. -1.
         21    1    1    2  503  501 -0.35940020648E+02 -0.25604213415E+01  0.55113947328E+02  0.65846700993E+02  0.00000000000E+00 0.  1.
</event>
<event>
 4    1  0.5452128E+002  0.2670589E+02  0.7546771E-02  0.1450585E+00
          2   -1    0    0  502    0  0.00000000000E+00  0.00000000000E+00  0.35764158760E+02  0.35764158760E+02  0.00000000000E+00 0. -1.
         -2   -1    0    0    0  501 -0.00000000000E+00 -0.00000000000E+00 -0.22464100315E+02  0.22464100315E+02  0.00000000000E+00 0.  1.
         21    1    1    2  502  503 -0.18177168382E+02 -0.19565150067E+02 -0.31055001372E+01  0.26885845321E+02  0.00000000000E+00 0.  1.
         21    1    1    2  503  501  0.18177168382E+02  0.19565150067E+02  0.16405558582E+02  0.31342413754E+02  0.00000000000E+00 0. -1.
</event>
<event>
 4    1  0.5452128E+002  0.2123703E+02  0.7546771E-02  0.1515907E+00
          2   -1    0    0  503    0  0.00000000000E+00  0.00000000000E+00  0.61202812692E+03  0.61202812692E+03  0.00000000000E+00 0.  1.
         -2   -1    0    0    0  501 -0.00000000000E+00 -0.00000000000E+00 -0.16613313868E+01  0.16613313868E+01  0.00000000000E+00 0. -1.
         21    1    1    2  502  501  0.99955688682E+01  0.18737665215E+02  0.76294453710E+02  0.79195045057E+02  0.00000000000E+00 0. -1.
         21    1    1    2  503  502 -0.99955688682E+01 -0.18737665215E+02  0.53407234182E+03  0.53449441325E+03  0.00000000000E+00 0.  1.
</event>
<event>
 4    1  0.5452128E+002  0.4442514E+02  0.7546771E-02  0.1324339E+00
          2   -1    0    0  503    0  0.00000000000E+00  0.00000000000E+00  0.38037187609E+03  0.38037187609E+03  0.00000000000E+00 0.  1.
         -2   -1    0    0    0  501 -0.00000000000E+00 -0.00000000000E+00 -0.83256331728E+01  0.83256331728E+01  0.00000000000E+00 0. -1.
         21    1    1    2  502  501  0.40670801321E+02  0.17873977815E+02  0.66725036034E+02  0.80161235001E+02  0.00000000000E+00 0. -1.
         21    1    1    2  503  502 -0.40670801321E+02 -0.17873977815E+02  0.30532120688E+03  0.30853627426E+03  0.00000000000E+00 0.  1.
</event>
<event>
 4    1  0.5452128E+002  0.2304706E+02  0.7546771E-02  0.1491908E+00
          2   -1    0    0  503    0  0.00000000000E+00  0.00000000000E+00  0.95339312972E+02  0.95339312972E+02  0.00000000000E+00 0. -1.
         -2   -1    0    0    0  501 -0.00000000000E+00 -0.00000000000E+00 -0.17686396528E+02  0.17686396528E+02  0.00000000000E+00 0.  1.
         21    1    1    2  502  501 -0.16888120921E+02 -0.15683063697E+02 -0.79460225444E+01  0.24378400059E+02  0.00000000000E+00 0.  1.
         21    1    1    2  503  502  0.16888120921E+02  0.15683063697E+02  0.85598938989E+02  0.88647309441E+02  0.00000000000E+00 0. -1.
</event>
<event>
 4    1  0.5452128E+002  0.2201216E+02  0.7546771E-02  0.1505289E+00
          2   -1    0    0  503    0  0.00000000000E+00  0.00000000000E+00  0.16235948978E+04  0.16235948978E+04  0.00000000000E+00 0. -1.
         -2   -1    0    0    0  501 -0.00000000000E+00 -0.00000000000E+00 -0.72494480014E+00  0.72494480014E+00  0.00000000000E+00 0.  1.
         21    1    1    2  502  501  0.11826523713E+02 -0.18565255216E+02  0.18848342038E+03  0.18976442006E+03  0.00000000000E+00 0.  1.
         21    1    1    2  503  502 -0.11826523713E+02  0.18565255216E+02  0.14343865326E+04  0.14345554225E+04  0.00000000000E+00 0. -1.
</event>
<event>
 4    1  0.5452128E+002  0.2014659E+02  0.7546771E-02  0.1531807E+00
          2   -1    0    0  503    0  0.00000000000E+00  0.00000000000E+00  0.62127729666E+02  0.62127729666E+02  0.00000000000E+00 0.  1.
         -2   -1    0    0    0  501 -0.00000000000E+00 -0.00000000000E+00 -0.67439224842E+01  0.67439224842E+01  0.00000000000E+00 0. -1.
         21    1    1    2  502  501 -0.20041316426E+02 -0.20568275853E+01  0.21602959667E+02  0.29539342752E+02  0.00000000000E+00 0. -1.
         21    1    1    2  503  502  0.20041316426E+02  0.20568275853E+01  0.33780847514E+02  0.39332309398E+02  0.00000000000E+00 0.  1.
</event>
<event>
 4    1  0.5452128E+002  0.2938949E+02  0.7546771E-02  0.1424977E+00
          2   -1    0    0  503    0  0.00000000000E+00  0.00000000000E+00  0.69832598916E+03  0.69832598916E+03  0.00000000000E+00 0. -1.
         -2   -1    0    0    0  501 -0.00000000000E+00 -0.00000000000E+00 -0.27731871159E+01  0.27731871159E+01  0.00000000000E+00 0.  1.
         21    1    1    2  502  501 -0.29244198130E+02 -0.29187755099E+01  0.86861118484E+02  0.91698398454E+02  0.00000000000E+00 0.  1.
         21    1    1    2  503  502  0.29244198130E+02  0.29187755099E+01  0.60869168356E+03  0.60940077782E+03  0.00000000000E+00 0. -1.
</event>
<event>
 4    1  0.5452128E+002  0.2265593E+02  0.7546771E-02  0.1496864E+00
          2   -1    0    0  502    0  0.00000000000E+00  0.00000000000E+00  0.16939464837E+04  0.16939464837E+04  0.00000000000E+00 0.  1.
         -2   -1    0    0    0  501 -0.00000000000E+00 -0.00000000000E+00 -0.80651048376E+01  0.80651048376E+01  0.00000000000E+00 0. -1.
         21    1    1    2  502  503 -0.15587412412E+01  0.22602245119E+02  0.16778068179E+04  0.16779597759E+04  0.00000000000E+00 0.  1.
         21    1    1    2  503  501  0.15587412412E+01 -0.22602245119E+02  0.80745609486E+01  0.24051812680E+02  0.00000000000E+00 0. -1.
</event>
<event>
 4    1  0.5452128E+002  0.3559470E+02  0.7546771E-02  0.1376430E+00
          2   -1    0    0  503    0  0.00000000000E+00  0.00000000000E+00  0.18630221649E+04  0.18630221649E+04  0.00000000000E+00 0.  1.
         -2   -1    0    0    0  501 -0.00000000000E+00 -0.00000000000E+00 -0.70347736309E+00  0.70347736309E+00  0.00000000000E+00 0. -1.
         21    1    1    2  502  501 -0.11036385838E+01  0.35577582092E+02  0.76117117599E+03  0.76200298000E+03  0.00000000000E+00 0. -1.
         21    1    1    2  503  502  0.11036385838E+01 -0.35577582092E+02  0.11011475115E+04  0.11017226622E+04  0.00000000000E+00 0.  1.
</event>
<event>
 4    1  0.5452128E+002  0.2083614E+02  0.7546771E-02  0.1521617E+00
          2   -1    0    0  503    0  0.00000000000E+00  0.00000000000E+00  0.11141097951E+04  0.11141097951E+04  0.00000000000E+00 0. -1.
         -2   -1    0    0    0  501 -0.00000000000E+00 -0.00000000000E+00 -0.13710426323E+01  0.13710426323E+01  0.00000000000E+00 0.  1.
         21    1    1    2  502  501  0.15627606073E+02  0.13781245527E+02  0.84500105060E+02  0.87031101079E+02  0.00000000000E+00 0.  1.
         21    1    1    2  503  502 -0.15627606073E+02 -0.13781245527E+02  0.10282386474E+04  0.10284497367E+04  0.00000000000E+00 0. -1.
</event>
<event>
 4    1  0.5452128E+002  0.2312098E+02  0.7546771E-02  0.1490985E+00
          2   -1    0    0  503    0  0.00000000000E+00  0.00000000000E+00  0.25574266013E+01  0.25574266013E+01  0.00000000000E+00 0. -1.
         -2   -1    0    0    0  501 -0.00000000000E+00 -0.00000000000E+00 -0.20903224150E+03  0.20903224150E+03  0.00000000000E+00 0.  1.
         21    1    1    2  502  501 -0.21948105547E+02  0.72705272847E+01 -0.10355146230E+03  0.10610129711E+03  0.00000000000E+00 0. -1.
         21    1    1    2  503  502  0.21948105547E+02 -0.72705272847E+01 -0.10292335260E+03  0.10548837099E+03  0.00000000000E+00 0.  1.
</event>
<event>
 4    1  0.5452128E+002  0.3207981E+02  0.7546771E-02  0.1402344E+00
          2   -1    0    0  503    0  0.00000000000E+00  0.00000000000E+00  0.15083892589E+03  0.15083892589E+03  0.00000000000E+00 0.  1.
         -2   -1    0    0    0  501 -0.00000000000E+00 -0.00000000000E+00 -0.12016811185E+02  0.12016811185E+02  0.00000000000E+00 0. -1.
         21    1    1    2  502  501  0.26531087834E+02 -0.18033732371E+02  0.15876018811E+02  0.35793324771E+02  0.00000000000E+00 0. -1.
         21    1    1    2  503  502 -0.26531087834E+02  0.18033732371E+02  0.12294609590E+03  0.12706241231E+03  0.00000000000E+00 0.  1.
</event>
<event>
 4    1  0.5452128E+002  0.2061900E+02  0.7546771E-02  0.1524775E+00
          2   -1    0    0  502    0  0.00000000000E+00  0.00000000000E+00  0.17694301338E+03  0.17694301338E+03  0.00000000000E+00 0. -1.
         -2   -1    0    0    0  501 -0.00000000000E+00 -0.00000000000E+00 -0.38352825599E+01  0.38352825599E+01  0.00000000000E+00 0.  1.
         21    1    1    2  502  503 -0.12767824746E+02  0.16190300990E+02  0.14179664735E+03  0.14328793528E+03  0.00000000000E+00 0. -1.
         21    1    1    2  503  501  0.12767824746E+02 -0.16190300990E+02  0.31311083468E+02  0.37490360665E+02  0.00000000000E+00 0.  1.
</event>
<event>
 4    1  0.5452128E+002  0.2926434E+02  0.7546771E-02  0.1426099E+00
          2   -1    0    0  502    0  0.00000000000E+00  0.00000000000E+00  0.32110292592E+03  0.32110292592E+03  0.00000000000E+00 0. -1.
         -2   -1    0    0    0  501 -0.00000000000E+00 -0.00000000000E+00 -0.27799232760E+01  0.27799232760E+01  0.00000000000E+00 0.  1.
         21    1    1    2  502  503 -0.10755135640E+02  0.27216335091E+02  0.19179108047E+03  0.19401087698E+03  0.00000000000E+00 0.  1.
         21    1    1    2  503  501  0.10755135640E+02 -0.27216335091E+02  0.12653192218E+03  0.12987197222E+03  0.00000000000E+00 0. -1.
</event>
<event>
 4    1  0.5452128E+002  0.3641400E+02  0.7546771E-02  0.1370886E+00
          2   -1    0    0  503    0  0.00000000000E+00  0.00000000000E+00  0.47473120960E+01  0.47473120960E+01  0.00000000000E+00 0.  1.
         -2   -1    0    0    0  501 -0.00000000000E+00 -0.00000000000E+00 -0.34184315208E+03  0.34184315208E+03  0.00000000000E+00 0. -1.
         21    1    1    2  502  501  0.19047940943E+01  0.36364148314E+02 -0.24266574049E+03  0.24538264227E+03  0.00000000000E+00 0. -1.
         21    1    1    2  503  502 -0.19047940943E+01 -0.36364148314E+02 -0.94430099499E+02  0.10120782190E+03  0.00000000000E+00 0.  1.
</event>
<event>
 4    1  0.5452128E+002  0.2152204E+02  0.7546771E-02  0.1511940E+00
          2   -1    0    0  503    0  0.00000000000E+00  0.00000000000E+00  0.77738612877E+02  0.77738612877E+02  0.00000000000E+00 0.  1.
         -2   -1    0    0    0  501 -0.00000000000E+00 -0.00000000000E+00 -0.10109100179E+02  0.10109100179E+02  0.00000000000E+00 0. -1.
         21    1    1    2  502  501  0.13407078189E+02 -0.16835930458E+02  0.56695441994E+01  0.22256280717E+02  0.00000000000E+00 0. -1.
         21    1    1    2  503  502 -0.13407078189E+02  0.16835930458E+02  0.61959968498E+02  0.65591432339E+02  0.00000000000E+00 0.  1.
</event>
<event>
 4    1  0.5452128E+002  0.2266070E+02  0.7546771E-02  0.1496803E+00
          2   -1    0    0  503    0  0.00000000000E+00  0.00000000000E+00  0.54022529819E+01  0.54022529819E+01  0.00000000000E+00 0.  1.
         -2   -1    0    0    0  501 -0.00000000000E+00 -0.00000000000E+00 -0.95060221004E+02  0.95060221004E+02  0.00000000000E+00 0. -1.
         21    1    1    2  502  501  0.72744638689E+01  0.21461348599E+02 -0.44432131788E+02  0.49877065306E+02  0.00000000000E+00 0. -1.
         21    1    1    2  503  502 -0.72744638689E+01 -0.21461348599E+02 -0.45225836233E+02  0.50585408680E+02  0.00000000000E+00 0.  1.
</event>
<event>
 4    1  0.5452128E+002  0.3251799E+02  0.7546771E-02  0.1398906E+00
          2   -1    0    0  502    0  0.00000000000E+00  0.00000000000E+00  0.81767740482E+03  0.81767740482E+03  0.00000000000E+00 0.  1.
         -2   -1    0    0    0  501 -0.00000000000E+00 -0.00000000000E+00 -0.23752840074E+01  0.23752840074E+01  0.00000000000E+00 0. -1.
         21    1    1    2  502  503 -0.31795615049E+02  0.68160462167E+01  0.68439917694E+03  0.68517125817E+03  0.00000000000E+00 0.  1.
         21    1    1    2  503  501  0.31795615049E+02 -0.68160462167E+01  0.13090294387E+03  0.13488143066E+03  0.00000000000E+00 0. -1.
</event>
<event>
 4    1  0.5452128E+002  0.5232262E+02  0.7546771E-02  0.1288405E+00
          2   -1    0    0  502    0  0.00000000000E+00  0.00000000000E+00  0.75938756333E+03  0.75938756333E+03  0.00000000000E+00 0.  1.
         -2   -1    0    0    0  501 -0.00000000000E+00 -0.00000000000E+00 -0.21001803891E+02  0.21001803891E+02  0.00000000000E+00 0. -1.
         21    1    1    2  502  503  0.18617546146E+02  0.48898299361E+02  0.72432235651E+03  0.72620970307E+03  0.00000000000E+00 0.  1.
         21    1    1    2  503  501 -0.18617546146E+02 -0.48898299361E+02  0.14063402934E+02  0.54179664146E+02  0.00000000000E+00 0. -1.
</event>
<event>
 4    1  0.5452128E+002  0.3937998E+02  0.7546771E-02  0.1352158E+00
          2   -1    0    0  502    0  0.00000000000E+00  0.00000000000E+00  0.67901036313E+03  0.67901036313E+03  0.00000000000E+00 0.  1.
         -2   -1    0    0    0  501 -0.00000000000E+00 -0.00000000000E+00 -0.22902829408E+01  0.22902829408E+01  0.00000000000E+00 0. -1.
         21    1    1    2  502  503 -0.39301310578E+02 -0.24879825490E+01  0.35636159414E+03  0.35853084783E+03  0.00000000000E+00 0. -1.
         21    1    1    2  503  501  0.39301310578E+02  0.24879825490E+01  0.32035848605E+03  0.32276979824E+03  0.00000000000E+00 0.  1.
</event>
<event>
 4    1  0.5452128E+002  0.2383581E+02  0.7546771E-02  0.1482261E+00
          2   -1    0    0  503    0  0.00000000000E+00  0.00000000000E+00  0.65700663264E+01  0.65700663264E+01  0.00000000000E+00 0. -1.
         -2   -1    0    0    0  501 -0.00000000000E+00 -0.00000000000E+00 -0.35281803801E+03  0.35281803801E+03  0.00000000000E+00 0.  1.
         21    1    1    2  502  501  0.23010602073E+02  0.62175570759E+01 -0.32925136473E+03  0.33011302156E+03  0.00000000000E+00 0.  1.
         21    1    1    2  503  502 -0.23010602073E+02 -0.62175570759E+01 -0.16996606948E+02  0.29275082776E+02  0.00000000000E+00 0. -1.
</event>
<event>
 4    1  0.5452128E+002  0.2028757E+02  0.7546771E-02  0.1529684E+00
          2   -1    0    0  503    0  0.00000000000E+00  0.00000000000E+00  0.10329536560E+04  0.10329536560E+04  0.00000000000E+00 0.  1.
         -2   -1    0    0    0  501 -0.00000000000E+00 -0.00000000000E+00 -0.54874498880E+00  0.54874498880E+00  0.00000000000E+00 0. -1.
         21    1    1    2  502  501  0.11444920570E+02 -0.16751103546E+02  0.24576860126E+03  0.24660452356E+03  0.00000000000E+00 0. -1.
         21    1    1    2  503  502 -0.11444920570E+02  0.16751103546E+02  0.78663630970E+03  0.78689787738E+03  0.00000000000E+00 0.  1.
</event>
<event>
 4    1  0.5452128E+002  0.2808219E+02  0.7546771E-02  0.1437030E+00
          2   -1    0    0  502    0  0.00000000000E+00  0.00000000000E+00  0.73869371115E+03  0.73869371115E+03  0.00000000000E+00 0.  1.
         -2   -1    0    0    0  501 -0.00000000000E+00 -0.00000000000E+00 -0.11312223513E+01  0.11312223513E+01  0.00000000000E+00 0. -1.
         21    1    1    2  502  503 -0.15426489603E+02  0.23465568497E+02  0.45652613857E+03  0.45738902991E+03  0.00000000000E+00 0. -1.
         21    1    1    2  503  501  0.15426489603E+02 -0.23465568497E+02  0.28103635024E+03  0.28243590360E+03  0.00000000000E+00 0.  1.
</event>
<event>
 4    1  0.5452128E+002  0.2307538E+02  0.7546771E-02  0.1491554E+00
          2   -1    0    0  502    0  0.00000000000E+00  0.00000000000E+00  0.69311510336E+03  0.69311510336E+03  0.00000000000E+00 0. -1.
         -2   -1    0    0    0  501 -0.00000000000E+00 -0.00000000000E+00 -0.79972962824E+00  0.79972962824E+00  0.00000000000E+00 0.  1.
         21    1    1    2  502  503 -0.92271558335E+01 -0.21150245125E+02  0.41501384657E+03  0.41565486418E+03  0.00000000000E+00 0. -1.
         21    1    1    2  503  501  0.92271558335E+01  0.21150245125E+02  0.27730152717E+03  0.27825996881E+03  0.00000000000E+00 0.  1.
</event>
<event>
 4    1  0.5452128E+002  0.2058725E+02  0.7546771E-02  0.1525240E+00
          2   -1    0    0  502    0  0.00000000000E+00  0.00000000000E+00  0.22309344592E+03  0.22309344592E+03  0.00000000000E+00 0. -1.
         -2   -1    0    0    0  501 -0.00000000000E+00 -0.00000000000E+00 -0.23417373259E+01  0.23417373259E+01  0.00000000000E+00 0.  1.
         21    1    1    2  502  503  0.75451286957E+01 -0.19154792099E+02  0.15934227176E+03  0.16066671900E+03  0.00000000000E+00 0.  1.
         21    1    1    2  503  501 -0.75451286957E+01  0.19154792099E+02  0.61409436843E+02  0.64768464246E+02  0.00000000000E+00 0. -1.
</event>
<event>
 4    1  0.5452128E+002  0.4070052E+02  0.7546771E-02  0.1344429E+00
          2   -1    0    0  503    0  0.00000000000E+00  0.00000000000E+00  0.51401960900E+03  0.51401960900E+03  0.00000000000E+00 0.  1.
         -2   -1    0    0    0  501 -0.00000000000E+00 -0.00000000000E+00 -0.18083179678E+02  0.18083179678E+02  0.00000000000E+00 0. -1.
         21    1    1    2  502  501 -0.34160604050E+02  0.22126583968E+02  0.67864272890E+01  0.41262430642E+02  0.00000000000E+00 0. -1.
         21    1    1    2  503  502  0.34160604050E+02 -0.22126583968E+02  0.48915000203E+03  0.49084035803E+03  0.00000000000E+00 0.  1.
</event>
<event>
 4    1  0.5452128E+002  0.3002090E+02  0.7546771E-02  0.1419415E+00
          2   -1    0    0  502    0  0.00000000000E+00  0.00000000000E+00  0.26656331060E+04  0.26656331060E+04  0.00000000000E+00 0.  1.
         -2   -1    0    0    0  501 -0.00000000000E+00 -0.00000000000E+00 -0.41048390936E+00  0.41048390936E+00  0.00000000000E+00 0. -1.
         21    1    1    2  502  503  0.25303217719E+02 -0.16155543009E+02  0.18923764824E+04  0.18926145951E+04  0.00000000000E+00 0.  1.
         21    1    1    2  503  501 -0.25303217719E+02  0.16155543009E+02  0.77284613974E+03  0.77342899487E+03  0.00000000000E+00 0. -1.
</event>
<event>
 4    1  0.5452128E+002  0.2684126E+02  0.7546771E-02  0.1449209E+00
          2   -1    0    0  503    0  0.00000000000E+00  0.00000000000E+00  0.19040864203E+04  0.19040864203E+04  0.00000000000E+00 0. -1.
         -2   -1    0    0    0  501 -0.00000000000E+00 -0.00000000000E+00 -0.58586300823E+00  0.58586300823E+00  0.00000000000E+00 0.  1.
         21    1    1    2  502  501 -0.18293591217E+02  0.19641730106E+02  0.38499987454E+03  0.38593439395E+03  0.00000000000E+00 0.  1.
         21    1    1    2  503  502  0.18293591217E+02 -0.19641730106E+02  0.15185006827E+04  0.15187378893E+04  0.00000000000E+00 0. -1.
</event>
<event>
 4    1  0.5452128E+002  0.2374011E+02  0.7546771E-02  0.1483408E+00
          2   -1    0    0  502    0  0.00000000000E+00  0.00000000000E+00  0.54475459712E+02  0.54475459712E+02  0.00000000000E+00 0. -1.
         -2   -1    0    0    0  501 -0.00000000000E+00 -0.00000000000E+00 -0.14242858799E+02  0.14242858799E+02  0.00000000000E+00 0.  1.
         21    1    1    2  502  503 -0.23739383543E+02 -0.18596609540E+00  0.38088933362E+02  0.44881619390E+02  0.00000000000E+00 0. -1.
         21    1    1    2  503  501  0.23739383543E+02  0.18596609540E+00  0.21436675508E+01  0.23836699121E+02  0.00000000000E+00 0.  1.
</event>
<event>
 4    1  0.5452128E+002  0.2122254E+02  0.7546771E-02  0.1516111E+00
          2   -1    0    0  503    0  0.00000000000E+00  0.00000000000E+00  0.20700145834E+02  0.20700145834E+02  0.00000000000E+00 0.  1.
         -2   -1    0    0    0  501 -0.00000000000E+00 -0.00000000000E+00 -0.33035617273E+02  0.33035617273E+02  0.00000000000E+00 0. -1.
         21    1    1    2  502  501 -0.20974355079E+02 -0.32361539564E+01 -0.21865889224E+02  0.30471517438E+02  0.00000000000E+00 0.  1.
         21    1    1    2  503  502  0.20974355079E+02  0.32361539564E+01  0.95304177847E+01  0.23264245669E+02  0.00000000000E+00 0. -1.
</event>
<event>
 4    1  0.5452128E+002  0.2244302E+02  0.7546771E-02  0.1499613E+00
          2   -1    0    0  503    0  0.00000000000E+00  0.00000000000E+00  0.78779097356E+02  0.78779097356E+02  0.00000000000E+00 0.  1.
         -2   -1    0    0    0  501 -0.00000000000E+00 -0.00000000000E+00 -0.12293621328E+02  0.12293621328E+02  0.00000000000E+00 0. -1.
         21    1    1    2  502  501  0.16871124888E+02 -0.14800487724E+02  0.16969201840E+01  0.22507083996E+02  0.00000000000E+00 0. -1.
         21    1    1    2  503  502 -0.16871124888E+02  0.14800487724E+02  0.64788555844E+02  0.68565634689E+02  0.00000000000E+00 0.  1.
</event>
<event>
 4    1  0.5452128E+002  0.2226520E+02  0.7546771E-02  0.1501937E+00
          2   -1    0    0  503    0  0.00000000000E+00  0.00000000000E+00  0.22152440298E+02  0.22152440298E+02  0.00000000000E+00 0. -1.
         -2   -1    0    0    0  501 -0.00000000000E+00 -0.00000000000E+00 -0.40222615413E+02  0.40222615413E+02  0.00000000000E+00 0.  1.
         21    1    1    2  502  501 -0.96232238125E+01  0.20078163623E+02 -0.29807786246E+02  0.37205419120E+02  0.00000000000E+00 0.  1.
         21    1    1    2  503  502  0.96232238125E+01 -0.20078163623E+02  0.11737611132E+02  0.25169636591E+02  0.00000000000E+00 0. -1.
</event>
<event>
 4    1  0.5452128E+002  0.3770427E+02  0.7546771E-02  0.1362490E+00
          2   -1    0    0  503    0  0.00000000000E+00  0.00000000000E+00  0.46703755467E+01  0.46703755467E+01  0.00000000000E+00 0. -1.
         -2   -1    0    0    0  501 -0.00000000000E+00 -0.00000000000E+00 -0.38002722341E+03  0.38002722341E+03  0.00000000000E+00 0.  1.
         21    1    1    2  502  501 -0.25344623579E+02 -0.27915260415E+02 -0.27349127170E+03  0.27607804586E+03  0.00000000000E+00 0.  1.
         21    1    1    2  503  502  0.25344623579E+02  0.27915260415E+02 -0.10186557617E+03  0.10861955310E+03  0.00000000000E+00 0. -1.
</event>
<event>
 4    1  0.5452128E+002  0.3069290E+02  0.7546771E-02  0.1413669E+00
          2   -1    0    0  502    0  0.00000000000E+00  0.00000000000E+00  0.22877574915E+04  0.22877574915E+04  0.00000000000E+00 0. -1.
         -2   -1    0    0    0  501 -0.00000000000E+00 -0.00000000000E+00 -0.49668951786E+00  0.49668951786E+00  0.00000000000E+00 0.  1.
         21    1    1    2  502  503  0.29513940777E+02 -0.84250496181E+01  0.16166818910E+04  0.16169732189E+04  0.00000000000E+00 0. -1.
         21    1    1    2  503  501 -0.29513940777E+02  0.84250496181E+01  0.67057891101E+03  0.67128096208E+03  0.00000000000E+00 0.  1.
</event>
<event>
 4    1  0.5452128E+002  0.3308718E+02  0.7546771E-02  0.1394534E+00
          2   -1    0    0  503    0  0.00000000000E+00  0.00000000000E+00  0.67164153990E+02  0.67164153990E+02  0.00000000000E+00 0.  1.
         -2   -1    0    0    0  501 -0.00000000000E+00 -0.00000000000E+00 -0.41669488365E+02  0.41669488365E+02  0.00000000000E+00 0. -1.
         21    1    1    2  502  501  0.22140957260E+02 -0.24587383953E+02 -0.29712840012E+02  0.44470375528E+02  0.00000000000E+00 0. -1.
         21    1    1    2  503  502 -0.22140957260E+02  0.24587383953E+02  0.55207505637E+02  0.64363266827E+02  0.00000000000E+00 0.  1.
</event>
<event>
 4    1  0.5452128E+002  0.3065803E+02  0.7546771E-02  0.1413963E+00
          2   -1    0    0  502    0  0.00000000000E+00  0.00000000000E+00  0.64001318619E+02  0.64001318619E+02  0.00000000000E+00 0. -1.
         -2   -1    0    0    0  501 -0.00000000000E+00 -0.00000000000E+00 -0.36056302014E+03  0.36056302014E+03  0.00000000000E+00 0.  1.
         21    1    1    2  502  503 -0.24493042600E+02  0.18439249484E+02  0.59633210449E+02  0.67052478297E+02  0.00000000000E+00 0. -1.
         21    1    1    2  503  501  0.24493042600E+02 -0.18439249484E+02 -0.35619491197E+03  0.35751186046E+03  0.00000000000E+00 0.  1.
</event>
<event>
 4    1  0.5452128E+002  0.2597223E+02  0.7546771E-02  0.1458215E+00
          2   -1    0    0  503    0  0.00000000000E+00  0.00000000000E+00  0.32412932123E+03  0.32412932123E+03  0.00000000000E+00 0.  1.
         -2   -1    0    0    0  501 -0.00000000000E+00 -0.00000000000E+00 -0.80340629658E+01  0.80340629658E+01  0.00000000000E+00 0. -1.
         21    1    1    2  502  501 -0.21621189959E+02  0.14390305215E+02  0.15086004700E+02  0.30035716692E+02  0.00000000000E+00 0. -1.
         21    1    1    2  503  502  0.21621189959E+02 -0.14390305215E+02  0.30100925356E+03  0.30212766750E+03  0.00000000000E+00 0.  1.
</event>
<event>
 4    1  0.5452128E+002  0.2535034E+02  0.7546771E-02  0.1464922E+00
          2   -1    0    0  503    0  0.00000000000E+00  0.00000000000E+00  0.14459078878E+04  0.14459078878E+04  0.00000000000E+00 0.  1.
         -2   -1    0    0    0  501 -0.00000000000E+00 -0.00000000000E+00 -0.10942349943E+01  0.10942349943E+01  0.00000000000E+00 0. -1.
         21    1    1    2  502  501  0.25330291337E+02  0.10081166548E+01  0.16487806134E+03  0.16681551208E+03  0.00000000000E+00 0. -1.
         21    1    1    2  503  502 -0.25330291337E+02 -0.10081166548E+01  0.12799355914E+04  0.12801866107E+04  0.00000000000E+00 0.  1.
</event>
<event>
 4    1  0.5452128E+002  0.2438844E+02  0.7546771E-02  0.1475763E+00
          2   -1    0    0  502    0  0.00000000000E+00  0.00000000000E+00  0.17514247162E+03  0.17514247162E+03  0.00000000000E+00 0.  1.
         -2   -1    0    0    0  501 -0.00000000000E+00 -0.00000000000E+00 -0.53651959739E+01  0.53651959739E+01  0.00000000000E+00 0. -1.
         21    1    1    2  502  503  0.60338390833E+01 -0.23630248580E+02  0.13956627768E+03  0.14168112692E+03  0.00000000000E+00 0.  1.
         21    1    1    2  503  501 -0.60338390833E+01  0.23630248580E+02  0.30210997967E+02  0.38826540668E+02  0.00000000000E+00 0. -1.
</event>
<event>
 4    1  0.5452128E+002  0.3259741E+02  0.7546771E-02  0.1398289E+00
          2   -1    0    0  502    0  0.00000000000E+00  0.00000000000E+00  0.81358749339E+02  0.81358749339E+02  0.00000000000E+00 0.  1.
         -2   -1    0    0    0  501 -0.00000000000E+00 -0.00000000000E+00 -0.38216121170E+02  0.38216121170E+02  0.00000000000E+00 0. -1.
         21    1    1    2  502  503  0.32514220060E+02  0.23273934859E+01  0.70078220663E+02  0.77288733188E+02  0.00000000000E+00 0.  1.
         21    1    1    2  503  501 -0.32514220060E+02 -0.23273934859E+01 -0.26935592493E+02  0.42286137321E+02  0.00000000000E+00 0. -1.
</event>
<event>
 4    1  0.5452128E+002  0.3027277E+02  0.7546771E-02  0.1417241E+00
          2   -1    0    0  503    0  0.00000000000E+00  0.00000000000E+00  0.18229911501E+04  0.18229911501E+04  0.00000000000E+00 0.  1.
         -2   -1    0    0    0  501 -0.00000000000E+00 -0.00000000000E+00 -0.15040881424E+02  0.15040881424E+02  0.00000000000E+00 0. -1.
         21    1    1    2  502  501  0.17078475888E+02  0.24995321677E+02  0.44780881717E+00  0.30276079289E+02  0.00000000000E+00 0. -1.
         21    1    1    2  503  502 -0.17078475888E+02 -0.24995321677E+02  0.18075024599E+04  0.18077559523E+04  0.00000000000E+00 0.  1.
</event>
<event>
 4    1  0.5452128E+002  0.2695680E+02  0.7546771E-02  0.1448043E+00
          2   -1    0    0  502    0  0.00000000000E+00  0.00000000000E+00  0.57402148426E+03  0.57402148426E+03  0.00000000000E+00 0.  1.
         -2   -1    0    0    0  501 -0.00000000000E+00 -0.00000000000E+00 -0.17086879289E+01  0.17086879289E+01  0.00000000000E+00 0. -1.
         21    1    1    2  502  503 -0.26829492781E+02 -0.26167125360E+01  0.43269182357E+03  0.43353071754E+03  0.00000000000E+00 0.  1.
         21    1    1    2  503  501  0.26829492781E+02  0.26167125360E+01  0.13962097276E+03  0.14219945464E+03  0.00000000000E+00 0. -1.
</event>
<event>
 4    1  0.5452128E+002  0.2265691E+02  0.7546771E-02  0.1496852E+00
          2   -1    0    0  502    0  0.00000000000E+00  0.00000000000E+00  0.59248335873E+03  0.59248335873E+03  0.00000000000E+00 0. -1.
         -2   -1    0    0    0  501 -0.00000000000E+00 -0.00000000000E+00 -0.16468380895E+01  0.16468380895E+01  0.00000000000E+00 0.  1.
         21    1    1    2  502  503  0.18012948515E+02 -0.13742976876E+02  0.49991744556E+03  0.50043060269E+03  0.00000000000E+00 0. -1.
         21    1    1    2  503  501 -0.18012948515E+02  0.13742976876E+02  0.90919075080E+02  0.93699594135E+02  0.00000000000E+00 0.  1.
</event>
<event>
 4    1  0.5452128E+002  0.2621910E+02  0.7546771E-02  0.1455614E+00
          2   -1    0    0  502    0  0.00000000000E+00  0.00000000000E+00  0.13883964286E+04  0.13883964286E+04  0.00000000000E+00 0. -1.
         -2   -1    0    0    0  501 -0.00000000000E+00 -0.00000000000E+00 -0.60723283610E+00  0.60723283610E+00  0.00000000000E+00 0.  1.
         21    1    1    2  502  503  0.25617158870E+02  0.55859195583E+01  0.99229379478E+03  0.99264012436E+03  0.00000000000E+00 0.  1.
         21    1    1    2  503  501 -0.25617158870E+02 -0.55859195583E+01  0.39549540096E+03  0.39636353705E+03  0.00000000000E+00 0. -1.
</event>
<event>
 4    1  0.5452128E+002  0.2365991E+02  0.7546771E-02  0.1484374E+00
          2   -1    0    0  503    0  0.00000000000E+00  0.00000000000E+00  0.86806689785E+00  0.86806689785E+00  0.00000000000E+00 0. -1.
         -2   -1    0    0    0  501 -0.00000000000E+00 -0.00000000000E+00 -0.81005116417E+03  0.81005116417E+03  0.00000000000E+00 0.  1.
         21    1    1    2  502  501 -0.29158749354E+01 -0.23479541296E+02 -0.58768394083E+03  0.58816001692E+03  0.00000000000E+00 0.  1.
         21    1    1    2  503  502  0.29158749354E+01  0.23479541296E+02 -0.22149915644E+03  0.22275921415E+03  0.00000000000E+00 0. -1.
</event>
<event>
 4    1  0.5452128E+002  0.3251904E+02  0.7546771E-02  0.1398898E+00
          2   -1    0    0  503    0  0.00000000000E+00  0.00000000000E+00  0.35899615581E+03  0.35899615581E+03  0.00000000000E+00 0.  1.
         -2   -1    0    0    0  501 -0.00000000000E+00 -0.00000000000E+00 -0.37034050364E+01  0.37034050364E+01  0.00000000000E+00 0. -1.
         21    1    1    2  502  501 -0.31102469460E+02  0.94933875453E+01  0.25967625473E+03  0.26170449993E+03  0.00000000000E+00 0.  1.
         21    1    1    2  503  502  0.31102469460E+02 -0.94933875453E+01  0.95616496042E+02  0.10099506091E+03  0.00000000000E+00 0. -1.
</event>
<event>
 4    1  0.5452128E+002  0.2019403E+02  0.7546771E-02  0.1531090E+00
          2   -1    0    0  502    0  0.00000000000E+00  0.00000000000E+00  0.67890203407E+03  0.67890203407E+03  0.00000000000E+00 0.  1.
         -2   -1    0    0    0  501 -0.00000000000E+00 -0.00000000000E+00 -0.14641013664E+01  0.14641013664E+01  0.00000000000E+00 0. -1.
         21    1    1    2  502  503  0.97743218703E+01  0.17670921366E+02  0.59995917027E+03  0.60029892955E+03  0.00000000000E+00 0.  1.
         21    1    1    2  503  501 -0.97743218703E+01 -0.17670921366E+02  0.77478762435E+02  0.80067205886E+02  0.00000000000E+00 0. -1.
</event>
<event>
 4    1  0.5452128E+002  0.2227375E+02  0.7546771E-02  0.1501825E+00
          2   -1    0    0  503    0  0.00000000000E+00  0.00000000000E+00  0.69145894772E+03  0.69145894772E+03  0.00000000000E+00 0. -1.
         -2   -1    0    0    0  501 -0.00000000000E+00 -0.00000000000E+00 -0.33770422891E+01  0.33770422891E+01  0.00000000000E+00 0.  1.
         21    1    1    2  502  501 -0.22240523009E+02  0.12161371697E+01  0.35730861676E+02  0.42104801738E+02  0.00000000000E+00 0.  1.
         21    1    1    2  503  502  0.22240523009E+02 -0.12161371697E+01  0.65235104375E+03  0.65273118827E+03  0.00000000000E+00 0. -1.
</event>
<event>
 4    1  0.5452128E+002  0.3766186E+02  0.7546771E-02  0.1362760E+00
          2   -1    0    0  502    0  0.00000000000E+00  0.00000000000E+00  0.12688441541E+04  0.12688441541E+04  0.00000000000E+00 0. -1.
         -2   -1    0    0    0  501 -0.00000000000E+00 -0.00000000000E+00 -0.35790163748E+01  0.35790163748E+01  0.00000000000E+00 0.  1.
         21    1    1    2  502  503 -0.37503742802E+02  0.34474975946E+01  0.11602116147E+04  0.11608227284E+04  0.00000000000E+00 0. -1.
         21    1    1    2  503  501  0.37503742802E+02 -0.34474975946E+01  0.10505352303E+03  0.11160044205E+03  0.00000000000E+00 0.  1.
</event>
<event>
 4    1  0.5452128E+002  0.3325971E+02  0.7546771E-02  0.1393229E+00
          2   -1    0    0  503    0  0.00000000000E+00  0.00000000000E+00  0.44546106756E+02  0.44546106756E+02  0.00000000000E+00 0.  1.
         -2   -1    0    0    0  501 -0.00000000000E+00 -0.00000000000E+00 -0.26307508892E+02  0.26307508892E+02  0.00000000000E+00 0. -1.
         21    1    1    2  502  501 -0.63522427766E+01 -0.32647473914E+02  0.17506791474E+02  0.37585852245E+02  0.00000000000E+00 0.  1.
         21    1    1    2  503  502  0.63522427766E+01  0.32647473914E+02  0.73180639092E+00  0.33267763403E+02  0.00000000000E+00 0. -1.
</event>
<event>
 4    1  0.5452128E+002  0.3738363E+02  0.7546771E-02  0.1364539E+00
          2   -1    0    0  502    0  0.00000000000E+00  0.00000000000E+00  0.17242004207E+04  0.17242004207E+04  0.00000000000E+00 0.  1.
         -2   -1    0    0    0  501 -0.00000000000E+00 -0.00000000000E+00 -0.88823569735E+01  0.88823569735E+01  0.00000000000E+00 0. -1.
         21    1    1    2  502  503 -0.34251114812E+02 -0.14979875563E+02  0.16837175598E+04  0.16841325235E+04  0.00000000000E+00 0.  1.
         21    1    1    2  503  501  0.34251114812E+02  0.14979875563E+02  0.31600504004E+02  0.48950254249E+02  0.00000000000E+00 0. -1.
</event>
<event>
 4    1  0.5452128E+002  0.3870923E+02  0.7546771E-02  0.1356220E+00
          2   -1    0    0  502    0  0.00000000000E+00  0.00000000000E+00  0.27530133750E+03  0.27530133750E+03  0.00000000000E+00 0.  1.
         -2   -1    0    0    0  501 -0.00000000000E+00 -0.00000000000E+00 -0.80250021944E+01  0.80250021944E+01  0.00000000000E+00 0. -1.
         21    1    1    2  502  503  0.37583281861E+02  0.92682829913E+01  0.21399657548E+03  0.21746939662E+03  0.00000000000E+00 0.  1.
         21    1    1    2  503  501 -0.37583281861E+02 -0.92682829913E+01  0.53279759819E+02  0.65856943077E+02  0.00000000000E+00 0. -1.
</event>
<event>
 4    1  0.5452128E+002  0.2111916E+02  0.7546771E-02  0.1517570E+00
          2   -1    0    0  503    0  0.00000000000E+00  0.00000000000E+00  0.28955975082E+03  0.28955975082E+03  0.00000000000E+00 0. -1.
         -2   -1    0    0    0  501 -0.00000000000E+00 -0.00000000000E+00 -0.27303956858E+01  0.27303956858E+01  0.00000000000E+00 0.  1.
         21    1    1    2  502  501 -0.20352402883E+02  0.56390371832E+01  0.46930539076E+02  0.51463526321E+02  0.00000000000E+00 0.  1.
         21    1    1    2  503  502  0.20352402883E+02 -0.56390371832E+01  0.23989881606E+03  0.24082662019E+03  0.00000000000E+00 0. -1.
</event>
<event>
 4    1  0.5452128E+002  0.2648770E+02  0.7546771E-02  0.1452823E+00
          2   -1    0    0  502    0  0.00000000000E+00  0.00000000000E+00  0.42766003796E+03  0.42766003796E+03  0.00000000000E+00 0. -1.
         -2   -1    0    0    0  501 -0.00000000000E+00 -0.00000000000E+00 -0.19403855165E+01  0.19403855165E+01  0.00000000000E+00 0.  1.
         21    1    1    2  502  503  0.91702203270E+01 -0.24849658231E+02  0.29729645982E+03  0.29847409180E+03  0.00000000000E+00 0. -1.
         21    1    1    2  503  501 -0.91702203270E+01  0.24849658231E+02  0.12842319262E+03  0.13112633168E+03  0.00000000000E+00 0.  1.
</event>
<event>
 4    1  0.5452128E+002  0.3127951E+02  0.7546771E-02  0.1408794E+00
          2   -1    0    0  503    0  0.00000000000E+00  0.00000000000E+00  0.18759758520E+04  0.18759758520E+04  0.00000000000E+00 0.  1.
         -2   -1    0    0    0  501 -0.00000000000E+00 -0.00000000000E+00 -0.75950915037E+00  0.75950915037E+00  0.00000000000E+00 0. -1.
         21    1    1    2  502  501  0.80633482901E+01 -0.30222344971E+02  0.41236383100E+03  0.41354846976E+03  0.00000000000E+00 0. -1.
         21    1    1    2  503  502 -0.80633482901E+01  0.30222344971E+02  0.14628525118E+04  0.14631868914E+04  0.00000000000E+00 0.  1.
</event>
<event>
 4    1  0.5452128E+002  0.2989884E+02  0.7546771E-02  0.1420478E+00
          2   -1    0    0  502    0  0.00000000000E+00  0.00000000000E+00  0.24027855791E+04  0.24027855791E+04  0.00000000000E+00 0.  1.
         -2   -1    0    0    0  501 -0.00000000000E+00 -0.00000000000E+00 -0.45538041149E+00  0.45538041149E+00  0.00000000000E+00 0. -1.
         21    1    1    2  502  503  0.12079904834E+02  0.27349888293E+02  0.17152077309E+04  0.17154683036E+04  0.00000000000E+00 0.  1.
         21    1    1    2  503  501 -0.12079904834E+02 -0.27349888293E+02  0.68712246777E+03  0.68777265590E+03  0.00000000000E+00 0. -1.
</event>
<event>
 4    1  0.5452128E+002  0.2086622E+02  0.7546771E-02  0.1521183E+00
          2   -1    0    0  502    0  0.00000000000E+00  0.00000000000E+00  0.18038908556E+03  0.18038908556E+03  0.00000000000E+00 0.  1.
         -2   -1    0    0    0  501 -0.00000000000E+00 -0.00000000000E+00 -0.28071829934E+01  0.28071829934E+01  0.00000000000E+00 0. -1.
         21    1    1    2  502  503 -0.29694936242E+01 -0.20653844261E+02  0.54495818907E+02  0.58354035452E+02  0.00000000000E+00 0. -1.
         21    1    1    2  503  501  0.29694936242E+01  0.20653844261E+02  0.12308608366E+03  0.12484223310E+03  0.00000000000E+00 0.  1.
</event>
<event>
 4    1  0.5452128E+002  0.3165554E+02  0.7546771E-02  0.1405735E+00
          2   -1    0    0  502    0  0.00000000000E+00  0.00000000000E+00  0.29488253812E+02  0.29488253812E+02  0.00000000000E+00 0. -1.
         -2   -1    0    0    0  501 -0.00000000000E+00 -0.00000000000E+00 -0.47348660644E+02  0.47348660644E+02  0.00000000000E+00 0.  1.
         21    1    1    2  502  503  0.21871814880E+02 -0.22884430034E+02  0.11482266550E+02  0.33673667297E+02  0.00000000000E+00 0. -1.
         21    1    1    2  503  501 -0.21871814880E+02  0.22884430034E+02 -0.29342673381E+02  0.43163247159E+02  0.00000000000E+00 0.  1.
</event>
<event>
 4    1  0.5452128E+002  0.2073212E+02  0.7546771E-02  0.1523124E+00
          2   -1    0    0  503    0  0.00000000000E+00  0.00000000000E+00  0.73955575729E+02  0.73955575729E+02  0.00000000000E+00 0.  1.
         -2   -1    0    0    0  501 -0.00000000000E+00 -0.00000000000E+00 -0.25082732295E+03  0.25082732295E+03  0.00000000000E+00 0. -1.
         21    1    1    2  502  501 -0.63875495793E+01 -0.19723585583E+02 -0.24893492475E+03  0.24979675214E+03  0.00000000000E+00 0. -1.
         21    1    1    2  503  502  0.63875495793E+01  0.19723585583E+02  0.72063177528E+02  0.74986146543E+02  0.00000000000E+00 0.  1.
</event>
<event>
 4    1  0.5452128E+002  0.3108320E+02  0.7546771E-02  0.1410411E+00
          2   -1    0    0  503    0  0.00000000000E+00  0.00000000000E+00  0.53631200351E+03  0.53631200351E+03  0.00000000000E+00 0.  1.
         -2   -1    0    0    0  501 -0.00000000000E+00 -0.00000000000E+00 -0.15860883390E+02  0.15860883390E+02  0.00000000000E+00 0. -1.
         21    1    1    2  502  501 -0.10901869004E+02 -0.29108670077E+02  0.29068506964E+00  0.31084560786E+02  0.00000000000E+00 0. -1.
         21    1    1    2  503  502  0.10901869004E+02  0.29108670077E+02  0.52016043505E+03  0.52108832612E+03  0.00000000000E+00 0.  1.
</event>
<event>
 4    1  0.5452128E+002  0.2168969E+02  0.7546771E-02  0.1509641E+00
          2   -1    0    0  503    0  0.00000000000E+00  0.00000000000E+00  0.23118601801E+03  0.23118601801E+03  0.00000000000E+00 0.  1.
         -2   -1    0    0    0  501 -0.00000000000E+00 -0.00000000000E+00 -0.20357244706E+01  0.20357244706E+01  0.00000000000E+00 0. -1.
         21    1    1    2  502  501  0.16440223961E+02 -0.14147854653E+02  0.11690752864E+03  0.11890253575E+03  0.00000000000E+00 0.  1.
         21    1    1    2  503  502 -0.16440223961E+02  0.14147854653E+02  0.11224276491E+03  0.11431920674E+03  0.00000000000E+00 0. -1.
</event>
<event>
 4    1  0.5452128E+002  0.4266217E+02  0.7546771E-02  0.1333554E+00
          2   -1    0    0  503    0  0.00000000000E+00  0.00000000000E+00  0.13765698978E+02  0.13765698978E+02  0.00000000000E+00 0.  1.
         -2   -1    0    0    0  501 -0.00000000000E+00 -0.00000000000E+00 -0.20197224785E+03  0.20197224785E+03  0.00000000000E+00 0. -1.
         21    1    1    2  502  501 -0.17606290183E+02  0.38859738802E+02 -0.15749591437E+03  0.16317176164E+03  0.00000000000E+00 0. -1.
         21    1    1    2  503  502  0.17606290183E+02 -0.38859738802E+02 -0.30710634504E+02  0.52566185189E+02  0.00000000000E+00 0.  1.
</event>
<event>
 4    1  0.5452128E+002  0.2492164E+02  0.7546771E-02  0.1469682E+00
          2   -1    0    0  502    0  0.00000000000E+00  0.00000000000E+00  0.31261923165E+03  0.31261923165E+03  0.00000000000E+00 0.  1.
         -2   -1    0    0    0  501 -0.00000000000E+00 -0.00000000000E+00 -0.68159579959E+02  0.68159579959E+02  0.00000000000E+00 0. -1.
         21    1    1    2  502  503 -0.24391577464E+02 -0.51126160016E+01  0.30982396573E+03  0.31082467346E+03  0.00000000000E+00 0.  1.
         21    1    1    2  503  501  0.24391577464E+02  0.51126160016E+01 -0.65364314040E+02  0.69954138144E+02  0.00000000000E+00 0. -1.
</event>
<event>
 4    1  0.5452128E+002  0.4626073E+02  0.7546771E-02  0.1315253E+00
          2   -1    0    0  503    0  0.00000000000E+00  0.00000000000E+00  0.13635004370E+04  0.13635004370E+04  0.00000000000E+00 0. -1.
         -2   -1    0    0    0  501 -0.00000000000E+00 -0.00000000000E+00 -0.15812319350E+01  0.15812319350E+01  0.00000000000E+00 0.  1.
         21    1    1    2  502  501 -0.41896343928E+02 -0.19615084142E+02  0.73967545103E+03  0.74112065686E+03  0.00000000000E+00 0. -1.
         21    1    1    2  503  502  0.41896343928E+02  0.19615084142E+02  0.62224375402E+03  0.62396101206E+03  0.00000000000E+00 0.  1.
</event>
<event>
 4    1  0.5452128E+002  0.2075360E+02  0.7546771E-02  0.1522812E+00
          2   -1    0    0  503    0  0.00000000000E+00  0.00000000000E+00  0.10705436177E+04  0.10705436177E+04  0.00000000000E+00 0.  1.
         -2   -1    0    0    0  501 -0.00000000000E+00 -0.00000000000E+00 -0.40602988982E+00  0.40602988982E+00  0.00000000000E+00 0. -1.
         21    1    1    2  502  501 -0.20744499122E+02 -0.61440875044E+00  0.58618497315E+03  0.58655224362E+03  0.00000000000E+00 0. -1.
         21    1    1    2  503  502  0.20744499122E+02  0.61440875044E+00  0.48395261463E+03  0.48439740395E+03  0.00000000000E+00 0.  1.
</event>
<event>
 4    1  0.5452128E+002  0.3116395E+02  0.7546771E-02  0.1409744E+00
          2   -1    0    0  503    0  0.00000000000E+00  0.00000000000E+00  0.32682094219E+03  0.32682094219E+03  0.00000000000E+00 0. -1.
         -2   -1    0    0    0  501 -0.00000000000E+00 -0.00000000000E+00 -0.38669842699E+01  0.38669842699E+01  0.00000000000E+00 0.  1.
         21    1    1    2  502  501 -0.15048146443E+02 -0.27290020518E+02  0.81916233803E+02  0.87643946121E+02  0.00000000000E+00 0.  1.
         21    1    1    2  503  502  0.15048146443E+02  0.27290020518E+02  0.24103772412E+03  0.24304398034E+03  0.00000000000E+00 0. -1.
</event>
<event>
 4    1  0.5452128E+002  0.3250791E+02  0.7546771E-02  0.1398984E+00
          2   -1    0    0  502    0  0.00000000000E+00  0.00000000000E+00  0.23863481615E+03  0.23863481615E+03  0.00000000000E+00 0. -1.
         -2   -1    0    0    0  501 -0.00000000000E+00 -0.00000000000E+00 -0.52880264617E+01  0.52880264617E+01  0.00000000000E+00 0.  1.
         21    1    1    2  502  503 -0.32384266419E+02 -0.28325934484E+01  0.16584756458E+03  0.16900348806E+03  0.00000000000E+00 0. -1.
         21    1    1    2  503  501  0.32384266419E+02  0.28325934484E+01  0.67499225101E+02  0.74919354551E+02  0.00000000000E+00 0.  1.
</event>
<event>
 4    1  0.5452128E+002  0.2188226E+02  0.7546771E-02  0.1507032E+00
          2   -1    0    0  502    0  0.00000000000E+00  0.00000000000E+00  0.18635147773E+01  0.18635147773E+01  0.00000000000E+00 0. -1.
         -2   -1    0    0    0  501 -0.00000000000E+00 -0.00000000000E+00 -0.84204124384E+03  0.84204124384E+03  0.00000000000E+00 0.  1.
         21    1    1    2  502  503  0.97786451148E+01 -0.19575784590E+02 -0.68360059994E+02  0.71776953439E+02  0.00000000000E+00 0. -1.
         21    1    1    2  503  501 -0.97786451148E+01  0.19575784590E+02 -0.77181766907E+03  0.77212780518E+03  0.00000000000E+00 0.  1.
</event>
<event>
 4    1  0.5452128E+002  0.3810789E+02  0.7546771E-02  0.1359945E+00
          2   -1    0    0  503    0  0.00000000000E+00  0.00000000000E+00  0.16260606799E+04  0.16260606799E+04  0.00000000000E+00 0. -1.
         -2   -1    0    0    0  501 -0.00000000000E+00 -0.00000000000E+00 -0.93428770972E+00  0.93428770972E+00  0.00000000000E+00 0.  1.
         21    1    1    2  502  501  0.26531924148E+02 -0.27354498963E+02  0.98339741367E+03  0.98413550125E+03  0.00000000000E+00 0.  1.
         21    1    1    2  503  502 -0.26531924148E+02  0.27354498963E+02  0.64172897850E+03  0.64285946634E+03  0.00000000000E+00 0. -1.
</event>
<event>
 4    1  0.5452128E+002  0.2097032E+02  0.7546771E-02  0.1519689E+00
          2   -1    0    0  503    0  0.00000000000E+00  0.00000000000E+00  0.35817054759E+02  0.35817054759E+02  0.00000000000E+00 0. -1.
         -2   -1    0    0    0  501 -0.00000000000E+00 -0.00000000000E+00 -0.15890377303E+02  0.15890377303E+02  0.00000000000E+00 0.  1.
         21    1    1    2  502  501  0.64937176598E+01  0.19939557398E+02 -0.23638764132E+01  0.21103133179E+02  0.00000000000E+00 0.  1.
         21    1    1    2  503  502 -0.64937176598E+01 -0.19939557398E+02  0.22290553869E+02  0.30604298882E+02  0.00000000000E+00 0. -1.
</event>
<event>
 4    1  0.5452128E+002  0.5889325E+02  0.7546771E-02  0.1263640E+00
          2   -1    0    0  502    0  0.00000000000E+00  0.00000000000E+00  0.10677765806E+03  0.10677765806E+03  0.00000000000E+00 0.  1.
         -2   -1    0    0    0  501 -0.00000000000E+00 -0.00000000000E+00 -0.32751623122E+02  0.32751623122E+02  0.00000000000E+00 0. -1.
         21    1    1    2  502  503  0.18564300634E+02  0.55890798787E+02  0.43336024197E+02  0.73119256289E+02  0.00000000000E+00 0.  1.
         21    1    1    2  503  501 -0.18564300634E+02 -0.55890798787E+02  0.30690010742E+02  0.66410024894E+02  0.00000000000E+00 0. -1.
</event>
<event>
 4    1  0.5452128E+002  0.3532138E+02  0.7546771E-02  0.1378318E+00
          2   -1    0    0  503    0  0.00000000000E+00  0.00000000000E+00  0.11865035139E+04  0.11865035139E+04  0.00000000000E+00 0.  1.
         -2   -1    0    0    0  501 -0.00000000000E+00 -0.00000000000E+00 -0.14770650660E+01  0.14770650660E+01  0.00000000000E+00 0. -1.
         21    1    1    2  502  501 -0.69931858271E+01 -0.34622180408E+02  0.27367811555E+03  0.27594802220E+03  0.00000000000E+00 0. -1.
         21    1    1    2  503  502  0.69931858271E+01  0.34622180408E+02  0.91134833324E+03  0.91203255673E+03  0.00000000000E+00 0.  1.
</event>
<event>
 4    1  0.5452128E+002  0.2634663E+02  0.7546771E-02  0.1454284E+00
          2   -1    0    0  503    0  0.00000000000E+00  0.00000000000E+00  0.11463560197E+01  0.11463560197E+01  0.00000000000E+00 0.  1.
         -2   -1    0    0    0  501 -0.00000000000E+00 -0.00000000000E+00 -0.62825755631E+03  0.62825755631E+03  0.00000000000E+00 0. -1.
         21    1    1    2  502  501 -0.16910932647E+02 -0.20203103204E+02 -0.37342061681E+03  0.37434890421E+03  0.00000000000E+00 0.  1.
         21    1    1    2  503  502  0.16910932647E+02  0.20203103204E+02 -0.25369058347E+03  0.25505500812E+03  0.00000000000E+00 0. -1.
</event>
<event>
 4    1  0.5452128E+002  0.2596395E+02  0.7546771E-02  0.1458302E+00
          2   -1    0    0  503    0  0.00000000000E+00  0.00000000000E+00  0.45668384743E+02  0.45668384743E+02  0.00000000000E+00 0. -1.
         -2   -1    0    0    0  501 -0.00000000000E+00 -0.00000000000E+00 -0.16741066595E+02  0.16741066595E+02  0.00000000000E+00 0.  1.
         21    1    1    2  502  501 -0.21874180010E+02 -0.13987391660E+02  0.37328951174E+01  0.26230924164E+02  0.00000000000E+00 0. -1.
         21    1    1    2  503  502  0.21874180010E+02  0.13987391660E+02  0.25194423031E+02  0.36178527173E+02  0.00000000000E+00 0.  1.
</event>
<event>
 4    1  0.5452128E+002  0.2141297E+02  0.7546771E-02  0.1513450E+00
          2   -1    0    0  503    0  0.00000000000E+00  0.00000000000E+00  0.16038736122E+03  0.16038736122E+03  0.00000000000E+00 0.  1.
         -2   -1    0    0    0  501 -0.00000000000E+00 -0.00000000000E+00 -0.23931185915E+02  0.23931185915E+02  0.00000000000E+00 0. -1.
         21    1    1    2  502  501 -0.21412089795E+02  0.19400120365E+00 -0.18251537510E+02  0.28135988473E+02  0.00000000000E+00 0. -1.
         21    1    1    2  503  502  0.21412089795E+02 -0.19400120365E+00  0.15470771282E+03  0.15618255866E+03  0.00000000000E+00 0.  1.
</event>
<event>
 4    1  0.5452128E+002  0.3253479E+02  0.7546771E-02  0.1398775E+00
          2   -1    0    0  503    0  0.00000000000E+00  0.00000000000E+00  0.31508356755E+03  0.31508356755E+03  0.00000000000E+00 0. -1.
         -2   -1    0    0    0  501 -0.00000000000E+00 -0.00000000000E+00 -0.45769404075E+01  0.45769404075E+01  0.00000000000E+00 0.  1.
         21    1    1    2  502  501 -0.51141837547E+01 -0.32130324812E+02  0.72820292690E+02  0.79757806360E+02  0.00000000000E+00 0. -1.
         21    1    1    2  503  502  0.51141837547E+01  0.32130324812E+02  0.23768633446E+03  0.23990270160E+03  0.00000000000E+00 0.  1.
</event>
<event>
 4    1  0.5452128E+002  0.2327080E+02  0.7546771E-02  0.1489125E+00
          2   -1    0    0  503    0  0.00000000000E+00  0.00000000000E+00  0.16675838969E+02  0.16675838969E+02  0.00000000000E+00 0.  1.
         -2   -1    0    0    0  501 -0.00000000000E+00 -0.00000000000E+00 -0.86623364644E+02  0.86623364644E+02  0.00000000000E+00 0. -1.
         21    1    1    2  502  501  0.21539477863E+02  0.88080031422E+01 -0.75810065784E+02  0.79301299486E+02  0.00000000000E+00 0. -1.
         21    1    1    2  503  502 -0.21539477863E+02 -0.88080031422E+01  0.58625401094E+01  0.23997904127E+02  0.00000000000E+00 0.  1.
</event>
<event>
 4    1  0.5452128E+002  0.2088343E+02  0.7546771E-02  0.1520936E+00
          2   -1    0    0  503    0  0.00000000000E+00  0.00000000000E+00  0.19174871417E+03  0.19174871417E+03  0.00000000000E+00 0.  1.
         -2   -1    0    0    0  501 -0.00000000000E+00 -0.00000000000E+00 -0.31066981733E+01  0.31066981733E+01  0.00000000000E+00 0. -1.
         21    1    1    2  502  501 -0.86441433805E+00 -0.20865528581E+02  0.43893596487E+02  0.48608284352E+02  0.00000000000E+00 0. -1.
         21    1    1    2  503  502  0.86441433805E+00  0.20865528581E+02  0.14474841951E+03  0.14624712799E+03  0.00000000000E+00 0.  1.
</event>
<event>
 4    1  0.5452128E+002  0.3183474E+02  0.7546771E-02  0.1404295E+00
          2   -1    0    0  503    0  0.00000000000E+00  0.00000000000E+00  0.23778016487E+04  0.23778016487E+04  0.00000000000E+00 0.  1.
         -2   -1    0    0    0  501 -0.00000000000E+00 -0.00000000000E+00 -0.43524897899E+00  0.43524897899E+00  0.00000000000E+00 0. -1.
         21    1    1    2  502  501 -0.43573497330E+00  0.31831758193E+02  0.10173519590E+04  0.10178499197E+04  0.00000000000E+00 0.  1.
         21    1    1    2  503  502  0.43573497330E+00 -0.31831758193E+02  0.13600144407E+04  0.13603869779E+04  0.00000000000E+00 0. -1.
</event>
<event>
 4    1  0.5452128E+002  0.3232267E+02  0.7546771E-02  0.1400430E+00
          2   -1    0    0  502    0  0.00000000000E+00  0.00000000000E+00  0.16133732623E+03  0.16133732623E+03  0.00000000000E+00 0. -1.
         -2   -1    0    0    0  501 -0.00000000000E+00 -0.00000000000E+00 -0.89980927331E+01  0.89980927331E+01  0.00000000000E+00 0.  1.
         21    1    1    2  502  503 -0.26033473090E+02  0.19157584398E+02  0.12126326289E+03  0.12549714613E+03  0.00000000000E+00 0. -1.
         21    1    1    2  503  501  0.26033473090E+02 -0.19157584398E+02  0.31075970607E+02  0.44838272829E+02  0.00000000000E+00 0.  1.
</event>
<event>
 4    1  0.5452128E+002  0.2117248E+02  0.7546771E-02  0.1516816E+00
          2   -1    0    0  503    0  0.00000000000E+00  0.00000000000E+00  0.14827595991E+04  0.14827595991E+04  0.00000000000E+00 0.  1.
         -2   -1    0    0    0  501 -0.00000000000E+00 -0.00000000000E+00 -0.78766580909E+00  0.78766580909E+00  0.00000000000E+00 0. -1.
         21    1    1    2  502  501  0.20579954234E+02  0.49738752823E+01  0.15871624783E+03  0.16012220732E+03  0.00000000000E+00 0. -1.
         21    1    1    2  503  502 -0.20579954234E+02 -0.49738752823E+01  0.13232556855E+04  0.13234250576E+04  0.00000000000E+00 0.  1.
</event>
<event>
 4    1  0.5452128E+002  0.2552207E+02  0.7546771E-02  0.1463047E+00
          2   -1    0    0  503    0  0.00000000000E+00  0.00000000000E+00  0.23235320251E+03  0.23235320251E+03  0.00000000000E+00 0. -1.
         -2   -1    0    0    0  501 -0.00000000000E+00 -0.00000000000E+00 -0.82587309905E+01  0.82587309905E+01  0.00000000000E+00 0.  1.
         21    1    1    2  502  501  0.12506816389E+02  0.22247596687E+02  0.14269142043E+02  0.29240116778E+02  0.00000000000E+00 0.  1.
         21    1    1    2  503  502 -0.12506816389E+02 -0.22247596687E+02  0.20982532948E+03  0.21137181672E+03  0.00000000000E+00 0. -1.
</event>
<event>
 4    1  0.5452128E+002  0.2518124E+02  0.7546771E-02  0.1466786E+00
          2   -1    0    0  503    0  0.00000000000E+00  0.00000000000E+00  0.44338922368E+03  0.44338922368E+03  0.00000000000E+00 0.  1.
         -2   -1    0    0    0  501 -0.00000000000E+00 -0.00000000000E+00 -0.14576246837E+01  0.14576246837E+01  0.00000000000E+00 0. -1.
         21    1    1    2  502  501 -0.76214242553E+01 -0.24000183563E+02  0.19040618794E+03  0.19206408130E+03  0.00000000000E+00 0.  1.
         21    1    1    2  503  502  0.76214242553E+01  0.24000183563E+02  0.25152541106E+03  0.25278276707E+03  0.00000000000E+00 0. -1.
</event>
<event>
 4    1  0.5452128E+002  0.2052542E+02  0.7546771E-02  0.1526150E+00
          2   -1    0    0  503    0  0.00000000000E+00  0.00000000000E+00  0.16026919900E+02  0.16026919900E+02  0.00000000000E+00 0. -1.
         -2   -1    0    0    0  501 -0.00000000000E+00 -0.00000000000E+00 -0.34825275148E+02  0.34825275148E+02  0.00000000000E+00 0.  1.
         21    1    1    2  502  501  0.16408249344E+02 -0.12331344964E+02 -0.21989257836E+02  0.30080228977E+02  0.00000000000E+00 0.  1.
         21    1    1    2  503  502 -0.16408249344E+02  0.12331344964E+02  0.31909025882E+01  0.20771966071E+02  0.00000000000E+00 0. -1.
</event>
<event>
 4    1  0.5452128E+002  0.2249212E+02  0.7546771E-02  0.1498976E+00
          2   -1    0    0  502    0  0.00000000000E+00  0.00000000000E+00  0.71090949595E+01  0.71090949595E+01  0.00000000000E+00 0.  1.
         -2   -1    0    0    0  501 -0.00000000000E+00 -0.00000000000E+00 -0.71929602483E+02  0.71929602483E+02  0.00000000000E+00 0. -1.
         21    1    1    2  502  503 -0.53723145431E+01 -0.21841105309E+02 -0.28327110775E+02  0.36170718123E+02  0.00000000000E+00 0. -1.
         21    1    1    2  503  501  0.53723145431E+01  0.21841105309E+02 -0.36493396749E+02  0.42867979320E+02  0.00000000000E+00 0.  1.
</event>
<event>
 4    1  0.5452128E+002  0.2543097E+02  0.7546771E-02  0.1464039E+00
          2   -1    0    0  503    0  0.00000000000E+00  0.00000000000E+00  0.51229695157E+03  0.51229695157E+03  0.00000000000E+00 0. -1.
         -2   -1    0    0    0  501 -0.00000000000E+00 -0.00000000000E+00 -0.39777188772E+02  0.39777188772E+02  0.00000000000E+00 0.  1.
         21    1    1    2  502  501  0.69403297593E+01  0.24465608442E+02 -0.35361535667E+02  0.43556542314E+02  0.00000000000E+00 0.  1.
         21    1    1    2  503  502 -0.69403297593E+01 -0.24465608442E+02  0.50788129846E+03  0.50851759803E+03  0.00000000000E+00 0. -1.
</event>
<event>
 4    1  0.5452128E+002  0.2539713E+02  0.7546771E-02  0.1464409E+00
          2   -1    0    0  502    0  0.00000000000E+00  0.00000000000E+00  0.30437342625E+02  0.30437342625E+02  0.00000000000E+00 0. -1.
         -2   -1    0    0    0  501 -0.00000000000E+00 -0.00000000000E+00 -0.24943999239E+02  0.24943999239E+02  0.00000000000E+00 0.  1.
         21    1    1    2  502  503  0.16973076374E+02  0.18892563047E+02  0.13486769709E+02  0.28755994458E+02  0.00000000000E+00 0. -1.
         21    1    1    2  503  501 -0.16973076374E+02 -0.18892563047E+02 -0.79934263236E+01  0.26625347406E+02  0.00000000000E+00 0.  1.
</event>
<event>
 4    1  0.5452128E+002  0.3032308E+02  0.7546771E-02  0.1416809E+00
          2   -1    0    0  503    0  0.00000000000E+00  0.00000000000E+00  0.14461193338E+02  0.14461193338E+02  0.00000000000E+00 0.  1.
         -2   -1    0    0    0  501 -0.00000000000E+00 -0.00000000000E+00 -0.30789059832E+03  0.30789059832E+03  0.00000000000E+00 0. -1.
         21    1    1    2  502  501  0.30260756347E+02  0.19432022929E+01 -0.29028683794E+03  0.29186630105E+03  0.00000000000E+00 0. -1.
         21    1    1    2  503  502 -0.30260756347E+02 -0.19432022929E+01 -0.31425670438E+01  0.30485490606E+02  0.00000000000E+00 0.  1.
</event>
<event>
 4    1  0.5452128E+002  0.2825597E+02  0.7546771E-02  0.1435384E+00
          2   -1    0    0  502    0  0.00000000000E+00  0.00000000000E+00  0.16361926191E+03  0.16361926191E+03  0.00000000000E+00 0.  1.
         -2   -1    0    0    0  501 -0.00000000000E+00 -0.00000000000E+00 -0.16753865894E+02  0.16753865894E+02  0.00000000000E+00 0. -1.
         21    1    1    2  502  503  0.16351872282E+02  0.23043783129E+02  0.14935814539E+03  0.15200741844E+03  0.00000000000E+00 0.  1.
         21    1    1    2  503  501 -0.16351872282E+02 -0.23043783129E+02 -0.24927493739E+01  0.28365709360E+02  0.00000000000E+00 0. -1.
</event>
<event>
 4    1  0.5452128E+002  0.7472117E+02  0.7546771E-02  0.1216663E+00
          2   -1    0    0  503    0  0.00000000000E+00  0.00000000000E+00  0.20570010980E+02  0.20570010980E+02  0.00000000000E+00 0.  1.
         -2   -1    0    0    0  501 -0.00000000000E+00 -0.00000000000E+00 -0.41392632664E+03  0.41392632664E+03  0.00000000000E+00 0. -1.
         21    1    1    2  502  501 -0.60909075498E+02 -0.43282076177E+02 -0.32414616947E+03  0.33264694915E+03  0.00000000000E+00 0. -1.
         21    1    1    2  503  502  0.60909075498E+02  0.43282076177E+02 -0.69210146190E+02  0.10184938847E+03  0.00000000000E+00 0.  1.
</event>
<event>
 4    1  0.5452128E+002  0.2298570E+02  0.7546771E-02  0.1492678E+00
          2   -1    0    0  502    0  0.00000000000E+00  0.00000000000E+00  0.73079434316E+03  0.73079434316E+03  0.00000000000E+00 0. -1.
         -2   -1    0    0    0  501 -0.00000000000E+00 -0.00000000000E+00 -0.12921365889E+01  0.12921365889E+01  0.00000000000E+00 0.  1.
         21    1    1    2  502  503  0.22908138032E+02  0.18867533589E+01  0.12181181644E+03  0.12396153133E+03  0.00000000000E+00 0.  1.
         21    1    1    2  503  501 -0.22908138032E+02 -0.18867533589E+01  0.60769039013E+03  0.60812494842E+03  0.00000000000E+00 0. -1.
</event>
<event>
 4    1  0.5452128E+002  0.3211104E+02  0.7546771E-02  0.1402097E+00
          2   -1    0    0  502    0  0.00000000000E+00  0.00000000000E+00  0.15752952905E+04  0.15752952905E+04  0.00000000000E+00 0. -1.
         -2   -1    0    0    0  501 -0.00000000000E+00 -0.00000000000E+00 -0.65528019814E+00  0.65528019814E+00  0.00000000000E+00 0.  1.
         21    1    1    2  502  503 -0.13916867052E+01 -0.32080871854E+02  0.76112612342E+03  0.76180318645E+03  0.00000000000E+00 0.  1.
         21    1    1    2  503  501  0.13916867052E+01  0.32080871854E+02  0.81351388690E+03  0.81414738427E+03  0.00000000000E+00 0. -1.
</event>
<event>
 4    1  0.5452128E+002  0.2111525E+02  0.7546771E-02  0.1517626E+00
          2   -1    0    0  502    0  0.00000000000E+00  0.00000000000E+00  0.69891273369E+03  0.69891273369E+03  0.00000000000E+00 0. -1.
         -2   -1    0    0    0  501 -0.00000000000E+00 -0.00000000000E+00 -0.95437287439E+00  0.95437287439E+00  0.00000000000E+00 0.  1.
         21    1    1    2  502  503  0.15519359835E+02  0.14317930229E+02  0.14747786764E+03  0.14898179452E+03  0.00000000000E+00 0.  1.
         21    1    1    2  503  501 -0.15519359835E+02 -0.14317930229E+02  0.55048049318E+03  0.55088531204E+03  0.00000000000E+00 0. -1.
</event>
<event>
 4    1  0.5452128E+002  0.2113197E+02  0.7546771E-02  0.1517389E+00
          2   -1    0    0  502    0  0.00000000000E+00  0.00000000000E+00  0.10563193087E+03  0.10563193087E+03  0.00000000000E+00 0. -1.
         -2   -1    0    0    0  501 -0.00000000000E+00 -0.00000000000E+00 -0.83373435715E+01  0.83373435715E+01  0.00000000000E+00 0.  1.
         21    1    1    2  502  503 -0.86447903178E+01  0.19282839638E+02  0.88656130540E+02  0.91139836441E+02  0.00000000000E+00 0.  1.
         21    1    1    2  503  501  0.86447903178E+01 -0.19282839638E+02  0.86384567539E+01  0.22829437996E+02  0.00000000000E+00 0. -1.
</event>
<event>
 4    1  0.5452128E+002  0.2230822E+02  0.7546771E-02  0.1501373E+00
          2   -1    0    0  502    0  0.00000000000E+00  0.00000000000E+00  0.59889155923E+03  0.59889155923E+03  0.00000000000E+00 0.  1.
         -2   -1    0    0    0  501 -0.00000000000E+00 -0.00000000000E+00 -0.84413648591E+00  0.84413648591E+00  0.00000000000E+00 0. -1.
         21    1    1    2  502  503  0.13844175631E+02  0.17492721400E+02  0.26156264482E+03  0.26251223526E+03  0.00000000000E+00 0.  1.
         21    1    1    2  503  501 -0.13844175631E+02 -0.17492721400E+02  0.33648477793E+03  0.33722346045E+03  0.00000000000E+00 0. -1.
</event>
<event>
 4    1  0.5452128E+002  0.2688466E+02  0.7546771E-02  0.1448770E+00
          2   -1    0    0  503    0  0.00000000000E+00  0.00000000000E+00  0.12209850816E+04  0.12209850816E+04  0.00000000000E+00 0.  1.
         -2   -1    0    0    0  501 -0.00000000000E+00 -0.00000000000E+00 -0.60243825480E+00  0.60243825480E+00  0.00000000000E+00 0. -1.
         21    1    1    2  502  501  0.81969477403E+00 -0.26872160433E+02  0.52967142623E+03  0.53035328289E+03  0.00000000000E+00 0. -1.
         21    1    1    2  503  502 -0.81969477403E+00  0.26872160433E+02  0.69071121709E+03  0.69123423694E+03  0.00000000000E+00 0.  1.
</event>
<event>
 4    1  0.5452128E+002  0.2126962E+02  0.7546771E-02  0.1515450E+00
          2   -1    0    0  503    0  0.00000000000E+00  0.00000000000E+00  0.85831146233E+03  0.85831146233E+03  0.00000000000E+00 0. -1.
         -2   -1    0    0    0  501 -0.00000000000E+00 -0.00000000000E+00 -0.54803858603E+00  0.54803858603E+00  0.00000000000E+00 0.  1.
         21    1    1    2  502  501  0.85144908240E+01 -0.19491025374E+02  0.34489822911E+03  0.34555344748E+03  0.00000000000E+00 0.  1.
         21    1    1    2  503  502 -0.85144908240E+01  0.19491025374E+02  0.51286519463E+03  0.51330605343E+03  0.00000000000E+00 0. -1.
</event>
<event>
 4    1  0.5452128E+002  0.3304761E+02  0.7546771E-02  0.1394834E+00
          2   -1    0    0  503    0  0.00000000000E+00  0.00000000000E+00  0.10705000761E+04  0.10705000761E+04  0.00000000000E+00 0. -1.
         -2   -1    0    0    0  501 -0.00000000000E+00 -0.00000000000E+00 -0.12842322518E+01  0.12842322518E+01  0.00000000000E+00 0.  1.
         21    1    1    2  502  501  0.20090841376E+02  0.26239332530E+02  0.29162905355E+03  0.29349556956E+03  0.00000000000E+00 0.  1.
         21    1    1    2  503  502 -0.20090841376E+02 -0.26239332530E+02  0.77758679032E+03  0.77828873881E+03  0.00000000000E+00 0. -1.
</event>
<event>
 4    1  0.5452128E+002  0.2267086E+02  0.7546771E-02  0.1496673E+00
          2   -1    0    0  503    0  0.00000000000E+00  0.00000000000E+00  0.17191693986E+04  0.17191693986E+04  0.00000000000E+00 0. -1.
         -2   -1    0    0    0  501 -0.00000000000E+00 -0.00000000000E+00 -0.58668833688E+00  0.58668833688E+00  0.00000000000E+00 0.  1.
         21    1    1    2  502  501  0.97312884338E+01  0.20476082127E+02  0.25711702022E+03  0.25811456759E+03  0.00000000000E+00 0.  1.
         21    1    1    2  503  502 -0.97312884338E+01 -0.20476082127E+02  0.14614656901E+04  0.14616415194E+04  0.00000000000E+00 0. -1.
</event>
<event>
 4    1  0.5452128E+002  0.2319847E+02  0.7546771E-02  0.1490021E+00
          2   -1    0    0  503    0  0.00000000000E+00  0.00000000000E+00  0.14439729235E+03  0.14439729235E+03  0.00000000000E+00 0. -1.
         -2   -1    0    0    0  501 -0.00000000000E+00 -0.00000000000E+00 -0.44541750525E+01  0.44541750525E+01  0.00000000000E+00 0.  1.
         21    1    1    2  502  501  0.62919462878E+01 -0.22328913850E+02  0.10004328804E+03  0.10269775296E+03  0.00000000000E+00 0. -1.
         21    1    1    2  503  502 -0.62919462878E+01  0.22328913850E+02  0.39899829260E+02  0.46153714442E+02  0.00000000000E+00 0.  1.
</event>
<event>
 4    1  0.5452128E+002  0.2044852E+02  0.7546771E-02  0.1527286E+00
          2   -1    0    0  502    0  0.00000000000E+00  0.00000000000E+00  0.92167738045E+03  0.92167738045E+03  0.00000000000E+00 0. -1.
         -2   -1    0    0    0  501 -0.00000000000E+00 -0.00000000000E+00 -0.51992342789E+00  0.51992342789E+00  0.00000000000E+00 0.  1.
         21    1    1    2  502  503 -0.16954370254E+02 -0.11432024470E+02  0.62517212770E+03  0.62550645969E+03  0.00000000000E+00 0. -1.
         21    1    1    2  503  501  0.16954370254E+02  0.11432024470E+02  0.29598532932E+03  0.29669084419E+03  0.00000000000E+00 0.  1.
</event>
<event>
 4    1  0.5452128E+002  0.2500014E+02  0.7546771E-02  0.1468802E+00
          2   -1    0    0  502    0  0.00000000000E+00  0.00000000000E+00  0.16432088280E+04  0.16432088280E+04  0.00000000000E+00 0.  1.
         -2   -1    0    0    0  501 -0.00000000000E+00 -0.00000000000E+00 -0.48998699689E+00  0.48998699689E+00  0.00000000000E+00 0. -1.
         21    1    1    2  502  503 -0.12165734217E+02 -0.21840371407E+02  0.12101032838E+04  0.12103615015E+04  0.00000000000E+00 0.  1.
         21    1    1    2  503  501  0.12165734217E+02  0.21840371407E+02  0.43261555725E+03  0.43333731352E+03  0.00000000000E+00 0. -1.
</event>
<event>
 4    1  0.5452128E+002  0.8377111E+02  0.7546771E-02  0.1195353E+00
          2   -1    0    0  502    0  0.00000000000E+00  0.00000000000E+00  0.22215694019E+03  0.22215694019E+03  0.00000000000E+00 0. -1.
         -2   -1    0    0    0  501 -0.00000000000E+00 -0.00000000000E+00 -0.57430376466E+02  0.57430376466E+02  0.00000000000E+00 0.  1.
         21    1    1    2  502  503  0.77237725092E+02  0.32433521141E+02  0.17613650683E+03  0.19504273509E+03  0.00000000000E+00 0. -1.
         21    1    1    2  503  501 -0.77237725092E+02 -0.32433521141E+02 -0.11409943108E+02  0.84544581569E+02  0.00000000000E+00 0.  1.
</event>
<event>
 4    1  0.5452128E+002  0.2234239E+02  0.7546771E-02  0.1500925E+00
          2   -1    0    0  503    0  0.00000000000E+00  0.00000000000E+00  0.60699644055E+02  0.60699644055E+02  0.00000000000E+00 0.  1.
         -2   -1    0    0    0  501 -0.00000000000E+00 -0.00000000000E+00 -0.12743550497E+02  0.12743550497E+02  0.00000000000E+00 0. -1.
         21    1    1    2  502  501 -0.12238597428E+02  0.18692219029E+02  0.45847257422E+02  0.51001503236E+02  0.00000000000E+00 0.  1.
         21    1    1    2  503  502  0.12238597428E+02 -0.18692219029E+02  0.21088361364E+01  0.22441691315E+02  0.00000000000E+00 0. -1.
</event>
<event>
 4    1  0.5452128E+002  0.2054683E+02  0.7546771E-02  0.1525834E+00
          2   -1    0    0  503    0  0.00000000000E+00  0.00000000000E+00  0.28382725552E+03  0.28382725552E+03  0.00000000000E+00 0. -1.
         -2   -1    0    0    0  501 -0.00000000000E+00 -0.00000000000E+00 -0.14937096830E+01  0.14937096830E+01  0.00000000000E+00 0.  1.
         21    1    1    2  502  501 -0.14341598941E+02  0.14713631969E+02  0.13191487868E+03  0.13350545922E+03  0.00000000000E+00 0. -1.
         21    1    1    2  503  502  0.14341598941E+02 -0.14713631969E+02  0.15041866716E+03  0.15181550599E+03  0.00000000000E+00 0.  1.
</event>
<event>
 4    1  0.5452128E+002  0.2004890E+02  0.7546771E-02  0.1533290E+00
          2   -1    0    0  503    0  0.00000000000E+00  0.00000000000E+00  0.34001500451E+02  0.34001500451E+02  0.00000000000E+00 0. -1.
         -2   -1    0    0    0  501 -0.00000000000E+00 -0.00000000000E+00 -0.86050977157E+02  0.86050977157E+02  0.00000000000E+00 0.  1.
         21    1    1    2  502  501  0.43201868521E+01  0.19577901600E+02 -0.81775475136E+02  0.84197307435E+02  0.00000000000E+00 0.  1.
         21    1    1    2  503  502 -0.43201868521E+01 -0.19577901600E+02  0.29725998431E+02  0.35855170174E+02  0.00000000000E+00 0. -1.
</event>
<event>
 4    1  0.5452128E+002  0.2921116E+02  0.7546771E-02  0.1426578E+00
          2   -1    0    0  502    0  0.00000000000E+00  0.00000000000E+00  0.85730353434E+03  0.85730353434E+03  0.00000000000E+00 0.  1.
         -2   -1    0    0    0  501 -0.00000000000E+00 -0.00000000000E+00 -0.11565320963E+01  0.11565320963E+01  0.00000000000E+00 0. -1.
         21    1    1    2  502  503  0.26038167750E+02  0.13240300048E+02  0.58832772535E+03  0.58905246298E+03  0.00000000000E+00 0.  1.
         21    1    1    2  503  501 -0.26038167750E+02 -0.13240300048E+02  0.26781927689E+03  0.26940760345E+03  0.00000000000E+00 0. -1.
</event>
<event>
 4    1  0.5452128E+002  0.5290982E+02  0.7546771E-02  0.1286027E+00
          2   -1    0    0  502    0  0.00000000000E+00  0.00000000000E+00  0.86928970858E+03  0.86928970858E+03  0.00000000000E+00 0.  1.
         -2   -1    0    0    0  501 -0.00000000000E+00 -0.00000000000E+00 -0.32204716632E+01  0.32204716632E+01  0.00000000000E+00 0. -1.
         21    1    1    2  502  503 -0.22723676157E+02 -0.47781620250E+02  0.43078894231E+03  0.43402599174E+03  0.00000000000E+00 0.  1.
         21    1    1    2  503  501  0.22723676157E+02  0.47781620250E+02  0.43528029460E+03  0.43848418850E+03  0.00000000000E+00 0. -1.
</event>
<event>
 4    1  0.5452128E+002  0.3164449E+02  0.7546771E-02  0.1405824E+00
          2   -1    0    0  502    0  0.00000000000E+00  0.00000000000E+00  0.57296716155E+02  0.57296716155E+02  0.00000000000E+00 0. -1.
         -2   -1    0    0    0  501 -0.00000000000E+00 -0.00000000000E+00 -0.25243657657E+02  0.25243657657E+02  0.00000000000E+00 0.  1.
         21    1    1    2  502  503  0.26378306432E+02  0.17480231517E+02  0.38918223892E+02  0.50159761712E+02  0.00000000000E+00 0. -1.
         21    1    1    2  503  501 -0.26378306432E+02 -0.17480231517E+02 -0.68651653946E+01  0.32380612100E+02  0.00000000000E+00 0.  1.
</event>
<event>
 4    1  0.5452128E+002  0.2503180E+02  0.7546771E-02  0.1468448E+00
          2   -1    0    0  503    0  0.00000000000E+00  0.00000000000E+00  0.14376175195E+01  0.14376175195E+01  0.00000000000E+00 0.  1.
         -2   -1    0    0    0  501 -0.00000000000E+00 -0.00000000000E+00 -0.62638435592E+03  0.62638435592E+03  0.00000000000E+00 0. -1.
         21    1    1    2  502  501  0.14504027360E+02  0.20401571026E+02 -0.13934489561E+03  0.14157538925E+03  0.00000000000E+00 0.  1.
         21    1    1    2  503  502 -0.14504027360E+02 -0.20401571026E+02 -0.48560184279E+03  0.48624658418E+03  0.00000000000E+00 0. -1.
</event>
<event>
 4    1  0.5452128E+002  0.5077636E+02  0.7546771E-02  0.1294841E+00
          2   -1    0    0  502    0  0.00000000000E+00  0.00000000000E+00  0.12989950161E+03  0.12989950161E+03  0.00000000000E+00 0. -1.
         -2   -1    0    0    0  501 -0.00000000000E+00 -0.00000000000E+00 -0.23785339145E+02  0.23785339145E+02  0.00000000000E+00 0.  1.
         21    1    1    2  502  503  0.16180216142E+02 -0.48129405991E+02  0.84321503156E+02  0.98429441784E+02  0.00000000000E+00 0. -1.
         21    1    1    2  503  501 -0.16180216142E+02  0.48129405991E+02  0.21792659305E+02  0.55255398967E+02  0.00000000000E+00 0.  1.
</event>
<event>
 4    1  0.5452128E+002  0.6695022E+02  0.7546771E-02  0.1237886E+00
          2   -1    0    0  502    0  0.00000000000E+00  0.00000000000E+00  0.10949050148E+04  0.10949050148E+04  0.00000000000E+00 0. -1.
         -2   -1    0    0    0  501 -0.00000000000E+00 -0.00000000000E+00 -0.28768103869E+02  0.28768103869E+02  0.00000000000E+00 0.  1.
         21    1    1    2  502  503  0.61773917588E+02  0.25813075721E+02  0.10533959247E+04  0.10555213432E+04  0.00000000000E+00 0. -1.
         21    1    1    2  503  501 -0.61773917588E+02 -0.25813075721E+02  0.12740986254E+02  0.68151775494E+02  0.00000000000E+00 0.  1.
</event>
<event>
 4    1  0.5452128E+002  0.2033227E+02  0.7546771E-02  0.1529016E+00
          2   -1    0    0  502    0  0.00000000000E+00  0.00000000000E+00  0.27341936839E+03  0.27341936839E+03  0.00000000000E+00 0.  1.
         -2   -1    0    0    0  501 -0.00000000000E+00 -0.00000000000E+00 -0.47896472586E+01  0.47896472586E+01  0.00000000000E+00 0. -1.
         21    1    1    2  502  503 -0.88980602338E+01 -0.18281837071E+02  0.24938767530E+03  0.25021513471E+03  0.00000000000E+00 0.  1.
         21    1    1    2  503  501  0.88980602338E+01  0.18281837071E+02  0.19242045829E+02  0.27993880944E+02  0.00000000000E+00 0. -1.
</event>
<event>
 4    1  0.5452128E+002  0.2118268E+02  0.7546771E-02  0.1516673E+00
          2   -1    0    0  502    0  0.00000000000E+00  0.00000000000E+00  0.57502666112E+02  0.57502666112E+02  0.00000000000E+00 0. -1.
         -2   -1    0    0    0  501 -0.00000000000E+00 -0.00000000000E+00 -0.21299696952E+02  0.21299696952E+02  0.00000000000E+00 0.  1.
         21    1    1    2  502  503  0.17654308569E+02  0.11706034532E+02  0.49465580213E+02  0.53810310177E+02  0.00000000000E+00 0. -1.
         21    1    1    2  503  501 -0.17654308569E+02 -0.11706034532E+02 -0.13262611054E+02  0.24992052887E+02  0.00000000000E+00 0.  1.
</event>
<event>
 4    1  0.5452128E+002  0.3273058E+02  0.7546771E-02  0.1397261E+00
          2   -1    0    0  503    0  0.00000000000E+00  0.00000000000E+00  0.15520389321E+03  0.15520389321E+03  0.00000000000E+00 0. -1.
         -2   -1    0    0    0  501 -0.00000000000E+00 -0.00000000000E+00 -0.38633583877E+02  0.38633583877E+02  0.00000000000E+00 0.  1.
         21    1    1    2  502  501  0.28742927213E+02  0.15656789429E+02 -0.29549901202E+02  0.44096344305E+02  0.00000000000E+00 0.  1.
         21    1    1    2  503  502 -0.28742927213E+02 -0.15656789429E+02  0.14612021053E+03  0.14974113278E+03  0.00000000000E+00 0. -1.
</event>
<event>
 4    1  0.5452128E+002  0.8049173E+02  0.7546771E-02  0.1202711E+00
          2   -1    0    0  502    0  0.00000000000E+00  0.00000000000E+00  0.63488445939E+03  0.63488445939E+03  0.00000000000E+00 0.  1.
         -2   -1    0    0    0  501 -0.00000000000E+00 -0.00000000000E+00 -0.48692796368E+02  0.48692796368E+02  0.00000000000E+00 0. -1.
         21    1    1    2  502  503 -0.31681658156E+02  0.73994535355E+02  0.59696557514E+03  0.60236767561E+03  0.00000000000E+00 0.  1.
         21    1    1    2  503  501  0.31681658156E+02 -0.73994535355E+02 -0.10773912109E+02  0.81209580150E+02  0.00000000000E+00 0. -1.
</event>
<event>
 4    1  0.5452128E+002  0.2786333E+02  0.7546771E-02  0.1439123E+00
          2   -1    0    0  503    0  0.00000000000E+00  0.00000000000E+00  0.26317463775E+03  0.26317463775E+03  0.00000000000E+00 0.  1.
         -2   -1    0    0    0  501 -0.00000000000E+00 -0.00000000000E+00 -0.14126314211E+02  0.14126314211E+02  0.00000000000E+00 0. -1.
         21    1    1    2  502  501 -0.23589643905E+02  0.14828820632E+02  0.11977111807E+01  0.27889061171E+02  0.00000000000E+00 0. -1.
         21    1    1    2  503  502  0.23589643905E+02 -0.14828820632E+02  0.24785061236E+03  0.24941189079E+03  0.00000000000E+00 0.  1.
</event>
<event>
 4    1  0.5452128E+002  0.3674505E+02  0.7546771E-02  0.1368693E+00
          2   -1    0    0  502    0  0.00000000000E+00  0.00000000000E+00  0.22007508560E+04  0.22007508560E+04  0.00000000000E+00 0. -1.
         -2   -1    0    0    0  501 -0.00000000000E+00 -0.00000000000E+00 -0.61950523826E+00  0.61950523826E+00  0.00000000000E+00 0.  1.
         21    1    1    2  502  503  0.14829708069E+02 -0.33619614284E+02  0.12082787078E+04  0.12088373069E+04  0.00000000000E+00 0. -1.
         21    1    1    2  503  501 -0.14829708069E+02  0.33619614284E+02  0.99185264294E+03  0.99253305437E+03  0.00000000000E+00 0.  1.
</event>
<event>
 4    1  0.5452128E+002  0.2774210E+02  0.7546771E-02  0.1440293E+00
          2   -1    0    0  503    0  0.00000000000E+00  0.00000000000E+00  0.26746883220E+03  0.26746883220E+03  0.00000000000E+00 0.  1.
         -2   -1    0    0    0  501 -0.00000000000E+00 -0.00000000000E+00 -0.23976872011E+02  0.23976872011E+02  0.00000000000E+00 0. -1.
         21    1    1    2  502  501 -0.15346214744E+02 -0.23110987521E+02 -0.14953492436E+02  0.31515567379E+02  0.00000000000E+00 0. -1.
         21    1    1    2  503  502  0.15346214744E+02  0.23110987521E+02  0.25844545262E+03  0.25993013683E+03  0.00000000000E+00 0.  1.
</event>
<event>
 4    1  0.5452128E+002  0.2199026E+02  0.7546771E-02  0.1505582E+00
          2   -1    0    0  503    0  0.00000000000E+00  0.00000000000E+00  0.12463631683E+02  0.12463631683E+02  0.00000000000E+00 0.  1.
         -2   -1    0    0    0  501 -0.00000000000E+00 -0.00000000000E+00 -0.39320010863E+02  0.39320010863E+02  0.00000000000E+00 0. -1.
         21    1    1    2  502  501  0.18133397447E+02  0.12439908333E+02 -0.10446605304E+02  0.24345492081E+02  0.00000000000E+00 0.  1.
         21    1    1    2  503  502 -0.18133397447E+02 -0.12439908333E+02 -0.16409773876E+02  0.27438150465E+02  0.00000000000E+00 0. -1.
</event>
<event>
 4    1  0.5452128E+002  0.4258491E+02  0.7546771E-02  0.1333970E+00
          2   -1    0    0  503    0  0.00000000000E+00  0.00000000000E+00  0.58287670823E+03  0.58287670823E+03  0.00000000000E+00 0. -1.
         -2   -1    0    0    0  501 -0.00000000000E+00 -0.00000000000E+00 -0.90074074054E+01  0.90074074054E+01  0.00000000000E+00 0.  1.
         21    1    1    2  502  501  0.16456869471E+02 -0.39276532444E+02  0.47497597224E+02  0.63792603769E+02  0.00000000000E+00 0.  1.
         21    1    1    2  503  502 -0.16456869471E+02  0.39276532444E+02  0.52637170360E+03  0.52809151186E+03  0.00000000000E+00 0. -1.
</event>
<event>
 4    1  0.5452128E+002  0.2096789E+02  0.7546771E-02  0.1519724E+00
          2   -1    0    0  503    0  0.00000000000E+00  0.00000000000E+00  0.17866000832E+04  0.17866000832E+04  0.00000000000E+00 0.  1.
         -2   -1    0    0    0  501 -0.00000000000E+00 -0.00000000000E+00 -0.38752167529E+00  0.38752167529E+00  0.00000000000E+00 0. -1.
         21    1    1    2  502  501  0.19925856556E+02  0.65278212879E+01  0.14328994388E+04  0.14330528441E+04  0.00000000000E+00 0.  1.
         21    1    1    2  503  502 -0.19925856556E+02 -0.65278212879E+01  0.35331312274E+03  0.35393476081E+03  0.00000000000E+00 0. -1.
</event>
<event>
 4    1  0.5452128E+002  0.2393417E+02  0.7546771E-02  0.1481089E+00
          2   -1    0    0  502    0  0.00000000000E+00  0.00000000000E+00  0.22589114464E+04  0.22589114464E+04  0.00000000000E+00 0. -1.
         -2   -1    0    0    0  501 -0.00000000000E+00 -0.00000000000E+00 -0.27935473302E+00  0.27935473302E+00  0.00000000000E+00 0.  1.
         21    1    1    2  502  503  0.97813851956E+01  0.21844196863E+02  0.14723454170E+04  0.14725399388E+04  0.00000000000E+00 0. -1.
         21    1    1    2  503  501 -0.97813851956E+01 -0.21844196863E+02  0.78628667463E+03  0.78665086229E+03  0.00000000000E+00 0.  1.
</event>
<event>
 4    1  0.5452128E+002  0.2273432E+02  0.7546771E-02  0.1495862E+00
          2   -1    0    0  503    0  0.00000000000E+00  0.00000000000E+00  0.80366875142E+03  0.80366875142E+03  0.00000000000E+00 0. -1.
         -2   -1    0    0    0  501 -0.00000000000E+00 -0.00000000000E+00 -0.82573504316E+00  0.82573504316E+00  0.00000000000E+00 0.  1.
         21    1    1    2  502  501 -0.22612114679E+02 -0.23540597594E+01  0.21225247330E+03  0.21346653543E+03  0.00000000000E+00 0.  1.
         21    1    1    2  503  502  0.22612114679E+02  0.23540597594E+01  0.59059054308E+03  0.59102795104E+03  0.00000000000E+00 0. -1.
</event>
<event>
 4    1  0.5452128E+002  0.6257433E+02  0.7546771E-02  0.1251328E+00
          2   -1    0    0  502    0  0.00000000000E+00  0.00000000000E+00  0.70059576105E+02  0.70059576105E+02  0.00000000000E+00 0.  1.
         -2   -1    0    0    0  501 -0.00000000000E+00 -0.00000000000E+00 -0.84190099852E+02  0.84190099852E+02  0.00000000000E+00 0. -1.
         21    1    1    2  502  503  0.43158910711E+02 -0.45308450410E+02  0.37651131378E+02  0.73028452992E+02  0.00000000000E+00 0.  1.
         21    1    1    2  503  501 -0.43158910711E+02  0.45308450410E+02 -0.51781655125E+02  0.81221222965E+02  0.00000000000E+00 0. -1.
</event>
<event>
 4    1  0.5452128E+002  0.2152557E+02  0.7546771E-02  0.1511892E+00
          2   -1    0    0  503    0  0.00000000000E+00  0.00000000000E+00  0.69174631373E+03  0.69174631373E+03  0.00000000000E+00 0.  1.
         -2   -1    0    0    0  501 -0.00000000000E+00 -0.00000000000E+00 -0.72520911319E+00  0.72520911319E+00  0.00000000000E+00 0. -1.
         21    1    1    2  502  501  0.20911106158E+02 -0.51064379831E+01  0.24982933488E+03  0.25075495336E+03  0.00000000000E+00 0. -1.
         21    1    1    2  503  502 -0.20911106158E+02  0.51064379831E+01  0.44119176974E+03  0.44171656948E+03  0.00000000000E+00 0.  1.
</event>
<event>
 4    1  0.5452128E+002  0.2769651E+02  0.7546771E-02  0.1440734E+00
          2   -1    0    0  503    0  0.00000000000E+00  0.00000000000E+00  0.21573629960E+01  0.21573629960E+01  0.00000000000E+00 0. -1.
         -2   -1    0    0    0  501 -0.00000000000E+00 -0.00000000000E+00 -0.64940368836E+03  0.64940368836E+03  0.00000000000E+00 0.  1.
         21    1    1    2  502  501  0.13501751273E+02  0.24182628033E+02 -0.54276103100E+03  0.54346723319E+03  0.00000000000E+00 0.  1.
         21    1    1    2  503  502 -0.13501751273E+02 -0.24182628033E+02 -0.10448529437E+03  0.10809381817E+03  0.00000000000E+00 0. -1.
</event>
<event>
 4    1  0.5452128E+002  0.7339359E+02  0.7546771E-02  0.1220075E+00
          2   -1    0    0  502    0  0.00000000000E+00  0.00000000000E+00  0.16194447451E+04  0.16194447451E+04  0.00000000000E+00 0. -1.
         -2   -1    0    0    0  501 -0.00000000000E+00 -0.00000000000E+00 -0.40992165227E+01  0.40992165227E+01  0.00000000000E+00 0.  1.
         21    1    1    2  502  503  0.65981657826E+02 -0.32140948201E+02  0.11601849175E+04  0.11625040484E+04  0.00000000000E+00 0. -1.
         21    1    1    2  503  501 -0.65981657826E+02  0.32140948201E+02  0.45516061108E+03  0.46103991324E+03  0.00000000000E+00 0.  1.
</event>
<event>
 4    1  0.5452128E+002  0.2183187E+02  0.7546771E-02  0.1507711E+00
          2   -1    0    0  503    0  0.00000000000E+00  0.00000000000E+00  0.22597198316E+03  0.22597198316E+03  0.00000000000E+00 0.  1.
         -2   -1    0    0    0  501 -0.00000000000E+00 -0.00000000000E+00 -0.32286006329E+01  0.32286006329E+01  0.00000000000E+00 0. -1.
         21    1    1    2  502  501 -0.13078403589E+02  0.17481018816E+02  0.43893679876E+02  0.49023318862E+02  0.00000000000E+00 0. -1.
         21    1    1    2  503  502  0.13078403589E+02 -0.17481018816E+02  0.17884970265E+03  0.18017726493E+03  0.00000000000E+00 0.  1.
</event>
<event>
 4    1  0.5452128E+002  0.2526183E+02  0.7546771E-02  0.1465895E+00
          2   -1    0    0  502    0  0.00000000000E+00  0.00000000000E+00  0.18423722378E+04  0.18423722378E+04  0.00000000000E+00 0. -1.
         -2   -1    0    0    0  501 -0.00000000000E+00 -0.00000000000E+00 -0.47565118606E+00  0.47565118606E+00  0.00000000000E+00 0.  1.
         21    1    1    2  502  503  0.24853209478E+02  0.45252646144E+01  0.14013083061E+04  0.14015359891E+04  0.00000000000E+00 0. -1.
         21    1    1    2  503  501 -0.24853209478E+02 -0.45252646144E+01  0.44058828056E+03  0.44131189991E+03  0.00000000000E+00 0.  1.
</event>
<event>
 4    1  0.5452128E+002  0.2242909E+02  0.7546771E-02  0.1499794E+00
          2   -1    0    0  503    0  0.00000000000E+00  0.00000000000E+00  0.46774469375E+03  0.46774469375E+03  0.00000000000E+00 0. -1.
         -2   -1    0    0    0  501 -0.00000000000E+00 -0.00000000000E+00 -0.89815309807E+01  0.89815309807E+01  0.00000000000E+00 0.  1.
         21    1    1    2  502  501  0.14375145159E+02  0.17216836157E+02  0.57450056719E+01  0.23153171182E+02  0.00000000000E+00 0.  1.
         21    1    1    2  503  502 -0.14375145159E+02 -0.17216836157E+02  0.45301815710E+03  0.45357305355E+03  0.00000000000E+00 0. -1.
</event>
<event>
 4    1  0.5452128E+002  0.2739721E+02  0.7546771E-02  0.1443658E+00
          2   -1    0    0  503    0  0.00000000000E+00  0.00000000000E+00  0.75005780262E+00  0.75005780262E+00  0.00000000000E+00 0. -1.
         -2   -1    0    0    0  501 -0.00000000000E+00 -0.00000000000E+00 -0.15455860661E+04  0.15455860661E+04  0.00000000000E+00 0.  1.
         21    1    1    2  502  501  0.27063810922E+02 -0.42611471901E+01 -0.12314756221E+04  0.12317803437E+04  0.00000000000E+00 0.  1.
         21    1    1    2  503  502 -0.27063810922E+02  0.42611471901E+01 -0.31336038621E+03  0.31455578025E+03  0.00000000000E+00 0. -1.
</event>
<event>
 4    1  0.5452128E+002  0.2511207E+02  0.7546771E-02  0.1467553E+00
          2   -1    0    0  503    0  0.00000000000E+00  0.00000000000E+00  0.14947495265E+04  0.14947495265E+04  0.00000000000E+00 0. -1.
         -2   -1    0    0    0  501 -0.00000000000E+00 -0.00000000000E+00 -0.61116633568E+00  0.61116633568E+00  0.00000000000E+00 0.  1.
         21    1    1    2  502  501  0.17317156608E+02  0.18186045172E+02  0.33097918613E+03  0.33193047134E+03  0.00000000000E+00 0.  1.
         21    1    1    2  503  502 -0.17317156608E+02 -0.18186045172E+02  0.11631591740E+04  0.11634302215E+04  0.00000000000E+00 0. -1.
</event>
<event>
 4    1  0.5452128E+002  0.2939687E+02  0.7546771E-02  0.1424911E+00
          2   -1    0    0  502    0  0.00000000000E+00  0.00000000000E+00  0.49800169258E+03  0.49800169258E+03  0.00000000000E+00 0.  1.
         -2   -1    0    0    0  501 -0.00000000000E+00 -0.00000000000E+00 -0.23814035495E+01  0.23814035495E+01  0.00000000000E+00 0. -1.
         21    1    1    2  502  503  0.26958915078E+02 -0.11721476338E+02  0.37813024380E+03  0.37927121876E+03  0.00000000000E+00 0.  1.
         21    1    1    2  503  501 -0.26958915078E+02  0.11721476338E+02  0.11749004524E+03  0.12111187737E+03  0.00000000000E+00 0. -1.
</event>
<event>
 4    1  0.5452128E+002  0.3071436E+02  0.7546771E-02  0.1413488E+00
          2   -1    0    0  502    0  0.00000000000E+00  0.00000000000E+00  0.20765851186E+03  0.20765851186E+03  0.00000000000E+00 0.  1.
         -2   -1    0    0    0  501 -0.00000000000E+00 -0.00000000000E+00 -0.47707962469E+01  0.47707962469E+01  0.00000000000E+00 0. -1.
         21    1    1    2  502  503 -0.30258605853E+02  0.52714747391E+01  0.78229406974E+02  0.84042916356E+02  0.00000000000E+00 0.  1.
         21    1    1    2  503  501  0.30258605853E+02 -0.52714747391E+01  0.12465830864E+03  0.12838639175E+03  0.00000000000E+00 0. -1.
</event>
<event>
 4    1  0.5452128E+002  0.2156556E+02  0.7546771E-02  0.1511341E+00
          2   -1    0    0  503    0  0.00000000000E+00  0.00000000000E+00  0.10908509026E+04  0.10908509026E+04  0.00000000000E+00 0.  1.
         -2   -1    0    0    0  501 -0.00000000000E+00 -0.00000000000E+00 -0.17849337031E+01  0.17849337031E+01  0.00000000000E+00 0. -1.
         21    1    1    2  502  501 -0.17109372362E+02  0.13127940825E+02  0.67905384997E+02  0.71247559709E+02  0.00000000000E+00 0. -1.
         21    1    1    2  503  502  0.17109372362E+02 -0.13127940825E+02  0.10211605839E+04  0.10213882766E+04  0.00000000000E+00 0.  1.
</event>
<event>
 4    1  0.5452128E+002  0.2240150E+02  0.7546771E-02  0.1500153E+00
          2   -1    0    0  502    0  0.00000000000E+00  0.00000000000E+00  0.11284766227E+03  0.11284766227E+03  0.00000000000E+00 0. -1.
         -2   -1    0    0    0  501 -0.00000000000E+00 -0.00000000000E+00 -0.60945979908E+01  0.60945979908E+01  0.00000000000E+00 0.  1.
         21    1    1    2  502  503  0.36704459836E+00 -0.22398489095E+02  0.84298483968E+02  0.87224202116E+02  0.00000000000E+00 0. -1.
         21    1    1    2  503  501 -0.36704459836E+00  0.22398489095E+02  0.22454580308E+02  0.31718058142E+02  0.00000000000E+00 0.  1.
</event>
<event>
 4    1  0.5452128E+002  0.2733442E+02  0.7546771E-02  0.1444277E+00
          2   -1    0    0  503    0  0.00000000000E+00  0.00000000000E+00  0.93903321079E+02  0.93903321079E+02  0.00000000000E+00 0.  1.
         -2   -1    0    0    0  501 -0.00000000000E+00 -0.00000000000E+00 -0.19567085353E+02  0.19567085353E+02  0.00000000000E+00 0. -1.
         21    1    1    2  502  501 -0.27273813306E+02 -0.18192915450E+01 -0.65348407391E+01  0.28104712371E+02  0.00000000000E+00 0. -1.
         21    1    1    2  503  502  0.27273813306E+02  0.18192915450E+01  0.80871076465E+02  0.85365694062E+02  0.00000000000E+00 0.  1.
</event>
<event>
 4    1  0.5452128E+002  0.2721091E+02  0.7546771E-02  0.1445501E+00
          2   -1    0    0  502    0  0.00000000000E+00  0.00000000000E+00  0.24271445476E+03  0.24271445476E+03  0.00000000000E+00 0.  1.
         -2   -1    0    0    0  501 -0.00000000000E+00 -0.00000000000E+00 -0.57874147373E+01  0.57874147373E+01  0.00000000000E+00 0. -1.
         21    1    1    2  502  503 -0.17755749337E+02 -0.20619582607E+02  0.20390663735E+03  0.20571424495E+03  0.00000000000E+00 0.  1.
         21    1    1    2  503  501  0.17755749337E+02  0.20619582607E+02  0.33020402670E+02  0.42787624541E+02  0.00000000000E+00 0. -1.
</event>
<event>
 4    1  0.5452128E+002  0.3015342E+02  0.7546771E-02  0.1418268E+00
          2   -1    0    0  502    0  0.00000000000E+00  0.00000000000E+00  0.14136220641E+04  0.14136220641E+04  0.00000000000E+00 0. -1.
         -2   -1    0    0    0  501 -0.00000000000E+00 -0.00000000000E+00 -0.13406789653E+01  0.13406789653E+01  0.00000000000E+00 0.  1.
         21    1    1    2  502  503 -0.62961540039E+01 -0.29488760588E+02  0.12164354022E+04  0.12168090715E+04  0.00000000000E+00 0. -1.
         21    1    1    2  503  501  0.62961540039E+01  0.29488760588E+02  0.19584598294E+03  0.19815367165E+03  0.00000000000E+00 0.  1.
</event>
<event>
 4    1  0.5452128E+002  0.3335204E+02  0.7546771E-02  0.1392534E+00
          2   -1    0    0  502    0  0.00000000000E+00  0.00000000000E+00  0.20317123865E+04  0.20317123865E+04  0.00000000000E+00 0.  1.
         -2   -1    0    0    0  501 -0.00000000000E+00 -0.00000000000E+00 -0.71738587863E+00  0.71738587863E+00  0.00000000000E+00 0. -1.
         21    1    1    2  502  503 -0.28665930603E+02  0.17047668326E+02  0.15100248004E+04  0.15103930801E+04  0.00000000000E+00 0. -1.
         21    1    1    2  503  501  0.28665930603E+02 -0.17047668326E+02  0.52097020017E+03  0.52203669223E+03  0.00000000000E+00 0.  1.
</event>
<event>
 4    1  0.5452128E+002  0.2810191E+02  0.7546771E-02  0.1436843E+00
          2   -1    0    0  503    0  0.00000000000E+00  0.00000000000E+00  0.11992798937E+02  0.11992798937E+02  0.00000000000E+00 0.  1.
         -2   -1    0    0    0  501 -0.00000000000E+00 -0.00000000000E+00 -0.11935964200E+03  0.11935964200E+03  0.00000000000E+00 0. -1.
         21    1    1    2  502  501  0.27861514542E+02  0.36678569243E+01 -0.97657661857E+02  0.10162054953E+03  0.00000000000E+00 0. -1.
         21    1    1    2  503  502 -0.27861514542E+02 -0.36678569243E+01 -0.97091812038E+01  0.29731891407E+02  0.00000000000E+00 0.  1.
</event>
<event>
 4    1  0.5452128E+002  0.2420405E+02  0.7546771E-02  0.1477908E+00
          2   -1    0    0  503    0  0.00000000000E+00  0.00000000000E+00  0.59823286169E+03  0.59823286169E+03  0.00000000000E+00 0.  1.
         -2   -1    0    0    0  501 -0.00000000000E+00 -0.00000000000E+00 -0.50782665290E+02  0.50782665290E+02  0.00000000000E+00 0. -1.
         21    1    1    2  502  501  0.13000655798E+02 -0.20416147380E+02 -0.47638578734E+02  0.53434729426E+02  0.00000000000E+00 0. -1.
         21    1    1    2  503  502 -0.13000655798E+02  0.20416147380E+02  0.59508877514E+03  0.59558079756E+03  0.00000000000E+00 0.  1.
</event>
<event>
 4    1  0.5452128E+002  0.4158416E+02  0.7546771E-02  0.1339445E+00
          2   -1    0    0  502    0  0.00000000000E+00  0.00000000000E+00  0.88520916669E+03  0.88520916669E+03  0.00000000000E+00 0.  1.
         -2   -1    0    0    0  501 -0.00000000000E+00 -0.00000000000E+00 -0.14659449788E+02  0.14659449788E+02  0.00000000000E+00 0. -1.
         21    1    1    2  502  503 -0.20172927308E+02 -0.36363378090E+02  0.85415918405E+03  0.85517083321E+03  0.00000000000E+00 0.  1.
         21    1    1    2  503  501  0.20172927308E+02  0.36363378090E+02  0.16390532846E+02  0.44697783271E+02  0.00000000000E+00 0. -1.
</event>
<event>
 4    1  0.5452128E+002  0.3117631E+02  0.7546771E-02  0.1409642E+00
          2   -1    0    0  502    0  0.00000000000E+00  0.00000000000E+00  0.14767963664E+04  0.14767963664E+04  0.00000000000E+00 0. -1.
         -2   -1    0    0    0  501 -0.00000000000E+00 -0.00000000000E+00 -0.64059467565E+01  0.64059467565E+01  0.00000000000E+00 0.  1.
         21    1    1    2  502  503 -0.25711533498E+02 -0.17631765347E+02  0.14376675333E+04  0.14380055279E+04  0.00000000000E+00 0. -1.
         21    1    1    2  503  501  0.25711533498E+02  0.17631765347E+02  0.32722886406E+02  0.45196785271E+02  0.00000000000E+00 0.  1.
</event>
<event>
 4    1  0.5452128E+002  0.2349442E+02  0.7546771E-02  0.1486381E+00
          2   -1    0    0  502    0  0.00000000000E+00  0.00000000000E+00  0.64450520188E+01  0.64450520188E+01  0.00000000000E+00 0. -1.
         -2   -1    0    0    0  501 -0.00000000000E+00 -0.00000000000E+00 -0.87936547188E+02  0.87936547188E+02  0.00000000000E+00 0.  1.
         21    1    1    2  502  503 -0.85692988827E+01  0.21875901804E+02 -0.33128199060E+02  0.40613612694E+02  0.00000000000E+00 0. -1.
         21    1    1    2  503  501  0.85692988827E+01 -0.21875901804E+02 -0.48363296109E+02  0.53767986512E+02  0.00000000000E+00 0.  1.
</event>
<event>
 4    1  0.5452128E+002  0.2111951E+02  0.7546771E-02  0.1517565E+00
          2   -1    0    0  502    0  0.00000000000E+00  0.00000000000E+00  0.19895556032E+02  0.19895556032E+02  0.00000000000E+00 0. -1.
         -2   -1    0    0    0  501 -0.00000000000E+00 -0.00000000000E+00 -0.43009540764E+02  0.43009540764E+02  0.00000000000E+00 0.  1.
         21    1    1    2  502  503 -0.16424797125E+02  0.13276284388E+02  0.10205560952E+02  0.23456068769E+02  0.00000000000E+00 0. -1.
         21    1    1    2  503  501  0.16424797125E+02 -0.13276284388E+02 -0.33319545683E+02  0.39449028027E+02  0.00000000000E+00 0.  1.
</event>
<event>
 4    1  0.5452128E+002  0.3355019E+02  0.7546771E-02  0.1391053E+00
          2   -1    0    0  502    0  0.00000000000E+00  0.00000000000E+00  0.10128810790E+02  0.10128810790E+02  0.00000000000E+00 0. -1.
         -2   -1    0    0    0  501 -0.00000000000E+00 -0.00000000000E+00 -0.33963857722E+03  0.33963857722E+03  0.00000000000E+00 0.  1.
         21    1    1    2  502  503 -0.33504026932E+02 -0.17593085690E+01 -0.21307694317E+02  0.39744594908E+02  0.00000000000E+00 0. -1.
         21    1    1    2  503  501  0.33504026932E+02  0.17593085690E+01 -0.30820207211E+03  0.31002279310E+03  0.00000000000E+00 0.  1.
</event>
<event>
 4    1  0.5452128E+002  0.2236554E+02  0.7546771E-02  0.1500623E+00
          2   -1    0    0  502    0  0.00000000000E+00  0.00000000000E+00  0.23878182654E+04  0.23878182654E+04  0.00000000000E+00 0. -1.
         -2   -1    0    0    0  501 -0.00000000000E+00 -0.00000000000E+00 -0.21024784380E+00  0.21024784380E+00  0.00000000000E+00 0.  1.
         21    1    1    2  502  503 -0.21329893849E+02  0.67270317631E+01  0.11219851441E+04  0.11222080382E+04  0.00000000000E+00 0.  1.
         21    1    1    2  503  501  0.21329893849E+02 -0.67270317631E+01  0.12656228735E+04  0.12658204751E+04  0.00000000000E+00 0. -1.
</event>
<event>
 4    1  0.5452128E+002  0.3995888E+02  0.7546771E-02  0.1348727E+00
          2   -1    0    0  502    0  0.00000000000E+00  0.00000000000E+00  0.71619027937E+02  0.71619027937E+02  0.00000000000E+00 0. -1.
         -2   -1    0    0    0  501 -0.00000000000E+00 -0.00000000000E+00 -0.29066941047E+02  0.29066941047E+02  0.00000000000E+00 0.  1.
         21    1    1    2  502  503 -0.66001995241E+01 -0.39410021285E+02  0.45576308895E+02  0.60612806765E+02  0.00000000000E+00 0.  1.
         21    1    1    2  503  501  0.66001995241E+01  0.39410021285E+02 -0.30242220046E+01  0.40073162219E+02  0.00000000000E+00 0. -1.
</event>
<event>
 4    1  0.5452128E+002  0.3385254E+02  0.7546771E-02  0.1388815E+00
          2   -1    0    0  503    0  0.00000000000E+00  0.00000000000E+00  0.22840183812E+02  0.22840183812E+02  0.00000000000E+00 0. -1.
         -2   -1    0    0    0  501 -0.00000000000E+00 -0.00000000000E+00 -0.97343223124E+02  0.97343223124E+02  0.00000000000E+00 0.  1.
         21    1    1    2  502  501 -0.20181978756E+02  0.27178711417E+02 -0.79081605040E+02  0.86022641650E+02  0.00000000000E+00 0.  1.
         21    1    1    2  503  502  0.20181978756E+02 -0.27178711417E+02  0.45785657286E+01  0.34160765286E+02  0.00000000000E+00 0. -1.
</event>
<event>
 4    1  0.5452128E+002  0.3194680E+02  0.7546771E-02  0.1403400E+00
          2   -1    0    0  503    0  0.00000000000E+00  0.00000000000E+00  0.26103125330E+03  0.26103125330E+03  0.00000000000E+00 0.  1.
         -2   -1    0    0    0  501 -0.00000000000E+00 -0.00000000000E+00 -0.39112971103E+01  0.39112971103E+01  0.00000000000E+00 0. -1.
         21    1    1    2  502  501 -0.20312939619E+02 -0.24657297234E+02  0.13109188906E+03  0.13492842992E+03  0.00000000000E+00 0. -1.
         21    1    1    2  503  502  0.20312939619E+02  0.24657297234E+02  0.12602806713E+03  0.13001412049E+03  0.00000000000E+00 0.  1.
</event>
<event>
 4    1  0.5452128E+002  0.3809722E+02  0.7546771E-02  0.1360012E+00
          2   -1    0    0  502    0  0.00000000000E+00  0.00000000000E+00  0.13901143217E+04  0.13901143217E+04  0.00000000000E+00 0.  1.
         -2   -1    0    0    0  501 -0.00000000000E+00 -0.00000000000E+00 -0.13622810863E+01  0.13622810863E+01  0.00000000000E+00 0. -1.
         21    1    1    2  502  503 -0.12604062451E+02  0.35951850776E+02  0.10306240465E+04  0.10313279416E+04  0.00000000000E+00 0.  1.
         21    1    1    2  503  501  0.12604062451E+02 -0.35951850776E+02  0.35812799420E+03  0.36014866124E+03  0.00000000000E+00 0. -1.
</event>
<event>
 4    1  0.5452128E+002  0.2152778E+02  0.7546771E-02  0.1511861E+00
          2   -1    0    0  503    0  0.00000000000E+00  0.00000000000E+00  0.57191193713E+01  0.57191193713E+01  0.00000000000E+00 0. -1.
         -2   -1    0    0    0  501 -0.00000000000E+00 -0.00000000000E+00 -0.12174292583E+03  0.12174292583E+03  0.00000000000E+00 0.  1.
         21    1    1    2  502  501 -0.17890965251E+02 -0.11973249570E+02 -0.94864811573E+02  0.97276810276E+02  0.00000000000E+00 0.  1.
         21    1    1    2  503  502  0.17890965251E+02  0.11973249570E+02 -0.21158994886E+02  0.30185234924E+02  0.00000000000E+00 0. -1.
</event>
<event>
 4    1  0.5452128E+002  0.2203273E+02  0.7546771E-02  0.1505015E+00
          2   -1    0    0  503    0  0.00000000000E+00  0.00000000000E+00  0.80951515712E+01  0.80951515712E+01  0.00000000000E+00 0. -1.
         -2   -1    0    0    0  501 -0.00000000000E+00 -0.00000000000E+00 -0.11369797284E+03  0.11369797284E+03  0.00000000000E+00 0.  1.
         21    1    1    2  502  501 -0.22104208060E+01  0.21921568496E+02 -0.94664298174E+02  0.97194498168E+02  0.00000000000E+00 0.  1.
         21    1    1    2  503  502  0.22104208060E+01 -0.21921568496E+02 -0.10938523092E+02  0.24598626240E+02  0.00000000000E+00 0. -1.
</event>
<event>
 4    1  0.5452128E+002  0.2280235E+02  0.7546771E-02  0.1494995E+00
          2   -1    0    0  503    0  0.00000000000E+00  0.00000000000E+00  0.34472443769E+02  0.34472443769E+02  0.00000000000E+00 0.  1.
         -2   -1    0    0    0  501 -0.00000000000E+00 -0.00000000000E+00 -0.21912004590E+02  0.21912004590E+02  0.00000000000E+00 0. -1.
         21    1    1    2  502  501 -0.21397847057E+01  0.22701725410E+02 -0.94584412010E+01  0.24686213261E+02  0.00000000000E+00 0. -1.
         21    1    1    2  503  502  0.21397847057E+01 -0.22701725410E+02  0.22018880380E+02  0.31698235099E+02  0.00000000000E+00 0.  1.
</event>
<event>
 4    1  0.5452128E+002  0.2639590E+02  0.7546771E-02  0.1453773E+00
          2   -1    0    0  503    0  0.00000000000E+00  0.00000000000E+00  0.17139756477E+04  0.17139756477E+04  0.00000000000E+00 0. -1.
         -2   -1    0    0    0  501 -0.00000000000E+00 -0.00000000000E+00 -0.15644238814E+01  0.15644238814E+01  0.00000000000E+00 0.  1.
         21    1    1    2  502  501  0.47487371296E+01  0.25965230410E+02  0.11824653285E+03  0.12115686619E+03  0.00000000000E+00 0.  1.
         21    1    1    2  503  502 -0.47487371296E+01 -0.25965230410E+02  0.15941646910E+04  0.15943832054E+04  0.00000000000E+00 0. -1.
</event>
<event>
 4    1  0.5452128E+002  0.2107582E+02  0.7546771E-02  0.1518185E+00
          2   -1    0    0  502    0  0.00000000000E+00  0.00000000000E+00  0.22546348405E+02  0.22546348405E+02  0.00000000000E+00 0. -1.
         -2   -1    0    0    0  501 -0.00000000000E+00 -0.00000000000E+00 -0.29919376545E+02  0.29919376545E+02  0.00000000000E+00 0.  1.
         21    1    1    2  502  503  0.11183112905E+02 -0.17864157413E+02  0.11643978162E+02  0.24078462612E+02  0.00000000000E+00 0. -1.
         21    1    1    2  503  501 -0.11183112905E+02  0.17864157413E+02 -0.19017006303E+02  0.28387262338E+02  0.00000000000E+00 0.  1.
</event>
<event>
 4    1  0.5452128E+002  0.2374289E+02  0.7546771E-02  0.1483375E+00
          2   -1    0    0  502    0  0.00000000000E+00  0.00000000000E+00  0.26550042547E+03  0.26550042547E+03  0.00000000000E+00 0.  1.
         -2   -1    0    0    0  501 -0.00000000000E+00 -0.00000000000E+00 -0.23850255400E+01  0.23850255400E+01  0.00000000000E+00 0. -1.
         21    1    1    2  502  503 -0.23620724338E+02 -0.24054051548E+01  0.17593231559E+03  0.17752719302E+03  0.00000000000E+00 0.  1.
         21    1    1    2  503  501  0.23620724338E+02  0.24054051548E+01  0.87183084337E+02  0.90358257989E+02  0.00000000000E+00 0. -1.
</event>
<event>
 4    1  0.5452128E+002  0.2156513E+02  0.7546771E-02  0.1511347E+00
          2   -1    0    0  502    0  0.00000000000E+00  0.00000000000E+00  0.24186810504E+04  0.24186810504E+04  0.00000000000E+00 0.  1.
         -2   -1    0    0    0  501 -0.00000000000E+00 -0.00000000000E+00 -0.19988875102E+00  0.19988875102E+00  0.00000000000E+00 0. -1.
         21    1    1    2  502  503  0.69687681195E+01  0.20408110463E+02  0.14452648179E+04  0.14454256980E+04  0.00000000000E+00 0.  1.
         21    1    1    2  503  501 -0.69687681195E+01 -0.20408110463E+02  0.97321634377E+03  0.97345524113E+03  0.00000000000E+00 0. -1.
</event>
<event>
 4    1  0.5452128E+002  0.2200922E+02  0.7546771E-02  0.1505329E+00
          2   -1    0    0  502    0  0.00000000000E+00  0.00000000000E+00  0.48603569371E+03  0.48603569371E+03  0.00000000000E+00 0. -1.
         -2   -1    0    0    0  501 -0.00000000000E+00 -0.00000000000E+00 -0.10082710202E+01  0.10082710202E+01  0.00000000000E+00 0.  1.
         21    1    1    2  502  503  0.18604551697E+02  0.11759093736E+02  0.26866195772E+03  0.26956196534E+03  0.00000000000E+00 0.  1.
         21    1    1    2  503  501 -0.18604551697E+02 -0.11759093736E+02  0.21636546496E+03  0.21748199939E+03  0.00000000000E+00 0. -1.
</event>
<event>
 4    1  0.5452128E+002  0.4374769E+02  0.7546771E-02  0.1327821E+00
          2   -1    0    0  503    0  0.00000000000E+00  0.00000000000E+00  0.36431551236E+03  0.36431551236E+03  0.00000000000E+00 0.  1.
         -2   -1    0    0    0  501 -0.00000000000E+00 -0.00000000000E+00 -0.15684632926E+02  0.15684632926E+02  0.00000000000E+00 0. -1.
         21    1    1    2  502  501  0.42540547272E+02  0.10205985747E+02  0.19367288858E+02  0.47842995151E+02  0.00000000000E+00 0. -1.
         21    1    1    2  503  502 -0.42540547272E+02 -0.10205985747E+02  0.32926359057E+03  0.33215715013E+03  0.00000000000E+00 0.  1.
</event>
<event>
 4    1  0.5452128E+002  0.2778120E+02  0.7546771E-02  0.1439915E+00
          2   -1    0    0  502    0  0.00000000000E+00  0.00000000000E+00  0.24338436868E+03  0.24338436868E+03  0.00000000000E+00 0.  1.
         -2   -1    0    0    0  501 -0.00000000000E+00 -0.00000000000E+00 -0.31877068298E+01  0.31877068298E+01  0.00000000000E+00 0. -1.
         21    1    1    2  502  503 -0.26234459563E+02 -0.91404595213E+01  0.11119837099E+03  0.11461619684E+03  0.00000000000E+00 0.  1.
         21    1    1    2  503  501  0.26234459563E+02  0.91404595213E+01  0.12899829086E+03  0.13195587866E+03  0.00000000000E+00 0. -1.
</event>
<event>
 4    1  0.5452128E+002  0.2060632E+02  0.7546771E-02  0.1524961E+00
          2   -1    0    0  503    0  0.00000000000E+00  0.00000000000E+00  0.16045618801E+03  0.16045618801E+03  0.00000000000E+00 0. -1.
         -2   -1    0    0    0  501 -0.00000000000E+00 -0.00000000000E+00 -0.27614610496E+01  0.27614610496E+01  0.00000000000E+00 0.  1.
         21    1    1    2  502  501 -0.15945030648E+02  0.13052824708E+02  0.62184048228E+02  0.65509358792E+02  0.00000000000E+00 0.  1.
         21    1    1    2  503  502  0.15945030648E+02 -0.13052824708E+02  0.95510678733E+02  0.97708290269E+02  0.00000000000E+00 0. -1.
</event>
<event>
 4    1  0.5452128E+002  0.2041007E+02  0.7546771E-02  0.1527857E+00
          2   -1    0    0  503    0  0.00000000000E+00  0.00000000000E+00  0.34720744898E+02  0.34720744898E+02  0.00000000000E+00 0. -1.
         -2   -1    0    0    0  501 -0.00000000000E+00 -0.00000000000E+00 -0.16066055778E+02  0.16066055778E+02  0.00000000000E+00 0.  1.
         21    1    1    2  502  501  0.13345451225E+02 -0.15442464848E+02  0.22105644011E+02  0.30087045154E+02  0.00000000000E+00 0. -1.
         21    1    1    2  503  502 -0.13345451225E+02  0.15442464848E+02 -0.34509548908E+01  0.20699755521E+02  0.00000000000E+00 0.  1.
</event>
<event>
 4    1  0.5452128E+002  0.3577470E+02  0.7546771E-02  0.1375197E+00
          2   -1    0    0  503    0  0.00000000000E+00  0.00000000000E+00  0.68807825811E+02  0.68807825811E+02  0.00000000000E+00 0. -1.
         -2   -1    0    0    0  501 -0.00000000000E+00 -0.00000000000E+00 -0.12947283457E+03  0.12947283457E+03  0.00000000000E+00 0.  1.
         21    1    1    2  502  501 -0.15139672555E+02  0.32413256189E+02 -0.12207562624E+03  0.12720961986E+03  0.00000000000E+00 0.  1.
         21    1    1    2  503  502  0.15139672555E+02 -0.32413256189E+02  0.61410617482E+02  0.71071040526E+02  0.00000000000E+00 0. -1.
</event>
<event>
 4    1  0.5452128E+002  0.3266418E+02  0.7546771E-02  0.1397773E+00
          2   -1    0    0  502    0  0.00000000000E+00  0.00000000000E+00  0.12960381095E+03  0.12960381095E+03  0.00000000000E+00 0. -1.
         -2   -1    0    0    0  501 -0.00000000000E+00 -0.00000000000E+00 -0.12543770173E+02  0.12543770173E+02  0.00000000000E+00 0.  1.
         21    1    1    2  502  503  0.21139913557E+01 -0.32595699079E+02  0.10019813130E+03  0.10538792186E+03  0.00000000000E+00 0. -1.
         21    1    1    2  503  501 -0.21139913557E+01  0.32595699079E+02  0.16861909473E+02  0.36759659261E+02  0.00000000000E+00 0.  1.
</event>
<event>
 4    1  0.5452128E+002  0.3268321E+02  0.7546771E-02  0.1397626E+00
          2   -1    0    0  502    0  0.00000000000E+00  0.00000000000E+00  0.38335281839E+03  0.38335281839E+03  0.00000000000E+00 0.  1.
         -2   -1    0    0    0  501 -0.00000000000E+00 -0.00000000000E+00 -0.12678697710E+02  0.12678697710E+02  0.00000000000E+00 0. -1.
         21    1    1    2  502  503 -0.14368047385E+02  0.29355607171E+02  0.36024518280E+03  0.36172473538E+03  0.00000000000E+00 0.  1.
         21    1    1    2  503  501  0.14368047385E+02 -0.29355607171E+02  0.10428937884E+02  0.34306780721E+02  0.00000000000E+00 0. -1.
</event>
<event>
 4    1  0.5452128E+002  0.2077671E+02  0.7546771E-02  0.1522477E+00
          2   -1    0    0  502    0  0.00000000000E+00  0.00000000000E+00  0.20501011383E+02  0.20501011383E+02  0.00000000000E+00 0. -1.
         -2   -1    0    0    0  501 -0.00000000000E+00 -0.00000000000E+00 -0.50618416137E+02  0.50618416137E+02  0.00000000000E+00 0.  1.
         21    1    1    2  502  503 -0.76228660895E+00 -0.20762716539E+02  0.12116523419E+02  0.24051644823E+02  0.00000000000E+00 0. -1.
         21    1    1    2  503  501  0.76228660895E+00  0.20762716539E+02 -0.42233928173E+02  0.47067782696E+02  0.00000000000E+00 0.  1.
</event>
<event>
 4    1  0.5452128E+002  0.2725190E+02  0.7546771E-02  0.1445094E+00
          2   -1    0    0  503    0  0.00000000000E+00  0.00000000000E+00  0.30605429653E+03  0.30605429653E+03  0.00000000000E+00 0.  1.
         -2   -1    0    0    0  501 -0.00000000000E+00 -0.00000000000E+00 -0.24319214611E+01  0.24319214611E+01  0.00000000000E+00 0. -1.
         21    1    1    2  502  501  0.39950155901E+01 -0.26957486305E+02  0.14458464641E+03  0.14713050736E+03  0.00000000000E+00 0.  1.
         21    1    1    2  503  502 -0.39950155901E+01  0.26957486305E+02  0.15903772866E+03  0.16135571063E+03  0.00000000000E+00 0. -1.
</event>
<event>
 4    1  0.5452128E+002  0.2240935E+02  0.7546771E-02  0.1500051E+00
          2   -1    0    0  502    0  0.00000000000E+00  0.00000000000E+00  0.45301737870E+03  0.45301737870E+03  0.00000000000E+00 0.  1.
         -2   -1    0    0    0  501 -0.00000000000E+00 -0.00000000000E+00 -0.26776175397E+01  0.26776175397E+01  0.00000000000E+00 0. -1.
         21    1    1    2  502  503 -0.14149686090E+02 -0.17377145261E+02  0.39958935448E+03  0.40021722977E+03  0.00000000000E+00 0.  1.
         21    1    1    2  503  501  0.14149686090E+02  0.17377145261E+02  0.50750406682E+02  0.55477766467E+02  0.00000000000E+00 0. -1.
</event>
<event>
 4    1  0.5452128E+002  0.2257362E+02  0.7546771E-02  0.1497923E+00
          2   -1    0    0  503    0  0.00000000000E+00  0.00000000000E+00  0.32851632464E+03  0.32851632464E+03  0.00000000000E+00 0. -1.
         -2   -1    0    0    0  501 -0.00000000000E+00 -0.00000000000E+00 -0.13429633820E+03  0.13429633820E+03  0.00000000000E+00 0.  1.
         21    1    1    2  502  501  0.21436479399E+02  0.70743003892E+01 -0.13295608741E+03  0.13485877633E+03  0.00000000000E+00 0.  1.
         21    1    1    2  503  502 -0.21436479399E+02 -0.70743003892E+01  0.32717607385E+03  0.32795388650E+03  0.00000000000E+00 0. -1.
</event>
<event>
 4    1  0.5452128E+002  0.2366903E+02  0.7546771E-02  0.1484264E+00
          2   -1    0    0  503    0  0.00000000000E+00  0.00000000000E+00  0.13814150622E+04  0.13814150622E+04  0.00000000000E+00 0.  1.
         -2   -1    0    0    0  501 -0.00000000000E+00 -0.00000000000E+00 -0.55039871897E+00  0.55039871897E+00  0.00000000000E+00 0. -1.
         21    1    1    2  502  501 -0.48863947217E+01  0.23159143334E+02  0.33594821440E+03  0.33678097560E+03  0.00000000000E+00 0. -1.
         21    1    1    2  503  502  0.48863947217E+01 -0.23159143334E+02  0.10449164491E+04  0.10451844853E+04  0.00000000000E+00 0.  1.
</event>
<event>
 4    1  0.5452128E+002  0.2099815E+02  0.7546771E-02  0.1519291E+00
          2   -1    0    0  503    0  0.00000000000E+00  0.00000000000E+00  0.14999328679E+03  0.14999328679E+03  0.00000000000E+00 0. -1.
         -2   -1    0    0    0  501 -0.00000000000E+00 -0.00000000000E+00 -0.30264150962E+01  0.30264150962E+01  0.00000000000E+00 0.  1.
         21    1    1    2  502  501 -0.20855970766E+02  0.24394472511E+01  0.86440744887E+02  0.88954622118E+02  0.00000000000E+00 0.  1.
         21    1    1    2  503  502  0.20855970766E+02 -0.24394472511E+01  0.60526126805E+02  0.64065079767E+02  0.00000000000E+00 0. -1.
</event>
<event>
 4    1  0.5452128E+002  0.2315810E+02  0.7546771E-02  0.1490522E+00
          2   -1    0    0  502    0  0.00000000000E+00  0.00000000000E+00  0.40667393760E+03  0.40667393760E+03  0.00000000000E+00 0.  1.
         -2   -1    0    0    0  501 -0.00000000000E+00 -0.00000000000E+00 -0.13299474480E+01  0.13299474480E+01  0.00000000000E+00 0. -1.
         21    1    1    2  502  503 -0.22928566234E+02  0.32524201803E+01  0.18394530644E+03  0.18539733857E+03  0.00000000000E+00 0. -1.
         21    1    1    2  503  501  0.22928566234E+02 -0.32524201803E+01  0.22139868371E+03  0.22260654648E+03  0.00000000000E+00 0.  1.
</event>
<event>
 4    1  0.5452128E+002  0.2109045E+02  0.7546771E-02  0.1517977E+00
          2   -1    0    0  502    0  0.00000000000E+00  0.00000000000E+00  0.10587191922E+04  0.10587191922E+04  0.00000000000E+00 0.  1.
         -2   -1    0    0    0  501 -0.00000000000E+00 -0.00000000000E+00 -0.51335142742E+00  0.51335142742E+00  0.00000000000E+00 0. -1.
         21    1    1    2  502  503 -0.18713416623E+02  0.97270387717E+01  0.75478402229E+03  0.75507862342E+03  0.00000000000E+00 0.  1.
         21    1    1    2  503  501  0.18713416623E+02 -0.97270387717E+01  0.30342181852E+03  0.30415392024E+03  0.00000000000E+00 0. -1.
</event>
<event>
 4    1  0.5452128E+002  0.2552363E+02  0.7546771E-02  0.1463030E+00
          2   -1    0    0  503    0  0.00000000000E+00  0.00000000000E+00  0.24119413168E+01  0.24119413168E+01  0.00000000000E+00 0.  1.
         -2   -1    0    0    0  501 -0.00000000000E+00 -0.00000000000E+00 -0.47323375330E+03  0.47323375330E+03  0.00000000000E+00 0. -1.
         21    1    1    2  502  501 -0.20985437282E+02  0.14528153153E+02 -0.39122652577E+03  0.39205822307E+03  0.00000000000E+00 0. -1.
         21    1    1    2  503  502  0.20985437282E+02 -0.14528153153E+02 -0.79595286210E+02  0.83587471542E+02  0.00000000000E+00 0.  1.
</event>
<event>
 4    1  0.5452128E+002  0.2086053E+02  0.7546771E-02  0.1521265E+00
          2   -1    0    0  503    0  0.00000000000E+00  0.00000000000E+00  0.24640717271E+02  0.24640717271E+02  0.00000000000E+00 0.  1.
         -2   -1    0    0    0  501 -0.00000000000E+00 -0.00000000000E+00 -0.35075643757E+02  0.35075643757E+02  0.00000000000E+00 0. -1.
         21    1    1    2  502  501 -0.10088111465E+02  0.18259016749E+02  0.15821625777E+02  0.26181778545E+02  0.00000000000E+00 0.  1.
         21    1    1    2  503  502  0.10088111465E+02 -0.18259016749E+02 -0.26256552263E+02  0.33534582483E+02  0.00000000000E+00 0. -1.
</event>
<event>
 4    1  0.5452128E+002  0.2122624E+02  0.7546771E-02  0.1516059E+00
          2   -1    0    0  502    0  0.00000000000E+00  0.00000000000E+00  0.41307711665E+02  0.41307711665E+02  0.00000000000E+00 0.  1.
         -2   -1    0    0    0  501 -0.00000000000E+00 -0.00000000000E+00 -0.11690146466E+02  0.11690146466E+02  0.00000000000E+00 0. -1.
         21    1    1    2  502  503 -0.21141895569E+02 -0.18903369136E+01  0.21666400879E+02  0.30331271799E+02  0.00000000000E+00 0. -1.
         21    1    1    2  503  501  0.21141895569E+02  0.18903369136E+01  0.79511643199E+01  0.22666586332E+02  0.00000000000E+00 0.  1.
</event>
<event>
 4    1  0.5452128E+002  0.3010756E+02  0.7546771E-02  0.1418664E+00
          2   -1    0    0  503    0  0.00000000000E+00  0.00000000000E+00  0.25866053996E+04  0.25866053996E+04  0.00000000000E+00 0. -1.
         -2   -1    0    0    0  501 -0.00000000000E+00 -0.00000000000E+00 -0.38895486426E+00  0.38895486426E+00  0.00000000000E+00 0.  1.
         21    1    1    2  502  501  0.11723287400E+02  0.27731383213E+02  0.88610562399E+03  0.88661696462E+03  0.00000000000E+00 0. -1.
         21    1    1    2  503  502 -0.11723287400E+02 -0.27731383213E+02  0.17001108208E+04  0.17003773899E+04  0.00000000000E+00 0.  1.
</event>
<event>
 4    1  0.5452128E+002  0.2012019E+02  0.7546771E-02  0.1532206E+00
          2   -1    0    0  503    0  0.00000000000E+00  0.00000000000E+00  0.62714765392E+03  0.62714765392E+03  0.00000000000E+00 0.  1.
         -2   -1    0    0    0  501 -0.00000000000E+00 -0.00000000000E+00 -0.15435411528E+01  0.15435411528E+01  0.00000000000E+00 0. -1.
         21    1    1    2  502  501  0.14382697647E+02  0.14069821626E+02  0.73030786907E+02  0.75751684526E+02  0.00000000000E+00 0. -1.
         21    1    1    2  503  502 -0.14382697647E+02 -0.14069821626E+02  0.55257332586E+03  0.55293951055E+03  0.00000000000E+00 0.  1.
</event>
<event>
 4    1  0.5452128E+002  0.7542767E+02  0.7546771E-02  0.1214880E+00
          2   -1    0    0  502    0  0.00000000000E+00  0.00000000000E+00  0.53721236593E+03  0.53721236593E+03  0.00000000000E+00 0. -1.
         -2   -1    0    0    0  501 -0.00000000000E+00 -0.00000000000E+00 -0.15750494275E+02  0.15750494275E+02  0.00000000000E+00 0.  1.
         21    1    1    2  502  503  0.51556181358E+02 -0.55057178336E+02  0.41898127369E+03  0.42571661986E+03  0.00000000000E+00 0. -1.
         21    1    1    2  503  501 -0.51556181358E+02  0.55057178336E+02  0.10248059797E+03  0.12724624034E+03  0.00000000000E+00 0.  1.
</event>
<event>
 4    1  0.5452128E+002  0.3688509E+02  0.7546771E-02  0.1367774E+00
          2   -1    0    0  502    0  0.00000000000E+00  0.00000000000E+00  0.19407262050E+03  0.19407262050E+03  0.00000000000E+00 0.  1.
         -2   -1    0    0    0  501 -0.00000000000E+00 -0.00000000000E+00 -0.18720017581E+02  0.18720017581E+02  0.00000000000E+00 0. -1.
         21    1    1    2  502  503  0.22762871455E+02 -0.29023469915E+02  0.17182480881E+03  0.17573922455E+03  0.00000000000E+00 0.  1.
         21    1    1    2  503  501 -0.22762871455E+02  0.29023469915E+02  0.35277941039E+01  0.37053413527E+02  0.00000000000E+00 0. -1.
</event>
<event>
 4    1  0.5452128E+002  0.5047307E+02  0.7546771E-02  0.1296134E+00
          2   -1    0    0  503    0  0.00000000000E+00  0.00000000000E+00  0.77027072749E+03  0.77027072749E+03  0.00000000000E+00 0. -1.
         -2   -1    0    0    0  501 -0.00000000000E+00 -0.00000000000E+00 -0.38073338490E+01  0.38073338490E+01  0.00000000000E+00 0.  1.
         21    1    1    2  502  501 -0.38280581239E+02  0.32895706233E+02  0.24297096973E+03  0.24815805956E+03  0.00000000000E+00 0.  1.
         21    1    1    2  503  502  0.38280581239E+02 -0.32895706233E+02  0.52349242391E+03  0.52592000179E+03  0.00000000000E+00 0. -1.
</event>
<event>
 4    1  0.5452128E+002  0.2890125E+02  0.7546771E-02  0.1429391E+00
          2   -1    0    0  502    0  0.00000000000E+00  0.00000000000E+00  0.38432006276E+03  0.38432006276E+03  0.00000000000E+00 0. -1.
         -2   -1    0    0    0  501 -0.00000000000E+00 -0.00000000000E+00 -0.37125433982E+01  0.37125433982E+01  0.00000000000E+00 0.  1.
         21    1    1    2  502  503 -0.27959803848E+02 -0.73165316199E+01  0.31522653237E+03  0.31654865183E+03  0.00000000000E+00 0. -1.
         21    1    1    2  503  501  0.27959803848E+02  0.73165316199E+01  0.65380986990E+02  0.71483954325E+02  0.00000000000E+00 0.  1.
</event>
<event>
 4    1  0.5452128E+002  0.2720198E+02  0.7546771E-02  0.1445590E+00
          2   -1    0    0  502    0  0.00000000000E+00  0.00000000000E+00  0.65667900535E+03  0.65667900535E+03  0.00000000000E+00 0. -1.
         -2   -1    0    0    0  501 -0.00000000000E+00 -0.00000000000E+00 -0.11566663356E+01  0.11566663356E+01  0.00000000000E+00 0.  1.
         21    1    1    2  502  503 -0.26927191925E+02 -0.38567105849E+01  0.38061207620E+03  0.38158288802E+03  0.00000000000E+00 0.  1.
         21    1    1    2  503  501  0.26927191925E+02  0.38567105849E+01  0.27491026281E+03  0.27625278366E+03  0.00000000000E+00 0. -1.
</event>
<event>
 4    1  0.5452128E+002  0.2194209E+02  0.7546771E-02  0.1506227E+00
          2   -1    0    0  503    0  0.00000000000E+00  0.00000000000E+00  0.35391216140E+02  0.35391216140E+02  0.00000000000E+00 0. -1.
         -2   -1    0    0    0  501 -0.00000000000E+00 -0.00000000000E+00 -0.40948016696E+02  0.40948016696E+02  0.00000000000E+00 0.  1.
         21    1    1    2  502  501 -0.10257706461E+02  0.19396774832E+02 -0.33969739065E+02  0.40440061669E+02  0.00000000000E+00 0.  1.
         21    1    1    2  503  502  0.10257706461E+02 -0.19396774832E+02  0.28412938509E+02  0.35899171167E+02  0.00000000000E+00 0. -1.
</event>
<event>
 4    1  0.5452128E+002  0.4199687E+02  0.7546771E-02  0.1337165E+00
          2   -1    0    0  503    0  0.00000000000E+00  0.00000000000E+00  0.21284675105E+02  0.21284675105E+02  0.00000000000E+00 0. -1.
         -2   -1    0    0    0  501 -0.00000000000E+00 -0.00000000000E+00 -0.98637833692E+02  0.98637833692E+02  0.00000000000E+00 0.  1.
         21    1    1    2  502  501  0.26676876976E+02 -0.32435803540E+02 -0.62654698721E+02  0.75427769345E+02  0.00000000000E+00 0.  1.
         21    1    1    2  503  502 -0.26676876976E+02  0.32435803540E+02 -0.14698459866E+02  0.44494739452E+02  0.00000000000E+00 0. -1.
</event>
<event>
 4    1  0.5452128E+002  0.2415492E+02  0.7546771E-02  0.1478484E+00
          2   -1    0    0  503    0  0.00000000000E+00  0.00000000000E+00  0.28667610010E+03  0.28667610010E+03  0.00000000000E+00 0.  1.
         -2   -1    0    0    0  501 -0.00000000000E+00 -0.00000000000E+00 -0.29004239155E+02  0.29004239155E+02  0.00000000000E+00 0. -1.
         21    1    1    2  502  501 -0.12209132307E+02 -0.20842198075E+02 -0.23365614726E+02  0.33606726764E+02  0.00000000000E+00 0. -1.
         21    1    1    2  503  502  0.12209132307E+02  0.20842198075E+02  0.28103747567E+03  0.28207361249E+03  0.00000000000E+00 0.  1.
</event>
<event>
 4    1  0.5452128E+002  0.2169792E+02  0.7546771E-02  0.1509529E+00
          2   -1    0    0  502    0  0.00000000000E+00  0.00000000000E+00  0.63843705118E+03  0.63843705118E+03  0.00000000000E+00 0.  1.
         -2   -1    0    0    0  501 -0.00000000000E+00 -0.00000000000E+00 -0.11155199718E+01  0.11155199718E+01  0.00000000000E+00 0. -1.
         21    1    1    2  502  503  0.20608526900E+02  0.67888281904E+01  0.13249153005E+03  0.13425648999E+03  0.00000000000E+00 0. -1.
         21    1    1    2  503  501 -0.20608526900E+02 -0.67888281904E+01  0.50483000116E+03  0.50529608116E+03  0.00000000000E+00 0.  1.
</event>
<event>
 4    1  0.5452128E+002  0.2742375E+02  0.7546771E-02  0.1443397E+00
          2   -1    0    0  502    0  0.00000000000E+00  0.00000000000E+00  0.14094648091E+01  0.14094648091E+01  0.00000000000E+00 0.  1.
         -2   -1    0    0    0  501 -0.00000000000E+00 -0.00000000000E+00 -0.59948306824E+03  0.59948306824E+03  0.00000000000E+00 0. -1.
         21    1    1    2  502  503 -0.25055049528E+02  0.11149294353E+02 -0.19942034780E+03  0.20129713706E+03  0.00000000000E+00 0.  1.
         21    1    1    2  503  501  0.25055049528E+02 -0.11149294353E+02 -0.39865325563E+03  0.39959539599E+03  0.00000000000E+00 0. -1.
</event>
<event>
 4    1  0.5452128E+002  0.2881084E+02  0.7546771E-02  0.1430219E+00
          2   -1    0    0  503    0  0.00000000000E+00  0.00000000000E+00  0.52362638195E+03  0.52362638195E+03  0.00000000000E+00 0. -1.
         -2   -1    0    0    0  501 -0.00000000000E+00 -0.00000000000E+00 -0.39148283876E+01  0.39148283876E+01  0.00000000000E+00 0.  1.
         21    1    1    2  502  501  0.26675420935E+02 -0.10885147989E+02  0.56380699475E+02  0.63315462583E+02  0.00000000000E+00 0.  1.
         21    1    1    2  503  502 -0.26675420935E+02  0.10885147989E+02  0.46333085408E+03  0.46422574775E+03  0.00000000000E+00 0. -1.
</event>
<event>
 4    1  0.5452128E+002  0.2030695E+02  0.7546771E-02  0.1529394E+00
          2   -1    0    0  502    0  0.00000000000E+00  0.00000000000E+00  0.44467929161E+03  0.44467929161E+03  0.00000000000E+00 0.  1.
         -2   -1    0    0    0  501 -0.00000000000E+00 -0.00000000000E+00 -0.92856803511E+00  0.92856803511E+00  0.00000000000E+00 0. -1.
         21    1    1    2  502  503 -0.20250545789E+02 -0.15124644609E+01  0.21379703376E+03  0.21475926941E+03  0.00000000000E+00 0. -1.
         21    1    1    2  503  501  0.20250545789E+02  0.15124644609E+01  0.22995368982E+03  0.23084859024E+03  0.00000000000E+00 0.  1.
</event>
<event>
 4    1  0.5452128E+002  0.2049299E+02  0.7546771E-02  0.1526628E+00
          2   -1    0    0  503    0  0.00000000000E+00  0.00000000000E+00  0.75417765094E+03  0.75417765094E+03  0.00000000000E+00 0. -1.
         -2   -1    0    0    0  501 -0.00000000000E+00 -0.00000000000E+00 -0.59827519727E+00  0.59827519727E+00  0.00000000000E+00 0.  1.
         21    1    1    2  502  501 -0.79494078425E+01  0.18888340924E+02  0.27748288711E+03  0.27823859392E+03  0.00000000000E+00 0. -1.
         21    1    1    2  503  502  0.79494078425E+01 -0.18888340924E+02  0.47609648863E+03  0.47653733222E+03  0.00000000000E+00 0.  1.
</event>
<event>
 4    1  0.5452128E+002  0.2185975E+02  0.7546771E-02  0.1507335E+00
          2   -1    0    0  503    0  0.00000000000E+00  0.00000000000E+00  0.15207114723E+03  0.15207114723E+03  0.00000000000E+00 0.  1.
         -2   -1    0    0    0  501 -0.00000000000E+00 -0.00000000000E+00 -0.32947020815E+01  0.32947020815E+01  0.00000000000E+00 0. -1.
         21    1    1    2  502  501 -0.79465950007E+01  0.20364194239E+02  0.57679084772E+02  0.61682457792E+02  0.00000000000E+00 0. -1.
         21    1    1    2  503  502  0.79465950007E+01 -0.20364194239E+02  0.91097360381E+02  0.93683391524E+02  0.00000000000E+00 0.  1.
</event>
<event>
 4    1  0.5452128E+002  0.2340785E+02  0.7546771E-02  0.1487439E+00
          2   -1    0    0  502    0  0.00000000000E+00  0.00000000000E+00  0.14686161870E+02  0.14686161870E+02  0.00000000000E+00 0. -1.
         -2   -1    0    0    0  501 -0.00000000000E+00 -0.00000000000E+00 -0.47226617161E+02  0.47226617161E+02  0.00000000000E+00 0.  1.
         21    1    1    2  502  503 -0.12508547156E+02  0.19785442962E+02 -0.30456174518E+02  0.38412316663E+02  0.00000000000E+00 0.  1.
         21    1    1    2  503  501  0.12508547156E+02 -0.19785442962E+02 -0.20842807726E+01  0.23500462368E+02  0.00000000000E+00 0. -1.
</event>
<event>
 4    1  0.5452128E+002  0.2038622E+02  0.7546771E-02  0.1528211E+00
          2   -1    0    0  502    0  0.00000000000E+00  0.00000000000E+00  0.99010805847E+03  0.99010805847E+03  0.00000000000E+00 0. -1.
         -2   -1    0    0    0  501 -0.00000000000E+00 -0.00000000000E+00 -0.43455577046E+00  0.43455577046E+00  0.00000000000E+00 0.  1.
         21    1    1    2  502  503  0.10457925583E+02 -0.17499425790E+02  0.58625484636E+03  0.58660919103E+03  0.00000000000E+00 0. -1.
         21    1    1    2  503  501 -0.10457925583E+02  0.17499425790E+02  0.40341865633E+03  0.40393342321E+03  0.00000000000E+00 0.  1.
</event>
<event>
 4    1  0.5452128E+002  0.1851755E+03  0.7546771E-02  0.1066176E+00
          2   -1    0    0  502    0  0.00000000000E+00  0.00000000000E+00  0.33667266683E+03  0.33667266683E+03  0.00000000000E+00 0. -1.
         -2   -1    0    0    0  501 -0.00000000000E+00 -0.00000000000E+00 -0.14018216267E+03  0.14018216267E+03  0.00000000000E+00 0.  1.
         21    1    1    2  502  503  0.88991828502E+02 -0.16238967397E+03  0.22292449445E+03  0.28980214281E+03  0.00000000000E+00 0. -1.
         21    1    1    2  503  501 -0.88991828502E+02  0.16238967397E+03 -0.26433990288E+02  0.18705268668E+03  0.00000000000E+00 0.  1.
</event>
<event>
 4    1  0.5452128E+002  0.2047370E+02  0.7546771E-02  0.1526913E+00
          2   -1    0    0  502    0  0.00000000000E+00  0.00000000000E+00  0.27748627493E+03  0.27748627493E+03  0.00000000000E+00 0. -1.
         -2   -1    0    0    0  501 -0.00000000000E+00 -0.00000000000E+00 -0.15160045145E+01  0.15160045145E+01  0.00000000000E+00 0.  1.
         21    1    1    2  502  503  0.18200853487E+02 -0.93755776787E+01  0.12966076824E+03  0.13126723637E+03  0.00000000000E+00 0. -1.
         21    1    1    2  503  501 -0.18200853487E+02  0.93755776787E+01  0.14630950217E+03  0.14773504307E+03  0.00000000000E+00 0.  1.
</event>
<event>
 4    1  0.5452128E+002  0.2546879E+02  0.7546771E-02  0.1463627E+00
          2   -1    0    0  502    0  0.00000000000E+00  0.00000000000E+00  0.29297622759E+03  0.29297622759E+03  0.00000000000E+00 0. -1.
         -2   -1    0    0    0  501 -0.00000000000E+00 -0.00000000000E+00 -0.23117822032E+01  0.23117822032E+01  0.00000000000E+00 0.  1.
         21    1    1    2  502  503 -0.18137436168E+02 -0.17879947409E+02  0.17569198806E+03  0.17752840274E+03  0.00000000000E+00 0. -1.
         21    1    1    2  503  501  0.18137436168E+02  0.17879947409E+02  0.11497245733E+03  0.11775960705E+03  0.00000000000E+00 0.  1.
</event>
<event>
 4    1  0.5452128E+002  0.3407994E+02  0.7546771E-02  0.1387149E+00
          2   -1    0    0  503    0  0.00000000000E+00  0.00000000000E+00  0.69087690849E+01  0.69087690849E+01  0.00000000000E+00 0.  1.
         -2   -1    0    0    0  501 -0.00000000000E+00 -0.00000000000E+00 -0.21995697561E+03  0.21995697561E+03  0.00000000000E+00 0. -1.
         21    1    1    2  502  501  0.31031863664E+02  0.14087791727E+02 -0.16159550813E+03  0.16515008533E+03  0.00000000000E+00 0. -1.
         21    1    1    2  503  502 -0.31031863664E+02 -0.14087791727E+02 -0.51452698396E+02  0.61715659361E+02  0.00000000000E+00 0.  1.
</event>
<event>
 4    1  0.5452128E+002  0.3946018E+02  0.7546771E-02  0.1351678E+00
          2   -1    0    0  503    0  0.00000000000E+00  0.00000000000E+00  0.55910492184E+03  0.55910492184E+03  0.00000000000E+00 0. -1.
         -2   -1    0    0    0  501 -0.00000000000E+00 -0.00000000000E+00 -0.77401652480E+01  0.77401652480E+01  0.00000000000E+00 0.  1.
         21    1    1    2  502  501  0.92560113872E+01  0.38359246113E+02  0.48910874989E+02  0.62844086447E+02  0.00000000000E+00 0.  1.
         21    1    1    2  503  502 -0.92560113872E+01 -0.38359246113E+02  0.50245388160E+03  0.50400100064E+03  0.00000000000E+00 0. -1.
</event>
<event>
 4    1  0.5452128E+002  0.2098672E+02  0.7546771E-02  0.1519455E+00
          2   -1    0    0  502    0  0.00000000000E+00  0.00000000000E+00  0.66334618853E+02  0.66334618853E+02  0.00000000000E+00 0.  1.
         -2   -1    0    0    0  501 -0.00000000000E+00 -0.00000000000E+00 -0.73489378578E+01  0.73489378578E+01  0.00000000000E+00 0. -1.
         21    1    1    2  502  503 -0.16479262939E+02  0.12995233728E+02  0.40938034398E+02  0.46003965775E+02  0.00000000000E+00 0.  1.
         21    1    1    2  503  501  0.16479262939E+02 -0.12995233728E+02  0.18047646597E+02  0.27679590935E+02  0.00000000000E+00 0. -1.
</event>
<event>
 4    1  0.5452128E+002  0.3095415E+02  0.7546771E-02  0.1411482E+00
          2   -1    0    0  502    0  0.00000000000E+00  0.00000000000E+00  0.45511792160E+03  0.45511792160E+03  0.00000000000E+00 0.  1.
         -2   -1    0    0    0  501 -0.00000000000E+00 -0.00000000000E+00 -0.29462642358E+01  0.29462642358E+01  0.00000000000E+00 0. -1.
         21    1    1    2  502  503  0.30461840367E+02 -0.54986942645E+01  0.34844865138E+03  0.34982084272E+03  0.00000000000E+00 0.  1.
         21    1    1    2  503  501 -0.30461840367E+02  0.54986942645E+01  0.10372300599E+03  0.10824334311E+03  0.00000000000E+00 0. -1.
</event>
<event>
 4    1  0.5452128E+002  0.2589255E+02  0.7546771E-02  0.1459061E+00
          2   -1    0    0  502    0  0.00000000000E+00  0.00000000000E+00  0.16852089037E+04  0.16852089037E+04  0.00000000000E+00 0.  1.
         -2   -1    0    0    0  501 -0.00000000000E+00 -0.00000000000E+00 -0.65136259501E+00  0.65136259501E+00  0.00000000000E+00 0. -1.
         21    1    1    2  502  503 -0.25753883532E+02 -0.26760976416E+01  0.13681730123E+04  0.13684179974E+04  0.00000000000E+00 0. -1.
         21    1    1    2  503  501  0.25753883532E+02  0.26760976416E+01  0.31638452881E+03  0.31744226890E+03  0.00000000000E+00 0.  1.
</event>
<event>
 4    1  0.5452128E+002  0.2080466E+02  0.7546771E-02  0.1522072E+00
          2   -1    0    0  502    0  0.00000000000E+00  0.00000000000E+00  0.24412619060E+03  0.24412619060E+03  0.00000000000E+00 0. -1.
         -2   -1    0    0    0  501 -0.00000000000E+00 -0.00000000000E+00 -0.26305218826E+01  0.26305218826E+01  0.00000000000E+00 0.  1.
         21    1    1    2  502  503 -0.84221563985E+00 -0.20787602930E+02  0.19119161772E+03  0.19232022371E+03  0.00000000000E+00 0. -1.
         21    1    1    2  503  501  0.84221563985E+00  0.20787602930E+02  0.50304050998E+02  0.54436488770E+02  0.00000000000E+00 0.  1.
</event>
<event>
 4    1  0.5452128E+002  0.3542680E+02  0.7546771E-02  0.1377587E+00
          2   -1    0    0  503    0  0.00000000000E+00  0.00000000000E+00  0.10874364912E+03  0.10874364912E+03  0.00000000000E+00 0.  1.
         -2   -1    0    0    0  501 -0.00000000000E+00 -0.00000000000E+00 -0.11631759656E+02  0.11631759656E+02  0.00000000000E+00 0. -1.
         21    1    1    2  502  501  0.49097151636E+01  0.35084935860E+02  0.43252204149E+02  0.55908954480E+02  0.00000000000E+00 0. -1.
         21    1    1    2  503  502 -0.49097151636E+01 -0.35084935860E+02  0.53859685311E+02  0.64466454293E+02  0.00000000000E+00 0.  1.
</event>
<event>
 4    1  0.5452128E+002  0.2368169E+02  0.7546771E-02  0.1484111E+00
          2   -1    0    0  503    0  0.00000000000E+00  0.00000000000E+00  0.59084622050E+01  0.59084622050E+01  0.00000000000E+00 0.  1.
         -2   -1    0    0    0  501 -0.00000000000E+00 -0.00000000000E+00 -0.52600731447E+03  0.52600731447E+03  0.00000000000E+00 0. -1.
         21    1    1    2  502  501  0.53543084247E+01  0.23068461928E+02 -0.50081830241E+03  0.50137789598E+03  0.00000000000E+00 0. -1.
         21    1    1    2  503  502 -0.53543084247E+01 -0.23068461928E+02 -0.19280549862E+02  0.30537880696E+02  0.00000000000E+00 0.  1.
</event>
<event>
 4    1  0.5452128E+002  0.2135411E+02  0.7546771E-02  0.1514269E+00
          2   -1    0    0  503    0  0.00000000000E+00  0.00000000000E+00  0.28026301935E+01  0.28026301935E+01  0.00000000000E+00 0. -1.
         -2   -1    0    0    0  501 -0.00000000000E+00 -0.00000000000E+00 -0.16485571831E+03  0.16485571831E+03  0.00000000000E+00 0.  1.
         21    1    1    2  502  501  0.17073567281E+02  0.12825410489E+02 -0.71448379358E+02  0.74571232837E+02  0.00000000000E+00 0. -1.
         21    1    1    2  503  502 -0.17073567281E+02 -0.12825410489E+02 -0.90604708759E+02  0.93087115667E+02  0.00000000000E+00 0.  1.
</event>
<event>
 4    1  0.5452128E+002  0.3531830E+02  0.7546771E-02  0.1378339E+00
          2   -1    0    0  503    0  0.00000000000E+00  0.00000000000E+00  0.34940108369E+03  0.34940108369E+03  0.00000000000E+00 0.  1.
         -2   -1    0    0    0  501 -0.00000000000E+00 -0.00000000000E+00 -0.16505302527E+02  0.16505302527E+02  0.00000000000E+00 0. -1.
         21    1    1    2  502  501  0.30238296020E+02  0.18249053240E+02  0.44849871354E+01  0.35601932531E+02  0.00000000000E+00 0. -1.
         21    1    1    2  503  502 -0.30238296020E+02 -0.18249053240E+02  0.32841079402E+03  0.33030445368E+03  0.00000000000E+00 0.  1.
</event>
<event>
 4    1  0.5452128E+002  0.2297920E+02  0.7546771E-02  0.1492759E+00
          2   -1    0    0  503    0  0.00000000000E+00  0.00000000000E+00  0.83450008111E+02  0.83450008111E+02  0.00000000000E+00 0. -1.
         -2   -1    0    0    0  501 -0.00000000000E+00 -0.00000000000E+00 -0.73420868241E+01  0.73420868241E+01  0.00000000000E+00 0.  1.
         21    1    1    2  502  501 -0.35802260584E+01  0.22698582278E+02  0.21179974939E+02  0.31251159890E+02  0.00000000000E+00 0.  1.
         21    1    1    2  503  502  0.35802260584E+01 -0.22698582278E+02  0.54927946348E+02  0.59540935045E+02  0.00000000000E+00 0. -1.
</event>
<event>
 4    1  0.5452128E+002  0.2308252E+02  0.7546771E-02  0.1491465E+00
          2   -1    0    0  503    0  0.00000000000E+00  0.00000000000E+00  0.12371745683E+04  0.12371745683E+04  0.00000000000E+00 0. -1.
         -2   -1    0    0    0  501 -0.00000000000E+00 -0.00000000000E+00 -0.48773305013E+01  0.48773305013E+01  0.00000000000E+00 0.  1.
         21    1    1    2  502  501  0.17207647039E+02 -0.15385040907E+02  0.23174020229E+02  0.32708375287E+02  0.00000000000E+00 0.  1.
         21    1    1    2  503  502 -0.17207647039E+02  0.15385040907E+02  0.12091232176E+04  0.12093435235E+04  0.00000000000E+00 0. -1.
</event>
<event>
 4    1  0.5452128E+002  0.3260857E+02  0.7546771E-02  0.1398203E+00
          2   -1    0    0  502    0  0.00000000000E+00  0.00000000000E+00  0.79584153643E+03  0.79584153643E+03  0.00000000000E+00 0.  1.
         -2   -1    0    0    0  501 -0.00000000000E+00 -0.00000000000E+00 -0.33701001740E+01  0.33701001740E+01  0.00000000000E+00 0. -1.
         21    1    1    2  502  503  0.28531793759E+02 -0.15787822122E+02  0.70668209877E+03  0.70743403036E+03  0.00000000000E+00 0.  1.
         21    1    1    2  503  501 -0.28531793759E+02  0.15787822122E+02  0.85789337482E+02  0.91777606245E+02  0.00000000000E+00 0. -1.
</event>
<event>
 4    1  0.5452128E+002  0.2352799E+03  0.7546771E-02  0.1032599E+00
          2   -1    0    0  502    0  0.00000000000E+00  0.00000000000E+00  0.15744383774E+04  0.15744383774E+04  0.00000000000E+00 0.  1.
         -2   -1    0    0    0  501 -0.00000000000E+00 -0.00000000000E+00 -0.85140697735E+02  0.85140697735E+02  0.00000000000E+00 0. -1.
         21    1    1    2  502  503  0.20790119229E+03 -0.11015322115E+03  0.13804220266E+04  0.14003291075E+04  0.00000000000E+00 0.  1.
         21    1    1    2  503  501 -0.20790119229E+03  0.11015322115E+03  0.10887565312E+03  0.25924996765E+03  0.00000000000E+00 0. -1.
</event>
<event>
 4    1  0.5452128E+002  0.3023059E+02  0.7546771E-02  0.1417603E+00
          2   -1    0    0  502    0  0.00000000000E+00  0.00000000000E+00  0.66459492872E+02  0.66459492872E+02  0.00000000000E+00 0. -1.
         -2   -1    0    0    0  501 -0.00000000000E+00 -0.00000000000E+00 -0.20214495026E+02  0.20214495026E+02  0.00000000000E+00 0.  1.
         21    1    1    2  502  503  0.20948738152E+02  0.21795391951E+02  0.47627735184E+02  0.56411788654E+02  0.00000000000E+00 0. -1.
         21    1    1    2  503  501 -0.20948738152E+02 -0.21795391951E+02 -0.13827373375E+01  0.30262199243E+02  0.00000000000E+00 0.  1.
</event>
<event>
 4    1  0.5452128E+002  0.2956923E+02  0.7546771E-02  0.1423377E+00
          2   -1    0    0  503    0  0.00000000000E+00  0.00000000000E+00  0.10822024156E+03  0.10822024156E+03  0.00000000000E+00 0. -1.
         -2   -1    0    0    0  501 -0.00000000000E+00 -0.00000000000E+00 -0.87412559902E+01  0.87412559902E+01  0.00000000000E+00 0.  1.
         21    1    1    2  502  501  0.17446140385E+01 -0.29517716711E+02  0.33645853501E+02  0.44792663862E+02  0.00000000000E+00 0.  1.
         21    1    1    2  503  502 -0.17446140385E+01  0.29517716711E+02  0.65833132068E+02  0.72168833688E+02  0.00000000000E+00 0. -1.
</event>
<event>
 4    1  0.5452128E+002  0.2459454E+02  0.7546771E-02  0.1473391E+00
          2   -1    0    0  502    0  0.00000000000E+00  0.00000000000E+00  0.93011088500E+00  0.93011088500E+00  0.00000000000E+00 0. -1.
         -2   -1    0    0    0  501 -0.00000000000E+00 -0.00000000000E+00 -0.93387073271E+03  0.93387073271E+03  0.00000000000E+00 0.  1.
         21    1    1    2  502  503 -0.20643376512E+02  0.13369453686E+02 -0.20893111240E+03  0.21037371750E+03  0.00000000000E+00 0. -1.
         21    1    1    2  503  501  0.20643376512E+02 -0.13369453686E+02 -0.72400950942E+03  0.72442712609E+03  0.00000000000E+00 0.  1.
</event>
<event>
 4    1  0.5452128E+002  0.4166853E+02  0.7546771E-02  0.1338976E+00
          2   -1    0    0  502    0  0.00000000000E+00  0.00000000000E+00  0.28636529396E+04  0.28636529396E+04  0.00000000000E+00 0. -1.
         -2   -1    0    0    0  501 -0.00000000000E+00 -0.00000000000E+00 -0.18606322655E+01  0.18606322655E+01  0.00000000000E+00 0.  1.
         21    1    1    2  502  503 -0.30384095262E+02  0.28514442844E+02  0.26072729418E+04  0.26076058866E+04  0.00000000000E+00 0. -1.
         21    1    1    2  503  501  0.30384095262E+02 -0.28514442844E+02  0.25451936545E+03  0.25790768520E+03  0.00000000000E+00 0.  1.
</event>
<event>
 4    1  0.5452128E+002  0.2403262E+02  0.7546771E-02  0.1479923E+00
          2   -1    0    0  502    0  0.00000000000E+00  0.00000000000E+00  0.13757442628E+04  0.13757442628E+04  0.00000000000E+00 0. -1.
         -2   -1    0    0    0  501 -0.00000000000E+00 -0.00000000000E+00 -0.16594606216E+01  0.16594606216E+01  0.00000000000E+00 0.  1.
         21    1    1    2  502  503  0.33229072497E+01 -0.23801783819E+02  0.12822870068E+04  0.12825121966E+04  0.00000000000E+00 0. -1.
         21    1    1    2  503  501 -0.33229072497E+01  0.23801783819E+02  0.91797795346E+02  0.94891526787E+02  0.00000000000E+00 0.  1.
</event>
<event>
 4    1  0.5452128E+002  0.2117366E+02  0.7546771E-02  0.1516800E+00
          2   -1    0    0  502    0  0.00000000000E+00  0.00000000000E+00  0.48914126404E+03  0.48914126404E+03  0.00000000000E+00 0.  1.
         -2   -1    0    0    0  501 -0.00000000000E+00 -0.00000000000E+00 -0.97265101617E+00  0.97265101617E+00  0.00000000000E+00 0. -1.
         21    1    1    2  502  503 -0.19699624691E+02  0.77620133878E+01  0.18523234982E+03  0.18643858904E+03  0.00000000000E+00 0. -1.
         21    1    1    2  503  501  0.19699624691E+02 -0.77620133878E+01  0.30293626321E+03  0.30367532601E+03  0.00000000000E+00 0.  1.
</event>
<event>
 4    1  0.5452128E+002  0.2528649E+02  0.7546771E-02  0.1465624E+00
          2   -1    0    0  503    0  0.00000000000E+00  0.00000000000E+00  0.13735354821E+01  0.13735354821E+01  0.00000000000E+00 0.  1.
         -2   -1    0    0    0  501 -0.00000000000E+00 -0.00000000000E+00 -0.46822389375E+03  0.46822389375E+03  0.00000000000E+00 0. -1.
         21    1    1    2  502  501 -0.25245475353E+02 -0.14396600023E+01 -0.21557852773E+03  0.21705646331E+03  0.00000000000E+00 0. -1.
         21    1    1    2  503  502  0.25245475353E+02  0.14396600023E+01 -0.25127183054E+03  0.25254096592E+03  0.00000000000E+00 0.  1.
</event>
<event>
 4    1  0.5452128E+002  0.2516930E+02  0.7546771E-02  0.1466918E+00
          2   -1    0    0  502    0  0.00000000000E+00  0.00000000000E+00  0.21520491599E+03  0.21520491599E+03  0.00000000000E+00 0. -1.
         -2   -1    0    0    0  501 -0.00000000000E+00 -0.00000000000E+00 -0.58146545910E+01  0.58146545910E+01  0.00000000000E+00 0.  1.
         21    1    1    2  502  503  0.98495342299E+01  0.23162043075E+02  0.18234732726E+03  0.18407618348E+03  0.00000000000E+00 0. -1.
         21    1    1    2  503  501 -0.98495342299E+01 -0.23162043075E+02  0.27042934136E+02  0.36943387103E+02  0.00000000000E+00 0.  1.
</event>
<event>
 4    1  0.5452128E+002  0.3569023E+02  0.7546771E-02  0.1375775E+00
          2   -1    0    0  502    0  0.00000000000E+00  0.00000000000E+00  0.14418010875E+04  0.14418010875E+04  0.00000000000E+00 0. -1.
         -2   -1    0    0    0  501 -0.00000000000E+00 -0.00000000000E+00 -0.43214256000E+01  0.43214256000E+01  0.00000000000E+00 0.  1.
         21    1    1    2  502  503 -0.30349044190E+02  0.18781046397E+02  0.13636682580E+04  0.13641352242E+04  0.00000000000E+00 0. -1.
         21    1    1    2  503  501  0.30349044190E+02 -0.18781046397E+02  0.73811403970E+02  0.81987288912E+02  0.00000000000E+00 0.  1.
</event>
<event>
 4    1  0.5452128E+002  0.2639930E+02  0.7546771E-02  0.1453737E+00
          2   -1    0    0  503    0  0.00000000000E+00  0.00000000000E+00  0.20510130017E+02  0.20510130017E+02  0.00000000000E+00 0. -1.
         -2   -1    0    0    0  501 -0.00000000000E+00 -0.00000000000E+00 -0.36621498627E+02  0.36621498627E+02  0.00000000000E+00 0.  1.
         21    1    1    2  502  501 -0.16565055353E+02 -0.20555338503E+02 -0.15728392926E+02  0.30729551638E+02  0.00000000000E+00 0. -1.
         21    1    1    2  503  502  0.16565055353E+02  0.20555338503E+02 -0.38297568468E+00  0.26402077006E+02  0.00000000000E+00 0.  1.
</event>
<event>
 4    1  0.5452128E+002  0.3288392E+02  0.7546771E-02  0.1396083E+00
          2   -1    0    0  502    0  0.00000000000E+00  0.00000000000E+00  0.12278085542E+03  0.12278085542E+03  0.00000000000E+00 0. -1.
         -2   -1    0    0    0  501 -0.00000000000E+00 -0.00000000000E+00 -0.17612413654E+02  0.17612413654E+02  0.00000000000E+00 0.  1.
         21    1    1    2  502  503  0.74494421020E+01  0.32029021181E+02  0.10221801071E+03  0.10737725131E+03  0.00000000000E+00 0. -1.
         21    1    1    2  503  501 -0.74494421020E+01 -0.32029021181E+02  0.29504310555E+01  0.33016017762E+02  0.00000000000E+00 0.  1.
</event>
<event>
 4    1  0.5452128E+002  0.3142951E+02  0.7546771E-02  0.1407568E+00
          2   -1    0    0  502    0  0.00000000000E+00  0.00000000000E+00  0.62983197846E+03  0.62983197846E+03  0.00000000000E+00 0.  1.
         -2   -1    0    0    0  501 -0.00000000000E+00 -0.00000000000E+00 -0.75368946100E+01  0.75368946100E+01  0.00000000000E+00 0. -1.
         21    1    1    2  502  503 -0.29315725029E+02 -0.11331481472E+02  0.59474207888E+03  0.59557195585E+03  0.00000000000E+00 0.  1.
         21    1    1    2  503  501  0.29315725029E+02  0.11331481472E+02  0.27553004979E+02  0.41796917227E+02  0.00000000000E+00 0. -1.
</event>
<event>
 4    1  0.5452128E+002  0.2961441E+02  0.7546771E-02  0.1422977E+00
          2   -1    0    0  502    0  0.00000000000E+00  0.00000000000E+00  0.20809601032E+02  0.20809601032E+02  0.00000000000E+00 0. -1.
         -2   -1    0    0    0  501 -0.00000000000E+00 -0.00000000000E+00 -0.17311727804E+03  0.17311727804E+03  0.00000000000E+00 0.  1.
         21    1    1    2  502  503  0.12851822915E+02  0.26680407812E+02  0.81850869142E+01  0.30724732074E+02  0.00000000000E+00 0. -1.
         21    1    1    2  503  501 -0.12851822915E+02 -0.26680407812E+02 -0.16049276392E+03  0.16320214700E+03  0.00000000000E+00 0.  1.
</event>
<event>
 4    1  0.5452128E+002  0.3395681E+02  0.7546771E-02  0.1388049E+00
          2   -1    0    0  503    0  0.00000000000E+00  0.00000000000E+00  0.10803070054E+04  0.10803070054E+04  0.00000000000E+00 0. -1.
         -2   -1    0    0    0  501 -0.00000000000E+00 -0.00000000000E+00 -0.13262653702E+01  0.13262653702E+01  0.00000000000E+00 0.  1.
         21    1    1    2  502  501  0.22566547314E+02  0.25373529906E+02  0.30053642074E+03  0.30244868204E+03  0.00000000000E+00 0.  1.
         21    1    1    2  503  502 -0.22566547314E+02 -0.25373529906E+02  0.77844431925E+03  0.77918458869E+03  0.00000000000E+00 0. -1.
</event>
<event>
 4    1  0.5452128E+002  0.6928825E+02  0.7546771E-02  0.1231169E+00
          2   -1    0    0  503    0  0.00000000000E+00  0.00000000000E+00  0.36920133442E+03  0.36920133442E+03  0.00000000000E+00 0.  1.
         -2   -1    0    0    0  501 -0.00000000000E+00 -0.00000000000E+00 -0.19712714512E+02  0.19712714512E+02  0.00000000000E+00 0. -1.
         21    1    1    2  502  501 -0.55328250782E+01 -0.69066994546E+02  0.61297983611E+02  0.92511105732E+02  0.00000000000E+00 0. -1.
         21    1    1    2  503  502  0.55328250782E+01  0.69066994546E+02  0.28819063630E+03  0.29640294320E+03  0.00000000000E+00 0.  1.
</event>
<event>
 4    1  0.5452128E+002  0.3655351E+02  0.7546771E-02  0.1369959E+00
          2   -1    0    0  503    0  0.00000000000E+00  0.00000000000E+00  0.65071481412E+03  0.65071481412E+03  0.00000000000E+00 0.  1.
         -2   -1    0    0    0  501 -0.00000000000E+00 -0.00000000000E+00 -0.20599077280E+01  0.20599077280E+01  0.00000000000E+00 0. -1.
         21    1    1    2  502  501  0.27975386011E+02 -0.23527360003E+02  0.34271363576E+03  0.34465750394E+03  0.00000000000E+00 0.  1.
         21    1    1    2  503  502 -0.27975386011E+02  0.23527360003E+02  0.30594127064E+03  0.30811721791E+03  0.00000000000E+00 0. -1.
</event>
<event>
 4    1  0.5452128E+002  0.2507196E+02  0.7546771E-02  0.1468000E+00
          2   -1    0    0  502    0  0.00000000000E+00  0.00000000000E+00  0.11721323433E+04  0.11721323433E+04  0.00000000000E+00 0.  1.
         -2   -1    0    0    0  501 -0.00000000000E+00 -0.00000000000E+00 -0.16067988014E+02  0.16067988014E+02  0.00000000000E+00 0. -1.
         21    1    1    2  502  503 -0.20108300197E+02  0.14975289821E+02  0.11621337705E+04  0.11624041912E+04  0.00000000000E+00 0.  1.
         21    1    1    2  503  501  0.20108300197E+02 -0.14975289821E+02 -0.60694152899E+01  0.25796140099E+02  0.00000000000E+00 0. -1.
</event>
<event>
 4    1  0.5452128E+002  0.5370931E+02  0.7546771E-02  0.1282844E+00
          2   -1    0    0  503    0  0.00000000000E+00  0.00000000000E+00  0.28886835833E+04  0.28886835833E+04  0.00000000000E+00 0. -1.
         -2   -1    0    0    0  501 -0.00000000000E+00 -0.00000000000E+00 -0.14362038859E+01  0.14362038859E+01  0.00000000000E+00 0.  1.
         21    1    1    2  502  501  0.53549133179E+02  0.41448511100E+01  0.64597842770E+03  0.64820738850E+03  0.00000000000E+00 0.  1.
         21    1    1    2  503  502 -0.53549133179E+02 -0.41448511100E+01  0.22412689517E+04  0.22419123987E+04  0.00000000000E+00 0. -1.
</event>
<event>
 4    1  0.5452128E+002  0.5166245E+02  0.7546771E-02  0.1291121E+00
          2   -1    0    0  502    0  0.00000000000E+00  0.00000000000E+00  0.12381597111E+04  0.12381597111E+04  0.00000000000E+00 0.  1.
         -2   -1    0    0    0  501 -0.00000000000E+00 -0.00000000000E+00 -0.21559405586E+01  0.21559405586E+01  0.00000000000E+00 0. -1.
         21    1    1    2  502  503 -0.41284795555E+02  0.31057593709E+02  0.62550043101E+03  0.62763030334E+03  0.00000000000E+00 0.  1.
         21    1    1    2  503  501  0.41284795555E+02 -0.31057593709E+02  0.61050333948E+03  0.61268534828E+03  0.00000000000E+00 0. -1.
</event>
<event>
 4    1  0.5452128E+002  0.3820593E+02  0.7546771E-02  0.1359332E+00
          2   -1    0    0  502    0  0.00000000000E+00  0.00000000000E+00  0.75647396411E+03  0.75647396411E+03  0.00000000000E+00 0. -1.
         -2   -1    0    0    0  501 -0.00000000000E+00 -0.00000000000E+00 -0.26826284247E+01  0.26826284247E+01  0.00000000000E+00 0.  1.
         21    1    1    2  502  503 -0.36652784426E+02  0.10782681934E+02  0.57800236750E+03  0.57926369614E+03  0.00000000000E+00 0. -1.
         21    1    1    2  503  501  0.36652784426E+02 -0.10782681934E+02  0.17578896819E+03  0.17989289639E+03  0.00000000000E+00 0.  1.
</event>
<event>
 4    1  0.5452128E+002  0.3319719E+02  0.7546771E-02  0.1393700E+00
          2   -1    0    0  503    0  0.00000000000E+00  0.00000000000E+00  0.18533548237E+03  0.18533548237E+03  0.00000000000E+00 0.  1.
         -2   -1    0    0    0  501 -0.00000000000E+00 -0.00000000000E+00 -0.60239116445E+01  0.60239116445E+01  0.00000000000E+00 0. -1.
         21    1    1    2  502  501 -0.14883686611E+02  0.29673718772E+02  0.78792916317E+02  0.85500744878E+02  0.00000000000E+00 0.  1.
         21    1    1    2  503  502  0.14883686611E+02 -0.29673718772E+02  0.10051865441E+03  0.10585864914E+03  0.00000000000E+00 0. -1.
</event>
<event>
 4    1  0.5452128E+002  0.4081995E+02  0.7546771E-02  0.1343747E+00
          2   -1    0    0  503    0  0.00000000000E+00  0.00000000000E+00  0.20244690148E+04  0.20244690148E+04  0.00000000000E+00 0. -1.
         -2   -1    0    0    0  501 -0.00000000000E+00 -0.00000000000E+00 -0.17443105184E+01  0.17443105184E+01  0.00000000000E+00 0.  1.
         21    1    1    2  502  501 -0.33661334487E+02  0.23090761235E+02  0.27510258346E+03  0.27811454497E+03  0.00000000000E+00 0.  1.
         21    1    1    2  503  502  0.33661334487E+02 -0.23090761235E+02  0.17476221208E+04  0.17480987803E+04  0.00000000000E+00 0. -1.
</event>
<event>
 4    1  0.5452128E+002  0.2646138E+02  0.7546771E-02  0.1453095E+00
          2   -1    0    0  502    0  0.00000000000E+00  0.00000000000E+00  0.14592249290E+02  0.14592249290E+02  0.00000000000E+00 0. -1.
         -2   -1    0    0    0  501 -0.00000000000E+00 -0.00000000000E+00 -0.48207697940E+02  0.48207697940E+02  0.00000000000E+00 0.  1.
         21    1    1    2  502  503 -0.20986243730E+02  0.16117763916E+02 -0.14672127964E+02  0.30256835237E+02  0.00000000000E+00 0. -1.
         21    1    1    2  503  501  0.20986243730E+02 -0.16117763916E+02 -0.18943320686E+02  0.32543111993E+02  0.00000000000E+00 0.  1.
</event>
<event>
 4    1  0.5452128E+002  0.2181984E+02  0.7546771E-02  0.1507874E+00
          2   -1    0    0  503    0  0.00000000000E+00  0.00000000000E+00  0.75294507114E+00  0.75294507114E+00  0.00000000000E+00 0.  1.
         -2   -1    0    0    0  501 -0.00000000000E+00 -0.00000000000E+00 -0.63234452364E+03  0.63234452364E+03  0.00000000000E+00 0. -1.
         21    1    1    2  502  501  0.19025043046E+02  0.10684239959E+02 -0.31399281784E+03  0.31475005147E+03  0.00000000000E+00 0.  1.
         21    1    1    2  503  502 -0.19025043046E+02 -0.10684239959E+02 -0.31759876072E+03  0.31834741723E+03  0.00000000000E+00 0. -1.
</event>
<event>
 4    1  0.5452128E+002  0.2713447E+02  0.7546771E-02  0.1446262E+00
          2   -1    0    0  503    0  0.00000000000E+00  0.00000000000E+00  0.35768518360E+02  0.35768518360E+02  0.00000000000E+00 0.  1.
         -2   -1    0    0    0  501 -0.00000000000E+00 -0.00000000000E+00 -0.36627080037E+02  0.36627080037E+02  0.00000000000E+00 0. -1.
         21    1    1    2  502  501 -0.43485055269E+01 -0.26783761757E+02 -0.24385442997E+02  0.36481902696E+02  0.00000000000E+00 0. -1.
         21    1    1    2  503  502  0.43485055269E+01  0.26783761757E+02  0.23526881320E+02  0.35913695700E+02  0.00000000000E+00 0.  1.
</event>
<event>
 4    1  0.5452128E+002  0.2850231E+02  0.7546771E-02  0.1433074E+00
          2   -1    0    0  502    0  0.00000000000E+00  0.00000000000E+00  0.55546450335E+01  0.55546450335E+01  0.00000000000E+00 0.  1.
         -2   -1    0    0    0  501 -0.00000000000E+00 -0.00000000000E+00 -0.49142997001E+03  0.49142997001E+03  0.00000000000E+00 0. -1.
         21    1    1    2  502  503 -0.45844241833E+00 -0.28498620608E+02 -0.34678912608E+02  0.44888846339E+02  0.00000000000E+00 0.  1.
         21    1    1    2  503  501  0.45844241833E+00  0.28498620608E+02 -0.45119641237E+03  0.45209576871E+03  0.00000000000E+00 0. -1.
</event>
<event>
 4    1  0.5452128E+002  0.2011538E+02  0.7546771E-02  0.1532279E+00
          2   -1    0    0  503    0  0.00000000000E+00  0.00000000000E+00  0.12421241721E+04  0.12421241721E+04  0.00000000000E+00 0.  1.
         -2   -1    0    0    0  501 -0.00000000000E+00 -0.00000000000E+00 -0.46616974885E+00  0.46616974885E+00  0.00000000000E+00 0. -1.
         21    1    1    2  502  501  0.19475737858E+02 -0.50323083785E+01  0.27984666384E+03  0.28056867921E+03  0.00000000000E+00 0. -1.
         21    1    1    2  503  502 -0.19475737858E+02  0.50323083785E+01  0.96181133851E+03  0.96202166263E+03  0.00000000000E+00 0.  1.
</event>
<event>
 4    1  0.5452128E+002  0.2377916E+02  0.7546771E-02  0.1482939E+00
          2   -1    0    0  503    0  0.00000000000E+00  0.00000000000E+00  0.79509453490E+03  0.79509453490E+03  0.00000000000E+00 0.  1.
         -2   -1    0    0    0  501 -0.00000000000E+00 -0.00000000000E+00 -0.87250690984E+00  0.87250690984E+00  0.00000000000E+00 0. -1.
         21    1    1    2  502  501  0.20388806896E+02  0.12237036119E+02  0.22597334004E+03  0.22722103535E+03  0.00000000000E+00 0. -1.
         21    1    1    2  503  502 -0.20388806896E+02 -0.12237036119E+02  0.56824868796E+03  0.56874600646E+03  0.00000000000E+00 0.  1.
</event>
<event>
 4    1  0.5452128E+002  0.3444689E+02  0.7546771E-02  0.1384494E+00
          2   -1    0    0  503    0  0.00000000000E+00  0.00000000000E+00  0.31554043285E+03  0.31554043285E+03  0.00000000000E+00 0.  1.
         -2   -1    0    0    0  501 -0.00000000000E+00 -0.00000000000E+00 -0.65508579341E+01  0.65508579341E+01  0.00000000000E+00 0. -1.
         21    1    1    2  502  501 -0.34220839459E+02  0.39398262515E+01  0.49388117624E+02  0.60214402319E+02  0.00000000000E+00 0. -1.
         21    1    1    2  503  502  0.34220839459E+02 -0.39398262515E+01  0.25960145730E+03  0.26187688847E+03  0.00000000000E+00 0.  1.
</event>
<event>
 4    1  0.5452128E+002  0.2268626E+02  0.7546771E-02  0.1496476E+00
          2   -1    0    0  503    0  0.00000000000E+00  0.00000000000E+00  0.12354773296E+04  0.12354773296E+04  0.00000000000E+00 0. -1.
         -2   -1    0    0    0  501 -0.00000000000E+00 -0.00000000000E+00 -0.42151565820E+00  0.42151565820E+00  0.00000000000E+00 0.  1.
         21    1    1    2  502  501 -0.12138875789E+02 -0.19165442424E+02  0.55061241427E+03  0.55107957432E+03  0.00000000000E+00 0. -1.
         21    1    1    2  503  502  0.12138875789E+02  0.19165442424E+02  0.68444339964E+03  0.68481927090E+03  0.00000000000E+00 0.  1.
</event>
<event>
 4    1  0.5452128E+002  0.2658879E+02  0.7546771E-02  0.1451783E+00
          2   -1    0    0  503    0  0.00000000000E+00  0.00000000000E+00  0.31946842188E+03  0.31946842188E+03  0.00000000000E+00 0. -1.
         -2   -1    0    0    0  501 -0.00000000000E+00 -0.00000000000E+00 -0.48982778330E+01  0.48982778330E+01  0.00000000000E+00 0.  1.
         21    1    1    2  502  501 -0.26352213206E+02 -0.35390352494E+01  0.37201344481E+02  0.45726403123E+02  0.00000000000E+00 0.  1.
         21    1    1    2  503  502  0.26352213206E+02  0.35390352494E+01  0.27736879957E+03  0.27864029659E+03  0.00000000000E+00 0. -1.
</event>
<event>
 4    1  0.5452128E+002  0.2232040E+02  0.7546771E-02  0.1501213E+00
          2   -1    0    0  502    0  0.00000000000E+00  0.00000000000E+00  0.14879547334E+04  0.14879547334E+04  0.00000000000E+00 0.  1.
         -2   -1    0    0    0  501 -0.00000000000E+00 -0.00000000000E+00 -0.90353838407E+00  0.90353838407E+00  0.00000000000E+00 0. -1.
         21    1    1    2  502  503 -0.82974612831E+01  0.20720824711E+02  0.13341315377E+04  0.13343182381E+04  0.00000000000E+00 0.  1.
         21    1    1    2  503  501  0.82974612831E+01 -0.20720824711E+02  0.15291965726E+03  0.15454003370E+03  0.00000000000E+00 0. -1.
</event>
<event>
 4    1  0.5452128E+002  0.2726727E+02  0.7546771E-02  0.1444942E+00
          2   -1    0    0  502    0  0.00000000000E+00  0.00000000000E+00  0.10095262676E+04  0.10095262676E+04  0.00000000000E+00 0.  1.
         -2   -1    0    0    0  501 -0.00000000000E+00 -0.00000000000E+00 -0.76055396164E+00  0.76055396164E+00  0.00000000000E+00 0. -1.
         21    1    1    2  502  503 -0.19544603831E+02  0.19013482861E+02  0.59423956461E+03  0.59486482853E+03  0.00000000000E+00 0.  1.
         21    1    1    2  503  501  0.19544603831E+02 -0.19013482861E+02  0.41452614903E+03  0.41542199304E+03  0.00000000000E+00 0. -1.
</event>
<event>
 4    1  0.5452128E+002  0.2193443E+02  0.7546771E-02  0.1506330E+00
          2   -1    0    0  502    0  0.00000000000E+00  0.00000000000E+00  0.50100535665E+03  0.50100535665E+03  0.00000000000E+00 0.  1.
         -2   -1    0    0    0  501 -0.00000000000E+00 -0.00000000000E+00 -0.21202568147E+01  0.21202568147E+01  0.00000000000E+00 0. -1.
         21    1    1    2  502  503 -0.99581027786E+01  0.19543679010E+02  0.43551055635E+03  0.43606256878E+03  0.00000000000E+00 0.  1.
         21    1    1    2  503  501  0.99581027786E+01 -0.19543679010E+02  0.63374543485E+02  0.67063044682E+02  0.00000000000E+00 0. -1.
</event>
<event>
 4    1  0.5452128E+002  0.3005783E+02  0.7546771E-02  0.1419095E+00
          2   -1    0    0  503    0  0.00000000000E+00  0.00000000000E+00  0.11269674625E+03  0.11269674625E+03  0.00000000000E+00 0.  1.
         -2   -1    0    0    0  501 -0.00000000000E+00 -0.00000000000E+00 -0.82379464009E+01  0.82379464009E+01  0.00000000000E+00 0. -1.
         21    1    1    2  502  501 -0.44849161845E+01 -0.29721350163E+02  0.42323353468E+02  0.51910879182E+02  0.00000000000E+00 0. -1.
         21    1    1    2  503  502  0.44849161845E+01  0.29721350163E+02  0.62135446379E+02  0.69023813466E+02  0.00000000000E+00 0.  1.
</event>
<event>
 4    1  0.5452128E+002  0.2275693E+02  0.7546771E-02  0.1495573E+00
          2   -1    0    0  502    0  0.00000000000E+00  0.00000000000E+00  0.35932252309E+03  0.35932252309E+03  0.00000000000E+00 0.  1.
         -2   -1    0    0    0  501 -0.00000000000E+00 -0.00000000000E+00 -0.27682006193E+01  0.27682006193E+01  0.00000000000E+00 0. -1.
         21    1    1    2  502  503  0.41333541217E+01  0.22378410000E+02  0.30362419503E+03  0.30447582771E+03  0.00000000000E+00 0.  1.
         21    1    1    2  503  501 -0.41333541217E+01 -0.22378410000E+02  0.52930127440E+02  0.57614896001E+02  0.00000000000E+00 0. -1.
</event>
<event>
 4    1  0.5452128E+002  0.7596643E+02  0.7546771E-02  0.1213534E+00
          2   -1    0    0  503    0  0.00000000000E+00  0.00000000000E+00  0.23437752947E+02  0.23437752947E+02  0.00000000000E+00 0.  1.
         -2   -1    0    0    0  501 -0.00000000000E+00 -0.00000000000E+00 -0.27783351175E+03  0.27783351175E+03  0.00000000000E+00 0. -1.
         21    1    1    2  502  501 -0.69966798858E+02  0.29589611265E+02 -0.76387107005E+02  0.10773062774E+03  0.00000000000E+00 0.  1.
         21    1    1    2  503  502  0.69966798858E+02 -0.29589611265E+02 -0.17800865180E+03  0.19354063695E+03  0.00000000000E+00 0. -1.
</event>
<event>
 4    1  0.5452128E+002  0.6063104E+02  0.7546771E-02  0.1257703E+00
          2   -1    0    0  503    0  0.00000000000E+00  0.00000000000E+00  0.83900896787E+03  0.83900896787E+03  0.00000000000E+00 0. -1.
         -2   -1    0    0    0  501 -0.00000000000E+00 -0.00000000000E+00 -0.80162256659E+01  0.80162256659E+01  0.00000000000E+00 0.  1.
         21    1    1    2  502  501  0.44296183215E+02  0.41400134534E+02  0.70067489320E+03  0.70329327379E+03  0.00000000000E+00 0. -1.
         21    1    1    2  503  502 -0.44296183215E+02 -0.41400134534E+02  0.13031784900E+03  0.14373191975E+03  0.00000000000E+00 0.  1.
</event>
<event>
 4    1  0.5452128E+002  0.2944706E+02  0.7546771E-02  0.1424463E+00
          2   -1    0    0  503    0  0.00000000000E+00  0.00000000000E+00  0.28913226329E+03  0.28913226329E+03  0.00000000000E+00 0. -1.
         -2   -1    0    0    0  501 -0.00000000000E+00 -0.00000000000E+00 -0.58925895004E+01  0.58925895004E+01  0.00000000000E+00 0.  1.
         21    1    1    2  502  501 -0.46838638881E+01 -0.29072163617E+02  0.38251301928E+02  0.48273091650E+02  0.00000000000E+00 0.  1.
         21    1    1    2  503  502  0.46838638881E+01  0.29072163617E+02  0.24498837186E+03  0.24675176114E+03  0.00000000000E+00 0. -1.
</event>
<event>
 4    1  0.5452128E+002  0.2289446E+02  0.7546771E-02  0.1493828E+00
          2   -1    0    0  503    0  0.00000000000E+00  0.00000000000E+00  0.14084022646E+04  0.14084022646E+04  0.00000000000E+00 0. -1.
         -2   -1    0    0    0  501 -0.00000000000E+00 -0.00000000000E+00 -0.27083548726E+01  0.27083548726E+01  0.00000000000E+00 0.  1.
         21    1    1    2  502  501  0.12122994329E+02 -0.19421360622E+02  0.47558575147E+02  0.52782329524E+02  0.00000000000E+00 0.  1.
         21    1    1    2  503  502 -0.12122994329E+02  0.19421360622E+02  0.13581353346E+04  0.13583282899E+04  0.00000000000E+00 0. -1.
</event>
<event>
 4    1  0.5452128E+002  0.2092245E+02  0.7546771E-02  0.1520375E+00
          2   -1    0    0  502    0  0.00000000000E+00  0.00000000000E+00  0.54917388674E+03  0.54917388674E+03  0.00000000000E+00 0.  1.
         -2   -1    0    0    0  501 -0.00000000000E+00 -0.00000000000E+00 -0.13249104488E+01  0.13249104488E+01  0.00000000000E+00 0. -1.
         21    1    1    2  502  503 -0.10191412861E+02  0.18272488254E+02  0.44765273870E+03  0.44814140981E+03  0.00000000000E+00 0.  1.
         21    1    1    2  503  501  0.10191412861E+02 -0.18272488254E+02  0.10019623760E+03  0.10235738738E+03  0.00000000000E+00 0. -1.
</event>
<event>
 4    1  0.5452128E+002  0.2160693E+02  0.7546771E-02  0.1510773E+00
          2   -1    0    0  503    0  0.00000000000E+00  0.00000000000E+00  0.42134058298E+02  0.42134058298E+02  0.00000000000E+00 0.  1.
         -2   -1    0    0    0  501 -0.00000000000E+00 -0.00000000000E+00 -0.38877733414E+02  0.38877733414E+02  0.00000000000E+00 0. -1.
         21    1    1    2  502  501  0.19591161516E+01  0.21517926837E+02 -0.32622571351E+02  0.39129163971E+02  0.00000000000E+00 0. -1.
         21    1    1    2  503  502 -0.19591161516E+01 -0.21517926837E+02  0.35878896236E+02  0.41882627742E+02  0.00000000000E+00 0.  1.
</event>
<event>
 4    1  0.5452128E+002  0.2336824E+02  0.7546771E-02  0.1487925E+00
          2   -1    0    0  503    0  0.00000000000E+00  0.00000000000E+00  0.32295313059E+02  0.32295313059E+02  0.00000000000E+00 0.  1.
         -2   -1    0    0    0  501 -0.00000000000E+00 -0.00000000000E+00 -0.24678233657E+02  0.24678233657E+02  0.00000000000E+00 0. -1.
         21    1    1    2  502  501 -0.89630676686E+01  0.21580964125E+02 -0.12175304856E+02  0.26349812958E+02  0.00000000000E+00 0. -1.
         21    1    1    2  503  502  0.89630676686E+01 -0.21580964125E+02  0.19792384258E+02  0.30623733757E+02  0.00000000000E+00 0.  1.
</event>
<event>
 4    1  0.5452128E+002  0.2222385E+02  0.7546771E-02  0.1502481E+00
          2   -1    0    0  502    0  0.00000000000E+00  0.00000000000E+00  0.34373291781E+03  0.34373291781E+03  0.00000000000E+00 0. -1.
         -2   -1    0    0    0  501 -0.00000000000E+00 -0.00000000000E+00 -0.15765260421E+01  0.15765260421E+01  0.00000000000E+00 0.  1.
         21    1    1    2  502  503 -0.10391970026E+02 -0.19644500104E+02  0.22246577613E+03  0.22357307749E+03  0.00000000000E+00 0. -1.
         21    1    1    2  503  501  0.10391970026E+02  0.19644500104E+02  0.11969061563E+03  0.12173636636E+03  0.00000000000E+00 0.  1.
</event>
<event>
 4    1  0.5452128E+002  0.3332349E+02  0.7546771E-02  0.1392749E+00
          2   -1    0    0  502    0  0.00000000000E+00  0.00000000000E+00  0.83259073574E+02  0.83259073574E+02  0.00000000000E+00 0. -1.
         -2   -1    0    0    0  501 -0.00000000000E+00 -0.00000000000E+00 -0.15557069809E+02  0.15557069809E+02  0.00000000000E+00 0.  1.
         21    1    1    2  502  503 -0.84988335596E+01  0.32221495573E+02  0.15187908932E+02  0.36621408036E+02  0.00000000000E+00 0.  1.
         21    1    1    2  503  501  0.84988335596E+01 -0.32221495573E+02  0.52514094832E+02  0.62194735347E+02  0.00000000000E+00 0. -1.
</event>
<event>
 4    1  0.5452128E+002  0.2076485E+02  0.7546771E-02  0.1522649E+00
          2   -1    0    0  503    0  0.00000000000E+00  0.00000000000E+00  0.16414589043E+04  0.16414589043E+04  0.00000000000E+00 0.  1.
         -2   -1    0    0    0  501 -0.00000000000E+00 -0.00000000000E+00 -0.29861918147E+00  0.29861918147E+00  0.00000000000E+00 0. -1.
         21    1    1    2  502  501 -0.13064329318E+02  0.16140079408E+02  0.53580462843E+03  0.53620684322E+03  0.00000000000E+00 0.  1.
         21    1    1    2  503  502  0.13064329318E+02 -0.16140079408E+02  0.11053556566E+04  0.11055506802E+04  0.00000000000E+00 0. -1.
</event>
<event>
 4    1  0.5452128E+002  0.3760169E+02  0.7546771E-02  0.1363143E+00
          2   -1    0    0  503    0  0.00000000000E+00  0.00000000000E+00  0.75486771201E+03  0.75486771201E+03  0.00000000000E+00 0. -1.
         -2   -1    0    0    0  501 -0.00000000000E+00 -0.00000000000E+00 -0.27931930158E+02  0.27931930158E+02  0.00000000000E+00 0.  1.
         21    1    1    2  502  501 -0.34643860708E+02  0.14618130921E+02 -0.14581222163E+02  0.40329875726E+02  0.00000000000E+00 0.  1.
         21    1    1    2  503  502  0.34643860708E+02 -0.14618130921E+02  0.74151700401E+03  0.74246976644E+03  0.00000000000E+00 0. -1.
</event>
<event>
 4    1  0.5452128E+002  0.2861894E+02  0.7546771E-02  0.1431990E+00
          2   -1    0    0  503    0  0.00000000000E+00  0.00000000000E+00  0.23530795711E+01  0.23530795711E+01  0.00000000000E+00 0. -1.
         -2   -1    0    0    0  501 -0.00000000000E+00 -0.00000000000E+00 -0.54439093941E+03  0.54439093941E+03  0.00000000000E+00 0.  1.
         21    1    1    2  502  501  0.22928962646E+02 -0.17126196796E+02 -0.43518309764E+03  0.43612311612E+03  0.00000000000E+00 0.  1.
         21    1    1    2  503  502 -0.22928962646E+02  0.17126196796E+02 -0.10685476220E+03  0.11062090286E+03  0.00000000000E+00 0. -1.
</event>
<event>
 4    1  0.5452128E+002  0.2642456E+02  0.7546771E-02  0.1453476E+00
          2   -1    0    0  503    0  0.00000000000E+00  0.00000000000E+00  0.25662525888E+01  0.25662525888E+01  0.00000000000E+00 0. -1.
         -2   -1    0    0    0  501 -0.00000000000E+00 -0.00000000000E+00 -0.27322578043E+03  0.27322578043E+03  0.00000000000E+00 0.  1.
         21    1    1    2  502  501  0.21638805473E+02  0.15166397728E+02 -0.12644795555E+03  0.12917949909E+03  0.00000000000E+00 0.  1.
         21    1    1    2  503  502 -0.21638805473E+02 -0.15166397728E+02 -0.14421157229E+03  0.14661253392E+03  0.00000000000E+00 0. -1.
</event>
<event>
 4    1  0.5452128E+002  0.2157600E+02  0.7546771E-02  0.1511198E+00
          2   -1    0    0  502    0  0.00000000000E+00  0.00000000000E+00  0.16733718211E+02  0.16733718211E+02  0.00000000000E+00 0.  1.
         -2   -1    0    0    0  501 -0.00000000000E+00 -0.00000000000E+00 -0.28104274837E+02  0.28104274837E+02  0.00000000000E+00 0. -1.
         21    1    1    2  502  503  0.81971256276E+01 -0.19958226352E+02 -0.34285407305E+01  0.21846705912E+02  0.00000000000E+00 0. -1.
         21    1    1    2  503  501 -0.81971256276E+01  0.19958226352E+02 -0.79420158957E+01  0.22991287136E+02  0.00000000000E+00 0.  1.
</event>
<event>
 4    1  0.5452128E+002  0.3688787E+02  0.7546771E-02  0.1367756E+00
          2   -1    0    0  502    0  0.00000000000E+00  0.00000000000E+00  0.90343165020E+03  0.90343165020E+03  0.00000000000E+00 0.  1.
         -2   -1    0    0    0  501 -0.00000000000E+00 -0.00000000000E+00 -0.10547823629E+02  0.10547823629E+02  0.00000000000E+00 0. -1.
         21    1    1    2  502  503  0.32095522130E+02  0.18182202854E+02  0.86954785647E+03  0.87032993154E+03  0.00000000000E+00 0.  1.
         21    1    1    2  503  501 -0.32095522130E+02 -0.18182202854E+02  0.23335970096E+02  0.43649542285E+02  0.00000000000E+00 0. -1.
</event>
<event>
 4    1  0.5452128E+002  0.2819048E+02  0.7546771E-02  0.1436003E+00
          2   -1    0    0  503    0  0.00000000000E+00  0.00000000000E+00  0.36607950419E+03  0.36607950419E+03  0.00000000000E+00 0. -1.
         -2   -1    0    0    0  501 -0.00000000000E+00 -0.00000000000E+00 -0.78079486674E+01  0.78079486674E+01  0.00000000000E+00 0.  1.
         21    1    1    2  502  501 -0.24964423776E+02 -0.13095062442E+02  0.20291966231E+02  0.34734233954E+02  0.00000000000E+00 0.  1.
         21    1    1    2  503  502  0.24964423776E+02  0.13095062442E+02  0.33797958929E+03  0.33915321890E+03  0.00000000000E+00 0. -1.
</event>
<event>
 4    1  0.5452128E+002  0.3256339E+02  0.7546771E-02  0.1398553E+00
          2   -1    0    0  502    0  0.00000000000E+00  0.00000000000E+00  0.54476115636E+03  0.54476115636E+03  0.00000000000E+00 0.  1.
         -2   -1    0    0    0  501 -0.00000000000E+00 -0.00000000000E+00 -0.19603769121E+01  0.19603769121E+01  0.00000000000E+00 0. -1.
         21    1    1    2  502  503  0.14884734914E+00  0.32563050297E+02  0.29440444720E+03  0.29619985302E+03  0.00000000000E+00 0. -1.
         21    1    1    2  503  501 -0.14884734914E+00 -0.32563050297E+02  0.24839633225E+03  0.25052168025E+03  0.00000000000E+00 0.  1.
</event>
<event>
 4    1  0.5452128E+002  0.2797931E+02  0.7546771E-02  0.1438011E+00
          2   -1    0    0  503    0  0.00000000000E+00  0.00000000000E+00  0.43836159359E+02  0.43836159359E+02  0.00000000000E+00 0.  1.
         -2   -1    0    0    0  501 -0.00000000000E+00 -0.00000000000E+00 -0.25444146940E+02  0.25444146940E+02  0.00000000000E+00 0. -1.
         21    1    1    2  502  501 -0.26731730896E+02  0.82617545363E+01 -0.97181122432E+01  0.29618975848E+02  0.00000000000E+00 0. -1.
         21    1    1    2  503  502  0.26731730896E+02 -0.82617545363E+01  0.28110124661E+02  0.39661330451E+02  0.00000000000E+00 0.  1.
</event>
<event>
 4    1  0.5452128E+002  0.2266731E+02  0.7546771E-02  0.1496719E+00
          2   -1    0    0  502    0  0.00000000000E+00  0.00000000000E+00  0.18556322323E+03  0.18556322323E+03  0.00000000000E+00 0. -1.
         -2   -1    0    0    0  501 -0.00000000000E+00 -0.00000000000E+00 -0.31446000239E+01  0.31446000239E+01  0.00000000000E+00 0.  1.
         21    1    1    2  502  503 -0.17819996282E+02 -0.14009085172E+02  0.12382267221E+03  0.12588034354E+03  0.00000000000E+00 0. -1.
         21    1    1    2  503  501  0.17819996282E+02  0.14009085172E+02  0.58595950991E+02  0.62827479715E+02  0.00000000000E+00 0.  1.
</event>
<event>
 4    1  0.5452128E+002  0.2542280E+02  0.7546771E-02  0.1464129E+00
          2   -1    0    0  503    0  0.00000000000E+00  0.00000000000E+00  0.22667704926E+02  0.22667704926E+02  0.00000000000E+00 0. -1.
         -2   -1    0    0    0  501 -0.00000000000E+00 -0.00000000000E+00 -0.29334748855E+02  0.29334748855E+02  0.00000000000E+00 0.  1.
         21    1    1    2  502  501  0.73528864080E+01  0.24336261942E+02  0.10189751355E+01  0.25443209196E+02  0.00000000000E+00 0. -1.
         21    1    1    2  503  502 -0.73528864080E+01 -0.24336261942E+02 -0.76860190653E+01  0.26559244585E+02  0.00000000000E+00 0.  1.
</event>
<event>
 4    1  0.5452128E+002  0.2248855E+02  0.7546771E-02  0.1499022E+00
          2   -1    0    0  502    0  0.00000000000E+00  0.00000000000E+00  0.93359652744E+03  0.93359652744E+03  0.00000000000E+00 0. -1.
         -2   -1    0    0    0  501 -0.00000000000E+00 -0.00000000000E+00 -0.93727051739E+00  0.93727051739E+00  0.00000000000E+00 0.  1.
         21    1    1    2  502  503 -0.18331967143E+02 -0.13025884597E+02  0.76988735523E+03  0.77021573240E+03  0.00000000000E+00 0. -1.
         21    1    1    2  503  501  0.18331967143E+02  0.13025884597E+02  0.16277190169E+03  0.16431806556E+03  0.00000000000E+00 0.  1.
</event>
<event>
 4    1  0.5452128E+002  0.5539677E+02  0.7546771E-02  0.1276329E+00
          2   -1    0    0  502    0  0.00000000000E+00  0.00000000000E+00  0.46034442283E+03  0.46034442283E+03  0.00000000000E+00 0. -1.
         -2   -1    0    0    0  501 -0.00000000000E+00 -0.00000000000E+00 -0.12144505751E+02  0.12144505751E+02  0.00000000000E+00 0.  1.
         21    1    1    2  502  503  0.45313522980E+01 -0.55211128176E+02  0.38276827597E+03  0.38675619570E+03  0.00000000000E+00 0. -1.
         21    1    1    2  503  501 -0.45313522980E+01  0.55211128176E+02  0.65431641117E+02  0.85732732882E+02  0.00000000000E+00 0.  1.
</event>
<event>
 4    1  0.5452128E+002  0.3697790E+02  0.7546771E-02  0.1367167E+00
          2   -1    0    0  503    0  0.00000000000E+00  0.00000000000E+00  0.22177685302E+02  0.22177685302E+02  0.00000000000E+00 0. -1.
         -2   -1    0    0    0  501 -0.00000000000E+00 -0.00000000000E+00 -0.73119439673E+02  0.73119439673E+02  0.00000000000E+00 0.  1.
         21    1    1    2  502  501 -0.36590773239E+02 -0.53366944411E+01 -0.44338185983E+02  0.57734216285E+02  0.00000000000E+00 0.  1.
         21    1    1    2  503  502  0.36590773239E+02  0.53366944411E+01 -0.66035683886E+01  0.37562908690E+02  0.00000000000E+00 0. -1.
</event>
<event>
 4    1  0.5452128E+002  0.2966156E+02  0.7546771E-02  0.1422561E+00
          2   -1    0    0  503    0  0.00000000000E+00  0.00000000000E+00  0.21316864795E+04  0.21316864795E+04  0.00000000000E+00 0. -1.
         -2   -1    0    0    0  501 -0.00000000000E+00 -0.00000000000E+00 -0.57022455337E+00  0.57022455337E+00  0.00000000000E+00 0.  1.
         21    1    1    2  502  501  0.24964712993E+02  0.16017841337E+02  0.50525746927E+03  0.50612737368E+03  0.00000000000E+00 0.  1.
         21    1    1    2  503  502 -0.24964712993E+02 -0.16017841337E+02  0.16258587857E+04  0.16261293304E+04  0.00000000000E+00 0. -1.
</event>
<event>
 4    1  0.5452128E+002  0.2102874E+02  0.7546771E-02  0.1518855E+00
          2   -1    0    0  503    0  0.00000000000E+00  0.00000000000E+00  0.12795343356E+04  0.12795343356E+04  0.00000000000E+00 0. -1.
         -2   -1    0    0    0  501 -0.00000000000E+00 -0.00000000000E+00 -0.81312595771E+00  0.81312595771E+00  0.00000000000E+00 0.  1.
         21    1    1    2  502  501 -0.41628005906E-01 -0.21028696235E+02  0.15393628024E+03  0.15536597495E+03  0.00000000000E+00 0.  1.
         21    1    1    2  503  502  0.41628005906E-01  0.21028696235E+02  0.11247849295E+04  0.11249814867E+04  0.00000000000E+00 0. -1.
</event>
<event>
 4    1  0.5452128E+002  0.2382000E+02  0.7546771E-02  0.1482450E+00
          2   -1    0    0  502    0  0.00000000000E+00  0.00000000000E+00  0.31448540041E+02  0.31448540041E+02  0.00000000000E+00 0. -1.
         -2   -1    0    0    0  501 -0.00000000000E+00 -0.00000000000E+00 -0.21114229925E+02  0.21114229925E+02  0.00000000000E+00 0.  1.
         21    1    1    2  502  503 -0.67966171212E+01  0.22829774144E+02  0.15192328724E+02  0.28252423680E+02  0.00000000000E+00 0. -1.
         21    1    1    2  503  501  0.67966171212E+01 -0.22829774144E+02 -0.48580186088E+01  0.24310346286E+02  0.00000000000E+00 0.  1.
</event>
<event>
 4    1  0.5452128E+002  0.3906680E+02  0.7546771E-02  0.1354043E+00
          2   -1    0    0  502    0  0.00000000000E+00  0.00000000000E+00  0.22271309889E+03  0.22271309889E+03  0.00000000000E+00 0. -1.
         -2   -1    0    0    0  501 -0.00000000000E+00 -0.00000000000E+00 -0.75913104532E+01  0.75913104532E+01  0.00000000000E+00 0.  1.
         21    1    1    2  502  503  0.23925719568E-01  0.39066791428E+02  0.14347654174E+03  0.14870014390E+03  0.00000000000E+00 0.  1.
         21    1    1    2  503  501 -0.23925719568E-01 -0.39066791428E+02  0.71645246694E+02  0.81604265444E+02  0.00000000000E+00 0. -1.
</event>
<event>
 4    1  0.5452128E+002  0.2345490E+02  0.7546771E-02  0.1486864E+00
          2   -1    0    0  502    0  0.00000000000E+00  0.00000000000E+00  0.14610968996E+04  0.14610968996E+04  0.00000000000E+00 0.  1.
         -2   -1    0    0    0  501 -0.00000000000E+00 -0.00000000000E+00 -0.44291766917E+00  0.44291766917E+00  0.00000000000E+00 0. -1.
         21    1    1    2  502  503  0.77185332289E+01 -0.22148515164E+02  0.10132673860E+04  0.10135388142E+04  0.00000000000E+00 0.  1.
         21    1    1    2  503  501 -0.77185332289E+01  0.22148515164E+02  0.44738659595E+03  0.44800100303E+03  0.00000000000E+00 0. -1.
</event>
<event>
 4    1  0.5452128E+002  0.2795920E+02  0.7546771E-02  0.1438204E+00
          2   -1    0    0  502    0  0.00000000000E+00  0.00000000000E+00  0.10528877166E+03  0.10528877166E+03  0.00000000000E+00 0. -1.
         -2   -1    0    0    0  501 -0.00000000000E+00 -0.00000000000E+00 -0.48687413640E+02  0.48687413640E+02  0.00000000000E+00 0.  1.
         21    1    1    2  502  503 -0.24839663488E+02  0.12833859095E+02  0.99176015967E+02  0.10304173409E+03  0.00000000000E+00 0. -1.
         21    1    1    2  503  501  0.24839663488E+02 -0.12833859095E+02 -0.42574657943E+02  0.50934451213E+02  0.00000000000E+00 0.  1.
</event>
<event>
 4    1  0.5452128E+002  0.2549161E+02  0.7546771E-02  0.1463378E+00
          2   -1    0    0  502    0  0.00000000000E+00  0.00000000000E+00  0.10905616190E+04  0.10905616190E+04  0.00000000000E+00 0. -1.
         -2   -1    0    0    0  501 -0.00000000000E+00 -0.00000000000E+00 -0.11817448760E+01  0.11817448760E+01  0.00000000000E+00 0.  1.
         21    1    1    2  502  503 -0.25490128359E+02  0.27449776758E+00  0.92904699727E+03  0.92939665650E+03  0.00000000000E+00 0. -1.
         21    1    1    2  503  501  0.25490128359E+02 -0.27449776758E+00  0.16033287685E+03  0.16234670736E+03  0.00000000000E+00 0.  1.
</event>
<event>
 4    1  0.5452128E+002  0.2184062E+02  0.7546771E-02  0.1507593E+00
          2   -1    0    0  502    0  0.00000000000E+00  0.00000000000E+00  0.57374840856E+02  0.57374840856E+02  0.00000000000E+00 0.  1.
         -2   -1    0    0    0  501 -0.00000000000E+00 -0.00000000000E+00 -0.86817682496E+01  0.86817682496E+01  0.00000000000E+00 0. -1.
         21    1    1    2  502  503 -0.19700831129E+02  0.94281368093E+01  0.31144659324E+02  0.38039483636E+02  0.00000000000E+00 0. -1.
         21    1    1    2  503  501  0.19700831129E+02 -0.94281368093E+01  0.17548413282E+02  0.28017125470E+02  0.00000000000E+00 0.  1.
</event>
<event>
 4    1  0.5452128E+002  0.2096787E+02  0.7546771E-02  0.1519724E+00
          2   -1    0    0  502    0  0.00000000000E+00  0.00000000000E+00  0.72814291792E+03  0.72814291792E+03  0.00000000000E+00 0. -1.
         -2   -1    0    0    0  501 -0.00000000000E+00 -0.00000000000E+00 -0.60404115316E+00  0.60404115316E+00  0.00000000000E+00 0.  1.
         21    1    1    2  502  503 -0.11739661293E+02 -0.17373315307E+02  0.37106982985E+03  0.37166176876E+03  0.00000000000E+00 0. -1.
         21    1    1    2  503  501  0.11739661293E+02  0.17373315307E+02  0.35646904692E+03  0.35708519032E+03  0.00000000000E+00 0.  1.
</event>
<event>
 4    1  0.5452128E+002  0.3004245E+02  0.7546771E-02  0.1419228E+00
          2   -1    0    0  502    0  0.00000000000E+00  0.00000000000E+00  0.23773608979E+03  0.23773608979E+03  0.00000000000E+00 0. -1.
         -2   -1    0    0    0  501 -0.00000000000E+00 -0.00000000000E+00 -0.48975345352E+01  0.48975345352E+01  0.00000000000E+00 0.  1.
         21    1    1    2  502  503 -0.23030889700E+02  0.19290596582E+02  0.17394287479E+03  0.17651819365E+03  0.00000000000E+00 0.  1.
         21    1    1    2  503  501  0.23030889700E+02 -0.19290596582E+02  0.58895680466E+02  0.66115430683E+02  0.00000000000E+00 0. -1.
</event>
<event>
 4    1  0.5452128E+002  0.2283115E+02  0.7546771E-02  0.1494629E+00
          2   -1    0    0  503    0  0.00000000000E+00  0.00000000000E+00  0.99356664997E+02  0.99356664997E+02  0.00000000000E+00 0.  1.
         -2   -1    0    0    0  501 -0.00000000000E+00 -0.00000000000E+00 -0.72982772678E+01  0.72982772678E+01  0.00000000000E+00 0. -1.
         21    1    1    2  502  501  0.17831950683E+02  0.14257735090E+02  0.74305329045E+02  0.77733798309E+02  0.00000000000E+00 0.  1.
         21    1    1    2  503  502 -0.17831950683E+02 -0.14257735090E+02  0.17753058685E+02  0.28921143956E+02  0.00000000000E+00 0. -1.
</event>
<event>
 4    1  0.5452128E+002  0.2468474E+02  0.7546771E-02  0.1472361E+00
          2   -1    0    0  503    0  0.00000000000E+00  0.00000000000E+00  0.39195265267E+03  0.39195265267E+03  0.00000000000E+00 0. -1.
         -2   -1    0    0    0  501 -0.00000000000E+00 -0.00000000000E+00 -0.17916753267E+01  0.17916753267E+01  0.00000000000E+00 0.  1.
         21    1    1    2  502  501  0.11018671717E+02 -0.22089035157E+02  0.12346920431E+03  0.12591259275E+03  0.00000000000E+00 0.  1.
         21    1    1    2  503  502 -0.11018671717E+02  0.22089035157E+02  0.26669177303E+03  0.26783173524E+03  0.00000000000E+00 0. -1.
</event>
<event>
 4    1  0.5452128E+002  0.2258834E+02  0.7546771E-02  0.1497733E+00
          2   -1    0    0  503    0  0.00000000000E+00  0.00000000000E+00  0.54627386636E+02  0.54627386636E+02  0.00000000000E+00 0.  1.
         -2   -1    0    0    0  501 -0.00000000000E+00 -0.00000000000E+00 -0.14154776980E+02  0.14154776980E+02  0.00000000000E+00 0. -1.
         21    1    1    2  502  501 -0.20751963500E+02  0.89212693764E+01  0.17905084616E+00  0.22589048134E+02  0.00000000000E+00 0. -1.
         21    1    1    2  503  502  0.20751963500E+02 -0.89212693764E+01  0.40293558809E+02  0.46193115482E+02  0.00000000000E+00 0.  1.
</event>
<event>
 4    1  0.5452128E+002  0.6375557E+02  0.7546771E-02  0.1247580E+00
          2   -1    0    0  503    0  0.00000000000E+00  0.00000000000E+00  0.37177430430E+03  0.37177430430E+03  0.00000000000E+00 0.  1.
         -2   -1    0    0    0  501 -0.00000000000E+00 -0.00000000000E+00 -0.14930161762E+02  0.14930161762E+02  0.00000000000E+00 0. -1.
         21    1    1    2  502  501 -0.55397305221E+02 -0.31558055362E+02  0.78383182513E+02  0.10103808977E+03  0.00000000000E+00 0. -1.
         21    1    1    2  503  502  0.55397305221E+02  0.31558055362E+02  0.27846096003E+03  0.28566637629E+03  0.00000000000E+00 0.  1.
</event>
<event>
 4    1  0.5452128E+002  0.2154329E+02  0.7546771E-02  0.1511648E+00
          2   -1    0    0  503    0  0.00000000000E+00  0.00000000000E+00  0.45757775956E+02  0.45757775956E+02  0.00000000000E+00 0. -1.
         -2   -1    0    0    0  501 -0.00000000000E+00 -0.00000000000E+00 -0.23564877518E+02  0.23564877518E+02  0.00000000000E+00 0.  1.
         21    1    1    2  502  501  0.13950925243E+02  0.16415994578E+02 -0.15062604382E+02  0.26286788391E+02  0.00000000000E+00 0.  1.
         21    1    1    2  503  502 -0.13950925243E+02 -0.16415994578E+02  0.37255502820E+02  0.43035865084E+02  0.00000000000E+00 0. -1.
</event>
<event>
 4    1  0.5452128E+002  0.3281723E+02  0.7546771E-02  0.1396594E+00
          2   -1    0    0  503    0  0.00000000000E+00  0.00000000000E+00  0.66312337772E+03  0.66312337772E+03  0.00000000000E+00 0. -1.
         -2   -1    0    0    0  501 -0.00000000000E+00 -0.00000000000E+00 -0.27996792830E+03  0.27996792830E+03  0.00000000000E+00 0.  1.
         21    1    1    2  502  501 -0.14066562692E+02 -0.29649661515E+02 -0.27859822599E+03  0.28052440560E+03  0.00000000000E+00 0.  1.
         21    1    1    2  503  502  0.14066562692E+02  0.29649661515E+02  0.66175367541E+03  0.66256690042E+03  0.00000000000E+00 0. -1.
</event>
<event>
 4    1  0.5452128E+002  0.2560213E+02  0.7546771E-02  0.1462179E+00
          2   -1    0    0  503    0  0.00000000000E+00  0.00000000000E+00  0.16496945055E+04  0.16496945055E+04  0.00000000000E+00 0.  1.
         -2   -1    0    0    0  501 -0.00000000000E+00 -0.00000000000E+00 -0.50068645737E+00  0.50068645737E+00  0.00000000000E+00 0. -1.
         21    1    1    2  502  501 -0.25144113142E+02 -0.48210511599E+01  0.44971325745E+03  0.45044143114E+03  0.00000000000E+00 0. -1.
         21    1    1    2  503  502  0.25144113142E+02  0.48210511599E+01  0.11994805616E+04  0.11997537608E+04  0.00000000000E+00 0.  1.
</event>
<event>
 4    1  0.5452128E+002  0.2285611E+02  0.7546771E-02  0.1494313E+00
          2   -1    0    0  503    0  0.00000000000E+00  0.00000000000E+00  0.27499468912E+02  0.27499468912E+02  0.00000000000E+00 0. -1.
         -2   -1    0    0    0  501 -0.00000000000E+00 -0.00000000000E+00 -0.75259774799E+02  0.75259774799E+02  0.00000000000E+00 0.  1.
         21    1    1    2  502  501 -0.18618093816E+01  0.22780153865E+02 -0.68304475650E+02  0.72027100025E+02  0.00000000000E+00 0.  1.
         21    1    1    2  503  502  0.18618093816E+01 -0.22780153865E+02  0.20544169763E+02  0.30732143685E+02  0.00000000000E+00 0. -1.
</event>
<event>
 4    1  0.5452128E+002  0.4286802E+02  0.7546771E-02  0.1332452E+00
          2   -1    0    0  502    0  0.00000000000E+00  0.00000000000E+00  0.40308703176E+03  0.40308703176E+03  0.00000000000E+00 0. -1.
         -2   -1    0    0    0  501 -0.00000000000E+00 -0.00000000000E+00 -0.70615954341E+01  0.70615954341E+01  0.00000000000E+00 0.  1.
         21    1    1    2  502  503  0.21056678124E+02  0.37340099982E+02  0.32009613755E+03  0.32295387292E+03  0.00000000000E+00 0. -1.
         21    1    1    2  503  501 -0.21056678124E+02 -0.37340099982E+02  0.75929298784E+02  0.87194754281E+02  0.00000000000E+00 0.  1.
</event>
<event>
 4    1  0.5452128E+002  0.2018112E+02  0.7546771E-02  0.1531285E+00
          2   -1    0    0  503    0  0.00000000000E+00  0.00000000000E+00  0.74663506947E+03  0.74663506947E+03  0.00000000000E+00 0.  1.
         -2   -1    0    0    0  501 -0.00000000000E+00 -0.00000000000E+00 -0.83573746943E+00  0.83573746943E+00  0.00000000000E+00 0. -1.
         21    1    1    2  502  501 -0.81487059528E+01  0.18462836490E+02  0.15264873307E+03  0.15397699000E+03  0.00000000000E+00 0. -1.
         21    1    1    2  503  502  0.81487059528E+01 -0.18462836490E+02  0.59315059893E+03  0.59349381694E+03  0.00000000000E+00 0.  1.
</event>
<event>
 4    1  0.5452128E+002  0.2369232E+02  0.7546771E-02  0.1483983E+00
          2   -1    0    0  503    0  0.00000000000E+00  0.00000000000E+00  0.95497354275E+02  0.95497354275E+02  0.00000000000E+00 0.  1.
         -2   -1    0    0    0  501 -0.00000000000E+00 -0.00000000000E+00 -0.75243514754E+01  0.75243514754E+01  0.00000000000E+00 0. -1.
         21    1    1    2  502  501 -0.22258814337E+02  0.81161047067E+01  0.19891008815E+02  0.30935064295E+02  0.00000000000E+00 0. -1.
         21    1    1    2  503  502  0.22258814337E+02 -0.81161047067E+01  0.68081993985E+02  0.72086641455E+02  0.00000000000E+00 0.  1.
</event>
<event>
 4    1  0.5452128E+002  0.3172261E+02  0.7546771E-02  0.1405195E+00
          2   -1    0    0  502    0  0.00000000000E+00  0.00000000000E+00  0.18520921058E+03  0.18520921058E+03  0.00000000000E+00 0.  1.
         -2   -1    0    0    0  501 -0.00000000000E+00 -0.00000000000E+00 -0.18166436309E+02  0.18166436309E+02  0.00000000000E+00 0. -1.
         21    1    1    2  502  503 -0.87443091118E+00  0.31710555483E+02  0.16865465652E+03  0.17161211241E+03  0.00000000000E+00 0.  1.
         21    1    1    2  503  501  0.87443091118E+00 -0.31710555483E+02 -0.16118822493E+01  0.31763534483E+02  0.00000000000E+00 0. -1.
</event>
<event>
 4    1  0.5452128E+002  0.3100109E+02  0.7546771E-02  0.1411092E+00
          2   -1    0    0  502    0  0.00000000000E+00  0.00000000000E+00  0.52548812777E+02  0.52548812777E+02  0.00000000000E+00 0.  1.
         -2   -1    0    0    0  501 -0.00000000000E+00 -0.00000000000E+00 -0.25726392338E+02  0.25726392338E+02  0.00000000000E+00 0. -1.
         21    1    1    2  502  503  0.24783028341E+02 -0.18624428286E+02  0.34454502322E+02  0.46348468723E+02  0.00000000000E+00 0.  1.
         21    1    1    2  503  501 -0.24783028341E+02  0.18624428286E+02 -0.76320818827E+01  0.31926736392E+02  0.00000000000E+00 0. -1.
</event>
<event>
 4    1  0.5452128E+002  0.2485872E+02  0.7546771E-02  0.1470390E+00
          2   -1    0    0  503    0  0.00000000000E+00  0.00000000000E+00  0.79265462079E+02  0.79265462079E+02  0.00000000000E+00 0.  1.
         -2   -1    0    0    0  501 -0.00000000000E+00 -0.00000000000E+00 -0.97686931762E+01  0.97686931762E+01  0.00000000000E+00 0. -1.
         21    1    1    2  502  501  0.24851891428E+02 -0.58259269010E+00  0.14743553806E+02  0.28902046651E+02  0.00000000000E+00 0. -1.
         21    1    1    2  503  502 -0.24851891428E+02  0.58259269010E+00  0.54753215098E+02  0.60132108605E+02  0.00000000000E+00 0.  1.
</event>
<event>
 4    1  0.5452128E+002  0.2114822E+02  0.7546771E-02  0.1517159E+00
          2   -1    0    0  503    0  0.00000000000E+00  0.00000000000E+00  0.17684481375E+02  0.17684481375E+02  0.00000000000E+00 0.  1.
         -2   -1    0    0    0  501 -0.00000000000E+00 -0.00000000000E+00 -0.17160778879E+03  0.17160778879E+03  0.00000000000E+00 0. -1.
         21    1    1    2  502  501  0.17476291677E+02 -0.11909097490E+02 -0.16435580658E+03  0.16571082804E+03  0.00000000000E+00 0. -1.
         21    1    1    2  503  502 -0.17476291677E+02  0.11909097490E+02  0.10432499164E+02  0.23581442123E+02  0.00000000000E+00 0.  1.
</event>
<event>
 4    1  0.5452128E+002  0.2757392E+02  0.7546771E-02  0.1441927E+00
          2   -1    0    0  502    0  0.00000000000E+00  0.00000000000E+00  0.17238942620E+04  0.17238942620E+04  0.00000000000E+00 0. -1.
         -2   -1    0    0    0  501 -0.00000000000E+00 -0.00000000000E+00 -0.46346790175E+00  0.46346790175E+00  0.00000000000E+00 0.  1.
         21    1    1    2  502  503 -0.12667190617E+02 -0.24492102829E+02  0.10513425158E+04  0.10517040489E+04  0.00000000000E+00 0.  1.
         21    1    1    2  503  501  0.12667190617E+02  0.24492102829E+02  0.67208827830E+03  0.67265368107E+03  0.00000000000E+00 0. -1.
</event>
<event>
 4    1  0.5452128E+002  0.2705486E+02  0.7546771E-02  0.1447058E+00
          2   -1    0    0  503    0  0.00000000000E+00  0.00000000000E+00  0.25682854852E+03  0.25682854852E+03  0.00000000000E+00 0.  1.
         -2   -1    0    0    0  501 -0.00000000000E+00 -0.00000000000E+00 -0.14208616615E+02  0.14208616615E+02  0.00000000000E+00 0. -1.
         21    1    1    2  502  501  0.26098754701E+02 -0.71288294713E+01  0.14267807451E+00  0.27055231723E+02  0.00000000000E+00 0. -1.
         21    1    1    2  503  502 -0.26098754701E+02  0.71288294713E+01  0.24247725383E+03  0.24398193341E+03  0.00000000000E+00 0.  1.
</event>
<event>
 4    1  0.5452128E+002  0.5511729E+02  0.7546771E-02  0.1277390E+00
          2   -1    0    0  503    0  0.00000000000E+00  0.00000000000E+00  0.45970877103E+02  0.45970877103E+02  0.00000000000E+00 0. -1.
         -2   -1    0    0    0  501 -0.00000000000E+00 -0.00000000000E+00 -0.17716329781E+03  0.17716329781E+03  0.00000000000E+00 0.  1.
         21    1    1    2  502  501 -0.25032947259E+02 -0.49104660481E+02 -0.15393811775E+03  0.16350798215E+03  0.00000000000E+00 0.  1.
         21    1    1    2  503  502  0.25032947259E+02  0.49104660481E+02  0.22745697045E+02  0.59626192764E+02  0.00000000000E+00 0. -1.
</event>
<event>
 4    1  0.5452128E+002  0.2962486E+02  0.7546771E-02  0.1422885E+00
          2   -1    0    0  503    0  0.00000000000E+00  0.00000000000E+00  0.32404064329E+03  0.32404064329E+03  0.00000000000E+00 0. -1.
         -2   -1    0    0    0  501 -0.00000000000E+00 -0.00000000000E+00 -0.27709737274E+01  0.27709737274E+01  0.00000000000E+00 0.  1.
         21    1    1    2  502  501 -0.23615779414E+02  0.17886518476E+02  0.18518970462E+03  0.18754428618E+03  0.00000000000E+00 0. -1.
         21    1    1    2  503  502  0.23615779414E+02 -0.17886518476E+02  0.13607996494E+03  0.13926733084E+03  0.00000000000E+00 0.  1.
</event>
<event>
 4    1  0.5452128E+002  0.3541084E+02  0.7546771E-02  0.1377698E+00
          2   -1    0    0  503    0  0.00000000000E+00  0.00000000000E+00  0.19975704814E+02  0.19975704814E+02  0.00000000000E+00 0.  1.
         -2   -1    0    0    0  501 -0.00000000000E+00 -0.00000000000E+00 -0.11684006987E+03  0.11684006987E+03  0.00000000000E+00 0. -1.
         21    1    1    2  502  501  0.17810050894E+02 -0.30606034354E+02 -0.94967023334E+02  0.10135414532E+03  0.00000000000E+00 0. -1.
         21    1    1    2  503  502 -0.17810050894E+02  0.30606034354E+02 -0.18973417207E+01  0.35461629367E+02  0.00000000000E+00 0.  1.
</event>
<event>
 4    1  0.5452128E+002  0.2694669E+02  0.7546771E-02  0.1448144E+00
          2   -1    0    0  503    0  0.00000000000E+00  0.00000000000E+00  0.12451207601E+03  0.12451207601E+03  0.00000000000E+00 0.  1.
         -2   -1    0    0    0  501 -0.00000000000E+00 -0.00000000000E+00 -0.59968718545E+01  0.59968718545E+01  0.00000000000E+00 0. -1.
         21    1    1    2  502  501  0.17918461878E+02 -0.20125924141E+02  0.48429764193E+02  0.55421711976E+02  0.00000000000E+00 0. -1.
         21    1    1    2  503  502 -0.17918461878E+02  0.20125924141E+02  0.70085439960E+02  0.75087235886E+02  0.00000000000E+00 0.  1.
</event>
<event>
 4    1  0.5452128E+002  0.3724005E+02  0.7546771E-02  0.1365465E+00
          2   -1    0    0  503    0  0.00000000000E+00  0.00000000000E+00  0.46583845347E+03  0.46583845347E+03  0.00000000000E+00 0.  1.
         -2   -1    0    0    0  501 -0.00000000000E+00 -0.00000000000E+00 -0.32650531659E+01  0.32650531659E+01  0.00000000000E+00 0. -1.
         21    1    1    2  502  501  0.30159761325E+02 -0.21845137929E+02  0.30094890649E+03  0.30324423420E+03  0.00000000000E+00 0.  1.
         21    1    1    2  503  502 -0.30159761325E+02  0.21845137929E+02  0.16162449381E+03  0.16585927244E+03  0.00000000000E+00 0. -1.
</event>
<event>
 4    1  0.5452128E+002  0.2521818E+02  0.7546771E-02  0.1466377E+00
          2   -1    0    0  502    0  0.00000000000E+00  0.00000000000E+00  0.18475554423E+04  0.18475554423E+04  0.00000000000E+00 0.  1.
         -2   -1    0    0    0  501 -0.00000000000E+00 -0.00000000000E+00 -0.60844246727E+00  0.60844246727E+00  0.00000000000E+00 0. -1.
         21    1    1    2  502  503  0.15855377849E+02  0.19610299294E+02  0.15324344740E+04  0.15326419588E+04  0.00000000000E+00 0.  1.
         21    1    1    2  503  501 -0.15855377849E+02 -0.19610299294E+02  0.31451252585E+03  0.31552192596E+03  0.00000000000E+00 0. -1.
</event>
<event>
 4    1  0.5452128E+002  0.4324220E+02  0.7546771E-02  0.1330467E+00
          2   -1    0    0  502    0  0.00000000000E+00  0.00000000000E+00  0.14275039595E+04  0.14275039595E+04  0.00000000000E+00 0. -1.
         -2   -1    0    0    0  501 -0.00000000000E+00 -0.00000000000E+00 -0.14089741731E+01  0.14089741731E+01  0.00000000000E+00 0.  1.
         21    1    1    2  502  503  0.16102518040E+02  0.40132238192E+02  0.90250167062E+03  0.90353702365E+03  0.00000000000E+00 0. -1.
         21    1    1    2  503  501 -0.16102518040E+02 -0.40132238192E+02  0.52359331467E+03  0.52537590999E+03  0.00000000000E+00 0.  1.
</event>
<event>
 4    1  0.5452128E+002  0.2623949E+02  0.7546771E-02  0.1455401E+00
          2   -1    0    0  502    0  0.00000000000E+00  0.00000000000E+00  0.15909920077E+02  0.15909920077E+02  0.00000000000E+00 0. -1.
         -2   -1    0    0    0  501 -0.00000000000E+00 -0.00000000000E+00 -0.52605964395E+02  0.52605964395E+02  0.00000000000E+00 0.  1.
         21    1    1    2  502  503  0.11765135418E+02  0.23454051557E+02 -0.39204367247E+01  0.26530751402E+02  0.00000000000E+00 0. -1.
         21    1    1    2  503  501 -0.11765135418E+02 -0.23454051557E+02 -0.32775607593E+02  0.41985133070E+02  0.00000000000E+00 0.  1.
</event>
<event>
 4    1  0.5452128E+002  0.2706894E+02  0.7546771E-02  0.1446917E+00
          2   -1    0    0  503    0  0.00000000000E+00  0.00000000000E+00  0.71199719602E+03  0.71199719602E+03  0.00000000000E+00 0.  1.
         -2   -1    0    0    0  501 -0.00000000000E+00 -0.00000000000E+00 -0.11036540134E+01  0.11036540134E+01  0.00000000000E+00 0. -1.
         21    1    1    2  502  501  0.26484973917E+02  0.55923026596E+01  0.26278652500E+03  0.26417699637E+03  0.00000000000E+00 0. -1.
         21    1    1    2  503  502 -0.26484973917E+02 -0.55923026596E+01  0.44810701701E+03  0.44892385366E+03  0.00000000000E+00 0.  1.
</event>
<event>
 4    1  0.5452128E+002  0.2202869E+02  0.7546771E-02  0.1505069E+00
          2   -1    0    0  503    0  0.00000000000E+00  0.00000000000E+00  0.38533611758E+02  0.38533611758E+02  0.00000000000E+00 0.  1.
         -2   -1    0    0    0  501 -0.00000000000E+00 -0.00000000000E+00 -0.15193568722E+02  0.15193568722E+02  0.00000000000E+00 0. -1.
         21    1    1    2  502  501 -0.82031385570E+01  0.20444360259E+02  0.55660545989E+00  0.22035724590E+02  0.00000000000E+00 0. -1.
         21    1    1    2  503  502  0.82031385570E+01 -0.20444360259E+02  0.22783437576E+02  0.31691455889E+02  0.00000000000E+00 0.  1.
</event>
<event>
 4    1  0.5452128E+002  0.2278986E+02  0.7546771E-02  0.1495154E+00
          2   -1    0    0  503    0  0.00000000000E+00  0.00000000000E+00  0.10689209685E+04  0.10689209685E+04  0.00000000000E+00 0.  1.
         -2   -1    0    0    0  501 -0.00000000000E+00 -0.00000000000E+00 -0.56380023359E+00  0.56380023359E+00  0.00000000000E+00 0. -1.
         21    1    1    2  502  501  0.16885917122E+02 -0.15305021550E+02  0.33539543402E+03  0.33616881926E+03  0.00000000000E+00 0. -1.
         21    1    1    2  503  502 -0.16885917122E+02  0.15305021550E+02  0.73296173424E+03  0.73331594947E+03  0.00000000000E+00 0.  1.
</event>
<event>
 4    1  0.5452128E+002  0.3551194E+02  0.7546771E-02  0.1376999E+00
          2   -1    0    0  503    0  0.00000000000E+00  0.00000000000E+00  0.38906178660E+02  0.38906178660E+02  0.00000000000E+00 0.  1.
         -2   -1    0    0    0  501 -0.00000000000E+00 -0.00000000000E+00 -0.33435136008E+02  0.33435136008E+02  0.00000000000E+00 0. -1.
         21    1    1    2  502  501  0.33243633100E+02  0.12488354280E+02 -0.35861729680E+01  0.35692559041E+02  0.00000000000E+00 0.  1.
         21    1    1    2  503  502 -0.33243633100E+02 -0.12488354280E+02  0.90572156201E+01  0.36648755628E+02  0.00000000000E+00 0. -1.
</event>
<event>
 4    1  0.5452128E+002  0.2119806E+02  0.7546771E-02  0.1516456E+00
          2   -1    0    0  503    0  0.00000000000E+00  0.00000000000E+00  0.16865670936E+02  0.16865670936E+02  0.00000000000E+00 0.  1.
         -2   -1    0    0    0  501 -0.00000000000E+00 -0.00000000000E+00 -0.29410448957E+02  0.29410448957E+02  0.00000000000E+00 0. -1.
         21    1    1    2  502  501  0.15366732149E+02 -0.14602102097E+02 -0.13369622128E+02  0.25062015850E+02  0.00000000000E+00 0. -1.
         21    1    1    2  503  502 -0.15366732149E+02  0.14602102097E+02  0.82484410733E+00  0.21214104044E+02  0.00000000000E+00 0.  1.
</event>
<event>
 4    1  0.5452128E+002  0.2273262E+02  0.7546771E-02  0.1495883E+00
          2   -1    0    0  503    0  0.00000000000E+00  0.00000000000E+00  0.21119095601E+02  0.21119095601E+02  0.00000000000E+00 0.  1.
         -2   -1    0    0    0  501 -0.00000000000E+00 -0.00000000000E+00 -0.12246151800E+03  0.12246151800E+03  0.00000000000E+00 0. -1.
         21    1    1    2  502  501  0.22701858922E+02 -0.11821220408E+01 -0.11488991567E+03  0.11711731099E+03  0.00000000000E+00 0. -1.
         21    1    1    2  503  502 -0.22701858922E+02  0.11821220408E+01  0.13547493272E+02  0.26463302609E+02  0.00000000000E+00 0.  1.
</event>
<event>
 4    1  0.5452128E+002  0.2184524E+02  0.7546771E-02  0.1507531E+00
          2   -1    0    0  502    0  0.00000000000E+00  0.00000000000E+00  0.46454227191E+02  0.46454227191E+02  0.00000000000E+00 0. -1.
         -2   -1    0    0    0  501 -0.00000000000E+00 -0.00000000000E+00 -0.11727224753E+02  0.11727224753E+02  0.00000000000E+00 0.  1.
         21    1    1    2  502  503 -0.65732927781E+01 -0.20832815837E+02  0.27608324341E+02  0.35205595671E+02  0.00000000000E+00 0. -1.
         21    1    1    2  503  501  0.65732927781E+01  0.20832815837E+02  0.71186780964E+01  0.22975856273E+02  0.00000000000E+00 0.  1.
</event>
<event>
 4    1  0.5452128E+002  0.4263544E+02  0.7546771E-02  0.1333698E+00
          2   -1    0    0  503    0  0.00000000000E+00  0.00000000000E+00  0.66579434666E+03  0.66579434666E+03  0.00000000000E+00 0.  1.
         -2   -1    0    0    0  501 -0.00000000000E+00 -0.00000000000E+00 -0.44259637513E+01  0.44259637513E+01  0.00000000000E+00 0. -1.
         21    1    1    2  502  501  0.27604840083E+02 -0.32492360703E+02  0.12325935157E+03  0.13042487665E+03  0.00000000000E+00 0. -1.
         21    1    1    2  503  502 -0.27604840083E+02  0.32492360703E+02  0.53810903134E+03  0.53979543376E+03  0.00000000000E+00 0.  1.
</event>
<event>
 4    1  0.5452128E+002  0.2507702E+02  0.7546771E-02  0.1467944E+00
          2   -1    0    0  503    0  0.00000000000E+00  0.00000000000E+00  0.49570925121E+03  0.49570925121E+03  0.00000000000E+00 0. -1.
         -2   -1    0    0    0  501 -0.00000000000E+00 -0.00000000000E+00 -0.13947952500E+01  0.13947952500E+01  0.00000000000E+00 0.  1.
         21    1    1    2  502  501  0.15841239418E+02  0.19439957145E+02  0.17239479534E+03  0.17420913369E+03  0.00000000000E+00 0. -1.
         21    1    1    2  503  502 -0.15841239418E+02 -0.19439957145E+02  0.32191966062E+03  0.32289491277E+03  0.00000000000E+00 0.  1.
</event>
<event>
 4    1  0.5452128E+002  0.2717648E+02  0.7546771E-02  0.1445843E+00
          2   -1    0    0  503    0  0.00000000000E+00  0.00000000000E+00  0.12144065396E+04  0.12144065396E+04  0.00000000000E+00 0. -1.
         -2   -1    0    0    0  501 -0.00000000000E+00 -0.00000000000E+00 -0.75618487270E+00  0.75618487270E+00  0.00000000000E+00 0.  1.
         21    1    1    2  502  501  0.87813030444E+01  0.25718666497E+02  0.33801320473E+03  0.33910394816E+03  0.00000000000E+00 0.  1.
         21    1    1    2  503  502 -0.87813030444E+01 -0.25718666497E+02  0.87563715000E+03  0.87605877631E+03  0.00000000000E+00 0. -1.
</event>
<event>
 4    1  0.5452128E+002  0.2153044E+02  0.7546771E-02  0.1511825E+00
          2   -1    0    0  502    0  0.00000000000E+00  0.00000000000E+00  0.10809093524E+03  0.10809093524E+03  0.00000000000E+00 0.  1.
         -2   -1    0    0    0  501 -0.00000000000E+00 -0.00000000000E+00 -0.39884098392E+02  0.39884098392E+02  0.00000000000E+00 0. -1.
         21    1    1    2  502  503  0.44514070994E+01 -0.21065255220E+02  0.10400001549E+03  0.10620528812E+03  0.00000000000E+00 0.  1.
         21    1    1    2  503  501 -0.44514070994E+01  0.21065255220E+02 -0.35793178644E+02  0.41769745511E+02  0.00000000000E+00 0. -1.
</event>
<event>
 4    1  0.5452128E+002  0.2793158E+02  0.7546771E-02  0.1438468E+00
          2   -1    0    0  502    0  0.00000000000E+00  0.00000000000E+00  0.30758295158E+03  0.30758295158E+03  0.00000000000E+00 0. -1.
         -2   -1    0    0    0  501 -0.00000000000E+00 -0.00000000000E+00 -0.25504579625E+01  0.25504579625E+01  0.00000000000E+00 0.  1.
         21    1    1    2  502  503 -0.83876578240E+01  0.26642449910E+02  0.16400272854E+03  0.16636426272E+03  0.00000000000E+00 0. -1.
         21    1    1    2  503  501  0.83876578240E+01 -0.26642449910E+02  0.14102976508E+03  0.14376914682E+03  0.00000000000E+00 0.  1.
</event>
<event>
 4    1  0.5452128E+002  0.2352708E+02  0.7546771E-02  0.1485984E+00
          2   -1    0    0  502    0  0.00000000000E+00  0.00000000000E+00  0.11834289983E+04  0.11834289983E+04  0.00000000000E+00 0. -1.
         -2   -1    0    0    0  501 -0.00000000000E+00 -0.00000000000E+00 -0.19333371531E+01  0.19333371531E+01  0.00000000000E+00 0.  1.
         21    1    1    2  502  503 -0.23169629017E+02 -0.40855313810E+01  0.11067795100E+04  0.11070295421E+04  0.00000000000E+00 0. -1.
         21    1    1    2  503  501  0.23169629017E+02  0.40855313810E+01  0.74716151082E+02  0.78332793311E+02  0.00000000000E+00 0.  1.
</event>
<event>
 4    1  0.5452128E+002  0.3065548E+02  0.7546771E-02  0.1413984E+00
          2   -1    0    0  502    0  0.00000000000E+00  0.00000000000E+00  0.24194055805E+02  0.24194055805E+02  0.00000000000E+00 0.  1.
         -2   -1    0    0    0  501 -0.00000000000E+00 -0.00000000000E+00 -0.59069531025E+02  0.59069531025E+02  0.00000000000E+00 0. -1.
         21    1    1    2  502  503  0.11046303849E+02  0.28596109761E+02  0.69240478253E+01  0.31427706892E+02  0.00000000000E+00 0.  1.
         21    1    1    2  503  501 -0.11046303849E+02 -0.28596109761E+02 -0.41799523045E+02  0.51835879938E+02  0.00000000000E+00 0. -1.
</event>
<event>
 4    1  0.5452128E+002  0.2421640E+02  0.7546771E-02  0.1477764E+00
          2   -1    0    0  502    0  0.00000000000E+00  0.00000000000E+00  0.24164580417E+02  0.24164580417E+02  0.00000000000E+00 0. -1.
         -2   -1    0    0    0  501 -0.00000000000E+00 -0.00000000000E+00 -0.24534283989E+02  0.24534283989E+02  0.00000000000E+00 0.  1.
         21    1    1    2  502  503 -0.24051304192E+01  0.24096671157E+02  0.23502686492E+01  0.24330186516E+02  0.00000000000E+00 0. -1.
         21    1    1    2  503  501  0.24051304192E+01 -0.24096671157E+02 -0.27199722219E+01  0.24368677890E+02  0.00000000000E+00 0.  1.
</event>
<event>
 4    1  0.5452128E+002  0.2397667E+02  0.7546771E-02  0.1480585E+00
          2   -1    0    0  503    0  0.00000000000E+00  0.00000000000E+00  0.57439488291E+03  0.57439488291E+03  0.00000000000E+00 0. -1.
         -2   -1    0    0    0  501 -0.00000000000E+00 -0.00000000000E+00 -0.15239352503E+01  0.15239352503E+01  0.00000000000E+00 0.  1.
         21    1    1    2  502  501  0.15140646113E+02  0.18591436088E+02  0.11772733678E+03  0.12014410716E+03  0.00000000000E+00 0.  1.
         21    1    1    2  503  502 -0.15140646113E+02 -0.18591436088E+02  0.45514361088E+03  0.45577471100E+03  0.00000000000E+00 0. -1.
</event>
<event>
 4    1  0.5452128E+002  0.2838897E+02  0.7546771E-02  0.1434133E+00
          2   -1    0    0  503    0  0.00000000000E+00  0.00000000000E+00  0.17469625632E+02  0.17469625632E+02  0.00000000000E+00 0. -1.
         -2   -1    0    0    0  501 -0.00000000000E+00 -0.00000000000E+00 -0.13765752140E+03  0.13765752140E+03  0.00000000000E+00 0.  1.
         21    1    1    2  502  501  0.28253732606E+02 -0.27676918168E+01 -0.12333885817E+03  0.12656384736E+03  0.00000000000E+00 0.  1.
         21    1    1    2  503  502 -0.28253732606E+02  0.27676918168E+01  0.31509624003E+01  0.28563299673E+02  0.00000000000E+00 0. -1.
</event>
<event>
 4    1  0.5452128E+002  0.2838607E+02  0.7546771E-02  0.1434161E+00
          2   -1    0    0  502    0  0.00000000000E+00  0.00000000000E+00  0.84189747262E+01  0.84189747262E+01  0.00000000000E+00 0. -1.
         -2   -1    0    0    0  501 -0.00000000000E+00 -0.00000000000E+00 -0.11594411364E+03  0.11594411364E+03  0.00000000000E+00 0.  1.
         21    1    1    2  502  503  0.28279110902E+02  0.24618330382E+01 -0.27785288465E+02  0.39721417276E+02  0.00000000000E+00 0. -1.
         21    1    1    2  503  501 -0.28279110902E+02 -0.24618330382E+01 -0.79739850445E+02  0.84641671086E+02  0.00000000000E+00 0.  1.
</event>
<event>
 4    1  0.5452128E+002  0.2124000E+02  0.7546771E-02  0.1515866E+00
          2   -1    0    0  502    0  0.00000000000E+00  0.00000000000E+00  0.41242127893E+02  0.41242127893E+02  0.00000000000E+00 0.  1.
         -2   -1    0    0    0  501 -0.00000000000E+00 -0.00000000000E+00 -0.12447549338E+02  0.12447549338E+02  0.00000000000E+00 0. -1.
         21    1    1    2  502  503 -0.83904503908E+01  0.19512506897E+02  0.50511184252E+01  0.21832347115E+02  0.00000000000E+00 0. -1.
         21    1    1    2  503  501  0.83904503908E+01 -0.19512506897E+02  0.23743460130E+02  0.31857330116E+02  0.00000000000E+00 0.  1.
</event>
<event>
 4    1  0.5452128E+002  0.2030751E+02  0.7546771E-02  0.1529386E+00
          2   -1    0    0  503    0  0.00000000000E+00  0.00000000000E+00  0.32459351170E+03  0.32459351170E+03  0.00000000000E+00 0. -1.
         -2   -1    0    0    0  501 -0.00000000000E+00 -0.00000000000E+00 -0.13598382541E+01  0.13598382541E+01  0.00000000000E+00 0.  1.
         21    1    1    2  502  501 -0.17764503439E+02  0.98395875680E+01  0.20339102065E+03  0.20440230514E+03  0.00000000000E+00 0. -1.
         21    1    1    2  503  502  0.17764503439E+02 -0.98395875680E+01  0.11984265280E+03  0.12155104481E+03  0.00000000000E+00 0.  1.
</event>
<event>
 4    1  0.5452128E+002  0.2148724E+02  0.7546771E-02  0.1512421E+00
          2   -1    0    0  502    0  0.00000000000E+00  0.00000000000E+00  0.11454444080E+04  0.11454444080E+04  0.00000000000E+00 0. -1.
         -2   -1    0    0    0  501 -0.00000000000E+00 -0.00000000000E+00 -0.98581549871E+00  0.98581549871E+00  0.00000000000E+00 0.  1.
         21    1    1    2  502  503 -0.21043894882E+02 -0.43423675258E+01  0.10129433199E+04  0.10131711953E+04  0.00000000000E+00 0.  1.
         21    1    1    2  503  501  0.21043894882E+02  0.43423675258E+01  0.13151527260E+03  0.13325902820E+03  0.00000000000E+00 0. -1.
</event>
<event>
 4    1  0.5452128E+002  0.2581186E+02  0.7546771E-02  0.1459923E+00
          2   -1    0    0  502    0  0.00000000000E+00  0.00000000000E+00  0.24596536276E+03  0.24596536276E+03  0.00000000000E+00 0. -1.
         -2   -1    0    0    0  501 -0.00000000000E+00 -0.00000000000E+00 -0.27142525859E+01  0.27142525859E+01  0.00000000000E+00 0.  1.
         21    1    1    2  502  503 -0.74696502178E+01  0.24707415807E+02  0.12723766008E+03  0.12982940427E+03  0.00000000000E+00 0. -1.
         21    1    1    2  503  501  0.74696502178E+01 -0.24707415807E+02  0.11601345010E+03  0.11885021108E+03  0.00000000000E+00 0.  1.
</event>
<event>
 4    1  0.5452128E+002  0.2254913E+02  0.7546771E-02  0.1498239E+00
          2   -1    0    0  502    0  0.00000000000E+00  0.00000000000E+00  0.53755407295E+03  0.53755407295E+03  0.00000000000E+00 0. -1.
         -2   -1    0    0    0  501 -0.00000000000E+00 -0.00000000000E+00 -0.11272209564E+01  0.11272209564E+01  0.00000000000E+00 0.  1.
         21    1    1    2  502  503  0.22548979398E+02 -0.81851290302E-01  0.37624281647E+03  0.37691792226E+03  0.00000000000E+00 0. -1.
         21    1    1    2  503  501 -0.22548979398E+02  0.81851290302E-01  0.16018403553E+03  0.16176337166E+03  0.00000000000E+00 0.  1.
</event>
<event>
 4    1  0.5452128E+002  0.4619578E+02  0.7546771E-02  0.1315566E+00
          2   -1    0    0  502    0  0.00000000000E+00  0.00000000000E+00  0.99874202956E+01  0.99874202956E+01  0.00000000000E+00 0.  1.
         -2   -1    0    0    0  501 -0.00000000000E+00 -0.00000000000E+00 -0.22617671650E+03  0.22617671650E+03  0.00000000000E+00 0. -1.
         21    1    1    2  502  503 -0.15442018883E+02  0.43538416288E+02 -0.80331649119E+02  0.92667273027E+02  0.00000000000E+00 0.  1.
         21    1    1    2  503  501  0.15442018883E+02 -0.43538416288E+02 -0.13585764709E+03  0.14349686377E+03  0.00000000000E+00 0. -1.
</event>
<event>
 4    1  0.5452128E+002  0.2119557E+02  0.7546771E-02  0.1516491E+00
          2   -1    0    0  503    0  0.00000000000E+00  0.00000000000E+00  0.58798126789E+02  0.58798126789E+02  0.00000000000E+00 0. -1.
         -2   -1    0    0    0  501 -0.00000000000E+00 -0.00000000000E+00 -0.76538459331E+01  0.76538459331E+01  0.00000000000E+00 0.  1.
         21    1    1    2  502  501 -0.20822950139E+02  0.39568733955E+01  0.24189143630E+02  0.32161572864E+02  0.00000000000E+00 0.  1.
         21    1    1    2  503  502  0.20822950139E+02 -0.39568733955E+01  0.26955137227E+02  0.34290399859E+02  0.00000000000E+00 0. -1.
</event>
<event>
 4    1  0.5452128E+002  0.2282224E+02  0.7546771E-02  0.1494742E+00
          2   -1    0    0  502    0  0.00000000000E+00  0.00000000000E+00  0.12125780820E+04  0.12125780820E+04  0.00000000000E+00 0.  1.
         -2   -1    0    0    0  501 -0.00000000000E+00 -0.00000000000E+00 -0.48158128499E+00  0.48158128499E+00  0.00000000000E+00 0. -1.
         21    1    1    2  502  503 -0.22820869191E+02 -0.25007606518E+00  0.40666979445E+03  0.40730968111E+03  0.00000000000E+00 0. -1.
         21    1    1    2  503  501  0.22820869191E+02  0.25007606518E+00  0.80542670628E+03  0.80574998219E+03  0.00000000000E+00 0.  1.
</event>
<event>
 4    1  0.5452128E+002  0.2368472E+02  0.7546771E-02  0.1484075E+00
          2   -1    0    0  502    0  0.00000000000E+00  0.00000000000E+00  0.36820617971E+03  0.36820617971E+03  0.00000000000E+00 0.  1.
         -2   -1    0    0    0  501 -0.00000000000E+00 -0.00000000000E+00 -0.16304427724E+01  0.16304427724E+01  0.00000000000E+00 0. -1.
         21    1    1    2  502  503  0.60574322407E+01  0.22897014922E+02  0.23064470217E+03  0.23185759513E+03  0.00000000000E+00 0. -1.
         21    1    1    2  503  501 -0.60574322407E+01 -0.22897014922E+02  0.13593103476E+03  0.13797902735E+03  0.00000000000E+00 0.  1.
</event>
<event>
 4    1  0.5452128E+002  0.2072442E+02  0.7546771E-02  0.1523236E+00
          2   -1    0    0  503    0  0.00000000000E+00  0.00000000000E+00  0.23293811079E+03  0.23293811079E+03  0.00000000000E+00 0.  1.
         -2   -1    0    0    0  501 -0.00000000000E+00 -0.00000000000E+00 -0.20663265935E+01  0.20663265935E+01  0.00000000000E+00 0. -1.
         21    1    1    2  502  501  0.20708800829E+02  0.80451617612E+00  0.76879710525E+02  0.79624064004E+02  0.00000000000E+00 0. -1.
         21    1    1    2  503  502 -0.20708800829E+02 -0.80451617612E+00  0.15399207367E+03  0.15538037338E+03  0.00000000000E+00 0.  1.
</event>
<event>
 4    1  0.5452128E+002  0.3316445E+02  0.7546771E-02  0.1393948E+00
          2   -1    0    0  503    0  0.00000000000E+00  0.00000000000E+00  0.57247235083E+03  0.57247235083E+03  0.00000000000E+00 0. -1.
         -2   -1    0    0    0  501 -0.00000000000E+00 -0.00000000000E+00 -0.20599300507E+01  0.20599300507E+01  0.00000000000E+00 0.  1.
         21    1    1    2  502  501 -0.19850736506E+02 -0.26567446618E+02  0.21067902608E+03  0.21327337619E+03  0.00000000000E+00 0.  1.
         21    1    1    2  503  502  0.19850736506E+02  0.26567446618E+02  0.35973339470E+03  0.36125890469E+03  0.00000000000E+00 0. -1.
</event>
<event>
 4    1  0.5452128E+002  0.2183971E+02  0.7546771E-02  0.1507606E+00
          2   -1    0    0  502    0  0.00000000000E+00  0.00000000000E+00  0.11748668063E+02  0.11748668063E+02  0.00000000000E+00 0. -1.
         -2   -1    0    0    0  501 -0.00000000000E+00 -0.00000000000E+00 -0.86711620517E+02  0.86711620517E+02  0.00000000000E+00 0.  1.
         21    1    1    2  502  503 -0.13226474126E+02  0.17379103133E+02 -0.15804468877E+01  0.21896818396E+02  0.00000000000E+00 0. -1.
         21    1    1    2  503  501  0.13226474126E+02 -0.17379103133E+02 -0.73382505566E+02  0.76563470184E+02  0.00000000000E+00 0.  1.
</event>
<event>
 4    1  0.5452128E+002  0.2186666E+02  0.7546771E-02  0.1507242E+00
          2   -1    0    0  503    0  0.00000000000E+00  0.00000000000E+00  0.17741390092E+02  0.17741390092E+02  0.00000000000E+00 0.  1.
         -2   -1    0    0    0  501 -0.00000000000E+00 -0.00000000000E+00 -0.26951380583E+02  0.26951380583E+02  0.00000000000E+00 0. -1.
         21    1    1    2  502  501 -0.46064133285E+01  0.21375965765E+02 -0.46696304452E+01  0.22359704932E+02  0.00000000000E+00 0.  1.
         21    1    1    2  503  502  0.46064133285E+01 -0.21375965765E+02 -0.45403600464E+01  0.22333065743E+02  0.00000000000E+00 0. -1.
</event>
<event>
 4    1  0.5452128E+002  0.2017719E+02  0.7546771E-02  0.1531344E+00
          2   -1    0    0  502    0  0.00000000000E+00  0.00000000000E+00  0.92476816737E+02  0.92476816737E+02  0.00000000000E+00 0.  1.
         -2   -1    0    0    0  501 -0.00000000000E+00 -0.00000000000E+00 -0.81827769364E+01  0.81827769364E+01  0.00000000000E+00 0. -1.
         21    1    1    2  502  503  0.35995082841E+01 -0.19853524702E+02  0.76356227649E+02  0.78977163811E+02  0.00000000000E+00 0.  1.
         21    1    1    2  503  501 -0.35995082841E+01  0.19853524702E+02  0.79378121525E+01  0.21682429862E+02  0.00000000000E+00 0. -1.
</event>
<event>
 4    1  0.5452128E+002  0.2177937E+02  0.7546771E-02  0.1508422E+00
          2   -1    0    0  502    0  0.00000000000E+00  0.00000000000E+00  0.88503031539E+02  0.88503031539E+02  0.00000000000E+00 0. -1.
         -2   -1    0    0    0  501 -0.00000000000E+00 -0.00000000000E+00 -0.10538636406E+02  0.10538636406E+02  0.00000000000E+00 0.  1.
         21    1    1    2  502  503 -0.12004750618E+02  0.18172143790E+02  0.73697441524E+02  0.76848251343E+02  0.00000000000E+00 0. -1.
         21    1    1    2  503  501  0.12004750618E+02 -0.18172143790E+02  0.42669536091E+01  0.22193416601E+02  0.00000000000E+00 0.  1.
</event>
<event>
 4    1  0.5452128E+002  0.9209833E+02  0.7546771E-02  0.1178252E+00
          2   -1    0    0  502    0  0.00000000000E+00  0.00000000000E+00  0.12256077229E+03  0.12256077229E+03  0.00000000000E+00 0.  1.
         -2   -1    0    0    0  501 -0.00000000000E+00 -0.00000000000E+00 -0.69579065992E+02  0.69579065992E+02  0.00000000000E+00 0. -1.
         21    1    1    2  502  503 -0.36972302529E+02 -0.84351352398E+02  0.19468623930E+02  0.94133570650E+02  0.00000000000E+00 0. -1.
         21    1    1    2  503  501  0.36972302529E+02  0.84351352398E+02  0.33513082372E+02  0.98006267635E+02  0.00000000000E+00 0.  1.
</event>
<event>
 4    1  0.5452128E+002  0.2478267E+02  0.7546771E-02  0.1471249E+00
          2   -1    0    0  503    0  0.00000000000E+00  0.00000000000E+00  0.14315924215E+04  0.14315924215E+04  0.00000000000E+00 0. -1.
         -2   -1    0    0    0  501 -0.00000000000E+00 -0.00000000000E+00 -0.10563568392E+01  0.10563568392E+01  0.00000000000E+00 0.  1.
         21    1    1    2  502  501  0.21779494954E+02  0.11825150486E+02  0.16324766869E+03  0.16511808477E+03  0.00000000000E+00 0.  1.
         21    1    1    2  503  502 -0.21779494954E+02 -0.11825150486E+02  0.12672883960E+04  0.12675306936E+04  0.00000000000E+00 0. -1.
</event>
<event>
 4    1  0.5452128E+002  0.2459514E+02  0.7546771E-02  0.1473384E+00
          2   -1    0    0  503    0  0.00000000000E+00  0.00000000000E+00  0.44815353243E+01  0.44815353243E+01  0.00000000000E+00 0.  1.
         -2   -1    0    0    0  501 -0.00000000000E+00 -0.00000000000E+00 -0.16320914111E+03  0.16320914111E+03  0.00000000000E+00 0. -1.
         21    1    1    2  502  501 -0.24484520696E+02 -0.23300138069E+01 -0.11423366476E+03  0.11685140514E+03  0.00000000000E+00 0. -1.
         21    1    1    2  503  502  0.24484520696E+02  0.23300138069E+01 -0.44493941027E+02  0.50839271298E+02  0.00000000000E+00 0.  1.
</event>
<event>
 4    1  0.5452128E+002  0.2140514E+02  0.7546771E-02  0.1513558E+00
          2   -1    0    0  503    0  0.00000000000E+00  0.00000000000E+00  0.22549013406E+04  0.22549013406E+04  0.00000000000E+00 0.  1.
         -2   -1    0    0    0  501 -0.00000000000E+00 -0.00000000000E+00 -0.20745857978E+00  0.20745857978E+00  0.00000000000E+00 0. -1.
         21    1    1    2  502  501  0.25691943515E+01  0.21250393875E+02  0.96566383441E+03  0.96590104105E+03  0.00000000000E+00 0. -1.
         21    1    1    2  503  502 -0.25691943515E+01 -0.21250393875E+02  0.12890300476E+04  0.12892077582E+04  0.00000000000E+00 0.  1.
</event>
<event>
 4    1  0.5452128E+002  0.3062302E+02  0.7546771E-02  0.1414258E+00
          2   -1    0    0  503    0  0.00000000000E+00  0.00000000000E+00  0.30347436411E+02  0.30347436411E+02  0.00000000000E+00 0.  1.
         -2   -1    0    0    0  501 -0.00000000000E+00 -0.00000000000E+00 -0.84335381670E+02  0.84335381670E+02  0.00000000000E+00 0. -1.
         21    1    1    2  502  501  0.11754256561E+02 -0.28277318837E+02 -0.72636892791E+02  0.78828215141E+02  0.00000000000E+00 0. -1.
         21    1    1    2  503  502 -0.11754256561E+02  0.28277318837E+02  0.18648947532E+02  0.35854602940E+02  0.00000000000E+00 0.  1.
</event>
<event>
 4    1  0.5452128E+002  0.2692349E+02  0.7546771E-02  0.1448378E+00
          2   -1    0    0  502    0  0.00000000000E+00  0.00000000000E+00  0.50833420203E+03  0.50833420203E+03  0.00000000000E+00 0. -1.
         -2   -1    0    0    0  501 -0.00000000000E+00 -0.00000000000E+00 -0.18354103329E+01  0.18354103329E+01  0.00000000000E+00 0.  1.
         21    1    1    2  502  503 -0.18529682071E+02 -0.19532667233E+02  0.37372752622E+03  0.37469606091E+03  0.00000000000E+00 0. -1.
         21    1    1    2  503  501  0.18529682071E+02  0.19532667233E+02  0.13277126548E+03  0.13547355145E+03  0.00000000000E+00 0.  1.
</event>
<event>
 4    1  0.5452128E+002  0.2027705E+02  0.7546771E-02  0.1529842E+00
          2   -1    0    0  502    0  0.00000000000E+00  0.00000000000E+00  0.46007181485E+01  0.46007181485E+01  0.00000000000E+00 0. -1.
         -2   -1    0    0    0  501 -0.00000000000E+00 -0.00000000000E+00 -0.18807697115E+03  0.18807697115E+03  0.00000000000E+00 0.  1.
         21    1    1    2  502  503 -0.68849092554E+00 -0.20265361694E+02 -0.21945263372E+02  0.29878980719E+02  0.00000000000E+00 0. -1.
         21    1    1    2  503  501  0.68849092554E+00  0.20265361694E+02 -0.16153098963E+03  0.16279870858E+03  0.00000000000E+00 0.  1.
</event>
<event>
 4    1  0.5452128E+002  0.2268994E+02  0.7546771E-02  0.1496429E+00
          2   -1    0    0  503    0  0.00000000000E+00  0.00000000000E+00  0.12174640991E+02  0.12174640991E+02  0.00000000000E+00 0. -1.
         -2   -1    0    0    0  501 -0.00000000000E+00 -0.00000000000E+00 -0.72366607766E+02  0.72366607766E+02  0.00000000000E+00 0.  1.
         21    1    1    2  502  501 -0.16737857846E+02 -0.15319183118E+02 -0.57348282151E+02  0.61673809047E+02  0.00000000000E+00 0.  1.
         21    1    1    2  503  502  0.16737857846E+02  0.15319183118E+02 -0.28436846234E+01  0.22867439711E+02  0.00000000000E+00 0. -1.
</event>
<event>
 4    1  0.5452128E+002  0.4761327E+02  0.7546771E-02  0.1308866E+00
          2   -1    0    0  503    0  0.00000000000E+00  0.00000000000E+00  0.12944956702E+03  0.12944956702E+03  0.00000000000E+00 0.  1.
         -2   -1    0    0    0  501 -0.00000000000E+00 -0.00000000000E+00 -0.18002892327E+02  0.18002892327E+02  0.00000000000E+00 0. -1.
         21    1    1    2  502  501 -0.21676648545E+02 -0.42392761338E+02  0.43558858680E+02  0.64532142964E+02  0.00000000000E+00 0. -1.
         21    1    1    2  503  502  0.21676648545E+02  0.42392761338E+02  0.67887816012E+02  0.82920316382E+02  0.00000000000E+00 0.  1.
</event>
<event>
 4    1  0.5452128E+002  0.2360409E+02  0.7546771E-02  0.1485049E+00
          2   -1    0    0  503    0  0.00000000000E+00  0.00000000000E+00  0.29850795386E+03  0.29850795386E+03  0.00000000000E+00 0. -1.
         -2   -1    0    0    0  501 -0.00000000000E+00 -0.00000000000E+00 -0.18739440956E+01  0.18739440956E+01  0.00000000000E+00 0.  1.
         21    1    1    2  502  501 -0.22343656052E+02 -0.76101162880E+01  0.13882481976E+03  0.14081719859E+03  0.00000000000E+00 0.  1.
         21    1    1    2  503  502  0.22343656052E+02  0.76101162880E+01  0.15780919000E+03  0.15956469937E+03  0.00000000000E+00 0. -1.
</event>
<event>
 4    1  0.5452128E+002  0.2499245E+02  0.7546771E-02  0.1468888E+00
          2   -1    0    0  503    0  0.00000000000E+00  0.00000000000E+00  0.15184631534E+03  0.15184631534E+03  0.00000000000E+00 0. -1.
         -2   -1    0    0    0  501 -0.00000000000E+00 -0.00000000000E+00 -0.77814345769E+01  0.77814345769E+01  0.00000000000E+00 0.  1.
         21    1    1    2  502  501 -0.24833485382E+02  0.28143613691E+01  0.17235254388E+02  0.30359127457E+02  0.00000000000E+00 0.  1.
         21    1    1    2  503  502  0.24833485382E+02 -0.28143613691E+01  0.12682962638E+03  0.12926862246E+03  0.00000000000E+00 0. -1.
</event>
<event>
 4    1  0.5452128E+002  0.2508189E+02  0.7546771E-02  0.1467889E+00
          2   -1    0    0  503    0  0.00000000000E+00  0.00000000000E+00  0.29485174001E+03  0.29485174001E+03  0.00000000000E+00 0. -1.
         -2   -1    0    0    0  501 -0.00000000000E+00 -0.00000000000E+00 -0.70392070764E+01  0.70392070764E+01  0.00000000000E+00 0.  1.
         21    1    1    2  502  501  0.24524969776E+02  0.52561322365E+01  0.17896619947E+02  0.30812174122E+02  0.00000000000E+00 0.  1.
         21    1    1    2  503  502 -0.24524969776E+02 -0.52561322365E+01  0.26991591298E+03  0.27107877296E+03  0.00000000000E+00 0. -1.
</event>
<event>
 4    1  0.5452128E+002  0.2114650E+02  0.7546771E-02  0.1517183E+00
          2   -1    0    0  503    0  0.00000000000E+00  0.00000000000E+00  0.37570221135E+00  0.37570221135E+00  0.00000000000E+00 0. -1.
         -2   -1    0    0    0  501 -0.00000000000E+00 -0.00000000000E+00 -0.11942869123E+04  0.11942869123E+04  0.00000000000E+00 0.  1.
         21    1    1    2  502  501 -0.18466583272E+02 -0.10303378964E+02 -0.63174402540E+03  0.63209784681E+03  0.00000000000E+00 0. -1.
         21    1    1    2  503  502  0.18466583272E+02  0.10303378964E+02 -0.56216718465E+03  0.56256476766E+03  0.00000000000E+00 0.  1.
</event>
<event>
 4    1  0.5452128E+002  0.2033886E+02  0.7546771E-02  0.1528917E+00
          2   -1    0    0  503    0  0.00000000000E+00  0.00000000000E+00  0.29910173302E+01  0.29910173302E+01  0.00000000000E+00 0.  1.
         -2   -1    0    0    0  501 -0.00000000000E+00 -0.00000000000E+00 -0.72200638331E+03  0.72200638331E+03  0.00000000000E+00 0. -1.
         21    1    1    2  502  501  0.61691134546E+01  0.19380689448E+02 -0.68544323928E+03  0.68574492587E+03  0.00000000000E+00 0. -1.
         21    1    1    2  503  502 -0.61691134546E+01 -0.19380689448E+02 -0.33572126701E+02  0.39252474770E+02  0.00000000000E+00 0.  1.
</event>
<event>
 4    1  0.5452128E+002  0.2282208E+02  0.7546771E-02  0.1494745E+00
          2   -1    0    0  503    0  0.00000000000E+00  0.00000000000E+00  0.84333977025E+03  0.84333977025E+03  0.00000000000E+00 0. -1.
         -2   -1    0    0    0  501 -0.00000000000E+00 -0.00000000000E+00 -0.63878422968E+00  0.63878422968E+00  0.00000000000E+00 0.  1.
         21    1    1    2  502  501 -0.17934594460E+02  0.14113733773E+02  0.34450394333E+03  0.34525905365E+03  0.00000000000E+00 0.  1.
         21    1    1    2  503  502  0.17934594460E+02 -0.14113733773E+02  0.49819704269E+03  0.49871950082E+03  0.00000000000E+00 0. -1.
</event>
<event>
 4    1  0.5452128E+002  0.2064959E+03  0.7546771E-02  0.1050624E+00
          2   -1    0    0  503    0  0.00000000000E+00  0.00000000000E+00  0.37119533579E+04  0.37119533579E+04  0.00000000000E+00 0.  1.
         -2   -1    0    0    0  501 -0.00000000000E+00 -0.00000000000E+00 -0.16366066806E+02  0.16366066806E+02  0.00000000000E+00 0. -1.
         21    1    1    2  502  501 -0.11774836685E+03 -0.16963459129E+03  0.82999238882E+03  0.85529406520E+03  0.00000000000E+00 0.  1.
         21    1    1    2  503  502  0.11774836685E+03  0.16963459129E+03  0.28655949023E+04  0.28730253595E+04  0.00000000000E+00 0. -1.
</event>
<event>
 4    1  0.5452128E+002  0.2032442E+02  0.7546771E-02  0.1529133E+00
          2   -1    0    0  503    0  0.00000000000E+00  0.00000000000E+00  0.12114674754E+02  0.12114674754E+02  0.00000000000E+00 0. -1.
         -2   -1    0    0    0  501 -0.00000000000E+00 -0.00000000000E+00 -0.10005918531E+03  0.10005918531E+03  0.00000000000E+00 0.  1.
         21    1    1    2  502  501  0.14092673860E+02  0.14645091381E+02 -0.89510732750E+02  0.91789179294E+02  0.00000000000E+00 0.  1.
         21    1    1    2  503  502 -0.14092673860E+02 -0.14645091381E+02  0.15662221944E+01  0.20384680769E+02  0.00000000000E+00 0. -1.
</event>
<event>
 4    1  0.5452128E+002  0.2191434E+02  0.7546771E-02  0.1506600E+00
          2   -1    0    0  503    0  0.00000000000E+00  0.00000000000E+00  0.23924877887E+03  0.23924877887E+03  0.00000000000E+00 0.  1.
         -2   -1    0    0    0  501 -0.00000000000E+00 -0.00000000000E+00 -0.14461461084E+02  0.14461461084E+02  0.00000000000E+00 0. -1.
         21    1    1    2  502  501  0.21384803491E+02  0.47883884637E+01 -0.53288638966E+01  0.22552943818E+02  0.00000000000E+00 0. -1.
         21    1    1    2  503  502 -0.21384803491E+02 -0.47883884637E+01  0.23011618168E+03  0.23115729614E+03  0.00000000000E+00 0.  1.
</event>
<event>
 4    1  0.5452128E+002  0.2022228E+02  0.7546771E-02  0.1530665E+00
          2   -1    0    0  502    0  0.00000000000E+00  0.00000000000E+00  0.52760912189E+01  0.52760912189E+01  0.00000000000E+00 0. -1.
         -2   -1    0    0    0  501 -0.00000000000E+00 -0.00000000000E+00 -0.79853414756E+02  0.79853414756E+02  0.00000000000E+00 0.  1.
         21    1    1    2  502  503  0.90890650849E+01 -0.18064592048E+02 -0.29994251640E+02  0.36174517570E+02  0.00000000000E+00 0. -1.
         21    1    1    2  503  501 -0.90890650849E+01  0.18064592048E+02 -0.44583071897E+02  0.48954988405E+02  0.00000000000E+00 0.  1.
</event>
<event>
 4    1  0.5452128E+002  0.2044745E+02  0.7546771E-02  0.1527302E+00
          2   -1    0    0  502    0  0.00000000000E+00  0.00000000000E+00  0.70967196545E+03  0.70967196545E+03  0.00000000000E+00 0.  1.
         -2   -1    0    0    0  501 -0.00000000000E+00 -0.00000000000E+00 -0.63894402689E+01  0.63894402689E+01  0.00000000000E+00 0. -1.
         21    1    1    2  502  503 -0.20316111636E+02 -0.23138590884E+01  0.69276660639E+03  0.69306830058E+03  0.00000000000E+00 0.  1.
         21    1    1    2  503  501  0.20316111636E+02  0.23138590884E+01  0.10515918786E+02  0.22993105136E+02  0.00000000000E+00 0. -1.
</event>
<event>
 4    1  0.5452128E+002  0.2031716E+02  0.7546771E-02  0.1529241E+00
          2   -1    0    0  503    0  0.00000000000E+00  0.00000000000E+00  0.61604640794E+03  0.61604640794E+03  0.00000000000E+00 0. -1.
         -2   -1    0    0    0  501 -0.00000000000E+00 -0.00000000000E+00 -0.11961813764E+01  0.11961813764E+01  0.00000000000E+00 0.  1.
         21    1    1    2  502  501  0.70150114707E+01  0.19067681362E+02  0.10274712172E+03  0.10473661194E+03  0.00000000000E+00 0.  1.
         21    1    1    2  503  502 -0.70150114707E+01 -0.19067681362E+02  0.51210310484E+03  0.51250597737E+03  0.00000000000E+00 0. -1.
</event>
<event>
 4    1  0.5452128E+002  0.2782001E+02  0.7546771E-02  0.1439540E+00
          2   -1    0    0  502    0  0.00000000000E+00  0.00000000000E+00  0.34346351448E+03  0.34346351448E+03  0.00000000000E+00 0.  1.
         -2   -1    0    0    0  501 -0.00000000000E+00 -0.00000000000E+00 -0.38410347300E+01  0.38410347300E+01  0.00000000000E+00 0. -1.
         21    1    1    2  502  503 -0.27804108976E+02 -0.94046025401E+00  0.28145507268E+03  0.28282664457E+03  0.00000000000E+00 0. -1.
         21    1    1    2  503  501  0.27804108976E+02  0.94046025401E+00  0.58167407064E+02  0.64477904634E+02  0.00000000000E+00 0.  1.
</event>
<event>
 4    1  0.5452128E+002  0.2247408E+02  0.7546771E-02  0.1499210E+00
          2   -1    0    0  502    0  0.00000000000E+00  0.00000000000E+00  0.23122561638E+04  0.23122561638E+04  0.00000000000E+00 0. -1.
         -2   -1    0    0    0  501 -0.00000000000E+00 -0.00000000000E+00 -0.23896793137E+00  0.23896793137E+00  0.00000000000E+00 0.  1.
         21    1    1    2  502  503  0.21954633591E+01 -0.22366587333E+02  0.14949122497E+04  0.14950811746E+04  0.00000000000E+00 0. -1.
         21    1    1    2  503  501 -0.21954633591E+01  0.22366587333E+02  0.81710494613E+03  0.81741395711E+03  0.00000000000E+00 0.  1.
</event>
<event>
 4    1  0.5452128E+002  0.3411041E+02  0.7546771E-02  0.1386927E+00
          2   -1    0    0  502    0  0.00000000000E+00  0.00000000000E+00  0.14188874233E+02  0.14188874233E+02  0.00000000000E+00 0. -1.
         -2   -1    0    0    0  501 -0.00000000000E+00 -0.00000000000E+00 -0.92429612725E+02  0.92429612725E+02  0.00000000000E+00 0.  1.
         21    1    1    2  502  503  0.33488317742E+02 -0.64847792433E+01 -0.21214972994E+02  0.40169576375E+02  0.00000000000E+00 0. -1.
         21    1    1    2  503  501 -0.33488317742E+02  0.64847792433E+01 -0.57025765498E+02  0.66448910583E+02  0.00000000000E+00 0.  1.
</event>
<event>
 4    1  0.5452128E+002  0.3759351E+02  0.7546771E-02  0.1363196E+00
          2   -1    0    0  502    0  0.00000000000E+00  0.00000000000E+00  0.88215837165E+02  0.88215837165E+02  0.00000000000E+00 0.  1.
         -2   -1    0    0    0  501 -0.00000000000E+00 -0.00000000000E+00 -0.16264499000E+02  0.16264499000E+02  0.00000000000E+00 0. -1.
         21    1    1    2  502  503  0.28343811050E+02  0.24696156111E+02  0.29578644475E+02  0.47834798635E+02  0.00000000000E+00 0. -1.
         21    1    1    2  503  501 -0.28343811050E+02 -0.24696156111E+02  0.42372693689E+02  0.56645537529E+02  0.00000000000E+00 0.  1.
</event>
<event>
 4    1  0.5452128E+002  0.2126026E+02  0.7546771E-02  0.1515581E+00
          2   -1    0    0  503    0  0.00000000000E+00  0.00000000000E+00  0.11139430041E+01  0.11139430041E+01  0.00000000000E+00 0.  1.
         -2   -1    0    0    0  501 -0.00000000000E+00 -0.00000000000E+00 -0.55112172095E+03  0.55112172095E+03  0.00000000000E+00 0. -1.
         21    1    1    2  502  501 -0.13512126046E+01  0.21217275539E+02 -0.41680804363E+03  0.41734990570E+03  0.00000000000E+00 0. -1.
         21    1    1    2  503  502  0.13512126046E+01 -0.21217275539E+02 -0.13319973432E+03  0.13488575825E+03  0.00000000000E+00 0.  1.
</event>
<event>
 4    1  0.5452128E+002  0.2372668E+02  0.7546771E-02  0.1483569E+00
          2   -1    0    0  503    0  0.00000000000E+00  0.00000000000E+00  0.20050047625E+04  0.20050047625E+04  0.00000000000E+00 0. -1.
         -2   -1    0    0    0  501 -0.00000000000E+00 -0.00000000000E+00 -0.32163424115E+00  0.32163424115E+00  0.00000000000E+00 0.  1.
         21    1    1    2  502  501  0.23611095764E+02  0.23391515560E+01  0.64497131680E+03  0.64540758825E+03  0.00000000000E+00 0.  1.
         21    1    1    2  503  502 -0.23611095764E+02 -0.23391515560E+01  0.13597118114E+04  0.13599188085E+04  0.00000000000E+00 0. -1.
</event>
<event>
 4    1  0.5452128E+002  0.4213496E+02  0.7546771E-02  0.1336410E+00
          2   -1    0    0  502    0  0.00000000000E+00  0.00000000000E+00  0.29973471994E+04  0.29973471994E+04  0.00000000000E+00 0.  1.
         -2   -1    0    0    0  501 -0.00000000000E+00 -0.00000000000E+00 -0.59254040618E+00  0.59254040618E+00  0.00000000000E+00 0. -1.
         21    1    1    2  502  503 -0.41222297831E+02  0.87222195637E+01  0.15280162408E+04  0.15285970650E+04  0.00000000000E+00 0.  1.
         21    1    1    2  503  501  0.41222297831E+02 -0.87222195637E+01  0.14687384181E+04  0.14693426748E+04  0.00000000000E+00 0. -1.
</event>
<event>
 4    1  0.5452128E+002  0.6045480E+02  0.7546771E-02  0.1258295E+00
          2   -1    0    0  503    0  0.00000000000E+00  0.00000000000E+00  0.43136260298E+01  0.43136260298E+01  0.00000000000E+00 0. -1.
         -2   -1    0    0    0  501 -0.00000000000E+00 -0.00000000000E+00 -0.97804591565E+03  0.97804591565E+03  0.00000000000E+00 0.  1.
         21    1    1    2  502  501 -0.40682038526E+02  0.44718620860E+02 -0.66647735559E+03  0.66921360478E+03  0.00000000000E+00 0.  1.
         21    1    1    2  503  502  0.40682038526E+02 -0.44718620860E+02 -0.30725493403E+03  0.31314593690E+03  0.00000000000E+00 0. -1.
</event>
<event>
 4    1  0.5452128E+002  0.2822781E+02  0.7546771E-02  0.1435650E+00
          2   -1    0    0  502    0  0.00000000000E+00  0.00000000000E+00  0.16552108770E+04  0.16552108770E+04  0.00000000000E+00 0.  1.
         -2   -1    0    0    0  501 -0.00000000000E+00 -0.00000000000E+00 -0.30404546341E+01  0.30404546341E+01  0.00000000000E+00 0. -1.
         21    1    1    2  502  503 -0.23972226318E+02  0.14904413091E+02  0.15867465677E+04  0.15869976305E+04  0.00000000000E+00 0.  1.
         21    1    1    2  503  501  0.23972226318E+02 -0.14904413091E+02  0.65423854745E+02  0.71253701194E+02  0.00000000000E+00 0. -1.
</event>
<event>
 4    1  0.5452128E+002  0.2269124E+02  0.7546771E-02  0.1496412E+00
          2   -1    0    0  502    0  0.00000000000E+00  0.00000000000E+00  0.75537726668E+01  0.75537726668E+01  0.00000000000E+00 0. -1.
         -2   -1    0    0    0  501 -0.00000000000E+00 -0.00000000000E+00 -0.10640058838E+03  0.10640058838E+03  0.00000000000E+00 0.  1.
         21    1    1    2  502  503  0.22686183182E+02 -0.47890498257E+00 -0.15267106197E+02  0.27349164320E+02  0.00000000000E+00 0.  1.
         21    1    1    2  503  501 -0.22686183182E+02  0.47890498257E+00 -0.83579709521E+02  0.86605196732E+02  0.00000000000E+00 0. -1.
</event>
<event>
 4    1  0.5452128E+002  0.2371796E+02  0.7546771E-02  0.1483674E+00
          2   -1    0    0  502    0  0.00000000000E+00  0.00000000000E+00  0.32821678069E+02  0.32821678069E+02  0.00000000000E+00 0.  1.
         -2   -1    0    0    0  501 -0.00000000000E+00 -0.00000000000E+00 -0.22508342285E+02  0.22508342285E+02  0.00000000000E+00 0. -1.
         21    1    1    2  502  503  0.48414381268E+01 -0.23218574633E+02 -0.83549103713E+01  0.25146495947E+02  0.00000000000E+00 0. -1.
         21    1    1    2  503  501 -0.48414381268E+01  0.23218574633E+02  0.18668246156E+02  0.30183524407E+02  0.00000000000E+00 0.  1.
</event>
<event>
 4    1  0.5452128E+002  0.2109928E+02  0.7546771E-02  0.1517852E+00
          2   -1    0    0  503    0  0.00000000000E+00  0.00000000000E+00  0.10192778850E+04  0.10192778850E+04  0.00000000000E+00 0.  1.
         -2   -1    0    0    0  501 -0.00000000000E+00 -0.00000000000E+00 -0.56458974513E+00  0.56458974513E+00  0.00000000000E+00 0. -1.
         21    1    1    2  502  501 -0.77798156189E+01 -0.19612597071E+02  0.75199144891E+03  0.75228739105E+03  0.00000000000E+00 0.  1.
         21    1    1    2  503  502  0.77798156189E+01  0.19612597071E+02  0.26672184632E+03  0.26755508367E+03  0.00000000000E+00 0. -1.
</event>
<event>
 4    1  0.5452128E+002  0.2744102E+02  0.7546771E-02  0.1443228E+00
          2   -1    0    0  502    0  0.00000000000E+00  0.00000000000E+00  0.74065422741E+03  0.74065422741E+03  0.00000000000E+00 0.  1.
         -2   -1    0    0    0  501 -0.00000000000E+00 -0.00000000000E+00 -0.40678798839E+01  0.40678798839E+01  0.00000000000E+00 0. -1.
         21    1    1    2  502  503  0.14959941049E+02  0.23004555893E+02  0.69078255223E+03  0.69132737823E+03  0.00000000000E+00 0.  1.
         21    1    1    2  503  501 -0.14959941049E+02 -0.23004555893E+02  0.45803795294E+02  0.53394729060E+02  0.00000000000E+00 0. -1.
</event>
<event>
 4    1  0.5452128E+002  0.2019872E+02  0.7546771E-02  0.1531019E+00
          2   -1    0    0  502    0  0.00000000000E+00  0.00000000000E+00  0.55276939042E+02  0.55276939042E+02  0.00000000000E+00 0.  1.
         -2   -1    0    0    0  501 -0.00000000000E+00 -0.00000000000E+00 -0.77934210833E+01  0.77934210833E+01  0.00000000000E+00 0. -1.
         21    1    1    2  502  503 -0.63885100183E+01 -0.19161817180E+02  0.30997878324E+02  0.36998064253E+02  0.00000000000E+00 0.  1.
         21    1    1    2  503  501  0.63885100183E+01  0.19161817180E+02  0.16485639635E+02  0.26072295872E+02  0.00000000000E+00 0. -1.
</event>
<event>
 4    1  0.5452128E+002  0.4671168E+02  0.7546771E-02  0.1313096E+00
          2   -1    0    0  503    0  0.00000000000E+00  0.00000000000E+00  0.78901773806E+03  0.78901773806E+03  0.00000000000E+00 0. -1.
         -2   -1    0    0    0  501 -0.00000000000E+00 -0.00000000000E+00 -0.30683893396E+01  0.30683893396E+01  0.00000000000E+00 0.  1.
         21    1    1    2  502  501 -0.27284419777E+02  0.37914924183E+02  0.26853113832E+03  0.27256366832E+03  0.00000000000E+00 0.  1.
         21    1    1    2  503  502  0.27284419777E+02 -0.37914924183E+02  0.51741821040E+03  0.51952245908E+03  0.00000000000E+00 0. -1.
</event>
<event>
 4    1  0.5452128E+002  0.3889448E+02  0.7546771E-02  0.1355089E+00
          2   -1    0    0  502    0  0.00000000000E+00  0.00000000000E+00  0.28260517339E+03  0.28260517339E+03  0.00000000000E+00 0.  1.
         -2   -1    0    0    0  501 -0.00000000000E+00 -0.00000000000E+00 -0.63283046784E+01  0.63283046784E+01  0.00000000000E+00 0. -1.
         21    1    1    2  502  503  0.38568588847E+02 -0.50243864027E+01  0.81423391615E+02  0.90236074862E+02  0.00000000000E+00 0. -1.
         21    1    1    2  503  501 -0.38568588847E+02  0.50243864027E+01  0.19485347709E+03  0.19869740320E+03  0.00000000000E+00 0.  1.
</event>
<event>
 4    1  0.5452128E+002  0.2156907E+02  0.7546771E-02  0.1511293E+00
          2   -1    0    0  502    0  0.00000000000E+00  0.00000000000E+00  0.64130575373E+02  0.64130575373E+02  0.00000000000E+00 0. -1.
         -2   -1    0    0    0  501 -0.00000000000E+00 -0.00000000000E+00 -0.73379640842E+01  0.73379640842E+01  0.00000000000E+00 0.  1.
         21    1    1    2  502  503 -0.18722547234E+02 -0.10709394217E+02  0.32211062007E+02  0.38765673153E+02  0.00000000000E+00 0.  1.
         21    1    1    2  503  501  0.18722547234E+02  0.10709394217E+02  0.24581549282E+02  0.32702866304E+02  0.00000000000E+00 0. -1.
</event>
<event>
 4    1  0.5452128E+002  0.2149404E+02  0.7546771E-02  0.1512327E+00
          2   -1    0    0  503    0  0.00000000000E+00  0.00000000000E+00  0.19119275155E+02  0.19119275155E+02  0.00000000000E+00 0.  1.
         -2   -1    0    0    0  501 -0.00000000000E+00 -0.00000000000E+00 -0.66431653720E+02  0.66431653720E+02  0.00000000000E+00 0. -1.
         21    1    1    2  502  501 -0.19995967576E+02  0.78838493503E+01 -0.57776458173E+02  0.61645055916E+02  0.00000000000E+00 0. -1.
         21    1    1    2  503  502  0.19995967576E+02 -0.78838493503E+01  0.10464079607E+02  0.23905872959E+02  0.00000000000E+00 0.  1.
</event>
<event>
 4    1  0.5452128E+002  0.4554122E+02  0.7546771E-02  0.1318755E+00
          2   -1    0    0  503    0  0.00000000000E+00  0.00000000000E+00  0.15255457353E+04  0.15255457353E+04  0.00000000000E+00 0. -1.
         -2   -1    0    0    0  501 -0.00000000000E+00 -0.00000000000E+00 -0.17987018956E+01  0.17987018956E+01  0.00000000000E+00 0.  1.
         21    1    1    2  502  501 -0.56694083909E+01  0.45186955143E+02  0.38451702623E+03  0.38720452808E+03  0.00000000000E+00 0.  1.
         21    1    1    2  503  502  0.56694083909E+01 -0.45186955143E+02  0.11392300072E+04  0.11401399091E+04  0.00000000000E+00 0. -1.
</event>
<event>
 4    1  0.5452128E+002  0.3580627E+02  0.7546771E-02  0.1374982E+00
          2   -1    0    0  502    0  0.00000000000E+00  0.00000000000E+00  0.15757116108E+04  0.15757116108E+04  0.00000000000E+00 0. -1.
         -2   -1    0    0    0  501 -0.00000000000E+00 -0.00000000000E+00 -0.47385655723E+01  0.47385655723E+01  0.00000000000E+00 0.  1.
         21    1    1    2  502  503 -0.24709382304E+02  0.25913994014E+02  0.15046740432E+04  0.15051000182E+04  0.00000000000E+00 0. -1.
         21    1    1    2  503  501  0.24709382304E+02 -0.25913994014E+02  0.66299002060E+02  0.75350158154E+02  0.00000000000E+00 0.  1.
</event>
<event>
 4    1  0.5452128E+002  0.3359445E+02  0.7546771E-02  0.1390723E+00
          2   -1    0    0  503    0  0.00000000000E+00  0.00000000000E+00  0.53755543316E+02  0.53755543316E+02  0.00000000000E+00 0.  1.
         -2   -1    0    0    0  501 -0.00000000000E+00 -0.00000000000E+00 -0.28166651904E+02  0.28166651904E+02  0.00000000000E+00 0. -1.
         21    1    1    2  502  501 -0.33105400138E+02  0.57113476847E+01 -0.78745585979E+01  0.34505009547E+02  0.00000000000E+00 0. -1.
         21    1    1    2  503  502  0.33105400138E+02 -0.57113476847E+01  0.33463450010E+02  0.47417185674E+02  0.00000000000E+00 0.  1.
</event>
<event>
 4    1  0.5452128E+002  0.6721947E+02  0.7546771E-02  0.1237097E+00
          2   -1    0    0  502    0  0.00000000000E+00  0.00000000000E+00  0.45590085394E+03  0.45590085394E+03  0.00000000000E+00 0.  1.
         -2   -1    0    0    0  501 -0.00000000000E+00 -0.00000000000E+00 -0.42661694818E+02  0.42661694818E+02  0.00000000000E+00 0. -1.
         21    1    1    2  502  503  0.46349072509E+02 -0.48684915110E+02  0.42503359951E+03  0.43031618398E+03  0.00000000000E+00 0.  1.
         21    1    1    2  503  501 -0.46349072509E+02  0.48684915110E+02 -0.11794440386E+02  0.68246364781E+02  0.00000000000E+00 0. -1.
</event>
<event>
 4    1  0.5452128E+002  0.2581060E+02  0.7546771E-02  0.1459936E+00
          2   -1    0    0  503    0  0.00000000000E+00  0.00000000000E+00  0.10461105437E+03  0.10461105437E+03  0.00000000000E+00 0.  1.
         -2   -1    0    0    0  501 -0.00000000000E+00 -0.00000000000E+00 -0.64600255365E+01  0.64600255365E+01  0.00000000000E+00 0. -1.
         21    1    1    2  502  501 -0.24033932212E+02 -0.94104730271E+01  0.55695738364E+02  0.61385683771E+02  0.00000000000E+00 0. -1.
         21    1    1    2  503  502  0.24033932212E+02  0.94104730271E+01  0.42455290466E+02  0.49685396131E+02  0.00000000000E+00 0.  1.
</event>
<event>
 4    1  0.5452128E+002  0.2199489E+02  0.7546771E-02  0.1505520E+00
          2   -1    0    0  502    0  0.00000000000E+00  0.00000000000E+00  0.19747378318E+03  0.19747378318E+03  0.00000000000E+00 0.  1.
         -2   -1    0    0    0  501 -0.00000000000E+00 -0.00000000000E+00 -0.25139605171E+01  0.25139605171E+01  0.00000000000E+00 0. -1.
         21    1    1    2  502  503 -0.17134540592E+02  0.13790668806E+02  0.11345207489E+03  0.11556447691E+03  0.00000000000E+00 0. -1.
         21    1    1    2  503  501  0.17134540592E+02 -0.13790668806E+02  0.81507747776E+02  0.84423266787E+02  0.00000000000E+00 0.  1.
</event>
<event>
 4    1  0.5452128E+002  0.2436723E+02  0.7546771E-02  0.1476008E+00
          2   -1    0    0  503    0  0.00000000000E+00  0.00000000000E+00  0.40589247500E+02  0.40589247500E+02  0.00000000000E+00 0. -1.
         -2   -1    0    0    0  501 -0.00000000000E+00 -0.00000000000E+00 -0.20300756492E+02  0.20300756492E+02  0.00000000000E+00 0.  1.
         21    1    1    2  502  501  0.15660482795E+01 -0.24316854445E+02 -0.59487109464E+01  0.25082844321E+02  0.00000000000E+00 0.  1.
         21    1    1    2  503  502 -0.15660482795E+01  0.24316854445E+02  0.26237201954E+02  0.35807159671E+02  0.00000000000E+00 0. -1.
</event>
<event>
 4    1  0.5452128E+002  0.2114012E+02  0.7546771E-02  0.1517274E+00
          2   -1    0    0  503    0  0.00000000000E+00  0.00000000000E+00  0.16605349801E+04  0.16605349801E+04  0.00000000000E+00 0. -1.
         -2   -1    0    0    0  501 -0.00000000000E+00 -0.00000000000E+00 -0.40690809448E+00  0.40690809448E+00  0.00000000000E+00 0.  1.
         21    1    1    2  502  501 -0.19715621019E+02 -0.76288122858E+01  0.34682512788E+03  0.34746880985E+03  0.00000000000E+00 0.  1.
         21    1    1    2  503  502  0.19715621019E+02  0.76288122858E+01  0.13133029441E+04  0.13134730783E+04  0.00000000000E+00 0. -1.
</event>
<event>
 4    1  0.5452128E+002  0.2159177E+02  0.7546771E-02  0.1510981E+00
          2   -1    0    0  503    0  0.00000000000E+00  0.00000000000E+00  0.22585200177E+03  0.22585200177E+03  0.00000000000E+00 0.  1.
         -2   -1    0    0    0  501 -0.00000000000E+00 -0.00000000000E+00 -0.27927053594E+01  0.27927053594E+01  0.00000000000E+00 0. -1.
         21    1    1    2  502  501 -0.18451732275E+02 -0.11213299143E+02  0.53140260943E+02  0.57359322126E+02  0.00000000000E+00 0.  1.
         21    1    1    2  503  502  0.18451732275E+02  0.11213299143E+02  0.16991903547E+03  0.17128538501E+03  0.00000000000E+00 0. -1.
</event>
<event>
 4    1  0.5452128E+002  0.5336443E+02  0.7546771E-02  0.1284209E+00
          2   -1    0    0  503    0  0.00000000000E+00  0.00000000000E+00  0.70585904607E+03  0.70585904607E+03  0.00000000000E+00 0. -1.
         -2   -1    0    0    0  501 -0.00000000000E+00 -0.00000000000E+00 -0.13600881814E+02  0.13600881814E+02  0.00000000000E+00 0.  1.
         21    1    1    2  502  501  0.42419405451E+02  0.32378336863E+02  0.44434326192E+02  0.69441860581E+02  0.00000000000E+00 0.  1.
         21    1    1    2  503  502 -0.42419405451E+02 -0.32378336863E+02  0.64782383806E+03  0.65001806730E+03  0.00000000000E+00 0. -1.
</event>
<event>
 4    1  0.5452128E+002  0.2287768E+02  0.7546771E-02  0.1494040E+00
          2   -1    0    0  502    0  0.00000000000E+00  0.00000000000E+00  0.29764867182E+02  0.29764867182E+02  0.00000000000E+00 0.  1.
         -2   -1    0    0    0  501 -0.00000000000E+00 -0.00000000000E+00 -0.29774174863E+02  0.29774174863E+02  0.00000000000E+00 0. -1.
         21    1    1    2  502  503  0.14350182040E+02  0.17817417470E+02  0.19043608003E+02  0.29766543226E+02  0.00000000000E+00 0.  1.
         21    1    1    2  503  501 -0.14350182040E+02 -0.17817417470E+02 -0.19052915684E+02  0.29772498819E+02  0.00000000000E+00 0. -1.
</event>
<event>
 4    1  0.5452128E+002  0.2133665E+02  0.7546771E-02  0.1514512E+00
          2   -1    0    0  502    0  0.00000000000E+00  0.00000000000E+00  0.24554789146E+03  0.24554789146E+03  0.00000000000E+00 0.  1.
         -2   -1    0    0    0  501 -0.00000000000E+00 -0.00000000000E+00 -0.41395432899E+01  0.41395432899E+01  0.00000000000E+00 0. -1.
         21    1    1    2  502  503  0.18643364895E+02 -0.10376785314E+02  0.21346882595E+03  0.21453249726E+03  0.00000000000E+00 0.  1.
         21    1    1    2  503  501 -0.18643364895E+02  0.10376785314E+02  0.27939522221E+02  0.35154937491E+02  0.00000000000E+00 0. -1.
</event>
<event>
 4    1  0.5452128E+002  0.2659396E+02  0.7546771E-02  0.1451730E+00
          2   -1    0    0  502    0  0.00000000000E+00  0.00000000000E+00  0.11953472235E+04  0.11953472235E+04  0.00000000000E+00 0. -1.
         -2   -1    0    0    0  501 -0.00000000000E+00 -0.00000000000E+00 -0.76273867316E+00  0.76273867316E+00  0.00000000000E+00 0.  1.
         21    1    1    2  502  503  0.23066647322E+02  0.13235128605E+02  0.88053021267E+03  0.88093171941E+03  0.00000000000E+00 0. -1.
         21    1    1    2  503  501 -0.23066647322E+02 -0.13235128605E+02  0.31405427219E+03  0.31517824279E+03  0.00000000000E+00 0.  1.
</event>
<event>
 4    1  0.5452128E+002  0.2234470E+02  0.7546771E-02  0.1500895E+00
          2   -1    0    0  502    0  0.00000000000E+00  0.00000000000E+00  0.41315214438E+02  0.41315214438E+02  0.00000000000E+00 0. -1.
         -2   -1    0    0    0  501 -0.00000000000E+00 -0.00000000000E+00 -0.14601921923E+02  0.14601921923E+02  0.00000000000E+00 0.  1.
         21    1    1    2  502  503 -0.22319897640E+02 -0.10524701451E+01  0.24964802673E+02  0.33504132529E+02  0.00000000000E+00 0. -1.
         21    1    1    2  503  501  0.22319897640E+02  0.10524701451E+01  0.17484898421E+01  0.22413003832E+02  0.00000000000E+00 0.  1.
</event>
<event>
 4    1  0.5452128E+002  0.2017320E+02  0.7546771E-02  0.1531404E+00
          2   -1    0    0  502    0  0.00000000000E+00  0.00000000000E+00  0.72330351085E+03  0.72330351085E+03  0.00000000000E+00 0. -1.
         -2   -1    0    0    0  501 -0.00000000000E+00 -0.00000000000E+00 -0.48728217880E+01  0.48728217880E+01  0.00000000000E+00 0.  1.
         21    1    1    2  502  503 -0.18921453089E+02 -0.69954626430E+01  0.70163935139E+03  0.70192929651E+03  0.00000000000E+00 0. -1.
         21    1    1    2  503  501  0.18921453089E+02  0.69954626430E+01  0.16791337675E+02  0.26247036128E+02  0.00000000000E+00 0.  1.
</event>
<event>
 4    1  0.5452128E+002  0.2784395E+02  0.7546771E-02  0.1439310E+00
          2   -1    0    0  503    0  0.00000000000E+00  0.00000000000E+00  0.53556056437E+03  0.53556056437E+03  0.00000000000E+00 0.  1.
         -2   -1    0    0    0  501 -0.00000000000E+00 -0.00000000000E+00 -0.14749223937E+01  0.14749223937E+01  0.00000000000E+00 0. -1.
         21    1    1    2  502  501  0.24500242323E+02 -0.13229643208E+02  0.23050597121E+03  0.23218158432E+03  0.00000000000E+00 0.  1.
         21    1    1    2  503  502 -0.24500242323E+02  0.13229643208E+02  0.30357967076E+03  0.30485390244E+03  0.00000000000E+00 0. -1.
</event>
<event>
 4    1  0.5452128E+002  0.2889099E+02  0.7546771E-02  0.1429485E+00
          2   -1    0    0  502    0  0.00000000000E+00  0.00000000000E+00  0.30669968311E+01  0.30669968311E+01  0.00000000000E+00 0.  1.
         -2   -1    0    0    0  501 -0.00000000000E+00 -0.00000000000E+00 -0.39805897509E+03  0.39805897509E+03  0.00000000000E+00 0. -1.
         21    1    1    2  502  503 -0.17811570615E+02 -0.22747243754E+02 -0.84697814885E+02  0.89489714451E+02  0.00000000000E+00 0.  1.
         21    1    1    2  503  501  0.17811570615E+02  0.22747243754E+02 -0.31029416337E+03  0.31163625747E+03  0.00000000000E+00 0. -1.
</event>
<event>
 4    1  0.5452128E+002  0.4642096E+02  0.7546771E-02  0.1314483E+00
          2   -1    0    0  503    0  0.00000000000E+00  0.00000000000E+00  0.10637167787E+04  0.10637167787E+04  0.00000000000E+00 0.  1.
         -2   -1    0    0    0  501 -0.00000000000E+00 -0.00000000000E+00 -0.22956929946E+01  0.22956929946E+01  0.00000000000E+00 0. -1.
         21    1    1    2  502  501  0.43132006702E+02  0.17162049589E+02  0.34796380407E+03  0.35104659932E+03  0.00000000000E+00 0. -1.
         21    1    1    2  503  502 -0.43132006702E+02 -0.17162049589E+02  0.71345728162E+03  0.71496587236E+03  0.00000000000E+00 0.  1.
</event>
<event>
 4    1  0.5452128E+002  0.4728863E+02  0.7546771E-02  0.1310376E+00
          2   -1    0    0  503    0  0.00000000000E+00  0.00000000000E+00  0.76546435290E+03  0.76546435290E+03  0.00000000000E+00 0.  1.
         -2   -1    0    0    0  501 -0.00000000000E+00 -0.00000000000E+00 -0.66106667168E+01  0.66106667168E+01  0.00000000000E+00 0. -1.
         21    1    1    2  502  501 -0.26886277436E+02  0.38901699196E+02  0.91038345092E+02  0.10258749627E+03  0.00000000000E+00 0. -1.
         21    1    1    2  503  502  0.26886277436E+02 -0.38901699196E+02  0.66781534109E+03  0.66948752334E+03  0.00000000000E+00 0.  1.
</event>
<event>
 4    1  0.5452128E+002  0.2564137E+02  0.7546771E-02  0.1461755E+00
          2   -1    0    0  502    0  0.00000000000E+00  0.00000000000E+00  0.11654216012E+04  0.11654216012E+04  0.00000000000E+00 0. -1.
         -2   -1    0    0    0  501 -0.00000000000E+00 -0.00000000000E+00 -0.63368422479E+00  0.63368422479E+00  0.00000000000E+00 0.  1.
         21    1    1    2  502  503  0.24547751369E+02  0.74086258436E+01  0.77551634139E+03  0.77594012372E+03  0.00000000000E+00 0.  1.
         21    1    1    2  503  501 -0.24547751369E+02 -0.74086258436E+01  0.38927157563E+03  0.39011516175E+03  0.00000000000E+00 0. -1.
</event>
<event>
 4    1  0.5452128E+002  0.2275914E+02  0.7546771E-02  0.1495545E+00
          2   -1    0    0  502    0  0.00000000000E+00  0.00000000000E+00  0.24916842354E+03  0.24916842354E+03  0.00000000000E+00 0. -1.
         -2   -1    0    0    0  501 -0.00000000000E+00 -0.00000000000E+00 -0.29038859513E+01  0.29038859513E+01  0.00000000000E+00 0.  1.
         21    1    1    2  502  503  0.20438158959E+01  0.22667181717E+02  0.19031344116E+03  0.19166946599E+03  0.00000000000E+00 0. -1.
         21    1    1    2  503  501 -0.20438158959E+01 -0.22667181717E+02  0.55951096438E+02  0.60402843501E+02  0.00000000000E+00 0.  1.
</event>
<event>
 4    1  0.5452128E+002  0.2480979E+02  0.7546771E-02  0.1470943E+00
          2   -1    0    0  503    0  0.00000000000E+00  0.00000000000E+00  0.10309416224E+04  0.10309416224E+04  0.00000000000E+00 0.  1.
         -2   -1    0    0    0  501 -0.00000000000E+00 -0.00000000000E+00 -0.59731294567E+00  0.59731294567E+00  0.00000000000E+00 0. -1.
         21    1    1    2  502  501 -0.81489268293E+01  0.23433328463E+02  0.50439456434E+03  0.50500435882E+03  0.00000000000E+00 0. -1.
         21    1    1    2  503  502  0.81489268293E+01 -0.23433328463E+02  0.52594974509E+03  0.52653457651E+03  0.00000000000E+00 0.  1.
</event>
<event>
 4    1  0.5452128E+002  0.2612805E+02  0.7546771E-02  0.1456569E+00
          2   -1    0    0  502    0  0.00000000000E+00  0.00000000000E+00  0.17286195098E+03  0.17286195098E+03  0.00000000000E+00 0. -1.
         -2   -1    0    0    0  501 -0.00000000000E+00 -0.00000000000E+00 -0.56449858376E+01  0.56449858376E+01  0.00000000000E+00 0.  1.
         21    1    1    2  502  503  0.25346073932E+02  0.63444057742E+01  0.13252695146E+03  0.13507800639E+03  0.00000000000E+00 0. -1.
         21    1    1    2  503  501 -0.25346073932E+02 -0.63444057742E+01  0.34690013683E+02  0.43428930423E+02  0.00000000000E+00 0.  1.
</event>
<event>
 4    1  0.5452128E+002  0.3675309E+02  0.7546771E-02  0.1368640E+00
          2   -1    0    0  502    0  0.00000000000E+00  0.00000000000E+00  0.33194440234E+01  0.33194440234E+01  0.00000000000E+00 0. -1.
         -2   -1    0    0    0  501 -0.00000000000E+00 -0.00000000000E+00 -0.44547763457E+03  0.44547763457E+03  0.00000000000E+00 0.  1.
         21    1    1    2  502  503 -0.69490750879E+01 -0.36090160369E+02 -0.15507172591E+03  0.15936759237E+03  0.00000000000E+00 0. -1.
         21    1    1    2  503  501  0.69490750879E+01  0.36090160369E+02 -0.28708646463E+03  0.28942948622E+03  0.00000000000E+00 0.  1.
</event>
<event>
 4    1  0.5452128E+002  0.4687677E+02  0.7546771E-02  0.1312313E+00
          2   -1    0    0  503    0  0.00000000000E+00  0.00000000000E+00  0.18775154922E+04  0.18775154922E+04  0.00000000000E+00 0.  1.
         -2   -1    0    0    0  501 -0.00000000000E+00 -0.00000000000E+00 -0.14183244456E+01  0.14183244456E+01  0.00000000000E+00 0. -1.
         21    1    1    2  502  501  0.44762203691E+02 -0.13920380101E+02  0.54525978679E+03  0.54727110919E+03  0.00000000000E+00 0. -1.
         21    1    1    2  503  502 -0.44762203691E+02  0.13920380101E+02  0.13308373809E+04  0.13316627074E+04  0.00000000000E+00 0.  1.
</event>
<event>
 4    1  0.5452128E+002  0.2567253E+02  0.7546771E-02  0.1461419E+00
          2   -1    0    0  502    0  0.00000000000E+00  0.00000000000E+00  0.56740137320E+01  0.56740137320E+01  0.00000000000E+00 0. -1.
         -2   -1    0    0    0  501 -0.00000000000E+00 -0.00000000000E+00 -0.23505920034E+03  0.23505920034E+03  0.00000000000E+00 0.  1.
         21    1    1    2  502  503  0.25391517349E+02  0.37880780592E+01 -0.20030005194E+03  0.20193857852E+03  0.00000000000E+00 0.  1.
         21    1    1    2  503  501 -0.25391517349E+02 -0.37880780592E+01 -0.29085134663E+02  0.38794635544E+02  0.00000000000E+00 0. -1.
</event>
<event>
 4    1  0.5452128E+002  0.6937064E+02  0.7546771E-02  0.1230938E+00
          2   -1    0    0  503    0  0.00000000000E+00  0.00000000000E+00  0.23810985329E+03  0.23810985329E+03  0.00000000000E+00 0.  1.
         -2   -1    0    0    0  501 -0.00000000000E+00 -0.00000000000E+00 -0.29306265631E+02  0.29306265631E+02  0.00000000000E+00 0. -1.
         21    1    1    2  502  501 -0.67842994387E+02 -0.14478047547E+02  0.29911390015E+02  0.75544536538E+02  0.00000000000E+00 0. -1.
         21    1    1    2  503  502  0.67842994387E+02  0.14478047547E+02  0.17889219764E+03  0.19187158238E+03  0.00000000000E+00 0.  1.
</event>
<event>
 4    1  0.5452128E+002  0.2594075E+02  0.7546771E-02  0.1458549E+00
          2   -1    0    0  503    0  0.00000000000E+00  0.00000000000E+00  0.78270201203E+03  0.78270201203E+03  0.00000000000E+00 0.  1.
         -2   -1    0    0    0  501 -0.00000000000E+00 -0.00000000000E+00 -0.18805400288E+01  0.18805400288E+01  0.00000000000E+00 0. -1.
         21    1    1    2  502  501 -0.95567956973E+01  0.24116181062E+02  0.67943684044E+03  0.67993186620E+03  0.00000000000E+00 0.  1.
         21    1    1    2  503  502  0.95567956973E+01 -0.24116181062E+02  0.10138463156E+03  0.10465068585E+03  0.00000000000E+00 0. -1.
</event>
<event>
 4    1  0.5452128E+002  0.2778790E+02  0.7546771E-02  0.1439850E+00
          2   -1    0    0  502    0  0.00000000000E+00  0.00000000000E+00  0.11140532748E+03  0.11140532748E+03  0.00000000000E+00 0. -1.
         -2   -1    0    0    0  501 -0.00000000000E+00 -0.00000000000E+00 -0.80366800048E+01  0.80366800048E+01  0.00000000000E+00 0.  1.
         21    1    1    2  502  503  0.20797917956E+02  0.18428624563E+02  0.73834288596E+02  0.78890238731E+02  0.00000000000E+00 0. -1.
         21    1    1    2  503  501 -0.20797917956E+02 -0.18428624563E+02  0.29534358875E+02  0.40551768750E+02  0.00000000000E+00 0.  1.
</event>
<event>
 4    1  0.5452128E+002  0.2227967E+02  0.7546771E-02  0.1501747E+00
          2   -1    0    0  502    0  0.00000000000E+00  0.00000000000E+00  0.18203408314E+03  0.18203408314E+03  0.00000000000E+00 0. -1.
         -2   -1    0    0    0  501 -0.00000000000E+00 -0.00000000000E+00 -0.33181563387E+01  0.33181563387E+01  0.00000000000E+00 0.  1.
         21    1    1    2  502  503  0.22272290477E+02 -0.57351905820E+00  0.12847961657E+03  0.13039706945E+03  0.00000000000E+00 0. -1.
         21    1    1    2  503  501 -0.22272290477E+02  0.57351905820E+00  0.50236310227E+02  0.54955170024E+02  0.00000000000E+00 0.  1.
</event>
<event>
 4    1  0.5452128E+002  0.2342423E+02  0.7546771E-02  0.1487239E+00
          2   -1    0    0  503    0  0.00000000000E+00  0.00000000000E+00  0.60696586508E+03  0.60696586508E+03  0.00000000000E+00 0. -1.
         -2   -1    0    0    0  501 -0.00000000000E+00 -0.00000000000E+00 -0.27473069660E+01  0.27473069660E+01  0.00000000000E+00 0.  1.
         21    1    1    2  502  501 -0.22386770089E+02  0.68939898109E+01  0.52396182927E+02  0.57393854687E+02  0.00000000000E+00 0.  1.
         21    1    1    2  503  502  0.22386770089E+02 -0.68939898109E+01  0.55182237519E+03  0.55231931736E+03  0.00000000000E+00 0. -1.
</event>
<event>
 4    1  0.5452128E+002  0.2015544E+02  0.7546771E-02  0.1531673E+00
          2   -1    0    0  503    0  0.00000000000E+00  0.00000000000E+00  0.18079966420E+04  0.18079966420E+04  0.00000000000E+00 0. -1.
         -2   -1    0    0    0  501 -0.00000000000E+00 -0.00000000000E+00 -0.23442138270E+00  0.23442138270E+00  0.00000000000E+00 0.  1.
         21    1    1    2  502  501  0.38919322223E+01  0.19776112739E+02  0.10880751154E+04  0.10882617785E+04  0.00000000000E+00 0. -1.
         21    1    1    2  503  502 -0.38919322223E+01 -0.19776112739E+02  0.71968710518E+03  0.71996928485E+03  0.00000000000E+00 0.  1.
</event>
<event>
 4    1  0.5452128E+002  0.2243892E+02  0.7546771E-02  0.1499666E+00
          2   -1    0    0  503    0  0.00000000000E+00  0.00000000000E+00  0.20025384427E+03  0.20025384427E+03  0.00000000000E+00 0.  1.
         -2   -1    0    0    0  501 -0.00000000000E+00 -0.00000000000E+00 -0.82391516190E+01  0.82391516190E+01  0.00000000000E+00 0. -1.
         21    1    1    2  502  501 -0.14166958639E+02 -0.17401214765E+02  0.91110902524E+01  0.24218112189E+02  0.00000000000E+00 0. -1.
         21    1    1    2  503  502  0.14166958639E+02  0.17401214765E+02  0.18290360240E+03  0.18427488370E+03  0.00000000000E+00 0.  1.
</event>
<event>
 4    1  0.5452128E+002  0.4287224E+02  0.7546771E-02  0.1332430E+00
          2   -1    0    0  503    0  0.00000000000E+00  0.00000000000E+00  0.13502434101E+04  0.13502434101E+04  0.00000000000E+00 0.  1.
         -2   -1    0    0    0  501 -0.00000000000E+00 -0.00000000000E+00 -0.29445794463E+01  0.29445794463E+01  0.00000000000E+00 0. -1.
         21    1    1    2  502  501 -0.30799366697E+02  0.29823279697E+02  0.17751299005E+03  0.18261678630E+03  0.00000000000E+00 0. -1.
         21    1    1    2  503  502  0.30799366697E+02 -0.29823279697E+02  0.11697858406E+04  0.11705712033E+04  0.00000000000E+00 0.  1.
</event>
<event>
 4    1  0.5452128E+002  0.2747054E+02  0.7546771E-02  0.1442938E+00
          2   -1    0    0  502    0  0.00000000000E+00  0.00000000000E+00  0.88606597385E+03  0.88606597385E+03  0.00000000000E+00 0.  1.
         -2   -1    0    0    0  501 -0.00000000000E+00 -0.00000000000E+00 -0.35252390886E+01  0.35252390886E+01  0.00000000000E+00 0. -1.
         21    1    1    2  502  503 -0.17784852200E+02 -0.20936318301E+02  0.82862825379E+03  0.82908347793E+03  0.00000000000E+00 0.  1.
         21    1    1    2  503  501  0.17784852200E+02  0.20936318301E+02  0.53912480974E+02  0.60507735014E+02  0.00000000000E+00 0. -1.
</event>
<event>
 4    1  0.5452128E+002  0.2031704E+02  0.7546771E-02  0.1529243E+00
          2   -1    0    0  502    0  0.00000000000E+00  0.00000000000E+00  0.56995074850E+01  0.56995074850E+01  0.00000000000E+00 0.  1.
         -2   -1    0    0    0  501 -0.00000000000E+00 -0.00000000000E+00 -0.27868089124E+03  0.27868089124E+03  0.00000000000E+00 0. -1.
         21    1    1    2  502  503  0.15554524859E+02 -0.13070538907E+02 -0.14164319095E+02  0.24767118652E+02  0.00000000000E+00 0.  1.
         21    1    1    2  503  501 -0.15554524859E+02  0.13070538907E+02 -0.25881706467E+03  0.25961328008E+03  0.00000000000E+00 0. -1.
</event>
<event>
 4    1  0.5452128E+002  0.2835560E+02  0.7546771E-02  0.1434446E+00
          2   -1    0    0  503    0  0.00000000000E+00  0.00000000000E+00  0.68650321432E+03  0.68650321432E+03  0.00000000000E+00 0.  1.
         -2   -1    0    0    0  501 -0.00000000000E+00 -0.00000000000E+00 -0.35351720779E+01  0.35351720779E+01  0.00000000000E+00 0. -1.
         21    1    1    2  502  501  0.11688560906E+02 -0.25834426704E+02  0.59348255149E+02  0.65774276495E+02  0.00000000000E+00 0. -1.
         21    1    1    2  503  502 -0.11688560906E+02  0.25834426704E+02  0.62361978709E+03  0.62426410990E+03  0.00000000000E+00 0.  1.
</event>
<event>
 4    1  0.5452128E+002  0.2702873E+02  0.7546771E-02  0.1447320E+00
          2   -1    0    0  502    0  0.00000000000E+00  0.00000000000E+00  0.46703369314E+01  0.46703369314E+01  0.00000000000E+00 0.  1.
         -2   -1    0    0    0  501 -0.00000000000E+00 -0.00000000000E+00 -0.20753341708E+03  0.20753341708E+03  0.00000000000E+00 0. -1.
         21    1    1    2  502  503 -0.89924896741E+01  0.25488969892E+02 -0.48777729071E+02  0.55765753917E+02  0.00000000000E+00 0.  1.
         21    1    1    2  503  501  0.89924896741E+01 -0.25488969892E+02 -0.15408535108E+03  0.15643800010E+03  0.00000000000E+00 0. -1.
</event>
<event>
 4    1  0.5452128E+002  0.2045103E+02  0.7546771E-02  0.1527249E+00
          2   -1    0    0  502    0  0.00000000000E+00  0.00000000000E+00  0.56140119578E+02  0.56140119578E+02  0.00000000000E+00 0.  1.
         -2   -1    0    0    0  501 -0.00000000000E+00 -0.00000000000E+00 -0.14332694397E+02  0.14332694397E+02  0.00000000000E+00 0. -1.
         21    1    1    2  502  503  0.19168307339E+02  0.71288590353E+01  0.45321511950E+02  0.49722068369E+02  0.00000000000E+00 0.  1.
         21    1    1    2  503  501 -0.19168307339E+02 -0.71288590353E+01 -0.35140867684E+01  0.20750745606E+02  0.00000000000E+00 0. -1.
</event>
<event>
 4    1  0.5452128E+002  0.2620300E+02  0.7546771E-02  0.1455783E+00
          2   -1    0    0  502    0  0.00000000000E+00  0.00000000000E+00  0.17513614009E+03  0.17513614009E+03  0.00000000000E+00 0. -1.
         -2   -1    0    0    0  501 -0.00000000000E+00 -0.00000000000E+00 -0.14730570706E+03  0.14730570706E+03  0.00000000000E+00 0.  1.
         21    1    1    2  502  503  0.16279829094E+02  0.20532029476E+02  0.17297632369E+03  0.17494972314E+03  0.00000000000E+00 0. -1.
         21    1    1    2  503  501 -0.16279829094E+02 -0.20532029476E+02 -0.14514589066E+03  0.14749212401E+03  0.00000000000E+00 0.  1.
</event>
<event>
 4    1  0.5452128E+002  0.2765353E+02  0.7546771E-02  0.1441151E+00
          2   -1    0    0  502    0  0.00000000000E+00  0.00000000000E+00  0.10682569529E+04  0.10682569529E+04  0.00000000000E+00 0.  1.
         -2   -1    0    0    0  501 -0.00000000000E+00 -0.00000000000E+00 -0.14663872276E+01  0.14663872276E+01  0.00000000000E+00 0. -1.
         21    1    1    2  502  503  0.22020166192E+02  0.16728116059E+02  0.91604524733E+03  0.91646255392E+03  0.00000000000E+00 0.  1.
         21    1    1    2  503  501 -0.22020166192E+02 -0.16728116059E+02  0.15074531833E+03  0.15326078619E+03  0.00000000000E+00 0. -1.
</event>
<event>
 4    1  0.5452128E+002  0.2794729E+02  0.7546771E-02  0.1438318E+00
          2   -1    0    0  502    0  0.00000000000E+00  0.00000000000E+00  0.39203872276E+02  0.39203872276E+02  0.00000000000E+00 0. -1.
         -2   -1    0    0    0  501 -0.00000000000E+00 -0.00000000000E+00 -0.19937990100E+02  0.19937990100E+02  0.00000000000E+00 0.  1.
         21    1    1    2  502  503  0.13692947875E+02 -0.24362965705E+02  0.10449147386E+02  0.29836816193E+02  0.00000000000E+00 0.  1.
         21    1    1    2  503  501 -0.13692947875E+02  0.24362965705E+02  0.88167347892E+01  0.29305046183E+02  0.00000000000E+00 0. -1.
</event>
<event>
 4    1  0.5452128E+002  0.3433985E+02  0.7546771E-02  0.1385265E+00
          2   -1    0    0  502    0  0.00000000000E+00  0.00000000000E+00  0.69654875452E+03  0.69654875452E+03  0.00000000000E+00 0. -1.
         -2   -1    0    0    0  501 -0.00000000000E+00 -0.00000000000E+00 -0.25307183372E+01  0.25307183372E+01  0.00000000000E+00 0.  1.
         21    1    1    2  502  503 -0.31697741150E+02 -0.13209040136E+02  0.54811981355E+03  0.54919446059E+03  0.00000000000E+00 0.  1.
         21    1    1    2  503  501  0.31697741150E+02  0.13209040136E+02  0.14589822263E+03  0.14988501227E+03  0.00000000000E+00 0. -1.
</event>
<event>
 4    1  0.5452128E+002  0.2736729E+02  0.7546771E-02  0.1443953E+00
          2   -1    0    0  503    0  0.00000000000E+00  0.00000000000E+00  0.40412429938E+03  0.40412429938E+03  0.00000000000E+00 0. -1.
         -2   -1    0    0    0  501 -0.00000000000E+00 -0.00000000000E+00 -0.24853338634E+01  0.24853338634E+01  0.00000000000E+00 0.  1.
         21    1    1    2  502  501 -0.20919704668E+02 -0.17644668719E+02  0.98296465073E+02  0.10203510878E+03  0.00000000000E+00 0.  1.
         21    1    1    2  503  502  0.20919704668E+02  0.17644668719E+02  0.30334250044E+03  0.30457452446E+03  0.00000000000E+00 0. -1.
</event>
<event>
 4    1  0.5452128E+002  0.3227426E+02  0.7546771E-02  0.1400810E+00
          2   -1    0    0  502    0  0.00000000000E+00  0.00000000000E+00  0.13066398496E+03  0.13066398496E+03  0.00000000000E+00 0.  1.
         -2   -1    0    0    0  501 -0.00000000000E+00 -0.00000000000E+00 -0.12396144129E+02  0.12396144129E+02  0.00000000000E+00 0. -1.
         21    1    1    2  502  503 -0.16935347190E+02  0.27474027055E+02  0.10186751107E+03  0.10685793353E+03  0.00000000000E+00 0.  1.
         21    1    1    2  503  501  0.16935347190E+02 -0.27474027055E+02  0.16400329766E+02  0.36202195562E+02  0.00000000000E+00 0. -1.
</event>
<event>
 4    1  0.5452128E+002  0.2444406E+02  0.7546771E-02  0.1475120E+00
          2   -1    0    0  503    0  0.00000000000E+00  0.00000000000E+00  0.60530908513E+01  0.60530908513E+01  0.00000000000E+00 0.  1.
         -2   -1    0    0    0  501 -0.00000000000E+00 -0.00000000000E+00 -0.19779920447E+03  0.19779920447E+03  0.00000000000E+00 0. -1.
         21    1    1    2  502  501  0.24350183443E+02  0.21402501113E+01 -0.16801408786E+03  0.16978293738E+03  0.00000000000E+00 0. -1.
         21    1    1    2  503  502 -0.24350183443E+02 -0.21402501113E+01 -0.23732025758E+02  0.34069357946E+02  0.00000000000E+00 0.  1.
</event>
<event>
 4    1  0.5452128E+002  0.3101096E+02  0.7546771E-02  0.1411010E+00
          2   -1    0    0  503    0  0.00000000000E+00  0.00000000000E+00  0.77735426118E+03  0.77735426118E+03  0.00000000000E+00 0. -1.
         -2   -1    0    0    0  501 -0.00000000000E+00 -0.00000000000E+00 -0.14796403855E+01  0.14796403855E+01  0.00000000000E+00 0.  1.
         21    1    1    2  502  501  0.30604745150E+02 -0.50028916657E+01  0.23028068858E+03  0.23235936582E+03  0.00000000000E+00 0.  1.
         21    1    1    2  503  502 -0.30604745150E+02  0.50028916657E+01  0.54559393221E+03  0.54647453574E+03  0.00000000000E+00 0. -1.
</event>
<event>
 4    1  0.5452128E+002  0.3737768E+02  0.7546771E-02  0.1364578E+00
          2   -1    0    0  503    0  0.00000000000E+00  0.00000000000E+00  0.18160543671E+03  0.18160543671E+03  0.00000000000E+00 0.  1.
         -2   -1    0    0    0  501 -0.00000000000E+00 -0.00000000000E+00 -0.97929994739E+01  0.97929994739E+01  0.00000000000E+00 0. -1.
         21    1    1    2  502  501  0.12070919539E+02  0.35374906371E+02  0.41590290781E+02  0.55918184757E+02  0.00000000000E+00 0.  1.
         21    1    1    2  503  502 -0.12070919539E+02 -0.35374906371E+02  0.13022214646E+03  0.13548025143E+03  0.00000000000E+00 0. -1.
</event>
<event>
 4    1  0.5452128E+002  0.2188065E+02  0.7546771E-02  0.1507053E+00
          2   -1    0    0  503    0  0.00000000000E+00  0.00000000000E+00  0.54412243195E+01  0.54412243195E+01  0.00000000000E+00 0.  1.
         -2   -1    0    0    0  501 -0.00000000000E+00 -0.00000000000E+00 -0.12341496426E+03  0.12341496426E+03  0.00000000000E+00 0. -1.
         21    1    1    2  502  501 -0.18055189771E+00  0.21879904129E+02 -0.24467891047E+02  0.32824388737E+02  0.00000000000E+00 0.  1.
         21    1    1    2  503  502  0.18055189771E+00 -0.21879904129E+02 -0.93505848890E+02  0.96031799839E+02  0.00000000000E+00 0. -1.
</event>
<event>
 4    1  0.5452128E+002  0.2532904E+02  0.7546771E-02  0.1465156E+00
          2   -1    0    0  502    0  0.00000000000E+00  0.00000000000E+00  0.44266129330E+03  0.44266129330E+03  0.00000000000E+00 0. -1.
         -2   -1    0    0    0  501 -0.00000000000E+00 -0.00000000000E+00 -0.12788698618E+02  0.12788698618E+02  0.00000000000E+00 0.  1.
         21    1    1    2  502  503  0.21401417796E+02  0.13547686439E+02  0.42936950458E+03  0.43011595175E+03  0.00000000000E+00 0. -1.
         21    1    1    2  503  501 -0.21401417796E+02 -0.13547686439E+02  0.50309010689E+00  0.25334040167E+02  0.00000000000E+00 0.  1.
</event>
<event>
 4    1  0.5452128E+002  0.4199882E+02  0.7546771E-02  0.1337155E+00
          2   -1    0    0  502    0  0.00000000000E+00  0.00000000000E+00  0.42016134495E+03  0.42016134495E+03  0.00000000000E+00 0. -1.
         -2   -1    0    0    0  501 -0.00000000000E+00 -0.00000000000E+00 -0.43700956207E+01  0.43700956207E+01  0.00000000000E+00 0.  1.
         21    1    1    2  502  503  0.37159617707E+02  0.19572016121E+02  0.16579117538E+03  0.17102811125E+03  0.00000000000E+00 0. -1.
         21    1    1    2  503  501 -0.37159617707E+02 -0.19572016121E+02  0.25000007395E+03  0.25350332932E+03  0.00000000000E+00 0.  1.
</event>
<event>
 4    1  0.5452128E+002  0.2690982E+02  0.7546771E-02  0.1448516E+00
          2   -1    0    0  503    0  0.00000000000E+00  0.00000000000E+00  0.17793084462E+03  0.17793084462E+03  0.00000000000E+00 0. -1.
         -2   -1    0    0    0  501 -0.00000000000E+00 -0.00000000000E+00 -0.17719255923E+02  0.17719255923E+02  0.00000000000E+00 0.  1.
         21    1    1    2  502  501  0.19269707558E+02  0.18783423580E+02 -0.57531206310E+01  0.27517940107E+02  0.00000000000E+00 0.  1.
         21    1    1    2  503  502 -0.19269707558E+02 -0.18783423580E+02  0.16596470932E+03  0.16813216043E+03  0.00000000000E+00 0. -1.
</event>
<event>
 4    1  0.5452128E+002  0.5500027E+02  0.7546771E-02  0.1277836E+00
          2   -1    0    0  503    0  0.00000000000E+00  0.00000000000E+00  0.19179828709E+03  0.19179828709E+03  0.00000000000E+00 0. -1.
         -2   -1    0    0    0  501 -0.00000000000E+00 -0.00000000000E+00 -0.29634479082E+02  0.29634479082E+02  0.00000000000E+00 0.  1.
         21    1    1    2  502  501  0.24094742460E+02  0.49441614308E+02  0.53576970642E+01  0.55260607646E+02  0.00000000000E+00 0.  1.
         21    1    1    2  503  502 -0.24094742460E+02 -0.49441614308E+02  0.15680611094E+03  0.16617215853E+03  0.00000000000E+00 0. -1.
</event>
<event>
 4    1  0.5452128E+002  0.3775109E+02  0.7546771E-02  0.1362193E+00
          2   -1    0    0  503    0  0.00000000000E+00  0.00000000000E+00  0.24305988230E+02  0.24305988230E+02  0.00000000000E+00 0. -1.
         -2   -1    0    0    0  501 -0.00000000000E+00 -0.00000000000E+00 -0.19304814137E+03  0.19304814137E+03  0.00000000000E+00 0.  1.
         21    1    1    2  502  501  0.20636010146E+02 -0.31611702819E+02 -0.17505460490E+03  0.17907891938E+03  0.00000000000E+00 0.  1.
         21    1    1    2  503  502 -0.20636010146E+02  0.31611702819E+02  0.63124517629E+01  0.38275210216E+02  0.00000000000E+00 0. -1.
</event>
<event>
 4    1  0.5452128E+002  0.2191589E+02  0.7546771E-02  0.1506579E+00
          2   -1    0    0  503    0  0.00000000000E+00  0.00000000000E+00  0.48804360136E+02  0.48804360136E+02  0.00000000000E+00 0. -1.
         -2   -1    0    0    0  501 -0.00000000000E+00 -0.00000000000E+00 -0.16523019213E+02  0.16523019213E+02  0.00000000000E+00 0.  1.
         21    1    1    2  502  501  0.21888405952E+02  0.10972545325E+01 -0.46304232336E+01  0.22399712096E+02  0.00000000000E+00 0.  1.
         21    1    1    2  503  502 -0.21888405952E+02 -0.10972545325E+01  0.36911764156E+02  0.42927667253E+02  0.00000000000E+00 0. -1.
</event>
<event>
 4    1  0.5452128E+002  0.2147720E+02  0.7546771E-02  0.1512560E+00
          2   -1    0    0  502    0  0.00000000000E+00  0.00000000000E+00  0.15740560806E+04  0.15740560806E+04  0.00000000000E+00 0.  1.
         -2   -1    0    0    0  501 -0.00000000000E+00 -0.00000000000E+00 -0.30519716612E+00  0.30519716612E+00  0.00000000000E+00 0. -1.
         21    1    1    2  502  503  0.23344827548E+00  0.21475929701E+02  0.94394861962E+03  0.94419291807E+03  0.00000000000E+00 0.  1.
         21    1    1    2  503  501 -0.23344827548E+00 -0.21475929701E+02  0.62980226379E+03  0.63016835967E+03  0.00000000000E+00 0. -1.
</event>
<event>
 4    1  0.5452128E+002  0.7365351E+02  0.7546771E-02  0.1219401E+00
          2   -1    0    0  503    0  0.00000000000E+00  0.00000000000E+00  0.80977357106E+02  0.80977357106E+02  0.00000000000E+00 0.  1.
         -2   -1    0    0    0  501 -0.00000000000E+00 -0.00000000000E+00 -0.87576454420E+02  0.87576454420E+02  0.00000000000E+00 0. -1.
         21    1    1    2  502  501  0.69863353672E+02  0.23322763591E+02 -0.44158198596E+02  0.85876574169E+02  0.00000000000E+00 0. -1.
         21    1    1    2  503  502 -0.69863353672E+02 -0.23322763591E+02  0.37559101282E+02  0.82677237357E+02  0.00000000000E+00 0.  1.
</event>
<event>
 4    1  0.5452128E+002  0.2430608E+02  0.7546771E-02  0.1476718E+00
          2   -1    0    0  503    0  0.00000000000E+00  0.00000000000E+00  0.19548628440E+03  0.19548628440E+03  0.00000000000E+00 0. -1.
         -2   -1    0    0    0  501 -0.00000000000E+00 -0.00000000000E+00 -0.41430759248E+01  0.41430759248E+01  0.00000000000E+00 0.  1.
         21    1    1    2  502  501 -0.25856879924E+00  0.24304708753E+02  0.43752815625E+02  0.50050920076E+02  0.00000000000E+00 0.  1.
         21    1    1    2  503  502  0.25856879924E+00 -0.24304708753E+02  0.14759039285E+03  0.14957844025E+03  0.00000000000E+00 0. -1.
</event>
<event>
 4    1  0.5452128E+002  0.2374009E+02  0.7546771E-02  0.1483408E+00
          2   -1    0    0  503    0  0.00000000000E+00  0.00000000000E+00  0.15299543292E+02  0.15299543292E+02  0.00000000000E+00 0.  1.
         -2   -1    0    0    0  501 -0.00000000000E+00 -0.00000000000E+00 -0.53345314259E+02  0.53345314259E+02  0.00000000000E+00 0. -1.
         21    1    1    2  502  501  0.23612654229E+02  0.24565080514E+01 -0.38116097979E+02  0.44904663419E+02  0.00000000000E+00 0. -1.
         21    1    1    2  503  502 -0.23612654229E+02 -0.24565080514E+01  0.70327011949E-01  0.23740194132E+02  0.00000000000E+00 0.  1.
</event>
<event>
 4    1  0.5452128E+002  0.3760469E+02  0.7546771E-02  0.1363124E+00
          2   -1    0    0  502    0  0.00000000000E+00  0.00000000000E+00  0.21154848497E+04  0.21154848497E+04  0.00000000000E+00 0. -1.
         -2   -1    0    0    0  501 -0.00000000000E+00 -0.00000000000E+00 -0.24491455299E+01  0.24491455299E+01  0.00000000000E+00 0.  1.
         21    1    1    2  502  503 -0.22446959053E+02 -0.30170297490E+02  0.19594788365E+04  0.19598396423E+04  0.00000000000E+00 0. -1.
         21    1    1    2  503  501  0.22446959053E+02  0.30170297490E+02  0.15355686770E+03  0.15809435297E+03  0.00000000000E+00 0.  1.
</event>
<event>
 4    1  0.5452128E+002  0.3932996E+02  0.7546771E-02  0.1352458E+00
          2   -1    0    0  503    0  0.00000000000E+00  0.00000000000E+00  0.98337785964E+02  0.98337785964E+02  0.00000000000E+00 0.  1.
         -2   -1    0    0    0  501 -0.00000000000E+00 -0.00000000000E+00 -0.18557735214E+02  0.18557735214E+02  0.00000000000E+00 0. -1.
         21    1    1    2  502  501 -0.56943941443E+01 -0.38915549570E+02  0.17074502786E+02  0.42876389405E+02  0.00000000000E+00 0. -1.
         21    1    1    2  503  502  0.56943941443E+01  0.38915549570E+02  0.62705547964E+02  0.74019131774E+02  0.00000000000E+00 0.  1.
</event>
<event>
 4    1  0.5452128E+002  0.2030440E+02  0.7546771E-02  0.1529432E+00
          2   -1    0    0  502    0  0.00000000000E+00  0.00000000000E+00  0.51455768683E+03  0.51455768683E+03  0.00000000000E+00 0.  1.
         -2   -1    0    0    0  501 -0.00000000000E+00 -0.00000000000E+00 -0.13372808252E+01  0.13372808252E+01  0.00000000000E+00 0. -1.
         21    1    1    2  502  503 -0.14037684233E+02 -0.14670109464E+02  0.41992710437E+03  0.42041769905E+03  0.00000000000E+00 0.  1.
         21    1    1    2  503  501  0.14037684233E+02  0.14670109464E+02  0.93293301636E+02  0.95477268606E+02  0.00000000000E+00 0. -1.
</event>
<event>
 4    1  0.5452128E+002  0.2801958E+02  0.7546771E-02  0.1437627E+00
          2   -1    0    0  503    0  0.00000000000E+00  0.00000000000E+00  0.11887416596E+03  0.11887416596E+03  0.00000000000E+00 0.  1.
         -2   -1    0    0    0  501 -0.00000000000E+00 -0.00000000000E+00 -0.24970957089E+02  0.24970957089E+02  0.00000000000E+00 0. -1.
         21    1    1    2  502  501 -0.27900212313E+02 -0.25836329505E+01 -0.14730755996E+02  0.31655839564E+02  0.00000000000E+00 0. -1.
         21    1    1    2  503  502  0.27900212313E+02  0.25836329505E+01  0.10863396487E+03  0.11218928349E+03  0.00000000000E+00 0.  1.
</event>
<event>
 4    1  0.5452128E+002  0.2166695E+02  0.7546771E-02  0.1509952E+00
          2   -1    0    0  502    0  0.00000000000E+00  0.00000000000E+00  0.19138145596E+04  0.19138145596E+04  0.00000000000E+00 0. -1.
         -2   -1    0    0    0  501 -0.00000000000E+00 -0.00000000000E+00 -0.27732648582E+00  0.27732648582E+00  0.00000000000E+00 0.  1.
         21    1    1    2  502  503  0.13859096145E+02 -0.16654795952E+02  0.12820046228E+04  0.12821877045E+04  0.00000000000E+00 0. -1.
         21    1    1    2  503  501 -0.13859096145E+02  0.16654795952E+02  0.63153261035E+03  0.63190418159E+03  0.00000000000E+00 0.  1.
</event>
<event>
 4    1  0.5452128E+002  0.2018647E+02  0.7546771E-02  0.1531204E+00
          2   -1    0    0  502    0  0.00000000000E+00  0.00000000000E+00  0.89342695509E+03  0.89342695509E+03  0.00000000000E+00 0. -1.
         -2   -1    0    0    0  501 -0.00000000000E+00 -0.00000000000E+00 -0.47022529768E+00  0.47022529768E+00  0.00000000000E+00 0.  1.
         21    1    1    2  502  503  0.17558476048E+02 -0.99596026883E+01  0.52393766464E+03  0.52432639662E+03  0.00000000000E+00 0.  1.
         21    1    1    2  503  501 -0.17558476048E+02  0.99596026883E+01  0.36901906515E+03  0.36957078376E+03  0.00000000000E+00 0. -1.
</event>
<event>
 4    1  0.5452128E+002  0.2966081E+02  0.7546771E-02  0.1422567E+00
          2   -1    0    0  502    0  0.00000000000E+00  0.00000000000E+00  0.83399533730E+03  0.83399533730E+03  0.00000000000E+00 0. -1.
         -2   -1    0    0    0  501 -0.00000000000E+00 -0.00000000000E+00 -0.12714787049E+01  0.12714787049E+01  0.00000000000E+00 0.  1.
         21    1    1    2  502  503 -0.29527010134E+02 -0.28141637065E+01  0.24398862583E+03  0.24578489249E+03  0.00000000000E+00 0.  1.
         21    1    1    2  503  501  0.29527010134E+02  0.28141637065E+01  0.58873523277E+03  0.58948192351E+03  0.00000000000E+00 0. -1.
</event>
<event>
 4    1  0.5452128E+002  0.3066270E+02  0.7546771E-02  0.1413923E+00
          2   -1    0    0  502    0  0.00000000000E+00  0.00000000000E+00  0.19582097307E+02  0.19582097307E+02  0.00000000000E+00 0.  1.
         -2   -1    0    0    0  501 -0.00000000000E+00 -0.00000000000E+00 -0.38555349043E+03  0.38555349043E+03  0.00000000000E+00 0. -1.
         21    1    1    2  502  503 -0.41195849013E+00 -0.30659931653E+02  0.65499163692E+01  0.31354465762E+02  0.00000000000E+00 0.  1.
         21    1    1    2  503  501  0.41195849013E+00  0.30659931653E+02 -0.37252130950E+03  0.37378112198E+03  0.00000000000E+00 0. -1.
</event>
<event>
 4    1  0.5452128E+002  0.2140026E+02  0.7546771E-02  0.1513626E+00
          2   -1    0    0  502    0  0.00000000000E+00  0.00000000000E+00  0.19644839256E+03  0.19644839256E+03  0.00000000000E+00 0. -1.
         -2   -1    0    0    0  501 -0.00000000000E+00 -0.00000000000E+00 -0.41027380041E+01  0.41027380041E+01  0.00000000000E+00 0.  1.
         21    1    1    2  502  503  0.20602578833E+02  0.57883562535E+01  0.16206391941E+03  0.16347074753E+03  0.00000000000E+00 0. -1.
         21    1    1    2  503  501 -0.20602578833E+02 -0.57883562535E+01  0.30281735147E+02  0.37080383037E+02  0.00000000000E+00 0.  1.
</event>
<event>
 4    1  0.5452128E+002  0.3260108E+02  0.7546771E-02  0.1398261E+00
          2   -1    0    0  502    0  0.00000000000E+00  0.00000000000E+00  0.20672217244E+04  0.20672217244E+04  0.00000000000E+00 0.  1.
         -2   -1    0    0    0  501 -0.00000000000E+00 -0.00000000000E+00 -0.51445692335E+00  0.51445692335E+00  0.00000000000E+00 0. -1.
         21    1    1    2  502  503 -0.26799305561E+02  0.18564156346E+02  0.10592229476E+04  0.10597245319E+04  0.00000000000E+00 0. -1.
         21    1    1    2  503  501  0.26799305561E+02 -0.18564156346E+02  0.10074843198E+04  0.10080116494E+04  0.00000000000E+00 0.  1.
</event>
<event>
 4    1  0.5452128E+002  0.3083965E+02  0.7546771E-02  0.1412437E+00
          2   -1    0    0  503    0  0.00000000000E+00  0.00000000000E+00  0.97887597543E+03  0.97887597543E+03  0.00000000000E+00 0.  1.
         -2   -1    0    0    0  501 -0.00000000000E+00 -0.00000000000E+00 -0.97530740028E+00  0.97530740028E+00  0.00000000000E+00 0. -1.
         21    1    1    2  502  501  0.30305926912E+02  0.57126773586E+01  0.45877754284E+03  0.45981291598E+03  0.00000000000E+00 0.  1.
         21    1    1    2  503  502 -0.30305926912E+02 -0.57126773586E+01  0.51912312520E+03  0.52003836686E+03  0.00000000000E+00 0. -1.
</event>
<event>
 4    1  0.5452128E+002  0.3470656E+02  0.7546771E-02  0.1382638E+00
          2   -1    0    0  503    0  0.00000000000E+00  0.00000000000E+00  0.21609831205E+04  0.21609831205E+04  0.00000000000E+00 0. -1.
         -2   -1    0    0    0  501 -0.00000000000E+00 -0.00000000000E+00 -0.55773093411E+00  0.55773093411E+00  0.00000000000E+00 0.  1.
         21    1    1    2  502  501  0.10842672930E+02  0.32969405851E+02  0.11062934033E+04  0.11068376753E+04  0.00000000000E+00 0. -1.
         21    1    1    2  503  502 -0.10842672930E+02 -0.32969405851E+02  0.10541319862E+04  0.10547031761E+04  0.00000000000E+00 0.  1.
</event>
<event>
 4    1  0.5452128E+002  0.2200859E+02  0.7546771E-02  0.1505337E+00
          2   -1    0    0  502    0  0.00000000000E+00  0.00000000000E+00  0.18820323677E+03  0.18820323677E+03  0.00000000000E+00 0. -1.
         -2   -1    0    0    0  501 -0.00000000000E+00 -0.00000000000E+00 -0.25737975006E+01  0.25737975006E+01  0.00000000000E+00 0.  1.
         21    1    1    2  502  503 -0.20854095843E+02 -0.70345413661E+01  0.92218336863E+02  0.94808226117E+02  0.00000000000E+00 0.  1.
         21    1    1    2  503  501  0.20854095843E+02  0.70345413661E+01  0.93411102411E+02  0.95968808158E+02  0.00000000000E+00 0. -1.
</event>
<event>
 4    1  0.5452128E+002  0.2419702E+02  0.7546771E-02  0.1477990E+00
          2   -1    0    0  503    0  0.00000000000E+00  0.00000000000E+00  0.25814501274E+03  0.25814501274E+03  0.00000000000E+00 0.  1.
         -2   -1    0    0    0  501 -0.00000000000E+00 -0.00000000000E+00 -0.79563018692E+01  0.79563018692E+01  0.00000000000E+00 0. -1.
         21    1    1    2  502  501 -0.17762016144E+02  0.16431877502E+02  0.12595183528E+02  0.27278828124E+02  0.00000000000E+00 0. -1.
         21    1    1    2  503  502  0.17762016144E+02 -0.16431877502E+02  0.23759352735E+03  0.23882248649E+03  0.00000000000E+00 0.  1.
</event>
<event>
 4    1  0.5452128E+002  0.2294690E+02  0.7546771E-02  0.1493166E+00
          2   -1    0    0  502    0  0.00000000000E+00  0.00000000000E+00  0.11207278248E+04  0.11207278248E+04  0.00000000000E+00 0.  1.
         -2   -1    0    0    0  501 -0.00000000000E+00 -0.00000000000E+00 -0.61468764379E+00  0.61468764379E+00  0.00000000000E+00 0. -1.
         21    1    1    2  502  503 -0.66134770103E+00 -0.22937369494E+02  0.83222644730E+03  0.83254274358E+03  0.00000000000E+00 0.  1.
         21    1    1    2  503  501  0.66134770103E+00  0.22937369494E+02  0.28788668984E+03  0.28879976884E+03  0.00000000000E+00 0. -1.
</event>
<event>
 4    1  0.5452128E+002  0.2121738E+02  0.7546771E-02  0.1516184E+00
          2   -1    0    0  503    0  0.00000000000E+00  0.00000000000E+00  0.94140752752E+03  0.94140752752E+03  0.00000000000E+00 0. -1.
         -2   -1    0    0    0  501 -0.00000000000E+00 -0.00000000000E+00 -0.10928759417E+01  0.10928759417E+01  0.00000000000E+00 0.  1.
         21    1    1    2  502  501  0.20833303837E+02 -0.40187947417E+01  0.11673770437E+03  0.11865019545E+03  0.00000000000E+00 0.  1.
         21    1    1    2  503  502 -0.20833303837E+02  0.40187947417E+01  0.82357694721E+03  0.82385020800E+03  0.00000000000E+00 0. -1.
</event>
<event>
 4    1  0.5452128E+002  0.2539472E+02  0.7546771E-02  0.1464436E+00
          2   -1    0    0  503    0  0.00000000000E+00  0.00000000000E+00  0.22430549260E+04  0.22430549260E+04  0.00000000000E+00 0.  1.
         -2   -1    0    0    0  501 -0.00000000000E+00 -0.00000000000E+00 -0.29445893793E+00  0.29445893793E+00  0.00000000000E+00 0. -1.
         21    1    1    2  502  501  0.21187945228E+02 -0.13998669476E+02  0.12937410097E+04  0.12939902210E+04  0.00000000000E+00 0.  1.
         21    1    1    2  503  502 -0.21187945228E+02  0.13998669476E+02  0.94901945738E+03  0.94935916400E+03  0.00000000000E+00 0. -1.
</event>
<event>
 4    1  0.5452128E+002  0.2014473E+02  0.7546771E-02  0.1531835E+00
          2   -1    0    0  502    0  0.00000000000E+00  0.00000000000E+00  0.15523169004E+04  0.15523169004E+04  0.00000000000E+00 0. -1.
         -2   -1    0    0    0  501 -0.00000000000E+00 -0.00000000000E+00 -0.36321022747E+00  0.36321022747E+00  0.00000000000E+00 0.  1.
         21    1    1    2  502  503  0.19939406687E+02  0.28688542526E+01  0.11869572187E+04  0.11871281520E+04  0.00000000000E+00 0. -1.
         21    1    1    2  503  501 -0.19939406687E+02 -0.28688542526E+01  0.36499647145E+03  0.36555195860E+03  0.00000000000E+00 0.  1.
</event>
<event>
 4    1  0.5452128E+002  0.3518251E+02  0.7546771E-02  0.1379285E+00
          2   -1    0    0  503    0  0.00000000000E+00  0.00000000000E+00  0.41774346411E+02  0.41774346411E+02  0.00000000000E+00 0. -1.
         -2   -1    0    0    0  501 -0.00000000000E+00 -0.00000000000E+00 -0.73055618743E+02  0.73055618743E+02  0.00000000000E+00 0.  1.
         21    1    1    2  502  501 -0.34904145242E+02  0.44169533578E+01 -0.59906327355E+02  0.69473569717E+02  0.00000000000E+00 0.  1.
         21    1    1    2  503  502  0.34904145242E+02 -0.44169533578E+01  0.28625055023E+02  0.45356395438E+02  0.00000000000E+00 0. -1.
</event>
<event>
 4    1  0.5452128E+002  0.2519676E+02  0.7546771E-02  0.1466614E+00
          2   -1    0    0  502    0  0.00000000000E+00  0.00000000000E+00  0.10546269886E+04  0.10546269886E+04  0.00000000000E+00 0.  1.
         -2   -1    0    0    0  501 -0.00000000000E+00 -0.00000000000E+00 -0.61399848770E+00  0.61399848770E+00  0.00000000000E+00 0. -1.
         21    1    1    2  502  503  0.89374899965E+01 -0.23558398360E+02  0.45322481213E+03  0.45392467128E+03  0.00000000000E+00 0. -1.
         21    1    1    2  503  501 -0.89374899965E+01  0.23558398360E+02  0.60078817800E+03  0.60131631583E+03  0.00000000000E+00 0.  1.
</event>
<event>
 4    1  0.5452128E+002  0.2529561E+02  0.7546771E-02  0.1465523E+00
          2   -1    0    0  502    0  0.00000000000E+00  0.00000000000E+00  0.36619639652E+02  0.36619639652E+02  0.00000000000E+00 0. -1.
         -2   -1    0    0    0  501 -0.00000000000E+00 -0.00000000000E+00 -0.20066865194E+02  0.20066865194E+02  0.00000000000E+00 0.  1.
         21    1    1    2  502  503 -0.10821201244E+02  0.22864147649E+02  0.18465928396E+02  0.31318655074E+02  0.00000000000E+00 0. -1.
         21    1    1    2  503  501  0.10821201244E+02 -0.22864147649E+02 -0.19131539379E+01  0.25367849773E+02  0.00000000000E+00 0.  1.
</event>
<event>
 4    1  0.5452128E+002  0.2615096E+02  0.7546771E-02  0.1456328E+00
          2   -1    0    0  502    0  0.00000000000E+00  0.00000000000E+00  0.19288560170E+04  0.19288560170E+04  0.00000000000E+00 0. -1.
         -2   -1    0    0    0  501 -0.00000000000E+00 -0.00000000000E+00 -0.47840538116E+00  0.47840538116E+00  0.00000000000E+00 0.  1.
         21    1    1    2  502  503  0.20705364590E+02  0.15973742765E+02  0.14550288054E+04  0.14552637895E+04  0.00000000000E+00 0. -1.
         21    1    1    2  503  501 -0.20705364590E+02 -0.15973742765E+02  0.47334880621E+03  0.47407063284E+03  0.00000000000E+00 0.  1.
</event>
<event>
 4    1  0.5452128E+002  0.6535252E+02  0.7546771E-02  0.1242656E+00
          2   -1    0    0  503    0  0.00000000000E+00  0.00000000000E+00  0.19961546989E+02  0.19961546989E+02  0.00000000000E+00 0. -1.
         -2   -1    0    0    0  501 -0.00000000000E+00 -0.00000000000E+00 -0.25960999423E+03  0.25960999423E+03  0.00000000000E+00 0.  1.
         21    1    1    2  502  501 -0.47787883479E+02 -0.44578803317E+02 -0.17844177169E+03  0.19003267455E+03  0.00000000000E+00 0.  1.
         21    1    1    2  503  502  0.47787883479E+02  0.44578803317E+02 -0.61206675550E+02  0.89538866670E+02  0.00000000000E+00 0. -1.
</event>
<event>
 4    1  0.5452128E+002  0.2070986E+02  0.7546771E-02  0.1523448E+00
          2   -1    0    0  502    0  0.00000000000E+00  0.00000000000E+00  0.92846786953E+01  0.92846786953E+01  0.00000000000E+00 0. -1.
         -2   -1    0    0    0  501 -0.00000000000E+00 -0.00000000000E+00 -0.62003782721E+02  0.62003782721E+02  0.00000000000E+00 0.  1.
         21    1    1    2  502  503 -0.11272526968E+02  0.17373206846E+02 -0.83608767840E+01  0.22333885487E+02  0.00000000000E+00 0. -1.
         21    1    1    2  503  501  0.11272526968E+02 -0.17373206846E+02 -0.44358227242E+02  0.48954575929E+02  0.00000000000E+00 0.  1.
</event>
<event>
 4    1  0.5452128E+002  0.3227822E+02  0.7546771E-02  0.1400779E+00
          2   -1    0    0  503    0  0.00000000000E+00  0.00000000000E+00  0.12711854424E+03  0.12711854424E+03  0.00000000000E+00 0.  1.
         -2   -1    0    0    0  501 -0.00000000000E+00 -0.00000000000E+00 -0.91701057107E+01  0.91701057107E+01  0.00000000000E+00 0. -1.
         21    1    1    2  502  501  0.31425822809E+02 -0.73689127364E+01  0.36766132334E+02  0.48924755502E+02  0.00000000000E+00 0.  1.
         21    1    1    2  503  502 -0.31425822809E+02  0.73689127364E+01  0.81182306199E+02  0.87363894452E+02  0.00000000000E+00 0. -1.
</event>
<event>
 4    1  0.5452128E+002  0.3094370E+02  0.7546771E-02  0.1411569E+00
          2   -1    0    0  502    0  0.00000000000E+00  0.00000000000E+00  0.19650096418E+03  0.19650096418E+03  0.00000000000E+00 0. -1.
         -2   -1    0    0    0  501 -0.00000000000E+00 -0.00000000000E+00 -0.56786482638E+01  0.56786482638E+01  0.00000000000E+00 0.  1.
         21    1    1    2  502  503 -0.30854158627E+02  0.23523284159E+01  0.13349211683E+03  0.13703159421E+03  0.00000000000E+00 0. -1.
         21    1    1    2  503  501  0.30854158627E+02 -0.23523284159E+01  0.57330199080E+02  0.65148018236E+02  0.00000000000E+00 0.  1.
</event>
<event>
 4    1  0.5452128E+002  0.3713179E+02  0.7546771E-02  0.1366166E+00
          2   -1    0    0  502    0  0.00000000000E+00  0.00000000000E+00  0.20489089256E+03  0.20489089256E+03  0.00000000000E+00 0.  1.
         -2   -1    0    0    0  501 -0.00000000000E+00 -0.00000000000E+00 -0.15713984391E+02  0.15713984391E+02  0.00000000000E+00 0. -1.
         21    1    1    2  502  503 -0.79963779704E+00 -0.37123175213E+02  0.17799376186E+03  0.18182560001E+03  0.00000000000E+00 0.  1.
         21    1    1    2  503  501  0.79963779704E+00  0.37123175213E+02  0.11183146308E+02  0.38779276938E+02  0.00000000000E+00 0. -1.
</event>
<event>
 4    1  0.5452128E+002  0.2016521E+02  0.7546771E-02  0.1531525E+00
          2   -1    0    0  502    0  0.00000000000E+00  0.00000000000E+00  0.38315580987E+03  0.38315580987E+03  0.00000000000E+00 0. -1.
         -2   -1    0    0    0  501 -0.00000000000E+00 -0.00000000000E+00 -0.81890311964E+01  0.81890311964E+01  0.00000000000E+00 0.  1.
         21    1    1    2  502  503  0.13445003145E+02 -0.15028892258E+02  0.37003665711E+03  0.37058570306E+03  0.00000000000E+00 0. -1.
         21    1    1    2  503  501 -0.13445003145E+02  0.15028892258E+02  0.49301215698E+01  0.20759138006E+02  0.00000000000E+00 0.  1.
</event>
<event>
 4    1  0.5452128E+002  0.2841189E+02  0.7546771E-02  0.1433919E+00
          2   -1    0    0  502    0  0.00000000000E+00  0.00000000000E+00  0.10689876942E+04  0.10689876942E+04  0.00000000000E+00 0.  1.
         -2   -1    0    0    0  501 -0.00000000000E+00 -0.00000000000E+00 -0.75615037095E+00  0.75615037095E+00  0.00000000000E+00 0. -1.
         21    1    1    2  502  503  0.53267044135E+00 -0.28406900805E+02  0.51456747259E+03  0.51535125846E+03  0.00000000000E+00 0.  1.
         21    1    1    2  503  501 -0.53267044135E+00  0.28406900805E+02  0.55366407128E+03  0.55439258615E+03  0.00000000000E+00 0. -1.
</event>
<event>
 4    1  0.5452128E+002  0.2182692E+02  0.7546771E-02  0.1507778E+00
          2   -1    0    0  503    0  0.00000000000E+00  0.00000000000E+00  0.31904428545E+03  0.31904428545E+03  0.00000000000E+00 0. -1.
         -2   -1    0    0    0  501 -0.00000000000E+00 -0.00000000000E+00 -0.15616642752E+01  0.15616642752E+01  0.00000000000E+00 0.  1.
         21    1    1    2  502  501 -0.13562098184E+02  0.17102166926E+02  0.12519044078E+03  0.12707895610E+03  0.00000000000E+00 0.  1.
         21    1    1    2  503  502  0.13562098184E+02 -0.17102166926E+02  0.19229218040E+03  0.19352699363E+03  0.00000000000E+00 0. -1.
</event>
<event>
 4    1  0.5452128E+002  0.3506810E+02  0.7546771E-02  0.1380085E+00
          2   -1    0    0  503    0  0.00000000000E+00  0.00000000000E+00  0.77121023665E+03  0.77121023665E+03  0.00000000000E+00 0.  1.
         -2   -1    0    0    0  501 -0.00000000000E+00 -0.00000000000E+00 -0.17522901846E+01  0.17522901846E+01  0.00000000000E+00 0. -1.
         21    1    1    2  502  501  0.24949463434E+02 -0.24643374547E+02  0.26879035145E+03  0.27106830259E+03  0.00000000000E+00 0.  1.
         21    1    1    2  503  502 -0.24949463434E+02  0.24643374547E+02  0.50066759502E+03  0.50189422425E+03  0.00000000000E+00 0. -1.
</event>
<event>
 4    1  0.5452128E+002  0.2558479E+02  0.7546771E-02  0.1462366E+00
          2   -1    0    0  502    0  0.00000000000E+00  0.00000000000E+00  0.54644583144E+01  0.54644583144E+01  0.00000000000E+00 0. -1.
         -2   -1    0    0    0  501 -0.00000000000E+00 -0.00000000000E+00 -0.14130042316E+03  0.14130042316E+03  0.00000000000E+00 0.  1.
         21    1    1    2  502  503  0.14767388097E+01 -0.25542138682E+02 -0.39285716729E+02  0.46882290312E+02  0.00000000000E+00 0. -1.
         21    1    1    2  503  501 -0.14767388097E+01  0.25542138682E+02 -0.96550248113E+02  0.99882591159E+02  0.00000000000E+00 0.  1.
</event>
<event>
 4    1  0.5452128E+002  0.5070921E+02  0.7546771E-02  0.1295127E+00
          2   -1    0    0  503    0  0.00000000000E+00  0.00000000000E+00  0.13207828344E+04  0.13207828344E+04  0.00000000000E+00 0.  1.
         -2   -1    0    0    0  501 -0.00000000000E+00 -0.00000000000E+00 -0.25312170515E+01  0.25312170515E+01  0.00000000000E+00 0. -1.
         21    1    1    2  502  501  0.65380212940E+00  0.50704993922E+02  0.34122265842E+03  0.34497003708E+03  0.00000000000E+00 0. -1.
         21    1    1    2  503  502 -0.65380212940E+00 -0.50704993922E+02  0.97702895896E+03  0.97834401440E+03  0.00000000000E+00 0.  1.
</event>
<event>
 4    1  0.5452128E+002  0.5039917E+02  0.7546771E-02  0.1296451E+00
          2   -1    0    0  502    0  0.00000000000E+00  0.00000000000E+00  0.15336666863E+04  0.15336666863E+04  0.00000000000E+00 0.  1.
         -2   -1    0    0    0  501 -0.00000000000E+00 -0.00000000000E+00 -0.48020966303E+02  0.48020966303E+02  0.00000000000E+00 0. -1.
         21    1    1    2  502  503 -0.27019013710E+02  0.42544678651E+02  0.15199091803E+04  0.15207445522E+04  0.00000000000E+00 0.  1.
         21    1    1    2  503  501  0.27019013710E+02 -0.42544678651E+02 -0.34263460238E+02  0.60943100437E+02  0.00000000000E+00 0. -1.
</event>
<event>
 4    1  0.5452128E+002  0.2408215E+02  0.7546771E-02  0.1479339E+00
          2   -1    0    0  502    0  0.00000000000E+00  0.00000000000E+00  0.28965507101E+02  0.28965507101E+02  0.00000000000E+00 0.  1.
         -2   -1    0    0    0  501 -0.00000000000E+00 -0.00000000000E+00 -0.20229269843E+02  0.20229269843E+02  0.00000000000E+00 0. -1.
         21    1    1    2  502  503  0.20863816233E+02 -0.12027090276E+02  0.68574465953E+01  0.25039454908E+02  0.00000000000E+00 0. -1.
         21    1    1    2  503  501 -0.20863816233E+02  0.12027090276E+02  0.18787906622E+01  0.24155322036E+02  0.00000000000E+00 0.  1.
</event>
<event>
 4    1  0.5452128E+002  0.2127593E+02  0.7546771E-02  0.1515362E+00
          2   -1    0    0  502    0  0.00000000000E+00  0.00000000000E+00  0.30890213561E+03  0.30890213561E+03  0.00000000000E+00 0. -1.
         -2   -1    0    0    0  501 -0.00000000000E+00 -0.00000000000E+00 -0.15167738793E+01  0.15167738793E+01  0.00000000000E+00 0.  1.
         21    1    1    2  502  503  0.10824123064E+02 -0.18316755101E+02  0.18225736137E+03  0.18349498885E+03  0.00000000000E+00 0.  1.
         21    1    1    2  503  501 -0.10824123064E+02  0.18316755101E+02  0.12512800036E+03  0.12692392065E+03  0.00000000000E+00 0. -1.
</event>
<event>
 4    1  0.5452128E+002  0.2333057E+02  0.7546771E-02  0.1488388E+00
          2   -1    0    0  503    0  0.00000000000E+00  0.00000000000E+00  0.21715839612E+04  0.21715839612E+04  0.00000000000E+00 0.  1.
         -2   -1    0    0    0  501 -0.00000000000E+00 -0.00000000000E+00 -0.33978173291E+00  0.33978173291E+00  0.00000000000E+00 0. -1.
         21    1    1    2  502  501 -0.22391587502E+02  0.65522767612E+01  0.52943390121E+03  0.52994770617E+03  0.00000000000E+00 0. -1.
         21    1    1    2  503  502  0.22391587502E+02 -0.65522767612E+01  0.16418102782E+04  0.16419760367E+04  0.00000000000E+00 0.  1.
</event>
<event>
 4    1  0.5452128E+002  0.4613742E+02  0.7546771E-02  0.1315848E+00
          2   -1    0    0  502    0  0.00000000000E+00  0.00000000000E+00  0.12213637160E+04  0.12213637160E+04  0.00000000000E+00 0. -1.
         -2   -1    0    0    0  501 -0.00000000000E+00 -0.00000000000E+00 -0.75101789312E+01  0.75101789312E+01  0.00000000000E+00 0.  1.
         21    1    1    2  502  503  0.41531925041E+02 -0.20093795249E+02  0.11453692357E+04  0.11462981059E+04  0.00000000000E+00 0. -1.
         21    1    1    2  503  501 -0.41531925041E+02  0.20093795249E+02  0.68484301297E+02  0.82575789001E+02  0.00000000000E+00 0.  1.
</event>
<event>
 4    1  0.5452128E+002  0.2681805E+02  0.7546771E-02  0.1449444E+00
          2   -1    0    0  502    0  0.00000000000E+00  0.00000000000E+00  0.50044132425E+03  0.50044132425E+03  0.00000000000E+00 0. -1.
         -2   -1    0    0    0  501 -0.00000000000E+00 -0.00000000000E+00 -0.14702788753E+01  0.14702788753E+01  0.00000000000E+00 0.  1.
         21    1    1    2  502  503 -0.26816364510E+02  0.30110980078E+00  0.28715730223E+03  0.28840687283E+03  0.00000000000E+00 0. -1.
         21    1    1    2  503  501  0.26816364510E+02 -0.30110980078E+00  0.21181374314E+03  0.21350473029E+03  0.00000000000E+00 0.  1.
</event>
<event>
 4    1  0.5452128E+002  0.4997091E+02  0.7546771E-02  0.1298299E+00
          2   -1    0    0  502    0  0.00000000000E+00  0.00000000000E+00  0.10165266850E+04  0.10165266850E+04  0.00000000000E+00 0.  1.
         -2   -1    0    0    0  501 -0.00000000000E+00 -0.00000000000E+00 -0.26836053424E+01  0.26836053424E+01  0.00000000000E+00 0. -1.
         21    1    1    2  502  503  0.71137730089E+01  0.49461969850E+02  0.65517109476E+03  0.65707401078E+03  0.00000000000E+00 0.  1.
         21    1    1    2  503  501 -0.71137730089E+01 -0.49461969850E+02  0.35867198487E+03  0.36213627954E+03  0.00000000000E+00 0. -1.
</event>
<event>
 4    1  0.5452128E+002  0.2057767E+02  0.7546771E-02  0.1525381E+00
          2   -1    0    0  503    0  0.00000000000E+00  0.00000000000E+00  0.78626488409E+03  0.78626488409E+03  0.00000000000E+00 0. -1.
         -2   -1    0    0    0  501 -0.00000000000E+00 -0.00000000000E+00 -0.47060893501E+01  0.47060893501E+01  0.00000000000E+00 0.  1.
         21    1    1    2  502  501 -0.60622802477E+01  0.19664418028E+02  0.18610154964E+02  0.27744881437E+02  0.00000000000E+00 0.  1.
         21    1    1    2  503  502  0.60622802477E+01 -0.19664418028E+02  0.76294863978E+03  0.76322609200E+03  0.00000000000E+00 0. -1.
</event>
<event>
 4    1  0.5452128E+002  0.4124180E+02  0.7546771E-02  0.1341359E+00
          2   -1    0    0  503    0  0.00000000000E+00  0.00000000000E+00  0.15091993612E+04  0.15091993612E+04  0.00000000000E+00 0.  1.
         -2   -1    0    0    0  501 -0.00000000000E+00 -0.00000000000E+00 -0.12831408785E+01  0.12831408785E+01  0.00000000000E+00 0. -1.
         21    1    1    2  502  501  0.41160650714E+02  0.25859582486E+01  0.49051330491E+03  0.49224403363E+03  0.00000000000E+00 0. -1.
         21    1    1    2  503  502 -0.41160650714E+02 -0.25859582486E+01  0.10174029154E+04  0.10182384685E+04  0.00000000000E+00 0.  1.
</event>
<event>
 4    1  0.5452128E+002  0.2703144E+02  0.7546771E-02  0.1447293E+00
          2   -1    0    0  502    0  0.00000000000E+00  0.00000000000E+00  0.12049703780E+04  0.12049703780E+04  0.00000000000E+00 0.  1.
         -2   -1    0    0    0  501 -0.00000000000E+00 -0.00000000000E+00 -0.12196695539E+02  0.12196695539E+02  0.00000000000E+00 0. -1.
         21    1    1    2  502  503 -0.19761738614E+02 -0.18443767784E+02  0.11896485086E+04  0.11899555760E+04  0.00000000000E+00 0.  1.
         21    1    1    2  503  501  0.19761738614E+02  0.18443767784E+02  0.31251738098E+01  0.27211497469E+02  0.00000000000E+00 0. -1.
</event>
<event>
 4    1  0.5452128E+002  0.2056823E+02  0.7546771E-02  0.1525520E+00
          2   -1    0    0  502    0  0.00000000000E+00  0.00000000000E+00  0.34951248391E+03  0.34951248391E+03  0.00000000000E+00 0. -1.
         -2   -1    0    0    0  501 -0.00000000000E+00 -0.00000000000E+00 -0.15542777010E+01  0.15542777010E+01  0.00000000000E+00 0.  1.
         21    1    1    2  502  503 -0.61238316726E+01  0.19635445771E+02  0.25654364210E+03  0.25736684391E+03  0.00000000000E+00 0. -1.
         21    1    1    2  503  501  0.61238316726E+01 -0.19635445771E+02  0.91414564115E+02  0.93699917702E+02  0.00000000000E+00 0.  1.
</event>
<event>
 4    1  0.5452128E+002  0.2977873E+02  0.7546771E-02  0.1421529E+00
          2   -1    0    0  503    0  0.00000000000E+00  0.00000000000E+00  0.37429334106E+01  0.37429334106E+01  0.00000000000E+00 0.  1.
         -2   -1    0    0    0  501 -0.00000000000E+00 -0.00000000000E+00 -0.29407098757E+03  0.29407098757E+03  0.00000000000E+00 0. -1.
         21    1    1    2  502  501 -0.10353832238E+02 -0.27920792854E+02 -0.21080939639E+03  0.21290226425E+03  0.00000000000E+00 0. -1.
         21    1    1    2  503  502  0.10353832238E+02  0.27920792854E+02 -0.79518657769E+02  0.84911656732E+02  0.00000000000E+00 0.  1.
</event>
<event>
 4    1  0.5452128E+002  0.3228798E+02  0.7546771E-02  0.1400703E+00
          2   -1    0    0  502    0  0.00000000000E+00  0.00000000000E+00  0.87431165277E+03  0.87431165277E+03  0.00000000000E+00 0. -1.
         -2   -1    0    0    0  501 -0.00000000000E+00 -0.00000000000E+00 -0.19361370559E+01  0.19361370559E+01  0.00000000000E+00 0.  1.
         21    1    1    2  502  503  0.29195351628E+02  0.13789316310E+02  0.70773396976E+03  0.70847010222E+03  0.00000000000E+00 0. -1.
         21    1    1    2  503  501 -0.29195351628E+02 -0.13789316310E+02  0.16464154596E+03  0.16777768760E+03  0.00000000000E+00 0.  1.
</event>
<event>
 4    1  0.5452128E+002  0.2072050E+02  0.7546771E-02  0.1523293E+00
          2   -1    0    0  503    0  0.00000000000E+00  0.00000000000E+00  0.21320817425E+03  0.21320817425E+03  0.00000000000E+00 0. -1.
         -2   -1    0    0    0  501 -0.00000000000E+00 -0.00000000000E+00 -0.30489456443E+01  0.30489456443E+01  0.00000000000E+00 0.  1.
         21    1    1    2  502  501 -0.39930904652E+01  0.20332102418E+02  0.42073099911E+02  0.46898666253E+02  0.00000000000E+00 0.  1.
         21    1    1    2  503  502  0.39930904652E+01 -0.20332102418E+02  0.16808612870E+03  0.16935845365E+03  0.00000000000E+00 0. -1.
</event>
<event>
 4    1  0.5452128E+002  0.2011349E+02  0.7546771E-02  0.1532308E+00
          2   -1    0    0  502    0  0.00000000000E+00  0.00000000000E+00  0.22418721322E+02  0.22418721322E+02  0.00000000000E+00 0. -1.
         -2   -1    0    0    0  501 -0.00000000000E+00 -0.00000000000E+00 -0.24270801562E+02  0.24270801562E+02  0.00000000000E+00 0.  1.
         21    1    1    2  502  503  0.16419326024E+02  0.11617151072E+02  0.10897150381E+02  0.22875759059E+02  0.00000000000E+00 0. -1.
         21    1    1    2  503  501 -0.16419326024E+02 -0.11617151072E+02 -0.12749230621E+02  0.23813763825E+02  0.00000000000E+00 0.  1.
</event>
<event>
 4    1  0.5452128E+002  0.4995855E+02  0.7546771E-02  0.1298352E+00
          2   -1    0    0  503    0  0.00000000000E+00  0.00000000000E+00  0.28820353051E+04  0.28820353051E+04  0.00000000000E+00 0.  1.
         -2   -1    0    0    0  501 -0.00000000000E+00 -0.00000000000E+00 -0.15613468153E+01  0.15613468153E+01  0.00000000000E+00 0. -1.
         21    1    1    2  502  501 -0.38700895629E+02  0.31592677097E+02  0.47806203207E+03  0.48066533376E+03  0.00000000000E+00 0. -1.
         21    1    1    2  503  502  0.38700895629E+02 -0.31592677097E+02  0.24024119262E+04  0.24029313181E+04  0.00000000000E+00 0.  1.
</event>
<event>
 4    1  0.5452128E+002  0.2125650E+02  0.7546771E-02  0.1515634E+00
          2   -1    0    0  502    0  0.00000000000E+00  0.00000000000E+00  0.89684365684E+03  0.89684365684E+03  0.00000000000E+00 0.  1.
         -2   -1    0    0    0  501 -0.00000000000E+00 -0.00000000000E+00 -0.17441017794E+01  0.17441017794E+01  0.00000000000E+00 0. -1.
         21    1    1    2  502  503 -0.15249057523E+02  0.14808951143E+02  0.82643400367E+03  0.82670732500E+03  0.00000000000E+00 0.  1.
         21    1    1    2  503  501  0.15249057523E+02 -0.14808951143E+02  0.68665551388E+02  0.71880433615E+02  0.00000000000E+00 0. -1.
</event>
<event>
 4    1  0.5452128E+002  0.2252526E+02  0.7546771E-02  0.1498547E+00
          2   -1    0    0  503    0  0.00000000000E+00  0.00000000000E+00  0.24778797191E+03  0.24778797191E+03  0.00000000000E+00 0.  1.
         -2   -1    0    0    0  501 -0.00000000000E+00 -0.00000000000E+00 -0.96346534642E+01  0.96346534642E+01  0.00000000000E+00 0. -1.
         21    1    1    2  502  501 -0.14625977228E+02 -0.17130917894E+02  0.48589910193E+01  0.23043379776E+02  0.00000000000E+00 0. -1.
         21    1    1    2  503  502  0.14625977228E+02  0.17130917894E+02  0.23329432742E+03  0.23437924560E+03  0.00000000000E+00 0.  1.
</event>
<event>
 4    1  0.5452128E+002  0.4629820E+02  0.7546771E-02  0.1315073E+00
          2   -1    0    0  503    0  0.00000000000E+00  0.00000000000E+00  0.97081640009E+02  0.97081640009E+02  0.00000000000E+00 0. -1.
         -2   -1    0    0    0  501 -0.00000000000E+00 -0.00000000000E+00 -0.22613254082E+02  0.22613254082E+02  0.00000000000E+00 0.  1.
         21    1    1    2  502  501 -0.36748672403E+02  0.28161288365E+02  0.28040353416E+02  0.54127483827E+02  0.00000000000E+00 0.  1.
         21    1    1    2  503  502  0.36748672403E+02 -0.28161288365E+02  0.46428032511E+02  0.65567410263E+02  0.00000000000E+00 0. -1.
</event>
<event>
 4    1  0.5452128E+002  0.3437079E+02  0.7546771E-02  0.1385041E+00
          2   -1    0    0  502    0  0.00000000000E+00  0.00000000000E+00  0.16857071213E+04  0.16857071213E+04  0.00000000000E+00 0.  1.
         -2   -1    0    0    0  501 -0.00000000000E+00 -0.00000000000E+00 -0.10206913840E+01  0.10206913840E+01  0.00000000000E+00 0. -1.
         21    1    1    2  502  503  0.31811294646E+02 -0.13015109081E+02  0.13144778315E+04  0.13149271162E+04  0.00000000000E+00 0.  1.
         21    1    1    2  503  501 -0.31811294646E+02  0.13015109081E+02  0.37020859844E+03  0.37180069646E+03  0.00000000000E+00 0. -1.
</event>
<event>
 4    1  0.5452128E+002  0.2147258E+02  0.7546771E-02  0.1512623E+00
          2   -1    0    0  502    0  0.00000000000E+00  0.00000000000E+00  0.16270819205E+04  0.16270819205E+04  0.00000000000E+00 0. -1.
         -2   -1    0    0    0  501 -0.00000000000E+00 -0.00000000000E+00 -0.29166172399E+00  0.29166172399E+00  0.00000000000E+00 0.  1.
         21    1    1    2  502  503 -0.10953447284E+02  0.18468717328E+02  0.95056359101E+03  0.95080608543E+03  0.00000000000E+00 0. -1.
         21    1    1    2  503  501  0.10953447284E+02 -0.18468717328E+02  0.67622666777E+03  0.67656749680E+03  0.00000000000E+00 0.  1.
</event>
<event>
 4    1  0.5452128E+002  0.2375361E+02  0.7546771E-02  0.1483246E+00
          2   -1    0    0  502    0  0.00000000000E+00  0.00000000000E+00  0.13475473391E+04  0.13475473391E+04  0.00000000000E+00 0.  1.
         -2   -1    0    0    0  501 -0.00000000000E+00 -0.00000000000E+00 -0.48732508713E+00  0.48732508713E+00  0.00000000000E+00 0. -1.
         21    1    1    2  502  503  0.18941023543E+02  0.14334278344E+02  0.92643997220E+03  0.92674443942E+03  0.00000000000E+00 0. -1.
         21    1    1    2  503  501 -0.18941023543E+02 -0.14334278344E+02  0.42062004180E+03  0.42129022476E+03  0.00000000000E+00 0.  1.
</event>
<event>
 4    1  0.5452128E+002  0.2066806E+02  0.7546771E-02  0.1524057E+00
          2   -1    0    0  502    0  0.00000000000E+00  0.00000000000E+00  0.57223854168E+03  0.57223854168E+03  0.00000000000E+00 0. -1.
         -2   -1    0    0    0  501 -0.00000000000E+00 -0.00000000000E+00 -0.20137937128E+01  0.20137937128E+01  0.00000000000E+00 0.  1.
         21    1    1    2  502  503 -0.18545674378E+02 -0.91228671104E+01  0.51288740726E+03  0.51330367354E+03  0.00000000000E+00 0. -1.
         21    1    1    2  503  501  0.18545674378E+02  0.91228671104E+01  0.57337340712E+02  0.60948661858E+02  0.00000000000E+00 0.  1.
</event>
<event>
 4    1  0.5452128E+002  0.2819505E+02  0.7546771E-02  0.1435959E+00
          2   -1    0    0  502    0  0.00000000000E+00  0.00000000000E+00  0.12477025516E+04  0.12477025516E+04  0.00000000000E+00 0.  1.
         -2   -1    0    0    0  501 -0.00000000000E+00 -0.00000000000E+00 -0.99967985208E+00  0.99967985208E+00  0.00000000000E+00 0. -1.
         21    1    1    2  502  503 -0.77558298095E+01  0.27107337170E+02  0.24736119105E+03  0.24896288772E+03  0.00000000000E+00 0. -1.
         21    1    1    2  503  501  0.77558298095E+01 -0.27107337170E+02  0.99934168069E+03  0.99973934372E+03  0.00000000000E+00 0.  1.
</event>
<event>
 4    1  0.5452128E+002  0.2325505E+02  0.7546771E-02  0.1489320E+00
          2   -1    0    0  503    0  0.00000000000E+00  0.00000000000E+00  0.89003570571E+01  0.89003570571E+01  0.00000000000E+00 0.  1.
         -2   -1    0    0    0  501 -0.00000000000E+00 -0.00000000000E+00 -0.70023954065E+02  0.70023954065E+02  0.00000000000E+00 0. -1.
         21    1    1    2  502  501  0.18750831005E+02 -0.13755126004E+02 -0.44914230649E+02  0.50577517432E+02  0.00000000000E+00 0.  1.
         21    1    1    2  503  502 -0.18750831005E+02  0.13755126004E+02 -0.16209366358E+02  0.28346793690E+02  0.00000000000E+00 0. -1.
</event>
<event>
 4    1  0.5452128E+002  0.2312414E+02  0.7546771E-02  0.1490945E+00
          2   -1    0    0  503    0  0.00000000000E+00  0.00000000000E+00  0.31477928714E+02  0.31477928714E+02  0.00000000000E+00 0.  1.
         -2   -1    0    0    0  501 -0.00000000000E+00 -0.00000000000E+00 -0.17554768454E+02  0.17554768454E+02  0.00000000000E+00 0. -1.
         21    1    1    2  502  501 -0.19895088107E+02  0.11786055817E+02  0.25537838869E+01  0.23264725544E+02  0.00000000000E+00 0. -1.
         21    1    1    2  503  502  0.19895088107E+02 -0.11786055817E+02  0.11369376373E+02  0.25767971624E+02  0.00000000000E+00 0.  1.
</event>
<event>
 4    1  0.5452128E+002  0.3439653E+02  0.7546771E-02  0.1384856E+00
          2   -1    0    0  502    0  0.00000000000E+00  0.00000000000E+00  0.46304631449E+03  0.46304631449E+03  0.00000000000E+00 0. -1.
         -2   -1    0    0    0  501 -0.00000000000E+00 -0.00000000000E+00 -0.27328216289E+02  0.27328216289E+02  0.00000000000E+00 0.  1.
         21    1    1    2  502  503 -0.12921516831E+02 -0.31877199822E+02  0.45130306309E+03  0.45261194882E+03  0.00000000000E+00 0. -1.
         21    1    1    2  503  501  0.12921516831E+02  0.31877199822E+02 -0.15584964883E+02  0.37762581958E+02  0.00000000000E+00 0.  1.
</event>
<event>
 4    1  0.5452128E+002  0.2426057E+02  0.7546771E-02  0.1477248E+00
          2   -1    0    0  503    0  0.00000000000E+00  0.00000000000E+00  0.12374761658E+03  0.12374761658E+03  0.00000000000E+00 0. -1.
         -2   -1    0    0    0  501 -0.00000000000E+00 -0.00000000000E+00 -0.36620068140E+02  0.36620068140E+02  0.00000000000E+00 0.  1.
         21    1    1    2  502  501 -0.17703300918E+02  0.16588206635E+02 -0.31231842837E+02  0.39547483735E+02  0.00000000000E+00 0.  1.
         21    1    1    2  503  502  0.17703300918E+02 -0.16588206635E+02  0.11835939128E+03  0.12082020098E+03  0.00000000000E+00 0. -1.
</event>
<event>
 4    1  0.5452128E+002  0.3195756E+02  0.7546771E-02  0.1403315E+00
          2   -1    0    0  503    0  0.00000000000E+00  0.00000000000E+00  0.25123323722E+04  0.25123323722E+04  0.00000000000E+00 0.  1.
         -2   -1    0    0    0  501 -0.00000000000E+00 -0.00000000000E+00 -0.41310313631E+00  0.41310313631E+00  0.00000000000E+00 0. -1.
         21    1    1    2  502  501  0.30677024234E+02  0.89557686332E+01  0.14146935373E+04  0.14150544478E+04  0.00000000000E+00 0.  1.
         21    1    1    2  503  502 -0.30677024234E+02 -0.89557686332E+01  0.10972257317E+04  0.10976910275E+04  0.00000000000E+00 0. -1.
</event>
<event>
 4    1  0.5452128E+002  0.2080059E+02  0.7546771E-02  0.1522131E+00
          2   -1    0    0  503    0  0.00000000000E+00  0.00000000000E+00  0.87935525880E+03  0.87935525880E+03  0.00000000000E+00 0.  1.
         -2   -1    0    0    0  501 -0.00000000000E+00 -0.00000000000E+00 -0.23143636633E+01  0.23143636633E+01  0.00000000000E+00 0. -1.
         21    1    1    2  502  501  0.18565760334E+02  0.93796123284E+01  0.47342241248E+02  0.51710273550E+02  0.00000000000E+00 0. -1.
         21    1    1    2  503  502 -0.18565760334E+02 -0.93796123284E+01  0.82969865389E+03  0.82995934891E+03  0.00000000000E+00 0.  1.
</event>
<event>
 4    1  0.5452128E+002  0.2198017E+02  0.7546771E-02  0.1505717E+00
          2   -1    0    0  502    0  0.00000000000E+00  0.00000000000E+00  0.45814203036E+03  0.45814203036E+03  0.00000000000E+00 0.  1.
         -2   -1    0    0    0  501 -0.00000000000E+00 -0.00000000000E+00 -0.20138302541E+01  0.20138302541E+01  0.00000000000E+00 0. -1.
         21    1    1    2  502  503  0.13285576183E+02 -0.17510603247E+02  0.38685997178E+03  0.38748389067E+03  0.00000000000E+00 0.  1.
         21    1    1    2  503  501 -0.13285576183E+02  0.17510603247E+02  0.69268228321E+02  0.72671969942E+02  0.00000000000E+00 0. -1.
</event>
<event>
 4    1  0.5452128E+002  0.2915858E+02  0.7546771E-02  0.1427052E+00
          2   -1    0    0  503    0  0.00000000000E+00  0.00000000000E+00  0.93686810672E+02  0.93686810672E+02  0.00000000000E+00 0. -1.
         -2   -1    0    0    0  501 -0.00000000000E+00 -0.00000000000E+00 -0.59397854592E+02  0.59397854592E+02  0.00000000000E+00 0.  1.
         21    1    1    2  502  501 -0.29019030662E+02 -0.28493415175E+01 -0.53308321255E+02  0.60761830146E+02  0.00000000000E+00 0.  1.
         21    1    1    2  503  502  0.29019030662E+02  0.28493415175E+01  0.87597277335E+02  0.92322835118E+02  0.00000000000E+00 0. -1.
</event>
<event>
 4    1  0.5452128E+002  0.3861222E+02  0.7546771E-02  0.1356816E+00
          2   -1    0    0  503    0  0.00000000000E+00  0.00000000000E+00  0.41084095073E+03  0.41084095073E+03  0.00000000000E+00 0.  1.
         -2   -1    0    0    0  501 -0.00000000000E+00 -0.00000000000E+00 -0.10303169708E+02  0.10303169708E+02  0.00000000000E+00 0. -1.
         21    1    1    2  502  501 -0.68447375204E+01  0.38000698547E+02  0.30789468404E+02  0.49385168688E+02  0.00000000000E+00 0. -1.
         21    1    1    2  503  502  0.68447375204E+01 -0.38000698547E+02  0.36974831262E+03  0.37175895175E+03  0.00000000000E+00 0.  1.
</event>
<event>
 4    1  0.5452128E+002  0.2439206E+02  0.7546771E-02  0.1475721E+00
          2   -1    0    0  503    0  0.00000000000E+00  0.00000000000E+00  0.31285055023E+02  0.31285055023E+02  0.00000000000E+00 0.  1.
         -2   -1    0    0    0  501 -0.00000000000E+00 -0.00000000000E+00 -0.79976861154E+02  0.79976861154E+02  0.00000000000E+00 0. -1.
         21    1    1    2  502  501  0.91952762707E+01 -0.22592460554E+02 -0.72914276392E+02  0.76886046077E+02  0.00000000000E+00 0. -1.
         21    1    1    2  503  502 -0.91952762707E+01  0.22592460554E+02  0.24222470261E+02  0.34375870100E+02  0.00000000000E+00 0.  1.
</event>
<event>
 4    1  0.5452128E+002  0.2322492E+02  0.7546771E-02  0.1489693E+00
          2   -1    0    0  503    0  0.00000000000E+00  0.00000000000E+00  0.29720519630E+02  0.29720519630E+02  0.00000000000E+00 0. -1.
         -2   -1    0    0    0  501 -0.00000000000E+00 -0.00000000000E+00 -0.51265276342E+02  0.51265276342E+02  0.00000000000E+00 0.  1.
         21    1    1    2  502  501  0.79794809001E+01  0.21811111741E+02 -0.43317670741E+02  0.49150964480E+02  0.00000000000E+00 0.  1.
         21    1    1    2  503  502 -0.79794809001E+01 -0.21811111741E+02  0.21772914029E+02  0.31834831492E+02  0.00000000000E+00 0. -1.
</event>
<event>
 4    1  0.5452128E+002  0.2070953E+02  0.7546771E-02  0.1523453E+00
          2   -1    0    0  502    0  0.00000000000E+00  0.00000000000E+00  0.21966832053E+03  0.21966832053E+03  0.00000000000E+00 0. -1.
         -2   -1    0    0    0  501 -0.00000000000E+00 -0.00000000000E+00 -0.22909459672E+01  0.22909459672E+01  0.00000000000E+00 0.  1.
         21    1    1    2  502  503 -0.17387978807E+02  0.11249127168E+02  0.66027562308E+02  0.69199159340E+02  0.00000000000E+00 0.  1.
         21    1    1    2  503  501  0.17387978807E+02 -0.11249127168E+02  0.15134981225E+03  0.15276010715E+03  0.00000000000E+00 0. -1.
</event>
<event>
 4    1  0.5452128E+002  0.3048400E+02  0.7546771E-02  0.1415436E+00
          2   -1    0    0  502    0  0.00000000000E+00  0.00000000000E+00  0.87523317819E+02  0.87523317819E+02  0.00000000000E+00 0. -1.
         -2   -1    0    0    0  501 -0.00000000000E+00 -0.00000000000E+00 -0.37238107128E+02  0.37238107128E+02  0.00000000000E+00 0.  1.
         21    1    1    2  502  503  0.17778794783E+02 -0.24762647806E+02  0.77885739695E+02  0.83638882813E+02  0.00000000000E+00 0. -1.
         21    1    1    2  503  501 -0.17778794783E+02  0.24762647806E+02 -0.27600529004E+02  0.41122542134E+02  0.00000000000E+00 0.  1.
</event>
<event>
 4    1  0.5452128E+002  0.2833147E+02  0.7546771E-02  0.1434673E+00
          2   -1    0    0  502    0  0.00000000000E+00  0.00000000000E+00  0.29309316103E+01  0.29309316103E+01  0.00000000000E+00 0.  1.
         -2   -1    0    0    0  501 -0.00000000000E+00 -0.00000000000E+00 -0.28998575587E+03  0.28998575587E+03  0.00000000000E+00 0. -1.
         21    1    1    2  502  503 -0.27496356256E+02 -0.68280727307E+01 -0.10899296587E+03  0.11261500253E+03  0.00000000000E+00 0. -1.
         21    1    1    2  503  501  0.27496356256E+02  0.68280727307E+01 -0.17806185839E+03  0.18030168495E+03  0.00000000000E+00 0.  1.
</event>
<event>
 4    1  0.5452128E+002  0.4234793E+02  0.7546771E-02  0.1335250E+00
          2   -1    0    0  503    0  0.00000000000E+00  0.00000000000E+00  0.20854185442E+04  0.20854185442E+04  0.00000000000E+00 0. -1.
         -2   -1    0    0    0  501 -0.00000000000E+00 -0.00000000000E+00 -0.14915034149E+01  0.14915034149E+01  0.00000000000E+00 0.  1.
         21    1    1    2  502  501 -0.42212141898E+02  0.33885328049E+01  0.36296618504E+03  0.36542823996E+03  0.00000000000E+00 0.  1.
         21    1    1    2  503  502  0.42212141898E+02 -0.33885328049E+01  0.17209608558E+04  0.17214818077E+04  0.00000000000E+00 0. -1.
</event>
<event>
 4    1  0.5452128E+002  0.2746113E+02  0.7546771E-02  0.1443030E+00
          2   -1    0    0  503    0  0.00000000000E+00  0.00000000000E+00  0.99401083342E+00  0.99401083342E+00  0.00000000000E+00 0.  1.
         -2   -1    0    0    0  501 -0.00000000000E+00 -0.00000000000E+00 -0.14329988079E+04  0.14329988079E+04  0.00000000000E+00 0. -1.
         21    1    1    2  502  501  0.16395910384E+02  0.22029243782E+02 -0.12078539551E+04  0.12081660856E+04  0.00000000000E+00 0. -1.
         21    1    1    2  503  502 -0.16395910384E+02 -0.22029243782E+02 -0.22415084188E+03  0.22582673309E+03  0.00000000000E+00 0.  1.
</event>
<event>
 4    1  0.5452128E+002  0.2804609E+02  0.7546771E-02  0.1437374E+00
          2   -1    0    0  502    0  0.00000000000E+00  0.00000000000E+00  0.59637982775E+03  0.59637982775E+03  0.00000000000E+00 0.  1.
         -2   -1    0    0    0  501 -0.00000000000E+00 -0.00000000000E+00 -0.17210090534E+01  0.17210090534E+01  0.00000000000E+00 0. -1.
         21    1    1    2  502  503  0.15358425835E+02  0.23467042112E+02  0.44187621677E+03  0.44276537156E+03  0.00000000000E+00 0.  1.
         21    1    1    2  503  501 -0.15358425835E+02 -0.23467042112E+02  0.15278260193E+03  0.15533546524E+03  0.00000000000E+00 0. -1.
</event>
<event>
 4    1  0.5452128E+002  0.3659947E+02  0.7546771E-02  0.1369654E+00
          2   -1    0    0  502    0  0.00000000000E+00  0.00000000000E+00  0.20354713698E+02  0.20354713698E+02  0.00000000000E+00 0.  1.
         -2   -1    0    0    0  501 -0.00000000000E+00 -0.00000000000E+00 -0.82559771945E+02  0.82559771945E+02  0.00000000000E+00 0. -1.
         21    1    1    2  502  503  0.28129597780E+02  0.23414665698E+02 -0.79242449531E+01  0.37447489890E+02  0.00000000000E+00 0.  1.
         21    1    1    2  503  501 -0.28129597780E+02 -0.23414665698E+02 -0.54280813294E+02  0.65466995752E+02  0.00000000000E+00 0. -1.
</event>
<event>
 4    1  0.5452128E+002  0.3451192E+02  0.7546771E-02  0.1384027E+00
          2   -1    0    0  502    0  0.00000000000E+00  0.00000000000E+00  0.99335160502E+02  0.99335160502E+02  0.00000000000E+00 0. -1.
         -2   -1    0    0    0  501 -0.00000000000E+00 -0.00000000000E+00 -0.15937761526E+02  0.15937761526E+02  0.00000000000E+00 0.  1.
         21    1    1    2  502  503 -0.72022272088E+01  0.33752043110E+02  0.70382373631E+02  0.78388462217E+02  0.00000000000E+00 0. -1.
         21    1    1    2  503  501  0.72022272088E+01 -0.33752043110E+02  0.13015025345E+02  0.36884459812E+02  0.00000000000E+00 0.  1.
</event>
<event>
 4    1  0.5452128E+002  0.2023644E+02  0.7546771E-02  0.1530451E+00
          2   -1    0    0  503    0  0.00000000000E+00  0.00000000000E+00  0.28737867153E+01  0.28737867153E+01  0.00000000000E+00 0. -1.
         -2   -1    0    0    0  501 -0.00000000000E+00 -0.00000000000E+00 -0.34606769718E+03  0.34606769718E+03  0.00000000000E+00 0.  1.
         21    1    1    2  502  501  0.94697682794E+01 -0.17883990087E+02 -0.30540951461E+03  0.30607921397E+03  0.00000000000E+00 0.  1.
         21    1    1    2  503  502 -0.94697682794E+01  0.17883990087E+02 -0.37784395857E+02  0.42862269923E+02  0.00000000000E+00 0. -1.
</event>
<event>
 4    1  0.5452128E+002  0.2584031E+02  0.7546771E-02  0.1459619E+00
          2   -1    0    0  502    0  0.00000000000E+00  0.00000000000E+00  0.92225819682E+03  0.92225819682E+03  0.00000000000E+00 0. -1.
         -2   -1    0    0    0  501 -0.00000000000E+00 -0.00000000000E+00 -0.80724287898E+00  0.80724287898E+00  0.00000000000E+00 0.  1.
         21    1    1    2  502  503  0.25583367910E+02  0.36349445622E+01  0.31252306966E+03  0.31358952567E+03  0.00000000000E+00 0.  1.
         21    1    1    2  503  501 -0.25583367910E+02 -0.36349445622E+01  0.60892788428E+03  0.60947591403E+03  0.00000000000E+00 0. -1.
</event>
<event>
 4    1  0.5452128E+002  0.2153668E+02  0.7546771E-02  0.1511739E+00
          2   -1    0    0  503    0  0.00000000000E+00  0.00000000000E+00  0.13963027150E+04  0.13963027150E+04  0.00000000000E+00 0. -1.
         -2   -1    0    0    0  501 -0.00000000000E+00 -0.00000000000E+00 -0.19167837736E+01  0.19167837736E+01  0.00000000000E+00 0.  1.
         21    1    1    2  502  501  0.88239547109E+01  0.19646032641E+02  0.61542082598E+02  0.65201661833E+02  0.00000000000E+00 0.  1.
         21    1    1    2  503  502 -0.88239547109E+01 -0.19646032641E+02  0.13328438486E+04  0.13330178369E+04  0.00000000000E+00 0. -1.
</event>
<event>
 4    1  0.5452128E+002  0.2125969E+02  0.7546771E-02  0.1515589E+00
          2   -1    0    0  502    0  0.00000000000E+00  0.00000000000E+00  0.11816739658E+04  0.11816739658E+04  0.00000000000E+00 0.  1.
         -2   -1    0    0    0  501 -0.00000000000E+00 -0.00000000000E+00 -0.68687137229E+00  0.68687137229E+00  0.00000000000E+00 0. -1.
         21    1    1    2  502  503 -0.11441518150E+02 -0.17918317999E+02  0.98403799852E+03  0.98426762468E+03  0.00000000000E+00 0.  1.
         21    1    1    2  503  501  0.11441518150E+02  0.17918317999E+02  0.19694909588E+03  0.19809321247E+03  0.00000000000E+00 0. -1.
</event>
<event>
 4    1  0.5452128E+002  0.2182898E+02  0.7546771E-02  0.1507751E+00
          2   -1    0    0  503    0  0.00000000000E+00  0.00000000000E+00  0.45829050675E+02  0.45829050675E+02  0.00000000000E+00 0. -1.
         -2   -1    0    0    0  501 -0.00000000000E+00 -0.00000000000E+00 -0.37732527537E+02  0.37732527537E+02  0.00000000000E+00 0.  1.
         21    1    1    2  502  501 -0.19871584937E+02  0.90346156272E+01 -0.31513153507E+02  0.38335140686E+02  0.00000000000E+00 0.  1.
         21    1    1    2  503  502  0.19871584937E+02 -0.90346156272E+01  0.39609676645E+02  0.45226437526E+02  0.00000000000E+00 0. -1.
</event>
<event>
 4    1  0.5452128E+002  0.2359325E+02  0.7546771E-02  0.1485180E+00
          2   -1    0    0  503    0  0.00000000000E+00  0.00000000000E+00  0.42543681733E+03  0.42543681733E+03  0.00000000000E+00 0. -1.
         -2   -1    0    0    0  501 -0.00000000000E+00 -0.00000000000E+00 -0.13658908888E+01  0.13658908888E+01  0.00000000000E+00 0.  1.
         21    1    1    2  502  501 -0.18916149287E+02 -0.14100387894E+02  0.16825425986E+03  0.16990037552E+03  0.00000000000E+00 0.  1.
         21    1    1    2  503  502  0.18916149287E+02  0.14100387894E+02  0.25581666658E+03  0.25690233269E+03  0.00000000000E+00 0. -1.
</event>
<event>
 4    1  0.5452128E+002  0.2206365E+02  0.7546771E-02  0.1504603E+00
          2   -1    0    0  503    0  0.00000000000E+00  0.00000000000E+00  0.42274978766E+03  0.42274978766E+03  0.00000000000E+00 0.  1.
         -2   -1    0    0    0  501 -0.00000000000E+00 -0.00000000000E+00 -0.12917752199E+01  0.12917752199E+01  0.00000000000E+00 0. -1.
         21    1    1    2  502  501  0.21512059921E+02 -0.49026456821E+01  0.14086634456E+03  0.14258377077E+03  0.00000000000E+00 0. -1.
         21    1    1    2  503  502 -0.21512059921E+02  0.49026456821E+01  0.28059166788E+03  0.28145779211E+03  0.00000000000E+00 0.  1.
</event>
<event>
 4    1  0.5452128E+002  0.2014360E+02  0.7546771E-02  0.1531852E+00
          2   -1    0    0  502    0  0.00000000000E+00  0.00000000000E+00  0.33350999898E+01  0.33350999898E+01  0.00000000000E+00 0. -1.
         -2   -1    0    0    0  501 -0.00000000000E+00 -0.00000000000E+00 -0.39200028381E+03  0.39200028381E+03  0.00000000000E+00 0.  1.
         21    1    1    2  502  503 -0.19208554118E+02  0.60659721725E+01 -0.30181431875E+02  0.36286132334E+02  0.00000000000E+00 0. -1.
         21    1    1    2  503  501  0.19208554118E+02 -0.60659721725E+01 -0.35848375195E+03  0.35904925147E+03  0.00000000000E+00 0.  1.
</event>
<event>
 4    1  0.5452128E+002  0.2271467E+02  0.7546771E-02  0.1496112E+00
          2   -1    0    0  502    0  0.00000000000E+00  0.00000000000E+00  0.10659665777E+04  0.10659665777E+04  0.00000000000E+00 0.  1.
         -2   -1    0    0    0  501 -0.00000000000E+00 -0.00000000000E+00 -0.79304958819E+00  0.79304958819E+00  0.00000000000E+00 0. -1.
         21    1    1    2  502  503  0.29230607020E+01 -0.22525805166E+02  0.86553889182E+03  0.86583689540E+03  0.00000000000E+00 0.  1.
         21    1    1    2  503  501 -0.29230607020E+01  0.22525805166E+02  0.19963463630E+03  0.20092273190E+03  0.00000000000E+00 0. -1.
</event>
<event>
 4    1  0.5452128E+002  0.2302879E+02  0.7546771E-02  0.1492137E+00
          2   -1    0    0  502    0  0.00000000000E+00  0.00000000000E+00  0.17153952067E+04  0.17153952067E+04  0.00000000000E+00 0. -1.
         -2   -1    0    0    0  501 -0.00000000000E+00 -0.00000000000E+00 -0.77240649952E+00  0.77240649952E+00  0.00000000000E+00 0.  1.
         21    1    1    2  502  503 -0.22587692120E+02  0.44856909558E+01  0.15218413323E+04  0.15220155604E+04  0.00000000000E+00 0. -1.
         21    1    1    2  503  501  0.22587692120E+02 -0.44856909558E+01  0.19278146783E+03  0.19415205278E+03  0.00000000000E+00 0.  1.
</event>
<event>
 4    1  0.5452128E+002  0.2026327E+02  0.7546771E-02  0.1530049E+00
          2   -1    0    0  502    0  0.00000000000E+00  0.00000000000E+00  0.37302489906E+02  0.37302489906E+02  0.00000000000E+00 0. -1.
         -2   -1    0    0    0  501 -0.00000000000E+00 -0.00000000000E+00 -0.24872857552E+02  0.24872857552E+02  0.00000000000E+00 0.  1.
         21    1    1    2  502  503 -0.47525382611E+01 -0.19698056631E+02  0.29425818906E+02  0.35727844508E+02  0.00000000000E+00 0. -1.
         21    1    1    2  503  501  0.47525382611E+01  0.19698056631E+02 -0.16996186551E+02  0.26447502949E+02  0.00000000000E+00 0.  1.
</event>
<event>
 4    1  0.5452128E+002  0.4021253E+02  0.7546771E-02  0.1347245E+00
          2   -1    0    0  503    0  0.00000000000E+00  0.00000000000E+00  0.25191422524E+03  0.25191422524E+03  0.00000000000E+00 0. -1.
         -2   -1    0    0    0  501 -0.00000000000E+00 -0.00000000000E+00 -0.90923731370E+01  0.90923731370E+01  0.00000000000E+00 0.  1.
         21    1    1    2  502  501 -0.24080176307E+02 -0.32205470917E+02  0.50647396878E+02  0.64669978030E+02  0.00000000000E+00 0.  1.
         21    1    1    2  503  502  0.24080176307E+02  0.32205470917E+02  0.19217445522E+03  0.19633662034E+03  0.00000000000E+00 0. -1.
</event>
<event>
 4    1  0.5452128E+002  0.2347015E+02  0.7546771E-02  0.1486677E+00
          2   -1    0    0  503    0  0.00000000000E+00  0.00000000000E+00  0.14191422729E+02  0.14191422729E+02  0.00000000000E+00 0. -1.
         -2   -1    0    0    0  501 -0.00000000000E+00 -0.00000000000E+00 -0.48623585799E+02  0.48623585799E+02  0.00000000000E+00 0.  1.
         21    1    1    2  502  501 -0.11732443723E+02 -0.20327263026E+02 -0.31321987659E+02  0.39139682788E+02  0.00000000000E+00 0. -1.
         21    1    1    2  503  502  0.11732443723E+02  0.20327263026E+02 -0.31101754102E+01  0.23675325740E+02  0.00000000000E+00 0.  1.
</event>
<event>
 4    1  0.5452128E+002  0.2585462E+02  0.7546771E-02  0.1459466E+00
          2   -1    0    0  503    0  0.00000000000E+00  0.00000000000E+00  0.98143040553E+02  0.98143040553E+02  0.00000000000E+00 0.  1.
         -2   -1    0    0    0  501 -0.00000000000E+00 -0.00000000000E+00 -0.17305872313E+02  0.17305872313E+02  0.00000000000E+00 0. -1.
         21    1    1    2  502  501 -0.24805247207E+02  0.72911596073E+01 -0.45334942739E+01  0.26249073655E+02  0.00000000000E+00 0. -1.
         21    1    1    2  503  502  0.24805247207E+02 -0.72911596073E+01  0.85370662514E+02  0.89199839212E+02  0.00000000000E+00 0.  1.
</event>
<event>
 4    1  0.5452128E+002  0.2531580E+02  0.7546771E-02  0.1465301E+00
          2   -1    0    0  502    0  0.00000000000E+00  0.00000000000E+00  0.82612170900E+03  0.82612170900E+03  0.00000000000E+00 0. -1.
         -2   -1    0    0    0  501 -0.00000000000E+00 -0.00000000000E+00 -0.79474764186E+00  0.79474764186E+00  0.00000000000E+00 0.  1.
         21    1    1    2  502  503 -0.12836796994E+02 -0.21819867508E+02  0.47653481753E+03  0.47720679196E+03  0.00000000000E+00 0.  1.
         21    1    1    2  503  501  0.12836796994E+02  0.21819867508E+02  0.34879214382E+03  0.34970966468E+03  0.00000000000E+00 0. -1.
</event>
<event>
 4    1  0.5452128E+002  0.2020628E+02  0.7546771E-02  0.1530905E+00
          2   -1    0    0  502    0  0.00000000000E+00  0.00000000000E+00  0.82630798907E+03  0.82630798907E+03  0.00000000000E+00 0.  1.
         -2   -1    0    0    0  501 -0.00000000000E+00 -0.00000000000E+00 -0.52071371941E+00  0.52071371941E+00  0.00000000000E+00 0. -1.
         21    1    1    2  502  503 -0.14754231555E+02 -0.13806023182E+02  0.31946238593E+03  0.32010078046E+03  0.00000000000E+00 0. -1.
         21    1    1    2  503  501  0.14754231555E+02  0.13806023182E+02  0.50632488942E+03  0.50672792234E+03  0.00000000000E+00 0.  1.
</event>
<event>
 4    1  0.5452128E+002  0.3686417E+02  0.7546771E-02  0.1367911E+00
          2   -1    0    0  503    0  0.00000000000E+00  0.00000000000E+00  0.18723861210E+02  0.18723861210E+02  0.00000000000E+00 0. -1.
         -2   -1    0    0    0  501 -0.00000000000E+00 -0.00000000000E+00 -0.59104777617E+03  0.59104777617E+03  0.00000000000E+00 0.  1.
         21    1    1    2  502  501  0.31883947878E+02  0.18503531624E+02 -0.57171517752E+03  0.57290244460E+03  0.00000000000E+00 0.  1.
         21    1    1    2  503  502 -0.31883947878E+02 -0.18503531624E+02 -0.60873743228E+00  0.36869192778E+02  0.00000000000E+00 0. -1.
</event>
<event>
 4    1  0.5452128E+002  0.5273591E+02  0.7546771E-02  0.1286727E+00
          2   -1    0    0  502    0  0.00000000000E+00  0.00000000000E+00  0.70561887484E+03  0.70561887484E+03  0.00000000000E+00 0.  1.
         -2   -1    0    0    0  501 -0.00000000000E+00 -0.00000000000E+00 -0.39415881437E+01  0.39415881437E+01  0.00000000000E+00 0. -1.
         21    1    1    2  502  503 -0.52624665441E+02 -0.34235919954E+01  0.35371329020E+03  0.35762294118E+03  0.00000000000E+00 0. -1.
         21    1    1    2  503  501  0.52624665441E+02  0.34235919954E+01  0.34796399650E+03  0.35193752180E+03  0.00000000000E+00 0.  1.
</event>
<event>
 4    1  0.5452128E+002  0.2105596E+02  0.7546771E-02  0.1518467E+00
          2   -1    0    0  503    0  0.00000000000E+00  0.00000000000E+00  0.19643353158E+04  0.19643353158E+04  0.00000000000E+00 0. -1.
         -2   -1    0    0    0  501 -0.00000000000E+00 -0.00000000000E+00 -0.24095311229E+00  0.24095311229E+00  0.00000000000E+00 0.  1.
         21    1    1    2  502  501 -0.84146401835E+01 -0.19301488923E+02  0.73491520927E+03  0.73521678331E+03  0.00000000000E+00 0.  1.
         21    1    1    2  503  502  0.84146401835E+01  0.19301488923E+02  0.12291791534E+04  0.12293594856E+04  0.00000000000E+00 0. -1.
</event>
<event>
 4    1  0.5452128E+002  0.2062861E+02  0.7546771E-02  0.1524634E+00
          2   -1    0    0  502    0  0.00000000000E+00  0.00000000000E+00  0.52553337806E+03  0.52553337806E+03  0.00000000000E+00 0.  1.
         -2   -1    0    0    0  501 -0.00000000000E+00 -0.00000000000E+00 -0.81118394743E+00  0.81118394743E+00  0.00000000000E+00 0. -1.
         21    1    1    2  502  503 -0.10502391751E+02  0.17754980984E+02  0.25121522892E+03  0.25206076812E+03  0.00000000000E+00 0. -1.
         21    1    1    2  503  501  0.10502391751E+02 -0.17754980984E+02  0.27350696519E+03  0.27428379389E+03  0.00000000000E+00 0.  1.
</event>
<event>
 4    1  0.5452128E+002  0.2403498E+02  0.7546771E-02  0.1479895E+00
          2   -1    0    0  502    0  0.00000000000E+00  0.00000000000E+00  0.58044602908E+03  0.58044602908E+03  0.00000000000E+00 0.  1.
         -2   -1    0    0    0  501 -0.00000000000E+00 -0.00000000000E+00 -0.10712572280E+01  0.10712572280E+01  0.00000000000E+00 0. -1.
         21    1    1    2  502  503 -0.14113761368E+02  0.19454611651E+02  0.21223118502E+03  0.21358781817E+03  0.00000000000E+00 0. -1.
         21    1    1    2  503  501  0.14113761368E+02 -0.19454611651E+02  0.36714358683E+03  0.36792946814E+03  0.00000000000E+00 0.  1.
</event>
<event>
 4    1  0.5452128E+002  0.3514385E+02  0.7546771E-02  0.1379555E+00
          2   -1    0    0  502    0  0.00000000000E+00  0.00000000000E+00  0.90749117372E+01  0.90749117372E+01  0.00000000000E+00 0. -1.
         -2   -1    0    0    0  501 -0.00000000000E+00 -0.00000000000E+00 -0.13741224062E+03  0.13741224062E+03  0.00000000000E+00 0.  1.
         21    1    1    2  502  503  0.35143776392E+02  0.71073336612E-01 -0.57009500257E+02  0.66971435628E+02  0.00000000000E+00 0. -1.
         21    1    1    2  503  501 -0.35143776392E+02 -0.71073336612E-01 -0.71327828629E+02  0.79515716732E+02  0.00000000000E+00 0.  1.
</event>
<event>
 4    1  0.5452128E+002  0.5756432E+02  0.7546771E-02  0.1268341E+00
          2   -1    0    0  502    0  0.00000000000E+00  0.00000000000E+00  0.38725956587E+03  0.38725956587E+03  0.00000000000E+00 0. -1.
         -2   -1    0    0    0  501 -0.00000000000E+00 -0.00000000000E+00 -0.18718597050E+02  0.18718597050E+02  0.00000000000E+00 0.  1.
         21    1    1    2  502  503 -0.27874260487E+02  0.50365432426E+02  0.33383347115E+03  0.33876014766E+03  0.00000000000E+00 0. -1.
         21    1    1    2  503  501  0.27874260487E+02 -0.50365432426E+02  0.34707497669E+02  0.67218015261E+02  0.00000000000E+00 0.  1.
</event>
<event>
 4    1  0.5452128E+002  0.2049999E+02  0.7546771E-02  0.1526525E+00
          2   -1    0    0  502    0  0.00000000000E+00  0.00000000000E+00  0.80124077612E+02  0.80124077612E+02  0.00000000000E+00 0. -1.
         -2   -1    0    0    0  501 -0.00000000000E+00 -0.00000000000E+00 -0.18914486136E+02  0.18914486136E+02  0.00000000000E+00 0.  1.
         21    1    1    2  502  503  0.17992638642E+02  0.98241787011E+01  0.72702014828E+02  0.75536961102E+02  0.00000000000E+00 0. -1.
         21    1    1    2  503  501 -0.17992638642E+02 -0.98241787011E+01 -0.11492423352E+02  0.23501602646E+02  0.00000000000E+00 0.  1.
</event>
<event>
 4    1  0.5452128E+002  0.2863090E+02  0.7546771E-02  0.1431879E+00
          2   -1    0    0  503    0  0.00000000000E+00  0.00000000000E+00  0.11757484967E+03  0.11757484967E+03  0.00000000000E+00 0.  1.
         -2   -1    0    0    0  501 -0.00000000000E+00 -0.00000000000E+00 -0.46100649387E+02  0.46100649387E+02  0.00000000000E+00 0. -1.
         21    1    1    2  502  501 -0.13085949435E+02  0.25465400132E+02 -0.39658800813E+02  0.48913690910E+02  0.00000000000E+00 0. -1.
         21    1    1    2  503  502  0.13085949435E+02 -0.25465400132E+02  0.11113300109E+03  0.11476180815E+03  0.00000000000E+00 0.  1.
</event>
<event>
 4    1  0.5452128E+002  0.2731435E+02  0.7546771E-02  0.1444476E+00
          2   -1    0    0  502    0  0.00000000000E+00  0.00000000000E+00  0.17005610968E+04  0.17005610968E+04  0.00000000000E+00 0.  1.
         -2   -1    0    0    0  501 -0.00000000000E+00 -0.00000000000E+00 -0.45641505866E+00  0.45641505866E+00  0.00000000000E+00 0. -1.
         21    1    1    2  502  503  0.14726661489E+02 -0.23004327629E+02  0.10175079379E+04  0.10178744900E+04  0.00000000000E+00 0. -1.
         21    1    1    2  503  501 -0.14726661489E+02  0.23004327629E+02  0.68259674385E+03  0.68314302189E+03  0.00000000000E+00 0.  1.
</event>
<event>
 4    1  0.5452128E+002  0.2665582E+02  0.7546771E-02  0.1451096E+00
          2   -1    0    0  503    0  0.00000000000E+00  0.00000000000E+00  0.18960607192E+04  0.18960607192E+04  0.00000000000E+00 0. -1.
         -2   -1    0    0    0  501 -0.00000000000E+00 -0.00000000000E+00 -0.43196003924E+00  0.43196003924E+00  0.00000000000E+00 0.  1.
         21    1    1    2  502  501  0.17592311678E+02  0.20026061546E+02  0.60269614528E+03  0.60328531898E+03  0.00000000000E+00 0.  1.
         21    1    1    2  503  502 -0.17592311678E+02 -0.20026061546E+02  0.12929326139E+04  0.12932073603E+04  0.00000000000E+00 0. -1.
</event>
<event>
 4    1  0.5452128E+002  0.2104779E+02  0.7546771E-02  0.1518584E+00
          2   -1    0    0  502    0  0.00000000000E+00  0.00000000000E+00  0.97991910813E+02  0.97991910813E+02  0.00000000000E+00 0.  1.
         -2   -1    0    0    0  501 -0.00000000000E+00 -0.00000000000E+00 -0.47428064924E+01  0.47428064924E+01  0.00000000000E+00 0. -1.
         21    1    1    2  502  503  0.91738609260E+00 -0.21027784076E+02  0.35512921574E+02  0.41281677523E+02  0.00000000000E+00 0. -1.
         21    1    1    2  503  501 -0.91738609260E+00  0.21027784076E+02  0.57736182747E+02  0.61453039783E+02  0.00000000000E+00 0.  1.
</event>
<event>
 4    1  0.5452128E+002  0.2476154E+02  0.7546771E-02  0.1471489E+00
          2   -1    0    0  502    0  0.00000000000E+00  0.00000000000E+00  0.70316199735E+03  0.70316199735E+03  0.00000000000E+00 0. -1.
         -2   -1    0    0    0  501 -0.00000000000E+00 -0.00000000000E+00 -0.22159865439E+01  0.22159865439E+01  0.00000000000E+00 0.  1.
         21    1    1    2  502  503  0.63995863260E+01  0.23920270763E+02  0.62514294819E+03  0.62563315108E+03  0.00000000000E+00 0. -1.
         21    1    1    2  503  501 -0.63995863260E+01 -0.23920270763E+02  0.75803062614E+02  0.79744832812E+02  0.00000000000E+00 0.  1.
</event>
<event>
 4    1  0.5452128E+002  0.2420061E+02  0.7546771E-02  0.1477948E+00
          2   -1    0    0  502    0  0.00000000000E+00  0.00000000000E+00  0.13000778125E+02  0.13000778125E+02  0.00000000000E+00 0. -1.
         -2   -1    0    0    0  501 -0.00000000000E+00 -0.00000000000E+00 -0.18770633317E+03  0.18770633317E+03  0.00000000000E+00 0.  1.
         21    1    1    2  502  503 -0.67167061560E+01  0.23249842230E+02  0.13364827585E+00  0.24200974508E+02  0.00000000000E+00 0. -1.
         21    1    1    2  503  501  0.67167061560E+01 -0.23249842230E+02 -0.17483920332E+03  0.17650613678E+03  0.00000000000E+00 0.  1.
</event>
<event>
 4    1  0.5452128E+002  0.2136255E+02  0.7546771E-02  0.1514151E+00
          2   -1    0    0  502    0  0.00000000000E+00  0.00000000000E+00  0.47620488832E+03  0.47620488832E+03  0.00000000000E+00 0.  1.
         -2   -1    0    0    0  501 -0.00000000000E+00 -0.00000000000E+00 -0.36342247829E+01  0.36342247829E+01  0.00000000000E+00 0. -1.
         21    1    1    2  502  503 -0.84130944854E+01 -0.19636153522E+02  0.44215612680E+03  0.44267188656E+03  0.00000000000E+00 0.  1.
         21    1    1    2  503  501  0.84130944854E+01  0.19636153522E+02  0.30414536739E+02  0.37167226545E+02  0.00000000000E+00 0. -1.
</event>
<event>
 4    1  0.5452128E+002  0.2123999E+02  0.7546771E-02  0.1515866E+00
          2   -1    0    0  502    0  0.00000000000E+00  0.00000000000E+00  0.11938137837E+03  0.11938137837E+03  0.00000000000E+00 0. -1.
         -2   -1    0    0    0  501 -0.00000000000E+00 -0.00000000000E+00 -0.39633764054E+01  0.39633764054E+01  0.00000000000E+00 0.  1.
         21    1    1    2  502  503 -0.86559004949E+01  0.19396198257E+02  0.44405648595E+02  0.49223965173E+02  0.00000000000E+00 0. -1.
         21    1    1    2  503  501  0.86559004949E+01 -0.19396198257E+02  0.71012353374E+02  0.74120789607E+02  0.00000000000E+00 0.  1.
</event>
<event>
 4    1  0.5452128E+002  0.4081015E+02  0.7546771E-02  0.1343803E+00
          2   -1    0    0  502    0  0.00000000000E+00  0.00000000000E+00  0.14030242723E+02  0.14030242723E+02  0.00000000000E+00 0.  1.
         -2   -1    0    0    0  501 -0.00000000000E+00 -0.00000000000E+00 -0.11878357828E+03  0.11878357828E+03  0.00000000000E+00 0. -1.
         21    1    1    2  502  503 -0.65725687108E+01  0.40277404771E+02 -0.50674907002E+02  0.65064692378E+02  0.00000000000E+00 0. -1.
         21    1    1    2  503  501  0.65725687108E+01 -0.40277404771E+02 -0.54078428560E+02  0.67749128630E+02  0.00000000000E+00 0.  1.
</event>
<event>
 4    1  0.5452128E+002  0.2268356E+02  0.7546771E-02  0.1496510E+00
          2   -1    0    0  502    0  0.00000000000E+00  0.00000000000E+00  0.31933559653E+03  0.31933559653E+03  0.00000000000E+00 0.  1.
         -2   -1    0    0    0  501 -0.00000000000E+00 -0.00000000000E+00 -0.19015041728E+01  0.19015041728E+01  0.00000000000E+00 0. -1.
         21    1    1    2  502  503  0.20572555246E+02 -0.95558280187E+01  0.22146543247E+03  0.22262408149E+03  0.00000000000E+00 0.  1.
         21    1    1    2  503  501 -0.20572555246E+02  0.95558280187E+01  0.95968659884E+02  0.98613019214E+02  0.00000000000E+00 0. -1.
</event>
<event>
 4    1  0.5452128E+002  0.2645193E+02  0.7546771E-02  0.1453193E+00
          2   -1    0    0  503    0  0.00000000000E+00  0.00000000000E+00  0.39975038129E+02  0.39975038129E+02  0.00000000000E+00 0.  1.
         -2   -1    0    0    0  501 -0.00000000000E+00 -0.00000000000E+00 -0.19939701945E+02  0.19939701945E+02  0.00000000000E+00 0. -1.
         21    1    1    2  502  501 -0.86802869034E+01 -0.24987137578E+02 -0.45356907429E+00  0.26455815050E+02  0.00000000000E+00 0. -1.
         21    1    1    2  503  502  0.86802869034E+01  0.24987137578E+02  0.20488905258E+02  0.33458925024E+02  0.00000000000E+00 0.  1.
</event>
<event>
 4    1  0.5452128E+002  0.2103461E+02  0.7546771E-02  0.1518771E+00
          2   -1    0    0  503    0  0.00000000000E+00  0.00000000000E+00  0.31397251149E+02  0.31397251149E+02  0.00000000000E+00 0. -1.
         -2   -1    0    0    0  501 -0.00000000000E+00 -0.00000000000E+00 -0.14617511598E+02  0.14617511598E+02  0.00000000000E+00 0.  1.
         21    1    1    2  502  501 -0.40709767478E+01 -0.20636909651E+02  0.40281469365E+01  0.21416835886E+02  0.00000000000E+00 0.  1.
         21    1    1    2  503  502  0.40709767478E+01  0.20636909651E+02  0.12751592614E+02  0.24597926860E+02  0.00000000000E+00 0. -1.
</event>
<event>
 4    1  0.5452128E+002  0.2325707E+02  0.7546771E-02  0.1489295E+00
          2   -1    0    0  503    0  0.00000000000E+00  0.00000000000E+00  0.87722964071E+02  0.87722964071E+02  0.00000000000E+00 0. -1.
         -2   -1    0    0    0  501 -0.00000000000E+00 -0.00000000000E+00 -0.69899209415E+01  0.69899209415E+01  0.00000000000E+00 0.  1.
         21    1    1    2  502  501 -0.23255202449E+02 -0.29446453401E+00  0.24106853192E+02  0.33496738963E+02  0.00000000000E+00 0.  1.
         21    1    1    2  503  502  0.23255202449E+02  0.29446453401E+00  0.56626189938E+02  0.61216146050E+02  0.00000000000E+00 0. -1.
</event>
<event>
 4    1  0.5452128E+002  0.3768327E+02  0.7546771E-02  0.1362624E+00
          2   -1    0    0  502    0  0.00000000000E+00  0.00000000000E+00  0.11364879921E+03  0.11364879921E+03  0.00000000000E+00 0. -1.
         -2   -1    0    0    0  501 -0.00000000000E+00 -0.00000000000E+00 -0.15778114292E+02  0.15778114292E+02  0.00000000000E+00 0.  1.
         21    1    1    2  502  503  0.81137088634E+01 -0.36799405080E+02  0.78455438629E+02  0.87036109381E+02  0.00000000000E+00 0. -1.
         21    1    1    2  503  501 -0.81137088634E+01  0.36799405080E+02  0.19415246294E+02  0.42390804126E+02  0.00000000000E+00 0.  1.
</event>
<event>
 4    1  0.5452128E+002  0.8469200E+02  0.7546771E-02  0.1193355E+00
          2   -1    0    0  502    0  0.00000000000E+00  0.00000000000E+00  0.23854809582E+03  0.23854809582E+03  0.00000000000E+00 0. -1.
         -2   -1    0    0    0  501 -0.00000000000E+00 -0.00000000000E+00 -0.39775157931E+02  0.39775157931E+02  0.00000000000E+00 0.  1.
         21    1    1    2  502  503 -0.84560759859E+02  0.47129805703E+01  0.16813335169E+03  0.18825928462E+03  0.00000000000E+00 0. -1.
         21    1    1    2  503  501  0.84560759859E+02 -0.47129805703E+01  0.30639586200E+02  0.90063969135E+02  0.00000000000E+00 0.  1.
</event>
<event>
 4    1  0.5452128E+002  0.2286519E+02  0.7546771E-02  0.1494198E+00
          2   -1    0    0  503    0  0.00000000000E+00  0.00000000000E+00  0.17723043821E+03  0.17723043821E+03  0.00000000000E+00 0.  1.
         -2   -1    0    0    0  501 -0.00000000000E+00 -0.00000000000E+00 -0.31079477631E+01  0.31079477631E+01  0.00000000000E+00 0. -1.
         21    1    1    2  502  501 -0.27794443619E+01 -0.22695629072E+02  0.66729337349E+02  0.70538084415E+02  0.00000000000E+00 0. -1.
         21    1    1    2  503  502  0.27794443619E+01  0.22695629072E+02  0.10739315310E+03  0.10980030156E+03  0.00000000000E+00 0.  1.
</event>
<event>
 4    1  0.5452128E+002  0.2993578E+02  0.7546771E-02  0.1420155E+00
          2   -1    0    0  503    0  0.00000000000E+00  0.00000000000E+00  0.12634939012E+03  0.12634939012E+03  0.00000000000E+00 0. -1.
         -2   -1    0    0    0  501 -0.00000000000E+00 -0.00000000000E+00 -0.29562908592E+02  0.29562908592E+02  0.00000000000E+00 0.  1.
         21    1    1    2  502  501  0.42212338627E+01 -0.29636671944E+02 -0.19571067321E+02  0.35765595414E+02  0.00000000000E+00 0.  1.
         21    1    1    2  503  502 -0.42212338627E+01  0.29636671944E+02  0.11635754885E+03  0.12014670330E+03  0.00000000000E+00 0. -1.
</event>
<event>
 4    1  0.5452128E+002  0.4733054E+02  0.7546771E-02  0.1310180E+00
          2   -1    0    0  503    0  0.00000000000E+00  0.00000000000E+00  0.72948489287E+03  0.72948489287E+03  0.00000000000E+00 0. -1.
         -2   -1    0    0    0  501 -0.00000000000E+00 -0.00000000000E+00 -0.26128551402E+02  0.26128551402E+02  0.00000000000E+00 0.  1.
         21    1    1    2  502  501 -0.46756847853E+02  0.73469418069E+01 -0.32328470429E+01  0.47440822875E+02  0.00000000000E+00 0.  1.
         21    1    1    2  503  502  0.46756847853E+02 -0.73469418069E+01  0.70658918851E+03  0.70817262140E+03  0.00000000000E+00 0. -1.
</event>
<event>
 4    1  0.5452128E+002  0.3097293E+02  0.7546771E-02  0.1411326E+00
          2   -1    0    0  503    0  0.00000000000E+00  0.00000000000E+00  0.54819482242E+03  0.54819482242E+03  0.00000000000E+00 0. -1.
         -2   -1    0    0    0  501 -0.00000000000E+00 -0.00000000000E+00 -0.25994289876E+01  0.25994289876E+01  0.00000000000E+00 0.  1.
         21    1    1    2  502  501  0.14672565459E+02  0.27277068774E+02  0.11536588689E+03  0.11945128930E+03  0.00000000000E+00 0.  1.
         21    1    1    2  503  502 -0.14672565459E+02 -0.27277068774E+02  0.43022950654E+03  0.43134296210E+03  0.00000000000E+00 0. -1.
</event>
<event>
 4    1  0.5452128E+002  0.2473611E+02  0.7546771E-02  0.1471777E+00
          2   -1    0    0  503    0  0.00000000000E+00  0.00000000000E+00  0.12074857139E+03  0.12074857139E+03  0.00000000000E+00 0. -1.
         -2   -1    0    0    0  501 -0.00000000000E+00 -0.00000000000E+00 -0.62364517454E+01  0.62364517454E+01  0.00000000000E+00 0.  1.
         21    1    1    2  502  501 -0.24570646769E+02  0.28563039079E+01  0.29765723035E+02  0.38702369727E+02  0.00000000000E+00 0.  1.
         21    1    1    2  503  502  0.24570646769E+02 -0.28563039079E+01  0.84746396609E+02  0.88282653409E+02  0.00000000000E+00 0. -1.
</event>
<event>
 4    1  0.5452128E+002  0.2174584E+02  0.7546771E-02  0.1508877E+00
          2   -1    0    0  502    0  0.00000000000E+00  0.00000000000E+00  0.29302809901E+02  0.29302809901E+02  0.00000000000E+00 0. -1.
         -2   -1    0    0    0  501 -0.00000000000E+00 -0.00000000000E+00 -0.20578863096E+02  0.20578863096E+02  0.00000000000E+00 0.  1.
         21    1    1    2  502  503  0.20924440807E+02 -0.59202513414E+01  0.15948304763E+02  0.26967202744E+02  0.00000000000E+00 0. -1.
         21    1    1    2  503  501 -0.20924440807E+02  0.59202513414E+01 -0.72243579580E+01  0.22914470252E+02  0.00000000000E+00 0.  1.
</event>
<event>
 4    1  0.5452128E+002  0.4205038E+02  0.7546771E-02  0.1336872E+00
          2   -1    0    0  502    0  0.00000000000E+00  0.00000000000E+00  0.44195196636E+02  0.44195196636E+02  0.00000000000E+00 0.  1.
         -2   -1    0    0    0  501 -0.00000000000E+00 -0.00000000000E+00 -0.40684932184E+02  0.40684932184E+02  0.00000000000E+00 0. -1.
         21    1    1    2  502  503 -0.24954333242E+02  0.33845472979E+02 -0.37124923022E+01  0.42213947788E+02  0.00000000000E+00 0.  1.
         21    1    1    2  503  501  0.24954333242E+02 -0.33845472979E+02  0.72227567544E+01  0.42666181032E+02  0.00000000000E+00 0. -1.
</event>
<event>
 4    1  0.5452128E+002  0.2012706E+02  0.7546771E-02  0.1532102E+00
          2   -1    0    0  503    0  0.00000000000E+00  0.00000000000E+00  0.59038560140E+03  0.59038560140E+03  0.00000000000E+00 0.  1.
         -2   -1    0    0    0  501 -0.00000000000E+00 -0.00000000000E+00 -0.76204905261E+00  0.76204905261E+00  0.00000000000E+00 0. -1.
         21    1    1    2  502  501 -0.19964018386E+02 -0.25566545426E+01  0.38808701294E+03  0.38860857958E+03  0.00000000000E+00 0.  1.
         21    1    1    2  503  502  0.19964018386E+02  0.25566545426E+01  0.20153653941E+03  0.20253907087E+03  0.00000000000E+00 0. -1.
</event>
<event>
 4    1  0.5452128E+002  0.2155441E+02  0.7546771E-02  0.1511494E+00
          2   -1    0    0  502    0  0.00000000000E+00  0.00000000000E+00  0.11185468957E+02  0.11185468957E+02  0.00000000000E+00 0.  1.
         -2   -1    0    0    0  501 -0.00000000000E+00 -0.00000000000E+00 -0.33413178377E+03  0.33413178377E+03  0.00000000000E+00 0. -1.
         21    1    1    2  502  503  0.92989481138E+01  0.19445368532E+02  0.98013710590E-01  0.21554637553E+02  0.00000000000E+00 0.  1.
         21    1    1    2  503  501 -0.92989481138E+01 -0.19445368532E+02 -0.32304432852E+03  0.32376261517E+03  0.00000000000E+00 0. -1.
</event>
<event>
 4    1  0.5452128E+002  0.7008324E+02  0.7546771E-02  0.1228954E+00
          2   -1    0    0  503    0  0.00000000000E+00  0.00000000000E+00  0.14234210631E+03  0.14234210631E+03  0.00000000000E+00 0. -1.
         -2   -1    0    0    0  501 -0.00000000000E+00 -0.00000000000E+00 -0.35102689648E+02  0.35102689648E+02  0.00000000000E+00 0.  1.
         21    1    1    2  502  501  0.68946852375E+02  0.12569487329E+02  0.42052521403E+02  0.81731725912E+02  0.00000000000E+00 0.  1.
         21    1    1    2  503  502 -0.68946852375E+02 -0.12569487329E+02  0.65186895257E+02  0.95713070045E+02  0.00000000000E+00 0. -1.
</event>
<event>
 4    1  0.5452128E+002  0.2411797E+02  0.7546771E-02  0.1478917E+00
          2   -1    0    0  503    0  0.00000000000E+00  0.00000000000E+00  0.98495389451E+02  0.98495389451E+02  0.00000000000E+00 0.  1.
         -2   -1    0    0    0  501 -0.00000000000E+00 -0.00000000000E+00 -0.18112994252E+02  0.18112994252E+02  0.00000000000E+00 0. -1.
         21    1    1    2  502  501 -0.18899323882E+02  0.14983057585E+02 -0.76735490026E+01  0.25309283121E+02  0.00000000000E+00 0. -1.
         21    1    1    2  503  502  0.18899323882E+02 -0.14983057585E+02  0.88055944202E+02  0.91299100582E+02  0.00000000000E+00 0.  1.
</event>
<event>
 4    1  0.5452128E+002  0.2928196E+02  0.7546771E-02  0.1425940E+00
          2   -1    0    0  502    0  0.00000000000E+00  0.00000000000E+00  0.14451881419E+02  0.14451881419E+02  0.00000000000E+00 0. -1.
         -2   -1    0    0    0  501 -0.00000000000E+00 -0.00000000000E+00 -0.68139828250E+02  0.68139828250E+02  0.00000000000E+00 0.  1.
         21    1    1    2  502  503  0.28645604107E+02 -0.60714596868E+01 -0.11995414007E+02  0.31643691545E+02  0.00000000000E+00 0.  1.
         21    1    1    2  503  501 -0.28645604107E+02  0.60714596868E+01 -0.41692532824E+02  0.50948018123E+02  0.00000000000E+00 0. -1.
</event>
<event>
 4    1  0.5452128E+002  0.2563120E+02  0.7546771E-02  0.1461865E+00
          2   -1    0    0  503    0  0.00000000000E+00  0.00000000000E+00  0.30887139908E+03  0.30887139908E+03  0.00000000000E+00 0. -1.
         -2   -1    0    0    0  501 -0.00000000000E+00 -0.00000000000E+00 -0.21593755952E+01  0.21593755952E+01  0.00000000000E+00 0.  1.
         21    1    1    2  502  501  0.21113750445E+02  0.14531621343E+02  0.13430330643E+03  0.13672723428E+03  0.00000000000E+00 0.  1.
         21    1    1    2  503  502 -0.21113750445E+02 -0.14531621343E+02  0.17240871706E+03  0.17430354040E+03  0.00000000000E+00 0. -1.
</event>
<event>
 4    1  0.5452128E+002  0.2073551E+02  0.7546771E-02  0.1523075E+00
          2   -1    0    0  503    0  0.00000000000E+00  0.00000000000E+00  0.14280775574E+03  0.14280775574E+03  0.00000000000E+00 0.  1.
         -2   -1    0    0    0  501 -0.00000000000E+00 -0.00000000000E+00 -0.14906004220E+02  0.14906004220E+02  0.00000000000E+00 0. -1.
         21    1    1    2  502  501  0.20663125377E+02 -0.17310214050E+01  0.13439511518E+03  0.13598532336E+03  0.00000000000E+00 0.  1.
         21    1    1    2  503  502 -0.20663125377E+02  0.17310214050E+01 -0.64933636587E+01  0.21728436600E+02  0.00000000000E+00 0. -1.
</event>
<event>
 4    1  0.5452128E+002  0.3581349E+02  0.7546771E-02  0.1374933E+00
          2   -1    0    0  502    0  0.00000000000E+00  0.00000000000E+00  0.11357746275E+02  0.11357746275E+02  0.00000000000E+00 0.  1.
         -2   -1    0    0    0  501 -0.00000000000E+00 -0.00000000000E+00 -0.43542722538E+03  0.43542722538E+03  0.00000000000E+00 0. -1.
         21    1    1    2  502  503 -0.15830342301E+02  0.32124858520E+02 -0.19780827525E+02  0.40913169149E+02  0.00000000000E+00 0.  1.
         21    1    1    2  503  501  0.15830342301E+02 -0.32124858520E+02 -0.40428865158E+03  0.40587180250E+03  0.00000000000E+00 0. -1.
</event>
<event>
 4    1  0.5452128E+002  0.2494084E+02  0.7546771E-02  0.1469466E+00
          2   -1    0    0  502    0  0.00000000000E+00  0.00000000000E+00  0.47518151936E+01  0.47518151936E+01  0.00000000000E+00 0. -1.
         -2   -1    0    0    0  501 -0.00000000000E+00 -0.00000000000E+00 -0.21356551766E+03  0.21356551766E+03  0.00000000000E+00 0.  1.
         21    1    1    2  502  503  0.19592731261E+02 -0.15432775747E+02 -0.36496408133E+02  0.44204451045E+02  0.00000000000E+00 0. -1.
         21    1    1    2  503  501 -0.19592731261E+02  0.15432775747E+02 -0.17231729434E+03  0.17411288181E+03  0.00000000000E+00 0.  1.
</event>
<event>
 4    1  0.5452128E+002  0.2364192E+02  0.7546771E-02  0.1484591E+00
          2   -1    0    0  503    0  0.00000000000E+00  0.00000000000E+00  0.18423681158E+03  0.18423681158E+03  0.00000000000E+00 0. -1.
         -2   -1    0    0    0  501 -0.00000000000E+00 -0.00000000000E+00 -0.33900007112E+01  0.33900007112E+01  0.00000000000E+00 0.  1.
         21    1    1    2  502  501  0.45776427399E+01 -0.23194515406E+02  0.12083249403E+03  0.12312364505E+03  0.00000000000E+00 0.  1.
         21    1    1    2  503  502 -0.45776427399E+01  0.23194515406E+02  0.60014316838E+02  0.64503167236E+02  0.00000000000E+00 0. -1.
</event>
<event>
 4    1  0.5452128E+002  0.2002080E+02  0.7546771E-02  0.1533718E+00
          2   -1    0    0  502    0  0.00000000000E+00  0.00000000000E+00  0.33261333459E+03  0.33261333459E+03  0.00000000000E+00 0. -1.
         -2   -1    0    0    0  501 -0.00000000000E+00 -0.00000000000E+00 -0.18227126429E+01  0.18227126429E+01  0.00000000000E+00 0.  1.
         21    1    1    2  502  503  0.17891360941E+02 -0.89850743208E+01  0.26273322681E+03  0.26349493510E+03  0.00000000000E+00 0. -1.
         21    1    1    2  503  501 -0.17891360941E+02  0.89850743208E+01  0.68057395138E+02  0.70941112128E+02  0.00000000000E+00 0.  1.
</event>
<event>
 4    1  0.5452128E+002  0.2426488E+02  0.7546771E-02  0.1477198E+00
          2   -1    0    0  502    0  0.00000000000E+00  0.00000000000E+00  0.59425736810E+03  0.59425736810E+03  0.00000000000E+00 0. -1.
         -2   -1    0    0    0  501 -0.00000000000E+00 -0.00000000000E+00 -0.11759682122E+01  0.11759682122E+01  0.00000000000E+00 0.  1.
         21    1    1    2  502  503  0.24194635522E+02  0.18449940534E+01  0.41468153577E+03  0.41539085269E+03  0.00000000000E+00 0. -1.
         21    1    1    2  503  501 -0.24194635522E+02 -0.18449940534E+01  0.17839986412E+03  0.18004248362E+03  0.00000000000E+00 0.  1.
</event>
<event>
 4    1  0.5452128E+002  0.2206850E+02  0.7546771E-02  0.1504538E+00
          2   -1    0    0  502    0  0.00000000000E+00  0.00000000000E+00  0.89043869491E+00  0.89043869491E+00  0.00000000000E+00 0. -1.
         -2   -1    0    0    0  501 -0.00000000000E+00 -0.00000000000E+00 -0.54715283623E+03  0.54715283623E+03  0.00000000000E+00 0.  1.
         21    1    1    2  502  503  0.11638180544E+02  0.18750239202E+02 -0.27850454494E+03  0.27937752284E+03  0.00000000000E+00 0. -1.
         21    1    1    2  503  501 -0.11638180544E+02 -0.18750239202E+02 -0.26775785259E+03  0.26866575208E+03  0.00000000000E+00 0.  1.
</event>
<event>
 4    1  0.5452128E+002  0.2146700E+02  0.7546771E-02  0.1512701E+00
          2   -1    0    0  502    0  0.00000000000E+00  0.00000000000E+00  0.63529100676E+01  0.63529100676E+01  0.00000000000E+00 0.  1.
         -2   -1    0    0    0  501 -0.00000000000E+00 -0.00000000000E+00 -0.88450326528E+02  0.88450326528E+02  0.00000000000E+00 0. -1.
         21    1    1    2  502  503 -0.18073621685E+02  0.11583454880E+02 -0.20943901686E+02  0.29991319504E+02  0.00000000000E+00 0.  1.
         21    1    1    2  503  501  0.18073621685E+02 -0.11583454880E+02 -0.61153514775E+02  0.64811917091E+02  0.00000000000E+00 0. -1.
</event>
<event>
 4    1  0.5452128E+002  0.2711709E+02  0.7546771E-02  0.1446435E+00
          2   -1    0    0  502    0  0.00000000000E+00  0.00000000000E+00  0.15185571421E+04  0.15185571421E+04  0.00000000000E+00 0.  1.
         -2   -1    0    0    0  501 -0.00000000000E+00 -0.00000000000E+00 -0.88389799011E+00  0.88389799011E+00  0.00000000000E+00 0. -1.
         21    1    1    2  502  503  0.14242418783E+02  0.23075748576E+02  0.12696948742E+04  0.12699844133E+04  0.00000000000E+00 0.  1.
         21    1    1    2  503  501 -0.14242418783E+02 -0.23075748576E+02  0.24797836992E+03  0.24945662672E+03  0.00000000000E+00 0. -1.
</event>
<event>
 4    1  0.5452128E+002  0.3035830E+02  0.7546771E-02  0.1416508E+00
          2   -1    0    0  502    0  0.00000000000E+00  0.00000000000E+00  0.89611551463E+03  0.89611551463E+03  0.00000000000E+00 0.  1.
         -2   -1    0    0    0  501 -0.00000000000E+00 -0.00000000000E+00 -0.14173186787E+01  0.14173186787E+01  0.00000000000E+00 0. -1.
         21    1    1    2  502  503  0.20523090460E+01 -0.30288849057E+02  0.68240864139E+03  0.68308358215E+03  0.00000000000E+00 0.  1.
         21    1    1    2  503  501 -0.20523090460E+01  0.30288849057E+02  0.21228955456E+03  0.21444925116E+03  0.00000000000E+00 0. -1.
</event>
<event>
 4    1  0.5452128E+002  0.3516638E+02  0.7546771E-02  0.1379397E+00
          2   -1    0    0  503    0  0.00000000000E+00  0.00000000000E+00  0.16282592970E+04  0.16282592970E+04  0.00000000000E+00 0.  1.
         -2   -1    0    0    0  501 -0.00000000000E+00 -0.00000000000E+00 -0.19050003161E+01  0.19050003161E+01  0.00000000000E+00 0. -1.
         21    1    1    2  502  501  0.20191827734E+02 -0.28791743904E+02  0.18112905610E+03  0.18451127171E+03  0.00000000000E+00 0. -1.
         21    1    1    2  503  502 -0.20191827734E+02  0.28791743904E+02  0.14452252406E+04  0.14456530256E+04  0.00000000000E+00 0.  1.
</event>
<event>
 4    1  0.5452128E+002  0.2127656E+02  0.7546771E-02  0.1515353E+00
          2   -1    0    0  503    0  0.00000000000E+00  0.00000000000E+00  0.17558576845E+02  0.17558576845E+02  0.00000000000E+00 0.  1.
         -2   -1    0    0    0  501 -0.00000000000E+00 -0.00000000000E+00 -0.54399858254E+02  0.54399858254E+02  0.00000000000E+00 0. -1.
         21    1    1    2  502  501  0.24570226680E+01  0.21134218382E+02 -0.44516567535E+02  0.49339810823E+02  0.00000000000E+00 0. -1.
         21    1    1    2  503  502 -0.24570226680E+01 -0.21134218382E+02  0.76752861257E+01  0.22618624276E+02  0.00000000000E+00 0.  1.
</event>
<event>
 4    1  0.5452128E+002  0.2242109E+02  0.7546771E-02  0.1499898E+00
          2   -1    0    0  503    0  0.00000000000E+00  0.00000000000E+00  0.16944120039E+03  0.16944120039E+03  0.00000000000E+00 0. -1.
         -2   -1    0    0    0  501 -0.00000000000E+00 -0.00000000000E+00 -0.58436831484E+01  0.58436831484E+01  0.00000000000E+00 0.  1.
         21    1    1    2  502  501  0.97482010840E+01  0.20191038472E+02  0.20305289315E+02  0.30249136072E+02  0.00000000000E+00 0.  1.
         21    1    1    2  503  502 -0.97482010840E+01 -0.20191038472E+02  0.14329222793E+03  0.14503574747E+03  0.00000000000E+00 0. -1.
</event>
<event>
 4    1  0.5452128E+002  0.2714634E+02  0.7546771E-02  0.1446144E+00
          2   -1    0    0  503    0  0.00000000000E+00  0.00000000000E+00  0.21048776270E+02  0.21048776270E+02  0.00000000000E+00 0. -1.
         -2   -1    0    0    0  501 -0.00000000000E+00 -0.00000000000E+00 -0.99498778369E+02  0.99498778369E+02  0.00000000000E+00 0.  1.
         21    1    1    2  502  501 -0.18142408516E+02 -0.20193482427E+02 -0.87749453135E+02  0.91852546207E+02  0.00000000000E+00 0.  1.
         21    1    1    2  503  502  0.18142408516E+02  0.20193482427E+02  0.92994510358E+01  0.28695008431E+02  0.00000000000E+00 0. -1.
</event>
<event>
 4    1  0.5452128E+002  0.2209138E+02  0.7546771E-02  0.1504234E+00
          2   -1    0    0  502    0  0.00000000000E+00  0.00000000000E+00  0.69356316336E+03  0.69356316336E+03  0.00000000000E+00 0.  1.
         -2   -1    0    0    0  501 -0.00000000000E+00 -0.00000000000E+00 -0.13937242228E+01  0.13937242228E+01  0.00000000000E+00 0. -1.
         21    1    1    2  502  503 -0.21919912822E+02 -0.27470496567E+01  0.59058869320E+03  0.59100172030E+03  0.00000000000E+00 0.  1.
         21    1    1    2  503  501  0.21919912822E+02  0.27470496567E+01  0.10158074594E+03  0.10395516728E+03  0.00000000000E+00 0. -1.
</event>
<event>
 4    1  0.5452128E+002  0.3235782E+02  0.7546771E-02  0.1400155E+00
          2   -1    0    0  503    0  0.00000000000E+00  0.00000000000E+00  0.82425738634E+02  0.82425738634E+02  0.00000000000E+00 0. -1.
         -2   -1    0    0    0  501 -0.00000000000E+00 -0.00000000000E+00 -0.47940819179E+02  0.47940819179E+02  0.00000000000E+00 0.  1.
         21    1    1    2  502  501 -0.32350356581E+02 -0.69475475762E+00 -0.38641854440E+02  0.50400606838E+02  0.00000000000E+00 0.  1.
         21    1    1    2  503  502  0.32350356581E+02  0.69475475762E+00  0.73126773894E+02  0.79965950975E+02  0.00000000000E+00 0. -1.
</event>
<event>
 4    1  0.5452128E+002  0.2227542E+02  0.7546771E-02  0.1501803E+00
          2   -1    0    0  503    0  0.00000000000E+00  0.00000000000E+00  0.26388901401E+03  0.26388901401E+03  0.00000000000E+00 0. -1.
         -2   -1    0    0    0  501 -0.00000000000E+00 -0.00000000000E+00 -0.44319830259E+01  0.44319830259E+01  0.00000000000E+00 0.  1.
         21    1    1    2  502  501  0.46106234176E+00  0.22270650396E+02  0.27930874809E+02  0.35725736034E+02  0.00000000000E+00 0.  1.
         21    1    1    2  503  502 -0.46106234176E+00 -0.22270650396E+02  0.23152615618E+03  0.23259526101E+03  0.00000000000E+00 0. -1.
</event>
<event>
 4    1  0.5452128E+002  0.2242479E+02  0.7546771E-02  0.1499850E+00
          2   -1    0    0  502    0  0.00000000000E+00  0.00000000000E+00  0.39684039735E+03  0.39684039735E+03  0.00000000000E+00 0.  1.
         -2   -1    0    0    0  501 -0.00000000000E+00 -0.00000000000E+00 -0.12696859569E+01  0.12696859569E+01  0.00000000000E+00 0. -1.
         21    1    1    2  502  503 -0.82612904671E+01  0.20847599467E+02  0.20661476986E+03  0.20782813680E+03  0.00000000000E+00 0.  1.
         21    1    1    2  503  501  0.82612904671E+01 -0.20847599467E+02  0.18895594153E+03  0.19028194650E+03  0.00000000000E+00 0. -1.
</event>
<event>
 4    1  0.5452128E+002  0.3017460E+02  0.7546771E-02  0.1418085E+00
          2   -1    0    0  503    0  0.00000000000E+00  0.00000000000E+00  0.69298678619E+01  0.69298678619E+01  0.00000000000E+00 0.  1.
         -2   -1    0    0    0  501 -0.00000000000E+00 -0.00000000000E+00 -0.13177788614E+03  0.13177788614E+03  0.00000000000E+00 0. -1.
         21    1    1    2  502  501 -0.28820100883E+02  0.89391381887E+01 -0.66192972939E+02  0.72746244390E+02  0.00000000000E+00 0. -1.
         21    1    1    2  503  502  0.28820100883E+02 -0.89391381887E+01 -0.58655045339E+02  0.65961509611E+02  0.00000000000E+00 0.  1.
</event>
<event>
 4    1  0.5452128E+002  0.2721497E+02  0.7546771E-02  0.1445461E+00
          2   -1    0    0  502    0  0.00000000000E+00  0.00000000000E+00  0.95026386916E+03  0.95026386916E+03  0.00000000000E+00 0.  1.
         -2   -1    0    0    0  501 -0.00000000000E+00 -0.00000000000E+00 -0.80421786176E+00  0.80421786176E+00  0.00000000000E+00 0. -1.
         21    1    1    2  502  503  0.97640545707E+01  0.25403107589E+02  0.55823283595E+03  0.55889583446E+03  0.00000000000E+00 0.  1.
         21    1    1    2  503  501 -0.97640545707E+01 -0.25403107589E+02  0.39122681535E+03  0.39217225257E+03  0.00000000000E+00 0. -1.
</event>
<event>
 4    1  0.5452128E+002  0.2178076E+02  0.7546771E-02  0.1508403E+00
          2   -1    0    0  502    0  0.00000000000E+00  0.00000000000E+00  0.53585275402E+03  0.53585275402E+03  0.00000000000E+00 0. -1.
         -2   -1    0    0    0  501 -0.00000000000E+00 -0.00000000000E+00 -0.12449491069E+01  0.12449491069E+01  0.00000000000E+00 0.  1.
         21    1    1    2  502  503 -0.12435057848E+02  0.17882133539E+02  0.41163991012E+03  0.41221574081E+03  0.00000000000E+00 0. -1.
         21    1    1    2  503  501  0.12435057848E+02 -0.17882133539E+02  0.12296789479E+03  0.12488196232E+03  0.00000000000E+00 0.  1.
</event>
<event>
 4    1  0.5452128E+002  0.2546817E+02  0.7546771E-02  0.1463634E+00
          2   -1    0    0  502    0  0.00000000000E+00  0.00000000000E+00  0.50213856490E+02  0.50213856490E+02  0.00000000000E+00 0. -1.
         -2   -1    0    0    0  501 -0.00000000000E+00 -0.00000000000E+00 -0.35072482383E+02  0.35072482383E+02  0.00000000000E+00 0.  1.
         21    1    1    2  502  503  0.21833910554E+02 -0.13111378057E+02  0.41463202505E+02  0.48660302575E+02  0.00000000000E+00 0. -1.
         21    1    1    2  503  501 -0.21833910554E+02  0.13111378057E+02 -0.26321828398E+02  0.36626036298E+02  0.00000000000E+00 0.  1.
</event>
<event>
 4    1  0.5452128E+002  0.2026687E+02  0.7546771E-02  0.1529995E+00
          2   -1    0    0  503    0  0.00000000000E+00  0.00000000000E+00  0.28219625059E+02  0.28219625059E+02  0.00000000000E+00 0.  1.
         -2   -1    0    0    0  501 -0.00000000000E+00 -0.00000000000E+00 -0.38658509200E+02  0.38658509200E+02  0.00000000000E+00 0. -1.
         21    1    1    2  502  501  0.20261660659E+02 -0.45932289595E+00 -0.31623385526E+02  0.37560409772E+02  0.00000000000E+00 0. -1.
         21    1    1    2  503  502 -0.20261660659E+02  0.45932289595E+00  0.21184501384E+02  0.29317724487E+02  0.00000000000E+00 0.  1.
</event>
<event>
 4    1  0.5452128E+002  0.3489542E+02  0.7546771E-02  0.1381300E+00
          2   -1    0    0  502    0  0.00000000000E+00  0.00000000000E+00  0.96630615853E+03  0.96630615853E+03  0.00000000000E+00 0.  1.
         -2   -1    0    0    0  501 -0.00000000000E+00 -0.00000000000E+00 -0.36488126566E+01  0.36488126566E+01  0.00000000000E+00 0. -1.
         21    1    1    2  502  503 -0.14097627033E+02 -0.31920952582E+02  0.87372347225E+03  0.87442003423E+03  0.00000000000E+00 0.  1.
         21    1    1    2  503  501  0.14097627033E+02  0.31920952582E+02  0.88933873623E+02  0.95534936956E+02  0.00000000000E+00 0. -1.
</event>
<event>
 4    1  0.5452128E+002  0.2176116E+02  0.7546771E-02  0.1508669E+00
          2   -1    0    0  502    0  0.00000000000E+00  0.00000000000E+00  0.10289256473E+03  0.10289256473E+03  0.00000000000E+00 0. -1.
         -2   -1    0    0    0  501 -0.00000000000E+00 -0.00000000000E+00 -0.25249454117E+02  0.25249454117E+02  0.00000000000E+00 0.  1.
         21    1    1    2  502  503  0.16207766579E+02  0.14520890562E+02  0.96759769663E+02  0.99176615114E+02  0.00000000000E+00 0. -1.
         21    1    1    2  503  501 -0.16207766579E+02 -0.14520890562E+02 -0.19116659050E+02  0.28965403733E+02  0.00000000000E+00 0.  1.
</event>
<event>
 4    1  0.5452128E+002  0.2003129E+02  0.7546771E-02  0.1533558E+00
          2   -1    0    0  502    0  0.00000000000E+00  0.00000000000E+00  0.85140118477E+03  0.85140118477E+03  0.00000000000E+00 0. -1.
         -2   -1    0    0    0  501 -0.00000000000E+00 -0.00000000000E+00 -0.57618756142E+00  0.57618756142E+00  0.00000000000E+00 0.  1.
         21    1    1    2  502  503  0.59612981422E+01  0.19123687583E+02  0.60717714971E+03  0.60750748443E+03  0.00000000000E+00 0. -1.
         21    1    1    2  503  501 -0.59612981422E+01 -0.19123687583E+02  0.24364784750E+03  0.24446988791E+03  0.00000000000E+00 0.  1.
</event>
<event>
 4    1  0.5452128E+002  0.2627205E+02  0.7546771E-02  0.1455061E+00
          2   -1    0    0  502    0  0.00000000000E+00  0.00000000000E+00  0.67680789654E+03  0.67680789654E+03  0.00000000000E+00 0. -1.
         -2   -1    0    0    0  501 -0.00000000000E+00 -0.00000000000E+00 -0.10588425454E+01  0.10588425454E+01  0.00000000000E+00 0.  1.
         21    1    1    2  502  503  0.16632162595E+01 -0.26219346242E+02  0.40294312148E+03  0.40379868691E+03  0.00000000000E+00 0. -1.
         21    1    1    2  503  501 -0.16632162595E+01  0.26219346242E+02  0.27280593252E+03  0.27406805218E+03  0.00000000000E+00 0.  1.
</event>
<event>
 4    1  0.5452128E+002  0.2026592E+02  0.7546771E-02  0.1530009E+00
          2   -1    0    0  502    0  0.00000000000E+00  0.00000000000E+00  0.18589600295E+04  0.18589600295E+04  0.00000000000E+00 0. -1.
         -2   -1    0    0    0  501 -0.00000000000E+00 -0.00000000000E+00 -0.28292779157E+00  0.28292779157E+00  0.00000000000E+00 0.  1.
         21    1    1    2  502  503  0.12367160407E+02 -0.16054934173E+02  0.13644918389E+04  0.13646423290E+04  0.00000000000E+00 0. -1.
         21    1    1    2  503  501 -0.12367160407E+02  0.16054934173E+02  0.49418526280E+03  0.49460062832E+03  0.00000000000E+00 0.  1.
</event>
<event>
 4    1  0.5452128E+002  0.2390490E+02  0.7546771E-02  0.1481437E+00
          2   -1    0    0  503    0  0.00000000000E+00  0.00000000000E+00  0.17742212121E+03  0.17742212121E+03  0.00000000000E+00 0. -1.
         -2   -1    0    0    0  501 -0.00000000000E+00 -0.00000000000E+00 -0.44038527781E+01  0.44038527781E+01  0.00000000000E+00 0.  1.
         21    1    1    2  502  501 -0.17174684267E+02  0.16627526934E+02  0.13362945241E+03  0.13575078262E+03  0.00000000000E+00 0. -1.
         21    1    1    2  503  502  0.17174684267E+02 -0.16627526934E+02  0.39388816021E+02  0.46075191363E+02  0.00000000000E+00 0.  1.
</event>
<event>
 4    1  0.5452128E+002  0.4010298E+02  0.7546771E-02  0.1347883E+00
          2   -1    0    0  502    0  0.00000000000E+00  0.00000000000E+00  0.32784658569E+04  0.32784658569E+04  0.00000000000E+00 0. -1.
         -2   -1    0    0    0  501 -0.00000000000E+00 -0.00000000000E+00 -0.55507997081E+00  0.55507997081E+00  0.00000000000E+00 0.  1.
         21    1    1    2  502  503  0.51356548683E+01  0.39772775461E+02  0.10799448035E+04  0.10806891446E+04  0.00000000000E+00 0.  1.
         21    1    1    2  503  501 -0.51356548683E+01 -0.39772775461E+02  0.21979659734E+04  0.21983317923E+04  0.00000000000E+00 0. -1.
</event>
<event>
 4    1  0.5452128E+002  0.4091785E+02  0.7546771E-02  0.1343190E+00
          2   -1    0    0  503    0  0.00000000000E+00  0.00000000000E+00  0.28568879045E+02  0.28568879045E+02  0.00000000000E+00 0.  1.
         -2   -1    0    0    0  501 -0.00000000000E+00 -0.00000000000E+00 -0.58845680606E+02  0.58845680606E+02  0.00000000000E+00 0. -1.
         21    1    1    2  502  501  0.31044394074E+02 -0.26655512525E+02 -0.17935335335E+02  0.44676022708E+02  0.00000000000E+00 0. -1.
         21    1    1    2  503  502 -0.31044394074E+02  0.26655512525E+02 -0.12341466226E+02  0.42738536943E+02  0.00000000000E+00 0.  1.
</event>
<event>
 4    1  0.5452128E+002  0.3616859E+02  0.7546771E-02  0.1372529E+00
          2   -1    0    0  503    0  0.00000000000E+00  0.00000000000E+00  0.16376634790E+04  0.16376634790E+04  0.00000000000E+00 0. -1.
         -2   -1    0    0    0  501 -0.00000000000E+00 -0.00000000000E+00 -0.14031824904E+01  0.14031824904E+01  0.00000000000E+00 0.  1.
         21    1    1    2  502  501 -0.62565383201E+01 -0.35623346070E+02  0.28027521387E+03  0.28259929683E+03  0.00000000000E+00 0.  1.
         21    1    1    2  503  502  0.62565383201E+01  0.35623346070E+02  0.13559850826E+04  0.13564673647E+04  0.00000000000E+00 0. -1.
</event>
<event>
 4    1  0.5452128E+002  0.2145017E+02  0.7546771E-02  0.1512934E+00
          2   -1    0    0  503    0  0.00000000000E+00  0.00000000000E+00  0.62525927467E+02  0.62525927467E+02  0.00000000000E+00 0.  1.
         -2   -1    0    0    0  501 -0.00000000000E+00 -0.00000000000E+00 -0.10366962750E+02  0.10366962750E+02  0.00000000000E+00 0. -1.
         21    1    1    2  502  501  0.17025677943E+02 -0.13047460224E+02  0.64464743380E+01  0.22397923098E+02  0.00000000000E+00 0. -1.
         21    1    1    2  503  502 -0.17025677943E+02  0.13047460224E+02  0.45712490379E+02  0.50494967119E+02  0.00000000000E+00 0.  1.
</event>
<event>
 4    1  0.5452128E+002  0.2858076E+02  0.7546771E-02  0.1432344E+00
          2   -1    0    0  503    0  0.00000000000E+00  0.00000000000E+00  0.77189192449E+03  0.77189192449E+03  0.00000000000E+00 0. -1.
         -2   -1    0    0    0  501 -0.00000000000E+00 -0.00000000000E+00 -0.15530444915E+01  0.15530444915E+01  0.00000000000E+00 0.  1.
         21    1    1    2  502  501  0.10493947902E+02 -0.26584522585E+02  0.16688791877E+03  0.16931756322E+03  0.00000000000E+00 0.  1.
         21    1    1    2  503  502 -0.10493947902E+02  0.26584522585E+02  0.60345096123E+03  0.60412740576E+03  0.00000000000E+00 0. -1.
</event>
<event>
 4    1  0.5452128E+002  0.2654038E+02  0.7546771E-02  0.1452281E+00
          2   -1    0    0  503    0  0.00000000000E+00  0.00000000000E+00  0.10602421192E+02  0.10602421192E+02  0.00000000000E+00 0. -1.
         -2   -1    0    0    0  501 -0.00000000000E+00 -0.00000000000E+00 -0.14428429142E+03  0.14428429142E+03  0.00000000000E+00 0.  1.
         21    1    1    2  502  501  0.21883405401E+02 -0.15016929455E+02 -0.12372580604E+03  0.12654037571E+03  0.00000000000E+00 0. -1.
         21    1    1    2  503  502 -0.21883405401E+02  0.15016929455E+02 -0.99560641879E+01  0.28346336912E+02  0.00000000000E+00 0.  1.
</event>
<event>
 4    1  0.5452128E+002  0.2414618E+02  0.7546771E-02  0.1478586E+00
          2   -1    0    0  503    0  0.00000000000E+00  0.00000000000E+00  0.16606456568E+04  0.16606456568E+04  0.00000000000E+00 0. -1.
         -2   -1    0    0    0  501 -0.00000000000E+00 -0.00000000000E+00 -0.72957485930E+00  0.72957485930E+00  0.00000000000E+00 0.  1.
         21    1    1    2  502  501  0.10158810291E+02  0.21905171815E+02  0.23164784121E+03  0.23290289890E+03  0.00000000000E+00 0.  1.
         21    1    1    2  503  502 -0.10158810291E+02 -0.21905171815E+02  0.14282682407E+04  0.14284723328E+04  0.00000000000E+00 0. -1.
</event>
<event>
 4    1  0.5452128E+002  0.2365888E+02  0.7546771E-02  0.1484386E+00
          2   -1    0    0  503    0  0.00000000000E+00  0.00000000000E+00  0.30118140686E+03  0.30118140686E+03  0.00000000000E+00 0.  1.
         -2   -1    0    0    0  501 -0.00000000000E+00 -0.00000000000E+00 -0.39824564478E+02  0.39824564478E+02  0.00000000000E+00 0. -1.
         21    1    1    2  502  501  0.23307586083E+02  0.40619240635E+01 -0.35798607287E+02  0.42910174548E+02  0.00000000000E+00 0. -1.
         21    1    1    2  503  502 -0.23307586083E+02 -0.40619240635E+01  0.29715544967E+03  0.29809579679E+03  0.00000000000E+00 0.  1.
</event>
<event>
 4    1  0.5452128E+002  0.2635263E+02  0.7546771E-02  0.1454222E+00
          2   -1    0    0  502    0  0.00000000000E+00  0.00000000000E+00  0.19705306348E+03  0.19705306348E+03  0.00000000000E+00 0. -1.
         -2   -1    0    0    0  501 -0.00000000000E+00 -0.00000000000E+00 -0.59032633355E+01  0.59032633355E+01  0.00000000000E+00 0.  1.
         21    1    1    2  502  503 -0.43675847628E+01  0.25988172565E+02  0.31154041342E+02  0.40804842873E+02  0.00000000000E+00 0.  1.
         21    1    1    2  503  501  0.43675847628E+01 -0.25988172565E+02  0.15999575880E+03  0.16215148394E+03  0.00000000000E+00 0. -1.
</event>
<event>
 4    1  0.5452128E+002  0.2940858E+02  0.7546771E-02  0.1424806E+00
          2   -1    0    0  503    0  0.00000000000E+00  0.00000000000E+00  0.74845536884E+03  0.74845536884E+03  0.00000000000E+00 0. -1.
         -2   -1    0    0    0  501 -0.00000000000E+00 -0.00000000000E+00 -0.54716344522E+01  0.54716344522E+01  0.00000000000E+00 0.  1.
         21    1    1    2  502  501 -0.29188753763E+02 -0.35890469715E+01  0.36690975602E+02  0.47022253189E+02  0.00000000000E+00 0.  1.
         21    1    1    2  503  502  0.29188753763E+02  0.35890469715E+01  0.70629275878E+03  0.70690475010E+03  0.00000000000E+00 0. -1.
</event>
<event>
 4    1  0.5452128E+002  0.2573229E+02  0.7546771E-02  0.1460776E+00
          2   -1    0    0  503    0  0.00000000000E+00  0.00000000000E+00  0.67729756289E+03  0.67729756289E+03  0.00000000000E+00 0.  1.
         -2   -1    0    0    0  501 -0.00000000000E+00 -0.00000000000E+00 -0.97900490106E+00  0.97900490106E+00  0.00000000000E+00 0. -1.
         21    1    1    2  502  501 -0.57703212662E+01  0.25076966603E+02  0.32548039314E+03  0.32649599872E+03  0.00000000000E+00 0. -1.
         21    1    1    2  503  502  0.57703212662E+01 -0.25076966603E+02  0.35083816485E+03  0.35178056907E+03  0.00000000000E+00 0.  1.
</event>
<event>
 4    1  0.5452128E+002  0.2563478E+02  0.7546771E-02  0.1461826E+00
          2   -1    0    0  503    0  0.00000000000E+00  0.00000000000E+00  0.11603760793E+03  0.11603760793E+03  0.00000000000E+00 0. -1.
         -2   -1    0    0    0  501 -0.00000000000E+00 -0.00000000000E+00 -0.58596848767E+01  0.58596848767E+01  0.00000000000E+00 0.  1.
         21    1    1    2  502  501  0.24097374041E+02 -0.87440615730E+01  0.43927737876E+02  0.50860477813E+02  0.00000000000E+00 0.  1.
         21    1    1    2  503  502 -0.24097374041E+02  0.87440615730E+01  0.66250185178E+02  0.71036814995E+02  0.00000000000E+00 0. -1.
</event>
<event>
 4    1  0.5452128E+002  0.3002117E+02  0.7546771E-02  0.1419413E+00
          2   -1    0    0  503    0  0.00000000000E+00  0.00000000000E+00  0.63012850529E+02  0.63012850529E+02  0.00000000000E+00 0. -1.
         -2   -1    0    0    0  501 -0.00000000000E+00 -0.00000000000E+00 -0.15686480718E+02  0.15686480718E+02  0.00000000000E+00 0.  1.
         21    1    1    2  502  501  0.12194160118E+02 -0.27433070295E+02  0.11977084598E+02  0.32322150954E+02  0.00000000000E+00 0. -1.
         21    1    1    2  503  502 -0.12194160118E+02  0.27433070295E+02  0.35349285214E+02  0.46377180293E+02  0.00000000000E+00 0.  1.
</event>
<event>
 4    1  0.5452128E+002  0.2279749E+02  0.7546771E-02  0.1495057E+00
          2   -1    0    0  502    0  0.00000000000E+00  0.00000000000E+00  0.98625829841E+00  0.98625829841E+00  0.00000000000E+00 0. -1.
         -2   -1    0    0    0  501 -0.00000000000E+00 -0.00000000000E+00 -0.73778465474E+03  0.73778465474E+03  0.00000000000E+00 0.  1.
         21    1    1    2  502  503  0.14989837212E+02 -0.17176448113E+02 -0.17094405117E+03  0.17245751425E+03  0.00000000000E+00 0. -1.
         21    1    1    2  503  501 -0.14989837212E+02  0.17176448113E+02 -0.56585434527E+03  0.56631339880E+03  0.00000000000E+00 0.  1.
</event>
<event>
 4    1  0.5452128E+002  0.2138747E+02  0.7546771E-02  0.1513804E+00
          2   -1    0    0  502    0  0.00000000000E+00  0.00000000000E+00  0.14376976202E+03  0.14376976202E+03  0.00000000000E+00 0. -1.
         -2   -1    0    0    0  501 -0.00000000000E+00 -0.00000000000E+00 -0.46836229254E+01  0.46836229254E+01  0.00000000000E+00 0.  1.
         21    1    1    2  502  503 -0.21268240417E+02  0.22552050349E+01  0.11157712265E+03  0.11360844291E+03  0.00000000000E+00 0.  1.
         21    1    1    2  503  501  0.21268240417E+02 -0.22552050349E+01  0.27509016447E+02  0.34844942044E+02  0.00000000000E+00 0. -1.
</event>
<event>
 4    1  0.5452128E+002  0.2823629E+02  0.7546771E-02  0.1435570E+00
          2   -1    0    0  502    0  0.00000000000E+00  0.00000000000E+00  0.39423795636E+02  0.39423795636E+02  0.00000000000E+00 0. -1.
         -2   -1    0    0    0  501 -0.00000000000E+00 -0.00000000000E+00 -0.13345683615E+03  0.13345683615E+03  0.00000000000E+00 0.  1.
         21    1    1    2  502  503 -0.22961560598E+02 -0.16433348153E+02  0.32605470622E+02  0.43132411376E+02  0.00000000000E+00 0. -1.
         21    1    1    2  503  501  0.22961560598E+02  0.16433348153E+02 -0.12663851114E+03  0.12974822041E+03  0.00000000000E+00 0.  1.
</event>
<event>
 4    1  0.5452128E+002  0.2452792E+02  0.7546771E-02  0.1474154E+00
          2   -1    0    0  503    0  0.00000000000E+00  0.00000000000E+00  0.64700293817E+02  0.64700293817E+02  0.00000000000E+00 0. -1.
         -2   -1    0    0    0  501 -0.00000000000E+00 -0.00000000000E+00 -0.94226219340E+01  0.94226219340E+01  0.00000000000E+00 0.  1.
         21    1    1    2  502  501 -0.23451554642E+02 -0.71863423606E+01  0.31891616734E+02  0.40232998267E+02  0.00000000000E+00 0. -1.
         21    1    1    2  503  502  0.23451554642E+02  0.71863423606E+01  0.23386055149E+02  0.33889917484E+02  0.00000000000E+00 0.  1.
</event>
<event>
 4    1  0.5452128E+002  0.2274693E+02  0.7546771E-02  0.1495701E+00
          2   -1    0    0  502    0  0.00000000000E+00  0.00000000000E+00  0.15217060387E+03  0.15217060387E+03  0.00000000000E+00 0.  1.
         -2   -1    0    0    0  501 -0.00000000000E+00 -0.00000000000E+00 -0.41993642704E+02  0.41993642704E+02  0.00000000000E+00 0. -1.
         21    1    1    2  502  503  0.10357146492E+02 -0.20252213188E+02  0.14815721404E+03  0.14989323766E+03  0.00000000000E+00 0.  1.
         21    1    1    2  503  501 -0.10357146492E+02  0.20252213188E+02 -0.37980252873E+02  0.44271008920E+02  0.00000000000E+00 0. -1.
</event>
<event>
 4    1  0.5452128E+002  0.2446411E+02  0.7546771E-02  0.1474888E+00
          2   -1    0    0  503    0  0.00000000000E+00  0.00000000000E+00  0.19199058384E+04  0.19199058384E+04  0.00000000000E+00 0.  1.
         -2   -1    0    0    0  501 -0.00000000000E+00 -0.00000000000E+00 -0.33498657282E+00  0.33498657282E+00  0.00000000000E+00 0. -1.
         21    1    1    2  502  501  0.24170145110E+02 -0.37811260197E+01  0.70680784664E+03  0.70723109724E+03  0.00000000000E+00 0.  1.
         21    1    1    2  503  502 -0.24170145110E+02  0.37811260197E+01  0.12127630052E+04  0.12130097278E+04  0.00000000000E+00 0. -1.
</event>
<event>
 4    1  0.5452128E+002  0.3827542E+02  0.7546771E-02  0.1358899E+00
          2   -1    0    0  502    0  0.00000000000E+00  0.00000000000E+00  0.19804060668E+03  0.19804060668E+03  0.00000000000E+00 0.  1.
         -2   -1    0    0    0  501 -0.00000000000E+00 -0.00000000000E+00 -0.26817235066E+02  0.26817235066E+02  0.00000000000E+00 0. -1.
         21    1    1    2  502  503 -0.24371862214E+02  0.29513054795E+02  0.18128537960E+03  0.18528193902E+03  0.00000000000E+00 0.  1.
         21    1    1    2  503  501  0.24371862214E+02 -0.29513054795E+02 -0.10062007992E+02  0.39575902718E+02  0.00000000000E+00 0. -1.
</event>
<event>
 4    1  0.5452128E+002  0.3616141E+02  0.7546771E-02  0.1372577E+00
          2   -1    0    0  503    0  0.00000000000E+00  0.00000000000E+00  0.42187662464E+02  0.42187662464E+02  0.00000000000E+00 0. -1.
         -2   -1    0    0    0  501 -0.00000000000E+00 -0.00000000000E+00 -0.66870072207E+02  0.66870072207E+02  0.00000000000E+00 0.  1.
         21    1    1    2  502  501  0.14067081433E+02 -0.33313130454E+02 -0.52280565906E+02  0.63568113171E+02  0.00000000000E+00 0.  1.
         21    1    1    2  503  502 -0.14067081433E+02  0.33313130454E+02  0.27598156163E+02  0.45489621501E+02  0.00000000000E+00 0. -1.
</event>
<event>
 4    1  0.5452128E+002  0.2221847E+02  0.7546771E-02  0.1502552E+00
          2   -1    0    0  502    0  0.00000000000E+00  0.00000000000E+00  0.24113492895E+01  0.24113492895E+01  0.00000000000E+00 0.  1.
         -2   -1    0    0    0  501 -0.00000000000E+00 -0.00000000000E+00 -0.24870665786E+03  0.24870665786E+03  0.00000000000E+00 0. -1.
         21    1    1    2  502  503 -0.27593239771E+01 -0.22046463282E+02 -0.70346156631E+02  0.73771553900E+02  0.00000000000E+00 0.  1.
         21    1    1    2  503  501  0.27593239771E+01  0.22046463282E+02 -0.17594915194E+03  0.17734645325E+03  0.00000000000E+00 0. -1.
</event>
<event>
 4    1  0.5452128E+002  0.4974499E+02  0.7546771E-02  0.1299282E+00
          2   -1    0    0  503    0  0.00000000000E+00  0.00000000000E+00  0.16664108967E+03  0.16664108967E+03  0.00000000000E+00 0.  1.
         -2   -1    0    0    0  501 -0.00000000000E+00 -0.00000000000E+00 -0.23504521841E+02  0.23504521841E+02  0.00000000000E+00 0. -1.
         21    1    1    2  502  501  0.48615685907E+02 -0.10539412917E+02  0.13876950435E+02  0.51644301662E+02  0.00000000000E+00 0. -1.
         21    1    1    2  503  502 -0.48615685907E+02  0.10539412917E+02  0.12925961739E+03  0.13850130985E+03  0.00000000000E+00 0.  1.
</event>
<event>
 4    1  0.5452128E+002  0.3608643E+02  0.7546771E-02  0.1373082E+00
          2   -1    0    0  503    0  0.00000000000E+00  0.00000000000E+00  0.18982206361E+02  0.18982206361E+02  0.00000000000E+00 0. -1.
         -2   -1    0    0    0  501 -0.00000000000E+00 -0.00000000000E+00 -0.78860361099E+02  0.78860361099E+02  0.00000000000E+00 0.  1.
         21    1    1    2  502  501 -0.35243146266E+02  0.77556940799E+01 -0.47582918921E+02  0.59719044889E+02  0.00000000000E+00 0.  1.
         21    1    1    2  503  502  0.35243146266E+02 -0.77556940799E+01 -0.12295235817E+02  0.38123522571E+02  0.00000000000E+00 0. -1.
</event>
<event>
 4    1  0.5452128E+002  0.2734475E+02  0.7546771E-02  0.1444175E+00
          2   -1    0    0  503    0  0.00000000000E+00  0.00000000000E+00  0.83788259578E+03  0.83788259578E+03  0.00000000000E+00 0. -1.
         -2   -1    0    0    0  501 -0.00000000000E+00 -0.00000000000E+00 -0.11590109009E+01  0.11590109009E+01  0.00000000000E+00 0.  1.
         21    1    1    2  502  501  0.10699705248E+02 -0.25164496600E+02  0.21715631702E+03  0.21887119866E+03  0.00000000000E+00 0.  1.
         21    1    1    2  503  502 -0.10699705248E+02  0.25164496600E+02  0.61956726786E+03  0.62017040802E+03  0.00000000000E+00 0. -1.
</event>
<event>
 4    1  0.5452128E+002  0.2109368E+02  0.7546771E-02  0.1517932E+00
          2   -1    0    0  503    0  0.00000000000E+00  0.00000000000E+00  0.11567105535E+02  0.11567105535E+02  0.00000000000E+00 0.  1.
         -2   -1    0    0    0  501 -0.00000000000E+00 -0.00000000000E+00 -0.41842678907E+02  0.41842678907E+02  0.00000000000E+00 0. -1.
         21    1    1    2  502  501 -0.20102193006E+02 -0.63910097796E+01 -0.22723735600E+02  0.31005021033E+02  0.00000000000E+00 0. -1.
         21    1    1    2  503  502  0.20102193006E+02  0.63910097796E+01 -0.75518377718E+01  0.22404763408E+02  0.00000000000E+00 0.  1.
</event>
<event>
 4    1  0.5452128E+002  0.6837809E+02  0.7546771E-02  0.1233748E+00
          2   -1    0    0  503    0  0.00000000000E+00  0.00000000000E+00  0.30442002607E+02  0.30442002607E+02  0.00000000000E+00 0. -1.
         -2   -1    0    0    0  501 -0.00000000000E+00 -0.00000000000E+00 -0.20150542562E+03  0.20150542562E+03  0.00000000000E+00 0.  1.
         21    1    1    2  502  501 -0.67532950842E+02 -0.10717425410E+02 -0.14208495521E+03  0.15768226645E+03  0.00000000000E+00 0.  1.
         21    1    1    2  503  502  0.67532950842E+02  0.10717425410E+02 -0.28978467802E+02  0.74265161772E+02  0.00000000000E+00 0. -1.
</event>
<event>
 4    1  0.5452128E+002  0.2950490E+02  0.7546771E-02  0.1423948E+00
          2   -1    0    0  502    0  0.00000000000E+00  0.00000000000E+00  0.17542642615E+04  0.17542642615E+04  0.00000000000E+00 0.  1.
         -2   -1    0    0    0  501 -0.00000000000E+00 -0.00000000000E+00 -0.79148592878E+00  0.79148592878E+00  0.00000000000E+00 0. -1.
         21    1    1    2  502  503  0.27862922753E+02  0.97054974871E+01  0.14126934548E+04  0.14130015344E+04  0.00000000000E+00 0.  1.
         21    1    1    2  503  501 -0.27862922753E+02 -0.97054974871E+01  0.34077932079E+03  0.34205421299E+03  0.00000000000E+00 0. -1.
</event>
<event>
 4    1  0.5452128E+002  0.2369445E+02  0.7546771E-02  0.1483957E+00
          2   -1    0    0  503    0  0.00000000000E+00  0.00000000000E+00  0.29209137682E+03  0.29209137682E+03  0.00000000000E+00 0. -1.
         -2   -1    0    0    0  501 -0.00000000000E+00 -0.00000000000E+00 -0.24261595114E+01  0.24261595114E+01  0.00000000000E+00 0.  1.
         21    1    1    2  502  501  0.96041817322E+01 -0.21660715914E+02  0.77710557589E+02  0.81242585394E+02  0.00000000000E+00 0.  1.
         21    1    1    2  503  502 -0.96041817322E+01  0.21660715914E+02  0.21195465972E+03  0.21327495093E+03  0.00000000000E+00 0. -1.
</event>
<event>
 4    1  0.5452128E+002  0.2666351E+02  0.7546771E-02  0.1451018E+00
          2   -1    0    0  503    0  0.00000000000E+00  0.00000000000E+00  0.75099174762E+02  0.75099174762E+02  0.00000000000E+00 0.  1.
         -2   -1    0    0    0  501 -0.00000000000E+00 -0.00000000000E+00 -0.11583693729E+02  0.11583693729E+02  0.00000000000E+00 0. -1.
         21    1    1    2  502  501 -0.22002255512E+02  0.15061324108E+02  0.13229351731E+02  0.29765054657E+02  0.00000000000E+00 0. -1.
         21    1    1    2  503  502  0.22002255512E+02 -0.15061324108E+02  0.50286129302E+02  0.56917813834E+02  0.00000000000E+00 0.  1.
</event>
<event>
 4    1  0.5452128E+002  0.2131855E+02  0.7546771E-02  0.1514765E+00
          2   -1    0    0  503    0  0.00000000000E+00  0.00000000000E+00  0.15328036458E+04  0.15328036458E+04  0.00000000000E+00 0. -1.
         -2   -1    0    0    0  501 -0.00000000000E+00 -0.00000000000E+00 -0.72063414084E+00  0.72063414084E+00  0.00000000000E+00 0.  1.
         21    1    1    2  502  501  0.16347609774E+02  0.13683435472E+02  0.17780311207E+03  0.17907659650E+03  0.00000000000E+00 0.  1.
         21    1    1    2  503  502 -0.16347609774E+02 -0.13683435472E+02  0.13542798996E+04  0.13544476834E+04  0.00000000000E+00 0. -1.
</event>
<event>
 4    1  0.5452128E+002  0.2065286E+02  0.7546771E-02  0.1524279E+00
          2   -1    0    0  503    0  0.00000000000E+00  0.00000000000E+00  0.15326388113E+01  0.15326388113E+01  0.00000000000E+00 0. -1.
         -2   -1    0    0    0  501 -0.00000000000E+00 -0.00000000000E+00 -0.44174230796E+03  0.44174230796E+03  0.00000000000E+00 0.  1.
         21    1    1    2  502  501 -0.17480671169E+02 -0.10998485453E+02 -0.35491875063E+03  0.35551914167E+03  0.00000000000E+00 0.  1.
         21    1    1    2  503  502  0.17480671169E+02  0.10998485453E+02 -0.85290918514E+02  0.87755805095E+02  0.00000000000E+00 0. -1.
</event>
<event>
 4    1  0.5452128E+002  0.2470151E+02  0.7546771E-02  0.1472170E+00
          2   -1    0    0  503    0  0.00000000000E+00  0.00000000000E+00  0.15250311021E+04  0.15250311021E+04  0.00000000000E+00 0. -1.
         -2   -1    0    0    0  501 -0.00000000000E+00 -0.00000000000E+00 -0.28658586273E+01  0.28658586273E+01  0.00000000000E+00 0.  1.
         21    1    1    2  502  501  0.14351153818E+02  0.20104952477E+02  0.52464943115E+02  0.57989093682E+02  0.00000000000E+00 0.  1.
         21    1    1    2  503  502 -0.14351153818E+02 -0.20104952477E+02  0.14697003004E+04  0.14699078671E+04  0.00000000000E+00 0. -1.
</event>
<event>
 4    1  0.5452128E+002  0.4677068E+02  0.7546771E-02  0.1312815E+00
          2   -1    0    0  503    0  0.00000000000E+00  0.00000000000E+00  0.40321063112E+03  0.40321063112E+03  0.00000000000E+00 0. -1.
         -2   -1    0    0    0  501 -0.00000000000E+00 -0.00000000000E+00 -0.65770807482E+01  0.65770807482E+01  0.00000000000E+00 0.  1.
         21    1    1    2  502  501 -0.43194288918E+02 -0.17937387627E+02  0.11257016272E+03  0.12189970470E+03  0.00000000000E+00 0.  1.
         21    1    1    2  503  502  0.43194288918E+02  0.17937387627E+02  0.28406338764E+03  0.28788800716E+03  0.00000000000E+00 0. -1.
</event>
<event>
 4    1  0.5452128E+002  0.2281355E+02  0.7546771E-02  0.1494853E+00
          2   -1    0    0  502    0  0.00000000000E+00  0.00000000000E+00  0.12706900299E+04  0.12706900299E+04  0.00000000000E+00 0. -1.
         -2   -1    0    0    0  501 -0.00000000000E+00 -0.00000000000E+00 -0.44975234656E+00  0.44975234656E+00  0.00000000000E+00 0.  1.
         21    1    1    2  502  503  0.22787416558E+02  0.10916213820E+01  0.44518606015E+03  0.44577021675E+03  0.00000000000E+00 0.  1.
         21    1    1    2  503  501 -0.22787416558E+02 -0.10916213820E+01  0.82505421740E+03  0.82536956549E+03  0.00000000000E+00 0. -1.
</event>
<event>
 4    1  0.5452128E+002  0.3320073E+02  0.7546771E-02  0.1393674E+00
          2   -1    0    0  502    0  0.00000000000E+00  0.00000000000E+00  0.28810517727E+03  0.28810517727E+03  0.00000000000E+00 0.  1.
         -2   -1    0    0    0  501 -0.00000000000E+00 -0.00000000000E+00 -0.11257683432E+03  0.11257683432E+03  0.00000000000E+00 0. -1.
         21    1    1    2  502  503 -0.28076132675E+02  0.17720588482E+02  0.28467139380E+03  0.28660092626E+03  0.00000000000E+00 0.  1.
         21    1    1    2  503  501  0.28076132675E+02 -0.17720588482E+02 -0.10914305085E+03  0.11408108533E+03  0.00000000000E+00 0. -1.
</event>
<event>
 4    1  0.5452128E+002  0.2170127E+02  0.7546771E-02  0.1509484E+00
          2   -1    0    0  503    0  0.00000000000E+00  0.00000000000E+00  0.14088522504E+03  0.14088522504E+03  0.00000000000E+00 0.  1.
         -2   -1    0    0    0  501 -0.00000000000E+00 -0.00000000000E+00 -0.39647174600E+01  0.39647174600E+01  0.00000000000E+00 0. -1.
         21    1    1    2  502  501 -0.69045113790E+01 -0.20573592098E+02  0.97145848168E+02  0.99540247064E+02  0.00000000000E+00 0.  1.
         21    1    1    2  503  502  0.69045113790E+01  0.20573592098E+02  0.39774659412E+02  0.45309695436E+02  0.00000000000E+00 0. -1.
</event>
<event>
 4    1  0.5452128E+002  0.3164134E+02  0.7546771E-02  0.1405850E+00
          2   -1    0    0  502    0  0.00000000000E+00  0.00000000000E+00  0.45769223149E+03  0.45769223149E+03  0.00000000000E+00 0. -1.
         -2   -1    0    0    0  501 -0.00000000000E+00 -0.00000000000E+00 -0.23502415587E+01  0.23502415587E+01  0.00000000000E+00 0.  1.
         21    1    1    2  502  503  0.31601973779E+02 -0.15778103648E+01  0.16713117229E+03  0.17009997938E+03  0.00000000000E+00 0.  1.
         21    1    1    2  503  501 -0.31601973779E+02  0.15778103648E+01  0.28821081764E+03  0.28994249368E+03  0.00000000000E+00 0. -1.
</event>
<event>
 4    1  0.5452128E+002  0.4456048E+02  0.7546771E-02  0.1323652E+00
          2   -1    0    0  502    0  0.00000000000E+00  0.00000000000E+00  0.80956662478E+03  0.80956662478E+03  0.00000000000E+00 0. -1.
         -2   -1    0    0    0  501 -0.00000000000E+00 -0.00000000000E+00 -0.34131723225E+01  0.34131723225E+01  0.00000000000E+00 0.  1.
         21    1    1    2  502  503 -0.67551356006E+01  0.44045483873E+02  0.61870693407E+03  0.62030952498E+03  0.00000000000E+00 0. -1.
         21    1    1    2  503  501  0.67551356006E+01 -0.44045483873E+02  0.18744651838E+03  0.19267027212E+03  0.00000000000E+00 0.  1.
</event>
<event>
 4    1  0.5452128E+002  0.3052872E+02  0.7546771E-02  0.1415056E+00
          2   -1    0    0  503    0  0.00000000000E+00  0.00000000000E+00  0.40479026588E+02  0.40479026588E+02  0.00000000000E+00 0.  1.
         -2   -1    0    0    0  501 -0.00000000000E+00 -0.00000000000E+00 -0.24994914666E+02  0.24994914666E+02  0.00000000000E+00 0. -1.
         21    1    1    2  502  501  0.28348035807E+02  0.11330996329E+02 -0.14499397390E+01  0.30563130356E+02  0.00000000000E+00 0. -1.
         21    1    1    2  503  502 -0.28348035807E+02 -0.11330996329E+02  0.16934051661E+02  0.34910810898E+02  0.00000000000E+00 0.  1.
</event>
<event>
 4    1  0.5452128E+002  0.2735539E+02  0.7546771E-02  0.1444070E+00
          2   -1    0    0  503    0  0.00000000000E+00  0.00000000000E+00  0.71517158401E+01  0.71517158401E+01  0.00000000000E+00 0.  1.
         -2   -1    0    0    0  501 -0.00000000000E+00 -0.00000000000E+00 -0.11118001109E+03  0.11118001109E+03  0.00000000000E+00 0. -1.
         21    1    1    2  502  501  0.22829479327E+02  0.15070910995E+02 -0.66369826152E+02  0.71786289137E+02  0.00000000000E+00 0. -1.
         21    1    1    2  503  502 -0.22829479327E+02 -0.15070910995E+02 -0.37658469097E+02  0.46545437792E+02  0.00000000000E+00 0.  1.
</event>
<event>
 4    1  0.5452128E+002  0.2775896E+02  0.7546771E-02  0.1440130E+00
          2   -1    0    0  502    0  0.00000000000E+00  0.00000000000E+00  0.10305448590E+04  0.10305448590E+04  0.00000000000E+00 0.  1.
         -2   -1    0    0    0  501 -0.00000000000E+00 -0.00000000000E+00 -0.75263064240E+00  0.75263064240E+00  0.00000000000E+00 0. -1.
         21    1    1    2  502  503  0.85820629499E+01 -0.26399020391E+02  0.47324891318E+03  0.47406233124E+03  0.00000000000E+00 0. -1.
         21    1    1    2  503  501 -0.85820629499E+01  0.26399020391E+02  0.55654331518E+03  0.55723515839E+03  0.00000000000E+00 0.  1.
</event>
<event>
 4    1  0.5452128E+002  0.2238789E+02  0.7546771E-02  0.1500331E+00
          2   -1    0    0  502    0  0.00000000000E+00  0.00000000000E+00  0.52568856342E+02  0.52568856342E+02  0.00000000000E+00 0.  1.
         -2   -1    0    0    0  501 -0.00000000000E+00 -0.00000000000E+00 -0.15196220197E+02  0.15196220197E+02  0.00000000000E+00 0. -1.
         21    1    1    2  502  503  0.14487308165E+01  0.22340964785E+02  0.39367841171E+02  0.45288458209E+02  0.00000000000E+00 0.  1.
         21    1    1    2  503  501 -0.14487308165E+01 -0.22340964785E+02 -0.19952050261E+01  0.22476618331E+02  0.00000000000E+00 0. -1.
</event>
<event>
 4    1  0.5452128E+002  0.4334803E+02  0.7546771E-02  0.1329910E+00
          2   -1    0    0  502    0  0.00000000000E+00  0.00000000000E+00  0.20322369252E+04  0.20322369252E+04  0.00000000000E+00 0.  1.
         -2   -1    0    0    0  501 -0.00000000000E+00 -0.00000000000E+00 -0.92546537317E+00  0.92546537317E+00  0.00000000000E+00 0. -1.
         21    1    1    2  502  503 -0.17545709407E+02 -0.39638362469E+02  0.10463374485E+04  0.10472349822E+04  0.00000000000E+00 0.  1.
         21    1    1    2  503  501  0.17545709407E+02  0.39638362469E+02  0.98497401132E+03  0.98592740842E+03  0.00000000000E+00 0. -1.
</event>
<event>
 4    1  0.5452128E+002  0.2268722E+02  0.7546771E-02  0.1496464E+00
          2   -1    0    0  503    0  0.00000000000E+00  0.00000000000E+00  0.11172497629E+04  0.11172497629E+04  0.00000000000E+00 0.  1.
         -2   -1    0    0    0  501 -0.00000000000E+00 -0.00000000000E+00 -0.10406813858E+01  0.10406813858E+01  0.00000000000E+00 0. -1.
         21    1    1    2  502  501 -0.21041900357E+02  0.84822356710E+01  0.14068274423E+03  0.14250033128E+03  0.00000000000E+00 0. -1.
         21    1    1    2  503  502  0.21041900357E+02 -0.84822356710E+01  0.97552633730E+03  0.97579011301E+03  0.00000000000E+00 0.  1.
</event>
<event>
 4    1  0.5452128E+002  0.6690549E+02  0.7546771E-02  0.1238018E+00
          2   -1    0    0  502    0  0.00000000000E+00  0.00000000000E+00  0.45030939059E+02  0.45030939059E+02  0.00000000000E+00 0.  1.
         -2   -1    0    0    0  501 -0.00000000000E+00 -0.00000000000E+00 -0.10445695928E+03  0.10445695928E+03  0.00000000000E+00 0. -1.
         21    1    1    2  502  503  0.50284359743E+02 -0.44134203118E+02 -0.13277050842E+02  0.68210151728E+02  0.00000000000E+00 0.  1.
         21    1    1    2  503  501 -0.50284359743E+02  0.44134203118E+02 -0.46148969381E+02  0.81277746614E+02  0.00000000000E+00 0. -1.
</event>
<event>
 4    1  0.5452128E+002  0.3359832E+02  0.7546771E-02  0.1390694E+00
          2   -1    0    0  502    0  0.00000000000E+00  0.00000000000E+00  0.10322770913E+02  0.10322770913E+02  0.00000000000E+00 0.  1.
         -2   -1    0    0    0  501 -0.00000000000E+00 -0.00000000000E+00 -0.13092267980E+03  0.13092267980E+03  0.00000000000E+00 0. -1.
         21    1    1    2  502  503 -0.33587770699E+02 -0.84183317273E+00 -0.88964056621E+02  0.95097057758E+02  0.00000000000E+00 0. -1.
         21    1    1    2  503  501  0.33587770699E+02  0.84183317273E+00 -0.31635852264E+02  0.46148392953E+02  0.00000000000E+00 0.  1.
</event>
<event>
 4    1  0.5452128E+002  0.3005688E+02  0.7546771E-02  0.1419103E+00
          2   -1    0    0  502    0  0.00000000000E+00  0.00000000000E+00  0.47293969504E+03  0.47293969504E+03  0.00000000000E+00 0. -1.
         -2   -1    0    0    0  501 -0.00000000000E+00 -0.00000000000E+00 -0.19175927132E+01  0.19175927132E+01  0.00000000000E+00 0.  1.
         21    1    1    2  502  503  0.24422120212E+02  0.17520731595E+02  0.22078292684E+03  0.22281947126E+03  0.00000000000E+00 0. -1.
         21    1    1    2  503  501 -0.24422120212E+02 -0.17520731595E+02  0.25023917549E+03  0.25203781649E+03  0.00000000000E+00 0.  1.
</event>
<event>
 4    1  0.5452128E+002  0.2782894E+02  0.7546771E-02  0.1439454E+00
          2   -1    0    0  502    0  0.00000000000E+00  0.00000000000E+00  0.15237705060E+04  0.15237705060E+04  0.00000000000E+00 0.  1.
         -2   -1    0    0    0  501 -0.00000000000E+00 -0.00000000000E+00 -0.50871573801E+00  0.50871573801E+00  0.00000000000E+00 0. -1.
         21    1    1    2  502  503 -0.21391571510E+02 -0.17800298860E+02  0.78479490807E+03  0.78528816221E+03  0.00000000000E+00 0. -1.
         21    1    1    2  503  501  0.21391571510E+02  0.17800298860E+02  0.73846688220E+03  0.73899105954E+03  0.00000000000E+00 0.  1.
</event>
<event>
 4    1  0.5452128E+002  0.3063832E+02  0.7546771E-02  0.1414129E+00
          2   -1    0    0  503    0  0.00000000000E+00  0.00000000000E+00  0.61599671065E+03  0.61599671065E+03  0.00000000000E+00 0.  1.
         -2   -1    0    0    0  501 -0.00000000000E+00 -0.00000000000E+00 -0.15338146939E+01  0.15338146939E+01  0.00000000000E+00 0. -1.
         21    1    1    2  502  501 -0.23315453140E-01  0.30638315038E+02  0.33207733360E+03  0.33348772449E+03  0.00000000000E+00 0.  1.
         21    1    1    2  503  502  0.23315453140E-01 -0.30638315038E+02  0.28238556235E+03  0.28404280085E+03  0.00000000000E+00 0. -1.
</event>
<event>
 4    1  0.5452128E+002  0.2877684E+02  0.7546771E-02  0.1430532E+00
          2   -1    0    0  502    0  0.00000000000E+00  0.00000000000E+00  0.24760366536E+03  0.24760366536E+03  0.00000000000E+00 0.  1.
         -2   -1    0    0    0  501 -0.00000000000E+00 -0.00000000000E+00 -0.60336659669E+01  0.60336659669E+01  0.00000000000E+00 0. -1.
         21    1    1    2  502  503  0.13304866211E+02 -0.25516405121E+02  0.20544975863E+03  0.20745531980E+03  0.00000000000E+00 0.  1.
         21    1    1    2  503  501 -0.13304866211E+02  0.25516405121E+02  0.36120240761E+02  0.46182011518E+02  0.00000000000E+00 0. -1.
</event>
<event>
 4    1  0.5452128E+002  0.2140728E+02  0.7546771E-02  0.1513529E+00
          2   -1    0    0  503    0  0.00000000000E+00  0.00000000000E+00  0.14994850695E+02  0.14994850695E+02  0.00000000000E+00 0. -1.
         -2   -1    0    0    0  501 -0.00000000000E+00 -0.00000000000E+00 -0.10567391652E+03  0.10567391652E+03  0.00000000000E+00 0.  1.
         21    1    1    2  502  501 -0.14062440092E+02  0.16140616066E+02 -0.96206468761E+02  0.98559405132E+02  0.00000000000E+00 0.  1.
         21    1    1    2  503  502  0.14062440092E+02 -0.16140616066E+02  0.55274029395E+01  0.22109362080E+02  0.00000000000E+00 0. -1.
</event>
<event>
 4    1  0.5452128E+002  0.3464324E+02  0.7546771E-02  0.1383089E+00
          2   -1    0    0  502    0  0.00000000000E+00  0.00000000000E+00  0.20801261680E+04  0.20801261680E+04  0.00000000000E+00 0. -1.
         -2   -1    0    0    0  501 -0.00000000000E+00 -0.00000000000E+00 -0.95239659495E+00  0.95239659495E+00  0.00000000000E+00 0.  1.
         21    1    1    2  502  503  0.20191926131E+02 -0.28150310375E+02  0.16928929350E+04  0.16932473663E+04  0.00000000000E+00 0. -1.
         21    1    1    2  503  501 -0.20191926131E+02  0.28150310375E+02  0.38628083634E+03  0.38783119831E+03  0.00000000000E+00 0.  1.
</event>
<event>
 4    1  0.5452128E+002  0.2362357E+02  0.7546771E-02  0.1484813E+00
          2   -1    0    0  503    0  0.00000000000E+00  0.00000000000E+00  0.81891323135E+03  0.81891323135E+03  0.00000000000E+00 0.  1.
         -2   -1    0    0    0  501 -0.00000000000E+00 -0.00000000000E+00 -0.75423269552E+00  0.75423269552E+00  0.00000000000E+00 0. -1.
         21    1    1    2  502  501  0.78913615683E+01 -0.22266558959E+02  0.28179407644E+03  0.28278255737E+03  0.00000000000E+00 0. -1.
         21    1    1    2  503  502 -0.78913615683E+01  0.22266558959E+02  0.53636492221E+03  0.53688490667E+03  0.00000000000E+00 0.  1.
</event>
<event>
 4    1  0.5452128E+002  0.2741240E+02  0.7546771E-02  0.1443509E+00
          2   -1    0    0  502    0  0.00000000000E+00  0.00000000000E+00  0.14103498404E+04  0.14103498404E+04  0.00000000000E+00 0.  1.
         -2   -1    0    0    0  501 -0.00000000000E+00 -0.00000000000E+00 -0.15333108657E+01  0.15333108657E+01  0.00000000000E+00 0. -1.
         21    1    1    2  502  503  0.24752720723E+02  0.11778899801E+02  0.12746562339E+04  0.12749509615E+04  0.00000000000E+00 0.  1.
         21    1    1    2  503  501 -0.24752720723E+02 -0.11778899801E+02  0.13416029567E+03  0.13693218978E+03  0.00000000000E+00 0. -1.
</event>
<event>
 4    1  0.5452128E+002  0.2001259E+02  0.7546771E-02  0.1533843E+00
          2   -1    0    0  503    0  0.00000000000E+00  0.00000000000E+00  0.23168755630E+03  0.23168755630E+03  0.00000000000E+00 0.  1.
         -2   -1    0    0    0  501 -0.00000000000E+00 -0.00000000000E+00 -0.20155829939E+02  0.20155829939E+02  0.00000000000E+00 0. -1.
         21    1    1    2  502  501 -0.18488312278E+02 -0.76606783510E+01 -0.14635056214E+02  0.24792913384E+02  0.00000000000E+00 0. -1.
         21    1    1    2  503  502  0.18488312278E+02  0.76606783510E+01  0.22616678258E+03  0.22705047286E+03  0.00000000000E+00 0.  1.
</event>
<event>
 4    1  0.5452128E+002  0.3649470E+02  0.7546771E-02  0.1370349E+00
          2   -1    0    0  503    0  0.00000000000E+00  0.00000000000E+00  0.23697815124E+03  0.23697815124E+03  0.00000000000E+00 0.  1.
         -2   -1    0    0    0  501 -0.00000000000E+00 -0.00000000000E+00 -0.68131829536E+01  0.68131829536E+01  0.00000000000E+00 0. -1.
         21    1    1    2  502  501 -0.35692852296E+02  0.76081024957E+01  0.64075264639E+02  0.73739422748E+02  0.00000000000E+00 0. -1.
         21    1    1    2  503  502  0.35692852296E+02 -0.76081024957E+01  0.16608970364E+03  0.17005191144E+03  0.00000000000E+00 0.  1.
</event>
<event>
 4    1  0.5452128E+002  0.2371496E+02  0.7546771E-02  0.1483710E+00
          2   -1    0    0  503    0  0.00000000000E+00  0.00000000000E+00  0.63389578536E+00  0.63389578536E+00  0.00000000000E+00 0. -1.
         -2   -1    0    0    0  501 -0.00000000000E+00 -0.00000000000E+00 -0.92588390020E+03  0.92588390020E+03  0.00000000000E+00 0.  1.
         21    1    1    2  502  501 -0.20465756727E+02 -0.11981330051E+02 -0.55730266002E+03  0.55780700455E+03  0.00000000000E+00 0.  1.
         21    1    1    2  503  502  0.20465756727E+02  0.11981330051E+02 -0.36794734440E+03  0.36871079143E+03  0.00000000000E+00 0. -1.
</event>
<event>
 4    1  0.5452128E+002  0.2443035E+02  0.7546771E-02  0.1475278E+00
          2   -1    0    0  503    0  0.00000000000E+00  0.00000000000E+00  0.14834272470E+04  0.14834272470E+04  0.00000000000E+00 0.  1.
         -2   -1    0    0    0  501 -0.00000000000E+00 -0.00000000000E+00 -0.10534109232E+01  0.10534109232E+01  0.00000000000E+00 0. -1.
         21    1    1    2  502  501  0.24312693092E+02  0.23947760143E+01  0.15766144916E+03  0.15954301786E+03  0.00000000000E+00 0. -1.
         21    1    1    2  503  502 -0.24312693092E+02 -0.23947760143E+01  0.13247123869E+04  0.13249376400E+04  0.00000000000E+00 0.  1.
</event>
<event>
 4    1  0.5452128E+002  0.3662017E+02  0.7546771E-02  0.1369517E+00
          2   -1    0    0  502    0  0.00000000000E+00  0.00000000000E+00  0.12799392840E+04  0.12799392840E+04  0.00000000000E+00 0. -1.
         -2   -1    0    0    0  501 -0.00000000000E+00 -0.00000000000E+00 -0.37827560976E+01  0.37827560976E+01  0.00000000000E+00 0.  1.
         21    1    1    2  502  503 -0.36477771052E+02  0.32263493973E+01  0.11838577110E+04  0.11844239600E+04  0.00000000000E+00 0. -1.
         21    1    1    2  503  501  0.36477771052E+02 -0.32263493973E+01  0.92298816935E+02  0.99298080137E+02  0.00000000000E+00 0.  1.
</event>
<event>
 4    1  0.5452128E+002  0.3247288E+02  0.7546771E-02  0.1399257E+00
          2   -1    0    0  503    0  0.00000000000E+00  0.00000000000E+00  0.18957469067E+03  0.18957469067E+03  0.00000000000E+00 0. -1.
         -2   -1    0    0    0  501 -0.00000000000E+00 -0.00000000000E+00 -0.57363456311E+01  0.57363456311E+01  0.00000000000E+00 0.  1.
         21    1    1    2  502  501 -0.31251022630E+02  0.88239246810E+01  0.10892510162E+03  0.11366250844E+03  0.00000000000E+00 0.  1.
         21    1    1    2  503  502  0.31251022630E+02 -0.88239246810E+01  0.74913243420E+02  0.81648527861E+02  0.00000000000E+00 0. -1.
</event>
<event>
 4    1  0.5452128E+002  0.4054084E+02  0.7546771E-02  0.1345345E+00
          2   -1    0    0  502    0  0.00000000000E+00  0.00000000000E+00  0.10957276922E+04  0.10957276922E+04  0.00000000000E+00 0.  1.
         -2   -1    0    0    0  501 -0.00000000000E+00 -0.00000000000E+00 -0.23048908078E+01  0.23048908078E+01  0.00000000000E+00 0. -1.
         21    1    1    2  502  503 -0.77635917649E+01  0.39790535452E+02  0.22226998639E+03  0.22593695341E+03  0.00000000000E+00 0. -1.
         21    1    1    2  503  501  0.77635917649E+01 -0.39790535452E+02  0.87115281505E+03  0.87209562964E+03  0.00000000000E+00 0.  1.
</event>
<event>
 4    1  0.5452128E+002  0.1361009E+03  0.7546771E-02  0.1112782E+00
          2   -1    0    0  503    0  0.00000000000E+00  0.00000000000E+00  0.29790514546E+03  0.29790514546E+03  0.00000000000E+00 0. -1.
         -2   -1    0    0    0  501 -0.00000000000E+00 -0.00000000000E+00 -0.62361033578E+02  0.62361033578E+02  0.00000000000E+00 0.  1.
         21    1    1    2  502  501  0.53233513148E+02  0.12525830223E+03  0.10804028365E+03  0.17377040050E+03  0.00000000000E+00 0. -1.
         21    1    1    2  503  502 -0.53233513148E+02 -0.12525830223E+03  0.12750382823E+03  0.18649577854E+03  0.00000000000E+00 0.  1.
</event>
<event>
 4    1  0.5452128E+002  0.2403748E+02  0.7546771E-02  0.1479866E+00
          2   -1    0    0  503    0  0.00000000000E+00  0.00000000000E+00  0.43201134053E+03  0.43201134053E+03  0.00000000000E+00 0. -1.
         -2   -1    0    0    0  501 -0.00000000000E+00 -0.00000000000E+00 -0.14277901896E+01  0.14277901896E+01  0.00000000000E+00 0.  1.
         21    1    1    2  502  501  0.45191439194E+01 -0.23608854126E+02  0.26980062086E+03  0.27086929629E+03  0.00000000000E+00 0. -1.
         21    1    1    2  503  502 -0.45191439194E+01  0.23608854126E+02  0.16078292948E+03  0.16256983443E+03  0.00000000000E+00 0.  1.
</event>
<event>
 4    1  0.5452128E+002  0.4823607E+02  0.7546771E-02  0.1306007E+00
          2   -1    0    0  502    0  0.00000000000E+00  0.00000000000E+00  0.11457443066E+03  0.11457443066E+03  0.00000000000E+00 0. -1.
         -2   -1    0    0    0  501 -0.00000000000E+00 -0.00000000000E+00 -0.63464309183E+02  0.63464309183E+02  0.00000000000E+00 0.  1.
         21    1    1    2  502  503  0.48991207329E+01  0.47986633976E+02  0.98963244904E+02  0.11009288018E+03  0.00000000000E+00 0. -1.
         21    1    1    2  503  501 -0.48991207329E+01 -0.47986633976E+02 -0.47853123425E+02  0.67945859666E+02  0.00000000000E+00 0.  1.
</event>
<event>
 4    1  0.5452128E+002  0.2648123E+02  0.7546771E-02  0.1452890E+00
          2   -1    0    0  503    0  0.00000000000E+00  0.00000000000E+00  0.66186596126E+03  0.66186596126E+03  0.00000000000E+00 0. -1.
         -2   -1    0    0    0  501 -0.00000000000E+00 -0.00000000000E+00 -0.11312210745E+01  0.11312210745E+01  0.00000000000E+00 0.  1.
         21    1    1    2  502  501 -0.23838607573E+02  0.11531547376E+02  0.24690493858E+03  0.24832097070E+03  0.00000000000E+00 0.  1.
         21    1    1    2  503  502  0.23838607573E+02 -0.11531547376E+02  0.41382980161E+03  0.41467621164E+03  0.00000000000E+00 0. -1.
</event>
<event>
 4    1  0.5452128E+002  0.2238296E+02  0.7546771E-02  0.1500395E+00
          2   -1    0    0  503    0  0.00000000000E+00  0.00000000000E+00  0.19970947034E+03  0.19970947034E+03  0.00000000000E+00 0. -1.
         -2   -1    0    0    0  501 -0.00000000000E+00 -0.00000000000E+00 -0.60703163008E+01  0.60703163008E+01  0.00000000000E+00 0.  1.
         21    1    1    2  502  501 -0.17580902151E+02 -0.13853115933E+02  0.18007103381E+02  0.28727212076E+02  0.00000000000E+00 0.  1.
         21    1    1    2  503  502  0.17580902151E+02  0.13853115933E+02  0.17563205066E+03  0.17705257457E+03  0.00000000000E+00 0. -1.
</event>
<event>
 4    1  0.5452128E+002  0.2632754E+02  0.7546771E-02  0.1454483E+00
          2   -1    0    0  502    0  0.00000000000E+00  0.00000000000E+00  0.66835024124E+02  0.66835024124E+02  0.00000000000E+00 0. -1.
         -2   -1    0    0    0  501 -0.00000000000E+00 -0.00000000000E+00 -0.12012670657E+02  0.12012670657E+02  0.00000000000E+00 0.  1.
         21    1    1    2  502  503  0.37481595950E+01 -0.26059368672E+02  0.41985734198E+02  0.49557454253E+02  0.00000000000E+00 0. -1.
         21    1    1    2  503  501 -0.37481595950E+01  0.26059368672E+02  0.12836619270E+02  0.29290240528E+02  0.00000000000E+00 0.  1.
</event>
<event>
 4    1  0.5452128E+002  0.2758271E+02  0.7546771E-02  0.1441841E+00
          2   -1    0    0  502    0  0.00000000000E+00  0.00000000000E+00  0.11296544836E+04  0.11296544836E+04  0.00000000000E+00 0.  1.
         -2   -1    0    0    0  501 -0.00000000000E+00 -0.00000000000E+00 -0.30261889906E+02  0.30261889906E+02  0.00000000000E+00 0. -1.
         21    1    1    2  502  503  0.24287062551E+02 -0.13074572548E+02  0.11231646195E+04  0.11235032569E+04  0.00000000000E+00 0.  1.
         21    1    1    2  503  501 -0.24287062551E+02  0.13074572548E+02 -0.23772025744E+02  0.36413116629E+02  0.00000000000E+00 0. -1.
</event>
<event>
 4    1  0.5452128E+002  0.2076523E+02  0.7546771E-02  0.1522643E+00
          2   -1    0    0  503    0  0.00000000000E+00  0.00000000000E+00  0.23524900413E+03  0.23524900413E+03  0.00000000000E+00 0. -1.
         -2   -1    0    0    0  501 -0.00000000000E+00 -0.00000000000E+00 -0.30136167767E+02  0.30136167767E+02  0.00000000000E+00 0.  1.
         21    1    1    2  502  501  0.20718453945E+02 -0.13929902923E+01 -0.26037583675E+02  0.33303911474E+02  0.00000000000E+00 0.  1.
         21    1    1    2  503  502 -0.20718453945E+02  0.13929902923E+01  0.23115042004E+03  0.23208126043E+03  0.00000000000E+00 0. -1.
</event>
<event>
 4    1  0.5452128E+002  0.2311563E+02  0.7546771E-02  0.1491051E+00
          2   -1    0    0  502    0  0.00000000000E+00  0.00000000000E+00  0.10537227940E+03  0.10537227940E+03  0.00000000000E+00 0.  1.
         -2   -1    0    0    0  501 -0.00000000000E+00 -0.00000000000E+00 -0.51046289433E+01  0.51046289433E+01  0.00000000000E+00 0. -1.
         21    1    1    2  502  503 -0.74384513610E+01  0.21886111928E+02  0.45643778381E+02  0.51163336080E+02  0.00000000000E+00 0.  1.
         21    1    1    2  503  501  0.74384513610E+01 -0.21886111928E+02  0.54623872073E+02  0.59313572260E+02  0.00000000000E+00 0. -1.
</event>
<event>
 4    1  0.5452128E+002  0.2135698E+02  0.7546771E-02  0.1514229E+00
          2   -1    0    0  502    0  0.00000000000E+00  0.00000000000E+00  0.52321305184E+03  0.52321305184E+03  0.00000000000E+00 0.  1.
         -2   -1    0    0    0  501 -0.00000000000E+00 -0.00000000000E+00 -0.99466935282E+00  0.99466935282E+00  0.00000000000E+00 0. -1.
         21    1    1    2  502  503  0.18644245839E+02 -0.10416937803E+02  0.16897686384E+03  0.17032117017E+03  0.00000000000E+00 0.  1.
         21    1    1    2  503  501 -0.18644245839E+02  0.10416937803E+02  0.35324151865E+03  0.35388655102E+03  0.00000000000E+00 0. -1.
</event>
<event>
 4    1  0.5452128E+002  0.2170853E+02  0.7546771E-02  0.1509385E+00
          2   -1    0    0  503    0  0.00000000000E+00  0.00000000000E+00  0.16970233656E+01  0.16970233656E+01  0.00000000000E+00 0. -1.
         -2   -1    0    0    0  501 -0.00000000000E+00 -0.00000000000E+00 -0.42232429807E+03  0.42232429807E+03  0.00000000000E+00 0.  1.
         21    1    1    2  502  501  0.11274398964E+02  0.18551232003E+02 -0.33438114181E+03  0.33508507618E+03  0.00000000000E+00 0.  1.
         21    1    1    2  503  502 -0.11274398964E+02 -0.18551232003E+02 -0.86246132895E+02  0.88936245256E+02  0.00000000000E+00 0. -1.
</event>
<event>
 4    1  0.5452128E+002  0.2400853E+02  0.7546771E-02  0.1480208E+00
          2   -1    0    0  502    0  0.00000000000E+00  0.00000000000E+00  0.56841695612E+02  0.56841695612E+02  0.00000000000E+00 0.  1.
         -2   -1    0    0    0  501 -0.00000000000E+00 -0.00000000000E+00 -0.77297770306E+02  0.77297770306E+02  0.00000000000E+00 0. -1.
         21    1    1    2  502  503  0.19004202181E+02 -0.14671400043E+02  0.52287683575E+02  0.57536175866E+02  0.00000000000E+00 0.  1.
         21    1    1    2  503  501 -0.19004202181E+02  0.14671400043E+02 -0.72743758268E+02  0.76603290051E+02  0.00000000000E+00 0. -1.
</event>
<event>
 4    1  0.5452128E+002  0.2624040E+02  0.7546771E-02  0.1455391E+00
          2   -1    0    0  502    0  0.00000000000E+00  0.00000000000E+00  0.18779813317E+04  0.18779813317E+04  0.00000000000E+00 0.  1.
         -2   -1    0    0    0  501 -0.00000000000E+00 -0.00000000000E+00 -0.37434314863E+00  0.37434314863E+00  0.00000000000E+00 0. -1.
         21    1    1    2  502  503  0.23948956474E+02  0.10724088340E+02  0.80415110302E+03  0.80457911673E+03  0.00000000000E+00 0. -1.
         21    1    1    2  503  501 -0.23948956474E+02 -0.10724088340E+02  0.10734558855E+04  0.10737765581E+04  0.00000000000E+00 0.  1.
</event>
<event>
 4    1  0.5452128E+002  0.2508464E+02  0.7546771E-02  0.1467859E+00
          2   -1    0    0  503    0  0.00000000000E+00  0.00000000000E+00  0.21644525992E+03  0.21644525992E+03  0.00000000000E+00 0. -1.
         -2   -1    0    0    0  501 -0.00000000000E+00 -0.00000000000E+00 -0.41592083194E+01  0.41592083194E+01  0.00000000000E+00 0.  1.
         21    1    1    2  502  501  0.21306893740E+02 -0.13238406489E+02  0.45624126684E+02  0.52065344164E+02  0.00000000000E+00 0.  1.
         21    1    1    2  503  502 -0.21306893740E+02  0.13238406489E+02  0.16666192491E+03  0.16853912407E+03  0.00000000000E+00 0. -1.
</event>
<event>
 4    1  0.5452128E+002  0.2000389E+02  0.7546771E-02  0.1533976E+00
          2   -1    0    0  503    0  0.00000000000E+00  0.00000000000E+00  0.42985407630E+00  0.42985407630E+00  0.00000000000E+00 0.  1.
         -2   -1    0    0    0  501 -0.00000000000E+00 -0.00000000000E+00 -0.99254711116E+03  0.99254711116E+03  0.00000000000E+00 0. -1.
         21    1    1    2  502  501  0.15531343460E+02 -0.12606863808E+02 -0.61978242055E+03  0.62010515598E+03  0.00000000000E+00 0. -1.
         21    1    1    2  503  502 -0.15531343460E+02  0.12606863808E+02 -0.37233483653E+03  0.37287180926E+03  0.00000000000E+00 0.  1.
</event>
<event>
 4    1  0.5452128E+002  0.5058188E+02  0.7546771E-02  0.1295669E+00
          2   -1    0    0  503    0  0.00000000000E+00  0.00000000000E+00  0.69433422864E+03  0.69433422864E+03  0.00000000000E+00 0. -1.
         -2   -1    0    0    0  501 -0.00000000000E+00 -0.00000000000E+00 -0.66395590455E+01  0.66395590455E+01  0.00000000000E+00 0.  1.
         21    1    1    2  502  501  0.18515053588E+02 -0.47071423303E+02  0.11003974101E+03  0.12110850797E+03  0.00000000000E+00 0.  1.
         21    1    1    2  503  502 -0.18515053588E+02  0.47071423303E+02  0.57765492859E+03  0.57986527972E+03  0.00000000000E+00 0. -1.
</event>
<event>
 4    1  0.5452128E+002  0.2017924E+02  0.7546771E-02  0.1531313E+00
          2   -1    0    0  503    0  0.00000000000E+00  0.00000000000E+00  0.46905246068E+02  0.46905246068E+02  0.00000000000E+00 0.  1.
         -2   -1    0    0    0  501 -0.00000000000E+00 -0.00000000000E+00 -0.88989219056E+01  0.88989219056E+01  0.00000000000E+00 0. -1.
         21    1    1    2  502  501 -0.11434716214E+01 -0.20146818324E+02  0.14640526197E+02  0.24930840805E+02  0.00000000000E+00 0. -1.
         21    1    1    2  503  502  0.11434716214E+01  0.20146818324E+02  0.23365797966E+02  0.30873327169E+02  0.00000000000E+00 0.  1.
</event>
<event>
 4    1  0.5452128E+002  0.2044636E+02  0.7546771E-02  0.1527318E+00
          2   -1    0    0  503    0  0.00000000000E+00  0.00000000000E+00  0.96876224448E+03  0.96876224448E+03  0.00000000000E+00 0.  1.
         -2   -1    0    0    0  501 -0.00000000000E+00 -0.00000000000E+00 -0.71352518797E+00  0.71352518797E+00  0.00000000000E+00 0. -1.
         21    1    1    2  502  501  0.16080525466E+02  0.12628163962E+02  0.17929093297E+03  0.18045302012E+03  0.00000000000E+00 0. -1.
         21    1    1    2  503  502 -0.16080525466E+02 -0.12628163962E+02  0.78875778633E+03  0.78902274955E+03  0.00000000000E+00 0.  1.
</event>
<event>
 4    1  0.5452128E+002  0.2954228E+02  0.7546771E-02  0.1423616E+00
          2   -1    0    0  503    0  0.00000000000E+00  0.00000000000E+00  0.10548070391E+04  0.10548070391E+04  0.00000000000E+00 0. -1.
         -2   -1    0    0    0  501 -0.00000000000E+00 -0.00000000000E+00 -0.14048140381E+01  0.14048140381E+01  0.00000000000E+00 0.  1.
         21    1    1    2  502  501  0.16708570625E+02  0.24363286709E+02  0.18812544381E+03  0.19043090264E+03  0.00000000000E+00 0.  1.
         21    1    1    2  503  502 -0.16708570625E+02 -0.24363286709E+02  0.86527678126E+03  0.86578095050E+03  0.00000000000E+00 0. -1.
</event>
<event>
 4    1  0.5452128E+002  0.2099882E+02  0.7546771E-02  0.1519282E+00
          2   -1    0    0  503    0  0.00000000000E+00  0.00000000000E+00  0.15819487514E+04  0.15819487514E+04  0.00000000000E+00 0. -1.
         -2   -1    0    0    0  501 -0.00000000000E+00 -0.00000000000E+00 -0.27991062095E+01  0.27991062095E+01  0.00000000000E+00 0.  1.
         21    1    1    2  502  501 -0.89470608321E+01 -0.18997381049E+02  0.37688088304E+02  0.43143277393E+02  0.00000000000E+00 0.  1.
         21    1    1    2  503  502  0.89470608321E+01  0.18997381049E+02  0.15414615569E+04  0.15416045802E+04  0.00000000000E+00 0. -1.
</event>
<event>
 4    1  0.5452128E+002  0.2023952E+02  0.7546771E-02  0.1530405E+00
          2   -1    0    0  502    0  0.00000000000E+00  0.00000000000E+00  0.56543193890E+01  0.56543193890E+01  0.00000000000E+00 0. -1.
         -2   -1    0    0    0  501 -0.00000000000E+00 -0.00000000000E+00 -0.87568338034E+02  0.87568338034E+02  0.00000000000E+00 0.  1.
         21    1    1    2  502  503  0.44172900678E+01 -0.19751595649E+02 -0.21587692785E+02  0.29591662036E+02  0.00000000000E+00 0. -1.
         21    1    1    2  503  501 -0.44172900678E+01  0.19751595649E+02 -0.60326325860E+02  0.63630995388E+02  0.00000000000E+00 0.  1.
</event>
<event>
 4    1  0.5452128E+002  0.3134281E+02  0.7546771E-02  0.1408276E+00
          2   -1    0    0  503    0  0.00000000000E+00  0.00000000000E+00  0.97474572288E+01  0.97474572288E+01  0.00000000000E+00 0. -1.
         -2   -1    0    0    0  501 -0.00000000000E+00 -0.00000000000E+00 -0.10116547611E+03  0.10116547611E+03  0.00000000000E+00 0.  1.
         21    1    1    2  502  501  0.30590957328E+02  0.68238681903E+01 -0.49121686591E+02  0.58269305306E+02  0.00000000000E+00 0.  1.
         21    1    1    2  503  502 -0.30590957328E+02 -0.68238681903E+01 -0.42296332293E+02  0.52643628035E+02  0.00000000000E+00 0. -1.
</event>
<event>
 4    1  0.5452128E+002  0.2194747E+02  0.7546771E-02  0.1506155E+00
          2   -1    0    0  503    0  0.00000000000E+00  0.00000000000E+00  0.12683976695E+03  0.12683976695E+03  0.00000000000E+00 0.  1.
         -2   -1    0    0    0  501 -0.00000000000E+00 -0.00000000000E+00 -0.38261228316E+01  0.38261228316E+01  0.00000000000E+00 0. -1.
         21    1    1    2  502  501  0.21943835348E+02 -0.39930046888E+00  0.55869540622E+02  0.60025802119E+02  0.00000000000E+00 0. -1.
         21    1    1    2  503  502 -0.21943835348E+02  0.39930046888E+00  0.67144103491E+02  0.70640087658E+02  0.00000000000E+00 0.  1.
</event>
<event>
 4    1  0.5452128E+002  0.2042786E+02  0.7546771E-02  0.1527592E+00
          2   -1    0    0  502    0  0.00000000000E+00  0.00000000000E+00  0.86747330497E+03  0.86747330497E+03  0.00000000000E+00 0. -1.
         -2   -1    0    0    0  501 -0.00000000000E+00 -0.00000000000E+00 -0.21040782684E+01  0.21040782684E+01  0.00000000000E+00 0.  1.
         21    1    1    2  502  503 -0.14784213570E+01  0.20374291552E+02  0.81455011128E+03  0.81480622314E+03  0.00000000000E+00 0. -1.
         21    1    1    2  503  501  0.14784213570E+01 -0.20374291552E+02  0.50819115418E+02  0.54771160092E+02  0.00000000000E+00 0.  1.
</event>
<event>
 4    1  0.5452128E+002  0.2147692E+02  0.7546771E-02  0.1512563E+00
          2   -1    0    0  503    0  0.00000000000E+00  0.00000000000E+00  0.29814388802E+01  0.29814388802E+01  0.00000000000E+00 0. -1.
         -2   -1    0    0    0  501 -0.00000000000E+00 -0.00000000000E+00 -0.18615546914E+03  0.18615546914E+03  0.00000000000E+00 0.  1.
         21    1    1    2  502  501  0.13475615162E+02  0.16723216803E+02 -0.13045463525E+03  0.13221070321E+03  0.00000000000E+00 0.  1.
         21    1    1    2  503  502 -0.13475615162E+02 -0.16723216803E+02 -0.52719395009E+02  0.56926204812E+02  0.00000000000E+00 0. -1.
</event>
<event>
 4    1  0.5452128E+002  0.2014068E+02  0.7546771E-02  0.1531896E+00
          2   -1    0    0  503    0  0.00000000000E+00  0.00000000000E+00  0.75200535954E+01  0.75200535954E+01  0.00000000000E+00 0. -1.
         -2   -1    0    0    0  501 -0.00000000000E+00 -0.00000000000E+00 -0.55466570433E+02  0.55466570433E+02  0.00000000000E+00 0.  1.
         21    1    1    2  502  501 -0.20071652366E+02 -0.16660365350E+01 -0.29194491768E+02  0.35467805909E+02  0.00000000000E+00 0.  1.
         21    1    1    2  503  502  0.20071652366E+02  0.16660365350E+01 -0.18752025070E+02  0.27518818119E+02  0.00000000000E+00 0. -1.
</event>
<event>
 4    1  0.5452128E+002  0.2575924E+02  0.7546771E-02  0.1460486E+00
          2   -1    0    0  502    0  0.00000000000E+00  0.00000000000E+00  0.61623598340E+02  0.61623598340E+02  0.00000000000E+00 0. -1.
         -2   -1    0    0    0  501 -0.00000000000E+00 -0.00000000000E+00 -0.14338556256E+02  0.14338556256E+02  0.00000000000E+00 0.  1.
         21    1    1    2  502  503 -0.19216931047E+02  0.17153664975E+02  0.42596763581E+02  0.49779744159E+02  0.00000000000E+00 0. -1.
         21    1    1    2  503  501  0.19216931047E+02 -0.17153664975E+02  0.46882785032E+01  0.26182410437E+02  0.00000000000E+00 0.  1.
</event>
<event>
 4    1  0.5452128E+002  0.2017816E+02  0.7546771E-02  0.1531329E+00
          2   -1    0    0  502    0  0.00000000000E+00  0.00000000000E+00  0.68619451025E+02  0.68619451025E+02  0.00000000000E+00 0.  1.
         -2   -1    0    0    0  501 -0.00000000000E+00 -0.00000000000E+00 -0.68431863881E+01  0.68431863881E+01  0.00000000000E+00 0. -1.
         21    1    1    2  502  503  0.22828677204E+01 -0.20048607463E+02  0.44644460505E+02  0.48992713744E+02  0.00000000000E+00 0.  1.
         21    1    1    2  503  501 -0.22828677204E+01  0.20048607463E+02  0.17131804132E+02  0.26469923669E+02  0.00000000000E+00 0. -1.
</event>
<event>
 4    1  0.5452128E+002  0.2021300E+02  0.7546771E-02  0.1530804E+00
          2   -1    0    0  503    0  0.00000000000E+00  0.00000000000E+00  0.11234151128E+03  0.11234151128E+03  0.00000000000E+00 0.  1.
         -2   -1    0    0    0  501 -0.00000000000E+00 -0.00000000000E+00 -0.93121496249E+01  0.93121496249E+01  0.00000000000E+00 0. -1.
         21    1    1    2  502  501 -0.13425975767E+02 -0.15109886843E+02  0.40286490858E+01  0.20610568143E+02  0.00000000000E+00 0.  1.
         21    1    1    2  503  502  0.13425975767E+02  0.15109886843E+02  0.99000712566E+02  0.10104309276E+03  0.00000000000E+00 0. -1.
</event>
<event>
 4    1  0.5452128E+002  0.2503816E+02  0.7546771E-02  0.1468377E+00
          2   -1    0    0  503    0  0.00000000000E+00  0.00000000000E+00  0.14825797067E+04  0.14825797067E+04  0.00000000000E+00 0. -1.
         -2   -1    0    0    0  501 -0.00000000000E+00 -0.00000000000E+00 -0.45711594133E+00  0.45711594133E+00  0.00000000000E+00 0.  1.
         21    1    1    2  502  501  0.14782196799E+02 -0.20208807650E+02  0.53804154285E+03  0.53862381221E+03  0.00000000000E+00 0.  1.
         21    1    1    2  503  502 -0.14782196799E+02  0.20208807650E+02  0.94408104795E+03  0.94441301047E+03  0.00000000000E+00 0. -1.
</event>
<event>
 4    1  0.5452128E+002  0.2329741E+02  0.7546771E-02  0.1488797E+00
          2   -1    0    0  502    0  0.00000000000E+00  0.00000000000E+00  0.68743224744E+01  0.68743224744E+01  0.00000000000E+00 0.  1.
         -2   -1    0    0    0  501 -0.00000000000E+00 -0.00000000000E+00 -0.14088689745E+03  0.14088689745E+03  0.00000000000E+00 0. -1.
         21    1    1    2  502  503 -0.58999468672E+01 -0.22537968106E+02 -0.18022916947E+02  0.29454964177E+02  0.00000000000E+00 0.  1.
         21    1    1    2  503  501  0.58999468672E+01  0.22537968106E+02 -0.11598965802E+03  0.11830625574E+03  0.00000000000E+00 0. -1.
</event>
<event>
 4    1  0.5452128E+002  0.2277308E+02  0.7546771E-02  0.1495367E+00
          2   -1    0    0  502    0  0.00000000000E+00  0.00000000000E+00  0.18291212902E+04  0.18291212902E+04  0.00000000000E+00 0. -1.
         -2   -1    0    0    0  501 -0.00000000000E+00 -0.00000000000E+00 -0.39545347296E+00  0.39545347296E+00  0.00000000000E+00 0.  1.
         21    1    1    2  502  503 -0.22687069320E+02 -0.19774376431E+01  0.14010126761E+04  0.14011977490E+04  0.00000000000E+00 0. -1.
         21    1    1    2  503  501  0.22687069320E+02  0.19774376431E+01  0.42771316070E+03  0.42831899468E+03  0.00000000000E+00 0.  1.
</event>
<event>
 4    1  0.5452128E+002  0.2820267E+02  0.7546771E-02  0.1435887E+00
          2   -1    0    0  503    0  0.00000000000E+00  0.00000000000E+00  0.50177712612E+00  0.50177712612E+00  0.00000000000E+00 0. -1.
         -2   -1    0    0    0  501 -0.00000000000E+00 -0.00000000000E+00 -0.16627363300E+04  0.16627363300E+04  0.00000000000E+00 0.  1.
         21    1    1    2  502  501 -0.26044864375E+02 -0.10819232191E+02 -0.10107611471E+04  0.10111545318E+04  0.00000000000E+00 0. -1.
         21    1    1    2  503  502  0.26044864375E+02  0.10819232191E+02 -0.65147340580E+03  0.65208357532E+03  0.00000000000E+00 0.  1.
</event>
<event>
 4    1  0.5452128E+002  0.2280051E+02  0.7546771E-02  0.1495018E+00
          2   -1    0    0  503    0  0.00000000000E+00  0.00000000000E+00  0.17672766344E+02  0.17672766344E+02  0.00000000000E+00 0.  1.
         -2   -1    0    0    0  501 -0.00000000000E+00 -0.00000000000E+00 -0.45673532410E+02  0.45673532410E+02  0.00000000000E+00 0. -1.
         21    1    1    2  502  501 -0.17661176149E+02 -0.14420332383E+02 -0.32897061823E+02  0.40025989126E+02  0.00000000000E+00 0. -1.
         21    1    1    2  503  502  0.17661176149E+02  0.14420332383E+02  0.48962957558E+01  0.23320309627E+02  0.00000000000E+00 0.  1.
</event>
<event>
 4    1  0.5452128E+002  0.5129454E+02  0.7546771E-02  0.1292655E+00
          2   -1    0    0  503    0  0.00000000000E+00  0.00000000000E+00  0.55164100363E+01  0.55164100363E+01  0.00000000000E+00 0. -1.
         -2   -1    0    0    0  501 -0.00000000000E+00 -0.00000000000E+00 -0.94890797623E+03  0.94890797623E+03  0.00000000000E+00 0.  1.
         21    1    1    2  502  501 -0.31169828297E+02  0.40737838768E+02 -0.80824194940E+03  0.80986800065E+03  0.00000000000E+00 0.  1.
         21    1    1    2  503  502  0.31169828297E+02 -0.40737838768E+02 -0.13514961679E+03  0.14455638562E+03  0.00000000000E+00 0. -1.
</event>
<event>
 4    1  0.5452128E+002  0.2231320E+02  0.7546771E-02  0.1501307E+00
          2   -1    0    0  503    0  0.00000000000E+00  0.00000000000E+00  0.11373809336E+03  0.11373809336E+03  0.00000000000E+00 0. -1.
         -2   -1    0    0    0  501 -0.00000000000E+00 -0.00000000000E+00 -0.10216382852E+02  0.10216382852E+02  0.00000000000E+00 0.  1.
         21    1    1    2  502  501  0.11001967669E+02  0.19412254483E+02  0.49063178130E+01  0.22846244138E+02  0.00000000000E+00 0.  1.
         21    1    1    2  503  502 -0.11001967669E+02 -0.19412254483E+02  0.98615392699E+02  0.10110823208E+03  0.00000000000E+00 0. -1.
</event>
<event>
 4    1  0.5452128E+002  0.2905820E+02  0.7546771E-02  0.1427961E+00
          2   -1    0    0  502    0  0.00000000000E+00  0.00000000000E+00  0.19855005670E+02  0.19855005670E+02  0.00000000000E+00 0. -1.
         -2   -1    0    0    0  501 -0.00000000000E+00 -0.00000000000E+00 -0.48599842675E+02  0.48599842675E+02  0.00000000000E+00 0.  1.
         21    1    1    2  502  503  0.19056657625E+02 -0.21936785192E+02 -0.22735726700E+01  0.29147004599E+02  0.00000000000E+00 0. -1.
         21    1    1    2  503  501 -0.19056657625E+02  0.21936785192E+02 -0.26471264335E+02  0.39307843745E+02  0.00000000000E+00 0.  1.
</event>
<event>
 4    1  0.5452128E+002  0.2411468E+02  0.7546771E-02  0.1478956E+00
          2   -1    0    0  502    0  0.00000000000E+00  0.00000000000E+00  0.22374439722E+04  0.22374439722E+04  0.00000000000E+00 0. -1.
         -2   -1    0    0    0  501 -0.00000000000E+00 -0.00000000000E+00 -0.37718470563E+00  0.37718470563E+00  0.00000000000E+00 0.  1.
         21    1    1    2  502  503 -0.18069504630E+02 -0.15969059909E+02  0.17424605906E+04  0.17426274495E+04  0.00000000000E+00 0. -1.
         21    1    1    2  503  501  0.18069504630E+02  0.15969059909E+02  0.49460619692E+03  0.49519370746E+03  0.00000000000E+00 0.  1.
</event>
<event>
 4    1  0.5452128E+002  0.7390333E+02  0.7546771E-02  0.1218756E+00
          2   -1    0    0  502    0  0.00000000000E+00  0.00000000000E+00  0.11403183299E+04  0.11403183299E+04  0.00000000000E+00 0. -1.
         -2   -1    0    0    0  501 -0.00000000000E+00 -0.00000000000E+00 -0.81073375150E+01  0.81073375150E+01  0.00000000000E+00 0.  1.
         21    1    1    2  502  503  0.53578123228E+02  0.50902715957E+02  0.93343251957E+03  0.93635354987E+03  0.00000000000E+00 0.  1.
         21    1    1    2  503  501 -0.53578123228E+02 -0.50902715957E+02  0.19877847278E+03  0.21207211750E+03  0.00000000000E+00 0. -1.
</event>
<event>
 4    1  0.5452128E+002  0.2150004E+02  0.7546771E-02  0.1512244E+00
          2   -1    0    0  503    0  0.00000000000E+00  0.00000000000E+00  0.26989484934E+01  0.26989484934E+01  0.00000000000E+00 0. -1.
         -2   -1    0    0    0  501 -0.00000000000E+00 -0.00000000000E+00 -0.18281846210E+03  0.18281846210E+03  0.00000000000E+00 0.  1.
         21    1    1    2  502  501  0.13462296050E+02  0.16763603620E+02 -0.66747386370E+02  0.70124641949E+02  0.00000000000E+00 0. -1.
         21    1    1    2  503  502 -0.13462296050E+02 -0.16763603620E+02 -0.11337212724E+03  0.11539276865E+03  0.00000000000E+00 0.  1.
</event>
<event>
 4    1  0.5452128E+002  0.3847337E+02  0.7546771E-02  0.1357672E+00
          2   -1    0    0  502    0  0.00000000000E+00  0.00000000000E+00  0.17395984278E+03  0.17395984278E+03  0.00000000000E+00 0. -1.
         -2   -1    0    0    0  501 -0.00000000000E+00 -0.00000000000E+00 -0.85517653417E+01  0.85517653417E+01  0.00000000000E+00 0.  1.
         21    1    1    2  502  503 -0.25249706181E+02  0.29028471591E+02  0.89167897510E+02  0.97113921616E+02  0.00000000000E+00 0. -1.
         21    1    1    2  503  501  0.25249706181E+02 -0.29028471591E+02  0.76240179927E+02  0.85397686505E+02  0.00000000000E+00 0.  1.
</event>
<event>
 4    1  0.5452128E+002  0.2298464E+02  0.7546771E-02  0.1492691E+00
          2   -1    0    0  503    0  0.00000000000E+00  0.00000000000E+00  0.75913996247E+01  0.75913996247E+01  0.00000000000E+00 0.  1.
         -2   -1    0    0    0  501 -0.00000000000E+00 -0.00000000000E+00 -0.69574239518E+03  0.69574239518E+03  0.00000000000E+00 0. -1.
         21    1    1    2  502  501  0.21783667894E+02 -0.73325078185E+01 -0.67769151792E+03  0.67808118048E+03  0.00000000000E+00 0. -1.
         21    1    1    2  503  502 -0.21783667894E+02  0.73325078185E+01 -0.10459477632E+02  0.25252614324E+02  0.00000000000E+00 0.  1.
</event>
<event>
 4    1  0.5452128E+002  0.2084841E+02  0.7546771E-02  0.1521440E+00
          2   -1    0    0  502    0  0.00000000000E+00  0.00000000000E+00  0.88707753509E+03  0.88707753509E+03  0.00000000000E+00 0.  1.
         -2   -1    0    0    0  501 -0.00000000000E+00 -0.00000000000E+00 -0.10925228907E+01  0.10925228907E+01  0.00000000000E+00 0. -1.
         21    1    1    2  502  503  0.12085303484E+02  0.16988275142E+02  0.77278630555E+03  0.77306748095E+03  0.00000000000E+00 0.  1.
         21    1    1    2  503  501 -0.12085303484E+02 -0.16988275142E+02  0.11319870665E+03  0.11510257703E+03  0.00000000000E+00 0. -1.
</event>
<event>
 4    1  0.5452128E+002  0.2248032E+02  0.7546771E-02  0.1499129E+00
          2   -1    0    0  502    0  0.00000000000E+00  0.00000000000E+00  0.27144054679E+02  0.27144054679E+02  0.00000000000E+00 0.  1.
         -2   -1    0    0    0  501 -0.00000000000E+00 -0.00000000000E+00 -0.19293869465E+02  0.19293869465E+02  0.00000000000E+00 0. -1.
         21    1    1    2  502  503 -0.10245502972E+02 -0.20009856708E+02 -0.42104789395E+00  0.22484260672E+02  0.00000000000E+00 0. -1.
         21    1    1    2  503  501  0.10245502972E+02  0.20009856708E+02  0.82712331075E+01  0.23953663472E+02  0.00000000000E+00 0.  1.
</event>
<event>
 4    1  0.5452128E+002  0.2394635E+02  0.7546771E-02  0.1480945E+00
          2   -1    0    0  502    0  0.00000000000E+00  0.00000000000E+00  0.40186981704E+02  0.40186981704E+02  0.00000000000E+00 0. -1.
         -2   -1    0    0    0  501 -0.00000000000E+00 -0.00000000000E+00 -0.18430048475E+02  0.18430048475E+02  0.00000000000E+00 0.  1.
         21    1    1    2  502  503  0.17028632964E+02 -0.16836067815E+02  0.24804667066E+02  0.34477514822E+02  0.00000000000E+00 0.  1.
         21    1    1    2  503  501 -0.17028632964E+02  0.16836067815E+02 -0.30477338367E+01  0.24139515356E+02  0.00000000000E+00 0. -1.
</event>
<event>
 4    1  0.5452128E+002  0.2218455E+02  0.7546771E-02  0.1503000E+00
          2   -1    0    0  503    0  0.00000000000E+00  0.00000000000E+00  0.95363970325E+02  0.95363970325E+02  0.00000000000E+00 0. -1.
         -2   -1    0    0    0  501 -0.00000000000E+00 -0.00000000000E+00 -0.55932460811E+01  0.55932460811E+01  0.00000000000E+00 0.  1.
         21    1    1    2  502  501  0.21689476120E+02  0.46605758067E+01  0.30849419460E+02  0.37997908129E+02  0.00000000000E+00 0. -1.
         21    1    1    2  503  502 -0.21689476120E+02 -0.46605758067E+01  0.58921304785E+02  0.62959308277E+02  0.00000000000E+00 0.  1.
</event>
<event>
 4    1  0.5452128E+002  0.2102099E+02  0.7546771E-02  0.1518965E+00
          2   -1    0    0  502    0  0.00000000000E+00  0.00000000000E+00  0.68262988068E+03  0.68262988068E+03  0.00000000000E+00 0. -1.
         -2   -1    0    0    0  501 -0.00000000000E+00 -0.00000000000E+00 -0.12664532698E+01  0.12664532698E+01  0.00000000000E+00 0.  1.
         21    1    1    2  502  503 -0.98831293917E+01 -0.18552782912E+02  0.57976913354E+03  0.58015009283E+03  0.00000000000E+00 0. -1.
         21    1    1    2  503  501  0.98831293917E+01  0.18552782912E+02  0.10159429387E+03  0.10374624112E+03  0.00000000000E+00 0.  1.
</event>
<event>
 4    1  0.5452128E+002  0.2238625E+02  0.7546771E-02  0.1500352E+00
          2   -1    0    0  503    0  0.00000000000E+00  0.00000000000E+00  0.69307210920E+01  0.69307210920E+01  0.00000000000E+00 0.  1.
         -2   -1    0    0    0  501 -0.00000000000E+00 -0.00000000000E+00 -0.78851857993E+02  0.78851857993E+02  0.00000000000E+00 0. -1.
         21    1    1    2  502  501 -0.22367837085E+02 -0.90783583548E+00 -0.48316940664E+02  0.53251019304E+02  0.00000000000E+00 0. -1.
         21    1    1    2  503  502  0.22367837085E+02  0.90783583548E+00 -0.23604196237E+02  0.32531559781E+02  0.00000000000E+00 0.  1.
</event>
<event>
 4    1  0.5452128E+002  0.2720355E+02  0.7546771E-02  0.1445574E+00
          2   -1    0    0  502    0  0.00000000000E+00  0.00000000000E+00  0.60506995922E+03  0.60506995922E+03  0.00000000000E+00 0. -1.
         -2   -1    0    0    0  501 -0.00000000000E+00 -0.00000000000E+00 -0.50662710876E+01  0.50662710876E+01  0.00000000000E+00 0.  1.
         21    1    1    2  502  503 -0.18151412517E+02 -0.20262257867E+02  0.56570707160E+03  0.56636077171E+03  0.00000000000E+00 0. -1.
         21    1    1    2  503  501  0.18151412517E+02  0.20262257867E+02  0.34296616537E+02  0.43775458605E+02  0.00000000000E+00 0.  1.
</event>
<event>
 4    1  0.5452128E+002  0.3017899E+02  0.7546771E-02  0.1418047E+00
          2   -1    0    0  503    0  0.00000000000E+00  0.00000000000E+00  0.13447917644E+02  0.13447917644E+02  0.00000000000E+00 0.  1.
         -2   -1    0    0    0  501 -0.00000000000E+00 -0.00000000000E+00 -0.12885382001E+03  0.12885382001E+03  0.00000000000E+00 0. -1.
         21    1    1    2  502  501 -0.24384469994E+01  0.30080320325E+02 -0.10670920831E+03  0.11089466549E+03  0.00000000000E+00 0. -1.
         21    1    1    2  503  502  0.24384469994E+01 -0.30080320325E+02 -0.86966940527E+01  0.31407072167E+02  0.00000000000E+00 0.  1.
</event>
<event>
 4    1  0.5452128E+002  0.9372886E+02  0.7546771E-02  0.1175142E+00
          2   -1    0    0  502    0  0.00000000000E+00  0.00000000000E+00  0.51897212059E+03  0.51897212059E+03  0.00000000000E+00 0.  1.
         -2   -1    0    0    0  501 -0.00000000000E+00 -0.00000000000E+00 -0.34500696331E+02  0.34500696331E+02  0.00000000000E+00 0. -1.
         21    1    1    2  502  503  0.93162647505E+02  0.10286916089E+02  0.43973840126E+03  0.44961645997E+03  0.00000000000E+00 0.  1.
         21    1    1    2  503  501 -0.93162647505E+02 -0.10286916089E+02  0.44733022999E+02  0.10385635695E+03  0.00000000000E+00 0. -1.
</event>
<event>
 4    1  0.5452128E+002  0.2439471E+02  0.7546771E-02  0.1475690E+00
          2   -1    0    0  502    0  0.00000000000E+00  0.00000000000E+00  0.29247284889E+02  0.29247284889E+02  0.00000000000E+00 0.  1.
         -2   -1    0    0    0  501 -0.00000000000E+00 -0.00000000000E+00 -0.49986596888E+02  0.49986596888E+02  0.00000000000E+00 0. -1.
         21    1    1    2  502  503  0.69196985235E+01  0.23392722546E+02  0.20136570986E+02  0.31631996251E+02  0.00000000000E+00 0.  1.
         21    1    1    2  503  501 -0.69196985235E+01 -0.23392722546E+02 -0.40875882985E+02  0.47601885526E+02  0.00000000000E+00 0. -1.
</event>
<event>
 4    1  0.5452128E+002  0.2462916E+02  0.7546771E-02  0.1472995E+00
          2   -1    0    0  502    0  0.00000000000E+00  0.00000000000E+00  0.28428609964E+02  0.28428609964E+02  0.00000000000E+00 0. -1.
         -2   -1    0    0    0  501 -0.00000000000E+00 -0.00000000000E+00 -0.43419491413E+02  0.43419491413E+02  0.00000000000E+00 0.  1.
         21    1    1    2  502  503  0.21864326325E+02  0.11337852340E+02  0.18123548138E+02  0.30578728856E+02  0.00000000000E+00 0. -1.
         21    1    1    2  503  501 -0.21864326325E+02 -0.11337852340E+02 -0.33114429587E+02  0.41269372520E+02  0.00000000000E+00 0.  1.
</event>
<event>
 4    1  0.5452128E+002  0.2304698E+02  0.7546771E-02  0.1491909E+00
          2   -1    0    0  503    0  0.00000000000E+00  0.00000000000E+00  0.11606425841E+01  0.11606425841E+01  0.00000000000E+00 0.  1.
         -2   -1    0    0    0  501 -0.00000000000E+00 -0.00000000000E+00 -0.45886742514E+03  0.45886742514E+03  0.00000000000E+00 0. -1.
         21    1    1    2  502  501 -0.17941009377E+01 -0.22977042202E+02 -0.24072118828E+03  0.24182194639E+03  0.00000000000E+00 0.  1.
         21    1    1    2  503  502  0.17941009377E+01  0.22977042202E+02 -0.21698559427E+03  0.21820612134E+03  0.00000000000E+00 0. -1.
</event>
<event>
 4    1  0.5452128E+002  0.2526148E+02  0.7546771E-02  0.1465899E+00
          2   -1    0    0  503    0  0.00000000000E+00  0.00000000000E+00  0.16406200359E+04  0.16406200359E+04  0.00000000000E+00 0. -1.
         -2   -1    0    0    0  501 -0.00000000000E+00 -0.00000000000E+00 -0.60928524063E+00  0.60928524063E+00  0.00000000000E+00 0.  1.
         21    1    1    2  502  501 -0.76221377557E+01  0.24084135509E+02  0.32653979553E+03  0.32751546625E+03  0.00000000000E+00 0. -1.
         21    1    1    2  503  502  0.76221377557E+01 -0.24084135509E+02  0.13134709551E+04  0.13137138549E+04  0.00000000000E+00 0.  1.
</event>
<event>
 4    1  0.5452128E+002  0.2221643E+02  0.7546771E-02  0.1502579E+00
          2   -1    0    0  502    0  0.00000000000E+00  0.00000000000E+00  0.80220654714E+03  0.80220654714E+03  0.00000000000E+00 0. -1.
         -2   -1    0    0    0  501 -0.00000000000E+00 -0.00000000000E+00 -0.58346875702E+01  0.58346875702E+01  0.00000000000E+00 0.  1.
         21    1    1    2  502  503  0.21154298083E+02  0.67871378024E+01  0.78031137427E+03  0.78062757470E+03  0.00000000000E+00 0. -1.
         21    1    1    2  503  501 -0.21154298083E+02 -0.67871378024E+01  0.16060485294E+02  0.27413660004E+02  0.00000000000E+00 0.  1.
</event>
<event>
 4    1  0.5452128E+002  0.2637978E+02  0.7546771E-02  0.1453940E+00
          2   -1    0    0  502    0  0.00000000000E+00  0.00000000000E+00  0.79502227414E+03  0.79502227414E+03  0.00000000000E+00 0.  1.
         -2   -1    0    0    0  501 -0.00000000000E+00 -0.00000000000E+00 -0.10914317515E+01  0.10914317515E+01  0.00000000000E+00 0. -1.
         21    1    1    2  502  503 -0.85485770501E+01  0.24956255015E+02  0.21983479116E+03  0.22141189724E+03  0.00000000000E+00 0. -1.
         21    1    1    2  503  501  0.85485770501E+01 -0.24956255015E+02  0.57409605123E+03  0.57470180866E+03  0.00000000000E+00 0.  1.
</event>
<event>
 4    1  0.5452128E+002  0.2248618E+02  0.7546771E-02  0.1499053E+00
          2   -1    0    0  502    0  0.00000000000E+00  0.00000000000E+00  0.13624614865E+04  0.13624614865E+04  0.00000000000E+00 0.  1.
         -2   -1    0    0    0  501 -0.00000000000E+00 -0.00000000000E+00 -0.72081411077E+00  0.72081411077E+00  0.00000000000E+00 0. -1.
         21    1    1    2  502  503  0.18672595900E+02  0.12528462307E+02  0.11556152677E+04  0.11558340172E+04  0.00000000000E+00 0.  1.
         21    1    1    2  503  501 -0.18672595900E+02 -0.12528462307E+02  0.20612540462E+03  0.20734828342E+03  0.00000000000E+00 0. -1.
</event>
<event>
 4    1  0.5452128E+002  0.2234978E+02  0.7546771E-02  0.1500828E+00
          2   -1    0    0  503    0  0.00000000000E+00  0.00000000000E+00  0.18507556417E+04  0.18507556417E+04  0.00000000000E+00 0. -1.
         -2   -1    0    0    0  501 -0.00000000000E+00 -0.00000000000E+00 -0.39891043143E+00  0.39891043143E+00  0.00000000000E+00 0.  1.
         21    1    1    2  502  501 -0.22349026862E+02 -0.18370701716E+00  0.39880605278E+03  0.39943182207E+03  0.00000000000E+00 0.  1.
         21    1    1    2  503  502  0.22349026862E+02  0.18370701716E+00  0.14515506785E+04  0.14517227300E+04  0.00000000000E+00 0. -1.
</event>
<event>
 4    1  0.5452128E+002  0.3249110E+02  0.7546771E-02  0.1399115E+00
          2   -1    0    0  503    0  0.00000000000E+00  0.00000000000E+00  0.40191625434E+01  0.40191625434E+01  0.00000000000E+00 0. -1.
         -2   -1    0    0    0  501 -0.00000000000E+00 -0.00000000000E+00 -0.28524728719E+03  0.28524728719E+03  0.00000000000E+00 0.  1.
         21    1    1    2  502  501 -0.28563247382E+02  0.15485879690E+02 -0.18131396049E+03  0.18420212768E+03  0.00000000000E+00 0.  1.
         21    1    1    2  503  502  0.28563247382E+02 -0.15485879690E+02 -0.99914164155E+02  0.10506432206E+03  0.00000000000E+00 0. -1.
</event>
<event>
 4    1  0.5452128E+002  0.2099192E+02  0.7546771E-02  0.1519380E+00
          2   -1    0    0  502    0  0.00000000000E+00  0.00000000000E+00  0.13412336087E+04  0.13412336087E+04  0.00000000000E+00 0.  1.
         -2   -1    0    0    0  501 -0.00000000000E+00 -0.00000000000E+00 -0.54134841727E+00  0.54134841727E+00  0.00000000000E+00 0. -1.
         21    1    1    2  502  503 -0.20923342711E+02  0.16954279269E+01  0.10909726311E+04  0.10911745701E+04  0.00000000000E+00 0.  1.
         21    1    1    2  503  501  0.20923342711E+02 -0.16954279269E+01  0.24971962925E+03  0.25060038702E+03  0.00000000000E+00 0. -1.
</event>
<event>
 4    1  0.5452128E+002  0.3152659E+02  0.7546771E-02  0.1406778E+00
          2   -1    0    0  502    0  0.00000000000E+00  0.00000000000E+00  0.58696138412E+03  0.58696138412E+03  0.00000000000E+00 0.  1.
         -2   -1    0    0    0  501 -0.00000000000E+00 -0.00000000000E+00 -0.17203158463E+01  0.17203158463E+01  0.00000000000E+00 0. -1.
         21    1    1    2  502  503 -0.32426262969E+01 -0.31359390860E+02  0.25576331221E+03  0.25769904520E+03  0.00000000000E+00 0.  1.
         21    1    1    2  503  501  0.32426262969E+01  0.31359390860E+02  0.32947775606E+03  0.33098265477E+03  0.00000000000E+00 0. -1.
</event>
<event>
 4    1  0.5452128E+002  0.2746749E+02  0.7546771E-02  0.1442968E+00
          2   -1    0    0  503    0  0.00000000000E+00  0.00000000000E+00  0.55792180617E+03  0.55792180617E+03  0.00000000000E+00 0.  1.
         -2   -1    0    0    0  501 -0.00000000000E+00 -0.00000000000E+00 -0.14325040608E+01  0.14325040608E+01  0.00000000000E+00 0. -1.
         21    1    1    2  502  501  0.21556601989E+02  0.17022812042E+02  0.34443235261E+03  0.34552584381E+03  0.00000000000E+00 0. -1.
         21    1    1    2  503  502 -0.21556601989E+02 -0.17022812042E+02  0.21205694950E+03  0.21382846642E+03  0.00000000000E+00 0.  1.
</event>
<event>
 4    1  0.5452128E+002  0.2024240E+02  0.7546771E-02  0.1530362E+00
          2   -1    0    0  502    0  0.00000000000E+00  0.00000000000E+00  0.10936707236E+04  0.10936707236E+04  0.00000000000E+00 0. -1.
         -2   -1    0    0    0  501 -0.00000000000E+00 -0.00000000000E+00 -0.18552812110E+01  0.18552812110E+01  0.00000000000E+00 0.  1.
         21    1    1    2  502  503  0.18245461266E+02  0.87668574568E+01  0.10352466975E+04  0.10354445805E+04  0.00000000000E+00 0. -1.
         21    1    1    2  503  501 -0.18245461266E+02 -0.87668574568E+01  0.56568744905E+02  0.60081424306E+02  0.00000000000E+00 0.  1.
</event>
<event>
 4    1  0.5452128E+002  0.2050980E+02  0.7546771E-02  0.1526380E+00
          2   -1    0    0  503    0  0.00000000000E+00  0.00000000000E+00  0.38977569203E+01  0.38977569203E+01  0.00000000000E+00 0. -1.
         -2   -1    0    0    0  501 -0.00000000000E+00 -0.00000000000E+00 -0.13394150678E+03  0.13394150678E+03  0.00000000000E+00 0.  1.
         21    1    1    2  502  501  0.16611611007E+02  0.12029398238E+02 -0.34645322236E+02  0.40261028242E+02  0.00000000000E+00 0. -1.
         21    1    1    2  503  502 -0.16611611007E+02 -0.12029398238E+02 -0.95398427623E+02  0.97578235459E+02  0.00000000000E+00 0.  1.
</event>
<event>
 4    1  0.5452128E+002  0.3174277E+02  0.7546771E-02  0.1405033E+00
          2   -1    0    0  502    0  0.00000000000E+00  0.00000000000E+00  0.15086671784E+04  0.15086671784E+04  0.00000000000E+00 0.  1.
         -2   -1    0    0    0  501 -0.00000000000E+00 -0.00000000000E+00 -0.68847464652E+00  0.68847464652E+00  0.00000000000E+00 0. -1.
         21    1    1    2  502  503  0.23675521604E+02  0.21144098216E+02  0.62345263690E+03  0.62426019709E+03  0.00000000000E+00 0. -1.
         21    1    1    2  503  501 -0.23675521604E+02 -0.21144098216E+02  0.88452606684E+03  0.88509545594E+03  0.00000000000E+00 0.  1.
</event>
<event>
 4    1  0.5452128E+002  0.2439538E+02  0.7546771E-02  0.1475682E+00
          2   -1    0    0  502    0  0.00000000000E+00  0.00000000000E+00  0.24213097407E+04  0.24213097407E+04  0.00000000000E+00 0.  1.
         -2   -1    0    0    0  501 -0.00000000000E+00 -0.00000000000E+00 -0.30443244659E+00  0.30443244659E+00  0.00000000000E+00 0. -1.
         21    1    1    2  502  503 -0.19381858689E+02 -0.14814786886E+02  0.17419185655E+04  0.17420893844E+04  0.00000000000E+00 0.  1.
         21    1    1    2  503  501  0.19381858689E+02  0.14814786886E+02  0.67908674271E+03  0.67952478872E+03  0.00000000000E+00 0. -1.
</event>
<event>
 4    1  0.5452128E+002  0.6505964E+02  0.7546771E-02  0.1243547E+00
          2   -1    0    0  503    0  0.00000000000E+00  0.00000000000E+00  0.28352794790E+04  0.28352794790E+04  0.00000000000E+00 0. -1.
         -2   -1    0    0    0  501 -0.00000000000E+00 -0.00000000000E+00 -0.18628365349E+01  0.18628365349E+01  0.00000000000E+00 0.  1.
         21    1    1    2  502  501  0.48133538159E+02  0.43771220113E+02  0.78453830791E+03  0.78723129624E+03  0.00000000000E+00 0.  1.
         21    1    1    2  503  502 -0.48133538159E+02 -0.43771220113E+02  0.20488783345E+04  0.20499110193E+04  0.00000000000E+00 0. -1.
</event>
<event>
 4    1  0.5452128E+002  0.2439901E+02  0.7546771E-02  0.1475640E+00
          2   -1    0    0  502    0  0.00000000000E+00  0.00000000000E+00  0.22077987142E+02  0.22077987142E+02  0.00000000000E+00 0.  1.
         -2   -1    0    0    0  501 -0.00000000000E+00 -0.00000000000E+00 -0.18453251807E+03  0.18453251807E+03  0.00000000000E+00 0. -1.
         21    1    1    2  502  503  0.22173915297E+02  0.10179833687E+02  0.14232559186E+02  0.28246721482E+02  0.00000000000E+00 0.  1.
         21    1    1    2  503  501 -0.22173915297E+02 -0.10179833687E+02 -0.17668709011E+03  0.17836378373E+03  0.00000000000E+00 0. -1.
</event>
<event>
 4    1  0.5452128E+002  0.2072576E+02  0.7546771E-02  0.1523217E+00
          2   -1    0    0  502    0  0.00000000000E+00  0.00000000000E+00  0.11484355141E+03  0.11484355141E+03  0.00000000000E+00 0.  1.
         -2   -1    0    0    0  501 -0.00000000000E+00 -0.00000000000E+00 -0.40349167586E+01  0.40349167586E+01  0.00000000000E+00 0. -1.
         21    1    1    2  502  503 -0.19860930257E+02 -0.59245642968E+01  0.71463940854E+02  0.74408681316E+02  0.00000000000E+00 0. -1.
         21    1    1    2  503  501  0.19860930257E+02  0.59245642968E+01  0.39344693801E+02  0.44469786856E+02  0.00000000000E+00 0.  1.
</event>
<event>
 4    1  0.5452128E+002  0.2489578E+02  0.7546771E-02  0.1469973E+00
          2   -1    0    0  502    0  0.00000000000E+00  0.00000000000E+00  0.30554722761E+03  0.30554722761E+03  0.00000000000E+00 0. -1.
         -2   -1    0    0    0  501 -0.00000000000E+00 -0.00000000000E+00 -0.27823593884E+01  0.27823593884E+01  0.00000000000E+00 0.  1.
         21    1    1    2  502  503 -0.75837714935E+01  0.23712572008E+02  0.23162900645E+03  0.23296307924E+03  0.00000000000E+00 0.  1.
         21    1    1    2  503  501  0.75837714935E+01 -0.23712572008E+02  0.71135861775E+02  0.75366507759E+02  0.00000000000E+00 0. -1.
</event>
<event>
 4    1  0.5452128E+002  0.2269362E+02  0.7546771E-02  0.1496382E+00
          2   -1    0    0  502    0  0.00000000000E+00  0.00000000000E+00  0.44305398793E+03  0.44305398793E+03  0.00000000000E+00 0. -1.
         -2   -1    0    0    0  501 -0.00000000000E+00 -0.00000000000E+00 -0.12504442059E+01  0.12504442059E+01  0.00000000000E+00 0.  1.
         21    1    1    2  502  503  0.14459824733E+02  0.17490391727E+02  0.27985399288E+03  0.28077260847E+03  0.00000000000E+00 0. -1.
         21    1    1    2  503  501 -0.14459824733E+02 -0.17490391727E+02  0.16194955084E+03  0.16353182367E+03  0.00000000000E+00 0.  1.
</event>
<event>
 4    1  0.5452128E+002  0.4190468E+02  0.7546771E-02  0.1337672E+00
          2   -1    0    0  502    0  0.00000000000E+00  0.00000000000E+00  0.17308011283E+04  0.17308011283E+04  0.00000000000E+00 0.  1.
         -2   -1    0    0    0  501 -0.00000000000E+00 -0.00000000000E+00 -0.35128325726E+01  0.35128325726E+01  0.00000000000E+00 0. -1.
         21    1    1    2  502  503  0.26837071971E+02  0.32183442923E+02  0.15949328549E+04  0.15954832541E+04  0.00000000000E+00 0.  1.
         21    1    1    2  503  501 -0.26837071971E+02 -0.32183442923E+02  0.13235544084E+03  0.13883070680E+03  0.00000000000E+00 0. -1.
</event>
<event>
 4    1  0.5452128E+002  0.2611903E+02  0.7546771E-02  0.1456664E+00
          2   -1    0    0  503    0  0.00000000000E+00  0.00000000000E+00  0.13813910113E+02  0.13813910113E+02  0.00000000000E+00 0.  1.
         -2   -1    0    0    0  501 -0.00000000000E+00 -0.00000000000E+00 -0.13992491162E+03  0.13992491162E+03  0.00000000000E+00 0. -1.
         21    1    1    2  502  501 -0.10298540710E+02  0.24002996553E+02 -0.12488922424E+03  0.12759123056E+03  0.00000000000E+00 0. -1.
         21    1    1    2  503  502  0.10298540710E+02 -0.24002996553E+02 -0.12217772620E+01  0.26147591169E+02  0.00000000000E+00 0.  1.
</event>
<event>
 4    1  0.5452128E+002  0.4329471E+02  0.7546771E-02  0.1330190E+00
          2   -1    0    0  502    0  0.00000000000E+00  0.00000000000E+00  0.78507352098E+03  0.78507352098E+03  0.00000000000E+00 0. -1.
         -2   -1    0    0    0  501 -0.00000000000E+00 -0.00000000000E+00 -0.56613427188E+01  0.56613427188E+01  0.00000000000E+00 0.  1.
         21    1    1    2  502  503 -0.19040294713E+02  0.38883147438E+02  0.69035819426E+03  0.69171444134E+03  0.00000000000E+00 0. -1.
         21    1    1    2  503  501  0.19040294713E+02 -0.38883147438E+02  0.89053984002E+02  0.99020422359E+02  0.00000000000E+00 0.  1.
</event>
<event>
 4    1  0.5452128E+002  0.2317012E+02  0.7546771E-02  0.1490373E+00
          2   -1    0    0  502    0  0.00000000000E+00  0.00000000000E+00  0.35325334081E+03  0.35325334081E+03  0.00000000000E+00 0.  1.
         -2   -1    0    0    0  501 -0.00000000000E+00 -0.00000000000E+00 -0.15682279255E+01  0.15682279255E+01  0.00000000000E+00 0. -1.
         21    1    1    2  502  503 -0.11045544646E+02  0.20367882200E+02  0.14464835682E+03  0.14649232680E+03  0.00000000000E+00 0. -1.
         21    1    1    2  503  501  0.11045544646E+02 -0.20367882200E+02  0.20703675607E+03  0.20832924193E+03  0.00000000000E+00 0.  1.
</event>
<event>
 4    1  0.5452128E+002  0.2207947E+02  0.7546771E-02  0.1504392E+00
          2   -1    0    0  503    0  0.00000000000E+00  0.00000000000E+00  0.34386454745E+03  0.34386454745E+03  0.00000000000E+00 0. -1.
         -2   -1    0    0    0  501 -0.00000000000E+00 -0.00000000000E+00 -0.20060956014E+01  0.20060956014E+01  0.00000000000E+00 0.  1.
         21    1    1    2  502  501 -0.14176860870E+02  0.16926891701E+02  0.77273170187E+02  0.80365700877E+02  0.00000000000E+00 0.  1.
         21    1    1    2  503  502  0.14176860870E+02 -0.16926891701E+02  0.26458528166E+03  0.26550494217E+03  0.00000000000E+00 0. -1.
</event>
<event>
 4    1  0.5452128E+002  0.2842006E+02  0.7546771E-02  0.1433842E+00
          2   -1    0    0  503    0  0.00000000000E+00  0.00000000000E+00  0.12170184819E+04  0.12170184819E+04  0.00000000000E+00 0. -1.
         -2   -1    0    0    0  501 -0.00000000000E+00 -0.00000000000E+00 -0.12561619172E+01  0.12561619172E+01  0.00000000000E+00 0.  1.
         21    1    1    2  502  501  0.52343264314E+01  0.27933884696E+02  0.18953750919E+03  0.19165637865E+03  0.00000000000E+00 0.  1.
         21    1    1    2  503  502 -0.52343264314E+01 -0.27933884696E+02  0.10262248108E+04  0.10266182652E+04  0.00000000000E+00 0. -1.
</event>
<event>
 4    1  0.5452128E+002  0.2242534E+02  0.7546771E-02  0.1499843E+00
          2   -1    0    0  502    0  0.00000000000E+00  0.00000000000E+00  0.91925114143E+03  0.91925114143E+03  0.00000000000E+00 0.  1.
         -2   -1    0    0    0  501 -0.00000000000E+00 -0.00000000000E+00 -0.60783829354E+00  0.60783829354E+00  0.00000000000E+00 0. -1.
         21    1    1    2  502  503 -0.16718480180E+02  0.14946173121E+02  0.60474430388E+03  0.60515995302E+03  0.00000000000E+00 0.  1.
         21    1    1    2  503  501  0.16718480180E+02 -0.14946173121E+02  0.31389899926E+03  0.31469902670E+03  0.00000000000E+00 0. -1.
</event>
<event>
 4    1  0.5452128E+002  0.4137812E+02  0.7546771E-02  0.1340594E+00
          2   -1    0    0  503    0  0.00000000000E+00  0.00000000000E+00  0.34051545643E+02  0.34051545643E+02  0.00000000000E+00 0. -1.
         -2   -1    0    0    0  501 -0.00000000000E+00 -0.00000000000E+00 -0.54475365620E+02  0.54475365620E+02  0.00000000000E+00 0.  1.
         21    1    1    2  502  501 -0.15267238080E+02  0.38458553682E+02 -0.22494037517E+02  0.47097034235E+02  0.00000000000E+00 0.  1.
         21    1    1    2  503  502  0.15267238080E+02 -0.38458553682E+02  0.20702175398E+01  0.41429877028E+02  0.00000000000E+00 0. -1.
</event>
<event>
 4    1  0.5452128E+002  0.3628991E+02  0.7546771E-02  0.1371715E+00
          2   -1    0    0  503    0  0.00000000000E+00  0.00000000000E+00  0.26372190464E+03  0.26372190464E+03  0.00000000000E+00 0. -1.
         -2   -1    0    0    0  501 -0.00000000000E+00 -0.00000000000E+00 -0.30700595931E+02  0.30700595931E+02  0.00000000000E+00 0.  1.
         21    1    1    2  502  501 -0.19901505823E+02  0.30346130484E+02 -0.18196950406E+02  0.40596632538E+02  0.00000000000E+00 0.  1.
         21    1    1    2  503  502  0.19901505823E+02 -0.30346130484E+02  0.25121825912E+03  0.25382586804E+03  0.00000000000E+00 0. -1.
</event>
<event>
 4    1  0.5452128E+002  0.3180455E+02  0.7546771E-02  0.1404537E+00
          2   -1    0    0  502    0  0.00000000000E+00  0.00000000000E+00  0.38577858954E+02  0.38577858954E+02  0.00000000000E+00 0.  1.
         -2   -1    0    0    0  501 -0.00000000000E+00 -0.00000000000E+00 -0.33614880171E+02  0.33614880171E+02  0.00000000000E+00 0. -1.
         21    1    1    2  502  503  0.15213655908E+02 -0.27929806147E+02 -0.14448226051E+02  0.34932515419E+02  0.00000000000E+00 0. -1.
         21    1    1    2  503  501 -0.15213655908E+02  0.27929806147E+02  0.19411204834E+02  0.37260223705E+02  0.00000000000E+00 0.  1.
</event>
<event>
 4    1  0.5452128E+002  0.2093668E+02  0.7546771E-02  0.1520171E+00
          2   -1    0    0  503    0  0.00000000000E+00  0.00000000000E+00  0.97416739836E+02  0.97416739836E+02  0.00000000000E+00 0.  1.
         -2   -1    0    0    0  501 -0.00000000000E+00 -0.00000000000E+00 -0.13432898413E+02  0.13432898413E+02  0.00000000000E+00 0. -1.
         21    1    1    2  502  501  0.20717555893E+02 -0.30211696772E+01 -0.32065028409E+01  0.21180799061E+02  0.00000000000E+00 0. -1.
         21    1    1    2  503  502 -0.20717555893E+02  0.30211696772E+01  0.87190344265E+02  0.89668839188E+02  0.00000000000E+00 0.  1.
</event>
<event>
 4    1  0.5452128E+002  0.2011954E+02  0.7546771E-02  0.1532216E+00
          2   -1    0    0  502    0  0.00000000000E+00  0.00000000000E+00  0.17421519910E+03  0.17421519910E+03  0.00000000000E+00 0. -1.
         -2   -1    0    0    0  501 -0.00000000000E+00 -0.00000000000E+00 -0.23652451321E+01  0.23652451321E+01  0.00000000000E+00 0.  1.
         21    1    1    2  502  503 -0.19648871349E+02  0.43264062964E+01  0.97648838653E+02  0.99700008159E+02  0.00000000000E+00 0. -1.
         21    1    1    2  503  501  0.19648871349E+02 -0.43264062964E+01  0.74201115314E+02  0.76880436072E+02  0.00000000000E+00 0.  1.
</event>
<event>
 4    1  0.5452128E+002  0.2385066E+02  0.7546771E-02  0.1482084E+00
          2   -1    0    0  503    0  0.00000000000E+00  0.00000000000E+00  0.53679775171E+02  0.53679775171E+02  0.00000000000E+00 0. -1.
         -2   -1    0    0    0  501 -0.00000000000E+00 -0.00000000000E+00 -0.44684269444E+02  0.44684269444E+02  0.00000000000E+00 0.  1.
         21    1    1    2  502  501 -0.10484255471E+02 -0.21422750281E+02 -0.38458269396E+02  0.45253644354E+02  0.00000000000E+00 0.  1.
         21    1    1    2  503  502  0.10484255471E+02  0.21422750281E+02  0.47453775124E+02  0.53110400261E+02  0.00000000000E+00 0. -1.
</event>
<event>
 4    1  0.5452128E+002  0.5366201E+02  0.7546771E-02  0.1283031E+00
          2   -1    0    0  503    0  0.00000000000E+00  0.00000000000E+00  0.23130622642E+02  0.23130622642E+02  0.00000000000E+00 0. -1.
         -2   -1    0    0    0  501 -0.00000000000E+00 -0.00000000000E+00 -0.22088983104E+03  0.22088983104E+03  0.00000000000E+00 0.  1.
         21    1    1    2  502  501  0.53652724446E+02  0.99825007951E+00 -0.17948028418E+03  0.18733068023E+03  0.00000000000E+00 0.  1.
         21    1    1    2  503  502 -0.53652724446E+02 -0.99825007951E+00 -0.18278924210E+02  0.56689773452E+02  0.00000000000E+00 0. -1.
</event>
<event>
 4    1  0.5452128E+002  0.2229597E+02  0.7546771E-02  0.1501533E+00
          2   -1    0    0  502    0  0.00000000000E+00  0.00000000000E+00  0.19742554357E+02  0.19742554357E+02  0.00000000000E+00 0.  1.
         -2   -1    0    0    0  501 -0.00000000000E+00 -0.00000000000E+00 -0.34096991592E+02  0.34096991592E+02  0.00000000000E+00 0. -1.
         21    1    1    2  502  503 -0.22113513958E+02  0.28465378382E+01 -0.20943970092E+02  0.30590197130E+02  0.00000000000E+00 0. -1.
         21    1    1    2  503  501  0.22113513958E+02 -0.28465378382E+01  0.65895328570E+01  0.23249348819E+02  0.00000000000E+00 0.  1.
</event>
<event>
 4    1  0.5452128E+002  0.2013328E+02  0.7546771E-02  0.1532008E+00
          2   -1    0    0  502    0  0.00000000000E+00  0.00000000000E+00  0.15682790416E+03  0.15682790416E+03  0.00000000000E+00 0. -1.
         -2   -1    0    0    0  501 -0.00000000000E+00 -0.00000000000E+00 -0.33461471915E+01  0.33461471915E+01  0.00000000000E+00 0.  1.
         21    1    1    2  502  503 -0.10939569696E+02  0.16901910547E+02  0.11494563110E+03  0.11669553065E+03  0.00000000000E+00 0. -1.
         21    1    1    2  503  501  0.10939569696E+02 -0.16901910547E+02  0.38536125871E+02  0.43478520702E+02  0.00000000000E+00 0.  1.
</event>
<event>
 4    1  0.5452128E+002  0.5515838E+02  0.7546771E-02  0.1277234E+00
          2   -1    0    0  502    0  0.00000000000E+00  0.00000000000E+00  0.40759128288E+03  0.40759128288E+03  0.00000000000E+00 0. -1.
         -2   -1    0    0    0  501 -0.00000000000E+00 -0.00000000000E+00 -0.79625674050E+01  0.79625674050E+01  0.00000000000E+00 0.  1.
         21    1    1    2  502  503 -0.54788825145E+02 -0.63743091383E+01  0.14784659536E+03  0.15780070639E+03  0.00000000000E+00 0.  1.
         21    1    1    2  503  501  0.54788825145E+02  0.63743091383E+01  0.25178212012E+03  0.25775314389E+03  0.00000000000E+00 0. -1.
</event>
<event>
 4    1  0.5452128E+002  0.7390661E+02  0.7546771E-02  0.1218747E+00
          2   -1    0    0  502    0  0.00000000000E+00  0.00000000000E+00  0.16782234724E+02  0.16782234724E+02  0.00000000000E+00 0. -1.
         -2   -1    0    0    0  501 -0.00000000000E+00 -0.00000000000E+00 -0.44101361971E+03  0.44101361971E+03  0.00000000000E+00 0.  1.
         21    1    1    2  502  503 -0.34123238104E+02  0.65557548387E+02 -0.94955358273E+02  0.12032750140E+03  0.00000000000E+00 0. -1.
         21    1    1    2  503  501  0.34123238104E+02 -0.65557548387E+02 -0.32927602671E+03  0.33746835303E+03  0.00000000000E+00 0.  1.
</event>
<event>
 4    1  0.5452128E+002  0.3471005E+02  0.7546771E-02  0.1382613E+00
          2   -1    0    0  503    0  0.00000000000E+00  0.00000000000E+00  0.10379314798E+04  0.10379314798E+04  0.00000000000E+00 0. -1.
         -2   -1    0    0    0  501 -0.00000000000E+00 -0.00000000000E+00 -0.11607654971E+01  0.11607654971E+01  0.00000000000E+00 0.  1.
         21    1    1    2  502  501 -0.26318779603E+02 -0.22629839693E+02  0.51711123356E+03  0.51827484570E+03  0.00000000000E+00 0.  1.
         21    1    1    2  503  502  0.26318779603E+02  0.22629839693E+02  0.51965948077E+03  0.52081739963E+03  0.00000000000E+00 0. -1.
</event>
<event>
 4    1  0.5452128E+002  0.2052837E+02  0.7546771E-02  0.1526106E+00
          2   -1    0    0  503    0  0.00000000000E+00  0.00000000000E+00  0.11190651485E+04  0.11190651485E+04  0.00000000000E+00 0. -1.
         -2   -1    0    0    0  501 -0.00000000000E+00 -0.00000000000E+00 -0.51419402475E+00  0.51419402475E+00  0.00000000000E+00 0.  1.
         21    1    1    2  502  501 -0.90320345267E+01 -0.18434650630E+02  0.26967602289E+03  0.27045622809E+03  0.00000000000E+00 0.  1.
         21    1    1    2  503  502  0.90320345267E+01  0.18434650630E+02  0.84887493161E+03  0.84912311446E+03  0.00000000000E+00 0. -1.
</event>
<event>
 4    1  0.5452128E+002  0.2478743E+02  0.7546771E-02  0.1471196E+00
          2   -1    0    0  502    0  0.00000000000E+00  0.00000000000E+00  0.16086277761E+03  0.16086277761E+03  0.00000000000E+00 0.  1.
         -2   -1    0    0    0  501 -0.00000000000E+00 -0.00000000000E+00 -0.49154288392E+01  0.49154288392E+01  0.00000000000E+00 0. -1.
         21    1    1    2  502  503  0.13475897590E+02 -0.20804251043E+02  0.38834981892E+02  0.46071384783E+02  0.00000000000E+00 0. -1.
         21    1    1    2  503  501 -0.13475897590E+02  0.20804251043E+02  0.11711236688E+03  0.11970682166E+03  0.00000000000E+00 0.  1.
</event>
<event>
 4    1  0.5452128E+002  0.6352691E+02  0.7546771E-02  0.1248298E+00
          2   -1    0    0  502    0  0.00000000000E+00  0.00000000000E+00  0.31810773670E+03  0.31810773670E+03  0.00000000000E+00 0.  1.
         -2   -1    0    0    0  501 -0.00000000000E+00 -0.00000000000E+00 -0.36333616408E+02  0.36333616408E+02  0.00000000000E+00 0. -1.
         21    1    1    2  502  503 -0.45359706207E+02  0.44476574665E+02  0.28385850970E+03  0.29088025400E+03  0.00000000000E+00 0.  1.
         21    1    1    2  503  501  0.45359706207E+02 -0.44476574665E+02 -0.20843893995E+01  0.63561099111E+02  0.00000000000E+00 0. -1.
</event>
<event>
 4    1  0.5452128E+002  0.2365675E+02  0.7546771E-02  0.1484412E+00
          2   -1    0    0  503    0  0.00000000000E+00  0.00000000000E+00  0.38980425566E+03  0.38980425566E+03  0.00000000000E+00 0. -1.
         -2   -1    0    0    0  501 -0.00000000000E+00 -0.00000000000E+00 -0.15198643577E+01  0.15198643577E+01  0.00000000000E+00 0.  1.
         21    1    1    2  502  501 -0.21779633106E+02  0.92352241206E+01  0.14809856608E+03  0.14997608829E+03  0.00000000000E+00 0. -1.
         21    1    1    2  503  502  0.21779633106E+02 -0.92352241206E+01  0.24018582523E+03  0.24134803173E+03  0.00000000000E+00 0.  1.
</event>
<event>
 4    1  0.5452128E+002  0.2189029E+02  0.7546771E-02  0.1506924E+00
          2   -1    0    0  502    0  0.00000000000E+00  0.00000000000E+00  0.41098701018E+02  0.41098701018E+02  0.00000000000E+00 0.  1.
         -2   -1    0    0    0  501 -0.00000000000E+00 -0.00000000000E+00 -0.18133536674E+02  0.18133536674E+02  0.00000000000E+00 0. -1.
         21    1    1    2  502  503 -0.16651323509E+02  0.14209789161E+02  0.29178742828E+02  0.36477167045E+02  0.00000000000E+00 0.  1.
         21    1    1    2  503  501  0.16651323509E+02 -0.14209789161E+02 -0.62135784842E+01  0.22755070648E+02  0.00000000000E+00 0. -1.
</event>
<event>
 4    1  0.5452128E+002  0.2085419E+02  0.7546771E-02  0.1521357E+00
          2   -1    0    0  502    0  0.00000000000E+00  0.00000000000E+00  0.19381099839E+02  0.19381099839E+02  0.00000000000E+00 0.  1.
         -2   -1    0    0    0  501 -0.00000000000E+00 -0.00000000000E+00 -0.36511346489E+02  0.36511346489E+02  0.00000000000E+00 0. -1.
         21    1    1    2  502  503 -0.19804643503E+02  0.65324725362E+01  0.87844497936E+01  0.22628823652E+02  0.00000000000E+00 0.  1.
         21    1    1    2  503  501  0.19804643503E+02 -0.65324725362E+01 -0.25914696444E+02  0.33263622675E+02  0.00000000000E+00 0. -1.
</event>
<event>
 4    1  0.5452128E+002  0.2465633E+02  0.7546771E-02  0.1472685E+00
          2   -1    0    0  502    0  0.00000000000E+00  0.00000000000E+00  0.30303109683E+01  0.30303109683E+01  0.00000000000E+00 0. -1.
         -2   -1    0    0    0  501 -0.00000000000E+00 -0.00000000000E+00 -0.30300453795E+03  0.30300453795E+03  0.00000000000E+00 0.  1.
         21    1    1    2  502  503  0.26576081119E+01 -0.24512683703E+02 -0.61038738496E+02  0.65830556282E+02  0.00000000000E+00 0. -1.
         21    1    1    2  503  501 -0.26576081119E+01  0.24512683703E+02 -0.23893548849E+03  0.24020429264E+03  0.00000000000E+00 0.  1.
</event>
<event>
 4    1  0.5452128E+002  0.2373710E+02  0.7546771E-02  0.1483444E+00
          2   -1    0    0  503    0  0.00000000000E+00  0.00000000000E+00  0.18277605056E+01  0.18277605056E+01  0.00000000000E+00 0. -1.
         -2   -1    0    0    0  501 -0.00000000000E+00 -0.00000000000E+00 -0.33049527274E+03  0.33049527274E+03  0.00000000000E+00 0.  1.
         21    1    1    2  502  501 -0.22030474082E+02  0.88378750022E+01 -0.12124749538E+03  0.12354920056E+03  0.00000000000E+00 0. -1.
         21    1    1    2  503  502  0.22030474082E+02 -0.88378750022E+01 -0.20742001685E+03  0.20877383268E+03  0.00000000000E+00 0.  1.
</event>
<event>
 4    1  0.5452128E+002  0.2137395E+02  0.7546771E-02  0.1513992E+00
          2   -1    0    0  502    0  0.00000000000E+00  0.00000000000E+00  0.15842670991E+03  0.15842670991E+03  0.00000000000E+00 0. -1.
         -2   -1    0    0    0  501 -0.00000000000E+00 -0.00000000000E+00 -0.30862691590E+01  0.30862691590E+01  0.00000000000E+00 0.  1.
         21    1    1    2  502  503  0.10409427721E+02  0.18667880313E+02  0.98362540219E+02  0.10065801140E+03  0.00000000000E+00 0.  1.
         21    1    1    2  503  501 -0.10409427721E+02 -0.18667880313E+02  0.56977900533E+02  0.60854967669E+02  0.00000000000E+00 0. -1.
</event>
<event>
 4    1  0.5452128E+002  0.3146064E+02  0.7546771E-02  0.1407314E+00
          2   -1    0    0  502    0  0.00000000000E+00  0.00000000000E+00  0.32863007023E+03  0.32863007023E+03  0.00000000000E+00 0.  1.
         -2   -1    0    0    0  501 -0.00000000000E+00 -0.00000000000E+00 -0.11258310738E+02  0.11258310738E+02  0.00000000000E+00 0. -1.
         21    1    1    2  502  503 -0.26686840727E+02 -0.16660856824E+02  0.30413280188E+03  0.30575567500E+03  0.00000000000E+00 0.  1.
         21    1    1    2  503  501  0.26686840727E+02  0.16660856824E+02  0.13238957619E+02  0.34132705972E+02  0.00000000000E+00 0. -1.
</event>
<event>
 4    1  0.5452128E+002  0.3407961E+02  0.7546771E-02  0.1387152E+00
          2   -1    0    0  502    0  0.00000000000E+00  0.00000000000E+00  0.38798437091E+02  0.38798437091E+02  0.00000000000E+00 0.  1.
         -2   -1    0    0    0  501 -0.00000000000E+00 -0.00000000000E+00 -0.45470859205E+02  0.45470859205E+02  0.00000000000E+00 0. -1.
         21    1    1    2  502  503 -0.10913647843E+02 -0.32284853575E+02  0.21292668624E+02  0.40184539524E+02  0.00000000000E+00 0.  1.
         21    1    1    2  503  501  0.10913647843E+02  0.32284853575E+02 -0.27965090738E+02  0.44084756771E+02  0.00000000000E+00 0. -1.
</event>
<event>
 4    1  0.5452128E+002  0.2255516E+02  0.7546771E-02  0.1498161E+00
          2   -1    0    0  502    0  0.00000000000E+00  0.00000000000E+00  0.45808131484E+03  0.45808131484E+03  0.00000000000E+00 0.  1.
         -2   -1    0    0    0  501 -0.00000000000E+00 -0.00000000000E+00 -0.12613633593E+01  0.12613633593E+01  0.00000000000E+00 0. -1.
         21    1    1    2  502  503 -0.21862023291E+02  0.55486215543E+01  0.30781821236E+03  0.30864346279E+03  0.00000000000E+00 0.  1.
         21    1    1    2  503  501  0.21862023291E+02 -0.55486215543E+01  0.14900173912E+03  0.15069921541E+03  0.00000000000E+00 0. -1.
</event>
<event>
 4    1  0.5452128E+002  0.2189535E+02  0.7546771E-02  0.1506855E+00
          2   -1    0    0  503    0  0.00000000000E+00  0.00000000000E+00  0.18604874423E+03  0.18604874423E+03  0.00000000000E+00 0.  1.
         -2   -1    0    0    0  501 -0.00000000000E+00 -0.00000000000E+00 -0.31342201419E+01  0.31342201419E+01  0.00000000000E+00 0. -1.
         21    1    1    2  502  501 -0.21828333063E+02 -0.17117731160E+01  0.51565132395E+02  0.56021149313E+02  0.00000000000E+00 0. -1.
         21    1    1    2  503  502  0.21828333063E+02  0.17117731160E+01  0.13134939169E+03  0.13316181506E+03  0.00000000000E+00 0.  1.
</event>
<event>
 4    1  0.5452128E+002  0.2905820E+02  0.7546771E-02  0.1427961E+00
          2   -1    0    0  503    0  0.00000000000E+00  0.00000000000E+00  0.13760753845E+04  0.13760753845E+04  0.00000000000E+00 0. -1.
         -2   -1    0    0    0  501 -0.00000000000E+00 -0.00000000000E+00 -0.63231982417E+00  0.63231982417E+00  0.00000000000E+00 0.  1.
         21    1    1    2  502  501 -0.26221353261E+02  0.12522753447E+02  0.56932604523E+03  0.57006712280E+03  0.00000000000E+00 0.  1.
         21    1    1    2  503  502  0.26221353261E+02 -0.12522753447E+02  0.80611701947E+03  0.80664058155E+03  0.00000000000E+00 0. -1.
</event>
<event>
 4    1  0.5452128E+002  0.2919544E+02  0.7546771E-02  0.1426719E+00
          2   -1    0    0  503    0  0.00000000000E+00  0.00000000000E+00  0.17578537337E+04  0.17578537337E+04  0.00000000000E+00 0. -1.
         -2   -1    0    0    0  501 -0.00000000000E+00 -0.00000000000E+00 -0.96851202093E+00  0.96851202093E+00  0.00000000000E+00 0.  1.
         21    1    1    2  502  501 -0.25376532077E+02  0.14436259194E+02  0.25701525159E+03  0.25866815326E+03  0.00000000000E+00 0.  1.
         21    1    1    2  503  502  0.25376532077E+02 -0.14436259194E+02  0.14998699701E+04  0.15001540925E+04  0.00000000000E+00 0. -1.
</event>
<event>
 4    1  0.5452128E+002  0.2072969E+02  0.7546771E-02  0.1523159E+00
          2   -1    0    0  503    0  0.00000000000E+00  0.00000000000E+00  0.14860391643E+02  0.14860391643E+02  0.00000000000E+00 0. -1.
         -2   -1    0    0    0  501 -0.00000000000E+00 -0.00000000000E+00 -0.28957210077E+02  0.28957210077E+02  0.00000000000E+00 0.  1.
         21    1    1    2  502  501 -0.11560162390E+02  0.17207053759E+02 -0.62334419763E+01  0.21646612955E+02  0.00000000000E+00 0. -1.
         21    1    1    2  503  502  0.11560162390E+02 -0.17207053759E+02 -0.78633764578E+01  0.22170988766E+02  0.00000000000E+00 0.  1.
</event>
<event>
 4    1  0.5452128E+002  0.2674130E+02  0.7546771E-02  0.1450224E+00
          2   -1    0    0  503    0  0.00000000000E+00  0.00000000000E+00  0.71677832630E+01  0.71677832630E+01  0.00000000000E+00 0. -1.
         -2   -1    0    0    0  501 -0.00000000000E+00 -0.00000000000E+00 -0.11863456409E+03  0.11863456409E+03  0.00000000000E+00 0.  1.
         21    1    1    2  502  501 -0.22355430022E+02  0.14674197382E+02 -0.80819225780E+02  0.85128400525E+02  0.00000000000E+00 0.  1.
         21    1    1    2  503  502  0.22355430022E+02 -0.14674197382E+02 -0.30647555049E+02  0.40673946830E+02  0.00000000000E+00 0. -1.
</event>
<event>
 4    1  0.5452128E+002  0.3017642E+02  0.7546771E-02  0.1418069E+00
          2   -1    0    0  503    0  0.00000000000E+00  0.00000000000E+00  0.55481122619E+01  0.55481122619E+01  0.00000000000E+00 0. -1.
         -2   -1    0    0    0  501 -0.00000000000E+00 -0.00000000000E+00 -0.19098406884E+03  0.19098406884E+03  0.00000000000E+00 0.  1.
         21    1    1    2  502  501  0.26425830181E+02  0.14570238874E+02 -0.12956507821E+03  0.13303279991E+03  0.00000000000E+00 0.  1.
         21    1    1    2  503  502 -0.26425830181E+02 -0.14570238874E+02 -0.55870878373E+02  0.63499381192E+02  0.00000000000E+00 0. -1.
</event>
<event>
 4    1  0.5452128E+002  0.2260146E+02  0.7546771E-02  0.1497564E+00
          2   -1    0    0  503    0  0.00000000000E+00  0.00000000000E+00  0.72727187149E+03  0.72727187149E+03  0.00000000000E+00 0. -1.
         -2   -1    0    0    0  501 -0.00000000000E+00 -0.00000000000E+00 -0.72481131007E+00  0.72481131007E+00  0.00000000000E+00 0.  1.
         21    1    1    2  502  501  0.21939302699E+02 -0.54307618485E+01  0.29924873297E+03  0.30010103359E+03  0.00000000000E+00 0.  1.
         21    1    1    2  503  502 -0.21939302699E+02  0.54307618485E+01  0.42729832721E+03  0.42789564921E+03  0.00000000000E+00 0. -1.
</event>
<event>
 4    1  0.5452128E+002  0.5786852E+02  0.7546771E-02  0.1267252E+00
          2   -1    0    0  502    0  0.00000000000E+00  0.00000000000E+00  0.86006164075E+02  0.86006164075E+02  0.00000000000E+00 0.  1.
         -2   -1    0    0    0  501 -0.00000000000E+00 -0.00000000000E+00 -0.64249770761E+02  0.64249770761E+02  0.00000000000E+00 0. -1.
         21    1    1    2  502  503 -0.22055617158E+02  0.53500616146E+02  0.58034663666E+02  0.81956014807E+02  0.00000000000E+00 0.  1.
         21    1    1    2  503  501  0.22055617158E+02 -0.53500616146E+02 -0.36278270352E+02  0.68299920029E+02  0.00000000000E+00 0. -1.
</event>
<event>
 4    1  0.5452128E+002  0.2152970E+02  0.7546771E-02  0.1511835E+00
          2   -1    0    0  503    0  0.00000000000E+00  0.00000000000E+00  0.61122959883E+03  0.61122959883E+03  0.00000000000E+00 0.  1.
         -2   -1    0    0    0  501 -0.00000000000E+00 -0.00000000000E+00 -0.11962897488E+01  0.11962897488E+01  0.00000000000E+00 0. -1.
         21    1    1    2  502  501  0.20794111811E+02  0.55796721502E+01  0.11974412651E+03  0.12166422507E+03  0.00000000000E+00 0. -1.
         21    1    1    2  503  502 -0.20794111811E+02 -0.55796721502E+01  0.49028918256E+03  0.49076166351E+03  0.00000000000E+00 0.  1.
</event>
<event>
 4    1  0.5452128E+002  0.2446144E+02  0.7546771E-02  0.1474919E+00
          2   -1    0    0  502    0  0.00000000000E+00  0.00000000000E+00  0.24008705004E+03  0.24008705004E+03  0.00000000000E+00 0.  1.
         -2   -1    0    0    0  501 -0.00000000000E+00 -0.00000000000E+00 -0.59760759130E+01  0.59760759130E+01  0.00000000000E+00 0. -1.
         21    1    1    2  502  503 -0.10173939120E+02 -0.22245295465E+02  0.21099219720E+03  0.21240543658E+03  0.00000000000E+00 0.  1.
         21    1    1    2  503  501  0.10173939120E+02  0.22245295465E+02  0.23118776922E+02  0.33657689372E+02  0.00000000000E+00 0. -1.
</event>
<event>
 4    1  0.5452128E+002  0.2700189E+02  0.7546771E-02  0.1447589E+00
          2   -1    0    0  503    0  0.00000000000E+00  0.00000000000E+00  0.64193963822E+03  0.64193963822E+03  0.00000000000E+00 0. -1.
         -2   -1    0    0    0  501 -0.00000000000E+00 -0.00000000000E+00 -0.23694046659E+01  0.23694046659E+01  0.00000000000E+00 0.  1.
         21    1    1    2  502  501  0.80438333291E+01 -0.25775930760E+02  0.87331543204E+02  0.91410613714E+02  0.00000000000E+00 0.  1.
         21    1    1    2  503  502 -0.80438333291E+01  0.25775930760E+02  0.55223869035E+03  0.55289842917E+03  0.00000000000E+00 0. -1.
</event>
<event>
 4    1  0.5452128E+002  0.2079925E+02  0.7546771E-02  0.1522150E+00
          2   -1    0    0  503    0  0.00000000000E+00  0.00000000000E+00  0.44183984625E+02  0.44183984625E+02  0.00000000000E+00 0.  1.
         -2   -1    0    0    0  501 -0.00000000000E+00 -0.00000000000E+00 -0.60012456389E+02  0.60012456389E+02  0.00000000000E+00 0. -1.
         21    1    1    2  502  501 -0.15889288603E+02 -0.13421599551E+02  0.39744937258E+02  0.44858319902E+02  0.00000000000E+00 0.  1.
         21    1    1    2  503  502  0.15889288603E+02  0.13421599551E+02 -0.55573409022E+02  0.59338121112E+02  0.00000000000E+00 0. -1.
</event>
<event>
 4    1  0.5452128E+002  0.2965838E+02  0.7546771E-02  0.1422589E+00
          2   -1    0    0  503    0  0.00000000000E+00  0.00000000000E+00  0.14199525327E+04  0.14199525327E+04  0.00000000000E+00 0. -1.
         -2   -1    0    0    0  501 -0.00000000000E+00 -0.00000000000E+00 -0.17108376366E+01  0.17108376366E+01  0.00000000000E+00 0.  1.
         21    1    1    2  502  501  0.25048955173E+02  0.15879843680E+02  0.14138320207E+03  0.14446047701E+03  0.00000000000E+00 0.  1.
         21    1    1    2  503  502 -0.25048955173E+02 -0.15879843680E+02  0.12768584930E+04  0.12772028933E+04  0.00000000000E+00 0. -1.
</event>
<event>
 4    1  0.5452128E+002  0.2161149E+02  0.7546771E-02  0.1510711E+00
          2   -1    0    0  502    0  0.00000000000E+00  0.00000000000E+00  0.18286776295E+02  0.18286776295E+02  0.00000000000E+00 0. -1.
         -2   -1    0    0    0  501 -0.00000000000E+00 -0.00000000000E+00 -0.29928106700E+02  0.29928106700E+02  0.00000000000E+00 0.  1.
         21    1    1    2  502  503  0.15112409848E+02  0.15448993226E+02  0.34096697485E+01  0.21878806432E+02  0.00000000000E+00 0. -1.
         21    1    1    2  503  501 -0.15112409848E+02 -0.15448993226E+02 -0.15051000154E+02  0.26336076563E+02  0.00000000000E+00 0.  1.
</event>
<event>
 4    1  0.5452128E+002  0.2343960E+02  0.7546771E-02  0.1487051E+00
          2   -1    0    0  503    0  0.00000000000E+00  0.00000000000E+00  0.53836460467E+01  0.53836460467E+01  0.00000000000E+00 0.  1.
         -2   -1    0    0    0  501 -0.00000000000E+00 -0.00000000000E+00 -0.14888053025E+03  0.14888053025E+03  0.00000000000E+00 0. -1.
         21    1    1    2  502  501  0.12604057505E+02  0.19762401901E+02 -0.11500668349E+03  0.11737100171E+03  0.00000000000E+00 0. -1.
         21    1    1    2  503  502 -0.12604057505E+02 -0.19762401901E+02 -0.28490200707E+02  0.36893174583E+02  0.00000000000E+00 0.  1.
</event>
<event>
 4    1  0.5452128E+002  0.2290717E+02  0.7546771E-02  0.1493667E+00
          2   -1    0    0  502    0  0.00000000000E+00  0.00000000000E+00  0.40509718781E+03  0.40509718781E+03  0.00000000000E+00 0. -1.
         -2   -1    0    0    0  501 -0.00000000000E+00 -0.00000000000E+00 -0.17776629245E+01  0.17776629245E+01  0.00000000000E+00 0.  1.
         21    1    1    2  502  503  0.71152824458E+01 -0.21774099595E+02  0.30762783182E+03  0.30847953185E+03  0.00000000000E+00 0. -1.
         21    1    1    2  503  501 -0.71152824458E+01  0.21774099595E+02  0.95691693062E+02  0.98395318885E+02  0.00000000000E+00 0.  1.
</event>
<event>
 4    1  0.5452128E+002  0.3018398E+02  0.7546771E-02  0.1418004E+00
          2   -1    0    0  503    0  0.00000000000E+00  0.00000000000E+00  0.48966623624E+02  0.48966623624E+02  0.00000000000E+00 0. -1.
         -2   -1    0    0    0  501 -0.00000000000E+00 -0.00000000000E+00 -0.45128209197E+03  0.45128209197E+03  0.00000000000E+00 0.  1.
         21    1    1    2  502  501  0.42474364848E+01 -0.29883642670E+02 -0.44607160803E+03  0.44709165985E+03  0.00000000000E+00 0.  1.
         21    1    1    2  503  502 -0.42474364848E+01  0.29883642670E+02  0.43756139681E+02  0.53157055748E+02  0.00000000000E+00 0. -1.
</event>
<event>
 4    1  0.5452128E+002  0.3205990E+02  0.7546771E-02  0.1402502E+00
          2   -1    0    0  502    0  0.00000000000E+00  0.00000000000E+00  0.13301507899E+03  0.13301507899E+03  0.00000000000E+00 0.  1.
         -2   -1    0    0    0  501 -0.00000000000E+00 -0.00000000000E+00 -0.15178969344E+02  0.15178969344E+02  0.00000000000E+00 0. -1.
         21    1    1    2  502  503 -0.24882782730E+02  0.20215942995E+02  0.11083494200E+03  0.11537860112E+03  0.00000000000E+00 0.  1.
         21    1    1    2  503  501  0.24882782730E+02 -0.20215942995E+02  0.70011676441E+01  0.32815447216E+02  0.00000000000E+00 0. -1.
</event>
<event>
 4    1  0.5452128E+002  0.2021811E+02  0.7546771E-02  0.1530727E+00
          2   -1    0    0  502    0  0.00000000000E+00  0.00000000000E+00  0.42723941220E+03  0.42723941220E+03  0.00000000000E+00 0. -1.
         -2   -1    0    0    0  501 -0.00000000000E+00 -0.00000000000E+00 -0.11754567044E+01  0.11754567044E+01  0.00000000000E+00 0.  1.
         21    1    1    2  502  503  0.15734532320E+02 -0.12696318845E+02  0.30542461720E+03  0.30609307213E+03  0.00000000000E+00 0. -1.
         21    1    1    2  503  501 -0.15734532320E+02  0.12696318845E+02  0.12063933830E+03  0.12232179677E+03  0.00000000000E+00 0.  1.
</event>
<event>
 4    1  0.5452128E+002  0.2777123E+02  0.7546771E-02  0.1440011E+00
          2   -1    0    0  502    0  0.00000000000E+00  0.00000000000E+00  0.92614651206E+01  0.92614651206E+01  0.00000000000E+00 0. -1.
         -2   -1    0    0    0  501 -0.00000000000E+00 -0.00000000000E+00 -0.84960180788E+02  0.84960180788E+02  0.00000000000E+00 0.  1.
         21    1    1    2  502  503  0.91562740289E+01 -0.26218382750E+02 -0.44485892726E+02  0.52442688716E+02  0.00000000000E+00 0. -1.
         21    1    1    2  503  501 -0.91562740289E+01  0.26218382750E+02 -0.31212822941E+02  0.41778957192E+02  0.00000000000E+00 0.  1.
</event>
<event>
 4    1  0.5452128E+002  0.3061886E+02  0.7546771E-02  0.1414293E+00
          2   -1    0    0  502    0  0.00000000000E+00  0.00000000000E+00  0.90474568109E+02  0.90474568109E+02  0.00000000000E+00 0.  1.
         -2   -1    0    0    0  501 -0.00000000000E+00 -0.00000000000E+00 -0.12594356904E+02  0.12594356904E+02  0.00000000000E+00 0. -1.
         21    1    1    2  502  503 -0.66497236584E+01  0.29888050785E+02  0.60635790517E+02  0.67928002297E+02  0.00000000000E+00 0.  1.
         21    1    1    2  503  501  0.66497236584E+01 -0.29888050785E+02  0.17244420688E+02  0.35140922716E+02  0.00000000000E+00 0. -1.
</event>
<event>
 4    1  0.5452128E+002  0.2273744E+02  0.7546771E-02  0.1495822E+00
          2   -1    0    0  503    0  0.00000000000E+00  0.00000000000E+00  0.34710404857E+03  0.34710404857E+03  0.00000000000E+00 0.  1.
         -2   -1    0    0    0  501 -0.00000000000E+00 -0.00000000000E+00 -0.18725429976E+01  0.18725429976E+01  0.00000000000E+00 0. -1.
         21    1    1    2  502  501  0.14187479458E+02 -0.17768140258E+02  0.93692134281E+02  0.96411655975E+02  0.00000000000E+00 0. -1.
         21    1    1    2  503  502 -0.14187479458E+02  0.17768140258E+02  0.25153937129E+03  0.25256493559E+03  0.00000000000E+00 0.  1.
</event>
<event>
 4    1  0.5452128E+002  0.2382241E+02  0.7546771E-02  0.1482421E+00
          2   -1    0    0  503    0  0.00000000000E+00  0.00000000000E+00  0.76190710162E+02  0.76190710162E+02  0.00000000000E+00 0. -1.
         -2   -1    0    0    0  501 -0.00000000000E+00 -0.00000000000E+00 -0.11241430416E+02  0.11241430416E+02  0.00000000000E+00 0.  1.
         21    1    1    2  502  501 -0.15085859112E+02 -0.18437032508E+02  0.70814559861E+01  0.24852652409E+02  0.00000000000E+00 0. -1.
         21    1    1    2  503  502  0.15085859112E+02  0.18437032508E+02  0.57867823760E+02  0.62579488169E+02  0.00000000000E+00 0.  1.
</event>
<event>
 4    1  0.5452128E+002  0.2389752E+02  0.7546771E-02  0.1481525E+00
          2   -1    0    0  503    0  0.00000000000E+00  0.00000000000E+00  0.17466986090E+03  0.17466986090E+03  0.00000000000E+00 0. -1.
         -2   -1    0    0    0  501 -0.00000000000E+00 -0.00000000000E+00 -0.38154637039E+01  0.38154637039E+01  0.00000000000E+00 0.  1.
         21    1    1    2  502  501  0.10389202690E+02  0.21521060847E+02  0.51670386624E+02  0.56929082607E+02  0.00000000000E+00 0. -1.
         21    1    1    2  503  502 -0.10389202690E+02 -0.21521060847E+02  0.11918401057E+03  0.12155624200E+03  0.00000000000E+00 0.  1.
</event>
<event>
 4    1  0.5452128E+002  0.4139523E+02  0.7546771E-02  0.1340498E+00
          2   -1    0    0  502    0  0.00000000000E+00  0.00000000000E+00  0.20802528245E+03  0.20802528245E+03  0.00000000000E+00 0.  1.
         -2   -1    0    0    0  501 -0.00000000000E+00 -0.00000000000E+00 -0.42940447662E+02  0.42940447662E+02  0.00000000000E+00 0. -1.
         21    1    1    2  502  503 -0.39889588016E+02  0.11062808742E+02  0.19534930762E+03  0.19968704754E+03  0.00000000000E+00 0.  1.
         21    1    1    2  503  501  0.39889588016E+02 -0.11062808742E+02 -0.30264472837E+02  0.51278682563E+02  0.00000000000E+00 0. -1.
</event>
<event>
 4    1  0.5452128E+002  0.5129361E+02  0.7546771E-02  0.1292659E+00
          2   -1    0    0  503    0  0.00000000000E+00  0.00000000000E+00  0.22223692875E+02  0.22223692875E+02  0.00000000000E+00 0. -1.
         -2   -1    0    0    0  501 -0.00000000000E+00 -0.00000000000E+00 -0.25866364112E+03  0.25866364112E+03  0.00000000000E+00 0.  1.
         21    1    1    2  502  501  0.55701182388E+01  0.50990272820E+02 -0.22164473191E+03  0.22750257432E+03  0.00000000000E+00 0.  1.
         21    1    1    2  503  502 -0.55701182388E+01 -0.50990272820E+02 -0.14795216340E+02  0.53384759679E+02  0.00000000000E+00 0. -1.
</event>
<event>
 4    1  0.5452128E+002  0.5324365E+02  0.7546771E-02  0.1284690E+00
          2   -1    0    0  503    0  0.00000000000E+00  0.00000000000E+00  0.10472335205E+04  0.10472335205E+04  0.00000000000E+00 0.  1.
         -2   -1    0    0    0  501 -0.00000000000E+00 -0.00000000000E+00 -0.34129594716E+01  0.34129594716E+01  0.00000000000E+00 0. -1.
         21    1    1    2  502  501  0.44287585599E+01  0.53059142946E+02  0.76082530898E+03  0.76268606735E+03  0.00000000000E+00 0. -1.
         21    1    1    2  503  502 -0.44287585599E+01 -0.53059142946E+02  0.28299525205E+03  0.28796041262E+03  0.00000000000E+00 0.  1.
</event>
<event>
 4    1  0.5452128E+002  0.2785941E+02  0.7546771E-02  0.1439161E+00
          2   -1    0    0  502    0  0.00000000000E+00  0.00000000000E+00  0.13984445243E+04  0.13984445243E+04  0.00000000000E+00 0.  1.
         -2   -1    0    0    0  501 -0.00000000000E+00 -0.00000000000E+00 -0.57729995255E+00  0.57729995255E+00  0.00000000000E+00 0. -1.
         21    1    1    2  502  503  0.19971812092E+02 -0.19423521456E+02  0.83639406811E+03  0.83685792321E+03  0.00000000000E+00 0.  1.
         21    1    1    2  503  501 -0.19971812092E+02  0.19423521456E+02  0.56147315622E+03  0.56216390103E+03  0.00000000000E+00 0. -1.
</event>
<event>
 4    1  0.5452128E+002  0.2828046E+02  0.7546771E-02  0.1435153E+00
          2   -1    0    0  502    0  0.00000000000E+00  0.00000000000E+00  0.31843255887E+02  0.31843255887E+02  0.00000000000E+00 0.  1.
         -2   -1    0    0    0  501 -0.00000000000E+00 -0.00000000000E+00 -0.59160786373E+02  0.59160786373E+02  0.00000000000E+00 0. -1.
         21    1    1    2  502  503  0.26632215208E+02 -0.95136358996E+01  0.20858567945E+02  0.35140631919E+02  0.00000000000E+00 0.  1.
         21    1    1    2  503  501 -0.26632215208E+02  0.95136358996E+01 -0.48176098431E+02  0.55863410341E+02  0.00000000000E+00 0. -1.
</event>
<event>
 4    1  0.5452128E+002  0.2051675E+02  0.7546771E-02  0.1526277E+00
          2   -1    0    0  502    0  0.00000000000E+00  0.00000000000E+00  0.61445260311E+03  0.61445260311E+03  0.00000000000E+00 0.  1.
         -2   -1    0    0    0  501 -0.00000000000E+00 -0.00000000000E+00 -0.11669477943E+01  0.11669477943E+01  0.00000000000E+00 0. -1.
         21    1    1    2  502  503  0.14958857030E+02  0.14041716984E+02  0.50444425600E+03  0.50486131228E+03  0.00000000000E+00 0.  1.
         21    1    1    2  503  501 -0.14958857030E+02 -0.14041716984E+02  0.10884139931E+03  0.11075823863E+03  0.00000000000E+00 0. -1.
</event>
<event>
 4    1  0.5452128E+002  0.2944740E+02  0.7546771E-02  0.1424460E+00
          2   -1    0    0  503    0  0.00000000000E+00  0.00000000000E+00  0.57862148705E+03  0.57862148705E+03  0.00000000000E+00 0.  1.
         -2   -1    0    0    0  501 -0.00000000000E+00 -0.00000000000E+00 -0.19929520534E+01  0.19929520534E+01  0.00000000000E+00 0. -1.
         21    1    1    2  502  501  0.28889137556E+02  0.57067392841E+01  0.43289389399E+03  0.43389431040E+03  0.00000000000E+00 0.  1.
         21    1    1    2  503  502 -0.28889137556E+02 -0.57067392841E+01  0.14373464100E+03  0.14672012870E+03  0.00000000000E+00 0. -1.
</event>
<event>
 4    1  0.5452128E+002  0.2134626E+02  0.7546771E-02  0.1514378E+00
          2   -1    0    0  502    0  0.00000000000E+00  0.00000000000E+00  0.38594741134E+03  0.38594741134E+03  0.00000000000E+00 0. -1.
         -2   -1    0    0    0  501 -0.00000000000E+00 -0.00000000000E+00 -0.39067629138E+01  0.39067629138E+01  0.00000000000E+00 0.  1.
         21    1    1    2  502  503 -0.18434711069E+02 -0.10762160207E+02  0.35385123551E+03  0.35449451270E+03  0.00000000000E+00 0. -1.
         21    1    1    2  503  501  0.18434711069E+02  0.10762160207E+02  0.28189412922E+02  0.35359661556E+02  0.00000000000E+00 0.  1.
</event>
<event>
 4    1  0.5452128E+002  0.2714485E+02  0.7546771E-02  0.1446158E+00
          2   -1    0    0  502    0  0.00000000000E+00  0.00000000000E+00  0.17023001427E+01  0.17023001427E+01  0.00000000000E+00 0. -1.
         -2   -1    0    0    0  501 -0.00000000000E+00 -0.00000000000E+00 -0.58641807129E+03  0.58641807129E+03  0.00000000000E+00 0.  1.
         21    1    1    2  502  503  0.32787220904E+01  0.26946114099E+02 -0.14187712748E+03  0.14445055343E+03  0.00000000000E+00 0. -1.
         21    1    1    2  503  501 -0.32787220904E+01 -0.26946114099E+02 -0.44283864367E+03  0.44366981801E+03  0.00000000000E+00 0.  1.
</event>
<event>
 4    1  0.5452128E+002  0.2559345E+02  0.7546771E-02  0.1462273E+00
          2   -1    0    0  503    0  0.00000000000E+00  0.00000000000E+00  0.18469979472E+04  0.18469979472E+04  0.00000000000E+00 0. -1.
         -2   -1    0    0    0  501 -0.00000000000E+00 -0.00000000000E+00 -0.57106465838E+00  0.57106465838E+00  0.00000000000E+00 0.  1.
         21    1    1    2  502  501  0.24142100556E+02  0.84960937672E+01  0.35451958577E+03  0.35544220532E+03  0.00000000000E+00 0.  1.
         21    1    1    2  503  502 -0.24142100556E+02 -0.84960937672E+01  0.14919072968E+04  0.14921268065E+04  0.00000000000E+00 0. -1.
</event>
<event>
 4    1  0.5452128E+002  0.5711264E+02  0.7546771E-02  0.1269971E+00
          2   -1    0    0  503    0  0.00000000000E+00  0.00000000000E+00  0.61308804846E+02  0.61308804846E+02  0.00000000000E+00 0. -1.
         -2   -1    0    0    0  501 -0.00000000000E+00 -0.00000000000E+00 -0.63899994837E+02  0.63899994837E+02  0.00000000000E+00 0.  1.
         21    1    1    2  502  501  0.40237812223E+02 -0.40531124239E+02 -0.26909257883E+02  0.63134473344E+02  0.00000000000E+00 0.  1.
         21    1    1    2  503  502 -0.40237812223E+02  0.40531124239E+02  0.24318067892E+02  0.62074326340E+02  0.00000000000E+00 0. -1.
</event>
<event>
 4    1  0.5452128E+002  0.3802257E+02  0.7546771E-02  0.1360480E+00
          2   -1    0    0  502    0  0.00000000000E+00  0.00000000000E+00  0.27327732322E+04  0.27327732322E+04  0.00000000000E+00 0. -1.
         -2   -1    0    0    0  501 -0.00000000000E+00 -0.00000000000E+00 -0.63857349018E+00  0.63857349018E+00  0.00000000000E+00 0.  1.
         21    1    1    2  502  503  0.28360502398E+02 -0.25325832501E+02  0.80000378223E+03  0.80090684069E+03  0.00000000000E+00 0. -1.
         21    1    1    2  503  501 -0.28360502398E+02  0.25325832501E+02  0.19321308765E+04  0.19325049650E+04  0.00000000000E+00 0.  1.
</event>
<event>
 4    1  0.5452128E+002  0.2315649E+02  0.7546771E-02  0.1490542E+00
          2   -1    0    0  503    0  0.00000000000E+00  0.00000000000E+00  0.16932888838E+04  0.16932888838E+04  0.00000000000E+00 0.  1.
         -2   -1    0    0    0  501 -0.00000000000E+00 -0.00000000000E+00 -0.55419299581E+00  0.55419299581E+00  0.00000000000E+00 0. -1.
         21    1    1    2  502  501 -0.99858469908E+01 -0.20892723121E+02  0.29191974294E+03  0.29283674520E+03  0.00000000000E+00 0. -1.
         21    1    1    2  503  502  0.99858469908E+01  0.20892723121E+02  0.14008149478E+04  0.14010063316E+04  0.00000000000E+00 0.  1.
</event>
<event>
 4    1  0.5452128E+002  0.2779010E+02  0.7546771E-02  0.1439829E+00
          2   -1    0    0  503    0  0.00000000000E+00  0.00000000000E+00  0.14176507762E+04  0.14176507762E+04  0.00000000000E+00 0. -1.
         -2   -1    0    0    0  501 -0.00000000000E+00 -0.00000000000E+00 -0.56313037193E+00  0.56313037193E+00  0.00000000000E+00 0.  1.
         21    1    1    2  502  501  0.15114072453E+02  0.23320688135E+02  0.58049346176E+03  0.58115828208E+03  0.00000000000E+00 0.  1.
         21    1    1    2  503  502 -0.15114072453E+02 -0.23320688135E+02  0.83659418404E+03  0.83705562447E+03  0.00000000000E+00 0. -1.
</event>
<event>
 4    1  0.5452128E+002  0.2255110E+02  0.7546771E-02  0.1498213E+00
          2   -1    0    0  502    0  0.00000000000E+00  0.00000000000E+00  0.11325444338E+04  0.11325444338E+04  0.00000000000E+00 0. -1.
         -2   -1    0    0    0  501 -0.00000000000E+00 -0.00000000000E+00 -0.54518465699E+01  0.54518465699E+01  0.00000000000E+00 0.  1.
         21    1    1    2  502  503 -0.20174747431E+02  0.10076288208E+02  0.11086085502E+04  0.11088378914E+04  0.00000000000E+00 0. -1.
         21    1    1    2  503  501  0.20174747431E+02 -0.10076288208E+02  0.18484037057E+02  0.29158388911E+02  0.00000000000E+00 0.  1.
</event>
<event>
 4    1  0.5452128E+002  0.2895655E+02  0.7546771E-02  0.1428886E+00
          2   -1    0    0  503    0  0.00000000000E+00  0.00000000000E+00  0.57490376078E+02  0.57490376078E+02  0.00000000000E+00 0. -1.
         -2   -1    0    0    0  501 -0.00000000000E+00 -0.00000000000E+00 -0.14621738659E+02  0.14621738659E+02  0.00000000000E+00 0.  1.
         21    1    1    2  502  501 -0.28712701664E+02  0.37500167017E+01  0.19620453757E+02  0.34977765334E+02  0.00000000000E+00 0. -1.
         21    1    1    2  503  502  0.28712701664E+02 -0.37500167017E+01  0.23248183662E+02  0.37134349404E+02  0.00000000000E+00 0.  1.
</event>
<event>
 4    1  0.5452128E+002  0.2178822E+02  0.7546771E-02  0.1508302E+00
          2   -1    0    0  502    0  0.00000000000E+00  0.00000000000E+00  0.28911333411E+02  0.28911333411E+02  0.00000000000E+00 0. -1.
         -2   -1    0    0    0  501 -0.00000000000E+00 -0.00000000000E+00 -0.36402113855E+03  0.36402113855E+03  0.00000000000E+00 0.  1.
         21    1    1    2  502  503  0.15650454407E+02  0.15158825114E+02  0.24429153011E+02  0.32733930696E+02  0.00000000000E+00 0. -1.
         21    1    1    2  503  501 -0.15650454407E+02 -0.15158825114E+02 -0.35953895815E+03  0.36019854127E+03  0.00000000000E+00 0.  1.
</event>
<event>
 4    1  0.5452128E+002  0.3146874E+02  0.7546771E-02  0.1407248E+00
          2   -1    0    0  502    0  0.00000000000E+00  0.00000000000E+00  0.31688997532E+02  0.31688997532E+02  0.00000000000E+00 0.  1.
         -2   -1    0    0    0  501 -0.00000000000E+00 -0.00000000000E+00 -0.38364395374E+02  0.38364395374E+02  0.00000000000E+00 0. -1.
         21    1    1    2  502  503 -0.78522684734E+01  0.30473323502E+02  0.11745852911E+02  0.33589382639E+02  0.00000000000E+00 0. -1.
         21    1    1    2  503  501  0.78522684734E+01 -0.30473323502E+02 -0.18421250753E+02  0.36464010267E+02  0.00000000000E+00 0.  1.
</event>
<event>
 4    1  0.5452128E+002  0.3489056E+02  0.7546771E-02  0.1381334E+00
          2   -1    0    0  502    0  0.00000000000E+00  0.00000000000E+00  0.27889341344E+04  0.27889341344E+04  0.00000000000E+00 0.  1.
         -2   -1    0    0    0  501 -0.00000000000E+00 -0.00000000000E+00 -0.14862414770E+01  0.14862414770E+01  0.00000000000E+00 0. -1.
         21    1    1    2  502  503  0.32933715920E+02  0.11520491461E+02  0.25662904735E+04  0.25665276436E+04  0.00000000000E+00 0.  1.
         21    1    1    2  503  501 -0.32933715920E+02 -0.11520491461E+02  0.22115741950E+03  0.22389273228E+03  0.00000000000E+00 0. -1.
</event>
<event>
 4    1  0.5452128E+002  0.2552715E+02  0.7546771E-02  0.1462992E+00
          2   -1    0    0  502    0  0.00000000000E+00  0.00000000000E+00  0.40904347828E+02  0.40904347828E+02  0.00000000000E+00 0.  1.
         -2   -1    0    0    0  501 -0.00000000000E+00 -0.00000000000E+00 -0.20267547124E+02  0.20267547124E+02  0.00000000000E+00 0. -1.
         21    1    1    2  502  503  0.55300570276E+01  0.24920956799E+02  0.24466806309E+02  0.35359019068E+02  0.00000000000E+00 0.  1.
         21    1    1    2  503  501 -0.55300570276E+01 -0.24920956799E+02 -0.38300056056E+01  0.25812875884E+02  0.00000000000E+00 0. -1.
</event>
<event>
 4    1  0.5452128E+002  0.2474888E+02  0.7546771E-02  0.1471632E+00
          2   -1    0    0  503    0  0.00000000000E+00  0.00000000000E+00  0.14892434984E+03  0.14892434984E+03  0.00000000000E+00 0. -1.
         -2   -1    0    0    0  501 -0.00000000000E+00 -0.00000000000E+00 -0.53095222971E+01  0.53095222971E+01  0.00000000000E+00 0.  1.
         21    1    1    2  502  501 -0.12889347157E+02 -0.21127515749E+02  0.10841787303E+03  0.11120675512E+03  0.00000000000E+00 0. -1.
         21    1    1    2  503  502  0.12889347157E+02  0.21127515749E+02  0.35196954514E+02  0.43027117019E+02  0.00000000000E+00 0.  1.
</event>
<event>
 4    1  0.5452128E+002  0.2746984E+02  0.7546771E-02  0.1442945E+00
          2   -1    0    0  502    0  0.00000000000E+00  0.00000000000E+00  0.83938533853E+03  0.83938533853E+03  0.00000000000E+00 0. -1.
         -2   -1    0    0    0  501 -0.00000000000E+00 -0.00000000000E+00 -0.37403013618E+01  0.37403013618E+01  0.00000000000E+00 0.  1.
         21    1    1    2  502  503 -0.21676860053E+02 -0.16873222911E+02  0.78524782483E+03  0.78572815802E+03  0.00000000000E+00 0. -1.
         21    1    1    2  503  501  0.21676860053E+02  0.16873222911E+02  0.50397212336E+02  0.57397481865E+02  0.00000000000E+00 0.  1.
</event>
<event>
 4    1  0.5452128E+002  0.2055153E+02  0.7546771E-02  0.1525765E+00
          2   -1    0    0  502    0  0.00000000000E+00  0.00000000000E+00  0.22702396808E+02  0.22702396808E+02  0.00000000000E+00 0. -1.
         -2   -1    0    0    0  501 -0.00000000000E+00 -0.00000000000E+00 -0.39495584938E+02  0.39495584938E+02  0.00000000000E+00 0.  1.
         21    1    1    2  502  503  0.19671349805E+02 -0.59500761324E+01  0.14221350181E+02  0.24992242998E+02  0.00000000000E+00 0. -1.
         21    1    1    2  503  501 -0.19671349805E+02  0.59500761324E+01 -0.31014538311E+02  0.37205738748E+02  0.00000000000E+00 0.  1.
</event>
<event>
 4    1  0.5452128E+002  0.2300574E+02  0.7546771E-02  0.1492426E+00
          2   -1    0    0  502    0  0.00000000000E+00  0.00000000000E+00  0.35939679804E+03  0.35939679804E+03  0.00000000000E+00 0. -1.
         -2   -1    0    0    0  501 -0.00000000000E+00 -0.00000000000E+00 -0.14783286475E+01  0.14783286475E+01  0.00000000000E+00 0.  1.
         21    1    1    2  502  503 -0.15635219888E+02  0.16876134481E+02  0.19014697674E+03  0.19153364399E+03  0.00000000000E+00 0.  1.
         21    1    1    2  503  501  0.15635219888E+02 -0.16876134481E+02  0.16777149265E+03  0.16934148270E+03  0.00000000000E+00 0. -1.
</event>
<event>
 4    1  0.5452128E+002  0.2266505E+02  0.7546771E-02  0.1496748E+00
          2   -1    0    0  503    0  0.00000000000E+00  0.00000000000E+00  0.75710214980E+02  0.75710214980E+02  0.00000000000E+00 0.  1.
         -2   -1    0    0    0  501 -0.00000000000E+00 -0.00000000000E+00 -0.67888105151E+01  0.67888105151E+01  0.00000000000E+00 0. -1.
         21    1    1    2  502  501  0.12971549148E+02  0.18586102455E+02  0.33501353846E+02  0.40448053121E+02  0.00000000000E+00 0. -1.
         21    1    1    2  503  502 -0.12971549148E+02 -0.18586102455E+02  0.35420050618E+02  0.42050972373E+02  0.00000000000E+00 0.  1.
</event>
<event>
 4    1  0.5452128E+002  0.2202523E+02  0.7546771E-02  0.1505115E+00
          2   -1    0    0  503    0  0.00000000000E+00  0.00000000000E+00  0.33082287750E+01  0.33082287750E+01  0.00000000000E+00 0.  1.
         -2   -1    0    0    0  501 -0.00000000000E+00 -0.00000000000E+00 -0.15900523306E+03  0.15900523306E+03  0.00000000000E+00 0. -1.
         21    1    1    2  502  501  0.59663314013E+01 -0.21201736478E+02 -0.10048254149E+03  0.10286812862E+03  0.00000000000E+00 0.  1.
         21    1    1    2  503  502 -0.59663314013E+01  0.21201736478E+02 -0.55214462788E+02  0.59445333215E+02  0.00000000000E+00 0. -1.
</event>
<event>
 4    1  0.5452128E+002  0.2071249E+02  0.7546771E-02  0.1523410E+00
          2   -1    0    0  503    0  0.00000000000E+00  0.00000000000E+00  0.74984897065E+03  0.74984897065E+03  0.00000000000E+00 0.  1.
         -2   -1    0    0    0  501 -0.00000000000E+00 -0.00000000000E+00 -0.92711054448E+00  0.92711054448E+00  0.00000000000E+00 0. -1.
         21    1    1    2  502  501 -0.12780772202E+02 -0.16299047493E+02  0.14217643890E+03  0.14367723155E+03  0.00000000000E+00 0. -1.
         21    1    1    2  503  502  0.12780772202E+02  0.16299047493E+02  0.60674542120E+03  0.60709884964E+03  0.00000000000E+00 0.  1.
</event>
<event>
 4    1  0.5452128E+002  0.4112264E+02  0.7546771E-02  0.1342030E+00
          2   -1    0    0  503    0  0.00000000000E+00  0.00000000000E+00  0.53110234654E+03  0.53110234654E+03  0.00000000000E+00 0.  1.
         -2   -1    0    0    0  501 -0.00000000000E+00 -0.00000000000E+00 -0.15112611538E+02  0.15112611538E+02  0.00000000000E+00 0. -1.
         21    1    1    2  502  501  0.15370745522E+02  0.38141995940E+02  0.15357687978E+02  0.43896813691E+02  0.00000000000E+00 0. -1.
         21    1    1    2  503  502 -0.15370745522E+02 -0.38141995940E+02  0.50063204703E+03  0.50231814439E+03  0.00000000000E+00 0.  1.
</event>
<event>
 4    1  0.5452128E+002  0.2145405E+02  0.7546771E-02  0.1512880E+00
          2   -1    0    0  502    0  0.00000000000E+00  0.00000000000E+00  0.32463356518E+02  0.32463356518E+02  0.00000000000E+00 0. -1.
         -2   -1    0    0    0  501 -0.00000000000E+00 -0.00000000000E+00 -0.43976488928E+02  0.43976488928E+02  0.00000000000E+00 0.  1.
         21    1    1    2  502  503  0.21452813671E+02 -0.22991346623E+00  0.25704560260E+02  0.33481345445E+02  0.00000000000E+00 0. -1.
         21    1    1    2  503  501 -0.21452813671E+02  0.22991346623E+00 -0.37217692671E+02  0.42958500001E+02  0.00000000000E+00 0.  1.
</event>
<event>
 4    1  0.5452128E+002  0.2011314E+02  0.7546771E-02  0.1532313E+00
          2   -1    0    0  503    0  0.00000000000E+00  0.00000000000E+00  0.43153875576E+01  0.43153875576E+01  0.00000000000E+00 0. -1.
         -2   -1    0    0    0  501 -0.00000000000E+00 -0.00000000000E+00 -0.97593048407E+02  0.97593048407E+02  0.00000000000E+00 0.  1.
         21    1    1    2  502  501  0.17174876814E+02 -0.10467184703E+02 -0.56759076481E+02  0.60217365536E+02  0.00000000000E+00 0. -1.
         21    1    1    2  503  502 -0.17174876814E+02  0.10467184703E+02 -0.36518584368E+02  0.41691070428E+02  0.00000000000E+00 0.  1.
</event>
<event>
 4    1  0.5452128E+002  0.2420031E+02  0.7546771E-02  0.1477952E+00
          2   -1    0    0  503    0  0.00000000000E+00  0.00000000000E+00  0.23979038171E+03  0.23979038171E+03  0.00000000000E+00 0. -1.
         -2   -1    0    0    0  501 -0.00000000000E+00 -0.00000000000E+00 -0.68884936149E+02  0.68884936149E+02  0.00000000000E+00 0.  1.
         21    1    1    2  502  501  0.12009146234E+02  0.21010361200E+02 -0.66124171282E+02  0.70413499407E+02  0.00000000000E+00 0.  1.
         21    1    1    2  503  502 -0.12009146234E+02 -0.21010361200E+02  0.23702961685E+03  0.23826181846E+03  0.00000000000E+00 0. -1.
</event>
<event>
 4    1  0.5452128E+002  0.3598163E+02  0.7546771E-02  0.1373790E+00
          2   -1    0    0  503    0  0.00000000000E+00  0.00000000000E+00  0.19193065817E+04  0.19193065817E+04  0.00000000000E+00 0. -1.
         -2   -1    0    0    0  501 -0.00000000000E+00 -0.00000000000E+00 -0.79649354557E+00  0.79649354557E+00  0.00000000000E+00 0.  1.
         21    1    1    2  502  501  0.24591580141E+02  0.26266552540E+02  0.58361303118E+03  0.58472117095E+03  0.00000000000E+00 0.  1.
         21    1    1    2  503  502 -0.24591580141E+02 -0.26266552540E+02  0.13348970570E+04  0.13353819043E+04  0.00000000000E+00 0. -1.
</event>
<event>
 4    1  0.5452128E+002  0.2241777E+02  0.7546771E-02  0.1499942E+00
          2   -1    0    0  503    0  0.00000000000E+00  0.00000000000E+00  0.31723177641E+02  0.31723177641E+02  0.00000000000E+00 0.  1.
         -2   -1    0    0    0  501 -0.00000000000E+00 -0.00000000000E+00 -0.26276802468E+02  0.26276802468E+02  0.00000000000E+00 0. -1.
         21    1    1    2  502  501 -0.22082931809E+02  0.38600959561E+01 -0.15551722817E+02  0.27283920185E+02  0.00000000000E+00 0. -1.
         21    1    1    2  503  502  0.22082931809E+02 -0.38600959561E+01  0.20998097991E+02  0.30716059924E+02  0.00000000000E+00 0.  1.
</event>
<event>
 4    1  0.5452128E+002  0.5107740E+02  0.7546771E-02  0.1293568E+00
          2   -1    0    0  502    0  0.00000000000E+00  0.00000000000E+00  0.25927284338E+04  0.25927284338E+04  0.00000000000E+00 0.  1.
         -2   -1    0    0    0  501 -0.00000000000E+00 -0.00000000000E+00 -0.21383007624E+01  0.21383007624E+01  0.00000000000E+00 0. -1.
         21    1    1    2  502  503 -0.44399959632E+02  0.25249645355E+02  0.22393254762E+04  0.22399079198E+04  0.00000000000E+00 0.  1.
         21    1    1    2  503  501  0.44399959632E+02 -0.25249645355E+02  0.35126465688E+03  0.35495881476E+03  0.00000000000E+00 0. -1.
</event>
<event>
 4    1  0.5452128E+002  0.2345687E+02  0.7546771E-02  0.1486840E+00
          2   -1    0    0  502    0  0.00000000000E+00  0.00000000000E+00  0.10492278066E+04  0.10492278066E+04  0.00000000000E+00 0. -1.
         -2   -1    0    0    0  501 -0.00000000000E+00 -0.00000000000E+00 -0.37068306293E+01  0.37068306293E+01  0.00000000000E+00 0.  1.
         21    1    1    2  502  503 -0.21623873247E+02 -0.90902625591E+01  0.10105684527E+04  0.10108406513E+04  0.00000000000E+00 0. -1.
         21    1    1    2  503  501  0.21623873247E+02  0.90902625591E+01  0.34952523329E+02  0.42093985968E+02  0.00000000000E+00 0.  1.
</event>
<event>
 4    1  0.5452128E+002  0.3775293E+02  0.7546771E-02  0.1362182E+00
          2   -1    0    0  503    0  0.00000000000E+00  0.00000000000E+00  0.63279056544E+03  0.63279056544E+03  0.00000000000E+00 0.  1.
         -2   -1    0    0    0  501 -0.00000000000E+00 -0.00000000000E+00 -0.25839621395E+01  0.25839621395E+01  0.00000000000E+00 0. -1.
         21    1    1    2  502  501  0.28035559917E+02  0.25284206368E+02  0.20130037351E+03  0.20480997067E+03  0.00000000000E+00 0. -1.
         21    1    1    2  503  502 -0.28035559917E+02 -0.25284206368E+02  0.42890622979E+03  0.43056455691E+03  0.00000000000E+00 0.  1.
</event>
<event>
 4    1  0.5452128E+002  0.2134518E+02  0.7546771E-02  0.1514393E+00
          2   -1    0    0  502    0  0.00000000000E+00  0.00000000000E+00  0.64323303607E+01  0.64323303607E+01  0.00000000000E+00 0.  1.
         -2   -1    0    0    0  501 -0.00000000000E+00 -0.00000000000E+00 -0.80290266148E+02  0.80290266148E+02  0.00000000000E+00 0. -1.
         21    1    1    2  502  503  0.21100136004E+02  0.32250826688E+01 -0.22046697456E+02  0.30686703413E+02  0.00000000000E+00 0.  1.
         21    1    1    2  503  501 -0.21100136004E+02 -0.32250826688E+01 -0.51811238331E+02  0.56035893095E+02  0.00000000000E+00 0. -1.
</event>
<event>
 4    1  0.5452128E+002  0.4438479E+02  0.7546771E-02  0.1324545E+00
          2   -1    0    0  503    0  0.00000000000E+00  0.00000000000E+00  0.15712443107E+02  0.15712443107E+02  0.00000000000E+00 0.  1.
         -2   -1    0    0    0  501 -0.00000000000E+00 -0.00000000000E+00 -0.13000135911E+03  0.13000135911E+03  0.00000000000E+00 0. -1.
         21    1    1    2  502  501 -0.24892122301E+02  0.36747674653E+02 -0.70882718819E+02  0.83632345251E+02  0.00000000000E+00 0.  1.
         21    1    1    2  503  502  0.24892122301E+02 -0.36747674653E+02 -0.43406197184E+02  0.62081456966E+02  0.00000000000E+00 0. -1.
</event>
<event>
 4    1  0.5452128E+002  0.2610199E+02  0.7546771E-02  0.1456843E+00
          2   -1    0    0  502    0  0.00000000000E+00  0.00000000000E+00  0.66628959352E+01  0.66628959352E+01  0.00000000000E+00 0.  1.
         -2   -1    0    0    0  501 -0.00000000000E+00 -0.00000000000E+00 -0.11925391542E+03  0.11925391542E+03  0.00000000000E+00 0. -1.
         21    1    1    2  502  503 -0.22689773391E+02  0.12903019097E+02 -0.80065519350E+02  0.84212832200E+02  0.00000000000E+00 0. -1.
         21    1    1    2  503  501  0.22689773391E+02 -0.12903019097E+02 -0.32525500135E+02  0.41703979156E+02  0.00000000000E+00 0.  1.
</event>
<event>
 4    1  0.5452128E+002  0.6275765E+02  0.7546771E-02  0.1250740E+00
          2   -1    0    0  502    0  0.00000000000E+00  0.00000000000E+00  0.11351285266E+02  0.11351285266E+02  0.00000000000E+00 0. -1.
         -2   -1    0    0    0  501 -0.00000000000E+00 -0.00000000000E+00 -0.40719708310E+03  0.40719708310E+03  0.00000000000E+00 0.  1.
         21    1    1    2  502  503  0.54798157655E+02  0.30588965224E+02 -0.11743703885E+03  0.13315397466E+03  0.00000000000E+00 0.  1.
         21    1    1    2  503  501 -0.54798157655E+02 -0.30588965224E+02 -0.27840875899E+03  0.28539439371E+03  0.00000000000E+00 0. -1.
</event>
<event>
 4    1  0.5452128E+002  0.2106948E+02  0.7546771E-02  0.1518275E+00
          2   -1    0    0  503    0  0.00000000000E+00  0.00000000000E+00  0.29141798097E+02  0.29141798097E+02  0.00000000000E+00 0. -1.
         -2   -1    0    0    0  501 -0.00000000000E+00 -0.00000000000E+00 -0.40261055566E+02  0.40261055566E+02  0.00000000000E+00 0.  1.
         21    1    1    2  502  501  0.75377002314E+01 -0.19675016102E+02 -0.32919652551E+02  0.39084865452E+02  0.00000000000E+00 0.  1.
         21    1    1    2  503  502 -0.75377002314E+01  0.19675016102E+02  0.21800395082E+02  0.30317988210E+02  0.00000000000E+00 0. -1.
</event>
<event>
 4    1  0.5452128E+002  0.2014096E+02  0.7546771E-02  0.1531892E+00
          2   -1    0    0  502    0  0.00000000000E+00  0.00000000000E+00  0.31528564364E+02  0.31528564364E+02  0.00000000000E+00 0.  1.
         -2   -1    0    0    0  501 -0.00000000000E+00 -0.00000000000E+00 -0.20308546147E+02  0.20308546147E+02  0.00000000000E+00 0. -1.
         21    1    1    2  502  503 -0.16034554230E+02  0.12188156252E+02  0.21299954447E+02  0.29314606285E+02  0.00000000000E+00 0.  1.
         21    1    1    2  503  501  0.16034554230E+02 -0.12188156252E+02 -0.10079936230E+02  0.22522504226E+02  0.00000000000E+00 0. -1.
</event>
<event>
 4    1  0.5452128E+002  0.2502500E+02  0.7546771E-02  0.1468524E+00
          2   -1    0    0  502    0  0.00000000000E+00  0.00000000000E+00  0.79713870142E+03  0.79713870142E+03  0.00000000000E+00 0.  1.
         -2   -1    0    0    0  501 -0.00000000000E+00 -0.00000000000E+00 -0.13218231348E+01  0.13218231348E+01  0.00000000000E+00 0. -1.
         21    1    1    2  502  503  0.10427982785E+02 -0.22748798712E+02  0.65218138402E+03  0.65266132744E+03  0.00000000000E+00 0.  1.
         21    1    1    2  503  501 -0.10427982785E+02  0.22748798712E+02  0.14363549426E+03  0.14579919712E+03  0.00000000000E+00 0. -1.
</event>
<event>
 4    1  0.5452128E+002  0.2487844E+02  0.7546771E-02  0.1470168E+00
          2   -1    0    0  503    0  0.00000000000E+00  0.00000000000E+00  0.53729782440E+03  0.53729782440E+03  0.00000000000E+00 0.  1.
         -2   -1    0    0    0  501 -0.00000000000E+00 -0.00000000000E+00 -0.11842403990E+01  0.11842403990E+01  0.00000000000E+00 0. -1.
         21    1    1    2  502  501 -0.23677976115E+02  0.76348010930E+01  0.31252008973E+03  0.31350876100E+03  0.00000000000E+00 0.  1.
         21    1    1    2  503  502  0.23677976115E+02 -0.76348010930E+01  0.22359349427E+03  0.22497330380E+03  0.00000000000E+00 0. -1.
</event>
<event>
 4    1  0.5452128E+002  0.2300780E+02  0.7546771E-02  0.1492400E+00
          2   -1    0    0  502    0  0.00000000000E+00  0.00000000000E+00  0.56685016072E+02  0.56685016072E+02  0.00000000000E+00 0.  1.
         -2   -1    0    0    0  501 -0.00000000000E+00 -0.00000000000E+00 -0.13123504356E+03  0.13123504356E+03  0.00000000000E+00 0. -1.
         21    1    1    2  502  503  0.21515329874E+02  0.81516539327E+01  0.53280259945E+02  0.58035721597E+02  0.00000000000E+00 0.  1.
         21    1    1    2  503  501 -0.21515329874E+02 -0.81516539327E+01 -0.12783028743E+03  0.12988433803E+03  0.00000000000E+00 0. -1.
</event>
<event>
 4    1  0.5452128E+002  0.2903718E+02  0.7546771E-02  0.1428152E+00
          2   -1    0    0  503    0  0.00000000000E+00  0.00000000000E+00  0.45910307791E+02  0.45910307791E+02  0.00000000000E+00 0.  1.
         -2   -1    0    0    0  501 -0.00000000000E+00 -0.00000000000E+00 -0.21272199175E+02  0.21272199175E+02  0.00000000000E+00 0. -1.
         21    1    1    2  502  501 -0.24782510347E+02 -0.15132243550E+02 -0.98421132389E-01  0.29037343210E+02  0.00000000000E+00 0. -1.
         21    1    1    2  503  502  0.24782510347E+02  0.15132243550E+02  0.24736529748E+02  0.38145163756E+02  0.00000000000E+00 0.  1.
</event>
<event>
 4    1  0.5452128E+002  0.2301412E+02  0.7546771E-02  0.1492321E+00
          2   -1    0    0  503    0  0.00000000000E+00  0.00000000000E+00  0.10365161081E+04  0.10365161081E+04  0.00000000000E+00 0.  1.
         -2   -1    0    0    0  501 -0.00000000000E+00 -0.00000000000E+00 -0.21615117774E+01  0.21615117774E+01  0.00000000000E+00 0. -1.
         21    1    1    2  502  501  0.21985823564E+02 -0.68024593975E+01  0.63358440734E+02  0.67408767263E+02  0.00000000000E+00 0. -1.
         21    1    1    2  503  502 -0.21985823564E+02  0.68024593975E+01  0.97099615554E+03  0.97126885257E+03  0.00000000000E+00 0.  1.
</event>
<event>
 4    1  0.5452128E+002  0.2387504E+02  0.7546771E-02  0.1481793E+00
          2   -1    0    0  503    0  0.00000000000E+00  0.00000000000E+00  0.14217311536E+04  0.14217311536E+04  0.00000000000E+00 0.  1.
         -2   -1    0    0    0  501 -0.00000000000E+00 -0.00000000000E+00 -0.21147092303E+01  0.21147092303E+01  0.00000000000E+00 0. -1.
         21    1    1    2  502  501  0.21750842961E+02 -0.98447033379E+01  0.68916222687E+02  0.72934649535E+02  0.00000000000E+00 0. -1.
         21    1    1    2  503  502 -0.21750842961E+02  0.98447033379E+01  0.13507002217E+04  0.13509112133E+04  0.00000000000E+00 0.  1.
</event>
<event>
 4    1  0.5452128E+002  0.2502997E+02  0.7546771E-02  0.1468468E+00
          2   -1    0    0  502    0  0.00000000000E+00  0.00000000000E+00  0.50869493652E+02  0.50869493652E+02  0.00000000000E+00 0. -1.
         -2   -1    0    0    0  501 -0.00000000000E+00 -0.00000000000E+00 -0.24120518361E+02  0.24120518361E+02  0.00000000000E+00 0.  1.
         21    1    1    2  502  503 -0.24359754531E+02  0.57534305764E+01  0.39605045589E+02  0.46851459319E+02  0.00000000000E+00 0. -1.
         21    1    1    2  503  501  0.24359754531E+02 -0.57534305764E+01 -0.12856070298E+02  0.28138552694E+02  0.00000000000E+00 0.  1.
</event>
<event>
 4    1  0.5452128E+002  0.2546695E+02  0.7546771E-02  0.1463647E+00
          2   -1    0    0  503    0  0.00000000000E+00  0.00000000000E+00  0.13577763724E+01  0.13577763724E+01  0.00000000000E+00 0. -1.
         -2   -1    0    0    0  501 -0.00000000000E+00 -0.00000000000E+00 -0.47919538123E+03  0.47919538123E+03  0.00000000000E+00 0.  1.
         21    1    1    2  502  501  0.18800523366E+01  0.25397455608E+02 -0.25248727734E+03  0.25376837976E+03  0.00000000000E+00 0.  1.
         21    1    1    2  503  502 -0.18800523366E+01 -0.25397455608E+02 -0.22535032752E+03  0.22678477785E+03  0.00000000000E+00 0. -1.
</event>
<event>
 4    1  0.5452128E+002  0.4250312E+02  0.7546771E-02  0.1334410E+00
          2   -1    0    0  503    0  0.00000000000E+00  0.00000000000E+00  0.18789974630E+04  0.18789974630E+04  0.00000000000E+00 0. -1.
         -2   -1    0    0    0  501 -0.00000000000E+00 -0.00000000000E+00 -0.14335172447E+01  0.14335172447E+01  0.00000000000E+00 0.  1.
         21    1    1    2  502  501 -0.16399304350E+02 -0.39211965693E+02  0.39922252635E+03  0.40147869306E+03  0.00000000000E+00 0.  1.
         21    1    1    2  503  502  0.16399304350E+02  0.39211965693E+02  0.14783414194E+04  0.14789522872E+04  0.00000000000E+00 0. -1.
</event>
<event>
 4    1  0.5452128E+002  0.4001220E+02  0.7546771E-02  0.1348414E+00
          2   -1    0    0  503    0  0.00000000000E+00  0.00000000000E+00  0.71353448853E+03  0.71353448853E+03  0.00000000000E+00 0.  1.
         -2   -1    0    0    0  501 -0.00000000000E+00 -0.00000000000E+00 -0.13918018326E+02  0.13918018326E+02  0.00000000000E+00 0. -1.
         21    1    1    2  502  501 -0.36144120496E+02 -0.17163298267E+02  0.16687842653E+02  0.43352743238E+02  0.00000000000E+00 0. -1.
         21    1    1    2  503  502  0.36144120496E+02  0.17163298267E+02  0.68292862755E+03  0.68409976362E+03  0.00000000000E+00 0.  1.
</event>
<event>
 4    1  0.5452128E+002  0.2328704E+02  0.7546771E-02  0.1488925E+00
          2   -1    0    0  502    0  0.00000000000E+00  0.00000000000E+00  0.61128715674E+02  0.61128715674E+02  0.00000000000E+00 0.  1.
         -2   -1    0    0    0  501 -0.00000000000E+00 -0.00000000000E+00 -0.10500462018E+02  0.10500462018E+02  0.00000000000E+00 0. -1.
         21    1    1    2  502  503  0.15234045304E+02 -0.17612778333E+02  0.39421591673E+02  0.45785892881E+02  0.00000000000E+00 0.  1.
         21    1    1    2  503  501 -0.15234045304E+02  0.17612778333E+02  0.11206661984E+02  0.25843284810E+02  0.00000000000E+00 0. -1.
</event>
<event>
 4    1  0.5452128E+002  0.2555037E+02  0.7546771E-02  0.1462740E+00
          2   -1    0    0  503    0  0.00000000000E+00  0.00000000000E+00  0.12122284918E+04  0.12122284918E+04  0.00000000000E+00 0. -1.
         -2   -1    0    0    0  501 -0.00000000000E+00 -0.00000000000E+00 -0.56229479390E+00  0.56229479390E+00  0.00000000000E+00 0.  1.
         21    1    1    2  502  501 -0.16736089745E+02 -0.19306076898E+02  0.48116892085E+03  0.48184681352E+03  0.00000000000E+00 0.  1.
         21    1    1    2  503  502  0.16736089745E+02  0.19306076898E+02  0.73049727620E+03  0.73094397312E+03  0.00000000000E+00 0. -1.
</event>
<event>
 4    1  0.5452128E+002  0.2206008E+02  0.7546771E-02  0.1504651E+00
          2   -1    0    0  503    0  0.00000000000E+00  0.00000000000E+00  0.59566387187E+03  0.59566387187E+03  0.00000000000E+00 0. -1.
         -2   -1    0    0    0  501 -0.00000000000E+00 -0.00000000000E+00 -0.10979308694E+01  0.10979308694E+01  0.00000000000E+00 0.  1.
         21    1    1    2  502  501  0.20996785820E+02 -0.67662383941E+01  0.14634561634E+03  0.14799894060E+03  0.00000000000E+00 0.  1.
         21    1    1    2  503  502 -0.20996785820E+02  0.67662383941E+01  0.44822032465E+03  0.44876286213E+03  0.00000000000E+00 0. -1.
</event>
<event>
 4    1  0.5452128E+002  0.4933581E+02  0.7546771E-02  0.1301078E+00
          2   -1    0    0  503    0  0.00000000000E+00  0.00000000000E+00  0.17042329012E+02  0.17042329012E+02  0.00000000000E+00 0.  1.
         -2   -1    0    0    0  501 -0.00000000000E+00 -0.00000000000E+00 -0.14975540595E+03  0.14975540595E+03  0.00000000000E+00 0. -1.
         21    1    1    2  502  501  0.33313792213E+02  0.36389740126E+02 -0.84301302795E+02  0.97676668611E+02  0.00000000000E+00 0.  1.
         21    1    1    2  503  502 -0.33313792213E+02 -0.36389740126E+02 -0.48411774145E+02  0.69121066354E+02  0.00000000000E+00 0. -1.
</event>
<event>
 4    1  0.5452128E+002  0.2001088E+02  0.7546771E-02  0.1533869E+00
          2   -1    0    0  503    0  0.00000000000E+00  0.00000000000E+00  0.36639528592E+00  0.36639528592E+00  0.00000000000E+00 0.  1.
         -2   -1    0    0    0  501 -0.00000000000E+00 -0.00000000000E+00 -0.12428615107E+04  0.12428615107E+04  0.00000000000E+00 0. -1.
         21    1    1    2  502  501  0.60062031806E+01 -0.19088243548E+02 -0.83716660108E+03  0.83740572812E+03  0.00000000000E+00 0. -1.
         21    1    1    2  503  502 -0.60062031806E+01  0.19088243548E+02 -0.40532851430E+03  0.40582217783E+03  0.00000000000E+00 0.  1.
</event>
<event>
 4    1  0.5452128E+002  0.7692425E+02  0.7546771E-02  0.1211174E+00
          2   -1    0    0  503    0  0.00000000000E+00  0.00000000000E+00  0.80796188629E+01  0.80796188629E+01  0.00000000000E+00 0.  1.
         -2   -1    0    0    0  501 -0.00000000000E+00 -0.00000000000E+00 -0.78765634497E+03  0.78765634497E+03  0.00000000000E+00 0. -1.
         21    1    1    2  502  501 -0.66457679719E+02  0.38739088991E+02 -0.49518958277E+03  0.50112878893E+03  0.00000000000E+00 0.  1.
         21    1    1    2  503  502  0.66457679719E+02 -0.38739088991E+02 -0.28438714333E+03  0.29460717490E+03  0.00000000000E+00 0. -1.
</event>
<event>
 4    1  0.5452128E+002  0.3959200E+02  0.7546771E-02  0.1350893E+00
          2   -1    0    0  502    0  0.00000000000E+00  0.00000000000E+00  0.31112257581E+02  0.31112257581E+02  0.00000000000E+00 0. -1.
         -2   -1    0    0    0  501 -0.00000000000E+00 -0.00000000000E+00 -0.51966106347E+02  0.51966106347E+02  0.00000000000E+00 0.  1.
         21    1    1    2  502  503 -0.39130514532E+02  0.60273668806E+01 -0.17677360964E+02  0.43359144476E+02  0.00000000000E+00 0.  1.
         21    1    1    2  503  501  0.39130514532E+02 -0.60273668806E+01 -0.31764878025E+01  0.39719219451E+02  0.00000000000E+00 0. -1.
</event>
<event>
 4    1  0.5452128E+002  0.2523778E+02  0.7546771E-02  0.1466161E+00
          2   -1    0    0  503    0  0.00000000000E+00  0.00000000000E+00  0.18912433147E+04  0.18912433147E+04  0.00000000000E+00 0. -1.
         -2   -1    0    0    0  501 -0.00000000000E+00 -0.00000000000E+00 -0.65920709767E+01  0.65920709767E+01  0.00000000000E+00 0.  1.
         21    1    1    2  502  501  0.17874340837E+02 -0.17817222002E+02  0.17965640765E+02  0.30979181854E+02  0.00000000000E+00 0.  1.
         21    1    1    2  503  502 -0.17874340837E+02  0.17817222002E+02  0.18666856030E+04  0.18668562038E+04  0.00000000000E+00 0. -1.
</event>
<event>
 4    1  0.5452128E+002  0.2089618E+02  0.7546771E-02  0.1520752E+00
          2   -1    0    0  502    0  0.00000000000E+00  0.00000000000E+00  0.12978362355E+03  0.12978362355E+03  0.00000000000E+00 0. -1.
         -2   -1    0    0    0  501 -0.00000000000E+00 -0.00000000000E+00 -0.58398962946E+01  0.58398962946E+01  0.00000000000E+00 0.  1.
         21    1    1    2  502  503 -0.20386029242E+02 -0.45891167326E+01  0.10612173338E+03  0.10815947706E+03  0.00000000000E+00 0. -1.
         21    1    1    2  503  501  0.20386029242E+02  0.45891167326E+01  0.17821993866E+02  0.27464042783E+02  0.00000000000E+00 0.  1.
</event>
<event>
 4    1  0.5452128E+002  0.2396772E+02  0.7546771E-02  0.1480691E+00
          2   -1    0    0  503    0  0.00000000000E+00  0.00000000000E+00  0.26913031404E+02  0.26913031404E+02  0.00000000000E+00 0. -1.
         -2   -1    0    0    0  501 -0.00000000000E+00 -0.00000000000E+00 -0.21415471369E+02  0.21415471369E+02  0.00000000000E+00 0.  1.
         21    1    1    2  502  501 -0.23665168644E+02 -0.37962524707E+01  0.13600871065E+01  0.24006282026E+02  0.00000000000E+00 0. -1.
         21    1    1    2  503  502  0.23665168644E+02  0.37962524707E+01  0.41374729288E+01  0.24322220746E+02  0.00000000000E+00 0.  1.
</event>
<event>
 4    1  0.5452128E+002  0.2028250E+02  0.7546771E-02  0.1529760E+00
          2   -1    0    0  503    0  0.00000000000E+00  0.00000000000E+00  0.55658931476E+03  0.55658931476E+03  0.00000000000E+00 0. -1.
         -2   -1    0    0    0  501 -0.00000000000E+00 -0.00000000000E+00 -0.28559872022E+01  0.28559872022E+01  0.00000000000E+00 0.  1.
         21    1    1    2  502  501 -0.92963349567E+01 -0.18026585554E+02  0.36043896667E+02  0.41358700623E+02  0.00000000000E+00 0.  1.
         21    1    1    2  503  502  0.92963349567E+01  0.18026585554E+02  0.51768943089E+03  0.51808660134E+03  0.00000000000E+00 0. -1.
</event>
<event>
 4    1  0.5452128E+002  0.2052783E+02  0.7546771E-02  0.1526114E+00
          2   -1    0    0  503    0  0.00000000000E+00  0.00000000000E+00  0.13690270795E+02  0.13690270795E+02  0.00000000000E+00 0. -1.
         -2   -1    0    0    0  501 -0.00000000000E+00 -0.00000000000E+00 -0.69146773903E+02  0.69146773903E+02  0.00000000000E+00 0.  1.
         21    1    1    2  502  501  0.20015336993E+02  0.45583067432E+01 -0.58580304874E+02  0.62072892590E+02  0.00000000000E+00 0.  1.
         21    1    1    2  503  502 -0.20015336993E+02 -0.45583067432E+01  0.31238017671E+01  0.20764152108E+02  0.00000000000E+00 0. -1.
</event>
<event>
 4    1  0.5452128E+002  0.2342814E+02  0.7546771E-02  0.1487191E+00
          2   -1    0    0  503    0  0.00000000000E+00  0.00000000000E+00  0.10175643315E+04  0.10175643315E+04  0.00000000000E+00 0.  1.
         -2   -1    0    0    0  501 -0.00000000000E+00 -0.00000000000E+00 -0.13708774966E+01  0.13708774966E+01  0.00000000000E+00 0. -1.
         21    1    1    2  502  501  0.22589421127E+01  0.23318978297E+02  0.11132416151E+03  0.11376267624E+03  0.00000000000E+00 0. -1.
         21    1    1    2  503  502 -0.22589421127E+01 -0.23318978297E+02  0.90486929254E+03  0.90517253280E+03  0.00000000000E+00 0.  1.
</event>
<event>
 4    1  0.5452128E+002  0.2407273E+02  0.7546771E-02  0.1479450E+00
          2   -1    0    0  502    0  0.00000000000E+00  0.00000000000E+00  0.36402270208E+01  0.36402270208E+01  0.00000000000E+00 0. -1.
         -2   -1    0    0    0  501 -0.00000000000E+00 -0.00000000000E+00 -0.21693170322E+03  0.21693170322E+03  0.00000000000E+00 0.  1.
         21    1    1    2  502  503  0.23898850281E+02 -0.28881310307E+01 -0.49748047535E+02  0.55266306003E+02  0.00000000000E+00 0. -1.
         21    1    1    2  503  501 -0.23898850281E+02  0.28881310307E+01 -0.16354342867E+03  0.16530562424E+03  0.00000000000E+00 0.  1.
</event>
<event>
 4    1  0.5452128E+002  0.9312479E+02  0.7546771E-02  0.1176286E+00
          2   -1    0    0  503    0  0.00000000000E+00  0.00000000000E+00  0.29331108415E+02  0.29331108415E+02  0.00000000000E+00 0.  1.
         -2   -1    0    0    0  501 -0.00000000000E+00 -0.00000000000E+00 -0.34795815915E+03  0.34795815915E+03  0.00000000000E+00 0. -1.
         21    1    1    2  502  501  0.46836188822E+02  0.80489742806E+02 -0.23244376499E+03  0.25040433536E+03  0.00000000000E+00 0. -1.
         21    1    1    2  503  502 -0.46836188822E+02 -0.80489742806E+02 -0.86183285739E+02  0.12688493221E+03  0.00000000000E+00 0.  1.
</event>
<event>
 4    1  0.5452128E+002  0.2524129E+02  0.7546771E-02  0.1466122E+00
          2   -1    0    0  502    0  0.00000000000E+00  0.00000000000E+00  0.12208152320E+02  0.12208152320E+02  0.00000000000E+00 0. -1.
         -2   -1    0    0    0  501 -0.00000000000E+00 -0.00000000000E+00 -0.89650834671E+02  0.89650834671E+02  0.00000000000E+00 0.  1.
         21    1    1    2  502  503 -0.76482585336E+01  0.24054667934E+02 -0.57990026665E+01  0.25898867542E+02  0.00000000000E+00 0. -1.
         21    1    1    2  503  501  0.76482585336E+01 -0.24054667934E+02 -0.71643679685E+02  0.75960119450E+02  0.00000000000E+00 0.  1.
</event>
<event>
 4    1  0.5452128E+002  0.3037824E+02  0.7546771E-02  0.1416337E+00
          2   -1    0    0  503    0  0.00000000000E+00  0.00000000000E+00  0.96088556041E+01  0.96088556041E+01  0.00000000000E+00 0.  1.
         -2   -1    0    0    0  501 -0.00000000000E+00 -0.00000000000E+00 -0.12346874049E+03  0.12346874049E+03  0.00000000000E+00 0. -1.
         21    1    1    2  502  501 -0.30338011385E+02  0.15628160471E+01 -0.88291457734E+02  0.93371402675E+02  0.00000000000E+00 0. -1.
         21    1    1    2  503  502  0.30338011385E+02 -0.15628160471E+01 -0.25568427152E+02  0.39706193419E+02  0.00000000000E+00 0.  1.
</event>
<event>
 4    1  0.5452128E+002  0.2060718E+02  0.7546771E-02  0.1524948E+00
          2   -1    0    0  502    0  0.00000000000E+00  0.00000000000E+00  0.23952552448E+03  0.23952552448E+03  0.00000000000E+00 0.  1.
         -2   -1    0    0    0  501 -0.00000000000E+00 -0.00000000000E+00 -0.18428428520E+01  0.18428428520E+01  0.00000000000E+00 0. -1.
         21    1    1    2  502  503  0.60787285052E+01 -0.19690225626E+02  0.14235191938E+03  0.14383575660E+03  0.00000000000E+00 0. -1.
         21    1    1    2  503  501 -0.60787285052E+01  0.19690225626E+02  0.95330762244E+02  0.97532610728E+02  0.00000000000E+00 0.  1.
</event>
<event>
 4    1  0.5452128E+002  0.3118030E+02  0.7546771E-02  0.1409610E+00
          2   -1    0    0  502    0  0.00000000000E+00  0.00000000000E+00  0.43921347575E+02  0.43921347575E+02  0.00000000000E+00 0.  1.
         -2   -1    0    0    0  501 -0.00000000000E+00 -0.00000000000E+00 -0.91070777596E+02  0.91070777596E+02  0.00000000000E+00 0. -1.
         21    1    1    2  502  503  0.29941785205E+02 -0.87005944138E+01  0.35148578945E+02  0.46985459945E+02  0.00000000000E+00 0.  1.
         21    1    1    2  503  501 -0.29941785205E+02  0.87005944138E+01 -0.82298008966E+02  0.88006665226E+02  0.00000000000E+00 0. -1.
</event>
<event>
 4    1  0.5452128E+002  0.2282068E+02  0.7546771E-02  0.1494762E+00
          2   -1    0    0  503    0  0.00000000000E+00  0.00000000000E+00  0.23106354487E+02  0.23106354487E+02  0.00000000000E+00 0.  1.
         -2   -1    0    0    0  501 -0.00000000000E+00 -0.00000000000E+00 -0.25421778847E+02  0.25421778847E+02  0.00000000000E+00 0. -1.
         21    1    1    2  502  501 -0.10107819451E+01  0.22798288398E+02  0.70137632517E+01  0.23874180802E+02  0.00000000000E+00 0.  1.
         21    1    1    2  503  502  0.10107819451E+01 -0.22798288398E+02 -0.93291876111E+01  0.24653952533E+02  0.00000000000E+00 0. -1.
</event>
<event>
 4    1  0.5452128E+002  0.2415451E+02  0.7546771E-02  0.1478488E+00
          2   -1    0    0  502    0  0.00000000000E+00  0.00000000000E+00  0.10395088241E+02  0.10395088241E+02  0.00000000000E+00 0.  1.
         -2   -1    0    0    0  501 -0.00000000000E+00 -0.00000000000E+00 -0.10997400334E+03  0.10997400334E+03  0.00000000000E+00 0. -1.
         21    1    1    2  502  503  0.74125851269E+01 -0.22988997916E+02 -0.76758396133E+01  0.25344801385E+02  0.00000000000E+00 0.  1.
         21    1    1    2  503  501 -0.74125851269E+01  0.22988997916E+02 -0.91903075487E+02  0.95024290197E+02  0.00000000000E+00 0. -1.
</event>
<event>
 4    1  0.5452128E+002  0.2245747E+02  0.7546771E-02  0.1499425E+00
          2   -1    0    0  502    0  0.00000000000E+00  0.00000000000E+00  0.15981701505E+03  0.15981701505E+03  0.00000000000E+00 0. -1.
         -2   -1    0    0    0  501 -0.00000000000E+00 -0.00000000000E+00 -0.34618605036E+01  0.34618605036E+01  0.00000000000E+00 0.  1.
         21    1    1    2  502  503 -0.17476392291E+02  0.14103668510E+02  0.10245516933E+03  0.10488755634E+03  0.00000000000E+00 0. -1.
         21    1    1    2  503  501  0.17476392291E+02 -0.14103668510E+02  0.53899985220E+02  0.58391319215E+02  0.00000000000E+00 0.  1.
</event>
<event>
 4    1  0.5452128E+002  0.2493475E+02  0.7546771E-02  0.1469535E+00
          2   -1    0    0  502    0  0.00000000000E+00  0.00000000000E+00  0.10093882233E+04  0.10093882233E+04  0.00000000000E+00 0.  1.
         -2   -1    0    0    0  501 -0.00000000000E+00 -0.00000000000E+00 -0.11469502126E+01  0.11469502126E+01  0.00000000000E+00 0. -1.
         21    1    1    2  502  503 -0.42317448102E+01 -0.24573034316E+02  0.84791033223E+03  0.84827688474E+03  0.00000000000E+00 0.  1.
         21    1    1    2  503  501  0.42317448102E+01  0.24573034316E+02  0.16033094086E+03  0.16225828878E+03  0.00000000000E+00 0. -1.
</event>
<event>
 4    1  0.5452128E+002  0.6182097E+02  0.7546771E-02  0.1253768E+00
          2   -1    0    0  502    0  0.00000000000E+00  0.00000000000E+00  0.54158509894E+03  0.54158509894E+03  0.00000000000E+00 0.  1.
         -2   -1    0    0    0  501 -0.00000000000E+00 -0.00000000000E+00 -0.64304332360E+02  0.64304332360E+02  0.00000000000E+00 0. -1.
         21    1    1    2  502  503 -0.25935455864E+02 -0.56117597978E+02  0.52447960830E+03  0.52811049242E+03  0.00000000000E+00 0.  1.
         21    1    1    2  503  501  0.25935455864E+02  0.56117597978E+02 -0.47198841724E+02  0.77778938883E+02  0.00000000000E+00 0. -1.
</event>
<event>
 4    1  0.5452128E+002  0.6984807E+02  0.7546771E-02  0.1229606E+00
          2   -1    0    0  503    0  0.00000000000E+00  0.00000000000E+00  0.10808737648E+03  0.10808737648E+03  0.00000000000E+00 0.  1.
         -2   -1    0    0    0  501 -0.00000000000E+00 -0.00000000000E+00 -0.55033368467E+03  0.55033368467E+03  0.00000000000E+00 0. -1.
         21    1    1    2  502  501  0.54030385336E+02  0.44265902110E+02 -0.53654434429E+03  0.54107170137E+03  0.00000000000E+00 0. -1.
         21    1    1    2  503  502 -0.54030385336E+02 -0.44265902110E+02  0.94298036105E+02  0.11734935979E+03  0.00000000000E+00 0.  1.
</event>
<event>
 4    1  0.5452128E+002  0.2063687E+02  0.7546771E-02  0.1524513E+00
          2   -1    0    0  503    0  0.00000000000E+00  0.00000000000E+00  0.12111423636E+01  0.12111423636E+01  0.00000000000E+00 0.  1.
         -2   -1    0    0    0  501 -0.00000000000E+00 -0.00000000000E+00 -0.37759384508E+03  0.37759384508E+03  0.00000000000E+00 0. -1.
         21    1    1    2  502  501  0.14842690686E+02 -0.14337890480E+02 -0.23785198944E+03  0.23874557472E+03  0.00000000000E+00 0.  1.
         21    1    1    2  503  502 -0.14842690686E+02  0.14337890480E+02 -0.13853071328E+03  0.14005941272E+03  0.00000000000E+00 0. -1.
</event>
<event>
 4    1  0.5452128E+002  0.2980022E+02  0.7546771E-02  0.1421341E+00
          2   -1    0    0  502    0  0.00000000000E+00  0.00000000000E+00  0.22261144760E+01  0.22261144760E+01  0.00000000000E+00 0.  1.
         -2   -1    0    0    0  501 -0.00000000000E+00 -0.00000000000E+00 -0.40083234352E+03  0.40083234352E+03  0.00000000000E+00 0. -1.
         21    1    1    2  502  503 -0.20117873335E+02 -0.21984643419E+02 -0.21320384267E+03  0.21527640814E+03  0.00000000000E+00 0. -1.
         21    1    1    2  503  501  0.20117873335E+02  0.21984643419E+02 -0.18540238637E+03  0.18778204985E+03  0.00000000000E+00 0.  1.
</event>
<event>
 4    1  0.5452128E+002  0.3682234E+02  0.7546771E-02  0.1368185E+00
          2   -1    0    0  502    0  0.00000000000E+00  0.00000000000E+00  0.10670422021E+04  0.10670422021E+04  0.00000000000E+00 0. -1.
         -2   -1    0    0    0  501 -0.00000000000E+00 -0.00000000000E+00 -0.12988333996E+01  0.12988333996E+01  0.00000000000E+00 0.  1.
         21    1    1    2  502  503 -0.30418240430E+02  0.20751278671E+02  0.61149563572E+03  0.61260329531E+03  0.00000000000E+00 0.  1.
         21    1    1    2  503  501  0.30418240430E+02 -0.20751278671E+02  0.45424773301E+03  0.45573774022E+03  0.00000000000E+00 0. -1.
</event>
<event>
 4    1  0.5452128E+002  0.2635937E+02  0.7546771E-02  0.1454152E+00
          2   -1    0    0  502    0  0.00000000000E+00  0.00000000000E+00  0.10455621009E+03  0.10455621009E+03  0.00000000000E+00 0. -1.
         -2   -1    0    0    0  501 -0.00000000000E+00 -0.00000000000E+00 -0.23422720051E+02  0.23422720051E+02  0.00000000000E+00 0.  1.
         21    1    1    2  502  503  0.23634263994E+02  0.11672101240E+02  0.94723332503E+02  0.98322561513E+02  0.00000000000E+00 0. -1.
         21    1    1    2  503  501 -0.23634263994E+02 -0.11672101240E+02 -0.13589842466E+02  0.29656368627E+02  0.00000000000E+00 0.  1.
</event>
<event>
 4    1  0.5452128E+002  0.2613121E+02  0.7546771E-02  0.1456536E+00
          2   -1    0    0  502    0  0.00000000000E+00  0.00000000000E+00  0.52773987987E+02  0.52773987987E+02  0.00000000000E+00 0.  1.
         -2   -1    0    0    0  501 -0.00000000000E+00 -0.00000000000E+00 -0.24303214611E+02  0.24303214611E+02  0.00000000000E+00 0. -1.
         21    1    1    2  502  503 -0.25903374636E+02  0.34431748779E+01  0.40588665411E+02  0.48272974122E+02  0.00000000000E+00 0.  1.
         21    1    1    2  503  501  0.25903374636E+02 -0.34431748779E+01 -0.12117892035E+02  0.28804228477E+02  0.00000000000E+00 0. -1.
</event>
<event>
 4    1  0.5452128E+002  0.2324982E+02  0.7546771E-02  0.1489385E+00
          2   -1    0    0  503    0  0.00000000000E+00  0.00000000000E+00  0.19799839852E+03  0.19799839852E+03  0.00000000000E+00 0.  1.
         -2   -1    0    0    0  501 -0.00000000000E+00 -0.00000000000E+00 -0.84686095557E+01  0.84686095557E+01  0.00000000000E+00 0. -1.
         21    1    1    2  502  501 -0.22181288170E+02  0.69673952462E+01  0.97853470076E+01  0.25225129483E+02  0.00000000000E+00 0. -1.
         21    1    1    2  503  502  0.22181288170E+02 -0.69673952462E+01  0.17974444196E+03  0.18124187859E+03  0.00000000000E+00 0.  1.
</event>
<event>
 4    1  0.5452128E+002  0.3195169E+02  0.7546771E-02  0.1403362E+00
          2   -1    0    0  503    0  0.00000000000E+00  0.00000000000E+00  0.66841409552E+02  0.66841409552E+02  0.00000000000E+00 0. -1.
         -2   -1    0    0    0  501 -0.00000000000E+00 -0.00000000000E+00 -0.26242788800E+02  0.26242788800E+02  0.00000000000E+00 0.  1.
         21    1    1    2  502  501  0.23094781380E+02 -0.22080339903E+02 -0.97910798853E+01  0.33418192389E+02  0.00000000000E+00 0.  1.
         21    1    1    2  503  502 -0.23094781380E+02  0.22080339903E+02  0.50389700638E+02  0.59666005963E+02  0.00000000000E+00 0. -1.
</event>
<event>
 4    1  0.5452128E+002  0.2361517E+02  0.7546771E-02  0.1484915E+00
          2   -1    0    0  502    0  0.00000000000E+00  0.00000000000E+00  0.85399019027E+03  0.85399019027E+03  0.00000000000E+00 0. -1.
         -2   -1    0    0    0  501 -0.00000000000E+00 -0.00000000000E+00 -0.13849550022E+01  0.13849550022E+01  0.00000000000E+00 0.  1.
         21    1    1    2  502  503  0.22670216722E+02  0.66134219906E+01  0.73721919307E+03  0.73759732558E+03  0.00000000000E+00 0. -1.
         21    1    1    2  503  501 -0.22670216722E+02 -0.66134219906E+01  0.11538604220E+03  0.11777781969E+03  0.00000000000E+00 0.  1.
</event>
<event>
 4    1  0.5452128E+002  0.2241529E+02  0.7546771E-02  0.1499974E+00
          2   -1    0    0  502    0  0.00000000000E+00  0.00000000000E+00  0.13446681094E+04  0.13446681094E+04  0.00000000000E+00 0.  1.
         -2   -1    0    0    0  501 -0.00000000000E+00 -0.00000000000E+00 -0.22709250670E+01  0.22709250670E+01  0.00000000000E+00 0. -1.
         21    1    1    2  502  503 -0.11819501308E+02  0.19045856282E+02  0.12867734007E+04  0.12869686205E+04  0.00000000000E+00 0.  1.
         21    1    1    2  503  501  0.11819501308E+02 -0.19045856282E+02  0.55623783630E+02  0.59970414023E+02  0.00000000000E+00 0. -1.
</event>
<event>
 4    1  0.5452128E+002  0.3583238E+02  0.7546771E-02  0.1374804E+00
          2   -1    0    0  502    0  0.00000000000E+00  0.00000000000E+00  0.12777762586E+04  0.12777762586E+04  0.00000000000E+00 0.  1.
         -2   -1    0    0    0  501 -0.00000000000E+00 -0.00000000000E+00 -0.28294033112E+01  0.28294033112E+01  0.00000000000E+00 0. -1.
         21    1    1    2  502  503 -0.35109394660E+02 -0.71617160721E+01  0.11516562316E+04  0.11522135373E+04  0.00000000000E+00 0.  1.
         21    1    1    2  503  501  0.35109394660E+02  0.71617160721E+01  0.12329062366E+03  0.12839212457E+03  0.00000000000E+00 0. -1.
</event>
<event>
 4    1  0.5452128E+002  0.4438651E+02  0.7546771E-02  0.1324536E+00
          2   -1    0    0  502    0  0.00000000000E+00  0.00000000000E+00  0.13761019382E+03  0.13761019382E+03  0.00000000000E+00 0.  1.
         -2   -1    0    0    0  501 -0.00000000000E+00 -0.00000000000E+00 -0.28299131809E+02  0.28299131809E+02  0.00000000000E+00 0. -1.
         21    1    1    2  502  503 -0.26330961302E+02 -0.35732934801E+02  0.11296529452E+03  0.12137264897E+03  0.00000000000E+00 0.  1.
         21    1    1    2  503  501  0.26330961302E+02  0.35732934801E+02 -0.36542325071E+01  0.44536676659E+02  0.00000000000E+00 0. -1.
</event>
<event>
 4    1  0.5452128E+002  0.2478827E+02  0.7546771E-02  0.1471186E+00
          2   -1    0    0  503    0  0.00000000000E+00  0.00000000000E+00  0.19401075394E+04  0.19401075394E+04  0.00000000000E+00 0. -1.
         -2   -1    0    0    0  501 -0.00000000000E+00 -0.00000000000E+00 -0.32590724756E+00  0.32590724756E+00  0.00000000000E+00 0.  1.
         21    1    1    2  502  501 -0.17439733892E+02 -0.17615737377E+02  0.80693693137E+03  0.80731757675E+03  0.00000000000E+00 0.  1.
         21    1    1    2  503  502  0.17439733892E+02  0.17615737377E+02  0.11328447008E+04  0.11331158699E+04  0.00000000000E+00 0. -1.
</event>
<event>
 4    1  0.5452128E+002  0.2043076E+02  0.7546771E-02  0.1527549E+00
          2   -1    0    0  503    0  0.00000000000E+00  0.00000000000E+00  0.21301224659E+03  0.21301224659E+03  0.00000000000E+00 0.  1.
         -2   -1    0    0    0  501 -0.00000000000E+00 -0.00000000000E+00 -0.19614123605E+01  0.19614123605E+01  0.00000000000E+00 0. -1.
         21    1    1    2  502  501  0.20015590080E+02 -0.40978293975E+01  0.10880434919E+03  0.11070592782E+03  0.00000000000E+00 0. -1.
         21    1    1    2  503  502 -0.20015590080E+02  0.40978293975E+01  0.10224648504E+03  0.10426773113E+03  0.00000000000E+00 0.  1.
</event>
<event>
 4    1  0.5452128E+002  0.3782059E+02  0.7546771E-02  0.1361753E+00
          2   -1    0    0  503    0  0.00000000000E+00  0.00000000000E+00  0.22090488747E+03  0.22090488747E+03  0.00000000000E+00 0. -1.
         -2   -1    0    0    0  501 -0.00000000000E+00 -0.00000000000E+00 -0.17436578297E+02  0.17436578297E+02  0.00000000000E+00 0.  1.
         21    1    1    2  502  501 -0.33628148127E+02  0.17307362836E+02  0.72471427163E+01  0.38508677364E+02  0.00000000000E+00 0.  1.
         21    1    1    2  503  502  0.33628148127E+02 -0.17307362836E+02  0.19622116646E+03  0.19983278840E+03  0.00000000000E+00 0. -1.
</event>
<event>
 4    1  0.5452128E+002  0.2667811E+02  0.7546771E-02  0.1450869E+00
          2   -1    0    0  503    0  0.00000000000E+00  0.00000000000E+00  0.35158210328E+03  0.35158210328E+03  0.00000000000E+00 0.  1.
         -2   -1    0    0    0  501 -0.00000000000E+00 -0.00000000000E+00 -0.41201595249E+01  0.41201595249E+01  0.00000000000E+00 0. -1.
         21    1    1    2  502  501 -0.21708438834E+02 -0.15506945457E+02  0.46885032323E+02  0.53943747829E+02  0.00000000000E+00 0. -1.
         21    1    1    2  503  502  0.21708438834E+02  0.15506945457E+02  0.30057691143E+03  0.30175851498E+03  0.00000000000E+00 0.  1.
</event>
<event>
 4    1  0.5452128E+002  0.2118751E+02  0.7546771E-02  0.1516604E+00
          2   -1    0    0  503    0  0.00000000000E+00  0.00000000000E+00  0.17685673937E+02  0.17685673937E+02  0.00000000000E+00 0.  1.
         -2   -1    0    0    0  501 -0.00000000000E+00 -0.00000000000E+00 -0.28250261859E+02  0.28250261859E+02  0.00000000000E+00 0. -1.
         21    1    1    2  502  501  0.70967851734E+01 -0.19963617880E+02 -0.12599860692E+02  0.24650900351E+02  0.00000000000E+00 0. -1.
         21    1    1    2  503  502 -0.70967851734E+01  0.19963617880E+02  0.20352727703E+01  0.21285035445E+02  0.00000000000E+00 0.  1.
</event>
<event>
 4    1  0.5452128E+002  0.2103159E+02  0.7546771E-02  0.1518814E+00
          2   -1    0    0  502    0  0.00000000000E+00  0.00000000000E+00  0.24436055638E+03  0.24436055638E+03  0.00000000000E+00 0. -1.
         -2   -1    0    0    0  501 -0.00000000000E+00 -0.00000000000E+00 -0.56385010723E+01  0.56385010723E+01  0.00000000000E+00 0.  1.
         21    1    1    2  502  503 -0.19822336956E+02  0.70287034266E+01  0.22235997343E+03  0.22335237965E+03  0.00000000000E+00 0. -1.
         21    1    1    2  503  501  0.19822336956E+02 -0.70287034266E+01  0.16362081880E+02  0.26646677798E+02  0.00000000000E+00 0.  1.
</event>
<event>
 4    1  0.5452128E+002  0.2874893E+02  0.7546771E-02  0.1430789E+00
          2   -1    0    0  503    0  0.00000000000E+00  0.00000000000E+00  0.20341592046E+03  0.20341592046E+03  0.00000000000E+00 0.  1.
         -2   -1    0    0    0  501 -0.00000000000E+00 -0.00000000000E+00 -0.10297239059E+02  0.10297239059E+02  0.00000000000E+00 0. -1.
         21    1    1    2  502  501 -0.16424178454E+02  0.23595491386E+02  0.13415738575E+02  0.31725114549E+02  0.00000000000E+00 0. -1.
         21    1    1    2  503  502  0.16424178454E+02 -0.23595491386E+02  0.17970294282E+03  0.18198804497E+03  0.00000000000E+00 0.  1.
</event>
<event>
 4    1  0.5452128E+002  0.3216136E+02  0.7546771E-02  0.1401699E+00
          2   -1    0    0  503    0  0.00000000000E+00  0.00000000000E+00  0.64091174452E+03  0.64091174452E+03  0.00000000000E+00 0. -1.
         -2   -1    0    0    0  501 -0.00000000000E+00 -0.00000000000E+00 -0.19413269305E+01  0.19413269305E+01  0.00000000000E+00 0.  1.
         21    1    1    2  502  501 -0.31816330219E+02 -0.46983144701E+01  0.45149450775E+03  0.45263853521E+03  0.00000000000E+00 0. -1.
         21    1    1    2  503  502  0.31816330219E+02  0.46983144701E+01  0.18747590984E+03  0.19021453624E+03  0.00000000000E+00 0.  1.
</event>
<event>
 4    1  0.5452128E+002  0.4152675E+02  0.7546771E-02  0.1339764E+00
          2   -1    0    0  503    0  0.00000000000E+00  0.00000000000E+00  0.18753057407E+04  0.18753057407E+04  0.00000000000E+00 0.  1.
         -2   -1    0    0    0  501 -0.00000000000E+00 -0.00000000000E+00 -0.10621890137E+01  0.10621890137E+01  0.00000000000E+00 0. -1.
         21    1    1    2  502  501  0.24273358249E+02 -0.33693840187E+02  0.59334292399E+03  0.59479433104E+03  0.00000000000E+00 0. -1.
         21    1    1    2  503  502 -0.24273358249E+02  0.33693840187E+02  0.12809006277E+04  0.12815735986E+04  0.00000000000E+00 0.  1.
</event>
<event>
 4    1  0.5452128E+002  0.2447477E+02  0.7546771E-02  0.1474766E+00
          2   -1    0    0  503    0  0.00000000000E+00  0.00000000000E+00  0.14669108596E+03  0.14669108596E+03  0.00000000000E+00 0.  1.
         -2   -1    0    0    0  501 -0.00000000000E+00 -0.00000000000E+00 -0.53618248629E+01  0.53618248629E+01  0.00000000000E+00 0. -1.
         21    1    1    2  502  501  0.23943296038E+02  0.50727786207E+01  0.33542973035E+02  0.41522831649E+02  0.00000000000E+00 0. -1.
         21    1    1    2  503  502 -0.23943296038E+02 -0.50727786207E+01  0.10778628806E+03  0.11053007917E+03  0.00000000000E+00 0.  1.
</event>
<event>
 4    1  0.5452128E+002  0.5517253E+02  0.7546771E-02  0.1277180E+00
          2   -1    0    0  502    0  0.00000000000E+00  0.00000000000E+00  0.13441504050E+04  0.13441504050E+04  0.00000000000E+00 0. -1.
         -2   -1    0    0    0  501 -0.00000000000E+00 -0.00000000000E+00 -0.34391610035E+01  0.34391610035E+01  0.00000000000E+00 0.  1.
         21    1    1    2  502  503 -0.45994709143E+02 -0.30471215489E+02  0.10641168559E+04  0.10655461939E+04  0.00000000000E+00 0. -1.
         21    1    1    2  503  501  0.45994709143E+02  0.30471215489E+02  0.27659438808E+03  0.28204337213E+03  0.00000000000E+00 0.  1.
</event>
<event>
 4    1  0.5452128E+002  0.2964974E+02  0.7546771E-02  0.1422665E+00
          2   -1    0    0  502    0  0.00000000000E+00  0.00000000000E+00  0.96398349687E+02  0.96398349687E+02  0.00000000000E+00 0.  1.
         -2   -1    0    0    0  501 -0.00000000000E+00 -0.00000000000E+00 -0.14729919188E+02  0.14729919188E+02  0.00000000000E+00 0. -1.
         21    1    1    2  502  503 -0.10284079469E+02  0.27809082219E+02  0.75126070769E+02  0.80765301050E+02  0.00000000000E+00 0.  1.
         21    1    1    2  503  501  0.10284079469E+02 -0.27809082219E+02  0.65423597296E+01  0.30362967826E+02  0.00000000000E+00 0. -1.
</event>
<event>
 4    1  0.5452128E+002  0.5181447E+02  0.7546771E-02  0.1290492E+00
          2   -1    0    0  502    0  0.00000000000E+00  0.00000000000E+00  0.33761789505E+03  0.33761789505E+03  0.00000000000E+00 0.  1.
         -2   -1    0    0    0  501 -0.00000000000E+00 -0.00000000000E+00 -0.92398464102E+01  0.92398464102E+01  0.00000000000E+00 0. -1.
         21    1    1    2  502  503  0.51749321563E+02 -0.25974732177E+01  0.22893611115E+03  0.23472639847E+03  0.00000000000E+00 0.  1.
         21    1    1    2  503  501 -0.51749321563E+02  0.25974732177E+01  0.99441937484E+02  0.11213134299E+03  0.00000000000E+00 0. -1.
</event>
<event>
 4    1  0.5452128E+002  0.3105979E+02  0.7546771E-02  0.1410605E+00
          2   -1    0    0  503    0  0.00000000000E+00  0.00000000000E+00  0.20426297561E+03  0.20426297561E+03  0.00000000000E+00 0.  1.
         -2   -1    0    0    0  501 -0.00000000000E+00 -0.00000000000E+00 -0.49760871183E+01  0.49760871183E+01  0.00000000000E+00 0. -1.
         21    1    1    2  502  501 -0.26369123359E+02 -0.16412800056E+02  0.12324289574E+03  0.12709650673E+03  0.00000000000E+00 0. -1.
         21    1    1    2  503  502  0.26369123359E+02  0.16412800056E+02  0.76043992746E+02  0.82142555994E+02  0.00000000000E+00 0.  1.
</event>
<event>
 4    1  0.5452128E+002  0.4628788E+02  0.7546771E-02  0.1315122E+00
          2   -1    0    0  502    0  0.00000000000E+00  0.00000000000E+00  0.22797406681E+03  0.22797406681E+03  0.00000000000E+00 0. -1.
         -2   -1    0    0    0  501 -0.00000000000E+00 -0.00000000000E+00 -0.99235384733E+01  0.99235384733E+01  0.00000000000E+00 0.  1.
         21    1    1    2  502  503  0.19046992803E+02 -0.42187442417E+02  0.13639091983E+03  0.14403142451E+03  0.00000000000E+00 0. -1.
         21    1    1    2  503  501 -0.19046992803E+02  0.42187442417E+02  0.81659608499E+02  0.93866180772E+02  0.00000000000E+00 0.  1.
</event>
<event>
 4    1  0.5452128E+002  0.2168509E+02  0.7546771E-02  0.1509704E+00
          2   -1    0    0  503    0  0.00000000000E+00  0.00000000000E+00  0.20276871210E+03  0.20276871210E+03  0.00000000000E+00 0.  1.
         -2   -1    0    0    0  501 -0.00000000000E+00 -0.00000000000E+00 -0.91635411784E+01  0.91635411784E+01  0.00000000000E+00 0. -1.
         21    1    1    2  502  501  0.21290709851E+02  0.41168960253E+01  0.52218684285E+01  0.22304956148E+02  0.00000000000E+00 0. -1.
         21    1    1    2  503  502 -0.21290709851E+02 -0.41168960253E+01  0.18838330249E+03  0.18962729713E+03  0.00000000000E+00 0.  1.
</event>
<event>
 4    1  0.5452128E+002  0.2022344E+02  0.7546771E-02  0.1530647E+00
          2   -1    0    0  503    0  0.00000000000E+00  0.00000000000E+00  0.57413276693E+02  0.57413276693E+02  0.00000000000E+00 0.  1.
         -2   -1    0    0    0  501 -0.00000000000E+00 -0.00000000000E+00 -0.10159557744E+02  0.10159557744E+02  0.00000000000E+00 0. -1.
         21    1    1    2  502  501  0.19129512457E+02  0.65611898515E+01  0.51573742333E+01  0.20870696397E+02  0.00000000000E+00 0. -1.
         21    1    1    2  503  502 -0.19129512457E+02 -0.65611898515E+01  0.42096344715E+02  0.46702138040E+02  0.00000000000E+00 0.  1.
</event>
<event>
 4    1  0.5452128E+002  0.2454370E+02  0.7546771E-02  0.1473973E+00
          2   -1    0    0  503    0  0.00000000000E+00  0.00000000000E+00  0.58373461508E+01  0.58373461508E+01  0.00000000000E+00 0. -1.
         -2   -1    0    0    0  501 -0.00000000000E+00 -0.00000000000E+00 -0.72626017878E+03  0.72626017878E+03  0.00000000000E+00 0.  1.
         21    1    1    2  502  501 -0.19357213861E+02  0.15089442225E+02 -0.69925777614E+03  0.69968838099E+03  0.00000000000E+00 0.  1.
         21    1    1    2  503  502  0.19357213861E+02 -0.15089442225E+02 -0.21165056493E+02  0.32409143948E+02  0.00000000000E+00 0. -1.
</event>
<event>
 4    1  0.5452128E+002  0.2954400E+02  0.7546771E-02  0.1423601E+00
          2   -1    0    0  503    0  0.00000000000E+00  0.00000000000E+00  0.10771570068E+04  0.10771570068E+04  0.00000000000E+00 0.  1.
         -2   -1    0    0    0  501 -0.00000000000E+00 -0.00000000000E+00 -0.14244597601E+01  0.14244597601E+01  0.00000000000E+00 0. -1.
         21    1    1    2  502  501 -0.14526952421E+02 -0.25725776622E+02  0.18376337457E+03  0.18612314677E+03  0.00000000000E+00 0. -1.
         21    1    1    2  503  502  0.14526952421E+02  0.25725776622E+02  0.89196917250E+03  0.89245831982E+03  0.00000000000E+00 0.  1.
</event>
<event>
 4    1  0.5452128E+002  0.2135740E+02  0.7546771E-02  0.1514223E+00
          2   -1    0    0  503    0  0.00000000000E+00  0.00000000000E+00  0.59451312796E+01  0.59451312796E+01  0.00000000000E+00 0.  1.
         -2   -1    0    0    0  501 -0.00000000000E+00 -0.00000000000E+00 -0.90027186034E+02  0.90027186034E+02  0.00000000000E+00 0. -1.
         21    1    1    2  502  501 -0.85710181164E+01  0.19562112924E+02 -0.60486721608E+02  0.64146567364E+02  0.00000000000E+00 0. -1.
         21    1    1    2  503  502  0.85710181164E+01 -0.19562112924E+02 -0.23595333146E+02  0.31825749950E+02  0.00000000000E+00 0.  1.
</event>
<event>
 4    1  0.5452128E+002  0.2096597E+02  0.7546771E-02  0.1519751E+00
          2   -1    0    0  503    0  0.00000000000E+00  0.00000000000E+00  0.52338793087E+03  0.52338793087E+03  0.00000000000E+00 0. -1.
         -2   -1    0    0    0  501 -0.00000000000E+00 -0.00000000000E+00 -0.10564984188E+01  0.10564984188E+01  0.00000000000E+00 0.  1.
         21    1    1    2  502  501  0.85457583821E+01 -0.19145282727E+02  0.14242375128E+03  0.14395866339E+03  0.00000000000E+00 0. -1.
         21    1    1    2  503  502 -0.85457583821E+01  0.19145282727E+02  0.37990768117E+03  0.38048576589E+03  0.00000000000E+00 0.  1.
</event>
<event>
 4    1  0.5452128E+002  0.2529212E+02  0.7546771E-02  0.1465562E+00
          2   -1    0    0  503    0  0.00000000000E+00  0.00000000000E+00  0.82443219065E+02  0.82443219065E+02  0.00000000000E+00 0. -1.
         -2   -1    0    0    0  501 -0.00000000000E+00 -0.00000000000E+00 -0.19085581775E+02  0.19085581775E+02  0.00000000000E+00 0.  1.
         21    1    1    2  502  501  0.10409556095E+02  0.23050650375E+02 -0.74280139709E+01  0.26360324967E+02  0.00000000000E+00 0.  1.
         21    1    1    2  503  502 -0.10409556095E+02 -0.23050650375E+02  0.70785651261E+02  0.75168475874E+02  0.00000000000E+00 0. -1.
</event>
<event>
 4    1  0.5452128E+002  0.2415010E+02  0.7546771E-02  0.1478540E+00
          2   -1    0    0  502    0  0.00000000000E+00  0.00000000000E+00  0.67304167625E+03  0.67304167625E+03  0.00000000000E+00 0.  1.
         -2   -1    0    0    0  501 -0.00000000000E+00 -0.00000000000E+00 -0.12635422361E+01  0.12635422361E+01  0.00000000000E+00 0. -1.
         21    1    1    2  502  503  0.81747089653E+01  0.22724468339E+02  0.52487094495E+03  0.52542624238E+03  0.00000000000E+00 0.  1.
         21    1    1    2  503  501 -0.81747089653E+01 -0.22724468339E+02  0.14690718906E+03  0.14887897610E+03  0.00000000000E+00 0. -1.
</event>
<event>
 4    1  0.5452128E+002  0.3466682E+02  0.7546771E-02  0.1382921E+00
          2   -1    0    0  503    0  0.00000000000E+00  0.00000000000E+00  0.69389047006E+02  0.69389047006E+02  0.00000000000E+00 0.  1.
         -2   -1    0    0    0  501 -0.00000000000E+00 -0.00000000000E+00 -0.28596605350E+02  0.28596605350E+02  0.00000000000E+00 0. -1.
         21    1    1    2  502  501 -0.26614809092E+02  0.22213524422E+02 -0.10369893303E+02  0.36184574301E+02  0.00000000000E+00 0. -1.
         21    1    1    2  503  502  0.26614809092E+02 -0.22213524422E+02  0.51162334959E+02  0.61801078055E+02  0.00000000000E+00 0.  1.
</event>
<event>
 4    1  0.5452128E+002  0.6948543E+02  0.7546771E-02  0.1230617E+00
          2   -1    0    0  503    0  0.00000000000E+00  0.00000000000E+00  0.16399038955E+04  0.16399038955E+04  0.00000000000E+00 0. -1.
         -2   -1    0    0    0  501 -0.00000000000E+00 -0.00000000000E+00 -0.29515117808E+01  0.29515117808E+01  0.00000000000E+00 0.  1.
         21    1    1    2  502  501  0.35131801489E+02  0.59949820656E+02  0.77762482150E+03  0.78072311833E+03  0.00000000000E+00 0. -1.
         21    1    1    2  503  502 -0.35131801489E+02 -0.59949820656E+02  0.85932756223E+03  0.86213228897E+03  0.00000000000E+00 0.  1.
</event>
<event>
 4    1  0.5452128E+002  0.2131634E+02  0.7546771E-02  0.1514796E+00
          2   -1    0    0  503    0  0.00000000000E+00  0.00000000000E+00  0.61674480001E+03  0.61674480001E+03  0.00000000000E+00 0. -1.
         -2   -1    0    0    0  501 -0.00000000000E+00 -0.00000000000E+00 -0.15344100758E+01  0.15344100758E+01  0.00000000000E+00 0.  1.
         21    1    1    2  502  501  0.13917660664E+02  0.16145750281E+02  0.84713984228E+02  0.87354711690E+02  0.00000000000E+00 0.  1.
         21    1    1    2  503  502 -0.13917660664E+02 -0.16145750281E+02  0.53049640570E+03  0.53092449839E+03  0.00000000000E+00 0. -1.
</event>
<event>
 4    1  0.5452128E+002  0.2242891E+02  0.7546771E-02  0.1499797E+00
          2   -1    0    0  502    0  0.00000000000E+00  0.00000000000E+00  0.11108786062E+04  0.11108786062E+04  0.00000000000E+00 0. -1.
         -2   -1    0    0    0  501 -0.00000000000E+00 -0.00000000000E+00 -0.65138583380E+00  0.65138583380E+00  0.00000000000E+00 0.  1.
         21    1    1    2  502  503 -0.20898907190E+02 -0.81419812939E+01  0.24828447019E+03  0.24929547593E+03  0.00000000000E+00 0.  1.
         21    1    1    2  503  501  0.20898907190E+02  0.81419812939E+01  0.86194275018E+03  0.86223451611E+03  0.00000000000E+00 0. -1.
</event>
<event>
 4    1  0.5452128E+002  0.2118000E+02  0.7546771E-02  0.1516710E+00
          2   -1    0    0  502    0  0.00000000000E+00  0.00000000000E+00  0.22920854387E+03  0.22920854387E+03  0.00000000000E+00 0.  1.
         -2   -1    0    0    0  501 -0.00000000000E+00 -0.00000000000E+00 -0.22272507195E+01  0.22272507195E+01  0.00000000000E+00 0. -1.
         21    1    1    2  502  503  0.20715305976E+02  0.44123024465E+01  0.15378925306E+03  0.15524086662E+03  0.00000000000E+00 0.  1.
         21    1    1    2  503  501 -0.20715305976E+02 -0.44123024465E+01  0.73192040099E+02  0.76194927970E+02  0.00000000000E+00 0. -1.
</event>
<event>
 4    1  0.5452128E+002  0.3263591E+02  0.7546771E-02  0.1397991E+00
          2   -1    0    0  503    0  0.00000000000E+00  0.00000000000E+00  0.18077347187E+02  0.18077347187E+02  0.00000000000E+00 0. -1.
         -2   -1    0    0    0  501 -0.00000000000E+00 -0.00000000000E+00 -0.14938200103E+03  0.14938200103E+03  0.00000000000E+00 0.  1.
         21    1    1    2  502  501 -0.28951169473E+02  0.15064267156E+02 -0.13080996651E+03  0.13481969329E+03  0.00000000000E+00 0.  1.
         21    1    1    2  503  502  0.28951169473E+02 -0.15064267156E+02 -0.49468733567E+00  0.32639654936E+02  0.00000000000E+00 0. -1.
</event>
<event>
 4    1  0.5452128E+002  0.2158776E+02  0.7546771E-02  0.1511036E+00
          2   -1    0    0  502    0  0.00000000000E+00  0.00000000000E+00  0.97151108149E+03  0.97151108149E+03  0.00000000000E+00 0.  1.
         -2   -1    0    0    0  501 -0.00000000000E+00 -0.00000000000E+00 -0.73292785848E+00  0.73292785848E+00  0.00000000000E+00 0. -1.
         21    1    1    2  502  503  0.11845043430E+02 -0.18047889119E+02  0.19964803603E+03  0.20081177666E+03  0.00000000000E+00 0. -1.
         21    1    1    2  503  501 -0.11845043430E+02  0.18047889119E+02  0.77113011760E+03  0.77143223268E+03  0.00000000000E+00 0.  1.
</event>
<event>
 4    1  0.5452128E+002  0.2228994E+02  0.7546771E-02  0.1501612E+00
          2   -1    0    0  502    0  0.00000000000E+00  0.00000000000E+00  0.13795870211E+04  0.13795870211E+04  0.00000000000E+00 0.  1.
         -2   -1    0    0    0  501 -0.00000000000E+00 -0.00000000000E+00 -0.37989969248E+00  0.37989969248E+00  0.00000000000E+00 0. -1.
         21    1    1    2  502  503 -0.21760215573E+02  0.48305846383E+01  0.84697202923E+03  0.84726528303E+03  0.00000000000E+00 0. -1.
         21    1    1    2  503  501  0.21760215573E+02 -0.48305846383E+01  0.53223509221E+03  0.53270163779E+03  0.00000000000E+00 0.  1.
</event>
<event>
 4    1  0.5452128E+002  0.2175144E+02  0.7546771E-02  0.1508801E+00
          2   -1    0    0  502    0  0.00000000000E+00  0.00000000000E+00  0.14508651174E+04  0.14508651174E+04  0.00000000000E+00 0. -1.
         -2   -1    0    0    0  501 -0.00000000000E+00 -0.00000000000E+00 -0.38149156504E+00  0.38149156504E+00  0.00000000000E+00 0.  1.
         21    1    1    2  502  503 -0.15764975838E+01  0.21694231817E+02  0.10017424776E+04  0.10019786008E+04  0.00000000000E+00 0. -1.
         21    1    1    2  503  501  0.15764975838E+01 -0.21694231817E+02  0.44874114823E+03  0.44926800816E+03  0.00000000000E+00 0.  1.
</event>
<event>
 4    1  0.5452128E+002  0.2309927E+02  0.7546771E-02  0.1491255E+00
          2   -1    0    0  503    0  0.00000000000E+00  0.00000000000E+00  0.58675845559E+02  0.58675845559E+02  0.00000000000E+00 0.  1.
         -2   -1    0    0    0  501 -0.00000000000E+00 -0.00000000000E+00 -0.16471702869E+02  0.16471702869E+02  0.00000000000E+00 0. -1.
         21    1    1    2  502  501  0.21686574768E+02  0.79541538244E+01 -0.40449883545E+01  0.23450757322E+02  0.00000000000E+00 0. -1.
         21    1    1    2  503  502 -0.21686574768E+02 -0.79541538244E+01  0.46249131045E+02  0.51696791105E+02  0.00000000000E+00 0.  1.
</event>
<event>
 4    1  0.5452128E+002  0.2551513E+02  0.7546771E-02  0.1463122E+00
          2   -1    0    0  502    0  0.00000000000E+00  0.00000000000E+00  0.19208164800E+04  0.19208164800E+04  0.00000000000E+00 0. -1.
         -2   -1    0    0    0  501 -0.00000000000E+00 -0.00000000000E+00 -0.47402132669E+00  0.47402132669E+00  0.00000000000E+00 0.  1.
         21    1    1    2  502  503  0.21929241684E+02  0.13043395842E+02  0.14730069440E+04  0.14732279114E+04  0.00000000000E+00 0. -1.
         21    1    1    2  503  501 -0.21929241684E+02 -0.13043395842E+02  0.44733551469E+03  0.44806258996E+03  0.00000000000E+00 0.  1.
</event>
<event>
 4    1  0.5452128E+002  0.2000852E+02  0.7546771E-02  0.1533905E+00
          2   -1    0    0  503    0  0.00000000000E+00  0.00000000000E+00  0.83655238514E+03  0.83655238514E+03  0.00000000000E+00 0.  1.
         -2   -1    0    0    0  501 -0.00000000000E+00 -0.00000000000E+00 -0.19852564203E+01  0.19852564203E+01  0.00000000000E+00 0. -1.
         21    1    1    2  502  501  0.63604888991E+01  0.18970640444E+02  0.52027821491E+02  0.55742580017E+02  0.00000000000E+00 0. -1.
         21    1    1    2  503  502 -0.63604888991E+01 -0.18970640444E+02  0.78253930723E+03  0.78279506154E+03  0.00000000000E+00 0.  1.
</event>
<event>
 4    1  0.5452128E+002  0.5798430E+02  0.7546771E-02  0.1266839E+00
          2   -1    0    0  503    0  0.00000000000E+00  0.00000000000E+00  0.23578696039E+04  0.23578696039E+04  0.00000000000E+00 0.  1.
         -2   -1    0    0    0  501 -0.00000000000E+00 -0.00000000000E+00 -0.14477007490E+01  0.14477007490E+01  0.00000000000E+00 0. -1.
         21    1    1    2  502  501 -0.33665918421E+02 -0.47210010200E+02  0.13228415032E+04  0.13241117105E+04  0.00000000000E+00 0.  1.
         21    1    1    2  503  502  0.33665918421E+02  0.47210010200E+02  0.10335803999E+04  0.10352055942E+04  0.00000000000E+00 0. -1.
</event>
<event>
 4    1  0.5452128E+002  0.2429277E+02  0.7546771E-02  0.1476873E+00
          2   -1    0    0  502    0  0.00000000000E+00  0.00000000000E+00  0.16048411087E+01  0.16048411087E+01  0.00000000000E+00 0. -1.
         -2   -1    0    0    0  501 -0.00000000000E+00 -0.00000000000E+00 -0.69513565618E+03  0.69513565618E+03  0.00000000000E+00 0.  1.
         21    1    1    2  502  503  0.19793790538E+02  0.14083478539E+02 -0.10767983090E+03  0.11038607020E+03  0.00000000000E+00 0. -1.
         21    1    1    2  503  501 -0.19793790538E+02 -0.14083478539E+02 -0.58585098418E+03  0.58635442709E+03  0.00000000000E+00 0.  1.
</event>
<event>
 4    1  0.5452128E+002  0.2098979E+02  0.7546771E-02  0.1519411E+00
          2   -1    0    0  502    0  0.00000000000E+00  0.00000000000E+00  0.95273815396E+03  0.95273815396E+03  0.00000000000E+00 0.  1.
         -2   -1    0    0    0  501 -0.00000000000E+00 -0.00000000000E+00 -0.51191216853E+00  0.51191216853E+00  0.00000000000E+00 0. -1.
         21    1    1    2  502  503 -0.12262848499E+02  0.17035070615E+02  0.62430355111E+03  0.62465630151E+03  0.00000000000E+00 0. -1.
         21    1    1    2  503  501  0.12262848499E+02 -0.17035070615E+02  0.32792269068E+03  0.32859376462E+03  0.00000000000E+00 0.  1.
</event>
<event>
 4    1  0.5452128E+002  0.2101850E+02  0.7546771E-02  0.1519001E+00
          2   -1    0    0  502    0  0.00000000000E+00  0.00000000000E+00  0.53648430793E+03  0.53648430793E+03  0.00000000000E+00 0.  1.
         -2   -1    0    0    0  501 -0.00000000000E+00 -0.00000000000E+00 -0.25914054755E+01  0.25914054755E+01  0.00000000000E+00 0. -1.
         21    1    1    2  502  503 -0.16880838852E+02  0.12522565113E+02  0.48957743470E+03  0.49002840930E+03  0.00000000000E+00 0.  1.
         21    1    1    2  503  501  0.16880838852E+02 -0.12522565113E+02  0.44315467757E+02  0.49047304104E+02  0.00000000000E+00 0. -1.
</event>
<event>
 4    1  0.5452128E+002  0.2255633E+02  0.7546771E-02  0.1498146E+00
          2   -1    0    0  503    0  0.00000000000E+00  0.00000000000E+00  0.92169750018E+03  0.92169750018E+03  0.00000000000E+00 0. -1.
         -2   -1    0    0    0  501 -0.00000000000E+00 -0.00000000000E+00 -0.10045449318E+02  0.10045449318E+02  0.00000000000E+00 0.  1.
         21    1    1    2  502  501  0.17634262361E+02  0.14064881615E+02  0.29355585758E+01  0.22746551563E+02  0.00000000000E+00 0.  1.
         21    1    1    2  503  502 -0.17634262361E+02 -0.14064881615E+02  0.90871649228E+03  0.90899639793E+03  0.00000000000E+00 0. -1.
</event>
<event>
 4    1  0.5452128E+002  0.3394348E+02  0.7546771E-02  0.1388147E+00
          2   -1    0    0  503    0  0.00000000000E+00  0.00000000000E+00  0.77253999045E+03  0.77253999045E+03  0.00000000000E+00 0. -1.
         -2   -1    0    0    0  501 -0.00000000000E+00 -0.00000000000E+00 -0.36607615076E+02  0.36607615076E+02  0.00000000000E+00 0.  1.
         21    1    1    2  502  501  0.61521574967E+01  0.33381298203E+02 -0.28280767347E+02  0.44181013041E+02  0.00000000000E+00 0.  1.
         21    1    1    2  503  502 -0.61521574967E+01 -0.33381298203E+02  0.76421314273E+03  0.76496659249E+03  0.00000000000E+00 0. -1.
</event>
<event>
 4    1  0.5452128E+002  0.2146709E+02  0.7546771E-02  0.1512699E+00
          2   -1    0    0  503    0  0.00000000000E+00  0.00000000000E+00  0.33600266142E+03  0.33600266142E+03  0.00000000000E+00 0.  1.
         -2   -1    0    0    0  501 -0.00000000000E+00 -0.00000000000E+00 -0.18867246481E+01  0.18867246481E+01  0.00000000000E+00 0. -1.
         21    1    1    2  502  501  0.33528381712E+01 -0.21203637216E+02  0.78774692142E+02  0.81647338456E+02  0.00000000000E+00 0. -1.
         21    1    1    2  503  502 -0.33528381712E+01  0.21203637216E+02  0.25534124463E+03  0.25624204761E+03  0.00000000000E+00 0.  1.
</event>
<event>
 4    1  0.5452128E+002  0.2083441E+02  0.7546771E-02  0.1521642E+00
          2   -1    0    0  502    0  0.00000000000E+00  0.00000000000E+00  0.81857175031E+01  0.81857175031E+01  0.00000000000E+00 0.  1.
         -2   -1    0    0    0  501 -0.00000000000E+00 -0.00000000000E+00 -0.67933471939E+02  0.67933471939E+02  0.00000000000E+00 0. -1.
         21    1    1    2  502  503 -0.16277594593E+02 -0.13004323531E+02 -0.12046206414E+02  0.24066233715E+02  0.00000000000E+00 0.  1.
         21    1    1    2  503  501  0.16277594593E+02  0.13004323531E+02 -0.47701548022E+02  0.52052955727E+02  0.00000000000E+00 0. -1.
</event>
<event>
 4    1  0.5452128E+002  0.2263421E+02  0.7546771E-02  0.1497143E+00
          2   -1    0    0  503    0  0.00000000000E+00  0.00000000000E+00  0.72564642639E+02  0.72564642639E+02  0.00000000000E+00 0. -1.
         -2   -1    0    0    0  501 -0.00000000000E+00 -0.00000000000E+00 -0.76117329948E+01  0.76117329948E+01  0.00000000000E+00 0.  1.
         21    1    1    2  502  501 -0.17216459333E+02 -0.14693567334E+02  0.43269242158E+02  0.48831697799E+02  0.00000000000E+00 0.  1.
         21    1    1    2  503  502  0.17216459333E+02  0.14693567334E+02  0.21683667486E+02  0.31344677835E+02  0.00000000000E+00 0. -1.
</event>
<event>
 4    1  0.5452128E+002  0.2822789E+02  0.7546771E-02  0.1435649E+00
          2   -1    0    0  502    0  0.00000000000E+00  0.00000000000E+00  0.15410669226E+04  0.15410669226E+04  0.00000000000E+00 0.  1.
         -2   -1    0    0    0  501 -0.00000000000E+00 -0.00000000000E+00 -0.23468716328E+01  0.23468716328E+01  0.00000000000E+00 0. -1.
         21    1    1    2  502  503  0.24633125956E+02 -0.13784877804E+02  0.14507750424E+04  0.14510496330E+04  0.00000000000E+00 0.  1.
         21    1    1    2  503  501 -0.24633125956E+02  0.13784877804E+02  0.87945008596E+02  0.92364161272E+02  0.00000000000E+00 0. -1.
</event>
<event>
 4    1  0.5452128E+002  0.2265520E+02  0.7546771E-02  0.1496874E+00
          2   -1    0    0  503    0  0.00000000000E+00  0.00000000000E+00  0.16451295767E+03  0.16451295767E+03  0.00000000000E+00 0.  1.
         -2   -1    0    0    0  501 -0.00000000000E+00 -0.00000000000E+00 -0.41762198801E+01  0.41762198801E+01  0.00000000000E+00 0. -1.
         21    1    1    2  502  501  0.22496167796E+02  0.26796738380E+01  0.37748387858E+02  0.44024981582E+02  0.00000000000E+00 0. -1.
         21    1    1    2  503  502 -0.22496167796E+02 -0.26796738380E+01  0.12258834993E+03  0.12466419596E+03  0.00000000000E+00 0.  1.
</event>
<event>
 4    1  0.5452128E+002  0.2183917E+02  0.7546771E-02  0.1507613E+00
          2   -1    0    0  502    0  0.00000000000E+00  0.00000000000E+00  0.13636510086E+04  0.13636510086E+04  0.00000000000E+00 0. -1.
         -2   -1    0    0    0  501 -0.00000000000E+00 -0.00000000000E+00 -0.36582129234E+00  0.36582129234E+00  0.00000000000E+00 0.  1.
         21    1    1    2  502  503  0.21543064699E+02 -0.35840750693E+01  0.82455134744E+03  0.82484051416E+03  0.00000000000E+00 0.  1.
         21    1    1    2  503  501 -0.21543064699E+02  0.35840750693E+01  0.53873383990E+03  0.53917631576E+03  0.00000000000E+00 0. -1.
</event>
<event>
 4    1  0.5452128E+002  0.3849128E+02  0.7546771E-02  0.1357561E+00
          2   -1    0    0  503    0  0.00000000000E+00  0.00000000000E+00  0.20714222817E+03  0.20714222817E+03  0.00000000000E+00 0.  1.
         -2   -1    0    0    0  501 -0.00000000000E+00 -0.00000000000E+00 -0.71590963911E+01  0.71590963911E+01  0.00000000000E+00 0. -1.
         21    1    1    2  502  501 -0.31706170689E+02  0.21824235592E+02  0.96731601952E+02  0.10410850751E+03  0.00000000000E+00 0.  1.
         21    1    1    2  503  502  0.31706170689E+02 -0.21824235592E+02  0.10325152983E+03  0.11019281705E+03  0.00000000000E+00 0. -1.
</event>
<event>
 4    1  0.5452128E+002  0.2363901E+02  0.7546771E-02  0.1484626E+00
          2   -1    0    0  503    0  0.00000000000E+00  0.00000000000E+00  0.37805650838E+03  0.37805650838E+03  0.00000000000E+00 0. -1.
         -2   -1    0    0    0  501 -0.00000000000E+00 -0.00000000000E+00 -0.42155149053E+01  0.42155149053E+01  0.00000000000E+00 0.  1.
         21    1    1    2  502  501  0.12079815402E+02 -0.20319465544E+02  0.32896607219E+02  0.40509127202E+02  0.00000000000E+00 0.  1.
         21    1    1    2  503  502 -0.12079815402E+02  0.20319465544E+02  0.34094438625E+03  0.34176289608E+03  0.00000000000E+00 0. -1.
</event>
<event>
 4    1  0.5452128E+002  0.2412860E+02  0.7546771E-02  0.1478793E+00
          2   -1    0    0  503    0  0.00000000000E+00  0.00000000000E+00  0.24778524242E+02  0.24778524242E+02  0.00000000000E+00 0. -1.
         -2   -1    0    0    0  501 -0.00000000000E+00 -0.00000000000E+00 -0.38207167382E+02  0.38207167382E+02  0.00000000000E+00 0.  1.
         21    1    1    2  502  501 -0.19830520427E+02  0.13745538079E+02 -0.26256237213E+02  0.35659211294E+02  0.00000000000E+00 0.  1.
         21    1    1    2  503  502  0.19830520427E+02 -0.13745538079E+02  0.12827594074E+02  0.27326480330E+02  0.00000000000E+00 0. -1.
</event>
<event>
 4    1  0.5452128E+002  0.7101051E+02  0.7546771E-02  0.1226411E+00
          2   -1    0    0  503    0  0.00000000000E+00  0.00000000000E+00  0.10056986676E+04  0.10056986676E+04  0.00000000000E+00 0. -1.
         -2   -1    0    0    0  501 -0.00000000000E+00 -0.00000000000E+00 -0.24063971418E+02  0.24063971418E+02  0.00000000000E+00 0.  1.
         21    1    1    2  502  501  0.25102574242E+02  0.66425546425E+02  0.32705459544E+02  0.78180173544E+02  0.00000000000E+00 0.  1.
         21    1    1    2  503  502 -0.25102574242E+02 -0.66425546425E+02  0.94892923660E+03  0.95158246544E+03  0.00000000000E+00 0. -1.
</event>
<event>
 4    1  0.5452128E+002  0.2852787E+02  0.7546771E-02  0.1432836E+00
          2   -1    0    0  502    0  0.00000000000E+00  0.00000000000E+00  0.25854051935E+03  0.25854051935E+03  0.00000000000E+00 0.  1.
         -2   -1    0    0    0  501 -0.00000000000E+00 -0.00000000000E+00 -0.83909012451E+01  0.83909012451E+01  0.00000000000E+00 0. -1.
         21    1    1    2  502  503 -0.22670070748E+02  0.17317833395E+02  0.23057630553E+03  0.23233439722E+03  0.00000000000E+00 0.  1.
         21    1    1    2  503  501  0.22670070748E+02 -0.17317833395E+02  0.19573312581E+02  0.34597023378E+02  0.00000000000E+00 0. -1.
</event>
<event>
 4    1  0.5452128E+002  0.3381239E+02  0.7546771E-02  0.1389110E+00
          2   -1    0    0  503    0  0.00000000000E+00  0.00000000000E+00  0.70940939373E+03  0.70940939373E+03  0.00000000000E+00 0. -1.
         -2   -1    0    0    0  501 -0.00000000000E+00 -0.00000000000E+00 -0.20303159605E+01  0.20303159605E+01  0.00000000000E+00 0.  1.
         21    1    1    2  502  501  0.33071168461E+02  0.70410069655E+01  0.19214562742E+03  0.19509797564E+03  0.00000000000E+00 0.  1.
         21    1    1    2  503  502 -0.33071168461E+02 -0.70410069655E+01  0.51523345034E+03  0.51634173404E+03  0.00000000000E+00 0. -1.
</event>
<event>
 4    1  0.5452128E+002  0.2054568E+02  0.7546771E-02  0.1525851E+00
          2   -1    0    0  502    0  0.00000000000E+00  0.00000000000E+00  0.90375639353E+03  0.90375639353E+03  0.00000000000E+00 0.  1.
         -2   -1    0    0    0  501 -0.00000000000E+00 -0.00000000000E+00 -0.69020456596E+00  0.69020456596E+00  0.00000000000E+00 0. -1.
         21    1    1    2  502  503  0.43038247013E+01  0.20089850776E+02  0.19441102409E+03  0.19549366050E+03  0.00000000000E+00 0. -1.
         21    1    1    2  503  501 -0.43038247013E+01 -0.20089850776E+02  0.70865516487E+03  0.70895293759E+03  0.00000000000E+00 0.  1.
</event>
<event>
 4    1  0.5452128E+002  0.2624704E+02  0.7546771E-02  0.1455322E+00
          2   -1    0    0  503    0  0.00000000000E+00  0.00000000000E+00  0.11827163401E+04  0.11827163401E+04  0.00000000000E+00 0.  1.
         -2   -1    0    0    0  501 -0.00000000000E+00 -0.00000000000E+00 -0.69610836401E+00  0.69610836401E+00  0.00000000000E+00 0. -1.
         21    1    1    2  502  501 -0.19141236134E+02 -0.17958850317E+02  0.35194658372E+03  0.35292393659E+03  0.00000000000E+00 0. -1.
         21    1    1    2  503  502  0.19141236134E+02  0.17958850317E+02  0.83007364800E+03  0.83048851185E+03  0.00000000000E+00 0.  1.
</event>
<event>
 4    1  0.5452128E+002  0.2074810E+02  0.7546771E-02  0.1522892E+00
          2   -1    0    0  503    0  0.00000000000E+00  0.00000000000E+00  0.11798135845E+03  0.11798135845E+03  0.00000000000E+00 0.  1.
         -2   -1    0    0    0  501 -0.00000000000E+00 -0.00000000000E+00 -0.65781980035E+02  0.65781980035E+02  0.00000000000E+00 0. -1.
         21    1    1    2  502  501 -0.20745556044E+02 -0.32517016543E+00 -0.63197418119E+02  0.66516144567E+02  0.00000000000E+00 0. -1.
         21    1    1    2  503  502  0.20745556044E+02  0.32517016543E+00  0.11539679653E+03  0.11724719391E+03  0.00000000000E+00 0.  1.
</event>
<event>
 4    1  0.5452128E+002  0.4494812E+02  0.7546771E-02  0.1321699E+00
          2   -1    0    0  502    0  0.00000000000E+00  0.00000000000E+00  0.15137635044E+04  0.15137635044E+04  0.00000000000E+00 0. -1.
         -2   -1    0    0    0  501 -0.00000000000E+00 -0.00000000000E+00 -0.13939486250E+01  0.13939486250E+01  0.00000000000E+00 0.  1.
         21    1    1    2  502  503  0.28396937442E+02 -0.34841754182E+02  0.91244637820E+03  0.91355280470E+03  0.00000000000E+00 0. -1.
         21    1    1    2  503  501 -0.28396937442E+02  0.34841754182E+02  0.59992317753E+03  0.60160464827E+03  0.00000000000E+00 0.  1.
</event>
<event>
 4    1  0.5452128E+002  0.2011344E+02  0.7546771E-02  0.1532309E+00
          2   -1    0    0  502    0  0.00000000000E+00  0.00000000000E+00  0.37449117943E+03  0.37449117943E+03  0.00000000000E+00 0.  1.
         -2   -1    0    0    0  501 -0.00000000000E+00 -0.00000000000E+00 -0.41681112546E+01  0.41681112546E+01  0.00000000000E+00 0. -1.
         21    1    1    2  502  503 -0.87609548151E+01 -0.18105146541E+02  0.34811988705E+03  0.34870045372E+03  0.00000000000E+00 0.  1.
         21    1    1    2  503  501  0.87609548151E+01  0.18105146541E+02  0.22203181126E+02  0.29958836971E+02  0.00000000000E+00 0. -1.
</event>
<event>
 4    1  0.5452128E+002  0.3020853E+02  0.7546771E-02  0.1417793E+00
          2   -1    0    0  502    0  0.00000000000E+00  0.00000000000E+00  0.48333627033E+03  0.48333627033E+03  0.00000000000E+00 0.  1.
         -2   -1    0    0    0  501 -0.00000000000E+00 -0.00000000000E+00 -0.46543351735E+01  0.46543351735E+01  0.00000000000E+00 0. -1.
         21    1    1    2  502  503 -0.16780652905E+01  0.30161886628E+02  0.42744684666E+03  0.42851296600E+03  0.00000000000E+00 0.  1.
         21    1    1    2  503  501  0.16780652905E+01 -0.30161886628E+02  0.51235088500E+02  0.59477639510E+02  0.00000000000E+00 0. -1.
</event>
<event>
 4    1  0.5452128E+002  0.3799967E+02  0.7546771E-02  0.1360624E+00
          2   -1    0    0  502    0  0.00000000000E+00  0.00000000000E+00  0.18031567002E+03  0.18031567002E+03  0.00000000000E+00 0.  1.
         -2   -1    0    0    0  501 -0.00000000000E+00 -0.00000000000E+00 -0.18653634001E+02  0.18653634001E+02  0.00000000000E+00 0. -1.
         21    1    1    2  502  503 -0.37925662565E+02 -0.23704469620E+01  0.15598626935E+03  0.16054809599E+03  0.00000000000E+00 0.  1.
         21    1    1    2  503  501  0.37925662565E+02  0.23704469620E+01  0.56757666748E+01  0.38421208038E+02  0.00000000000E+00 0. -1.
</event>
<event>
 4    1  0.5452128E+002  0.3526669E+02  0.7546771E-02  0.1378698E+00
          2   -1    0    0  503    0  0.00000000000E+00  0.00000000000E+00  0.13908902935E+03  0.13908902935E+03  0.00000000000E+00 0. -1.
         -2   -1    0    0    0  501 -0.00000000000E+00 -0.00000000000E+00 -0.21202790644E+02  0.21202790644E+02  0.00000000000E+00 0.  1.
         21    1    1    2  502  501  0.32316114556E+02  0.14121190427E+02 -0.20026313374E+01  0.35323502252E+02  0.00000000000E+00 0.  1.
         21    1    1    2  503  502 -0.32316114556E+02 -0.14121190427E+02  0.11988887004E+03  0.12496831774E+03  0.00000000000E+00 0. -1.
</event>
<event>
 4    1  0.5452128E+002  0.2002167E+02  0.7546771E-02  0.1533705E+00
          2   -1    0    0  502    0  0.00000000000E+00  0.00000000000E+00  0.43285216922E+03  0.43285216922E+03  0.00000000000E+00 0. -1.
         -2   -1    0    0    0  501 -0.00000000000E+00 -0.00000000000E+00 -0.11135669953E+01  0.11135669953E+01  0.00000000000E+00 0.  1.
         21    1    1    2  502  503 -0.19453938616E+02 -0.47340968750E+01  0.30489627931E+03  0.30555295538E+03  0.00000000000E+00 0. -1.
         21    1    1    2  503  501  0.19453938616E+02  0.47340968750E+01  0.12684232291E+03  0.12841278084E+03  0.00000000000E+00 0.  1.
</event>
<event>
 4    1  0.5452128E+002  0.2609283E+02  0.7546771E-02  0.1456940E+00
          2   -1    0    0  503    0  0.00000000000E+00  0.00000000000E+00  0.88833028399E+03  0.88833028399E+03  0.00000000000E+00 0.  1.
         -2   -1    0    0    0  501 -0.00000000000E+00 -0.00000000000E+00 -0.17548715510E+01  0.17548715510E+01  0.00000000000E+00 0. -1.
         21    1    1    2  502  501 -0.81513547471E+01 -0.24786919058E+02  0.10928027207E+03  0.11235218647E+03  0.00000000000E+00 0. -1.
         21    1    1    2  503  502  0.81513547471E+01  0.24786919058E+02  0.77729514037E+03  0.77773296908E+03  0.00000000000E+00 0.  1.
</event>
<event>
 4    1  0.5452128E+002  0.2861842E+02  0.7546771E-02  0.1431995E+00
          2   -1    0    0  503    0  0.00000000000E+00  0.00000000000E+00  0.69831314951E+03  0.69831314951E+03  0.00000000000E+00 0.  1.
         -2   -1    0    0    0  501 -0.00000000000E+00 -0.00000000000E+00 -0.25651261784E+01  0.25651261784E+01  0.00000000000E+00 0. -1.
         21    1    1    2  502  501 -0.13944385697E+02 -0.24991363493E+02  0.89694677160E+02  0.94149611006E+02  0.00000000000E+00 0. -1.
         21    1    1    2  503  502  0.13944385697E+02  0.24991363493E+02  0.60605334618E+03  0.60672866469E+03  0.00000000000E+00 0.  1.
</event>
<event>
 4    1  0.5452128E+002  0.2403509E+02  0.7546771E-02  0.1479894E+00
          2   -1    0    0  502    0  0.00000000000E+00  0.00000000000E+00  0.14420713716E+03  0.14420713716E+03  0.00000000000E+00 0. -1.
         -2   -1    0    0    0  501 -0.00000000000E+00 -0.00000000000E+00 -0.76362978920E+01  0.76362978920E+01  0.00000000000E+00 0.  1.
         21    1    1    2  502  503  0.20572467105E+02  0.12428150151E+02  0.12063331665E+03  0.12300439994E+03  0.00000000000E+00 0. -1.
         21    1    1    2  503  501 -0.20572467105E+02 -0.12428150151E+02  0.15937522619E+02  0.28839035112E+02  0.00000000000E+00 0.  1.
</event>
<event>
 4    1  0.5452128E+002  0.2594308E+02  0.7546771E-02  0.1458524E+00
          2   -1    0    0  502    0  0.00000000000E+00  0.00000000000E+00  0.18758791445E+04  0.18758791445E+04  0.00000000000E+00 0. -1.
         -2   -1    0    0    0  501 -0.00000000000E+00 -0.00000000000E+00 -0.59714535946E+00  0.59714535946E+00  0.00000000000E+00 0.  1.
         21    1    1    2  502  503  0.20005750395E+02  0.16517055787E+02  0.15304123620E+04  0.15306322357E+04  0.00000000000E+00 0. -1.
         21    1    1    2  503  501 -0.20005750395E+02 -0.16517055787E+02  0.34486963714E+03  0.34584405417E+03  0.00000000000E+00 0.  1.
</event>
<event>
 4    1  0.5452128E+002  0.2756404E+02  0.7546771E-02  0.1442023E+00
          2   -1    0    0  502    0  0.00000000000E+00  0.00000000000E+00  0.17613290725E+02  0.17613290725E+02  0.00000000000E+00 0. -1.
         -2   -1    0    0    0  501 -0.00000000000E+00 -0.00000000000E+00 -0.43360279343E+02  0.43360279343E+02  0.00000000000E+00 0.  1.
         21    1    1    2  502  503  0.27162644477E+02 -0.46868860700E+01 -0.15063530602E+02  0.31411560136E+02  0.00000000000E+00 0. -1.
         21    1    1    2  503  501 -0.27162644477E+02  0.46868860700E+01 -0.10683458016E+02  0.29562009932E+02  0.00000000000E+00 0.  1.
</event>
<event>
 4    1  0.5452128E+002  0.3296211E+02  0.7546771E-02  0.1395485E+00
          2   -1    0    0  503    0  0.00000000000E+00  0.00000000000E+00  0.17690057920E+02  0.17690057920E+02  0.00000000000E+00 0.  1.
         -2   -1    0    0    0  501 -0.00000000000E+00 -0.00000000000E+00 -0.16937606468E+03  0.16937606468E+03  0.00000000000E+00 0. -1.
         21    1    1    2  502  501 -0.11022498550E+02  0.31064531460E+02 -0.15051628563E+03  0.15408326589E+03  0.00000000000E+00 0. -1.
         21    1    1    2  503  502  0.11022498550E+02 -0.31064531460E+02 -0.11697211334E+01  0.32982856709E+02  0.00000000000E+00 0.  1.
</event>
<event>
 4    1  0.5452128E+002  0.2063142E+02  0.7546771E-02  0.1524593E+00
          2   -1    0    0  503    0  0.00000000000E+00  0.00000000000E+00  0.20339515364E+03  0.20339515364E+03  0.00000000000E+00 0. -1.
         -2   -1    0    0    0  501 -0.00000000000E+00 -0.00000000000E+00 -0.34691456687E+01  0.34691456687E+01  0.00000000000E+00 0.  1.
         21    1    1    2  502  501 -0.20156862929E+02  0.43995701541E+01  0.34812792726E+02  0.40467096239E+02  0.00000000000E+00 0.  1.
         21    1    1    2  503  502  0.20156862929E+02 -0.43995701541E+01  0.16511321525E+03  0.16639720307E+03  0.00000000000E+00 0. -1.
</event>
<event>
 4    1  0.5452128E+002  0.2311309E+02  0.7546771E-02  0.1491083E+00
          2   -1    0    0  502    0  0.00000000000E+00  0.00000000000E+00  0.82144607938E+03  0.82144607938E+03  0.00000000000E+00 0. -1.
         -2   -1    0    0    0  501 -0.00000000000E+00 -0.00000000000E+00 -0.69957679431E+01  0.69957679431E+01  0.00000000000E+00 0.  1.
         21    1    1    2  502  503  0.18002965647E+02 -0.14495111902E+02  0.80172330366E+03  0.80205640118E+03  0.00000000000E+00 0. -1.
         21    1    1    2  503  501 -0.18002965647E+02  0.14495111902E+02  0.12727007773E+02  0.26385446140E+02  0.00000000000E+00 0.  1.
</event>
<event>
 4    1  0.5452128E+002  0.2520454E+02  0.7546771E-02  0.1466528E+00
          2   -1    0    0  502    0  0.00000000000E+00  0.00000000000E+00  0.13126287226E+04  0.13126287226E+04  0.00000000000E+00 0. -1.
         -2   -1    0    0    0  501 -0.00000000000E+00 -0.00000000000E+00 -0.39645154162E+01  0.39645154162E+01  0.00000000000E+00 0.  1.
         21    1    1    2  502  503  0.20067221556E+02  0.15250419973E+02  0.12711407071E+04  0.12713905639E+04  0.00000000000E+00 0. -1.
         21    1    1    2  503  501 -0.20067221556E+02 -0.15250419973E+02  0.37523500104E+02  0.45202674151E+02  0.00000000000E+00 0.  1.
</event>
<event>
 4    1  0.5452128E+002  0.2035514E+02  0.7546771E-02  0.1528674E+00
          2   -1    0    0  503    0  0.00000000000E+00  0.00000000000E+00  0.12421595237E+03  0.12421595237E+03  0.00000000000E+00 0. -1.
         -2   -1    0    0    0  501 -0.00000000000E+00 -0.00000000000E+00 -0.17563648728E+02  0.17563648728E+02  0.00000000000E+00 0.  1.
         21    1    1    2  502  501 -0.86471602021E+01 -0.18427103646E+02 -0.10478074745E+02  0.22893701726E+02  0.00000000000E+00 0.  1.
         21    1    1    2  503  502  0.86471602021E+01  0.18427103646E+02  0.11713037839E+03  0.11888589937E+03  0.00000000000E+00 0. -1.
</event>
<event>
 4    1  0.5452128E+002  0.3193143E+02  0.7546771E-02  0.1403523E+00
          2   -1    0    0  502    0  0.00000000000E+00  0.00000000000E+00  0.23620917614E+02  0.23620917614E+02  0.00000000000E+00 0.  1.
         -2   -1    0    0    0  501 -0.00000000000E+00 -0.00000000000E+00 -0.16248527136E+03  0.16248527136E+03  0.00000000000E+00 0. -1.
         21    1    1    2  502  503  0.17852928136E+02 -0.26474312479E+02  0.10308413208E+02  0.33554130105E+02  0.00000000000E+00 0.  1.
         21    1    1    2  503  501 -0.17852928136E+02  0.26474312479E+02 -0.14917276695E+03  0.15255205887E+03  0.00000000000E+00 0. -1.
</event>
<event>
 4    1  0.5452128E+002  0.2906669E+02  0.7546771E-02  0.1427884E+00
          2   -1    0    0  503    0  0.00000000000E+00  0.00000000000E+00  0.42089715750E+03  0.42089715750E+03  0.00000000000E+00 0. -1.
         -2   -1    0    0    0  501 -0.00000000000E+00 -0.00000000000E+00 -0.24267941695E+01  0.24267941695E+01  0.00000000000E+00 0.  1.
         21    1    1    2  502  501  0.25582549956E+02  0.13798748141E+02  0.12123518852E+03  0.12467093987E+03  0.00000000000E+00 0.  1.
         21    1    1    2  503  502 -0.25582549956E+02 -0.13798748141E+02  0.29723517481E+03  0.29865301180E+03  0.00000000000E+00 0. -1.
</event>
<event>
 4    1  0.5452128E+002  0.2150653E+02  0.7546771E-02  0.1512154E+00
          2   -1    0    0  503    0  0.00000000000E+00  0.00000000000E+00  0.16301687619E+02  0.16301687619E+02  0.00000000000E+00 0.  1.
         -2   -1    0    0    0  501 -0.00000000000E+00 -0.00000000000E+00 -0.29009981273E+02  0.29009981273E+02  0.00000000000E+00 0. -1.
         21    1    1    2  502  501  0.15754567181E+02  0.14639828254E+02 -0.97107751357E+01  0.23597247978E+02  0.00000000000E+00 0.  1.
         21    1    1    2  503  502 -0.15754567181E+02 -0.14639828254E+02 -0.29975185182E+01  0.21714420914E+02  0.00000000000E+00 0. -1.
</event>
<event>
 4    1  0.5452128E+002  0.2364544E+02  0.7546771E-02  0.1484549E+00
          2   -1    0    0  502    0  0.00000000000E+00  0.00000000000E+00  0.71473524814E+03  0.71473524814E+03  0.00000000000E+00 0. -1.
         -2   -1    0    0    0  501 -0.00000000000E+00 -0.00000000000E+00 -0.30098968608E+01  0.30098968608E+01  0.00000000000E+00 0.  1.
         21    1    1    2  502  503 -0.14760716872E+02  0.18472357923E+02  0.66459843518E+03  0.66501893718E+03  0.00000000000E+00 0. -1.
         21    1    1    2  503  501  0.14760716872E+02 -0.18472357923E+02  0.47126916109E+02  0.52726207826E+02  0.00000000000E+00 0.  1.
</event>
<event>
 4    1  0.5452128E+002  0.6451342E+02  0.7546771E-02  0.1245223E+00
          2   -1    0    0  503    0  0.00000000000E+00  0.00000000000E+00  0.53397348697E+01  0.53397348697E+01  0.00000000000E+00 0. -1.
         -2   -1    0    0    0  501 -0.00000000000E+00 -0.00000000000E+00 -0.79143209001E+03  0.79143209001E+03  0.00000000000E+00 0.  1.
         21    1    1    2  502  501 -0.61386327179E+01  0.64220700198E+02 -0.44209386125E+03  0.44677618927E+03  0.00000000000E+00 0.  1.
         21    1    1    2  503  502  0.61386327179E+01 -0.64220700198E+02 -0.34399849390E+03  0.34999563561E+03  0.00000000000E+00 0. -1.
</event>
<event>
 4    1  0.5452128E+002  0.2972167E+02  0.7546771E-02  0.1422031E+00
          2   -1    0    0  502    0  0.00000000000E+00  0.00000000000E+00  0.86624311676E+03  0.86624311676E+03  0.00000000000E+00 0.  1.
         -2   -1    0    0    0  501 -0.00000000000E+00 -0.00000000000E+00 -0.26287531112E+02  0.26287531112E+02  0.00000000000E+00 0. -1.
         21    1    1    2  502  503  0.33816448614E+01 -0.29528670659E+02  0.85750144196E+03  0.85801637565E+03  0.00000000000E+00 0.  1.
         21    1    1    2  503  501 -0.33816448614E+01  0.29528670659E+02 -0.17545856319E+02  0.34514272219E+02  0.00000000000E+00 0. -1.
</event>
<event>
 4    1  0.5452128E+002  0.2508978E+02  0.7546771E-02  0.1467801E+00
          2   -1    0    0  502    0  0.00000000000E+00  0.00000000000E+00  0.54470927602E+01  0.54470927602E+01  0.00000000000E+00 0. -1.
         -2   -1    0    0    0  501 -0.00000000000E+00 -0.00000000000E+00 -0.14627771587E+03  0.14627771587E+03  0.00000000000E+00 0.  1.
         21    1    1    2  502  503  0.17764508243E+02  0.17717771431E+02 -0.35654367492E+02  0.43597374907E+02  0.00000000000E+00 0.  1.
         21    1    1    2  503  501 -0.17764508243E+02 -0.17717771431E+02 -0.10517625561E+03  0.10812743372E+03  0.00000000000E+00 0. -1.
</event>
<event>
 4    1  0.5452128E+002  0.2037155E+02  0.7546771E-02  0.1528430E+00
          2   -1    0    0  503    0  0.00000000000E+00  0.00000000000E+00  0.61514911403E+03  0.61514911403E+03  0.00000000000E+00 0. -1.
         -2   -1    0    0    0  501 -0.00000000000E+00 -0.00000000000E+00 -0.10737654856E+01  0.10737654856E+01  0.00000000000E+00 0.  1.
         21    1    1    2  502  501  0.12065545685E+02 -0.16414095055E+02  0.11918748947E+03  0.12091591109E+03  0.00000000000E+00 0.  1.
         21    1    1    2  503  502 -0.12065545685E+02  0.16414095055E+02  0.49488785908E+03  0.49530696843E+03  0.00000000000E+00 0. -1.
</event>
<event>
 4    1  0.5452128E+002  0.2821593E+02  0.7546771E-02  0.1435762E+00
          2   -1    0    0  503    0  0.00000000000E+00  0.00000000000E+00  0.30203018048E+03  0.30203018048E+03  0.00000000000E+00 0. -1.
         -2   -1    0    0    0  501 -0.00000000000E+00 -0.00000000000E+00 -0.85101784083E+01  0.85101784083E+01  0.00000000000E+00 0.  1.
         21    1    1    2  502  501  0.12215678790E+02  0.25434545356E+02  0.17758775233E+02  0.33339361175E+02  0.00000000000E+00 0.  1.
         21    1    1    2  503  502 -0.12215678790E+02 -0.25434545356E+02  0.27576122684E+03  0.27720099771E+03  0.00000000000E+00 0. -1.
</event>
<event>
 4    1  0.5452128E+002  0.3868870E+02  0.7546771E-02  0.1356346E+00
          2   -1    0    0  502    0  0.00000000000E+00  0.00000000000E+00  0.16584109116E+04  0.16584109116E+04  0.00000000000E+00 0. -1.
         -2   -1    0    0    0  501 -0.00000000000E+00 -0.00000000000E+00 -0.13758033769E+01  0.13758033769E+01  0.00000000000E+00 0.  1.
         21    1    1    2  502  503 -0.22377447066E+02  0.31560497748E+02  0.13152456653E+04  0.13158145672E+04  0.00000000000E+00 0. -1.
         21    1    1    2  503  501  0.22377447066E+02 -0.31560497748E+02  0.34178944297E+03  0.34397214782E+03  0.00000000000E+00 0.  1.
</event>
<event>
 4    1  0.5452128E+002  0.6906951E+02  0.7546771E-02  0.1231785E+00
          2   -1    0    0  502    0  0.00000000000E+00  0.00000000000E+00  0.52867780707E+02  0.52867780707E+02  0.00000000000E+00 0.  1.
         -2   -1    0    0    0  501 -0.00000000000E+00 -0.00000000000E+00 -0.18892681354E+03  0.18892681354E+03  0.00000000000E+00 0. -1.
         21    1    1    2  502  503 -0.84106690803E+01 -0.68555509376E+02  0.19349533269E+02  0.71728666918E+02  0.00000000000E+00 0.  1.
         21    1    1    2  503  501  0.84106690803E+01  0.68555509376E+02 -0.15540856610E+03  0.17006592733E+03  0.00000000000E+00 0. -1.
</event>
<event>
 4    1  0.5452128E+002  0.2636891E+02  0.7546771E-02  0.1454053E+00
          2   -1    0    0  503    0  0.00000000000E+00  0.00000000000E+00  0.19775905430E+03  0.19775905430E+03  0.00000000000E+00 0.  1.
         -2   -1    0    0    0  501 -0.00000000000E+00 -0.00000000000E+00 -0.36844130640E+01  0.36844130640E+01  0.00000000000E+00 0. -1.
         21    1    1    2  502  501  0.17833055196E+02 -0.19424249897E+02  0.75502728041E+02  0.79974879077E+02  0.00000000000E+00 0. -1.
         21    1    1    2  503  502 -0.17833055196E+02  0.19424249897E+02  0.11857191319E+03  0.12146858828E+03  0.00000000000E+00 0.  1.
</event>
<event>
 4    1  0.5452128E+002  0.4585277E+02  0.7546771E-02  0.1317229E+00
          2   -1    0    0  503    0  0.00000000000E+00  0.00000000000E+00  0.42351483425E+01  0.42351483425E+01  0.00000000000E+00 0. -1.
         -2   -1    0    0    0  501 -0.00000000000E+00 -0.00000000000E+00 -0.54642142287E+03  0.54642142287E+03  0.00000000000E+00 0.  1.
         21    1    1    2  502  501  0.14394637802E+02 -0.43534708588E+02 -0.35436770830E+03  0.35732191247E+03  0.00000000000E+00 0.  1.
         21    1    1    2  503  502 -0.14394637802E+02  0.43534708588E+02 -0.18781856623E+03  0.19333465874E+03  0.00000000000E+00 0. -1.
</event>
<event>
 4    1  0.5452128E+002  0.2021270E+02  0.7546771E-02  0.1530809E+00
          2   -1    0    0  503    0  0.00000000000E+00  0.00000000000E+00  0.73403662902E+02  0.73403662902E+02  0.00000000000E+00 0. -1.
         -2   -1    0    0    0  501 -0.00000000000E+00 -0.00000000000E+00 -0.94032205183E+01  0.94032205183E+01  0.00000000000E+00 0.  1.
         21    1    1    2  502  501  0.25448677097E+01 -0.20051853941E+02  0.55508441850E+01  0.20961036933E+02  0.00000000000E+00 0.  1.
         21    1    1    2  503  502 -0.25448677097E+01  0.20051853941E+02  0.58449598199E+02  0.61845846488E+02  0.00000000000E+00 0. -1.
</event>
<event>
 4    1  0.5452128E+002  0.2692067E+02  0.7546771E-02  0.1448407E+00
          2   -1    0    0  503    0  0.00000000000E+00  0.00000000000E+00  0.16068470008E+02  0.16068470008E+02  0.00000000000E+00 0.  1.
         -2   -1    0    0    0  501 -0.00000000000E+00 -0.00000000000E+00 -0.45635889906E+02  0.45635889906E+02  0.00000000000E+00 0. -1.
         21    1    1    2  502  501 -0.29683718723E+01  0.26756515769E+02 -0.11447127126E+02  0.29253360271E+02  0.00000000000E+00 0. -1.
         21    1    1    2  503  502  0.29683718723E+01 -0.26756515769E+02 -0.18120292772E+02  0.32450999643E+02  0.00000000000E+00 0.  1.
</event>
<event>
 4    1  0.5452128E+002  0.3815407E+02  0.7546771E-02  0.1359656E+00
          2   -1    0    0  503    0  0.00000000000E+00  0.00000000000E+00  0.16283422281E+04  0.16283422281E+04  0.00000000000E+00 0.  1.
         -2   -1    0    0    0  501 -0.00000000000E+00 -0.00000000000E+00 -0.89400060709E+00  0.89400060709E+00  0.00000000000E+00 0. -1.
         21    1    1    2  502  501 -0.15410723060E+02 -0.34903337991E+02  0.81531504215E+03  0.81620729680E+03  0.00000000000E+00 0. -1.
         21    1    1    2  503  502  0.15410723060E+02  0.34903337991E+02  0.81213318533E+03  0.81302893189E+03  0.00000000000E+00 0.  1.
</event>
<event>
 4    1  0.5452128E+002  0.2135094E+02  0.7546771E-02  0.1514313E+00
          2   -1    0    0  502    0  0.00000000000E+00  0.00000000000E+00  0.83480191004E+03  0.83480191004E+03  0.00000000000E+00 0.  1.
         -2   -1    0    0    0  501 -0.00000000000E+00 -0.00000000000E+00 -0.54743748038E+00  0.54743748038E+00  0.00000000000E+00 0. -1.
         21    1    1    2  502  503 -0.20070014321E+02  0.72840491348E+01  0.39627548822E+03  0.39685025565E+03  0.00000000000E+00 0.  1.
         21    1    1    2  503  501  0.20070014321E+02 -0.72840491348E+01  0.43797898433E+03  0.43849909186E+03  0.00000000000E+00 0. -1.
</event>
<event>
 4    1  0.5452128E+002  0.2145297E+02  0.7546771E-02  0.1512895E+00
          2   -1    0    0  502    0  0.00000000000E+00  0.00000000000E+00  0.40101976435E+01  0.40101976435E+01  0.00000000000E+00 0. -1.
         -2   -1    0    0    0  501 -0.00000000000E+00 -0.00000000000E+00 -0.11768233547E+03  0.11768233547E+03  0.00000000000E+00 0.  1.
         21    1    1    2  502  503  0.15094684139E+02  0.15244036042E+02 -0.47255851800E+02  0.51897453247E+02  0.00000000000E+00 0.  1.
         21    1    1    2  503  501 -0.15094684139E+02 -0.15244036042E+02 -0.66416286029E+02  0.69795079870E+02  0.00000000000E+00 0. -1.
</event>
<event>
 4    1  0.5452128E+002  0.2009313E+02  0.7546771E-02  0.1532617E+00
          2   -1    0    0  502    0  0.00000000000E+00  0.00000000000E+00  0.11902376708E+02  0.11902376708E+02  0.00000000000E+00 0. -1.
         -2   -1    0    0    0  501 -0.00000000000E+00 -0.00000000000E+00 -0.12045329152E+03  0.12045329152E+03  0.00000000000E+00 0.  1.
         21    1    1    2  502  503 -0.18861086304E+02  0.69277223646E+01  0.18156105034E+01  0.20174993314E+02  0.00000000000E+00 0. -1.
         21    1    1    2  503  501  0.18861086304E+02 -0.69277223646E+01 -0.11036652532E+03  0.11218067491E+03  0.00000000000E+00 0.  1.
</event>
<event>
 4    1  0.5452128E+002  0.2116142E+02  0.7546771E-02  0.1516973E+00
          2   -1    0    0  502    0  0.00000000000E+00  0.00000000000E+00  0.82441916496E+03  0.82441916496E+03  0.00000000000E+00 0. -1.
         -2   -1    0    0    0  501 -0.00000000000E+00 -0.00000000000E+00 -0.55368953390E+00  0.55368953390E+00  0.00000000000E+00 0.  1.
         21    1    1    2  502  503 -0.14976745813E+02  0.14950013110E+02  0.35509677302E+03  0.35572675471E+03  0.00000000000E+00 0.  1.
         21    1    1    2  503  501  0.14976745813E+02 -0.14950013110E+02  0.46876870240E+03  0.46924609978E+03  0.00000000000E+00 0. -1.
</event>
<event>
 4    1  0.5452128E+002  0.3128536E+02  0.7546771E-02  0.1408746E+00
          2   -1    0    0  503    0  0.00000000000E+00  0.00000000000E+00  0.43686839509E+01  0.43686839509E+01  0.00000000000E+00 0.  1.
         -2   -1    0    0    0  501 -0.00000000000E+00 -0.00000000000E+00 -0.44015215124E+03  0.44015215124E+03  0.00000000000E+00 0. -1.
         21    1    1    2  502  501 -0.28931202801E+02 -0.11906259716E+02 -0.37363066315E+03  0.37493818952E+03  0.00000000000E+00 0. -1.
         21    1    1    2  503  502  0.28931202801E+02  0.11906259716E+02 -0.62152804135E+02  0.69582645666E+02  0.00000000000E+00 0.  1.
</event>
<event>
 4    1  0.5452128E+002  0.2408931E+02  0.7546771E-02  0.1479255E+00
          2   -1    0    0  503    0  0.00000000000E+00  0.00000000000E+00  0.11922189506E+01  0.11922189506E+01  0.00000000000E+00 0. -1.
         -2   -1    0    0    0  501 -0.00000000000E+00 -0.00000000000E+00 -0.98277722629E+03  0.98277722629E+03  0.00000000000E+00 0.  1.
         21    1    1    2  502  501 -0.57000057313E+01  0.23405230019E+02 -0.84032160291E+03  0.84066681341E+03  0.00000000000E+00 0.  1.
         21    1    1    2  503  502  0.57000057313E+01 -0.23405230019E+02 -0.14126340443E+03  0.14330263183E+03  0.00000000000E+00 0. -1.
</event>
<event>
 4    1  0.5452128E+002  0.2577033E+02  0.7546771E-02  0.1460367E+00
          2   -1    0    0  502    0  0.00000000000E+00  0.00000000000E+00  0.13718625899E+02  0.13718625899E+02  0.00000000000E+00 0. -1.
         -2   -1    0    0    0  501 -0.00000000000E+00 -0.00000000000E+00 -0.14797234755E+03  0.14797234755E+03  0.00000000000E+00 0.  1.
         21    1    1    2  502  503 -0.55081338422E+01  0.25174794501E+02 -0.81144895809E+00  0.25783100395E+02  0.00000000000E+00 0. -1.
         21    1    1    2  503  501  0.55081338422E+01 -0.25174794501E+02 -0.13344227269E+03  0.13590787305E+03  0.00000000000E+00 0.  1.
</event>
<event>
 4    1  0.5452128E+002  0.3914353E+02  0.7546771E-02  0.1353579E+00
          2   -1    0    0  503    0  0.00000000000E+00  0.00000000000E+00  0.21571533360E+04  0.21571533360E+04  0.00000000000E+00 0.  1.
         -2   -1    0    0    0  501 -0.00000000000E+00 -0.00000000000E+00 -0.12676432471E+01  0.12676432471E+01  0.00000000000E+00 0. -1.
         21    1    1    2  502  501 -0.34420988635E+02 -0.18638976065E+02  0.36234201716E+03  0.36445020687E+03  0.00000000000E+00 0. -1.
         21    1    1    2  503  502  0.34420988635E+02  0.18638976065E+02  0.17935436756E+04  0.17939707724E+04  0.00000000000E+00 0.  1.
</event>
<event>
 4    1  0.5452128E+002  0.2539643E+02  0.7546771E-02  0.1464417E+00
          2   -1    0    0  503    0  0.00000000000E+00  0.00000000000E+00  0.53819640513E+03  0.53819640513E+03  0.00000000000E+00 0. -1.
         -2   -1    0    0    0  501 -0.00000000000E+00 -0.00000000000E+00 -0.19742743621E+01  0.19742743621E+01  0.00000000000E+00 0.  1.
         21    1    1    2  502  501  0.67784768466E+01  0.24475104402E+02  0.98797823729E+02  0.10200974687E+03  0.00000000000E+00 0.  1.
         21    1    1    2  503  502 -0.67784768466E+01 -0.24475104402E+02  0.43742430704E+03  0.43816093262E+03  0.00000000000E+00 0. -1.
</event>
<event>
 4    1  0.5452128E+002  0.2651661E+02  0.7546771E-02  0.1452525E+00
          2   -1    0    0  502    0  0.00000000000E+00  0.00000000000E+00  0.13959301929E+03  0.13959301929E+03  0.00000000000E+00 0. -1.
         -2   -1    0    0    0  501 -0.00000000000E+00 -0.00000000000E+00 -0.93683467902E+01  0.93683467902E+01  0.00000000000E+00 0.  1.
         21    1    1    2  502  503 -0.23087751734E+02  0.13041706952E+02  0.11575581380E+03  0.11875411079E+03  0.00000000000E+00 0. -1.
         21    1    1    2  503  501  0.23087751734E+02 -0.13041706952E+02  0.14468858702E+02  0.30207255295E+02  0.00000000000E+00 0.  1.
</event>
<event>
 4    1  0.5452128E+002  0.3021696E+02  0.7546771E-02  0.1417720E+00
          2   -1    0    0  502    0  0.00000000000E+00  0.00000000000E+00  0.11251001284E+02  0.11251001284E+02  0.00000000000E+00 0. -1.
         -2   -1    0    0    0  501 -0.00000000000E+00 -0.00000000000E+00 -0.26182253322E+03  0.26182253322E+03  0.00000000000E+00 0.  1.
         21    1    1    2  502  503 -0.21856708912E+02  0.20865023088E+02 -0.11866393075E+02  0.32463459421E+02  0.00000000000E+00 0. -1.
         21    1    1    2  503  501  0.21856708912E+02 -0.20865023088E+02 -0.23870513886E+03  0.24061007508E+03  0.00000000000E+00 0.  1.
</event>
<event>
 4    1  0.5452128E+002  0.3861038E+02  0.7546771E-02  0.1356827E+00
          2   -1    0    0  502    0  0.00000000000E+00  0.00000000000E+00  0.20863678416E+03  0.20863678416E+03  0.00000000000E+00 0.  1.
         -2   -1    0    0    0  501 -0.00000000000E+00 -0.00000000000E+00 -0.10901713419E+02  0.10901713419E+02  0.00000000000E+00 0. -1.
         21    1    1    2  502  503  0.34471733332E+02 -0.17391399382E+02  0.16330272605E+03  0.16780506997E+03  0.00000000000E+00 0.  1.
         21    1    1    2  503  501 -0.34471733332E+02  0.17391399382E+02  0.34432344683E+02  0.51733427605E+02  0.00000000000E+00 0. -1.
</event>
<event>
 4    1  0.5452128E+002  0.4259251E+02  0.7546771E-02  0.1333929E+00
          2   -1    0    0  503    0  0.00000000000E+00  0.00000000000E+00  0.59210064643E+03  0.59210064643E+03  0.00000000000E+00 0.  1.
         -2   -1    0    0    0  501 -0.00000000000E+00 -0.00000000000E+00 -0.37817834517E+01  0.37817834517E+01  0.00000000000E+00 0. -1.
         21    1    1    2  502  501  0.30006142757E+02 -0.30228356745E+02  0.16434681669E+03  0.16977631847E+03  0.00000000000E+00 0. -1.
         21    1    1    2  503  502 -0.30006142757E+02  0.30228356745E+02  0.42397204628E+03  0.42610611141E+03  0.00000000000E+00 0.  1.
</event>
<event>
 4    1  0.5452128E+002  0.3176327E+02  0.7546771E-02  0.1404868E+00
          2   -1    0    0  502    0  0.00000000000E+00  0.00000000000E+00  0.49301392055E+02  0.49301392055E+02  0.00000000000E+00 0.  1.
         -2   -1    0    0    0  501 -0.00000000000E+00 -0.00000000000E+00 -0.20605482347E+02  0.20605482347E+02  0.00000000000E+00 0. -1.
         21    1    1    2  502  503  0.21569708559E+02 -0.23316361135E+02  0.17244017826E+02  0.36142235331E+02  0.00000000000E+00 0.  1.
         21    1    1    2  503  501 -0.21569708559E+02  0.23316361135E+02  0.11451891883E+02  0.33764639071E+02  0.00000000000E+00 0. -1.
</event>
<event>
 4    1  0.5452128E+002  0.2950313E+02  0.7546771E-02  0.1423964E+00
          2   -1    0    0  502    0  0.00000000000E+00  0.00000000000E+00  0.51283920489E+03  0.51283920489E+03  0.00000000000E+00 0. -1.
         -2   -1    0    0    0  501 -0.00000000000E+00 -0.00000000000E+00 -0.24187966702E+01  0.24187966702E+01  0.00000000000E+00 0.  1.
         21    1    1    2  502  503  0.22037340807E+02  0.19616073651E+02  0.39591745782E+03  0.39701519888E+03  0.00000000000E+00 0. -1.
         21    1    1    2  503  501 -0.22037340807E+02 -0.19616073651E+02  0.11450295040E+03  0.11824280268E+03  0.00000000000E+00 0.  1.
</event>
<event>
 4    1  0.5452128E+002  0.2851618E+02  0.7546771E-02  0.1432945E+00
          2   -1    0    0  503    0  0.00000000000E+00  0.00000000000E+00  0.67466182787E+03  0.67466182787E+03  0.00000000000E+00 0.  1.
         -2   -1    0    0    0  501 -0.00000000000E+00 -0.00000000000E+00 -0.14928241184E+01  0.14928241184E+01  0.00000000000E+00 0. -1.
         21    1    1    2  502  501  0.10171792492E+02  0.26640326793E+02  0.18821450241E+03  0.19036247344E+03  0.00000000000E+00 0. -1.
         21    1    1    2  503  502 -0.10171792492E+02 -0.26640326793E+02  0.48495450133E+03  0.48579217855E+03  0.00000000000E+00 0.  1.
</event>
<event>
 4    1  0.5452128E+002  0.4081893E+02  0.7546771E-02  0.1343753E+00
          2   -1    0    0  503    0  0.00000000000E+00  0.00000000000E+00  0.30606869361E+03  0.30606869361E+03  0.00000000000E+00 0. -1.
         -2   -1    0    0    0  501 -0.00000000000E+00 -0.00000000000E+00 -0.54522433086E+01  0.54522433086E+01  0.00000000000E+00 0.  1.
         21    1    1    2  502  501  0.39685549025E+02 -0.95520696678E+01  0.14418830466E+03  0.14985476981E+03  0.00000000000E+00 0. -1.
         21    1    1    2  503  502 -0.39685549025E+02  0.95520696678E+01  0.15642814564E+03  0.16166616710E+03  0.00000000000E+00 0.  1.
</event>
<event>
 4    1  0.5452128E+002  0.2079784E+02  0.7546771E-02  0.1522171E+00
          2   -1    0    0  503    0  0.00000000000E+00  0.00000000000E+00  0.93413084372E+02  0.93413084372E+02  0.00000000000E+00 0.  1.
         -2   -1    0    0    0  501 -0.00000000000E+00 -0.00000000000E+00 -0.99063257093E+01  0.99063257093E+01  0.00000000000E+00 0. -1.
         21    1    1    2  502  501 -0.11454615319E+02  0.17359198408E+02  0.40534501240E+01  0.21189158534E+02  0.00000000000E+00 0. -1.
         21    1    1    2  503  502  0.11454615319E+02 -0.17359198408E+02  0.79453308538E+02  0.82130251547E+02  0.00000000000E+00 0.  1.
</event>
<event>
 4    1  0.5452128E+002  0.2446096E+02  0.7546771E-02  0.1474925E+00
          2   -1    0    0  502    0  0.00000000000E+00  0.00000000000E+00  0.21618477924E+02  0.21618477924E+02  0.00000000000E+00 0. -1.
         -2   -1    0    0    0  501 -0.00000000000E+00 -0.00000000000E+00 -0.69785105470E+02  0.69785105470E+02  0.00000000000E+00 0.  1.
         21    1    1    2  502  503  0.92083829235E+01  0.22661514342E+02  0.11417128965E+02  0.26994247204E+02  0.00000000000E+00 0. -1.
         21    1    1    2  503  501 -0.92083829235E+01 -0.22661514342E+02 -0.59583756512E+02  0.64409336190E+02  0.00000000000E+00 0.  1.
</event>
<event>
 4    1  0.5452128E+002  0.2285310E+02  0.7546771E-02  0.1494351E+00
          2   -1    0    0  502    0  0.00000000000E+00  0.00000000000E+00  0.12619961584E+01  0.12619961584E+01  0.00000000000E+00 0. -1.
         -2   -1    0    0    0  501 -0.00000000000E+00 -0.00000000000E+00 -0.45696075970E+03  0.45696075970E+03  0.00000000000E+00 0.  1.
         21    1    1    2  502  503  0.32121083965E+01 -0.22626233731E+02 -0.15746893987E+03  0.15911860708E+03  0.00000000000E+00 0. -1.
         21    1    1    2  503  501 -0.32121083965E+01  0.22626233731E+02 -0.29822982367E+03  0.29910414878E+03  0.00000000000E+00 0.  1.
</event>
<event>
 4    1  0.5452128E+002  0.2548808E+02  0.7546771E-02  0.1463417E+00
          2   -1    0    0  502    0  0.00000000000E+00  0.00000000000E+00  0.92972186320E+03  0.92972186320E+03  0.00000000000E+00 0.  1.
         -2   -1    0    0    0  501 -0.00000000000E+00 -0.00000000000E+00 -0.23929506806E+01  0.23929506806E+01  0.00000000000E+00 0. -1.
         21    1    1    2  502  503  0.16432920652E+02  0.19483363098E+02  0.85581704059E+03  0.85619650156E+03  0.00000000000E+00 0.  1.
         21    1    1    2  503  501 -0.16432920652E+02 -0.19483363098E+02  0.71511871922E+02  0.75918312313E+02  0.00000000000E+00 0. -1.
</event>
<event>
 4    1  0.5452128E+002  0.2409425E+02  0.7546771E-02  0.1479196E+00
          2   -1    0    0  503    0  0.00000000000E+00  0.00000000000E+00  0.98663709435E+03  0.98663709435E+03  0.00000000000E+00 0.  1.
         -2   -1    0    0    0  501 -0.00000000000E+00 -0.00000000000E+00 -0.68015173866E+00  0.68015173866E+00  0.00000000000E+00 0. -1.
         21    1    1    2  502  501  0.23811634780E+02  0.36794990380E+01  0.67429692715E+03  0.67472726241E+03  0.00000000000E+00 0.  1.
         21    1    1    2  503  502 -0.23811634780E+02 -0.36794990380E+01  0.31166001545E+03  0.31258998368E+03  0.00000000000E+00 0. -1.
</event>
<event>
 4    1  0.5452128E+002  0.2075689E+02  0.7546771E-02  0.1522764E+00
          2   -1    0    0  502    0  0.00000000000E+00  0.00000000000E+00  0.39215165410E+01  0.39215165410E+01  0.00000000000E+00 0.  1.
         -2   -1    0    0    0  501 -0.00000000000E+00 -0.00000000000E+00 -0.11235846258E+04  0.11235846258E+04  0.00000000000E+00 0. -1.
         21    1    1    2  502  503  0.14043921263E+02 -0.15284522311E+02 -0.24350195601E+02  0.31996568137E+02  0.00000000000E+00 0.  1.
         21    1    1    2  503  501 -0.14043921263E+02  0.15284522311E+02 -0.10953129136E+04  0.10955095742E+04  0.00000000000E+00 0. -1.
</event>
<event>
 4    1  0.5452128E+002  0.2388975E+02  0.7546771E-02  0.1481618E+00
          2   -1    0    0  502    0  0.00000000000E+00  0.00000000000E+00  0.13883485171E+04  0.13883485171E+04  0.00000000000E+00 0.  1.
         -2   -1    0    0    0  501 -0.00000000000E+00 -0.00000000000E+00 -0.15194865649E+01  0.15194865649E+01  0.00000000000E+00 0. -1.
         21    1    1    2  502  503  0.23645973318E+02 -0.34041135947E+01  0.12869476835E+04  0.12871693984E+04  0.00000000000E+00 0.  1.
         21    1    1    2  503  501 -0.23645973318E+02  0.34041135947E+01  0.99881347084E+02  0.10269860534E+03  0.00000000000E+00 0. -1.
</event>
<event>
 4    1  0.5452128E+002  0.2868524E+02  0.7546771E-02  0.1431376E+00
          2   -1    0    0  502    0  0.00000000000E+00  0.00000000000E+00  0.80537682073E+03  0.80537682073E+03  0.00000000000E+00 0. -1.
         -2   -1    0    0    0  501 -0.00000000000E+00 -0.00000000000E+00 -0.37928425853E+01  0.37928425853E+01  0.00000000000E+00 0.  1.
         21    1    1    2  502  503 -0.60267604532E+01  0.28044987084E+02  0.74661798080E+03  0.74716882456E+03  0.00000000000E+00 0. -1.
         21    1    1    2  503  501  0.60267604532E+01 -0.28044987084E+02  0.54965997343E+02  0.62000838753E+02  0.00000000000E+00 0.  1.
</event>
<event>
 4    1  0.5452128E+002  0.2001632E+02  0.7546771E-02  0.1533786E+00
          2   -1    0    0  503    0  0.00000000000E+00  0.00000000000E+00  0.73486563827E+03  0.73486563827E+03  0.00000000000E+00 0. -1.
         -2   -1    0    0    0  501 -0.00000000000E+00 -0.00000000000E+00 -0.10914711923E+01  0.10914711923E+01  0.00000000000E+00 0.  1.
         21    1    1    2  502  501  0.46326608749E+01  0.19472842641E+02  0.10656072770E+03  0.10842435997E+03  0.00000000000E+00 0.  1.
         21    1    1    2  503  502 -0.46326608749E+01 -0.19472842641E+02  0.62721343937E+03  0.62753274949E+03  0.00000000000E+00 0. -1.
</event>
<event>
 4    1  0.5452128E+002  0.2540761E+02  0.7546771E-02  0.1464295E+00
          2   -1    0    0  502    0  0.00000000000E+00  0.00000000000E+00  0.10561667119E+02  0.10561667119E+02  0.00000000000E+00 0.  1.
         -2   -1    0    0    0  501 -0.00000000000E+00 -0.00000000000E+00 -0.66087361728E+02  0.66087361728E+02  0.00000000000E+00 0. -1.
         21    1    1    2  502  503  0.19263988373E+02 -0.16566397573E+02 -0.17257579024E+02  0.30714342095E+02  0.00000000000E+00 0. -1.
         21    1    1    2  503  501 -0.19263988373E+02  0.16566397573E+02 -0.38268115585E+02  0.45934686752E+02  0.00000000000E+00 0.  1.
</event>
<event>
 4    1  0.5452128E+002  0.2550019E+02  0.7546771E-02  0.1463285E+00
          2   -1    0    0  503    0  0.00000000000E+00  0.00000000000E+00  0.17831809119E+04  0.17831809119E+04  0.00000000000E+00 0.  1.
         -2   -1    0    0    0  501 -0.00000000000E+00 -0.00000000000E+00 -0.38145764994E+00  0.38145764994E+00  0.00000000000E+00 0. -1.
         21    1    1    2  502  501 -0.21641731033E+02 -0.13486850232E+02  0.70427814602E+03  0.70473964455E+03  0.00000000000E+00 0. -1.
         21    1    1    2  503  502  0.21641731033E+02  0.13486850232E+02  0.10785213083E+04  0.10788227250E+04  0.00000000000E+00 0.  1.
</event>
<event>
 4    1  0.5452128E+002  0.2869280E+02  0.7546771E-02  0.1431307E+00
          2   -1    0    0  503    0  0.00000000000E+00  0.00000000000E+00  0.11105744687E+04  0.11105744687E+04  0.00000000000E+00 0.  1.
         -2   -1    0    0    0  501 -0.00000000000E+00 -0.00000000000E+00 -0.83725517892E+00  0.83725517892E+00  0.00000000000E+00 0. -1.
         21    1    1    2  502  501  0.28663365484E+02  0.12993062722E+01  0.36674892235E+03  0.36786960837E+03  0.00000000000E+00 0. -1.
         21    1    1    2  503  502 -0.28663365484E+02 -0.12993062722E+01  0.74298829120E+03  0.74354211554E+03  0.00000000000E+00 0.  1.
</event>
<event>
 4    1  0.5452128E+002  0.2634149E+02  0.7546771E-02  0.1454337E+00
          2   -1    0    0  503    0  0.00000000000E+00  0.00000000000E+00  0.42775848352E+02  0.42775848352E+02  0.00000000000E+00 0.  1.
         -2   -1    0    0    0  501 -0.00000000000E+00 -0.00000000000E+00 -0.71319087419E+02  0.71319087419E+02  0.00000000000E+00 0. -1.
         21    1    1    2  502  501  0.22698260834E+02 -0.13366497191E+02 -0.64413553105E+02  0.69591523304E+02  0.00000000000E+00 0. -1.
         21    1    1    2  503  502 -0.22698260834E+02  0.13366497191E+02  0.35870314038E+02  0.44503412467E+02  0.00000000000E+00 0.  1.
</event>
<event>
 4    1  0.5452128E+002  0.6625968E+02  0.7546771E-02  0.1239929E+00
          2   -1    0    0  502    0  0.00000000000E+00  0.00000000000E+00  0.31483974904E+04  0.31483974904E+04  0.00000000000E+00 0. -1.
         -2   -1    0    0    0  501 -0.00000000000E+00 -0.00000000000E+00 -0.23515967425E+01  0.23515967425E+01  0.00000000000E+00 0.  1.
         21    1    1    2  502  503 -0.33783428444E+02 -0.57000223200E+02  0.25780717488E+04  0.25789230868E+04  0.00000000000E+00 0. -1.
         21    1    1    2  503  501  0.33783428444E+02  0.57000223200E+02  0.56797414483E+03  0.57182600035E+03  0.00000000000E+00 0.  1.
</event>
<event>
 4    1  0.5452128E+002  0.2261651E+02  0.7546771E-02  0.1497371E+00
          2   -1    0    0  502    0  0.00000000000E+00  0.00000000000E+00  0.47055364196E+02  0.47055364196E+02  0.00000000000E+00 0.  1.
         -2   -1    0    0    0  501 -0.00000000000E+00 -0.00000000000E+00 -0.11008618426E+02  0.11008618426E+02  0.00000000000E+00 0. -1.
         21    1    1    2  502  503  0.19064954835E+02 -0.12166924860E+02  0.21277459807E+02  0.31052163519E+02  0.00000000000E+00 0. -1.
         21    1    1    2  503  501 -0.19064954835E+02  0.12166924860E+02  0.14769285963E+02  0.27011819103E+02  0.00000000000E+00 0.  1.
</event>
<event>
 4    1  0.5452128E+002  0.2955811E+02  0.7546771E-02  0.1423476E+00
          2   -1    0    0  503    0  0.00000000000E+00  0.00000000000E+00  0.31845480365E+01  0.31845480365E+01  0.00000000000E+00 0. -1.
         -2   -1    0    0    0  501 -0.00000000000E+00 -0.00000000000E+00 -0.37909752622E+03  0.37909752622E+03  0.00000000000E+00 0.  1.
         21    1    1    2  502  501 -0.89368265526E+01  0.28174722106E+02 -0.28842955318E+03  0.28994014724E+03  0.00000000000E+00 0.  1.
         21    1    1    2  503  502  0.89368265526E+01 -0.28174722106E+02 -0.87483425007E+02  0.92341927019E+02  0.00000000000E+00 0. -1.
</event>
<event>
 4    1  0.5452128E+002  0.2486398E+02  0.7546771E-02  0.1470331E+00
          2   -1    0    0  503    0  0.00000000000E+00  0.00000000000E+00  0.79881258230E+03  0.79881258230E+03  0.00000000000E+00 0.  1.
         -2   -1    0    0    0  501 -0.00000000000E+00 -0.00000000000E+00 -0.78560947025E+00  0.78560947025E+00  0.00000000000E+00 0. -1.
         21    1    1    2  502  501  0.19427657106E+02 -0.15517211242E+02  0.35024713686E+03  0.35112857272E+03  0.00000000000E+00 0.  1.
         21    1    1    2  503  502 -0.19427657106E+02  0.15517211242E+02  0.44777983598E+03  0.44846961905E+03  0.00000000000E+00 0. -1.
</event>
<event>
 4    1  0.5452128E+002  0.3067028E+02  0.7546771E-02  0.1413859E+00
          2   -1    0    0  503    0  0.00000000000E+00  0.00000000000E+00  0.46591071023E+03  0.46591071023E+03  0.00000000000E+00 0. -1.
         -2   -1    0    0    0  501 -0.00000000000E+00 -0.00000000000E+00 -0.25836157690E+01  0.25836157690E+01  0.00000000000E+00 0.  1.
         21    1    1    2  502  501 -0.30666904075E+02 -0.45485153137E+00  0.12215617940E+03  0.12594760046E+03  0.00000000000E+00 0.  1.
         21    1    1    2  503  502  0.30666904075E+02  0.45485153137E+00  0.34117091506E+03  0.34254672554E+03  0.00000000000E+00 0. -1.
</event>
<event>
 4    1  0.5452128E+002  0.4278428E+02  0.7546771E-02  0.1332899E+00
          2   -1    0    0  503    0  0.00000000000E+00  0.00000000000E+00  0.49074062032E+03  0.49074062032E+03  0.00000000000E+00 0. -1.
         -2   -1    0    0    0  501 -0.00000000000E+00 -0.00000000000E+00 -0.10377638427E+02  0.10377638427E+02  0.00000000000E+00 0.  1.
         21    1    1    2  502  501  0.21184031047E+02  0.37171647421E+02  0.39645408505E+02  0.58328834712E+02  0.00000000000E+00 0.  1.
         21    1    1    2  503  502 -0.21184031047E+02 -0.37171647421E+02  0.44071757339E+03  0.44278942403E+03  0.00000000000E+00 0. -1.
</event>
<event>
 4    1  0.5452128E+002  0.4947323E+02  0.7546771E-02  0.1300473E+00
          2   -1    0    0  503    0  0.00000000000E+00  0.00000000000E+00  0.20078393664E+02  0.20078393664E+02  0.00000000000E+00 0.  1.
         -2   -1    0    0    0  501 -0.00000000000E+00 -0.00000000000E+00 -0.12611414259E+03  0.12611414259E+03  0.00000000000E+00 0. -1.
         21    1    1    2  502  501 -0.79055682886E+00 -0.49466909282E+02 -0.66376298159E+02  0.82785343216E+02  0.00000000000E+00 0. -1.
         21    1    1    2  503  502  0.79055682886E+00  0.49466909282E+02 -0.39659450767E+02  0.63407193039E+02  0.00000000000E+00 0.  1.
</event>
<event>
 4    1  0.5452128E+002  0.2977039E+02  0.7546771E-02  0.1421602E+00
          2   -1    0    0  503    0  0.00000000000E+00  0.00000000000E+00  0.14669113558E+04  0.14669113558E+04  0.00000000000E+00 0.  1.
         -2   -1    0    0    0  501 -0.00000000000E+00 -0.00000000000E+00 -0.20215593560E+01  0.20215593560E+01  0.00000000000E+00 0. -1.
         21    1    1    2  502  501  0.22505979752E+02 -0.19487352815E+02  0.11744927314E+03  0.12116355807E+03  0.00000000000E+00 0. -1.
         21    1    1    2  503  502 -0.22505979752E+02  0.19487352815E+02  0.13474405233E+04  0.13477693571E+04  0.00000000000E+00 0.  1.
</event>
<event>
 4    1  0.5452128E+002  0.2521189E+02  0.7546771E-02  0.1466447E+00
          2   -1    0    0  503    0  0.00000000000E+00  0.00000000000E+00  0.14141668549E+03  0.14141668549E+03  0.00000000000E+00 0. -1.
         -2   -1    0    0    0  501 -0.00000000000E+00 -0.00000000000E+00 -0.85451855148E+01  0.85451855148E+01  0.00000000000E+00 0.  1.
         21    1    1    2  502  501 -0.21698789459E+02  0.12837514108E+02  0.14813316729E+02  0.29241641284E+02  0.00000000000E+00 0.  1.
         21    1    1    2  503  502  0.21698789459E+02 -0.12837514108E+02  0.11805818325E+03  0.12072022973E+03  0.00000000000E+00 0. -1.
</event>
<event>
 4    1  0.5452128E+002  0.3271309E+02  0.7546771E-02  0.1397395E+00
          2   -1    0    0  502    0  0.00000000000E+00  0.00000000000E+00  0.62563897447E+03  0.62563897447E+03  0.00000000000E+00 0.  1.
         -2   -1    0    0    0  501 -0.00000000000E+00 -0.00000000000E+00 -0.12426178085E+02  0.12426178085E+02  0.00000000000E+00 0. -1.
         21    1    1    2  502  503 -0.10233815729E+02  0.31071134094E+02  0.60286868336E+03  0.60375557616E+03  0.00000000000E+00 0.  1.
         21    1    1    2  503  501  0.10233815729E+02 -0.31071134094E+02  0.10344113016E+02  0.34309576394E+02  0.00000000000E+00 0. -1.
</event>
<event>
 4    1  0.5452128E+002  0.2245754E+02  0.7546771E-02  0.1499424E+00
          2   -1    0    0  503    0  0.00000000000E+00  0.00000000000E+00  0.73442001013E+03  0.73442001013E+03  0.00000000000E+00 0.  1.
         -2   -1    0    0    0  501 -0.00000000000E+00 -0.00000000000E+00 -0.15469387650E+02  0.15469387650E+02  0.00000000000E+00 0. -1.
         21    1    1    2  502  501 -0.16491931880E+02  0.15243276819E+02 -0.70526026156E+01  0.23538914779E+02  0.00000000000E+00 0. -1.
         21    1    1    2  503  502  0.16491931880E+02 -0.15243276819E+02  0.72600322510E+03  0.72635048300E+03  0.00000000000E+00 0.  1.
</event>
<event>
 4    1  0.5452128E+002  0.2862025E+02  0.7546771E-02  0.1431978E+00
          2   -1    0    0  502    0  0.00000000000E+00  0.00000000000E+00  0.14557238222E+02  0.14557238222E+02  0.00000000000E+00 0.  1.
         -2   -1    0    0    0  501 -0.00000000000E+00 -0.00000000000E+00 -0.65538726004E+02  0.65538726004E+02  0.00000000000E+00 0. -1.
         21    1    1    2  502  503  0.52174535574E+01 -0.28140660145E+02 -0.10429204082E+02  0.30461235576E+02  0.00000000000E+00 0.  1.
         21    1    1    2  503  501 -0.52174535574E+01  0.28140660145E+02 -0.40552283700E+02  0.49634728651E+02  0.00000000000E+00 0. -1.
</event>
<event>
 4    1  0.5452128E+002  0.5089187E+02  0.7546771E-02  0.1294351E+00
          2   -1    0    0  503    0  0.00000000000E+00  0.00000000000E+00  0.16188382863E+04  0.16188382863E+04  0.00000000000E+00 0.  1.
         -2   -1    0    0    0  501 -0.00000000000E+00 -0.00000000000E+00 -0.13147333308E+02  0.13147333308E+02  0.00000000000E+00 0. -1.
         21    1    1    2  502  501 -0.37301100577E+02 -0.34620958222E+02  0.38111851624E+02  0.63580626662E+02  0.00000000000E+00 0. -1.
         21    1    1    2  503  502  0.37301100577E+02  0.34620958222E+02  0.15675791014E+04  0.15684049930E+04  0.00000000000E+00 0.  1.
</event>
<event>
 4    1  0.5452128E+002  0.2101725E+02  0.7546771E-02  0.1519019E+00
          2   -1    0    0  502    0  0.00000000000E+00  0.00000000000E+00  0.67982409651E+03  0.67982409651E+03  0.00000000000E+00 0.  1.
         -2   -1    0    0    0  501 -0.00000000000E+00 -0.00000000000E+00 -0.91059707867E+00  0.91059707867E+00  0.00000000000E+00 0. -1.
         21    1    1    2  502  503 -0.77990029877E+01  0.19516664540E+02  0.52162253456E+03  0.52204577692E+03  0.00000000000E+00 0.  1.
         21    1    1    2  503  501  0.77990029877E+01 -0.19516664540E+02  0.15729096488E+03  0.15868891667E+03  0.00000000000E+00 0. -1.
</event>
<event>
 4    1  0.5452128E+002  0.2211497E+02  0.7546771E-02  0.1503921E+00
          2   -1    0    0  502    0  0.00000000000E+00  0.00000000000E+00  0.45537329811E+03  0.45537329811E+03  0.00000000000E+00 0. -1.
         -2   -1    0    0    0  501 -0.00000000000E+00 -0.00000000000E+00 -0.11739462870E+01  0.11739462870E+01  0.00000000000E+00 0.  1.
         21    1    1    2  502  503  0.16732832707E+02  0.14459742298E+02  0.16049410104E+03  0.16201058084E+03  0.00000000000E+00 0.  1.
         21    1    1    2  503  501 -0.16732832707E+02 -0.14459742298E+02  0.29370525079E+03  0.29453666355E+03  0.00000000000E+00 0. -1.
</event>
<event>
 4    1  0.5452128E+002  0.2041979E+02  0.7546771E-02  0.1527712E+00
          2   -1    0    0  502    0  0.00000000000E+00  0.00000000000E+00  0.17868768165E+03  0.17868768165E+03  0.00000000000E+00 0.  1.
         -2   -1    0    0    0  501 -0.00000000000E+00 -0.00000000000E+00 -0.23339841444E+01  0.23339841444E+01  0.00000000000E+00 0. -1.
         21    1    1    2  502  503 -0.50032998163E+01  0.19797345902E+02  0.89478859574E+02  0.91779269035E+02  0.00000000000E+00 0. -1.
         21    1    1    2  503  501  0.50032998163E+01 -0.19797345902E+02  0.86874837936E+02  0.89242396764E+02  0.00000000000E+00 0.  1.
</event>
<event>
 4    1  0.5452128E+002  0.2350487E+02  0.7546771E-02  0.1486254E+00
          2   -1    0    0  502    0  0.00000000000E+00  0.00000000000E+00  0.42558493871E+02  0.42558493871E+02  0.00000000000E+00 0. -1.
         -2   -1    0    0    0  501 -0.00000000000E+00 -0.00000000000E+00 -0.62267426545E+02  0.62267426545E+02  0.00000000000E+00 0.  1.
         21    1    1    2  502  503 -0.21668534805E+02  0.91078866178E+01  0.36775927226E+02  0.43645707952E+02  0.00000000000E+00 0. -1.
         21    1    1    2  503  501  0.21668534805E+02 -0.91078866178E+01 -0.56484859900E+02  0.61180212465E+02  0.00000000000E+00 0.  1.
</event>
<event>
 4    1  0.5452128E+002  0.3144924E+02  0.7546771E-02  0.1407407E+00
          2   -1    0    0  502    0  0.00000000000E+00  0.00000000000E+00  0.78941768903E+03  0.78941768903E+03  0.00000000000E+00 0.  1.
         -2   -1    0    0    0  501 -0.00000000000E+00 -0.00000000000E+00 -0.12622172653E+01  0.12622172653E+01  0.00000000000E+00 0. -1.
         21    1    1    2  502  503  0.31438003417E+02  0.84046925193E+00  0.42806010940E+03  0.42921382982E+03  0.00000000000E+00 0.  1.
         21    1    1    2  503  501 -0.31438003417E+02 -0.84046925193E+00  0.36009536236E+03  0.36146607648E+03  0.00000000000E+00 0. -1.
</event>
<event>
 4    1  0.5452128E+002  0.2082996E+02  0.7546771E-02  0.1521707E+00
          2   -1    0    0  502    0  0.00000000000E+00  0.00000000000E+00  0.51705150958E+03  0.51705150958E+03  0.00000000000E+00 0.  1.
         -2   -1    0    0    0  501 -0.00000000000E+00 -0.00000000000E+00 -0.19629528012E+01  0.19629528012E+01  0.00000000000E+00 0. -1.
         21    1    1    2  502  503  0.27939702610E+00  0.20828085899E+02  0.45389762197E+03  0.45437532774E+03  0.00000000000E+00 0.  1.
         21    1    1    2  503  501 -0.27939702610E+00 -0.20828085899E+02  0.61190934803E+02  0.64639134640E+02  0.00000000000E+00 0. -1.
</event>
<event>
 4    1  0.5452128E+002  0.2388350E+02  0.7546771E-02  0.1481692E+00
          2   -1    0    0  502    0  0.00000000000E+00  0.00000000000E+00  0.78017478451E+03  0.78017478451E+03  0.00000000000E+00 0.  1.
         -2   -1    0    0    0  501 -0.00000000000E+00 -0.00000000000E+00 -0.34216226952E+01  0.34216226952E+01  0.00000000000E+00 0. -1.
         21    1    1    2  502  503  0.64059988047E+01  0.23008361789E+02  0.73580153856E+03  0.73618905566E+03  0.00000000000E+00 0.  1.
         21    1    1    2  503  501 -0.64059988047E+01 -0.23008361789E+02  0.40951623253E+02  0.47407351539E+02  0.00000000000E+00 0. -1.
</event>
<event>
 4    1  0.5452128E+002  0.2073541E+02  0.7546771E-02  0.1523076E+00
          2   -1    0    0  502    0  0.00000000000E+00  0.00000000000E+00  0.16195698698E+03  0.16195698698E+03  0.00000000000E+00 0.  1.
         -2   -1    0    0    0  501 -0.00000000000E+00 -0.00000000000E+00 -0.12077480475E+02  0.12077480475E+02  0.00000000000E+00 0. -1.
         21    1    1    2  502  503 -0.11835037265E+02  0.17026125477E+02  0.15180061283E+03  0.15321025785E+03  0.00000000000E+00 0.  1.
         21    1    1    2  503  501  0.11835037265E+02 -0.17026125477E+02 -0.19211063293E+01  0.20824209597E+02  0.00000000000E+00 0. -1.
</event>
<event>
 4    1  0.5452128E+002  0.4028601E+02  0.7546771E-02  0.1346818E+00
          2   -1    0    0  502    0  0.00000000000E+00  0.00000000000E+00  0.66505162912E+01  0.66505162912E+01  0.00000000000E+00 0. -1.
         -2   -1    0    0    0  501 -0.00000000000E+00 -0.00000000000E+00 -0.28933452148E+03  0.28933452148E+03  0.00000000000E+00 0.  1.
         21    1    1    2  502  503  0.31525910240E+02 -0.25081459910E+02 -0.82784354155E+02  0.92066345320E+02  0.00000000000E+00 0. -1.
         21    1    1    2  503  501 -0.31525910240E+02  0.25081459910E+02 -0.19989965103E+03  0.20391869245E+03  0.00000000000E+00 0.  1.
</event>
<event>
 4    1  0.5452128E+002  0.3726272E+02  0.7546771E-02  0.1365318E+00
          2   -1    0    0  502    0  0.00000000000E+00  0.00000000000E+00  0.17380637508E+02  0.17380637508E+02  0.00000000000E+00 0.  1.
         -2   -1    0    0    0  501 -0.00000000000E+00 -0.00000000000E+00 -0.10973619470E+03  0.10973619470E+03  0.00000000000E+00 0. -1.
         21    1    1    2  502  503 -0.10974182825E+02 -0.35610078617E+02 -0.13029984453E+02  0.39475193257E+02  0.00000000000E+00 0.  1.
         21    1    1    2  503  501  0.10974182825E+02  0.35610078617E+02 -0.79325572744E+02  0.87641638956E+02  0.00000000000E+00 0. -1.
</event>
<event>
 4    1  0.5452128E+002  0.2850295E+02  0.7546771E-02  0.1433068E+00
          2   -1    0    0  503    0  0.00000000000E+00  0.00000000000E+00  0.67020147994E+02  0.67020147994E+02  0.00000000000E+00 0.  1.
         -2   -1    0    0    0  501 -0.00000000000E+00 -0.00000000000E+00 -0.12286171243E+02  0.12286171243E+02  0.00000000000E+00 0. -1.
         21    1    1    2  502  501  0.24625814795E+02 -0.14352259740E+02  0.22783243599E+02  0.36489646516E+02  0.00000000000E+00 0. -1.
         21    1    1    2  503  502 -0.24625814795E+02  0.14352259740E+02  0.31950733152E+02  0.42816672721E+02  0.00000000000E+00 0.  1.
</event>
<event>
 4    1  0.5452128E+002  0.2405331E+02  0.7546771E-02  0.1479679E+00
          2   -1    0    0  502    0  0.00000000000E+00  0.00000000000E+00  0.92846110248E+01  0.92846110248E+01  0.00000000000E+00 0.  1.
         -2   -1    0    0    0  501 -0.00000000000E+00 -0.00000000000E+00 -0.14677062376E+03  0.14677062376E+03  0.00000000000E+00 0. -1.
         21    1    1    2  502  503  0.46488949469E+01 -0.23599780664E+02 -0.95533985969E+01  0.25881060572E+02  0.00000000000E+00 0. -1.
         21    1    1    2  503  501 -0.46488949469E+01  0.23599780664E+02 -0.12793261414E+03  0.13017417421E+03  0.00000000000E+00 0.  1.
</event>
<event>
 4    1  0.5452128E+002  0.2230760E+02  0.7546771E-02  0.1501381E+00
          2   -1    0    0  502    0  0.00000000000E+00  0.00000000000E+00  0.33193442844E+01  0.33193442844E+01  0.00000000000E+00 0. -1.
         -2   -1    0    0    0  501 -0.00000000000E+00 -0.00000000000E+00 -0.77920733522E+03  0.77920733522E+03  0.00000000000E+00 0.  1.
         21    1    1    2  502  503 -0.13676245092E+02 -0.17623544985E+02 -0.36328607590E+02  0.42630936503E+02  0.00000000000E+00 0. -1.
         21    1    1    2  503  501  0.13676245092E+02  0.17623544985E+02 -0.73955938334E+03  0.73989574300E+03  0.00000000000E+00 0.  1.
</event>
<event>
 4    1  0.5452128E+002  0.2609927E+02  0.7546771E-02  0.1456872E+00
          2   -1    0    0  503    0  0.00000000000E+00  0.00000000000E+00  0.24043088132E+03  0.24043088132E+03  0.00000000000E+00 0.  1.
         -2   -1    0    0    0  501 -0.00000000000E+00 -0.00000000000E+00 -0.35652929396E+01  0.35652929396E+01  0.00000000000E+00 0. -1.
         21    1    1    2  502  501 -0.22575217258E+02 -0.13097005706E+02  0.63147551404E+02  0.68328509723E+02  0.00000000000E+00 0. -1.
         21    1    1    2  503  502  0.22575217258E+02  0.13097005706E+02  0.17371803698E+03  0.17566766454E+03  0.00000000000E+00 0.  1.
</event>
<event>
 4    1  0.5452128E+002  0.2090603E+02  0.7546771E-02  0.1520611E+00
          2   -1    0    0  503    0  0.00000000000E+00  0.00000000000E+00  0.36626857668E+02  0.36626857668E+02  0.00000000000E+00 0. -1.
         -2   -1    0    0    0  501 -0.00000000000E+00 -0.00000000000E+00 -0.13856688143E+02  0.13856688143E+02  0.00000000000E+00 0.  1.
         21    1    1    2  502  501 -0.20637428002E+02 -0.33404515952E+01  0.19796970790E+01  0.20999553613E+02  0.00000000000E+00 0.  1.
         21    1    1    2  503  502  0.20637428002E+02  0.33404515952E+01  0.20790472446E+02  0.29483992198E+02  0.00000000000E+00 0. -1.
</event>
<event>
 4    1  0.5452128E+002  0.2156363E+02  0.7546771E-02  0.1511368E+00
          2   -1    0    0  503    0  0.00000000000E+00  0.00000000000E+00  0.43156700600E+03  0.43156700600E+03  0.00000000000E+00 0. -1.
         -2   -1    0    0    0  501 -0.00000000000E+00 -0.00000000000E+00 -0.41464180522E+01  0.41464180522E+01  0.00000000000E+00 0.  1.
         21    1    1    2  502  501 -0.10999196698E+02  0.18547447469E+02  0.26283848159E+02  0.33997511816E+02  0.00000000000E+00 0.  1.
         21    1    1    2  503  502  0.10999196698E+02 -0.18547447469E+02  0.40113673979E+03  0.40171591223E+03  0.00000000000E+00 0. -1.
</event>
<event>
 4    1  0.5452128E+002  0.2662085E+02  0.7546771E-02  0.1451454E+00
          2   -1    0    0  503    0  0.00000000000E+00  0.00000000000E+00  0.19622016720E+02  0.19622016720E+02  0.00000000000E+00 0. -1.
         -2   -1    0    0    0  501 -0.00000000000E+00 -0.00000000000E+00 -0.43956086434E+02  0.43956086434E+02  0.00000000000E+00 0.  1.
         21    1    1    2  502  501 -0.17670394451E+02 -0.19910464319E+02 -0.25592444195E+02  0.36927532132E+02  0.00000000000E+00 0.  1.
         21    1    1    2  503  502  0.17670394451E+02  0.19910464319E+02  0.12583744811E+01  0.26650571022E+02  0.00000000000E+00 0. -1.
</event>
<event>
 4    1  0.5452128E+002  0.3637048E+02  0.7546771E-02  0.1371176E+00
          2   -1    0    0  502    0  0.00000000000E+00  0.00000000000E+00  0.34125553481E+03  0.34125553481E+03  0.00000000000E+00 0.  1.
         -2   -1    0    0    0  501 -0.00000000000E+00 -0.00000000000E+00 -0.10461348196E+02  0.10461348196E+02  0.00000000000E+00 0. -1.
         21    1    1    2  502  503 -0.30355781744E+02  0.20033430088E+02  0.30492098540E+03  0.30708243053E+03  0.00000000000E+00 0.  1.
         21    1    1    2  503  501  0.30355781744E+02 -0.20033430088E+02  0.25873201219E+02  0.44634452474E+02  0.00000000000E+00 0. -1.
</event>
<event>
 4    1  0.5452128E+002  0.2180546E+02  0.7546771E-02  0.1508069E+00
          2   -1    0    0  502    0  0.00000000000E+00  0.00000000000E+00  0.74021179864E+00  0.74021179864E+00  0.00000000000E+00 0.  1.
         -2   -1    0    0    0  501 -0.00000000000E+00 -0.00000000000E+00 -0.66262598124E+03  0.66262598124E+03  0.00000000000E+00 0. -1.
         21    1    1    2  502  503  0.21201502379E+02 -0.50965277912E+01 -0.38895691340E+03  0.38956765623E+03  0.00000000000E+00 0. -1.
         21    1    1    2  503  501 -0.21201502379E+02  0.50965277912E+01 -0.27292885604E+03  0.27379853681E+03  0.00000000000E+00 0.  1.
</event>
<event>
 4    1  0.5452128E+002  0.2155905E+02  0.7546771E-02  0.1511431E+00
          2   -1    0    0  502    0  0.00000000000E+00  0.00000000000E+00  0.25620322464E+02  0.25620322464E+02  0.00000000000E+00 0. -1.
         -2   -1    0    0    0  501 -0.00000000000E+00 -0.00000000000E+00 -0.25550577707E+02  0.25550577707E+02  0.00000000000E+00 0.  1.
         21    1    1    2  502  503  0.23597806620E+01  0.21429516050E+02  0.13812450892E+02  0.25604228607E+02  0.00000000000E+00 0.  1.
         21    1    1    2  503  501 -0.23597806620E+01 -0.21429516050E+02 -0.13742706136E+02  0.25566671564E+02  0.00000000000E+00 0. -1.
</event>
<event>
 4    1  0.5452128E+002  0.2831501E+02  0.7546771E-02  0.1434828E+00
          2   -1    0    0  502    0  0.00000000000E+00  0.00000000000E+00  0.13818754104E+04  0.13818754104E+04  0.00000000000E+00 0.  1.
         -2   -1    0    0    0  501 -0.00000000000E+00 -0.00000000000E+00 -0.58179436476E+00  0.58179436476E+00  0.00000000000E+00 0. -1.
         21    1    1    2  502  503 -0.21536425699E+02  0.18382656781E+02  0.65426171606E+03  0.65487413509E+03  0.00000000000E+00 0. -1.
         21    1    1    2  503  501  0.21536425699E+02 -0.18382656781E+02  0.72703189994E+03  0.72758306965E+03  0.00000000000E+00 0.  1.
</event>
<event>
 4    1  0.5452128E+002  0.5269584E+02  0.7546771E-02  0.1286889E+00
          2   -1    0    0  502    0  0.00000000000E+00  0.00000000000E+00  0.17990127069E+04  0.17990127069E+04  0.00000000000E+00 0. -1.
         -2   -1    0    0    0  501 -0.00000000000E+00 -0.00000000000E+00 -0.26710999185E+01  0.26710999185E+01  0.00000000000E+00 0.  1.
         21    1    1    2  502  503 -0.52158240351E+02 -0.75079640469E+01  0.14834632966E+04  0.14843989370E+04  0.00000000000E+00 0. -1.
         21    1    1    2  503  501  0.52158240351E+02  0.75079640469E+01  0.31287831031E+03  0.31728486983E+03  0.00000000000E+00 0.  1.
</event>
<event>
 4    1  0.5452128E+002  0.2718444E+02  0.7546771E-02  0.1445764E+00
          2   -1    0    0  503    0  0.00000000000E+00  0.00000000000E+00  0.50632656344E+03  0.50632656344E+03  0.00000000000E+00 0. -1.
         -2   -1    0    0    0  501 -0.00000000000E+00 -0.00000000000E+00 -0.14628063394E+01  0.14628063394E+01  0.00000000000E+00 0.  1.
         21    1    1    2  502  501 -0.12015410852E+02 -0.24384901370E+02  0.26446689862E+03  0.26586036557E+03  0.00000000000E+00 0. -1.
         21    1    1    2  503  502  0.12015410852E+02  0.24384901370E+02  0.24039685848E+03  0.24192900422E+03  0.00000000000E+00 0.  1.
</event>
<event>
 4    1  0.5452128E+002  0.2024656E+02  0.7546771E-02  0.1530299E+00
          2   -1    0    0  502    0  0.00000000000E+00  0.00000000000E+00  0.45840604267E+03  0.45840604267E+03  0.00000000000E+00 0. -1.
         -2   -1    0    0    0  501 -0.00000000000E+00 -0.00000000000E+00 -0.29513748302E+01  0.29513748302E+01  0.00000000000E+00 0.  1.
         21    1    1    2  502  503 -0.12469137089E+02  0.15951300976E+02  0.42031438481E+03  0.42080174127E+03  0.00000000000E+00 0. -1.
         21    1    1    2  503  501  0.12469137089E+02 -0.15951300976E+02  0.35140283028E+02  0.40555676222E+02  0.00000000000E+00 0.  1.
</event>
<event>
 4    1  0.5452128E+002  0.3348888E+02  0.7546771E-02  0.1391510E+00
          2   -1    0    0  502    0  0.00000000000E+00  0.00000000000E+00  0.16151297016E+04  0.16151297016E+04  0.00000000000E+00 0.  1.
         -2   -1    0    0    0  501 -0.00000000000E+00 -0.00000000000E+00 -0.26453975167E+01  0.26453975167E+01  0.00000000000E+00 0. -1.
         21    1    1    2  502  503  0.11167367799E+02  0.31572056268E+02  0.15009046906E+04  0.15012782537E+04  0.00000000000E+00 0.  1.
         21    1    1    2  503  501 -0.11167367799E+02 -0.31572056268E+02  0.11157961341E+03  0.11649684532E+03  0.00000000000E+00 0. -1.
</event>
<event>
 4    1  0.5452128E+002  0.2481794E+02  0.7546771E-02  0.1470850E+00
          2   -1    0    0  503    0  0.00000000000E+00  0.00000000000E+00  0.89674386090E+03  0.89674386090E+03  0.00000000000E+00 0.  1.
         -2   -1    0    0    0  501 -0.00000000000E+00 -0.00000000000E+00 -0.18328042375E+01  0.18328042375E+01  0.00000000000E+00 0. -1.
         21    1    1    2  502  501 -0.73561084860E+01  0.23702699636E+02  0.92192215253E+02  0.95474262790E+02  0.00000000000E+00 0. -1.
         21    1    1    2  503  502  0.73561084860E+01 -0.23702699636E+02  0.80271884141E+03  0.80310240234E+03  0.00000000000E+00 0.  1.
</event>
<event>
 4    1  0.5452128E+002  0.3087568E+02  0.7546771E-02  0.1412136E+00
          2   -1    0    0  503    0  0.00000000000E+00  0.00000000000E+00  0.42946628314E+02  0.42946628314E+02  0.00000000000E+00 0.  1.
         -2   -1    0    0    0  501 -0.00000000000E+00 -0.00000000000E+00 -0.15325585891E+03  0.15325585891E+03  0.00000000000E+00 0. -1.
         21    1    1    2  502  501 -0.27974114022E+02 -0.13067382511E+02 -0.14587363356E+03  0.14910541408E+03  0.00000000000E+00 0. -1.
         21    1    1    2  503  502  0.27974114022E+02  0.13067382511E+02  0.35564402959E+02  0.47097073145E+02  0.00000000000E+00 0.  1.
</event>
<event>
 4    1  0.5452128E+002  0.3612065E+02  0.7546771E-02  0.1372851E+00
          2   -1    0    0  503    0  0.00000000000E+00  0.00000000000E+00  0.13120084432E+03  0.13120084432E+03  0.00000000000E+00 0.  1.
         -2   -1    0    0    0  501 -0.00000000000E+00 -0.00000000000E+00 -0.10309124401E+02  0.10309124401E+02  0.00000000000E+00 0. -1.
         21    1    1    2  502  501 -0.24690696099E+02 -0.26364202230E+02  0.47135702210E+02  0.59384139767E+02  0.00000000000E+00 0. -1.
         21    1    1    2  503  502  0.24690696099E+02  0.26364202230E+02  0.73756017712E+02  0.82125828957E+02  0.00000000000E+00 0.  1.
</event>
<event>
 4    1  0.5452128E+002  0.3064207E+02  0.7546771E-02  0.1414097E+00
          2   -1    0    0  502    0  0.00000000000E+00  0.00000000000E+00  0.97021905748E+03  0.97021905748E+03  0.00000000000E+00 0.  1.
         -2   -1    0    0    0  501 -0.00000000000E+00 -0.00000000000E+00 -0.10033939933E+01  0.10033939933E+01  0.00000000000E+00 0. -1.
         21    1    1    2  502  503  0.11899052107E+02  0.28237372237E+02  0.57612473476E+03  0.57693903199E+03  0.00000000000E+00 0.  1.
         21    1    1    2  503  501 -0.11899052107E+02 -0.28237372237E+02  0.39309092873E+03  0.39428341948E+03  0.00000000000E+00 0. -1.
</event>
<event>
 4    1  0.5452128E+002  0.5804652E+02  0.7546771E-02  0.1266618E+00
          2   -1    0    0  503    0  0.00000000000E+00  0.00000000000E+00  0.89739283312E+03  0.89739283312E+03  0.00000000000E+00 0.  1.
         -2   -1    0    0    0  501 -0.00000000000E+00 -0.00000000000E+00 -0.69586358985E+01  0.69586358985E+01  0.00000000000E+00 0. -1.
         21    1    1    2  502  501 -0.11879308076E+02  0.56817957897E+02  0.13839239704E+03  0.15007282851E+03  0.00000000000E+00 0. -1.
         21    1    1    2  503  502  0.11879308076E+02 -0.56817957897E+02  0.75204180018E+03  0.75427864051E+03  0.00000000000E+00 0.  1.
</event>
<event>
 4    1  0.5452128E+002  0.7067561E+02  0.7546771E-02  0.1227324E+00
          2   -1    0    0  502    0  0.00000000000E+00  0.00000000000E+00  0.68626670879E+02  0.68626670879E+02  0.00000000000E+00 0.  1.
         -2   -1    0    0    0  501 -0.00000000000E+00 -0.00000000000E+00 -0.73187763319E+02  0.73187763319E+02  0.00000000000E+00 0. -1.
         21    1    1    2  502  503 -0.68621273994E+02 -0.16916343924E+02 -0.75359414603E+01  0.71076243218E+02  0.00000000000E+00 0.  1.
         21    1    1    2  503  501  0.68621273994E+02  0.16916343924E+02  0.29748490201E+01  0.70738190979E+02  0.00000000000E+00 0. -1.
</event>
<event>
 4    1  0.5452128E+002  0.2291137E+02  0.7546771E-02  0.1493614E+00
          2   -1    0    0  503    0  0.00000000000E+00  0.00000000000E+00  0.46733461091E+01  0.46733461091E+01  0.00000000000E+00 0.  1.
         -2   -1    0    0    0  501 -0.00000000000E+00 -0.00000000000E+00 -0.11930898986E+03  0.11930898986E+03  0.00000000000E+00 0. -1.
         21    1    1    2  502  501  0.11239909122E+02 -0.19964851894E+02 -0.72316853476E+02  0.75859463252E+02  0.00000000000E+00 0. -1.
         21    1    1    2  503  502 -0.11239909122E+02  0.19964851894E+02 -0.42318790277E+02  0.48122872719E+02  0.00000000000E+00 0.  1.
</event>
<event>
 4    1  0.5452128E+002  0.2156455E+02  0.7546771E-02  0.1511355E+00
          2   -1    0    0  503    0  0.00000000000E+00  0.00000000000E+00  0.36458852735E+01  0.36458852735E+01  0.00000000000E+00 0.  1.
         -2   -1    0    0    0  501 -0.00000000000E+00 -0.00000000000E+00 -0.12976115221E+03  0.12976115221E+03  0.00000000000E+00 0. -1.
         21    1    1    2  502  501 -0.11151691180E+02 -0.18457237930E+02 -0.54348767192E+02  0.58470662245E+02  0.00000000000E+00 0.  1.
         21    1    1    2  503  502  0.11151691180E+02  0.18457237930E+02 -0.71766499745E+02  0.74936375238E+02  0.00000000000E+00 0. -1.
</event>
<event>
 4    1  0.5452128E+002  0.3687762E+02  0.7546771E-02  0.1367823E+00
          2   -1    0    0  503    0  0.00000000000E+00  0.00000000000E+00  0.76344645055E+03  0.76344645055E+03  0.00000000000E+00 0.  1.
         -2   -1    0    0    0  501 -0.00000000000E+00 -0.00000000000E+00 -0.28700209511E+01  0.28700209511E+01  0.00000000000E+00 0. -1.
         21    1    1    2  502  501  0.23675804450E+02  0.28273930032E+02  0.14430253664E+03  0.14894019241E+03  0.00000000000E+00 0. -1.
         21    1    1    2  503  502 -0.23675804450E+02 -0.28273930032E+02  0.61627389296E+03  0.61737627909E+03  0.00000000000E+00 0.  1.
</event>
<event>
 4    1  0.5452128E+002  0.2899753E+02  0.7546771E-02  0.1428512E+00
          2   -1    0    0  503    0  0.00000000000E+00  0.00000000000E+00  0.23371729218E+04  0.23371729218E+04  0.00000000000E+00 0.  1.
         -2   -1    0    0    0  501 -0.00000000000E+00 -0.00000000000E+00 -0.63660560954E+00  0.63660560954E+00  0.00000000000E+00 0. -1.
         21    1    1    2  502  501  0.58337283279E+01 -0.28404650253E+02  0.39745183885E+03  0.39850824426E+03  0.00000000000E+00 0. -1.
         21    1    1    2  503  502 -0.58337283279E+01  0.28404650253E+02  0.19390844774E+04  0.19393012832E+04  0.00000000000E+00 0.  1.
</event>
<event>
 4    1  0.5452128E+002  0.2184836E+02  0.7546771E-02  0.1507489E+00
          2   -1    0    0  502    0  0.00000000000E+00  0.00000000000E+00  0.51443792164E+03  0.51443792164E+03  0.00000000000E+00 0. -1.
         -2   -1    0    0    0  501 -0.00000000000E+00 -0.00000000000E+00 -0.14987881204E+01  0.14987881204E+01  0.00000000000E+00 0.  1.
         21    1    1    2  502  503  0.20514629096E+02 -0.75167035624E+01  0.41567905205E+03  0.41625283801E+03  0.00000000000E+00 0. -1.
         21    1    1    2  503  501 -0.20514629096E+02  0.75167035624E+01  0.97260081468E+02  0.99683871748E+02  0.00000000000E+00 0.  1.
</event>
<event>
 4    1  0.5452128E+002  0.3019565E+02  0.7546771E-02  0.1417904E+00
          2   -1    0    0  503    0  0.00000000000E+00  0.00000000000E+00  0.37589059656E+03  0.37589059656E+03  0.00000000000E+00 0. -1.
         -2   -1    0    0    0  501 -0.00000000000E+00 -0.00000000000E+00 -0.13675311388E+02  0.13675311388E+02  0.00000000000E+00 0.  1.
         21    1    1    2  502  501  0.24681762294E+02  0.17395051331E+02  0.44419766707E+01  0.30520621840E+02  0.00000000000E+00 0.  1.
         21    1    1    2  503  502 -0.24681762294E+02 -0.17395051331E+02  0.35777330850E+03  0.35904528611E+03  0.00000000000E+00 0. -1.
</event>
<event>
 4    1  0.5452128E+002  0.3075457E+02  0.7546771E-02  0.1413150E+00
          2   -1    0    0  503    0  0.00000000000E+00  0.00000000000E+00  0.30915884256E+03  0.30915884256E+03  0.00000000000E+00 0. -1.
         -2   -1    0    0    0  501 -0.00000000000E+00 -0.00000000000E+00 -0.30742483920E+01  0.30742483920E+01  0.00000000000E+00 0.  1.
         21    1    1    2  502  501 -0.18004208720E+02 -0.24933747459E+02  0.14219578907E+03  0.14548362699E+03  0.00000000000E+00 0.  1.
         21    1    1    2  503  502  0.18004208720E+02  0.24933747459E+02  0.16388880511E+03  0.16674946397E+03  0.00000000000E+00 0. -1.
</event>
<event>
 4    1  0.5452128E+002  0.3004137E+02  0.7546771E-02  0.1419237E+00
          2   -1    0    0  503    0  0.00000000000E+00  0.00000000000E+00  0.73592858753E+03  0.73592858753E+03  0.00000000000E+00 0. -1.
         -2   -1    0    0    0  501 -0.00000000000E+00 -0.00000000000E+00 -0.12316859190E+01  0.12316859190E+01  0.00000000000E+00 0.  1.
         21    1    1    2  502  501 -0.41217511259E+01 -0.29757268933E+02  0.34302040507E+03  0.34433338813E+03  0.00000000000E+00 0. -1.
         21    1    1    2  503  502  0.41217511259E+01  0.29757268933E+02  0.39167649654E+03  0.39282688532E+03  0.00000000000E+00 0.  1.
</event>
<event>
 4    1  0.5452128E+002  0.2339168E+02  0.7546771E-02  0.1487638E+00
          2   -1    0    0  503    0  0.00000000000E+00  0.00000000000E+00  0.45931042734E+01  0.45931042734E+01  0.00000000000E+00 0.  1.
         -2   -1    0    0    0  501 -0.00000000000E+00 -0.00000000000E+00 -0.44347949294E+03  0.44347949294E+03  0.00000000000E+00 0. -1.
         21    1    1    2  502  501  0.77590758793E+01  0.22067333641E+02 -0.41104037304E+03  0.41170542714E+03  0.00000000000E+00 0. -1.
         21    1    1    2  503  502 -0.77590758793E+01 -0.22067333641E+02 -0.27846015632E+02  0.36367170072E+02  0.00000000000E+00 0.  1.
</event>
<event>
 4    1  0.5452128E+002  0.2603751E+02  0.7546771E-02  0.1457524E+00
          2   -1    0    0  503    0  0.00000000000E+00  0.00000000000E+00  0.11092372450E+04  0.11092372450E+04  0.00000000000E+00 0. -1.
         -2   -1    0    0    0  501 -0.00000000000E+00 -0.00000000000E+00 -0.15607810046E+01  0.15607810046E+01  0.00000000000E+00 0.  1.
         21    1    1    2  502  501 -0.17765797800E+02 -0.19034928995E+02  0.12062376229E+03  0.12340196158E+03  0.00000000000E+00 0.  1.
         21    1    1    2  503  502  0.17765797800E+02  0.19034928995E+02  0.98705270172E+03  0.98739606443E+03  0.00000000000E+00 0. -1.
</event>
<event>
 4    1  0.5452128E+002  0.2067709E+02  0.7546771E-02  0.1523925E+00
          2   -1    0    0  503    0  0.00000000000E+00  0.00000000000E+00  0.25607406515E+02  0.25607406515E+02  0.00000000000E+00 0.  1.
         -2   -1    0    0    0  501 -0.00000000000E+00 -0.00000000000E+00 -0.16726963746E+02  0.16726963746E+02  0.00000000000E+00 0. -1.
         21    1    1    2  502  501 -0.88314595121E+01  0.18696188788E+02  0.53504208217E+01  0.21358116848E+02  0.00000000000E+00 0. -1.
         21    1    1    2  503  502  0.88314595121E+01 -0.18696188788E+02  0.35300219469E+01  0.20976253413E+02  0.00000000000E+00 0.  1.
</event>
<event>
 4    1  0.5452128E+002  0.3458953E+02  0.7546771E-02  0.1383472E+00
          2   -1    0    0  502    0  0.00000000000E+00  0.00000000000E+00  0.13128777539E+02  0.13128777539E+02  0.00000000000E+00 0.  1.
         -2   -1    0    0    0  501 -0.00000000000E+00 -0.00000000000E+00 -0.92724730291E+02  0.92724730291E+02  0.00000000000E+00 0. -1.
         21    1    1    2  502  503  0.33444129829E+02 -0.88275703640E+01 -0.46737250044E+02  0.58144701910E+02  0.00000000000E+00 0. -1.
         21    1    1    2  503  501 -0.33444129829E+02  0.88275703640E+01 -0.32858702709E+02  0.47708805920E+02  0.00000000000E+00 0.  1.
</event>
<event>
 4    1  0.5452128E+002  0.4060803E+02  0.7546771E-02  0.1344959E+00
          2   -1    0    0  503    0  0.00000000000E+00  0.00000000000E+00  0.23407383770E+04  0.23407383770E+04  0.00000000000E+00 0. -1.
         -2   -1    0    0    0  501 -0.00000000000E+00 -0.00000000000E+00 -0.70647047639E+00  0.70647047639E+00  0.00000000000E+00 0.  1.
         21    1    1    2  502  501 -0.52831098031E+01  0.40262901685E+02  0.11079348345E+04  0.11086787677E+04  0.00000000000E+00 0.  1.
         21    1    1    2  503  502  0.52831098031E+01 -0.40262901685E+02  0.12320970720E+04  0.12327660798E+04  0.00000000000E+00 0. -1.
</event>
<event>
 4    1  0.5452128E+002  0.2624041E+02  0.7546771E-02  0.1455391E+00
          2   -1    0    0  502    0  0.00000000000E+00  0.00000000000E+00  0.20521184205E+03  0.20521184205E+03  0.00000000000E+00 0. -1.
         -2   -1    0    0    0  501 -0.00000000000E+00 -0.00000000000E+00 -0.96585313619E+01  0.96585313619E+01  0.00000000000E+00 0.  1.
         21    1    1    2  502  503 -0.21927833646E+02 -0.14412820298E+02  0.18456683914E+03  0.18642284567E+03  0.00000000000E+00 0. -1.
         21    1    1    2  503  501  0.21927833646E+02  0.14412820298E+02  0.10986471541E+02  0.28447527735E+02  0.00000000000E+00 0.  1.
</event>
<event>
 4    1  0.5452128E+002  0.2033630E+02  0.7546771E-02  0.1528955E+00
          2   -1    0    0  502    0  0.00000000000E+00  0.00000000000E+00  0.82714753660E+03  0.82714753660E+03  0.00000000000E+00 0. -1.
         -2   -1    0    0    0  501 -0.00000000000E+00 -0.00000000000E+00 -0.22537412911E+01  0.22537412911E+01  0.00000000000E+00 0.  1.
         21    1    1    2  502  503  0.50561541841E+01 -0.19697725190E+02  0.77826630270E+03  0.77853195373E+03  0.00000000000E+00 0. -1.
         21    1    1    2  503  501 -0.50561541841E+01  0.19697725190E+02  0.46627492610E+02  0.50869324154E+02  0.00000000000E+00 0.  1.
</event>
<event>
 4    1  0.5452128E+002  0.3419576E+02  0.7546771E-02  0.1386307E+00
          2   -1    0    0  502    0  0.00000000000E+00  0.00000000000E+00  0.44808034546E+03  0.44808034546E+03  0.00000000000E+00 0.  1.
         -2   -1    0    0    0  501 -0.00000000000E+00 -0.00000000000E+00 -0.12668020308E+02  0.12668020308E+02  0.00000000000E+00 0. -1.
         21    1    1    2  502  503 -0.20948472883E+02  0.27027978047E+02  0.42298416458E+03  0.42436417568E+03  0.00000000000E+00 0.  1.
         21    1    1    2  503  501  0.20948472883E+02 -0.27027978047E+02  0.12428160576E+02  0.36384190093E+02  0.00000000000E+00 0. -1.
</event>
<event>
 4    1  0.5452128E+002  0.2081336E+02  0.7546771E-02  0.1521946E+00
          2   -1    0    0  502    0  0.00000000000E+00  0.00000000000E+00  0.50094726706E+03  0.50094726706E+03  0.00000000000E+00 0. -1.
         -2   -1    0    0    0  501 -0.00000000000E+00 -0.00000000000E+00 -0.88323086175E+00  0.88323086175E+00  0.00000000000E+00 0.  1.
         21    1    1    2  502  503  0.15728918217E+02  0.13630739533E+02  0.28632388500E+03  0.28707936716E+03  0.00000000000E+00 0.  1.
         21    1    1    2  503  501 -0.15728918217E+02 -0.13630739533E+02  0.21374015120E+03  0.21475113076E+03  0.00000000000E+00 0. -1.
</event>
<event>
 4    1  0.5452128E+002  0.2009364E+02  0.7546771E-02  0.1532609E+00
          2   -1    0    0  503    0  0.00000000000E+00  0.00000000000E+00  0.11304343287E+04  0.11304343287E+04  0.00000000000E+00 0.  1.
         -2   -1    0    0    0  501 -0.00000000000E+00 -0.00000000000E+00 -0.58217311274E+00  0.58217311274E+00  0.00000000000E+00 0. -1.
         21    1    1    2  502  501  0.67209642618E+01  0.18936288237E+02  0.21335788584E+03  0.21430198744E+03  0.00000000000E+00 0. -1.
         21    1    1    2  503  502 -0.67209642618E+01 -0.18936288237E+02  0.91649426975E+03  0.91671451437E+03  0.00000000000E+00 0.  1.
</event>
<event>
 4    1  0.5452128E+002  0.3405309E+02  0.7546771E-02  0.1387345E+00
          2   -1    0    0  502    0  0.00000000000E+00  0.00000000000E+00  0.24870962239E+04  0.24870962239E+04  0.00000000000E+00 0. -1.
         -2   -1    0    0    0  501 -0.00000000000E+00 -0.00000000000E+00 -0.10301415264E+01  0.10301415264E+01  0.00000000000E+00 0.  1.
         21    1    1    2  502  503  0.29043152755E+02 -0.17779428512E+02  0.21634638065E+04  0.21637317890E+04  0.00000000000E+00 0. -1.
         21    1    1    2  503  501 -0.29043152755E+02  0.17779428512E+02  0.32260227588E+03  0.32439457640E+03  0.00000000000E+00 0.  1.
</event>
<event>
 4    1  0.5452128E+002  0.3883404E+02  0.7546771E-02  0.1355457E+00
          2   -1    0    0  502    0  0.00000000000E+00  0.00000000000E+00  0.48610495668E+02  0.48610495668E+02  0.00000000000E+00 0. -1.
         -2   -1    0    0    0  501 -0.00000000000E+00 -0.00000000000E+00 -0.34617441284E+02  0.34617441284E+02  0.00000000000E+00 0.  1.
         21    1    1    2  502  503 -0.20053625770E+01  0.38782230607E+02  0.20404350396E+02  0.43868216342E+02  0.00000000000E+00 0. -1.
         21    1    1    2  503  501  0.20053625770E+01 -0.38782230607E+02 -0.64112960120E+01  0.39359720610E+02  0.00000000000E+00 0.  1.
</event>
<event>
 4    1  0.5452128E+002  0.2737508E+02  0.7546771E-02  0.1443876E+00
          2   -1    0    0  503    0  0.00000000000E+00  0.00000000000E+00  0.26331289608E+01  0.26331289608E+01  0.00000000000E+00 0.  1.
         -2   -1    0    0    0  501 -0.00000000000E+00 -0.00000000000E+00 -0.35038355032E+03  0.35038355032E+03  0.00000000000E+00 0. -1.
         21    1    1    2  502  501 -0.22453873104E+02 -0.15659461231E+02 -0.25035447539E+03  0.25184669641E+03  0.00000000000E+00 0. -1.
         21    1    1    2  503  502  0.22453873104E+02  0.15659461231E+02 -0.97395945966E+02  0.10116998287E+03  0.00000000000E+00 0.  1.
</event>
<event>
 4    1  0.5452128E+002  0.2712642E+02  0.7546771E-02  0.1446342E+00
          2   -1    0    0  502    0  0.00000000000E+00  0.00000000000E+00  0.35731433065E+03  0.35731433065E+03  0.00000000000E+00 0. -1.
         -2   -1    0    0    0  501 -0.00000000000E+00 -0.00000000000E+00 -0.34017185000E+01  0.34017185000E+01  0.00000000000E+00 0.  1.
         21    1    1    2  502  503 -0.27102859570E+02  0.11303515505E+01  0.29025340744E+03  0.29151823823E+03  0.00000000000E+00 0. -1.
         21    1    1    2  503  501  0.27102859570E+02 -0.11303515505E+01  0.63659204708E+02  0.69197810916E+02  0.00000000000E+00 0.  1.
</event>
<event>
 4    1  0.5452128E+002  0.2025609E+02  0.7546771E-02  0.1530156E+00
          2   -1    0    0  502    0  0.00000000000E+00  0.00000000000E+00  0.68193672393E+03  0.68193672393E+03  0.00000000000E+00 0.  1.
         -2   -1    0    0    0  501 -0.00000000000E+00 -0.00000000000E+00 -0.41222755405E+01  0.41222755405E+01  0.00000000000E+00 0. -1.
         21    1    1    2  502  503 -0.48186266156E+01  0.19674601464E+02  0.65591571918E+03  0.65622842043E+03  0.00000000000E+00 0.  1.
         21    1    1    2  503  501  0.48186266156E+01 -0.19674601464E+02  0.21898729209E+02  0.29830579046E+02  0.00000000000E+00 0. -1.
</event>
<event>
 4    1  0.5452128E+002  0.2289264E+02  0.7546771E-02  0.1493851E+00
          2   -1    0    0  503    0  0.00000000000E+00  0.00000000000E+00  0.54495151055E+02  0.54495151055E+02  0.00000000000E+00 0.  1.
         -2   -1    0    0    0  501 -0.00000000000E+00 -0.00000000000E+00 -0.12610661588E+02  0.12610661588E+02  0.00000000000E+00 0. -1.
         21    1    1    2  502  501 -0.21117476034E+02 -0.88388412248E+01  0.45939738854E+01  0.23349036475E+02  0.00000000000E+00 0. -1.
         21    1    1    2  503  502  0.21117476034E+02  0.88388412248E+01  0.37290515582E+02  0.43756776168E+02  0.00000000000E+00 0.  1.
</event>
<event>
 4    1  0.5452128E+002  0.3728488E+02  0.7546771E-02  0.1365175E+00
          2   -1    0    0  503    0  0.00000000000E+00  0.00000000000E+00  0.24881350198E+02  0.24881350198E+02  0.00000000000E+00 0.  1.
         -2   -1    0    0    0  501 -0.00000000000E+00 -0.00000000000E+00 -0.58533472555E+02  0.58533472555E+02  0.00000000000E+00 0. -1.
         21    1    1    2  502  501  0.10176415418E+02  0.35869247978E+02 -0.79320087460E+01  0.38119275230E+02  0.00000000000E+00 0.  1.
         21    1    1    2  503  502 -0.10176415418E+02 -0.35869247978E+02 -0.25720113612E+02  0.45295547524E+02  0.00000000000E+00 0. -1.
</event>
<event>
 4    1  0.5452128E+002  0.2625683E+02  0.7546771E-02  0.1455220E+00
          2   -1    0    0  503    0  0.00000000000E+00  0.00000000000E+00  0.61419983846E+03  0.61419983846E+03  0.00000000000E+00 0. -1.
         -2   -1    0    0    0  501 -0.00000000000E+00 -0.00000000000E+00 -0.33283549170E+01  0.33283549170E+01  0.00000000000E+00 0.  1.
         21    1    1    2  502  501 -0.13433776753E+02  0.22560030653E+02  0.54071594696E+02  0.60109555762E+02  0.00000000000E+00 0.  1.
         21    1    1    2  503  502  0.13433776753E+02 -0.22560030653E+02  0.55679988885E+03  0.55741863762E+03  0.00000000000E+00 0. -1.
</event>
<event>
 4    1  0.5452128E+002  0.3307784E+02  0.7546771E-02  0.1394605E+00
          2   -1    0    0  502    0  0.00000000000E+00  0.00000000000E+00  0.38267692048E+02  0.38267692048E+02  0.00000000000E+00 0. -1.
         -2   -1    0    0    0  501 -0.00000000000E+00 -0.00000000000E+00 -0.67858981682E+02  0.67858981682E+02  0.00000000000E+00 0.  1.
         21    1    1    2  502  503 -0.28760606142E+02 -0.16339256745E+02  0.25569408043E+02  0.41808353284E+02  0.00000000000E+00 0. -1.
         21    1    1    2  503  501  0.28760606142E+02  0.16339256745E+02 -0.55160697678E+02  0.64318320446E+02  0.00000000000E+00 0.  1.
</event>
<event>
 4    1  0.5452128E+002  0.2442669E+02  0.7546771E-02  0.1475320E+00
          2   -1    0    0  502    0  0.00000000000E+00  0.00000000000E+00  0.31722907919E+02  0.31722907919E+02  0.00000000000E+00 0. -1.
         -2   -1    0    0    0  501 -0.00000000000E+00 -0.00000000000E+00 -0.22818094810E+02  0.22818094810E+02  0.00000000000E+00 0.  1.
         21    1    1    2  502  503  0.61402716239E+01 -0.23642339240E+02  0.15883791511E+02  0.29136883380E+02  0.00000000000E+00 0. -1.
         21    1    1    2  503  501 -0.61402716239E+01  0.23642339240E+02 -0.69789784022E+01  0.25404119349E+02  0.00000000000E+00 0.  1.
</event>
<event>
 4    1  0.5452128E+002  0.2135107E+02  0.7546771E-02  0.1514311E+00
          2   -1    0    0  503    0  0.00000000000E+00  0.00000000000E+00  0.11457767663E+04  0.11457767663E+04  0.00000000000E+00 0.  1.
         -2   -1    0    0    0  501 -0.00000000000E+00 -0.00000000000E+00 -0.40312840234E+00  0.40312840234E+00  0.00000000000E+00 0. -1.
         21    1    1    2  502  501  0.21285030622E+02 -0.16779581775E+01  0.63815115151E+03  0.63850823036E+03  0.00000000000E+00 0. -1.
         21    1    1    2  503  502 -0.21285030622E+02  0.16779581775E+01  0.50722248639E+03  0.50767166434E+03  0.00000000000E+00 0.  1.
</event>
<event>
 4    1  0.5452128E+002  0.2074264E+02  0.7546771E-02  0.1522971E+00
          2   -1    0    0  502    0  0.00000000000E+00  0.00000000000E+00  0.10820128043E+04  0.10820128043E+04  0.00000000000E+00 0. -1.
         -2   -1    0    0    0  501 -0.00000000000E+00 -0.00000000000E+00 -0.96331480605E+00  0.96331480605E+00  0.00000000000E+00 0.  1.
         21    1    1    2  502  503 -0.19315689439E+02  0.75604998144E+01  0.95546565313E+03  0.95569078227E+03  0.00000000000E+00 0. -1.
         21    1    1    2  503  501  0.19315689439E+02 -0.75604998144E+01  0.12558383632E+03  0.12728533679E+03  0.00000000000E+00 0.  1.
</event>
<event>
 4    1  0.5452128E+002  0.8551920E+02  0.7546771E-02  0.1191583E+00
          2   -1    0    0  502    0  0.00000000000E+00  0.00000000000E+00  0.97206398966E+03  0.97206398966E+03  0.00000000000E+00 0.  1.
         -2   -1    0    0    0  501 -0.00000000000E+00 -0.00000000000E+00 -0.12909471832E+02  0.12909471832E+02  0.00000000000E+00 0. -1.
         21    1    1    2  502  503 -0.33726806052E+02 -0.78587757111E+02  0.79767723933E+03  0.80224840988E+03  0.00000000000E+00 0.  1.
         21    1    1    2  503  501  0.33726806052E+02  0.78587757111E+02  0.16147727850E+03  0.18272505161E+03  0.00000000000E+00 0. -1.
</event>
<event>
 4    1  0.5452128E+002  0.2654540E+02  0.7546771E-02  0.1452229E+00
          2   -1    0    0  502    0  0.00000000000E+00  0.00000000000E+00  0.10004064644E+03  0.10004064644E+03  0.00000000000E+00 0. -1.
         -2   -1    0    0    0  501 -0.00000000000E+00 -0.00000000000E+00 -0.19430638444E+02  0.19430638444E+02  0.00000000000E+00 0.  1.
         21    1    1    2  502  503 -0.26544059835E+02  0.26685223976E+00  0.87999870657E+02  0.91916459670E+02  0.00000000000E+00 0. -1.
         21    1    1    2  503  501  0.26544059835E+02 -0.26685223976E+00 -0.73898626571E+01  0.27554825217E+02  0.00000000000E+00 0.  1.
</event>
<event>
 4    1  0.5452128E+002  0.5159718E+02  0.7546771E-02  0.1291392E+00
          2   -1    0    0  502    0  0.00000000000E+00  0.00000000000E+00  0.19991900007E+02  0.19991900007E+02  0.00000000000E+00 0. -1.
         -2   -1    0    0    0  501 -0.00000000000E+00 -0.00000000000E+00 -0.32751702713E+03  0.32751702713E+03  0.00000000000E+00 0.  1.
         21    1    1    2  502  503 -0.29075879034E+02 -0.42624671194E+02 -0.19914872212E+02  0.55307065292E+02  0.00000000000E+00 0. -1.
         21    1    1    2  503  501  0.29075879034E+02  0.42624671194E+02 -0.28761025491E+03  0.29220186185E+03  0.00000000000E+00 0.  1.
</event>
<event>
 4    1  0.5452128E+002  0.3355723E+02  0.7546771E-02  0.1391000E+00
          2   -1    0    0  502    0  0.00000000000E+00  0.00000000000E+00  0.36518484193E+03  0.36518484193E+03  0.00000000000E+00 0.  1.
         -2   -1    0    0    0  501 -0.00000000000E+00 -0.00000000000E+00 -0.67430069477E+01  0.67430069477E+01  0.00000000000E+00 0. -1.
         21    1    1    2  502  503  0.15364030509E+02  0.29833438165E+02  0.31621653884E+03  0.31799211768E+03  0.00000000000E+00 0.  1.
         21    1    1    2  503  501 -0.15364030509E+02 -0.29833438165E+02  0.42225296140E+02  0.53935731202E+02  0.00000000000E+00 0. -1.
</event>
<event>
 4    1  0.5452128E+002  0.4347842E+02  0.7546771E-02  0.1329225E+00
          2   -1    0    0  503    0  0.00000000000E+00  0.00000000000E+00  0.54965605205E+02  0.54965605205E+02  0.00000000000E+00 0.  1.
         -2   -1    0    0    0  501 -0.00000000000E+00 -0.00000000000E+00 -0.36822988615E+02  0.36822988615E+02  0.00000000000E+00 0. -1.
         21    1    1    2  502  501 -0.28930079921E+02 -0.32456492012E+02 -0.27209415810E+01  0.43563481507E+02  0.00000000000E+00 0. -1.
         21    1    1    2  503  502  0.28930079921E+02  0.32456492012E+02  0.20863558171E+02  0.48225112312E+02  0.00000000000E+00 0.  1.
</event>
<event>
 4    1  0.5452128E+002  0.2502324E+02  0.7546771E-02  0.1468544E+00
          2   -1    0    0  503    0  0.00000000000E+00  0.00000000000E+00  0.72208562330E+01  0.72208562330E+01  0.00000000000E+00 0. -1.
         -2   -1    0    0    0  501 -0.00000000000E+00 -0.00000000000E+00 -0.10284935714E+03  0.10284935714E+03  0.00000000000E+00 0.  1.
         21    1    1    2  502  501 -0.67952493679E+01  0.24082924889E+02 -0.69611586320E+02  0.73972532978E+02  0.00000000000E+00 0. -1.
         21    1    1    2  503  502  0.67952493679E+01 -0.24082924889E+02 -0.26016914582E+02  0.36097680390E+02  0.00000000000E+00 0.  1.
</event>
<event>
 4    1  0.5452128E+002  0.3068245E+02  0.7546771E-02  0.1413757E+00
          2   -1    0    0  502    0  0.00000000000E+00  0.00000000000E+00  0.13989824121E+04  0.13989824121E+04  0.00000000000E+00 0.  1.
         -2   -1    0    0    0  501 -0.00000000000E+00 -0.00000000000E+00 -0.45346723235E+01  0.45346723235E+01  0.00000000000E+00 0. -1.
         21    1    1    2  502  503  0.59784330222E+01 -0.30094374121E+02  0.13448234645E+04  0.13451734326E+04  0.00000000000E+00 0.  1.
         21    1    1    2  503  501 -0.59784330222E+01  0.30094374121E+02  0.49624275273E+02  0.58343651853E+02  0.00000000000E+00 0. -1.
</event>
<event>
 4    1  0.5452128E+002  0.3558621E+02  0.7546771E-02  0.1376488E+00
          2   -1    0    0  502    0  0.00000000000E+00  0.00000000000E+00  0.14790065286E+04  0.14790065286E+04  0.00000000000E+00 0.  1.
         -2   -1    0    0    0  501 -0.00000000000E+00 -0.00000000000E+00 -0.22900143563E+01  0.22900143563E+01  0.00000000000E+00 0. -1.
         21    1    1    2  502  503  0.23214185358E+02  0.26971831499E+02  0.13244073206E+04  0.13248853267E+04  0.00000000000E+00 0.  1.
         21    1    1    2  503  501 -0.23214185358E+02 -0.26971831499E+02  0.15230919362E+03  0.15641121622E+03  0.00000000000E+00 0. -1.
</event>
<event>
 4    1  0.5452128E+002  0.2473720E+02  0.7546771E-02  0.1471765E+00
          2   -1    0    0  503    0  0.00000000000E+00  0.00000000000E+00  0.53513143297E+01  0.53513143297E+01  0.00000000000E+00 0.  1.
         -2   -1    0    0    0  501 -0.00000000000E+00 -0.00000000000E+00 -0.11758489869E+03  0.11758489869E+03  0.00000000000E+00 0. -1.
         21    1    1    2  502  501 -0.16033390897E+02  0.18837708447E+02 -0.66310401896E+02  0.70774276985E+02  0.00000000000E+00 0. -1.
         21    1    1    2  503  502  0.16033390897E+02 -0.18837708447E+02 -0.45923182464E+02  0.52161936034E+02  0.00000000000E+00 0.  1.
</event>
<event>
 4    1  0.5452128E+002  0.3074891E+02  0.7546771E-02  0.1413198E+00
          2   -1    0    0  503    0  0.00000000000E+00  0.00000000000E+00  0.79899149431E+03  0.79899149431E+03  0.00000000000E+00 0. -1.
         -2   -1    0    0    0  501 -0.00000000000E+00 -0.00000000000E+00 -0.46606161974E+01  0.46606161974E+01  0.00000000000E+00 0.  1.
         21    1    1    2  502  501 -0.28335760389E+01 -0.30618069107E+02  0.50081345182E+02  0.58767647938E+02  0.00000000000E+00 0.  1.
         21    1    1    2  503  502  0.28335760389E+01  0.30618069107E+02  0.74424953293E+03  0.74488446257E+03  0.00000000000E+00 0. -1.
</event>
<event>
 4    1  0.5452128E+002  0.4444851E+02  0.7546771E-02  0.1324220E+00
          2   -1    0    0  502    0  0.00000000000E+00  0.00000000000E+00  0.17829661067E+03  0.17829661067E+03  0.00000000000E+00 0. -1.
         -2   -1    0    0    0  501 -0.00000000000E+00 -0.00000000000E+00 -0.15690468723E+02  0.15690468723E+02  0.00000000000E+00 0.  1.
         21    1    1    2  502  503  0.42886962830E+02 -0.11678116131E+02  0.13387567291E+03  0.14106156732E+03  0.00000000000E+00 0. -1.
         21    1    1    2  503  501 -0.42886962830E+02  0.11678116131E+02  0.28730469036E+02  0.52925512073E+02  0.00000000000E+00 0.  1.
</event>
<event>
 4    1  0.5452128E+002  0.3241164E+02  0.7546771E-02  0.1399734E+00
          2   -1    0    0  502    0  0.00000000000E+00  0.00000000000E+00  0.65088334897E+03  0.65088334897E+03  0.00000000000E+00 0. -1.
         -2   -1    0    0    0  501 -0.00000000000E+00 -0.00000000000E+00 -0.22586587210E+01  0.22586587210E+01  0.00000000000E+00 0.  1.
         21    1    1    2  502  503  0.20675196186E+02  0.24960979164E+02  0.49878332488E+03  0.49983529227E+03  0.00000000000E+00 0. -1.
         21    1    1    2  503  501 -0.20675196186E+02 -0.24960979164E+02  0.14984136537E+03  0.15330671542E+03  0.00000000000E+00 0.  1.
</event>
<event>
 4    1  0.5452128E+002  0.2635974E+02  0.7546771E-02  0.1454148E+00
          2   -1    0    0  502    0  0.00000000000E+00  0.00000000000E+00  0.53087183541E+03  0.53087183541E+03  0.00000000000E+00 0.  1.
         -2   -1    0    0    0  501 -0.00000000000E+00 -0.00000000000E+00 -0.22478465154E+01  0.22478465154E+01  0.00000000000E+00 0. -1.
         21    1    1    2  502  503  0.31255415788E+01  0.26173787290E+02  0.43659458843E+03  0.43738960984E+03  0.00000000000E+00 0.  1.
         21    1    1    2  503  501 -0.31255415788E+01 -0.26173787290E+02  0.92029400466E+02  0.95730072085E+02  0.00000000000E+00 0. -1.
</event>
<event>
 4    1  0.5452128E+002  0.5579991E+02  0.7546771E-02  0.1274812E+00
          2   -1    0    0  502    0  0.00000000000E+00  0.00000000000E+00  0.14981148945E+03  0.14981148945E+03  0.00000000000E+00 0.  1.
         -2   -1    0    0    0  501 -0.00000000000E+00 -0.00000000000E+00 -0.24383996572E+02  0.24383996572E+02  0.00000000000E+00 0. -1.
         21    1    1    2  502  503  0.23043133382E+02  0.50819716508E+02  0.96181503150E+02  0.11119582335E+03  0.00000000000E+00 0.  1.
         21    1    1    2  503  501 -0.23043133382E+02 -0.50819716508E+02  0.29245989733E+02  0.62999662678E+02  0.00000000000E+00 0. -1.
</event>
<event>
 4    1  0.5452128E+002  0.2277511E+02  0.7546771E-02  0.1495342E+00
          2   -1    0    0  503    0  0.00000000000E+00  0.00000000000E+00  0.10736011124E+01  0.10736011124E+01  0.00000000000E+00 0.  1.
         -2   -1    0    0    0  501 -0.00000000000E+00 -0.00000000000E+00 -0.91939887181E+03  0.91939887181E+03  0.00000000000E+00 0. -1.
         21    1    1    2  502  501  0.20154126093E+02 -0.10607393067E+02 -0.77619106256E+03  0.77652512592E+03  0.00000000000E+00 0. -1.
         21    1    1    2  503  502 -0.20154126093E+02  0.10607393067E+02 -0.14213420813E+03  0.14394734700E+03  0.00000000000E+00 0.  1.
</event>
<event>
 4    1  0.5452128E+002  0.2897360E+02  0.7546771E-02  0.1428730E+00
          2   -1    0    0  503    0  0.00000000000E+00  0.00000000000E+00  0.68568379002E+03  0.68568379002E+03  0.00000000000E+00 0.  1.
         -2   -1    0    0    0  501 -0.00000000000E+00 -0.00000000000E+00 -0.14186520744E+01  0.14186520744E+01  0.00000000000E+00 0. -1.
         21    1    1    2  502  501  0.10277099829E+02 -0.27089682010E+02  0.21496705848E+03  0.21691082473E+03  0.00000000000E+00 0.  1.
         21    1    1    2  503  502 -0.10277099829E+02  0.27089682010E+02  0.46929807946E+03  0.47019161736E+03  0.00000000000E+00 0. -1.
</event>
<event>
 4    1  0.5452128E+002  0.2350106E+02  0.7546771E-02  0.1486300E+00
          2   -1    0    0  502    0  0.00000000000E+00  0.00000000000E+00  0.47162740904E+01  0.47162740904E+01  0.00000000000E+00 0.  1.
         -2   -1    0    0    0  501 -0.00000000000E+00 -0.00000000000E+00 -0.13472107082E+03  0.13472107082E+03  0.00000000000E+00 0. -1.
         21    1    1    2  502  503  0.23313954244E+02 -0.29596045138E+01 -0.90213087019E+02  0.93223928210E+02  0.00000000000E+00 0. -1.
         21    1    1    2  503  501 -0.23313954244E+02  0.29596045138E+01 -0.39791709707E+02  0.46213416696E+02  0.00000000000E+00 0.  1.
</event>
<event>
 4    1  0.5452128E+002  0.4487312E+02  0.7546771E-02  0.1322075E+00
          2   -1    0    0  503    0  0.00000000000E+00  0.00000000000E+00  0.59778215631E+03  0.59778215631E+03  0.00000000000E+00 0. -1.
         -2   -1    0    0    0  501 -0.00000000000E+00 -0.00000000000E+00 -0.11651532561E+02  0.11651532561E+02  0.00000000000E+00 0.  1.
         21    1    1    2  502  501  0.38035840534E+02  0.23809077371E+02  0.36143475619E+02  0.57618991315E+02  0.00000000000E+00 0.  1.
         21    1    1    2  503  502 -0.38035840534E+02 -0.23809077371E+02  0.54998714813E+03  0.55181469755E+03  0.00000000000E+00 0. -1.
</event>
<event>
 4    1  0.5452128E+002  0.2135583E+02  0.7546771E-02  0.1514245E+00
          2   -1    0    0  502    0  0.00000000000E+00  0.00000000000E+00  0.36535310512E+02  0.36535310512E+02  0.00000000000E+00 0.  1.
         -2   -1    0    0    0  501 -0.00000000000E+00 -0.00000000000E+00 -0.15865346913E+02  0.15865346913E+02  0.00000000000E+00 0. -1.
         21    1    1    2  502  503  0.20432380991E+02  0.62120357948E+01  0.22432289937E+02  0.30972232943E+02  0.00000000000E+00 0.  1.
         21    1    1    2  503  501 -0.20432380991E+02 -0.62120357948E+01 -0.17623263385E+01  0.21428424482E+02  0.00000000000E+00 0. -1.
</event>
<event>
 4    1  0.5452128E+002  0.2635647E+02  0.7546771E-02  0.1454182E+00
          2   -1    0    0  502    0  0.00000000000E+00  0.00000000000E+00  0.10184109024E+04  0.10184109024E+04  0.00000000000E+00 0. -1.
         -2   -1    0    0    0  501 -0.00000000000E+00 -0.00000000000E+00 -0.87795012001E+00  0.87795012001E+00  0.00000000000E+00 0.  1.
         21    1    1    2  502  503 -0.25164397947E+02  0.78368853855E+01  0.74947316562E+03  0.74993645710E+03  0.00000000000E+00 0. -1.
         21    1    1    2  503  501  0.25164397947E+02 -0.78368853855E+01  0.26805978661E+03  0.26935239538E+03  0.00000000000E+00 0.  1.
</event>
<event>
 4    1  0.5452128E+002  0.2196709E+02  0.7546771E-02  0.1505892E+00
          2   -1    0    0  502    0  0.00000000000E+00  0.00000000000E+00  0.23249189303E+02  0.23249189303E+02  0.00000000000E+00 0.  1.
         -2   -1    0    0    0  501 -0.00000000000E+00 -0.00000000000E+00 -0.25436909291E+02  0.25436909291E+02  0.00000000000E+00 0. -1.
         21    1    1    2  502  503 -0.47370217218E+01 -0.21450257506E+02  0.93490705347E+01  0.23873794037E+02  0.00000000000E+00 0.  1.
         21    1    1    2  503  501  0.47370217218E+01  0.21450257506E+02 -0.11536790523E+02  0.24812304557E+02  0.00000000000E+00 0. -1.
</event>
<event>
 4    1  0.5452128E+002  0.2350474E+02  0.7546771E-02  0.1486255E+00
          2   -1    0    0  502    0  0.00000000000E+00  0.00000000000E+00  0.18600571702E+03  0.18600571702E+03  0.00000000000E+00 0. -1.
         -2   -1    0    0    0  501 -0.00000000000E+00 -0.00000000000E+00 -0.40583893637E+01  0.40583893637E+01  0.00000000000E+00 0.  1.
         21    1    1    2  502  503  0.22219033607E+02 -0.76672978630E+01  0.14018292646E+03  0.14213981068E+03  0.00000000000E+00 0. -1.
         21    1    1    2  503  501 -0.22219033607E+02  0.76672978630E+01  0.41764401204E+02  0.47924295705E+02  0.00000000000E+00 0.  1.
</event>
<event>
 4    1  0.5452128E+002  0.2162346E+02  0.7546771E-02  0.1510547E+00
          2   -1    0    0  502    0  0.00000000000E+00  0.00000000000E+00  0.79498620607E+03  0.79498620607E+03  0.00000000000E+00 0.  1.
         -2   -1    0    0    0  501 -0.00000000000E+00 -0.00000000000E+00 -0.72734779733E+00  0.72734779733E+00  0.00000000000E+00 0. -1.
         21    1    1    2  502  503  0.21597062227E+02  0.10681166329E+01  0.22308251860E+03  0.22412805286E+03  0.00000000000E+00 0. -1.
         21    1    1    2  503  501 -0.21597062227E+02 -0.10681166329E+01  0.57117633967E+03  0.57158550101E+03  0.00000000000E+00 0.  1.
</event>
<event>
 4    1  0.5452128E+002  0.2515327E+02  0.7546771E-02  0.1467096E+00
          2   -1    0    0  502    0  0.00000000000E+00  0.00000000000E+00  0.38277905273E+03  0.38277905273E+03  0.00000000000E+00 0. -1.
         -2   -1    0    0    0  501 -0.00000000000E+00 -0.00000000000E+00 -0.23023326383E+01  0.23023326383E+01  0.00000000000E+00 0.  1.
         21    1    1    2  502  503 -0.10484046870E+02  0.22864199182E+02  0.29250008378E+03  0.29357960736E+03  0.00000000000E+00 0. -1.
         21    1    1    2  503  501  0.10484046870E+02 -0.22864199182E+02  0.87976636309E+02  0.91501778011E+02  0.00000000000E+00 0.  1.
</event>
<event>
 4    1  0.5452128E+002  0.2343076E+02  0.7546771E-02  0.1487159E+00
          2   -1    0    0  502    0  0.00000000000E+00  0.00000000000E+00  0.14090410456E+04  0.14090410456E+04  0.00000000000E+00 0.  1.
         -2   -1    0    0    0  501 -0.00000000000E+00 -0.00000000000E+00 -0.95155127292E+00  0.95155127292E+00  0.00000000000E+00 0. -1.
         21    1    1    2  502  503  0.18560738299E+02  0.14300335757E+02  0.12458080549E+04  0.12460283746E+04  0.00000000000E+00 0.  1.
         21    1    1    2  503  501 -0.18560738299E+02 -0.14300335757E+02  0.16228143941E+03  0.16396422227E+03  0.00000000000E+00 0. -1.
</event>
<event>
 4    1  0.5452128E+002  0.2217433E+02  0.7546771E-02  0.1503135E+00
          2   -1    0    0  502    0  0.00000000000E+00  0.00000000000E+00  0.60611657174E+02  0.60611657174E+02  0.00000000000E+00 0. -1.
         -2   -1    0    0    0  501 -0.00000000000E+00 -0.00000000000E+00 -0.27423976093E+02  0.27423976093E+02  0.00000000000E+00 0.  1.
         21    1    1    2  502  503  0.38110901729E+01 -0.21844370976E+02  0.53531815616E+02  0.57942697856E+02  0.00000000000E+00 0. -1.
         21    1    1    2  503  501 -0.38110901729E+01  0.21844370976E+02 -0.20344134535E+02  0.30092935411E+02  0.00000000000E+00 0.  1.
</event>
<event>
 4    1  0.5452128E+002  0.3523569E+02  0.7546771E-02  0.1378914E+00
          2   -1    0    0  502    0  0.00000000000E+00  0.00000000000E+00  0.99195321985E+01  0.99195321985E+01  0.00000000000E+00 0.  1.
         -2   -1    0    0    0  501 -0.00000000000E+00 -0.00000000000E+00 -0.14355223264E+03  0.14355223264E+03  0.00000000000E+00 0. -1.
         21    1    1    2  502  503 -0.75069568382E+01 -0.34426730368E+02 -0.39351301658E+02  0.52821199409E+02  0.00000000000E+00 0.  1.
         21    1    1    2  503  501  0.75069568382E+01  0.34426730368E+02 -0.94281398786E+02  0.10065056543E+03  0.00000000000E+00 0. -1.
</event>
<event>
 4    1  0.5452128E+002  0.3208004E+02  0.7546771E-02  0.1402342E+00
          2   -1    0    0  502    0  0.00000000000E+00  0.00000000000E+00  0.19283866285E+03  0.19283866285E+03  0.00000000000E+00 0. -1.
         -2   -1    0    0    0  501 -0.00000000000E+00 -0.00000000000E+00 -0.54396077510E+01  0.54396077510E+01  0.00000000000E+00 0.  1.
         21    1    1    2  502  503  0.31917167090E+02 -0.32285548943E+01  0.10733306146E+03  0.11202461874E+03  0.00000000000E+00 0. -1.
         21    1    1    2  503  501 -0.31917167090E+02  0.32285548943E+01  0.80065993638E+02  0.86253651859E+02  0.00000000000E+00 0.  1.
</event>
<event>
 4    1  0.5452128E+002  0.2008235E+02  0.7546771E-02  0.1532781E+00
          2   -1    0    0  502    0  0.00000000000E+00  0.00000000000E+00  0.18150786371E+03  0.18150786371E+03  0.00000000000E+00 0.  1.
         -2   -1    0    0    0  501 -0.00000000000E+00 -0.00000000000E+00 -0.87650977312E+01  0.87650977312E+01  0.00000000000E+00 0. -1.
         21    1    1    2  502  503 -0.10533875421E+02 -0.17097903891E+02  0.16856955584E+03  0.16976158578E+03  0.00000000000E+00 0.  1.
         21    1    1    2  503  501  0.10533875421E+02  0.17097903891E+02  0.41732101396E+01  0.20511375667E+02  0.00000000000E+00 0. -1.
</event>
<event>
 4    1  0.5452128E+002  0.5877325E+02  0.7546771E-02  0.1264059E+00
          2   -1    0    0  503    0  0.00000000000E+00  0.00000000000E+00  0.74731311427E+02  0.74731311427E+02  0.00000000000E+00 0.  1.
         -2   -1    0    0    0  501 -0.00000000000E+00 -0.00000000000E+00 -0.67254819520E+02  0.67254819520E+02  0.00000000000E+00 0. -1.
         21    1    1    2  502  501  0.38013650349E+02  0.44824733651E+02 -0.35962089200E+02  0.68902584998E+02  0.00000000000E+00 0. -1.
         21    1    1    2  503  502 -0.38013650349E+02 -0.44824733651E+02  0.43438581107E+02  0.73083545948E+02  0.00000000000E+00 0.  1.
</event>
<event>
 4    1  0.5452128E+002  0.2071247E+02  0.7546771E-02  0.1523410E+00
          2   -1    0    0  503    0  0.00000000000E+00  0.00000000000E+00  0.55380336366E+03  0.55380336366E+03  0.00000000000E+00 0. -1.
         -2   -1    0    0    0  501 -0.00000000000E+00 -0.00000000000E+00 -0.85157889336E+00  0.85157889336E+00  0.00000000000E+00 0.  1.
         21    1    1    2  502  501  0.76581805119E+01 -0.19244709210E+02  0.35982692623E+03  0.36042256228E+03  0.00000000000E+00 0. -1.
         21    1    1    2  503  502 -0.76581805119E+01  0.19244709210E+02  0.19312485854E+03  0.19423238027E+03  0.00000000000E+00 0.  1.
</event>
<event>
 4    1  0.5452128E+002  0.2259300E+02  0.7546771E-02  0.1497673E+00
          2   -1    0    0  502    0  0.00000000000E+00  0.00000000000E+00  0.35436273915E+00  0.35436273915E+00  0.00000000000E+00 0. -1.
         -2   -1    0    0    0  501 -0.00000000000E+00 -0.00000000000E+00 -0.14543214258E+04  0.14543214258E+04  0.00000000000E+00 0.  1.
         21    1    1    2  502  503  0.81243947949E+01  0.21081697218E+02 -0.79800355523E+03  0.79832331665E+03  0.00000000000E+00 0. -1.
         21    1    1    2  503  501 -0.81243947949E+01 -0.21081697218E+02 -0.65596350784E+03  0.65635247190E+03  0.00000000000E+00 0.  1.
</event>
