<event>
 4    1  0.2134315E+005  0.2059790E+02  0.7546771E-02  0.1525084E+00
          2   -1    0    0  503    0  0.00000000000E+00  0.00000000000E+00  0.56253798223E+02  0.56253798223E+02  0.00000000000E+00 0.  1.
         21   -1    0    0  501  502 -0.00000000000E+00 -0.00000000000E+00 -0.80588564824E+01  0.80588564824E+01  0.00000000000E+00 0.  1.
          2    1    1    2  501    0 -0.18377116290E+02 -0.93034960490E+01  0.15954924888E+02  0.26054425153E+02  0.00000000000E+00 0.  1.
         21    1    1    2  503  502  0.18377116290E+02  0.93034960490E+01  0.32240016853E+02  0.38258229553E+02  0.00000000000E+00 0.  1.
</event>
<event>
 4    1  0.2134315E+005  0.3599426E+02  0.7546771E-02  0.1373705E+00
          2   -1    0    0  503    0  0.00000000000E+00  0.00000000000E+00  0.10035303598E+04  0.10035303598E+04  0.00000000000E+00 0.  1.
         21   -1    0    0  501  502 -0.00000000000E+00 -0.00000000000E+00 -0.47847847655E+01  0.47847847655E+01  0.00000000000E+00 0.  1.
          2    1    1    2  501    0 -0.24637318833E+02  0.26240978376E+02  0.93017843230E+03  0.93087459002E+03  0.00000000000E+00 0.  1.
         21    1    1    2  503  502  0.24637318833E+02 -0.26240978376E+02  0.68567142709E+02  0.77440554522E+02  0.00000000000E+00 0.  1.
</event>
<event>
 4    1  0.2134315E+005  0.2093894E+02  0.7546771E-02  0.1520138E+00
          2   -1    0    0  502    0  0.00000000000E+00  0.00000000000E+00  0.12406827626E+03  0.12406827626E+03  0.00000000000E+00 0.  1.
         21   -1    0    0  503  502 -0.00000000000E+00 -0.00000000000E+00 -0.17339690152E+02  0.17339690152E+02  0.00000000000E+00 0.  1.
          2    1    1    2  501    0  0.16549170472E+02 -0.12828250913E+02  0.11645342996E+03  0.11832092129E+03  0.00000000000E+00 0.  1.
         21    1    1    2  503  501 -0.16549170472E+02  0.12828250913E+02 -0.97248438499E+01  0.23087045127E+02  0.00000000000E+00 0.  1.
</event>
<event>
 4    1  0.2134315E+005  0.2843232E+02  0.7546771E-02  0.1433727E+00
          2   -1    0    0  502    0  0.00000000000E+00  0.00000000000E+00  0.10928291098E+04  0.10928291098E+04  0.00000000000E+00 0. -1.
         21   -1    0    0  503  502 -0.00000000000E+00 -0.00000000000E+00 -0.27288675738E+01  0.27288675738E+01  0.00000000000E+00 0. -1.
          2    1    1    2  501    0 -0.12339265797E+02 -0.25615213877E+02  0.10127278956E+04  0.10131269353E+04  0.00000000000E+00 0. -1.
         21    1    1    2  503  501  0.12339265797E+02  0.25615213877E+02  0.77372346657E+02  0.82431042026E+02  0.00000000000E+00 0. -1.
</event>
<event>
 4    1  0.2134315E+005  0.2205149E+02  0.7546771E-02  0.1504765E+00
          2   -1    0    0  502    0  0.00000000000E+00  0.00000000000E+00  0.78654042031E+02  0.78654042031E+02  0.00000000000E+00 0. -1.
         21   -1    0    0  503  502 -0.00000000000E+00 -0.00000000000E+00 -0.63342520479E+01  0.63342520479E+01  0.00000000000E+00 0.  1.
          2    1    1    2  501    0 -0.18955861864E+02 -0.11266918859E+02  0.42740091351E+02  0.48093487795E+02  0.00000000000E+00 0. -1.
         21    1    1    2  503  501  0.18955861864E+02  0.11266918859E+02  0.29579698632E+02  0.36894806284E+02  0.00000000000E+00 0.  1.
</event>
<event>
 4    1  0.2134315E+005  0.2860888E+02  0.7546771E-02  0.1432083E+00
          2   -1    0    0  502    0  0.00000000000E+00  0.00000000000E+00  0.35573513036E+03  0.35573513036E+03  0.00000000000E+00 0. -1.
         21   -1    0    0  503  502 -0.00000000000E+00 -0.00000000000E+00 -0.41485740175E+02  0.41485740175E+02  0.00000000000E+00 0.  1.
          2    1    1    2  501    0 -0.27357571865E+02  0.83684785685E+01  0.35014915596E+03  0.35131595408E+03  0.00000000000E+00 0. -1.
         21    1    1    2  503  501  0.27357571865E+02 -0.83684785685E+01 -0.35899765775E+02  0.45904916454E+02  0.00000000000E+00 0.  1.
</event>
<event>
 4    1  0.2134315E+005  0.5833365E+02  0.7546771E-02  0.1265602E+00
          2   -1    0    0  503    0  0.00000000000E+00  0.00000000000E+00  0.17603370696E+04  0.17603370696E+04  0.00000000000E+00 0. -1.
         21   -1    0    0  501  502 -0.00000000000E+00 -0.00000000000E+00 -0.21714237984E+01  0.21714237984E+01  0.00000000000E+00 0. -1.
          2    1    1    2  501    0 -0.53801475604E+02 -0.22543637003E+02  0.11710680566E+04  0.11725200244E+04  0.00000000000E+00 0. -1.
         21    1    1    2  503  502  0.53801475604E+02  0.22543637003E+02  0.58709758916E+03  0.58998846899E+03  0.00000000000E+00 0. -1.
</event>
<event>
 4    1  0.2134315E+005  0.2155379E+02  0.7546771E-02  0.1511503E+00
          2   -1    0    0  502    0  0.00000000000E+00  0.00000000000E+00  0.97784583668E+03  0.97784583668E+03  0.00000000000E+00 0. -1.
         21   -1    0    0  503  502 -0.00000000000E+00 -0.00000000000E+00 -0.10433219917E+01  0.10433219917E+01  0.00000000000E+00 0. -1.
          2    1    1    2  501    0  0.15100200973E+02 -0.15380181519E+02  0.84960869521E+03  0.84988205124E+03  0.00000000000E+00 0. -1.
         21    1    1    2  503  501 -0.15100200973E+02  0.15380181519E+02  0.12719381948E+03  0.12900710743E+03  0.00000000000E+00 0. -1.
</event>
<event>
 4    1  0.2134315E+005  0.2563910E+02  0.7546771E-02  0.1461779E+00
          2   -1    0    0  502    0  0.00000000000E+00  0.00000000000E+00  0.10611916797E+02  0.10611916797E+02  0.00000000000E+00 0.  1.
         21   -1    0    0  503  502 -0.00000000000E+00 -0.00000000000E+00 -0.10450574546E+04  0.10450574546E+04  0.00000000000E+00 0. -1.
          2    1    1    2  501    0  0.15933150142E+02 -0.20087265085E+02 -0.52707404856E+01  0.26175259259E+02  0.00000000000E+00 0.  1.
         21    1    1    2  503  501 -0.15933150142E+02  0.20087265085E+02 -0.10291747973E+04  0.10294941121E+04  0.00000000000E+00 0. -1.
</event>
<event>
 4    1  0.2134315E+005  0.3314666E+02  0.7546771E-02  0.1394083E+00
          2   -1    0    0  503    0  0.00000000000E+00  0.00000000000E+00  0.19821337114E+03  0.19821337114E+03  0.00000000000E+00 0. -1.
         21   -1    0    0  501  502 -0.00000000000E+00 -0.00000000000E+00 -0.74412968867E+01  0.74412968867E+01  0.00000000000E+00 0.  1.
          2    1    1    2  501    0  0.12085054157E+02  0.30865071570E+02  0.14732146973E+03  0.15100435960E+03  0.00000000000E+00 0. -1.
         21    1    1    2  503  502 -0.12085054157E+02 -0.30865071570E+02  0.43450604528E+02  0.54650308424E+02  0.00000000000E+00 0.  1.
</event>
<event>
 4    1  0.2134315E+005  0.3492384E+02  0.7546771E-02  0.1381099E+00
          2   -1    0    0  502    0  0.00000000000E+00  0.00000000000E+00  0.53414056692E+02  0.53414056692E+02  0.00000000000E+00 0.  1.
         21   -1    0    0  503  502 -0.00000000000E+00 -0.00000000000E+00 -0.80005684213E+02  0.80005684213E+02  0.00000000000E+00 0.  1.
          2    1    1    2  501    0 -0.33179109004E+02 -0.10900520953E+02  0.43096366302E+02  0.55470455377E+02  0.00000000000E+00 0.  1.
         21    1    1    2  503  501  0.33179109004E+02  0.10900520953E+02 -0.69687993823E+02  0.77949285528E+02  0.00000000000E+00 0.  1.
</event>
<event>
 4    1  0.2134315E+005  0.2435770E+02  0.7546771E-02  0.1476119E+00
          2   -1    0    0  502    0  0.00000000000E+00  0.00000000000E+00  0.49015910843E+03  0.49015910843E+03  0.00000000000E+00 0. -1.
         21   -1    0    0  503  502 -0.00000000000E+00 -0.00000000000E+00 -0.73537298511E+01  0.73537298511E+01  0.00000000000E+00 0. -1.
          2    1    1    2  501    0 -0.62917778392E+01  0.23531064885E+02  0.46876670766E+03  0.46939910917E+03  0.00000000000E+00 0. -1.
         21    1    1    2  503  501  0.62917778392E+01 -0.23531064885E+02  0.14038670914E+02  0.28113729102E+02  0.00000000000E+00 0. -1.
</event>
<event>
 4    1  0.2134315E+005  0.2191970E+02  0.7546771E-02  0.1506528E+00
          2   -1    0    0  502    0  0.00000000000E+00  0.00000000000E+00  0.17593053010E+02  0.17593053010E+02  0.00000000000E+00 0.  1.
         21   -1    0    0  503  502 -0.00000000000E+00 -0.00000000000E+00 -0.15279003312E+03  0.15279003312E+03  0.00000000000E+00 0.  1.
          2    1    1    2  501    0 -0.71870465778E+01 -0.20707961345E+02  0.96047618077E+01  0.23931668370E+02  0.00000000000E+00 0.  1.
         21    1    1    2  503  501  0.71870465778E+01  0.20707961345E+02 -0.14480174191E+03  0.14645141776E+03  0.00000000000E+00 0.  1.
</event>
<event>
 4    1  0.2134315E+005  0.2173111E+02  0.7546771E-02  0.1509077E+00
          2   -1    0    0  503    0  0.00000000000E+00  0.00000000000E+00  0.49673359499E+03  0.49673359499E+03  0.00000000000E+00 0.  1.
         21   -1    0    0  501  502 -0.00000000000E+00 -0.00000000000E+00 -0.13252791454E+02  0.13252791454E+02  0.00000000000E+00 0. -1.
          2    1    1    2  501    0  0.11858975580E+02 -0.18210050503E+02  0.48741740253E+03  0.48790159410E+03  0.00000000000E+00 0.  1.
         21    1    1    2  503  502 -0.11858975580E+02  0.18210050503E+02 -0.39365989914E+01  0.22084792342E+02  0.00000000000E+00 0. -1.
</event>
<event>
 4    1  0.2134315E+005  0.2301440E+02  0.7546771E-02  0.1492317E+00
          2   -1    0    0  502    0  0.00000000000E+00  0.00000000000E+00  0.48090328558E+03  0.48090328558E+03  0.00000000000E+00 0.  1.
         21   -1    0    0  503  502 -0.00000000000E+00 -0.00000000000E+00 -0.22018644337E+01  0.22018644337E+01  0.00000000000E+00 0. -1.
          2    1    1    2  501    0  0.50421234906E+01 -0.22455278729E+02  0.41011858160E+03  0.41076381721E+03  0.00000000000E+00 0.  1.
         21    1    1    2  503  501 -0.50421234906E+01  0.22455278729E+02  0.68582839542E+02  0.72341332803E+02  0.00000000000E+00 0. -1.
</event>
<event>
 4    1  0.2134315E+005  0.2593307E+02  0.7546771E-02  0.1458630E+00
          2   -1    0    0  502    0  0.00000000000E+00  0.00000000000E+00  0.34769387123E+03  0.34769387123E+03  0.00000000000E+00 0.  1.
         21   -1    0    0  503  502 -0.00000000000E+00 -0.00000000000E+00 -0.63158524690E+01  0.63158524690E+01  0.00000000000E+00 0. -1.
          2    1    1    2  501    0  0.85796377386E+01  0.24472717182E+02  0.31811908642E+03  0.31917436805E+03  0.00000000000E+00 0.  1.
         21    1    1    2  503  501 -0.85796377386E+01 -0.24472717182E+02  0.23258932334E+02  0.34835355651E+02  0.00000000000E+00 0. -1.
</event>
<event>
 4    1  0.2134315E+005  0.2360411E+02  0.7546771E-02  0.1485049E+00
          2   -1    0    0  502    0  0.00000000000E+00  0.00000000000E+00  0.65181436577E+02  0.65181436577E+02  0.00000000000E+00 0.  1.
         21   -1    0    0  503  502 -0.00000000000E+00 -0.00000000000E+00 -0.33685930927E+02  0.33685930927E+02  0.00000000000E+00 0. -1.
          2    1    1    2  501    0  0.14792782363E+02 -0.18393679644E+02  0.58451474216E+02  0.63037518185E+02  0.00000000000E+00 0.  1.
         21    1    1    2  503  501 -0.14792782363E+02  0.18393679644E+02 -0.26955968566E+02  0.35829849319E+02  0.00000000000E+00 0. -1.
</event>
<event>
 4    1  0.2134315E+005  0.2327990E+02  0.7546771E-02  0.1489013E+00
          2   -1    0    0  502    0  0.00000000000E+00  0.00000000000E+00  0.52696807119E+02  0.52696807119E+02  0.00000000000E+00 0.  1.
         21   -1    0    0  503  502 -0.00000000000E+00 -0.00000000000E+00 -0.52237236944E+02  0.52237236944E+02  0.00000000000E+00 0. -1.
          2    1    1    2  501    0 -0.89385826553E+01 -0.21495476256E+02  0.47249187956E+02  0.52672948672E+02  0.00000000000E+00 0.  1.
         21    1    1    2  503  501  0.89385826553E+01  0.21495476256E+02 -0.46789617781E+02  0.52261095390E+02  0.00000000000E+00 0. -1.
</event>
<event>
 4    1  0.2134315E+005  0.5199154E+02  0.7546771E-02  0.1289761E+00
          2   -1    0    0  502    0  0.00000000000E+00  0.00000000000E+00  0.98726489511E+01  0.98726489511E+01  0.00000000000E+00 0. -1.
         21   -1    0    0  503  502 -0.00000000000E+00 -0.00000000000E+00 -0.39968447390E+03  0.39968447390E+03  0.00000000000E+00 0.  1.
          2    1    1    2  501    0  0.48308059971E+02  0.19221135706E+02 -0.79981106402E+02  0.95394434310E+02  0.00000000000E+00 0. -1.
         21    1    1    2  503  501 -0.48308059971E+02 -0.19221135706E+02 -0.30983071854E+03  0.31416268854E+03  0.00000000000E+00 0.  1.
</event>
<event>
 4    1  0.2134315E+005  0.2415271E+02  0.7546771E-02  0.1478509E+00
          2   -1    0    0  502    0  0.00000000000E+00  0.00000000000E+00  0.41263270338E+03  0.41263270338E+03  0.00000000000E+00 0.  1.
         21   -1    0    0  503  502 -0.00000000000E+00 -0.00000000000E+00 -0.18276174494E+01  0.18276174494E+01  0.00000000000E+00 0. -1.
          2    1    1    2  501    0 -0.98644807139E+01 -0.22046439867E+02  0.30401881291E+03  0.30497670746E+03  0.00000000000E+00 0.  1.
         21    1    1    2  503  501  0.98644807139E+01  0.22046439867E+02  0.10678627302E+03  0.10948361337E+03  0.00000000000E+00 0. -1.
</event>
<event>
 4    1  0.2134315E+005  0.2482338E+02  0.7546771E-02  0.1470789E+00
          2   -1    0    0  503    0  0.00000000000E+00  0.00000000000E+00  0.48634871785E+02  0.48634871785E+02  0.00000000000E+00 0.  1.
         21   -1    0    0  501  502 -0.00000000000E+00 -0.00000000000E+00 -0.11406510306E+03  0.11406510306E+03  0.00000000000E+00 0. -1.
          2    1    1    2  501    0  0.24399002578E+02  0.45704562126E+01  0.43983889895E+02  0.50505276626E+02  0.00000000000E+00 0.  1.
         21    1    1    2  503  502 -0.24399002578E+02 -0.45704562126E+01 -0.10941412117E+03  0.11219469822E+03  0.00000000000E+00 0. -1.
</event>
<event>
 4    1  0.2134315E+005  0.2590974E+02  0.7546771E-02  0.1458878E+00
          2   -1    0    0  503    0  0.00000000000E+00  0.00000000000E+00  0.43326297844E+03  0.43326297844E+03  0.00000000000E+00 0. -1.
         21   -1    0    0  501  502 -0.00000000000E+00 -0.00000000000E+00 -0.11344134473E+02  0.11344134473E+02  0.00000000000E+00 0.  1.
          2    1    1    2  501    0  0.25816944435E+02  0.21908992326E+01  0.41752416228E+03  0.41832731294E+03  0.00000000000E+00 0. -1.
         21    1    1    2  503  502 -0.25816944435E+02 -0.21908992326E+01  0.43946816780E+01  0.26279799970E+02  0.00000000000E+00 0.  1.
</event>
<event>
 4    1  0.2134315E+005  0.2631218E+02  0.7546771E-02  0.1454642E+00
          2   -1    0    0  502    0  0.00000000000E+00  0.00000000000E+00  0.80348080528E+03  0.80348080528E+03  0.00000000000E+00 0.  1.
         21   -1    0    0  503  502 -0.00000000000E+00 -0.00000000000E+00 -0.33832492546E+02  0.33832492546E+02  0.00000000000E+00 0.  1.
          2    1    1    2  501    0 -0.76453734722E+01 -0.25176954055E+02  0.79811513330E+03  0.79854874413E+03  0.00000000000E+00 0.  1.
         21    1    1    2  503  501  0.76453734722E+01  0.25176954055E+02 -0.28466820558E+02  0.38764553702E+02  0.00000000000E+00 0.  1.
</event>
<event>
 4    1  0.2134315E+005  0.3246685E+02  0.7546771E-02  0.1399304E+00
          2   -1    0    0  503    0  0.00000000000E+00  0.00000000000E+00  0.11153748279E+03  0.11153748279E+03  0.00000000000E+00 0. -1.
         21   -1    0    0  501  502 -0.00000000000E+00 -0.00000000000E+00 -0.75022273061E+02  0.75022273061E+02  0.00000000000E+00 0.  1.
          2    1    1    2  501    0 -0.30813281913E+02 -0.10229286723E+02  0.10546453064E+03  0.11034882814E+03  0.00000000000E+00 0. -1.
         21    1    1    2  503  502  0.30813281913E+02  0.10229286723E+02 -0.68949320908E+02  0.76210927713E+02  0.00000000000E+00 0.  1.
</event>
<event>
 4    1  0.2134315E+005  0.2867697E+02  0.7546771E-02  0.1431453E+00
          2   -1    0    0  502    0  0.00000000000E+00  0.00000000000E+00  0.46936921734E+03  0.46936921734E+03  0.00000000000E+00 0.  1.
         21   -1    0    0  503  502 -0.00000000000E+00 -0.00000000000E+00 -0.63550171544E+01  0.63550171544E+01  0.00000000000E+00 0.  1.
          2    1    1    2  501    0  0.18667734551E+02 -0.21768884064E+02  0.43394173579E+03  0.43488826001E+03  0.00000000000E+00 0.  1.
         21    1    1    2  503  501 -0.18667734551E+02  0.21768884064E+02  0.29072464390E+02  0.40835974488E+02  0.00000000000E+00 0.  1.
</event>
<event>
 4    1  0.2134315E+005  0.2914657E+02  0.7546771E-02  0.1427160E+00
          2   -1    0    0  502    0  0.00000000000E+00  0.00000000000E+00  0.73363478853E+02  0.73363478853E+02  0.00000000000E+00 0. -1.
         21   -1    0    0  503  502 -0.00000000000E+00 -0.00000000000E+00 -0.14805977465E+03  0.14805977465E+03  0.00000000000E+00 0. -1.
          2    1    1    2  501    0 -0.23701140615E+02 -0.16964037677E+02  0.68946014007E+02  0.74853693885E+02  0.00000000000E+00 0. -1.
         21    1    1    2  503  501  0.23701140615E+02  0.16964037677E+02 -0.14364230980E+03  0.14656955961E+03  0.00000000000E+00 0. -1.
</event>
<event>
 4    1  0.2134315E+005  0.2125876E+02  0.7546771E-02  0.1515602E+00
          2   -1    0    0  503    0  0.00000000000E+00  0.00000000000E+00  0.42963112258E+01  0.42963112258E+01  0.00000000000E+00 0. -1.
         21   -1    0    0  501  502 -0.00000000000E+00 -0.00000000000E+00 -0.10519660795E+03  0.10519660795E+03  0.00000000000E+00 0. -1.
          2    1    1    2  501    0  0.43925372520E+01  0.20800008414E+02 -0.50837574524E+02  0.55103481895E+02  0.00000000000E+00 0. -1.
         21    1    1    2  503  502 -0.43925372520E+01 -0.20800008414E+02 -0.50062722197E+02  0.54389437277E+02  0.00000000000E+00 0. -1.
</event>
<event>
 4    1  0.2134315E+005  0.2040500E+02  0.7546771E-02  0.1527932E+00
          2   -1    0    0  503    0  0.00000000000E+00  0.00000000000E+00  0.14327562339E+04  0.14327562339E+04  0.00000000000E+00 0. -1.
         21   -1    0    0  501  502 -0.00000000000E+00 -0.00000000000E+00 -0.29252720338E+00  0.29252720338E+00  0.00000000000E+00 0.  1.
          2    1    1    2  501    0  0.30782362962E+01  0.20171475126E+02  0.77433761037E+03  0.77460641541E+03  0.00000000000E+00 0. -1.
         21    1    1    2  503  502 -0.30782362962E+01 -0.20171475126E+02  0.65812609635E+03  0.65844234573E+03  0.00000000000E+00 0.  1.
</event>
<event>
 4    1  0.2134315E+005  0.2674979E+02  0.7546771E-02  0.1450138E+00
          2   -1    0    0  502    0  0.00000000000E+00  0.00000000000E+00  0.15440411620E+03  0.15440411620E+03  0.00000000000E+00 0. -1.
         21   -1    0    0  503  502 -0.00000000000E+00 -0.00000000000E+00 -0.11197376343E+02  0.11197376343E+02  0.00000000000E+00 0. -1.
          2    1    1    2  501    0  0.77770777461E+01 -0.25594301484E+02  0.13499481520E+03  0.13761958923E+03  0.00000000000E+00 0. -1.
         21    1    1    2  503  501 -0.77770777461E+01  0.25594301484E+02  0.82119246518E+01  0.27981903317E+02  0.00000000000E+00 0. -1.
</event>
<event>
 4    1  0.2134315E+005  0.2561237E+02  0.7546771E-02  0.1462068E+00
          2   -1    0    0  503    0  0.00000000000E+00  0.00000000000E+00  0.11140556747E+04  0.11140556747E+04  0.00000000000E+00 0. -1.
         21   -1    0    0  501  502 -0.00000000000E+00 -0.00000000000E+00 -0.37617657144E+01  0.37617657144E+01  0.00000000000E+00 0. -1.
          2    1    1    2  501    0 -0.11146881941E+01 -0.25588106435E+02  0.10684518249E+04  0.10687587641E+04  0.00000000000E+00 0. -1.
         21    1    1    2  503  502  0.11146881941E+01  0.25588106435E+02  0.41842084097E+02  0.49058676320E+02  0.00000000000E+00 0. -1.
</event>
<event>
 4    1  0.2134315E+005  0.3799229E+02  0.7546771E-02  0.1360670E+00
          2   -1    0    0  503    0  0.00000000000E+00  0.00000000000E+00  0.84543567439E+02  0.84543567439E+02  0.00000000000E+00 0.  1.
         21   -1    0    0  501  502 -0.00000000000E+00 -0.00000000000E+00 -0.17337541931E+02  0.17337541931E+02  0.00000000000E+00 0.  1.
          2    1    1    2  501    0 -0.15125430066E+00 -0.37991992498E+02  0.39895137319E+02  0.55091164024E+02  0.00000000000E+00 0.  1.
         21    1    1    2  503  502  0.15125430066E+00  0.37991992498E+02  0.27310888189E+02  0.46789945346E+02  0.00000000000E+00 0.  1.
</event>
<event>
 4    1  0.2134315E+005  0.2135723E+02  0.7546771E-02  0.1514225E+00
          2   -1    0    0  503    0  0.00000000000E+00  0.00000000000E+00  0.14556650498E+04  0.14556650498E+04  0.00000000000E+00 0.  1.
         21   -1    0    0  501  502 -0.00000000000E+00 -0.00000000000E+00 -0.29335517931E+01  0.29335517931E+01  0.00000000000E+00 0.  1.
          2    1    1    2  501    0 -0.12192642752E+02 -0.17534840594E+02  0.14156151075E+04  0.14157762054E+04  0.00000000000E+00 0.  1.
         21    1    1    2  503  502  0.12192642752E+02  0.17534840594E+02  0.37116390490E+02  0.42822396184E+02  0.00000000000E+00 0.  1.
</event>
<event>
 4    1  0.2134315E+005  0.4620292E+02  0.7546771E-02  0.1315532E+00
          2   -1    0    0  503    0  0.00000000000E+00  0.00000000000E+00  0.29873588827E+04  0.29873588827E+04  0.00000000000E+00 0.  1.
         21   -1    0    0  501  502 -0.00000000000E+00 -0.00000000000E+00 -0.16618353126E+01  0.16618353126E+01  0.00000000000E+00 0.  1.
          2    1    1    2  501    0 -0.26630903932E+02  0.37755853080E+02  0.26211840575E+04  0.26215912291E+04  0.00000000000E+00 0.  1.
         21    1    1    2  503  502  0.26630903932E+02 -0.37755853080E+02  0.36451298987E+03  0.36742948884E+03  0.00000000000E+00 0.  1.
</event>
<event>
 4    1  0.2134315E+005  0.2923303E+02  0.7546771E-02  0.1426381E+00
          2   -1    0    0  503    0  0.00000000000E+00  0.00000000000E+00  0.24426326496E+04  0.24426326496E+04  0.00000000000E+00 0. -1.
         21   -1    0    0  501  502 -0.00000000000E+00 -0.00000000000E+00 -0.64382188281E+00  0.64382188281E+00  0.00000000000E+00 0.  1.
          2    1    1    2  501    0 -0.24980283917E+02 -0.15184048505E+02  0.20464774389E+04  0.20466862187E+04  0.00000000000E+00 0. -1.
         21    1    1    2  503  502  0.24980283917E+02  0.15184048505E+02  0.39551138881E+03  0.39659025277E+03  0.00000000000E+00 0.  1.
</event>
<event>
 4    1  0.2134315E+005  0.3643522E+02  0.7546771E-02  0.1370744E+00
          2   -1    0    0  503    0  0.00000000000E+00  0.00000000000E+00  0.17151385330E+04  0.17151385330E+04  0.00000000000E+00 0. -1.
         21   -1    0    0  501  502 -0.00000000000E+00 -0.00000000000E+00 -0.18681872740E+03  0.18681872740E+03  0.00000000000E+00 0. -1.
          2    1    1    2  501    0 -0.80938250834E+01  0.35524851109E+02  0.17131664989E+04  0.17135539029E+04  0.00000000000E+00 0. -1.
         21    1    1    2  503  502  0.80938250834E+01 -0.35524851109E+02 -0.18484669338E+03  0.18840335746E+03  0.00000000000E+00 0. -1.
</event>
<event>
 4    1  0.2134315E+005  0.2329410E+02  0.7546771E-02  0.1488838E+00
          2   -1    0    0  503    0  0.00000000000E+00  0.00000000000E+00  0.10527943658E+04  0.10527943658E+04  0.00000000000E+00 0.  1.
         21   -1    0    0  501  502 -0.00000000000E+00 -0.00000000000E+00 -0.22081954560E+01  0.22081954560E+01  0.00000000000E+00 0.  1.
          2    1    1    2  501    0  0.15422548473E+02  0.17457375252E+02  0.98714891253E+03  0.98742371374E+03  0.00000000000E+00 0.  1.
         21    1    1    2  503  502 -0.15422548473E+02 -0.17457375252E+02  0.63437257794E+02  0.67578847493E+02  0.00000000000E+00 0.  1.
</event>
<event>
 4    1  0.2134315E+005  0.2276040E+02  0.7546771E-02  0.1495529E+00
          2   -1    0    0  503    0  0.00000000000E+00  0.00000000000E+00  0.54807138524E+03  0.54807138524E+03  0.00000000000E+00 0.  1.
         21   -1    0    0  501  502 -0.00000000000E+00 -0.00000000000E+00 -0.99777142266E+01  0.99777142266E+01  0.00000000000E+00 0. -1.
          2    1    1    2  501    0 -0.18751584746E+02  0.12900145317E+02  0.53452650831E+03  0.53501086322E+03  0.00000000000E+00 0.  1.
         21    1    1    2  503  502  0.18751584746E+02 -0.12900145317E+02  0.35671627080E+01  0.23038236249E+02  0.00000000000E+00 0. -1.
</event>
<event>
 4    1  0.2134315E+005  0.3845469E+02  0.7546771E-02  0.1357787E+00
          2   -1    0    0  502    0  0.00000000000E+00  0.00000000000E+00  0.53961390316E+03  0.53961390316E+03  0.00000000000E+00 0.  1.
         21   -1    0    0  503  502 -0.00000000000E+00 -0.00000000000E+00 -0.41346700646E+01  0.41346700646E+01  0.00000000000E+00 0.  1.
          2    1    1    2  501    0  0.38431433323E+02  0.13372925964E+01  0.42561687460E+03  0.42735054389E+03  0.00000000000E+00 0.  1.
         21    1    1    2  503  501 -0.38431433323E+02 -0.13372925964E+01  0.10986235849E+03  0.11639802933E+03  0.00000000000E+00 0.  1.
</event>
<event>
 4    1  0.2134315E+005  0.2239053E+02  0.7546771E-02  0.1500296E+00
          2   -1    0    0  503    0  0.00000000000E+00  0.00000000000E+00  0.13680218496E+04  0.13680218496E+04  0.00000000000E+00 0. -1.
         21   -1    0    0  501  502 -0.00000000000E+00 -0.00000000000E+00 -0.26161515903E+01  0.26161515903E+01  0.00000000000E+00 0.  1.
          2    1    1    2  501    0 -0.12995183704E+02  0.18233511967E+02  0.13182123883E+04  0.13184025320E+04  0.00000000000E+00 0. -1.
         21    1    1    2  503  502  0.12995183704E+02 -0.18233511967E+02  0.47193309671E+02  0.52235469136E+02  0.00000000000E+00 0.  1.
</event>
<event>
 4    1  0.2134315E+005  0.2007268E+02  0.7546771E-02  0.1532928E+00
          2   -1    0    0  503    0  0.00000000000E+00  0.00000000000E+00  0.36083508486E+02  0.36083508486E+02  0.00000000000E+00 0.  1.
         21   -1    0    0  501  502 -0.00000000000E+00 -0.00000000000E+00 -0.35720822437E+03  0.35720822437E+03  0.00000000000E+00 0.  1.
          2    1    1    2  501    0  0.52197120838E+01  0.19382134815E+02  0.32985591022E+02  0.38612973976E+02  0.00000000000E+00 0.  1.
         21    1    1    2  503  502 -0.52197120838E+01 -0.19382134815E+02 -0.35411030691E+03  0.35467875888E+03  0.00000000000E+00 0.  1.
</event>
<event>
 4    1  0.2134315E+005  0.2648952E+02  0.7546771E-02  0.1452804E+00
          2   -1    0    0  503    0  0.00000000000E+00  0.00000000000E+00  0.17806373404E+02  0.17806373404E+02  0.00000000000E+00 0. -1.
         21   -1    0    0  501  502 -0.00000000000E+00 -0.00000000000E+00 -0.47674408383E+02  0.47674408383E+02  0.00000000000E+00 0.  1.
          2    1    1    2  501    0  0.23629379843E+02 -0.11972756113E+02 -0.12998764681E+01  0.26521390603E+02  0.00000000000E+00 0. -1.
         21    1    1    2  503  502 -0.23629379843E+02  0.11972756113E+02 -0.28568158511E+02  0.38959391184E+02  0.00000000000E+00 0.  1.
</event>
<event>
 4    1  0.2134315E+005  0.2427161E+02  0.7546771E-02  0.1477119E+00
          2   -1    0    0  503    0  0.00000000000E+00  0.00000000000E+00  0.11877157871E+03  0.11877157871E+03  0.00000000000E+00 0.  1.
         21   -1    0    0  501  502 -0.00000000000E+00 -0.00000000000E+00 -0.20294972200E+02  0.20294972200E+02  0.00000000000E+00 0.  1.
          2    1    1    2  501    0 -0.20778278271E+02  0.12544892628E+02  0.10968039133E+03  0.11233387477E+03  0.00000000000E+00 0.  1.
         21    1    1    2  503  502  0.20778278271E+02 -0.12544892628E+02 -0.11203784824E+02  0.26732676135E+02  0.00000000000E+00 0.  1.
</event>
<event>
 4    1  0.2134315E+005  0.8139155E+02  0.7546771E-02  0.1200653E+00
          2   -1    0    0  503    0  0.00000000000E+00  0.00000000000E+00  0.16326313854E+04  0.16326313854E+04  0.00000000000E+00 0. -1.
         21   -1    0    0  501  502 -0.00000000000E+00 -0.00000000000E+00 -0.41711841975E+01  0.41711841975E+01  0.00000000000E+00 0. -1.
          2    1    1    2  501    0  0.81384127963E+02  0.10991865793E+01  0.94927334809E+03  0.95275625104E+03  0.00000000000E+00 0. -1.
         21    1    1    2  503  502 -0.81384127963E+02 -0.10991865793E+01  0.67918685308E+03  0.68404631853E+03  0.00000000000E+00 0. -1.
</event>
<event>
 4    1  0.2134315E+005  0.2087338E+02  0.7546771E-02  0.1521080E+00
          2   -1    0    0  503    0  0.00000000000E+00  0.00000000000E+00  0.23184887278E+02  0.23184887278E+02  0.00000000000E+00 0. -1.
         21   -1    0    0  501  502 -0.00000000000E+00 -0.00000000000E+00 -0.25091242855E+02  0.25091242855E+02  0.00000000000E+00 0. -1.
          2    1    1    2  501    0 -0.55846019784E+00  0.20865912486E+02  0.11140933899E+02  0.23660485832E+02  0.00000000000E+00 0. -1.
         21    1    1    2  503  502  0.55846019784E+00 -0.20865912486E+02 -0.13047289476E+02  0.24615644301E+02  0.00000000000E+00 0. -1.
</event>
<event>
 4    1  0.2134315E+005  0.2216023E+02  0.7546771E-02  0.1503321E+00
          2   -1    0    0  502    0  0.00000000000E+00  0.00000000000E+00  0.24325129422E+02  0.24325129422E+02  0.00000000000E+00 0.  1.
         21   -1    0    0  503  502 -0.00000000000E+00 -0.00000000000E+00 -0.39794222586E+02  0.39794222586E+02  0.00000000000E+00 0. -1.
          2    1    1    2  501    0 -0.66043383158E+01 -0.21153219153E+02  0.14768740785E+02  0.26630652818E+02  0.00000000000E+00 0.  1.
         21    1    1    2  503  501  0.66043383158E+01  0.21153219153E+02 -0.30237833949E+02  0.37488699191E+02  0.00000000000E+00 0. -1.
</event>
<event>
 4    1  0.2134315E+005  0.3131301E+02  0.7546771E-02  0.1408519E+00
          2   -1    0    0  503    0  0.00000000000E+00  0.00000000000E+00  0.14366978512E+04  0.14366978512E+04  0.00000000000E+00 0. -1.
         21   -1    0    0  501  502 -0.00000000000E+00 -0.00000000000E+00 -0.70859001026E+01  0.70859001026E+01  0.00000000000E+00 0. -1.
          2    1    1    2  501    0  0.29865943131E+02  0.94090508801E+01  0.14010537359E+04  0.14014036091E+04  0.00000000000E+00 0. -1.
         21    1    1    2  503  502 -0.29865943131E+02 -0.94090508801E+01  0.28558215274E+02  0.42380142251E+02  0.00000000000E+00 0. -1.
</event>
<event>
 4    1  0.2134315E+005  0.2727847E+02  0.7546771E-02  0.1444831E+00
          2   -1    0    0  503    0  0.00000000000E+00  0.00000000000E+00  0.23926532020E+02  0.23926532020E+02  0.00000000000E+00 0. -1.
         21   -1    0    0  501  502 -0.00000000000E+00 -0.00000000000E+00 -0.38936986300E+02  0.38936986300E+02  0.00000000000E+00 0. -1.
          2    1    1    2  501    0 -0.22601539796E+02  0.15273683701E+02  0.65961723507E+01  0.28064648665E+02  0.00000000000E+00 0. -1.
         21    1    1    2  503  502  0.22601539796E+02 -0.15273683701E+02 -0.21606626630E+02  0.34798869656E+02  0.00000000000E+00 0. -1.
</event>
<event>
 4    1  0.2134315E+005  0.2092187E+02  0.7546771E-02  0.1520383E+00
          2   -1    0    0  503    0  0.00000000000E+00  0.00000000000E+00  0.10720447088E+03  0.10720447088E+03  0.00000000000E+00 0.  1.
         21   -1    0    0  501  502 -0.00000000000E+00 -0.00000000000E+00 -0.47880038973E+01  0.47880038973E+01  0.00000000000E+00 0. -1.
          2    1    1    2  501    0  0.15187304148E+02  0.14389947247E+02  0.72694041282E+02  0.75644883680E+02  0.00000000000E+00 0.  1.
         21    1    1    2  503  502 -0.15187304148E+02 -0.14389947247E+02  0.29722425702E+02  0.36347591099E+02  0.00000000000E+00 0. -1.
</event>
<event>
 4    1  0.2134315E+005  0.3200502E+02  0.7546771E-02  0.1402937E+00
          2   -1    0    0  502    0  0.00000000000E+00  0.00000000000E+00  0.62981558816E+01  0.62981558816E+01  0.00000000000E+00 0. -1.
         21   -1    0    0  503  502 -0.00000000000E+00 -0.00000000000E+00 -0.19447803366E+03  0.19447803366E+03  0.00000000000E+00 0. -1.
          2    1    1    2  501    0 -0.31789753290E+02  0.37057986701E+01 -0.53470711731E+02  0.62317239757E+02  0.00000000000E+00 0. -1.
         21    1    1    2  503  501  0.31789753290E+02 -0.37057986701E+01 -0.13470916605E+03  0.13845894978E+03  0.00000000000E+00 0. -1.
</event>
<event>
 4    1  0.2134315E+005  0.2197154E+02  0.7546771E-02  0.1505833E+00
          2   -1    0    0  502    0  0.00000000000E+00  0.00000000000E+00  0.15612735816E+04  0.15612735816E+04  0.00000000000E+00 0.  1.
         21   -1    0    0  503  502 -0.00000000000E+00 -0.00000000000E+00 -0.89669369878E+01  0.89669369878E+01  0.00000000000E+00 0. -1.
          2    1    1    2  501    0  0.18741720514E+02  0.11467187296E+02  0.15476184085E+04  0.15477743656E+04  0.00000000000E+00 0.  1.
         21    1    1    2  503  501 -0.18741720514E+02 -0.11467187296E+02  0.46882361109E+01  0.22466152989E+02  0.00000000000E+00 0. -1.
</event>
<event>
 4    1  0.2134315E+005  0.2435726E+02  0.7546771E-02  0.1476124E+00
          2   -1    0    0  502    0  0.00000000000E+00  0.00000000000E+00  0.91158620154E+03  0.91158620154E+03  0.00000000000E+00 0. -1.
         21   -1    0    0  503  502 -0.00000000000E+00 -0.00000000000E+00 -0.84373909447E+02  0.84373909447E+02  0.00000000000E+00 0.  1.
          2    1    1    2  501    0 -0.23605108171E+02 -0.60062419142E+01  0.90966190151E+03  0.90998794011E+03  0.00000000000E+00 0. -1.
         21    1    1    2  503  501  0.23605108171E+02  0.60062419142E+01 -0.82449609416E+02  0.85972170884E+02  0.00000000000E+00 0.  1.
</event>
<event>
 4    1  0.2134315E+005  0.3093375E+02  0.7546771E-02  0.1411652E+00
          2   -1    0    0  503    0  0.00000000000E+00  0.00000000000E+00  0.36000046189E+02  0.36000046189E+02  0.00000000000E+00 0. -1.
         21   -1    0    0  501  502 -0.00000000000E+00 -0.00000000000E+00 -0.27616866948E+02  0.27616866948E+02  0.00000000000E+00 0. -1.
          2    1    1    2  501    0  0.19859158778E+02  0.23717309542E+02  0.10353641809E+02  0.32620466857E+02  0.00000000000E+00 0. -1.
         21    1    1    2  503  502 -0.19859158778E+02 -0.23717309542E+02 -0.19704625675E+01  0.30996446280E+02  0.00000000000E+00 0. -1.
</event>
<event>
 4    1  0.2134315E+005  0.2187075E+02  0.7546771E-02  0.1507187E+00
          2   -1    0    0  503    0  0.00000000000E+00  0.00000000000E+00  0.15236261017E+04  0.15236261017E+04  0.00000000000E+00 0. -1.
         21   -1    0    0  501  502 -0.00000000000E+00 -0.00000000000E+00 -0.78856153331E+00  0.78856153331E+00  0.00000000000E+00 0. -1.
          2    1    1    2  501    0  0.21803588497E+02  0.17126578477E+01  0.13527465733E+04  0.13529233612E+04  0.00000000000E+00 0. -1.
         21    1    1    2  503  502 -0.21803588497E+02 -0.17126578477E+01  0.17009096689E+03  0.17149130207E+03  0.00000000000E+00 0. -1.
</event>
<event>
 4    1  0.2134315E+005  0.2356832E+02  0.7546771E-02  0.1485482E+00
          2   -1    0    0  503    0  0.00000000000E+00  0.00000000000E+00  0.88962243818E+03  0.88962243818E+03  0.00000000000E+00 0.  1.
         21   -1    0    0  501  502 -0.00000000000E+00 -0.00000000000E+00 -0.21616099074E+01  0.21616099074E+01  0.00000000000E+00 0.  1.
          2    1    1    2  501    0 -0.44904582161E+01 -0.23136580228E+02  0.81974956377E+03  0.82008829577E+03  0.00000000000E+00 0.  1.
         21    1    1    2  503  502  0.44904582161E+01  0.23136580228E+02  0.67711264500E+02  0.71695752314E+02  0.00000000000E+00 0.  1.
</event>
<event>
 4    1  0.2134315E+005  0.3665023E+02  0.7546771E-02  0.1369318E+00
          2   -1    0    0  503    0  0.00000000000E+00  0.00000000000E+00  0.36431903980E+01  0.36431903980E+01  0.00000000000E+00 0.  1.
         21   -1    0    0  501  502 -0.00000000000E+00 -0.00000000000E+00 -0.53137218221E+03  0.53137218221E+03  0.00000000000E+00 0.  1.
          2    1    1    2  501    0 -0.35091496904E+02 -0.10574790335E+02 -0.11585304387E+03  0.12151200402E+03  0.00000000000E+00 0.  1.
         21    1    1    2  503  502  0.35091496904E+02  0.10574790335E+02 -0.41187594794E+03  0.41350336859E+03  0.00000000000E+00 0.  1.
</event>
<event>
 4    1  0.2134315E+005  0.2466752E+02  0.7546771E-02  0.1472557E+00
          2   -1    0    0  502    0  0.00000000000E+00  0.00000000000E+00  0.15901986042E+04  0.15901986042E+04  0.00000000000E+00 0.  1.
         21   -1    0    0  503  502 -0.00000000000E+00 -0.00000000000E+00 -0.15787939651E+01  0.15787939651E+01  0.00000000000E+00 0. -1.
          2    1    1    2  501    0  0.22373143406E+02 -0.10388876743E+02  0.14870681452E+04  0.14872727237E+04  0.00000000000E+00 0.  1.
         21    1    1    2  503  501 -0.22373143406E+02  0.10388876743E+02  0.10155166504E+03  0.10450467443E+03  0.00000000000E+00 0. -1.
</event>
<event>
 4    1  0.2134315E+005  0.2487282E+02  0.7546771E-02  0.1470231E+00
          2   -1    0    0  503    0  0.00000000000E+00  0.00000000000E+00  0.15782408218E+03  0.15782408218E+03  0.00000000000E+00 0. -1.
         21   -1    0    0  501  502 -0.00000000000E+00 -0.00000000000E+00 -0.73796791151E+01  0.73796791151E+01  0.00000000000E+00 0.  1.
          2    1    1    2  501    0 -0.21669091335E+02 -0.12210961177E+02  0.13178024786E+03  0.13410701256E+03  0.00000000000E+00 0. -1.
         21    1    1    2  503  502  0.21669091335E+02  0.12210961177E+02  0.18664155200E+02  0.31096748729E+02  0.00000000000E+00 0.  1.
</event>
<event>
 4    1  0.2134315E+005  0.2278631E+02  0.7546771E-02  0.1495199E+00
          2   -1    0    0  502    0  0.00000000000E+00  0.00000000000E+00  0.19935307244E+03  0.19935307244E+03  0.00000000000E+00 0.  1.
         21   -1    0    0  503  502 -0.00000000000E+00 -0.00000000000E+00 -0.71353735741E+01  0.71353735741E+01  0.00000000000E+00 0.  1.
          2    1    1    2  501    0  0.10670253695E+01 -0.22761312999E+02  0.17838011417E+03  0.17982958890E+03  0.00000000000E+00 0.  1.
         21    1    1    2  503  501 -0.10670253695E+01  0.22761312999E+02  0.13837584703E+02  0.26658857121E+02  0.00000000000E+00 0.  1.
</event>
<event>
 4    1  0.2134315E+005  0.3358507E+02  0.7546771E-02  0.1390793E+00
          2   -1    0    0  503    0  0.00000000000E+00  0.00000000000E+00  0.24451801056E+03  0.24451801056E+03  0.00000000000E+00 0. -1.
         21   -1    0    0  501  502 -0.00000000000E+00 -0.00000000000E+00 -0.50782337369E+01  0.50782337369E+01  0.00000000000E+00 0. -1.
          2    1    1    2  501    0  0.31490298600E+02  0.11675523277E+02  0.15749419778E+03  0.16103533490E+03  0.00000000000E+00 0. -1.
         21    1    1    2  503  502 -0.31490298600E+02 -0.11675523277E+02  0.81945579044E+02  0.88560909404E+02  0.00000000000E+00 0. -1.
</event>
<event>
 4    1  0.2134315E+005  0.2315932E+02  0.7546771E-02  0.1490507E+00
          2   -1    0    0  502    0  0.00000000000E+00  0.00000000000E+00  0.11298764775E+04  0.11298764775E+04  0.00000000000E+00 0. -1.
         21   -1    0    0  503  502 -0.00000000000E+00 -0.00000000000E+00 -0.82848860479E+01  0.82848860479E+01  0.00000000000E+00 0.  1.
          2    1    1    2  501    0 -0.19942122368E+02 -0.11775652168E+02  0.11133326073E+04  0.11135734590E+04  0.00000000000E+00 0. -1.
         21    1    1    2  503  501  0.19942122368E+02  0.11775652168E+02  0.82589841606E+01  0.24587904504E+02  0.00000000000E+00 0.  1.
</event>
<event>
 4    1  0.2134315E+005  0.2091266E+02  0.7546771E-02  0.1520515E+00
          2   -1    0    0  503    0  0.00000000000E+00  0.00000000000E+00  0.68002636544E+02  0.68002636544E+02  0.00000000000E+00 0. -1.
         21   -1    0    0  501  502 -0.00000000000E+00 -0.00000000000E+00 -0.85593210291E+01  0.85593210291E+01  0.00000000000E+00 0. -1.
          2    1    1    2  501    0 -0.20882299573E+02 -0.11264531528E+01  0.48809655412E+02  0.53101052660E+02  0.00000000000E+00 0. -1.
         21    1    1    2  503  502  0.20882299573E+02  0.11264531528E+01  0.10633660103E+02  0.23460904913E+02  0.00000000000E+00 0. -1.
</event>
<event>
 4    1  0.2134315E+005  0.2177598E+02  0.7546771E-02  0.1508468E+00
          2   -1    0    0  503    0  0.00000000000E+00  0.00000000000E+00  0.11196561003E+04  0.11196561003E+04  0.00000000000E+00 0. -1.
         21   -1    0    0  501  502 -0.00000000000E+00 -0.00000000000E+00 -0.84375042875E+01  0.84375042875E+01  0.00000000000E+00 0. -1.
          2    1    1    2  501    0 -0.11301970837E+02  0.18613406743E+02  0.11053178093E+04  0.11055322939E+04  0.00000000000E+00 0. -1.
         21    1    1    2  503  502  0.11301970837E+02 -0.18613406743E+02  0.59007867858E+01  0.22561310691E+02  0.00000000000E+00 0. -1.
</event>
<event>
 4    1  0.2134315E+005  0.2416960E+02  0.7546771E-02  0.1478311E+00
          2   -1    0    0  502    0  0.00000000000E+00  0.00000000000E+00  0.24817289458E+02  0.24817289458E+02  0.00000000000E+00 0. -1.
         21   -1    0    0  503  502 -0.00000000000E+00 -0.00000000000E+00 -0.26004877644E+03  0.26004877644E+03  0.00000000000E+00 0. -1.
          2    1    1    2  501    0  0.16743319229E+02 -0.17430740584E+02  0.18218115264E+02  0.30266634763E+02  0.00000000000E+00 0. -1.
         21    1    1    2  503  501 -0.16743319229E+02  0.17430740584E+02 -0.25344960225E+03  0.25459943114E+03  0.00000000000E+00 0. -1.
</event>
<event>
 4    1  0.2134315E+005  0.5604112E+02  0.7546771E-02  0.1273911E+00
          2   -1    0    0  503    0  0.00000000000E+00  0.00000000000E+00  0.13609468507E+03  0.13609468507E+03  0.00000000000E+00 0.  1.
         21   -1    0    0  501  502 -0.00000000000E+00 -0.00000000000E+00 -0.60483973498E+02  0.60483973498E+02  0.00000000000E+00 0. -1.
          2    1    1    2  501    0  0.54372943713E+02 -0.13571683036E+02  0.11510270662E+03  0.12802046969E+03  0.00000000000E+00 0.  1.
         21    1    1    2  503  502 -0.54372943713E+02  0.13571683036E+02 -0.39491995052E+02  0.68558188874E+02  0.00000000000E+00 0. -1.
</event>
<event>
 4    1  0.2134315E+005  0.2550669E+02  0.7546771E-02  0.1463214E+00
          2   -1    0    0  502    0  0.00000000000E+00  0.00000000000E+00  0.21624597333E+02  0.21624597333E+02  0.00000000000E+00 0.  1.
         21   -1    0    0  503  502 -0.00000000000E+00 -0.00000000000E+00 -0.70465322577E+02  0.70465322577E+02  0.00000000000E+00 0.  1.
          2    1    1    2  501    0  0.17442901493E+02 -0.18610119748E+02  0.10435469079E+02  0.27558853105E+02  0.00000000000E+00 0.  1.
         21    1    1    2  503  501 -0.17442901493E+02  0.18610119748E+02 -0.59276194323E+02  0.64531066805E+02  0.00000000000E+00 0.  1.
</event>
<event>
 4    1  0.2134315E+005  0.2117072E+02  0.7546771E-02  0.1516841E+00
          2   -1    0    0  502    0  0.00000000000E+00  0.00000000000E+00  0.46007839509E+03  0.46007839509E+03  0.00000000000E+00 0.  1.
         21   -1    0    0  503  502 -0.00000000000E+00 -0.00000000000E+00 -0.23950705945E+02  0.23950705945E+02  0.00000000000E+00 0.  1.
          2    1    1    2  501    0 -0.15332745898E+02 -0.14598163752E+02  0.45510540305E+03  0.45559754978E+03  0.00000000000E+00 0.  1.
         21    1    1    2  503  501  0.15332745898E+02  0.14598163752E+02 -0.18977713904E+02  0.28431551255E+02  0.00000000000E+00 0.  1.
</event>
<event>
 4    1  0.2134315E+005  0.2609336E+02  0.7546771E-02  0.1456934E+00
          2   -1    0    0  503    0  0.00000000000E+00  0.00000000000E+00  0.29386581633E+02  0.29386581633E+02  0.00000000000E+00 0. -1.
         21   -1    0    0  501  502 -0.00000000000E+00 -0.00000000000E+00 -0.14888992311E+03  0.14888992311E+03  0.00000000000E+00 0. -1.
          2    1    1    2  501    0  0.17564004608E+02 -0.19296875177E+02  0.22157945993E+02  0.34232122635E+02  0.00000000000E+00 0. -1.
         21    1    1    2  503  502 -0.17564004608E+02  0.19296875177E+02 -0.14166128747E+03  0.14404438211E+03  0.00000000000E+00 0. -1.
</event>
<event>
 4    1  0.2134315E+005  0.2541040E+02  0.7546771E-02  0.1464264E+00
          2   -1    0    0  503    0  0.00000000000E+00  0.00000000000E+00  0.47638270987E+02  0.47638270987E+02  0.00000000000E+00 0. -1.
         21   -1    0    0  501  502 -0.00000000000E+00 -0.00000000000E+00 -0.13698264030E+02  0.13698264030E+02  0.00000000000E+00 0. -1.
          2    1    1    2  501    0 -0.19808667966E+02 -0.15915554504E+02  0.20117495769E+02  0.32409903390E+02  0.00000000000E+00 0. -1.
         21    1    1    2  503  502  0.19808667966E+02  0.15915554504E+02  0.13822511188E+02  0.28926631627E+02  0.00000000000E+00 0. -1.
</event>
<event>
 4    1  0.2231266E+005  0.2362263E+02  0.7546771E-02  0.1484824E+00
          2   -1    0    0  502    0  0.00000000000E+00  0.00000000000E+00  0.11032880487E+04  0.11032880487E+04  0.00000000000E+00 0. -1.
         21   -1    0    0  503  502 -0.00000000000E+00 -0.00000000000E+00 -0.50944117126E+02  0.50944117126E+02  0.00000000000E+00 0. -1.
          2    1    1    2  501    0  0.95922604662E+01  0.21587430022E+02  0.11004160207E+04  0.11006695450E+04  0.00000000000E+00 0. -1.
         21    1    1    2  503  501 -0.95922604662E+01 -0.21587430022E+02 -0.48072089150E+02  0.53562620839E+02  0.00000000000E+00 0. -1.
</event>
<event>
 4    1  0.2134315E+005  0.2793519E+02  0.7546771E-02  0.1438434E+00
          2   -1    0    0  502    0  0.00000000000E+00  0.00000000000E+00  0.61139300328E+03  0.61139300328E+03  0.00000000000E+00 0. -1.
         21   -1    0    0  503  502 -0.00000000000E+00 -0.00000000000E+00 -0.76906703836E+01  0.76906703836E+01  0.00000000000E+00 0. -1.
          2    1    1    2  501    0 -0.27466308125E+02  0.50967566657E+01  0.58454170708E+03  0.58520883651E+03  0.00000000000E+00 0. -1.
         21    1    1    2  503  501  0.27466308125E+02 -0.50967566657E+01  0.19160625812E+02  0.33874837152E+02  0.00000000000E+00 0. -1.
</event>
<event>
 4    1  0.2134315E+005  0.2448403E+02  0.7546771E-02  0.1474659E+00
          2   -1    0    0  502    0  0.00000000000E+00  0.00000000000E+00  0.14750669841E+04  0.14750669841E+04  0.00000000000E+00 0.  1.
         21   -1    0    0  503  502 -0.00000000000E+00 -0.00000000000E+00 -0.22506278749E+02  0.22506278749E+02  0.00000000000E+00 0. -1.
          2    1    1    2  501    0 -0.10419262952E+02 -0.22156418880E+02  0.14682756897E+04  0.14684798157E+04  0.00000000000E+00 0.  1.
         21    1    1    2  503  501  0.10419262952E+02  0.22156418880E+02 -0.15714984351E+02  0.29093447222E+02  0.00000000000E+00 0. -1.
</event>
<event>
 4    1  0.2134315E+005  0.2856572E+02  0.7546771E-02  0.1432484E+00
          2   -1    0    0  502    0  0.00000000000E+00  0.00000000000E+00  0.11560618174E+04  0.11560618174E+04  0.00000000000E+00 0. -1.
         21   -1    0    0  503  502 -0.00000000000E+00 -0.00000000000E+00 -0.15181363299E+02  0.15181363299E+02  0.00000000000E+00 0. -1.
          2    1    1    2  501    0  0.12050145648E+02 -0.25899694884E+02  0.11422857925E+04  0.11426429153E+04  0.00000000000E+00 0. -1.
         21    1    1    2  503  501 -0.12050145648E+02  0.25899694884E+02 -0.14053383646E+01  0.28600265404E+02  0.00000000000E+00 0. -1.
</event>
<event>
 4    1  0.2134315E+005  0.2311714E+02  0.7546771E-02  0.1491032E+00
          2   -1    0    0  503    0  0.00000000000E+00  0.00000000000E+00  0.37134199922E+02  0.37134199922E+02  0.00000000000E+00 0.  1.
         21   -1    0    0  501  502 -0.00000000000E+00 -0.00000000000E+00 -0.15505488194E+03  0.15505488194E+03  0.00000000000E+00 0.  1.
          2    1    1    2  501    0  0.22831604358E+02  0.36221511469E+01  0.32566217478E+02  0.39936958539E+02  0.00000000000E+00 0.  1.
         21    1    1    2  503  502 -0.22831604358E+02 -0.36221511469E+01 -0.15048689950E+03  0.15225212332E+03  0.00000000000E+00 0.  1.
</event>
<event>
 4    1  0.2134315E+005  0.2098088E+02  0.7546771E-02  0.1519538E+00
          2   -1    0    0  503    0  0.00000000000E+00  0.00000000000E+00  0.91877869522E+03  0.91877869522E+03  0.00000000000E+00 0.  1.
         21   -1    0    0  501  502 -0.00000000000E+00 -0.00000000000E+00 -0.11461396374E+02  0.11461396374E+02  0.00000000000E+00 0.  1.
          2    1    1    2  501    0  0.17374895063E+02  0.11760545394E+02  0.90895340125E+03  0.90919551420E+03  0.00000000000E+00 0.  1.
         21    1    1    2  503  502 -0.17374895063E+02 -0.11760545394E+02 -0.16361024047E+01  0.21044577389E+02  0.00000000000E+00 0.  1.
</event>
<event>
 4    1  0.2134315E+005  0.2734527E+02  0.7546771E-02  0.1444170E+00
          2   -1    0    0  502    0  0.00000000000E+00  0.00000000000E+00  0.10201688377E+04  0.10201688377E+04  0.00000000000E+00 0. -1.
         21   -1    0    0  503  502 -0.00000000000E+00 -0.00000000000E+00 -0.38972616550E+02  0.38972616550E+02  0.00000000000E+00 0. -1.
          2    1    1    2  501    0 -0.10978184296E+02  0.25044829897E+02  0.10151652272E+04  0.10155334571E+04  0.00000000000E+00 0. -1.
         21    1    1    2  503  501  0.10978184296E+02 -0.25044829897E+02 -0.33969006087E+02  0.43607997083E+02  0.00000000000E+00 0. -1.
</event>
<event>
 4    1  0.2134315E+005  0.4157524E+02  0.7546771E-02  0.1339494E+00
          2   -1    0    0  502    0  0.00000000000E+00  0.00000000000E+00  0.10662459324E+04  0.10662459324E+04  0.00000000000E+00 0. -1.
         21   -1    0    0  503  502 -0.00000000000E+00 -0.00000000000E+00 -0.14148546704E+02  0.14148546704E+02  0.00000000000E+00 0.  1.
          2    1    1    2  501    0  0.34174886902E+02 -0.23676516617E+02  0.10343574349E+04  0.10351926408E+04  0.00000000000E+00 0. -1.
         21    1    1    2  503  501 -0.34174886902E+02  0.23676516617E+02  0.17739950753E+02  0.45201838310E+02  0.00000000000E+00 0.  1.
</event>
<event>
 4    1  0.2134315E+005  0.2093997E+02  0.7546771E-02  0.1520124E+00
          2   -1    0    0  502    0  0.00000000000E+00  0.00000000000E+00  0.23479819073E+02  0.23479819073E+02  0.00000000000E+00 0. -1.
         21   -1    0    0  503  502 -0.00000000000E+00 -0.00000000000E+00 -0.22926138975E+02  0.22926138975E+02  0.00000000000E+00 0. -1.
          2    1    1    2  501    0 -0.19298999482E+02 -0.81259495298E+01  0.10268505081E+02  0.23322191865E+02  0.00000000000E+00 0. -1.
         21    1    1    2  503  501  0.19298999482E+02  0.81259495298E+01 -0.97148249834E+01  0.23083766184E+02  0.00000000000E+00 0. -1.
</event>
<event>
 4    1  0.2134315E+005  0.2538560E+02  0.7546771E-02  0.1464536E+00
          2   -1    0    0  502    0  0.00000000000E+00  0.00000000000E+00  0.19904894158E+02  0.19904894158E+02  0.00000000000E+00 0.  1.
         21   -1    0    0  503  502 -0.00000000000E+00 -0.00000000000E+00 -0.11280338898E+03  0.11280338898E+03  0.00000000000E+00 0.  1.
          2    1    1    2  501    0  0.16780608195E+02  0.19048356234E+02  0.95794591169E+01  0.27132908499E+02  0.00000000000E+00 0.  1.
         21    1    1    2  503  501 -0.16780608195E+02 -0.19048356234E+02 -0.10247795394E+03  0.10557537464E+03  0.00000000000E+00 0.  1.
</event>
<event>
 4    1  0.2134315E+005  0.2522599E+02  0.7546771E-02  0.1466291E+00
          2   -1    0    0  502    0  0.00000000000E+00  0.00000000000E+00  0.46783430955E+01  0.46783430955E+01  0.00000000000E+00 0. -1.
         21   -1    0    0  503  502 -0.00000000000E+00 -0.00000000000E+00 -0.16451570802E+03  0.16451570802E+03  0.00000000000E+00 0. -1.
          2    1    1    2  501    0  0.48886220372E+01 -0.24747762245E+02 -0.44710982173E+02  0.51336364192E+02  0.00000000000E+00 0. -1.
         21    1    1    2  503  501 -0.48886220372E+01  0.24747762245E+02 -0.11512638275E+03  0.11785768692E+03  0.00000000000E+00 0. -1.
</event>
<event>
 4    1  0.2134315E+005  0.3480020E+02  0.7546771E-02  0.1381973E+00
          2   -1    0    0  502    0  0.00000000000E+00  0.00000000000E+00  0.71995022322E+02  0.71995022322E+02  0.00000000000E+00 0. -1.
         21   -1    0    0  503  502 -0.00000000000E+00 -0.00000000000E+00 -0.68182081687E+02  0.68182081687E+02  0.00000000000E+00 0. -1.
          2    1    1    2  501    0 -0.16869452556E+02  0.30438064992E+02  0.62737828877E+02  0.71743218510E+02  0.00000000000E+00 0. -1.
         21    1    1    2  503  501  0.16869452556E+02 -0.30438064992E+02 -0.58924888243E+02  0.68433885499E+02  0.00000000000E+00 0. -1.
</event>
<event>
 4    1  0.2134315E+005  0.2126406E+02  0.7546771E-02  0.1515528E+00
          2   -1    0    0  502    0  0.00000000000E+00  0.00000000000E+00  0.37820503268E+03  0.37820503268E+03  0.00000000000E+00 0.  1.
         21   -1    0    0  503  502 -0.00000000000E+00 -0.00000000000E+00 -0.17717186617E+01  0.17717186617E+01  0.00000000000E+00 0.  1.
          2    1    1    2  501    0  0.19302996321E+02 -0.89193392449E+01  0.29656124041E+03  0.29732260189E+03  0.00000000000E+00 0.  1.
         21    1    1    2  503  501 -0.19302996321E+02  0.89193392449E+01  0.79872073604E+02  0.82654149450E+02  0.00000000000E+00 0.  1.
</event>
<event>
 4    1  0.2134315E+005  0.2034739E+02  0.7546771E-02  0.1528790E+00
          2   -1    0    0  502    0  0.00000000000E+00  0.00000000000E+00  0.84689329106E+03  0.84689329106E+03  0.00000000000E+00 0. -1.
         21   -1    0    0  503  502 -0.00000000000E+00 -0.00000000000E+00 -0.26017097625E+02  0.26017097625E+02  0.00000000000E+00 0.  1.
          2    1    1    2  501    0  0.14754806970E+01 -0.20293821359E+02  0.84277332027E+03  0.84301891176E+03  0.00000000000E+00 0. -1.
         21    1    1    2  503  501 -0.14754806970E+01  0.20293821359E+02 -0.21897126839E+02  0.29891476920E+02  0.00000000000E+00 0.  1.
</event>
<event>
 4    1  0.2134315E+005  0.3459735E+02  0.7546771E-02  0.1383416E+00
          2   -1    0    0  503    0  0.00000000000E+00  0.00000000000E+00  0.21031082972E+03  0.21031082972E+03  0.00000000000E+00 0.  1.
         21   -1    0    0  501  502 -0.00000000000E+00 -0.00000000000E+00 -0.11264119905E+02  0.11264119905E+02  0.00000000000E+00 0. -1.
          2    1    1    2  501    0 -0.34570808606E+02  0.13549426418E+01  0.17744769176E+03  0.18078899300E+03  0.00000000000E+00 0.  1.
         21    1    1    2  503  502  0.34570808606E+02 -0.13549426418E+01  0.21599018052E+02  0.40785956628E+02  0.00000000000E+00 0. -1.
</event>
<event>
 4    1  0.2134315E+005  0.3639469E+02  0.7546771E-02  0.1371015E+00
          2   -1    0    0  502    0  0.00000000000E+00  0.00000000000E+00  0.15489288503E+02  0.15489288503E+02  0.00000000000E+00 0. -1.
         21   -1    0    0  503  502 -0.00000000000E+00 -0.00000000000E+00 -0.28946603152E+03  0.28946603152E+03  0.00000000000E+00 0. -1.
          2    1    1    2  501    0 -0.12897290480E+02 -0.34032828660E+02 -0.90001850550E+01  0.37491023717E+02  0.00000000000E+00 0. -1.
         21    1    1    2  503  501  0.12897290480E+02  0.34032828660E+02 -0.26497655797E+03  0.26746429631E+03  0.00000000000E+00 0. -1.
</event>
<event>
 4    1  0.2134315E+005  0.2479581E+02  0.7546771E-02  0.1471101E+00
          2   -1    0    0  503    0  0.00000000000E+00  0.00000000000E+00  0.10698587581E+04  0.10698587581E+04  0.00000000000E+00 0.  1.
         21   -1    0    0  501  502 -0.00000000000E+00 -0.00000000000E+00 -0.60845038859E+00  0.60845038859E+00  0.00000000000E+00 0. -1.
          2    1    1    2  501    0 -0.22576704737E+02 -0.10253024668E+02  0.66071051630E+03  0.66117563359E+03  0.00000000000E+00 0.  1.
         21    1    1    2  503  502  0.22576704737E+02  0.10253024668E+02  0.40853979142E+03  0.40929157490E+03  0.00000000000E+00 0. -1.
</event>
<event>
 4    1  0.2134315E+005  0.3666927E+02  0.7546771E-02  0.1369193E+00
          2   -1    0    0  502    0  0.00000000000E+00  0.00000000000E+00  0.35606276883E+03  0.35606276883E+03  0.00000000000E+00 0. -1.
         21   -1    0    0  503  502 -0.00000000000E+00 -0.00000000000E+00 -0.19000702328E+02  0.19000702328E+02  0.00000000000E+00 0. -1.
          2    1    1    2  501    0  0.92258370217E+01  0.35489705348E+02  0.33639545283E+03  0.33838814391E+03  0.00000000000E+00 0. -1.
         21    1    1    2  503  501 -0.92258370217E+01 -0.35489705348E+02  0.66661366627E+00  0.36675327241E+02  0.00000000000E+00 0. -1.
</event>
<event>
 4    1  0.2134315E+005  0.3080094E+02  0.7546771E-02  0.1412761E+00
          2   -1    0    0  503    0  0.00000000000E+00  0.00000000000E+00  0.48015206883E+03  0.48015206883E+03  0.00000000000E+00 0. -1.
         21   -1    0    0  501  502 -0.00000000000E+00 -0.00000000000E+00 -0.85473092016E+01  0.85473092016E+01  0.00000000000E+00 0.  1.
          2    1    1    2  501    0  0.30794514461E+02 -0.62927190585E+00  0.45005626411E+03  0.45110901007E+03  0.00000000000E+00 0. -1.
         21    1    1    2  503  502 -0.30794514461E+02  0.62927190585E+00  0.21548495514E+02  0.37590367954E+02  0.00000000000E+00 0.  1.
</event>
<event>
 4    1  0.2134315E+005  0.2135795E+02  0.7546771E-02  0.1514215E+00
          2   -1    0    0  502    0  0.00000000000E+00  0.00000000000E+00  0.38380472166E+03  0.38380472166E+03  0.00000000000E+00 0. -1.
         21   -1    0    0  503  502 -0.00000000000E+00 -0.00000000000E+00 -0.19520951355E+03  0.19520951355E+03  0.00000000000E+00 0.  1.
          2    1    1    2  501    0  0.86496780769E+01 -0.19528058138E+02  0.38292204914E+03  0.38351721956E+03  0.00000000000E+00 0. -1.
         21    1    1    2  503  501 -0.86496780769E+01  0.19528058138E+02 -0.19432684102E+03  0.19549701565E+03  0.00000000000E+00 0.  1.
</event>
<event>
 4    1  0.2134315E+005  0.3077687E+02  0.7546771E-02  0.1412963E+00
          2   -1    0    0  503    0  0.00000000000E+00  0.00000000000E+00  0.91754932546E+03  0.91754932546E+03  0.00000000000E+00 0.  1.
         21   -1    0    0  501  502 -0.00000000000E+00 -0.00000000000E+00 -0.38497649552E+01  0.38497649552E+01  0.00000000000E+00 0.  1.
          2    1    1    2  501    0 -0.30274039742E+02  0.55406059408E+01  0.85096884986E+03  0.85152521937E+03  0.00000000000E+00 0.  1.
         21    1    1    2  503  502  0.30274039742E+02 -0.55406059408E+01  0.62730710650E+02  0.69873871047E+02  0.00000000000E+00 0.  1.
</event>
<event>
 4    1  0.2134315E+005  0.2083238E+02  0.7546771E-02  0.1521672E+00
          2   -1    0    0  503    0  0.00000000000E+00  0.00000000000E+00  0.25223934598E+02  0.25223934598E+02  0.00000000000E+00 0. -1.
         21   -1    0    0  501  502 -0.00000000000E+00 -0.00000000000E+00 -0.27203528811E+02  0.27203528811E+02  0.00000000000E+00 0.  1.
          2    1    1    2  501    0 -0.14068963135E+02 -0.15363995648E+02  0.14902088068E+02  0.25613674371E+02  0.00000000000E+00 0. -1.
         21    1    1    2  503  502  0.14068963135E+02  0.15363995648E+02 -0.16881682281E+02  0.26813789039E+02  0.00000000000E+00 0.  1.
</event>
<event>
 4    1  0.2134315E+005  0.3855816E+02  0.7546771E-02  0.1357148E+00
          2   -1    0    0  503    0  0.00000000000E+00  0.00000000000E+00  0.19327653563E+04  0.19327653563E+04  0.00000000000E+00 0. -1.
         21   -1    0    0  501  502 -0.00000000000E+00 -0.00000000000E+00 -0.16890057107E+01  0.16890057107E+01  0.00000000000E+00 0.  1.
          2    1    1    2  501    0 -0.35514817564E+02  0.15014305366E+02  0.16793028623E+04  0.16797454674E+04  0.00000000000E+00 0. -1.
         21    1    1    2  503  502  0.35514817564E+02 -0.15014305366E+02  0.25177348827E+03  0.25470889467E+03  0.00000000000E+00 0.  1.
</event>
<event>
 4    1  0.2134315E+005  0.3306551E+02  0.7546771E-02  0.1394698E+00
          2   -1    0    0  502    0  0.00000000000E+00  0.00000000000E+00  0.13123225749E+02  0.13123225749E+02  0.00000000000E+00 0.  1.
         21   -1    0    0  503  502 -0.00000000000E+00 -0.00000000000E+00 -0.13206551374E+03  0.13206551374E+03  0.00000000000E+00 0.  1.
          2    1    1    2  501    0 -0.17974295246E+02 -0.27753427360E+02 -0.15363972682E+02  0.36460659298E+02  0.00000000000E+00 0.  1.
         21    1    1    2  503  501  0.17974295246E+02  0.27753427360E+02 -0.10357831531E+03  0.10872808019E+03  0.00000000000E+00 0.  1.
</event>
<event>
 4    1  0.2134315E+005  0.2032407E+02  0.7546771E-02  0.1529138E+00
          2   -1    0    0  503    0  0.00000000000E+00  0.00000000000E+00  0.12843176417E+04  0.12843176417E+04  0.00000000000E+00 0. -1.
         21   -1    0    0  501  502 -0.00000000000E+00 -0.00000000000E+00 -0.87216696623E+01  0.87216696623E+01  0.00000000000E+00 0. -1.
          2    1    1    2  501    0 -0.19923384793E+02 -0.40157936673E+01  0.12722849884E+04  0.12724473111E+04  0.00000000000E+00 0. -1.
         21    1    1    2  503  502  0.19923384793E+02  0.40157936673E+01  0.33109836069E+01  0.20592000215E+02  0.00000000000E+00 0. -1.
</event>
<event>
 4    1  0.2134315E+005  0.2671493E+02  0.7546771E-02  0.1450493E+00
          2   -1    0    0  503    0  0.00000000000E+00  0.00000000000E+00  0.51830993897E+03  0.51830993897E+03  0.00000000000E+00 0.  1.
         21   -1    0    0  501  502 -0.00000000000E+00 -0.00000000000E+00 -0.98057423107E+01  0.98057423107E+01  0.00000000000E+00 0. -1.
          2    1    1    2  501    0 -0.26440315822E+02  0.38205947514E+01  0.49906905066E+03  0.49978355772E+03  0.00000000000E+00 0.  1.
         21    1    1    2  503  502  0.26440315822E+02 -0.38205947514E+01  0.94351459958E+01  0.28332123553E+02  0.00000000000E+00 0. -1.
</event>
<event>
 4    1  0.2134315E+005  0.3113689E+02  0.7546771E-02  0.1409967E+00
          2   -1    0    0  503    0  0.00000000000E+00  0.00000000000E+00  0.24469158968E+03  0.24469158968E+03  0.00000000000E+00 0. -1.
         21   -1    0    0  501  502 -0.00000000000E+00 -0.00000000000E+00 -0.20357339777E+02  0.20357339777E+02  0.00000000000E+00 0.  1.
          2    1    1    2  501    0  0.78958304008E+01  0.30119128349E+02  0.23109775033E+03  0.23318592633E+03  0.00000000000E+00 0. -1.
         21    1    1    2  503  502 -0.78958304008E+01 -0.30119128349E+02 -0.67635004282E+01  0.31863003127E+02  0.00000000000E+00 0.  1.
</event>
<event>
 4    1  0.2134315E+005  0.7201324E+02  0.7546771E-02  0.1223711E+00
          2   -1    0    0  503    0  0.00000000000E+00  0.00000000000E+00  0.75920590462E+03  0.75920590462E+03  0.00000000000E+00 0. -1.
         21   -1    0    0  501  502 -0.00000000000E+00 -0.00000000000E+00 -0.13666216061E+02  0.13666216061E+02  0.00000000000E+00 0. -1.
          2    1    1    2  501    0  0.87693234001E+01  0.71477308464E+02  0.64606957594E+03  0.65007061433E+03  0.00000000000E+00 0. -1.
         21    1    1    2  503  502 -0.87693234001E+01 -0.71477308464E+02  0.99470112619E+02  0.12280150635E+03  0.00000000000E+00 0. -1.
</event>
<event>
 4    1  0.2134315E+005  0.2324541E+02  0.7546771E-02  0.1489439E+00
          2   -1    0    0  503    0  0.00000000000E+00  0.00000000000E+00  0.53206341079E+02  0.53206341079E+02  0.00000000000E+00 0.  1.
         21   -1    0    0  501  502 -0.00000000000E+00 -0.00000000000E+00 -0.73135508634E+02  0.73135508634E+02  0.00000000000E+00 0. -1.
          2    1    1    2  501    0  0.17373759454E+02 -0.15443493620E+02  0.48656476798E+02  0.53924036821E+02  0.00000000000E+00 0.  1.
         21    1    1    2  503  502 -0.17373759454E+02  0.15443493620E+02 -0.68585644353E+02  0.72417812892E+02  0.00000000000E+00 0. -1.
</event>
<event>
 4    1  0.2134315E+005  0.2182099E+02  0.7546771E-02  0.1507858E+00
          2   -1    0    0  502    0  0.00000000000E+00  0.00000000000E+00  0.10199359476E+04  0.10199359476E+04  0.00000000000E+00 0.  1.
         21   -1    0    0  503  502 -0.00000000000E+00 -0.00000000000E+00 -0.92912078225E+01  0.92912078225E+01  0.00000000000E+00 0. -1.
          2    1    1    2  501    0  0.78372219768E+00 -0.21806916144E+02  0.10068406177E+04  0.10070770503E+04  0.00000000000E+00 0.  1.
         21    1    1    2  503  501 -0.78372219768E+00  0.21806916144E+02  0.38041220914E+01  0.22150105125E+02  0.00000000000E+00 0. -1.
</event>
<event>
 4    1  0.2134315E+005  0.2359445E+02  0.7546771E-02  0.1485166E+00
          2   -1    0    0  502    0  0.00000000000E+00  0.00000000000E+00  0.32851199843E+02  0.32851199843E+02  0.00000000000E+00 0. -1.
         21   -1    0    0  503  502 -0.00000000000E+00 -0.00000000000E+00 -0.79887505134E+02  0.79887505134E+02  0.00000000000E+00 0. -1.
          2    1    1    2  501    0 -0.23489602966E+02 -0.22218377459E+01  0.26516629506E+02  0.35494079095E+02  0.00000000000E+00 0. -1.
         21    1    1    2  503  501  0.23489602966E+02  0.22218377459E+01 -0.73552934797E+02  0.77244625882E+02  0.00000000000E+00 0. -1.
</event>
<event>
 4    1  0.2134315E+005  0.9939012E+02  0.7546771E-02  0.1164869E+00
          2   -1    0    0  503    0  0.00000000000E+00  0.00000000000E+00  0.10324496852E+04  0.10324496852E+04  0.00000000000E+00 0. -1.
         21   -1    0    0  501  502 -0.00000000000E+00 -0.00000000000E+00 -0.97355895051E+01  0.97355895051E+01  0.00000000000E+00 0. -1.
          2    1    1    2  501    0 -0.98593455506E+02  0.12558885276E+02  0.57974223046E+03  0.58820017753E+03  0.00000000000E+00 0. -1.
         21    1    1    2  503  502  0.98593455506E+02 -0.12558885276E+02  0.44297186527E+03  0.45398509721E+03  0.00000000000E+00 0. -1.
</event>
<event>
 4    1  0.2134315E+005  0.5581096E+02  0.7546771E-02  0.1274770E+00
          2   -1    0    0  502    0  0.00000000000E+00  0.00000000000E+00  0.58799460817E+03  0.58799460817E+03  0.00000000000E+00 0.  1.
         21   -1    0    0  503  502 -0.00000000000E+00 -0.00000000000E+00 -0.16648118035E+03  0.16648118035E+03  0.00000000000E+00 0. -1.
          2    1    1    2  501    0 -0.12803621437E+02  0.54322470968E+02  0.58194422833E+03  0.58461435875E+03  0.00000000000E+00 0.  1.
         21    1    1    2  503  501  0.12803621437E+02 -0.54322470968E+02 -0.16043080050E+03  0.16986142977E+03  0.00000000000E+00 0. -1.
</event>
<event>
 4    1  0.2134315E+005  0.2445499E+02  0.7546771E-02  0.1474994E+00
          2   -1    0    0  503    0  0.00000000000E+00  0.00000000000E+00  0.11321649854E+04  0.11321649854E+04  0.00000000000E+00 0. -1.
         21   -1    0    0  501  502 -0.00000000000E+00 -0.00000000000E+00 -0.27816734595E+02  0.27816734595E+02  0.00000000000E+00 0. -1.
          2    1    1    2  501    0 -0.21977158333E+02  0.10726193045E+02  0.11266316497E+04  0.11268970321E+04  0.00000000000E+00 0. -1.
         21    1    1    2  503  502  0.21977158333E+02 -0.10726193045E+02 -0.22283398944E+02  0.33084687910E+02  0.00000000000E+00 0. -1.
</event>
<event>
 4    1  0.2134315E+005  0.2000044E+02  0.7546771E-02  0.1534029E+00
          2   -1    0    0  502    0  0.00000000000E+00  0.00000000000E+00  0.71195019019E+02  0.71195019019E+02  0.00000000000E+00 0.  1.
         21   -1    0    0  503  502 -0.00000000000E+00 -0.00000000000E+00 -0.87853469923E+02  0.87853469923E+02  0.00000000000E+00 0. -1.
          2    1    1    2  501    0  0.42334240458E+00  0.19995957373E+02  0.68610042986E+02  0.71465764731E+02  0.00000000000E+00 0.  1.
         21    1    1    2  503  501 -0.42334240458E+00 -0.19995957373E+02 -0.85268493890E+02  0.87582724211E+02  0.00000000000E+00 0. -1.
</event>
<event>
 4    1  0.2134315E+005  0.3420244E+02  0.7546771E-02  0.1386259E+00
          2   -1    0    0  503    0  0.00000000000E+00  0.00000000000E+00  0.20661771154E+03  0.20661771154E+03  0.00000000000E+00 0. -1.
         21   -1    0    0  501  502 -0.00000000000E+00 -0.00000000000E+00 -0.58610305288E+01  0.58610305288E+01  0.00000000000E+00 0. -1.
          2    1    1    2  501    0  0.31693173277E+02  0.12858845495E+02  0.11997072496E+03  0.12475087971E+03  0.00000000000E+00 0. -1.
         21    1    1    2  503  502 -0.31693173277E+02 -0.12858845495E+02  0.80785956050E+02  0.87727862362E+02  0.00000000000E+00 0. -1.
</event>
<event>
 4    1  0.2134315E+005  0.7039812E+02  0.7546771E-02  0.1228085E+00
          2   -1    0    0  502    0  0.00000000000E+00  0.00000000000E+00  0.51567366180E+02  0.51567366180E+02  0.00000000000E+00 0.  1.
         21   -1    0    0  503  502 -0.00000000000E+00 -0.00000000000E+00 -0.87305864735E+03  0.87305864735E+03  0.00000000000E+00 0. -1.
          2    1    1    2  501    0  0.56015988856E+02  0.42639230057E+02  0.25380266992E+02  0.74833501187E+02  0.00000000000E+00 0.  1.
         21    1    1    2  503  501 -0.56015988856E+02 -0.42639230057E+02 -0.84687154817E+03  0.84979251235E+03  0.00000000000E+00 0. -1.
</event>
<event>
 4    1  0.2134315E+005  0.2166410E+02  0.7546771E-02  0.1509991E+00
          2   -1    0    0  503    0  0.00000000000E+00  0.00000000000E+00  0.71652809653E+03  0.71652809653E+03  0.00000000000E+00 0.  1.
         21   -1    0    0  501  502 -0.00000000000E+00 -0.00000000000E+00 -0.18084509532E+01  0.18084509532E+01  0.00000000000E+00 0.  1.
          2    1    1    2  501    0  0.63754617926E+01  0.20704747396E+02  0.64420151836E+03  0.64456569047E+03  0.00000000000E+00 0.  1.
         21    1    1    2  503  502 -0.63754617926E+01 -0.20704747396E+02  0.70518127216E+02  0.73770857009E+02  0.00000000000E+00 0.  1.
</event>
<event>
 4    1  0.2134315E+005  0.5565664E+02  0.7546771E-02  0.1275349E+00
          2   -1    0    0  503    0  0.00000000000E+00  0.00000000000E+00  0.44463806820E+03  0.44463806820E+03  0.00000000000E+00 0. -1.
         21   -1    0    0  501  502 -0.00000000000E+00 -0.00000000000E+00 -0.33550388031E+02  0.33550388031E+02  0.00000000000E+00 0. -1.
          2    1    1    2  501    0 -0.42896510032E+02  0.35461967569E+02  0.41837141833E+03  0.42205723000E+03  0.00000000000E+00 0. -1.
         21    1    1    2  503  502  0.42896510032E+02 -0.35461967569E+02 -0.72837381626E+01  0.56131226233E+02  0.00000000000E+00 0. -1.
</event>
<event>
 4    1  0.2134315E+005  0.2448528E+02  0.7546771E-02  0.1474645E+00
          2   -1    0    0  502    0  0.00000000000E+00  0.00000000000E+00  0.13994020464E+04  0.13994020464E+04  0.00000000000E+00 0. -1.
         21   -1    0    0  503  502 -0.00000000000E+00 -0.00000000000E+00 -0.10932759588E+02  0.10932759588E+02  0.00000000000E+00 0.  1.
          2    1    1    2  501    0 -0.12949875014E+02  0.20780512271E+02  0.13854474061E+04  0.13856637558E+04  0.00000000000E+00 0. -1.
         21    1    1    2  503  501  0.12949875014E+02 -0.20780512271E+02  0.30218806359E+01  0.24671050154E+02  0.00000000000E+00 0.  1.
</event>
<event>
 4    1  0.2134315E+005  0.2431460E+02  0.7546771E-02  0.1476619E+00
          2   -1    0    0  502    0  0.00000000000E+00  0.00000000000E+00  0.36176857695E+03  0.36176857695E+03  0.00000000000E+00 0. -1.
         21   -1    0    0  503  502 -0.00000000000E+00 -0.00000000000E+00 -0.28699151404E+02  0.28699151404E+02  0.00000000000E+00 0. -1.
          2    1    1    2  501    0 -0.35536124978E+01  0.24053519814E+02  0.35612858551E+03  0.35695765770E+03  0.00000000000E+00 0. -1.
         21    1    1    2  503  501  0.35536124978E+01 -0.24053519814E+02 -0.23059159958E+02  0.33510070654E+02  0.00000000000E+00 0. -1.
</event>
<event>
 4    1  0.2134315E+005  0.2084751E+02  0.7546771E-02  0.1521453E+00
          2   -1    0    0  503    0  0.00000000000E+00  0.00000000000E+00  0.82611645798E+03  0.82611645798E+03  0.00000000000E+00 0. -1.
         21   -1    0    0  501  502 -0.00000000000E+00 -0.00000000000E+00 -0.28813381523E+01  0.28813381523E+01  0.00000000000E+00 0.  1.
          2    1    1    2  501    0  0.20579875863E+02 -0.33297535664E+01  0.78636944536E+03  0.78664574183E+03  0.00000000000E+00 0. -1.
         21    1    1    2  503  502 -0.20579875863E+02  0.33297535664E+01  0.36865674466E+02  0.42352054297E+02  0.00000000000E+00 0.  1.
</event>
<event>
 4    1  0.2134315E+005  0.2759264E+02  0.7546771E-02  0.1441744E+00
          2   -1    0    0  502    0  0.00000000000E+00  0.00000000000E+00  0.19383500707E+04  0.19383500707E+04  0.00000000000E+00 0.  1.
         21   -1    0    0  503  502 -0.00000000000E+00 -0.00000000000E+00 -0.43355915141E+00  0.43355915141E+00  0.00000000000E+00 0.  1.
          2    1    1    2  501    0  0.55665575758E+01  0.27025311864E+02  0.12662410676E+04  0.12665416674E+04  0.00000000000E+00 0.  1.
         21    1    1    2  503  501 -0.55665575758E+01 -0.27025311864E+02  0.67167544391E+03  0.67224196239E+03  0.00000000000E+00 0.  1.
</event>
<event>
 4    1  0.2134315E+005  0.2233694E+02  0.7546771E-02  0.1500996E+00
          2   -1    0    0  503    0  0.00000000000E+00  0.00000000000E+00  0.42011184185E+03  0.42011184185E+03  0.00000000000E+00 0. -1.
         21   -1    0    0  501  502 -0.00000000000E+00 -0.00000000000E+00 -0.13783221498E+01  0.13783221498E+01  0.00000000000E+00 0. -1.
          2    1    1    2  501    0 -0.21266285100E+02 -0.68325825999E+01  0.28775375965E+03  0.28861941248E+03  0.00000000000E+00 0. -1.
         21    1    1    2  503  502  0.21266285100E+02  0.68325825999E+01  0.13097976005E+03  0.13287075152E+03  0.00000000000E+00 0. -1.
</event>
<event>
 4    1  0.2134315E+005  0.2192166E+02  0.7546771E-02  0.1506502E+00
          2   -1    0    0  503    0  0.00000000000E+00  0.00000000000E+00  0.14760771680E+04  0.14760771680E+04  0.00000000000E+00 0. -1.
         21   -1    0    0  501  502 -0.00000000000E+00 -0.00000000000E+00 -0.62191451953E+01  0.62191451953E+01  0.00000000000E+00 0. -1.
          2    1    1    2  501    0  0.45400263691E+00  0.21916961566E+02  0.14564172850E+04  0.14565822556E+04  0.00000000000E+00 0. -1.
         21    1    1    2  503  502 -0.45400263691E+00 -0.21916961566E+02  0.13440737729E+02  0.25714057505E+02  0.00000000000E+00 0. -1.
</event>
<event>
 4    1  0.2134315E+005  0.2545647E+02  0.7546771E-02  0.1463761E+00
          2   -1    0    0  503    0  0.00000000000E+00  0.00000000000E+00  0.18073277485E+03  0.18073277485E+03  0.00000000000E+00 0. -1.
         21   -1    0    0  501  502 -0.00000000000E+00 -0.00000000000E+00 -0.42787524636E+03  0.42787524636E+03  0.00000000000E+00 0.  1.
          2    1    1    2  501    0 -0.20721108418E+02  0.14787411793E+02  0.17945506368E+03  0.18125162554E+03  0.00000000000E+00 0. -1.
         21    1    1    2  503  502  0.20721108418E+02 -0.14787411793E+02 -0.42659753519E+03  0.42735639566E+03  0.00000000000E+00 0.  1.
</event>
<event>
 4    1  0.2134315E+005  0.2363006E+02  0.7546771E-02  0.1484734E+00
          2   -1    0    0  503    0  0.00000000000E+00  0.00000000000E+00  0.44018665807E+03  0.44018665807E+03  0.00000000000E+00 0.  1.
         21   -1    0    0  501  502 -0.00000000000E+00 -0.00000000000E+00 -0.11971858127E+02  0.11971858127E+02  0.00000000000E+00 0. -1.
          2    1    1    2  501    0  0.19703553780E+02 -0.13044144920E+02  0.42787399023E+03  0.42852599836E+03  0.00000000000E+00 0.  1.
         21    1    1    2  503  502 -0.19703553780E+02  0.13044144920E+02  0.34080970875E+00  0.23632517841E+02  0.00000000000E+00 0. -1.
</event>
<event>
 4    1  0.2134315E+005  0.2257140E+02  0.7546771E-02  0.1497951E+00
          2   -1    0    0  503    0  0.00000000000E+00  0.00000000000E+00  0.10986732120E+04  0.10986732120E+04  0.00000000000E+00 0. -1.
         21   -1    0    0  501  502 -0.00000000000E+00 -0.00000000000E+00 -0.46371250973E+00  0.46371250973E+00  0.00000000000E+00 0. -1.
          2    1    1    2  501    0 -0.11483215709E+02  0.19432029697E+02  0.54964445433E+03  0.55010771145E+03  0.00000000000E+00 0. -1.
         21    1    1    2  503  502  0.11483215709E+02 -0.19432029697E+02  0.54856504516E+03  0.54902921306E+03  0.00000000000E+00 0. -1.
</event>
<event>
 4    1  0.2134315E+005  0.2882763E+02  0.7546771E-02  0.1430065E+00
          2   -1    0    0  502    0  0.00000000000E+00  0.00000000000E+00  0.39812366773E+03  0.39812366773E+03  0.00000000000E+00 0. -1.
         21   -1    0    0  503  502 -0.00000000000E+00 -0.00000000000E+00 -0.64903413902E+01  0.64903413902E+01  0.00000000000E+00 0.  1.
          2    1    1    2  501    0 -0.31282936221E+01  0.28657394730E+02  0.36244541667E+03  0.36359003363E+03  0.00000000000E+00 0. -1.
         21    1    1    2  503  501  0.31282936221E+01 -0.28657394730E+02  0.29187909670E+02  0.41023975486E+02  0.00000000000E+00 0.  1.
</event>
<event>
 4    1  0.2134315E+005  0.4735222E+02  0.7546771E-02  0.1310079E+00
          2   -1    0    0  503    0  0.00000000000E+00  0.00000000000E+00  0.49575875566E+02  0.49575875566E+02  0.00000000000E+00 0.  1.
         21   -1    0    0  501  502 -0.00000000000E+00 -0.00000000000E+00 -0.84706843686E+02  0.84706843686E+02  0.00000000000E+00 0.  1.
          2    1    1    2  501    0  0.17409850979E+02 -0.44035548665E+02  0.28271016811E+02  0.55149640514E+02  0.00000000000E+00 0.  1.
         21    1    1    2  503  502 -0.17409850979E+02  0.44035548665E+02 -0.63401984931E+02  0.79133078738E+02  0.00000000000E+00 0.  1.
</event>
<event>
 4    1  0.2134315E+005  0.2875850E+02  0.7546771E-02  0.1430701E+00
          2   -1    0    0  502    0  0.00000000000E+00  0.00000000000E+00  0.14850258222E+04  0.14850258222E+04  0.00000000000E+00 0. -1.
         21   -1    0    0  503  502 -0.00000000000E+00 -0.00000000000E+00 -0.11426027709E+01  0.11426027709E+01  0.00000000000E+00 0.  1.
          2    1    1    2  501    0  0.21252222043E+02 -0.19375093294E+02  0.12739506050E+04  0.12742751646E+04  0.00000000000E+00 0. -1.
         21    1    1    2  503  501 -0.21252222043E+02  0.19375093294E+02  0.20993261440E+03  0.21189326033E+03  0.00000000000E+00 0.  1.
</event>
<event>
 4    1  0.2134315E+005  0.3272649E+02  0.7546771E-02  0.1397292E+00
          2   -1    0    0  503    0  0.00000000000E+00  0.00000000000E+00  0.50689764704E+03  0.50689764704E+03  0.00000000000E+00 0. -1.
         21   -1    0    0  501  502 -0.00000000000E+00 -0.00000000000E+00 -0.17239575353E+02  0.17239575353E+02  0.00000000000E+00 0.  1.
          2    1    1    2  501    0 -0.40205134349E+01 -0.32478590821E+02  0.49031320285E+03  0.49140417202E+03  0.00000000000E+00 0. -1.
         21    1    1    2  503  502  0.40205134349E+01  0.32478590821E+02 -0.65513116158E+00  0.32733050375E+02  0.00000000000E+00 0.  1.
</event>
<event>
 4    1  0.2134315E+005  0.2679557E+02  0.7546771E-02  0.1449673E+00
          2   -1    0    0  502    0  0.00000000000E+00  0.00000000000E+00  0.65084659504E+03  0.65084659504E+03  0.00000000000E+00 0. -1.
         21   -1    0    0  503  502 -0.00000000000E+00 -0.00000000000E+00 -0.15813563261E+01  0.15813563261E+01  0.00000000000E+00 0. -1.
          2    1    1    2  501    0  0.26788755224E+02 -0.60428470646E+00  0.50401533662E+03  0.50472711648E+03  0.00000000000E+00 0. -1.
         21    1    1    2  503  501 -0.26788755224E+02  0.60428470646E+00  0.14524990209E+03  0.14770083488E+03  0.00000000000E+00 0. -1.
</event>
<event>
 4    1  0.2134315E+005  0.2261103E+02  0.7546771E-02  0.1497441E+00
          2   -1    0    0  503    0  0.00000000000E+00  0.00000000000E+00  0.25855032603E+03  0.25855032603E+03  0.00000000000E+00 0. -1.
         21   -1    0    0  501  502 -0.00000000000E+00 -0.00000000000E+00 -0.22210880502E+01  0.22210880502E+01  0.00000000000E+00 0. -1.
          2    1    1    2  501    0  0.15986824949E+02 -0.15989996952E+02  0.17135233311E+03  0.17283772921E+03  0.00000000000E+00 0. -1.
         21    1    1    2  503  502 -0.15986824949E+02  0.15989996952E+02  0.84976904867E+02  0.87933684872E+02  0.00000000000E+00 0. -1.
</event>
<event>
 4    1  0.2134315E+005  0.2547940E+02  0.7546771E-02  0.1463511E+00
          2   -1    0    0  503    0  0.00000000000E+00  0.00000000000E+00  0.98279550869E+02  0.98279550869E+02  0.00000000000E+00 0.  1.
         21   -1    0    0  501  502 -0.00000000000E+00 -0.00000000000E+00 -0.70294875438E+01  0.70294875438E+01  0.00000000000E+00 0. -1.
          2    1    1    2  501    0 -0.18835350332E+02  0.17158947146E+02  0.32695709678E+02  0.41451288528E+02  0.00000000000E+00 0.  1.
         21    1    1    2  503  502  0.18835350332E+02 -0.17158947146E+02  0.58554353647E+02  0.63857749885E+02  0.00000000000E+00 0. -1.
</event>
<event>
 4    1  0.2134315E+005  0.2338519E+02  0.7546771E-02  0.1487717E+00
          2   -1    0    0  503    0  0.00000000000E+00  0.00000000000E+00  0.11526996444E+04  0.11526996444E+04  0.00000000000E+00 0. -1.
         21   -1    0    0  501  502 -0.00000000000E+00 -0.00000000000E+00 -0.15914749080E+01  0.15914749080E+01  0.00000000000E+00 0. -1.
          2    1    1    2  501    0  0.18537240324E-01  0.23385180267E+02  0.10590826947E+04  0.10593408428E+04  0.00000000000E+00 0. -1.
         21    1    1    2  503  502 -0.18537240324E-01 -0.23385180267E+02  0.92025474869E+02  0.94950276590E+02  0.00000000000E+00 0. -1.
</event>
<event>
 4    1  0.2134315E+005  0.2331987E+02  0.7546771E-02  0.1488520E+00
          2   -1    0    0  502    0  0.00000000000E+00  0.00000000000E+00  0.47439331465E+01  0.47439331465E+01  0.00000000000E+00 0.  1.
         21   -1    0    0  503  502 -0.00000000000E+00 -0.00000000000E+00 -0.42404126907E+03  0.42404126907E+03  0.00000000000E+00 0. -1.
          2    1    1    2  501    0  0.30581529996E+01 -0.23118480311E+02 -0.26513847180E+02  0.35310062645E+02  0.00000000000E+00 0.  1.
         21    1    1    2  503  501 -0.30581529996E+01  0.23118480311E+02 -0.39278348875E+03  0.39347513958E+03  0.00000000000E+00 0. -1.
</event>
<event>
 4    1  0.2134315E+005  0.5576906E+02  0.7546771E-02  0.1274927E+00
          2   -1    0    0  502    0  0.00000000000E+00  0.00000000000E+00  0.45118682029E+03  0.45118682029E+03  0.00000000000E+00 0.  1.
         21   -1    0    0  503  502 -0.00000000000E+00 -0.00000000000E+00 -0.25221036922E+02  0.25221036922E+02  0.00000000000E+00 0. -1.
          2    1    1    2  501    0 -0.99134749650E+01  0.54880880596E+02  0.41604144892E+03  0.41976264158E+03  0.00000000000E+00 0.  1.
         21    1    1    2  503  501  0.99134749650E+01 -0.54880880596E+02  0.99243344497E+01  0.56645215642E+02  0.00000000000E+00 0. -1.
</event>
<event>
 4    1  0.2134315E+005  0.2063181E+02  0.7546771E-02  0.1524587E+00
          2   -1    0    0  502    0  0.00000000000E+00  0.00000000000E+00  0.16432987827E+01  0.16432987827E+01  0.00000000000E+00 0. -1.
         21   -1    0    0  503  502 -0.00000000000E+00 -0.00000000000E+00 -0.44868056508E+03  0.44868056508E+03  0.00000000000E+00 0. -1.
          2    1    1    2  501    0  0.13524363081E+02 -0.15580861384E+02 -0.77133198928E+02  0.79844862171E+02  0.00000000000E+00 0. -1.
         21    1    1    2  503  501 -0.13524363081E+02  0.15580861384E+02 -0.36990406737E+03  0.37047900169E+03  0.00000000000E+00 0. -1.
</event>
<event>
 4    1  0.2134315E+005  0.2039019E+02  0.7546771E-02  0.1528152E+00
          2   -1    0    0  503    0  0.00000000000E+00  0.00000000000E+00  0.44845859532E+02  0.44845859532E+02  0.00000000000E+00 0. -1.
         21   -1    0    0  501  502 -0.00000000000E+00 -0.00000000000E+00 -0.99525259629E+01  0.99525259629E+01  0.00000000000E+00 0. -1.
          2    1    1    2  501    0 -0.61598606707E+01  0.19437493174E+02  0.24617250395E+02  0.31965122264E+02  0.00000000000E+00 0. -1.
         21    1    1    2  503  502  0.61598606707E+01 -0.19437493174E+02  0.10276083174E+02  0.22833263231E+02  0.00000000000E+00 0. -1.
</event>
<event>
 4    1  0.2134315E+005  0.2010099E+02  0.7546771E-02  0.1532497E+00
          2   -1    0    0  503    0  0.00000000000E+00  0.00000000000E+00  0.51743008337E+02  0.51743008337E+02  0.00000000000E+00 0.  1.
         21   -1    0    0  501  502 -0.00000000000E+00 -0.00000000000E+00 -0.15265994983E+02  0.15265994983E+02  0.00000000000E+00 0.  1.
          2    1    1    2  501    0  0.17943580027E+02 -0.90596815070E+01  0.41655377851E+02  0.46251706964E+02  0.00000000000E+00 0.  1.
         21    1    1    2  503  502 -0.17943580027E+02  0.90596815070E+01 -0.51783644967E+01  0.20757296357E+02  0.00000000000E+00 0.  1.
</event>
<event>
 4    1  0.2134315E+005  0.3357546E+02  0.7546771E-02  0.1390864E+00
          2   -1    0    0  502    0  0.00000000000E+00  0.00000000000E+00  0.10626397152E+02  0.10626397152E+02  0.00000000000E+00 0.  1.
         21   -1    0    0  503  502 -0.00000000000E+00 -0.00000000000E+00 -0.24684164390E+03  0.24684164390E+03  0.00000000000E+00 0.  1.
          2    1    1    2  501    0 -0.31964398817E+02 -0.10275623441E+02 -0.20896237573E+02  0.39546984380E+02  0.00000000000E+00 0.  1.
         21    1    1    2  503  501  0.31964398817E+02  0.10275623441E+02 -0.21531900918E+03  0.21792105668E+03  0.00000000000E+00 0.  1.
</event>
<event>
 4    1  0.2134315E+005  0.2441573E+02  0.7546771E-02  0.1475447E+00
          2   -1    0    0  502    0  0.00000000000E+00  0.00000000000E+00  0.17755200835E+03  0.17755200835E+03  0.00000000000E+00 0. -1.
         21   -1    0    0  503  502 -0.00000000000E+00 -0.00000000000E+00 -0.10456827669E+02  0.10456827669E+02  0.00000000000E+00 0. -1.
          2    1    1    2  501    0 -0.19891449897E+02  0.14158329765E+02  0.16100400326E+03  0.16284476395E+03  0.00000000000E+00 0. -1.
         21    1    1    2  503  501  0.19891449897E+02 -0.14158329765E+02  0.60911774240E+01  0.25164072070E+02  0.00000000000E+00 0. -1.
</event>
<event>
 4    1  0.2134315E+005  0.2554774E+02  0.7546771E-02  0.1462768E+00
          2   -1    0    0  503    0  0.00000000000E+00  0.00000000000E+00  0.13012642043E+02  0.13012642043E+02  0.00000000000E+00 0.  1.
         21   -1    0    0  501  502 -0.00000000000E+00 -0.00000000000E+00 -0.55029609015E+02  0.55029609015E+02  0.00000000000E+00 0. -1.
          2    1    1    2  501    0 -0.23634578965E+02  0.97001978408E+01 -0.31131032578E+02  0.40271930055E+02  0.00000000000E+00 0.  1.
         21    1    1    2  503  502  0.23634578965E+02 -0.97001978408E+01 -0.10885934394E+02  0.27770321003E+02  0.00000000000E+00 0. -1.
</event>
<event>
 4    1  0.2134315E+005  0.2190264E+02  0.7546771E-02  0.1506757E+00
          2   -1    0    0  503    0  0.00000000000E+00  0.00000000000E+00  0.74547320762E+02  0.74547320762E+02  0.00000000000E+00 0.  1.
         21   -1    0    0  501  502 -0.00000000000E+00 -0.00000000000E+00 -0.40051753220E+02  0.40051753220E+02  0.00000000000E+00 0.  1.
          2    1    1    2  501    0  0.21674890546E+02 -0.31503834460E+01  0.69742674402E+02  0.73101069957E+02  0.00000000000E+00 0.  1.
         21    1    1    2  503  502 -0.21674890546E+02  0.31503834460E+01 -0.35247106860E+02  0.41498004025E+02  0.00000000000E+00 0.  1.
</event>
<event>
 4    1  0.2134315E+005  0.2035415E+02  0.7546771E-02  0.1528689E+00
          2   -1    0    0  503    0  0.00000000000E+00  0.00000000000E+00  0.15607395902E+03  0.15607395902E+03  0.00000000000E+00 0. -1.
         21   -1    0    0  501  502 -0.00000000000E+00 -0.00000000000E+00 -0.32404907764E+01  0.32404907764E+01  0.00000000000E+00 0. -1.
          2    1    1    2  501    0 -0.17524451113E+02  0.10353011829E+02  0.11029194327E+03  0.11215437571E+03  0.00000000000E+00 0. -1.
         21    1    1    2  503  502  0.17524451113E+02 -0.10353011829E+02  0.42541524975E+02  0.47160074087E+02  0.00000000000E+00 0. -1.
</event>
<event>
 4    1  0.2134315E+005  0.3894853E+02  0.7546771E-02  0.1354760E+00
          2   -1    0    0  503    0  0.00000000000E+00  0.00000000000E+00  0.74520008355E+03  0.74520008355E+03  0.00000000000E+00 0. -1.
         21   -1    0    0  501  502 -0.00000000000E+00 -0.00000000000E+00 -0.43292405835E+01  0.43292405835E+01  0.00000000000E+00 0.  1.
          2    1    1    2  501    0  0.32382183535E+02  0.21642146099E+02  0.64321255282E+03  0.64439070168E+03  0.00000000000E+00 0. -1.
         21    1    1    2  503  502 -0.32382183535E+02 -0.21642146099E+02  0.97658290138E+02  0.10513862245E+03  0.00000000000E+00 0.  1.
</event>
<event>
 4    1  0.2134315E+005  0.2062142E+02  0.7546771E-02  0.1524739E+00
          2   -1    0    0  502    0  0.00000000000E+00  0.00000000000E+00  0.39205815407E+03  0.39205815407E+03  0.00000000000E+00 0. -1.
         21   -1    0    0  503  502 -0.00000000000E+00 -0.00000000000E+00 -0.11593229198E+01  0.11593229198E+01  0.00000000000E+00 0. -1.
          2    1    1    2  501    0  0.19546039641E+02 -0.65723056095E+01  0.24534986968E+03  0.24621494963E+03  0.00000000000E+00 0. -1.
         21    1    1    2  503  501 -0.19546039641E+02  0.65723056095E+01  0.14554896146E+03  0.14700252736E+03  0.00000000000E+00 0. -1.
</event>
<event>
 4    1  0.2134315E+005  0.2090006E+02  0.7546771E-02  0.1520697E+00
          2   -1    0    0  503    0  0.00000000000E+00  0.00000000000E+00  0.20745466929E+03  0.20745466929E+03  0.00000000000E+00 0.  1.
         21   -1    0    0  501  502 -0.00000000000E+00 -0.00000000000E+00 -0.28056497085E+01  0.28056497085E+01  0.00000000000E+00 0.  1.
          2    1    1    2  501    0 -0.20015881607E+02  0.60147138934E+01  0.15483927119E+03  0.15624343891E+03  0.00000000000E+00 0.  1.
         21    1    1    2  503  502  0.20015881607E+02 -0.60147138934E+01  0.49809748394E+02  0.54016880092E+02  0.00000000000E+00 0.  1.
</event>
<event>
 4    1  0.2134315E+005  0.2610728E+02  0.7546771E-02  0.1456788E+00
          2   -1    0    0  503    0  0.00000000000E+00  0.00000000000E+00  0.58843062717E+03  0.58843062717E+03  0.00000000000E+00 0. -1.
         21   -1    0    0  501  502 -0.00000000000E+00 -0.00000000000E+00 -0.81885264681E+01  0.81885264681E+01  0.00000000000E+00 0. -1.
          2    1    1    2  501    0  0.37714508772E+01 -0.25833435749E+02  0.56652764164E+03  0.56712887335E+03  0.00000000000E+00 0. -1.
         21    1    1    2  503  502 -0.37714508772E+01  0.25833435749E+02  0.13714459068E+02  0.29490280294E+02  0.00000000000E+00 0. -1.
</event>
<event>
 4    1  0.2134315E+005  0.2443090E+02  0.7546771E-02  0.1475272E+00
          2   -1    0    0  502    0  0.00000000000E+00  0.00000000000E+00  0.33586653597E+03  0.33586653597E+03  0.00000000000E+00 0. -1.
         21   -1    0    0  503  502 -0.00000000000E+00 -0.00000000000E+00 -0.33768181645E+02  0.33768181645E+02  0.00000000000E+00 0.  1.
          2    1    1    2  501    0  0.22832415893E+02 -0.86919306075E+01  0.33093766656E+03  0.33183822567E+03  0.00000000000E+00 0. -1.
         21    1    1    2  503  501 -0.22832415893E+02  0.86919306075E+01 -0.28839312230E+02  0.37796491942E+02  0.00000000000E+00 0.  1.
</event>
<event>
 4    1  0.2134315E+005  0.2605583E+02  0.7546771E-02  0.1457330E+00
          2   -1    0    0  503    0  0.00000000000E+00  0.00000000000E+00  0.19021888804E+03  0.19021888804E+03  0.00000000000E+00 0. -1.
         21   -1    0    0  501  502 -0.00000000000E+00 -0.00000000000E+00 -0.35718400723E+01  0.35718400723E+01  0.00000000000E+00 0. -1.
          2    1    1    2  501    0 -0.25571512186E+02 -0.50003874791E+01  0.96017842383E+02  0.99490362178E+02  0.00000000000E+00 0. -1.
         21    1    1    2  503  502  0.25571512186E+02  0.50003874791E+01  0.90629205582E+02  0.94300365932E+02  0.00000000000E+00 0. -1.
</event>
<event>
 4    1  0.2134315E+005  0.2552753E+02  0.7546771E-02  0.1462988E+00
          2   -1    0    0  502    0  0.00000000000E+00  0.00000000000E+00  0.48119324928E+03  0.48119324928E+03  0.00000000000E+00 0.  1.
         21   -1    0    0  503  502 -0.00000000000E+00 -0.00000000000E+00 -0.10190657127E+03  0.10190657127E+03  0.00000000000E+00 0.  1.
          2    1    1    2  501    0  0.22665947136E+02 -0.11743503216E+02  0.47924955014E+03  0.47992893884E+03  0.00000000000E+00 0.  1.
         21    1    1    2  503  501 -0.22665947136E+02  0.11743503216E+02 -0.99962872136E+02  0.10317088171E+03  0.00000000000E+00 0.  1.
</event>
<event>
 4    1  0.2134315E+005  0.2037125E+02  0.7546771E-02  0.1528434E+00
          2   -1    0    0  502    0  0.00000000000E+00  0.00000000000E+00  0.34512567813E+02  0.34512567813E+02  0.00000000000E+00 0. -1.
         21   -1    0    0  503  502 -0.00000000000E+00 -0.00000000000E+00 -0.47833476042E+02  0.47833476042E+02  0.00000000000E+00 0. -1.
          2    1    1    2  501    0 -0.20358284700E+02  0.72667641692E+00  0.28963672636E+02  0.35410198349E+02  0.00000000000E+00 0. -1.
         21    1    1    2  503  501  0.20358284700E+02 -0.72667641692E+00 -0.42284580864E+02  0.46935845506E+02  0.00000000000E+00 0. -1.
</event>
<event>
 4    1  0.2134315E+005  0.2552575E+02  0.7546771E-02  0.1463007E+00
          2   -1    0    0  503    0  0.00000000000E+00  0.00000000000E+00  0.26435122876E+03  0.26435122876E+03  0.00000000000E+00 0.  1.
         21   -1    0    0  501  502 -0.00000000000E+00 -0.00000000000E+00 -0.21443694971E+02  0.21443694971E+02  0.00000000000E+00 0.  1.
          2    1    1    2  501    0  0.15428560693E+02  0.20335271133E+02  0.25588821316E+03  0.25715820300E+03  0.00000000000E+00 0.  1.
         21    1    1    2  503  502 -0.15428560693E+02 -0.20335271133E+02 -0.12980679372E+02  0.28636720728E+02  0.00000000000E+00 0.  1.
</event>
<event>
 4    1  0.2134315E+005  0.7308553E+02  0.7546771E-02  0.1220879E+00
          2   -1    0    0  502    0  0.00000000000E+00  0.00000000000E+00  0.59642950229E+02  0.59642950229E+02  0.00000000000E+00 0.  1.
         21   -1    0    0  503  502 -0.00000000000E+00 -0.00000000000E+00 -0.41935609707E+03  0.41935609707E+03  0.00000000000E+00 0. -1.
          2    1    1    2  501    0  0.60118429125E+02  0.41560421208E+02  0.32535031907E+02  0.80000140204E+02  0.00000000000E+00 0.  1.
         21    1    1    2  503  501 -0.60118429125E+02 -0.41560421208E+02 -0.39224817875E+03  0.39899890710E+03  0.00000000000E+00 0. -1.
</event>
<event>
 4    1  0.2134315E+005  0.2000144E+02  0.7546771E-02  0.1534014E+00
          2   -1    0    0  502    0  0.00000000000E+00  0.00000000000E+00  0.28329856170E+03  0.28329856170E+03  0.00000000000E+00 0. -1.
         21   -1    0    0  503  502 -0.00000000000E+00 -0.00000000000E+00 -0.74642931464E+01  0.74642931464E+01  0.00000000000E+00 0. -1.
          2    1    1    2  501    0 -0.17929960463E+02 -0.88642005209E+01  0.26882613307E+03  0.26956918843E+03  0.00000000000E+00 0. -1.
         21    1    1    2  503  501  0.17929960463E+02  0.88642005209E+01  0.70081354893E+01  0.21193666415E+02  0.00000000000E+00 0. -1.
</event>
<event>
 4    1  0.2134315E+005  0.4911192E+02  0.7546771E-02  0.1302069E+00
          2   -1    0    0  502    0  0.00000000000E+00  0.00000000000E+00  0.25068873642E+04  0.25068873642E+04  0.00000000000E+00 0. -1.
         21   -1    0    0  503  502 -0.00000000000E+00 -0.00000000000E+00 -0.81342306698E+02  0.81342306698E+02  0.00000000000E+00 0.  1.
          2    1    1    2  501    0 -0.94341213175E+01 -0.48197284359E+02  0.24992110039E+04  0.24996935058E+04  0.00000000000E+00 0. -1.
         21    1    1    2  503  501  0.94341213175E+01  0.48197284359E+02 -0.73665946426E+02  0.88536165082E+02  0.00000000000E+00 0.  1.
</event>
<event>
 4    1  0.2134315E+005  0.2023108E+02  0.7546771E-02  0.1530532E+00
          2   -1    0    0  503    0  0.00000000000E+00  0.00000000000E+00  0.27726508792E+01  0.27726508792E+01  0.00000000000E+00 0.  1.
         21   -1    0    0  501  502 -0.00000000000E+00 -0.00000000000E+00 -0.14888446591E+03  0.14888446591E+03  0.00000000000E+00 0.  1.
          2    1    1    2  501    0  0.42107843260E+01 -0.19788027739E+02 -0.66065796954E+02  0.69094039349E+02  0.00000000000E+00 0.  1.
         21    1    1    2  503  502 -0.42107843260E+01  0.19788027739E+02 -0.80046018080E+02  0.82563077444E+02  0.00000000000E+00 0.  1.
</event>
<event>
 4    1  0.2134315E+005  0.2369783E+02  0.7546771E-02  0.1483917E+00
          2   -1    0    0  503    0  0.00000000000E+00  0.00000000000E+00  0.56425087533E+03  0.56425087533E+03  0.00000000000E+00 0. -1.
         21   -1    0    0  501  502 -0.00000000000E+00 -0.00000000000E+00 -0.47559314049E+02  0.47559314049E+02  0.00000000000E+00 0. -1.
          2    1    1    2  501    0  0.16381252665E+02 -0.17124295319E+02  0.56103309750E+03  0.56153336804E+03  0.00000000000E+00 0. -1.
         21    1    1    2  503  502 -0.16381252665E+02  0.17124295319E+02 -0.44341536224E+02  0.50276821337E+02  0.00000000000E+00 0. -1.
</event>
<event>
 4    1  0.2134315E+005  0.2603640E+02  0.7546771E-02  0.1457535E+00
          2   -1    0    0  502    0  0.00000000000E+00  0.00000000000E+00  0.15163290795E+03  0.15163290795E+03  0.00000000000E+00 0. -1.
         21   -1    0    0  503  502 -0.00000000000E+00 -0.00000000000E+00 -0.47850752414E+01  0.47850752414E+01  0.00000000000E+00 0.  1.
          2    1    1    2  501    0 -0.14037779205E+02  0.21927944204E+02  0.53375145478E+02  0.59386868387E+02  0.00000000000E+00 0. -1.
         21    1    1    2  503  501  0.14037779205E+02 -0.21927944204E+02  0.93472687229E+02  0.97031114802E+02  0.00000000000E+00 0.  1.
</event>
<event>
 4    1  0.2134315E+005  0.2703618E+02  0.7546771E-02  0.1447245E+00
          2   -1    0    0  503    0  0.00000000000E+00  0.00000000000E+00  0.28437427872E+03  0.28437427872E+03  0.00000000000E+00 0.  1.
         21   -1    0    0  501  502 -0.00000000000E+00 -0.00000000000E+00 -0.26520884566E+01  0.26520884566E+01  0.00000000000E+00 0.  1.
          2    1    1    2  501    0  0.20720507175E+02  0.17367089814E+02  0.11567376900E+03  0.11879131307E+03  0.00000000000E+00 0.  1.
         21    1    1    2  503  502 -0.20720507175E+02 -0.17367089814E+02  0.16604842126E+03  0.16823505411E+03  0.00000000000E+00 0.  1.
</event>
<event>
 4    1  0.2134315E+005  0.3526089E+02  0.7546771E-02  0.1378738E+00
          2   -1    0    0  503    0  0.00000000000E+00  0.00000000000E+00  0.73091589130E+03  0.73091589130E+03  0.00000000000E+00 0. -1.
         21   -1    0    0  501  502 -0.00000000000E+00 -0.00000000000E+00 -0.35496560640E+01  0.35496560640E+01  0.00000000000E+00 0. -1.
          2    1    1    2  501    0  0.32727713780E+02 -0.13123539657E+02  0.62869753866E+03  0.62968557683E+03  0.00000000000E+00 0. -1.
         21    1    1    2  503  502 -0.32727713780E+02  0.13123539657E+02  0.98668696572E+02  0.10477997054E+03  0.00000000000E+00 0. -1.
</event>
<event>
 4    1  0.2134315E+005  0.2385529E+02  0.7546771E-02  0.1482029E+00
          2   -1    0    0  503    0  0.00000000000E+00  0.00000000000E+00  0.95102259783E+03  0.95102259783E+03  0.00000000000E+00 0.  1.
         21   -1    0    0  501  502 -0.00000000000E+00 -0.00000000000E+00 -0.15802514357E+01  0.15802514357E+01  0.00000000000E+00 0.  1.
          2    1    1    2  501    0  0.59539777762E+01  0.23100320438E+02  0.85016562327E+03  0.85050024200E+03  0.00000000000E+00 0.  1.
         21    1    1    2  503  502 -0.59539777762E+01 -0.23100320438E+02  0.99276723120E+02  0.10210260726E+03  0.00000000000E+00 0.  1.
</event>
<event>
 4    1  0.2134315E+005  0.3649782E+02  0.7546771E-02  0.1370328E+00
          2   -1    0    0  503    0  0.00000000000E+00  0.00000000000E+00  0.79079493530E+03  0.79079493530E+03  0.00000000000E+00 0. -1.
         21   -1    0    0  501  502 -0.00000000000E+00 -0.00000000000E+00 -0.44450297219E+02  0.44450297219E+02  0.00000000000E+00 0.  1.
          2    1    1    2  501    0 -0.19402858293E+02 -0.30913103632E+02  0.78280536208E+03  0.78365574444E+03  0.00000000000E+00 0. -1.
         21    1    1    2  503  502  0.19402858293E+02  0.30913103632E+02 -0.36460723999E+02  0.51589488083E+02  0.00000000000E+00 0.  1.
</event>
<event>
 4    1  0.2134315E+005  0.2337828E+02  0.7546771E-02  0.1487802E+00
          2   -1    0    0  503    0  0.00000000000E+00  0.00000000000E+00  0.69822828332E+03  0.69822828332E+03  0.00000000000E+00 0. -1.
         21   -1    0    0  501  502 -0.00000000000E+00 -0.00000000000E+00 -0.12699186618E+01  0.12699186618E+01  0.00000000000E+00 0.  1.
          2    1    1    2  501    0 -0.13725152255E+02  0.18925220545E+02  0.56510227830E+03  0.56558565109E+03  0.00000000000E+00 0. -1.
         21    1    1    2  503  502  0.13725152255E+02 -0.18925220545E+02  0.13185608636E+03  0.13391255089E+03  0.00000000000E+00 0.  1.
</event>
<event>
 4    1  0.2134315E+005  0.4411049E+02  0.7546771E-02  0.1325948E+00
          2   -1    0    0  503    0  0.00000000000E+00  0.00000000000E+00  0.51380911515E+03  0.51380911515E+03  0.00000000000E+00 0. -1.
         21   -1    0    0  501  502 -0.00000000000E+00 -0.00000000000E+00 -0.42164031416E+02  0.42164031416E+02  0.00000000000E+00 0.  1.
          2    1    1    2  501    0 -0.44109527164E+02  0.29215307945E+00  0.50103205524E+03  0.50297003501E+03  0.00000000000E+00 0. -1.
         21    1    1    2  503  502  0.44109527164E+02 -0.29215307945E+00 -0.29386971508E+02  0.53003111555E+02  0.00000000000E+00 0.  1.
</event>
<event>
 4    1  0.2134315E+005  0.2276336E+02  0.7546771E-02  0.1495491E+00
          2   -1    0    0  503    0  0.00000000000E+00  0.00000000000E+00  0.11525609068E+04  0.11525609068E+04  0.00000000000E+00 0. -1.
         21   -1    0    0  501  502 -0.00000000000E+00 -0.00000000000E+00 -0.38685163980E+01  0.38685163980E+01  0.00000000000E+00 0. -1.
          2    1    1    2  501    0  0.18161547086E+02 -0.13723296052E+02  0.11179247311E+04  0.11181564626E+04  0.00000000000E+00 0. -1.
         21    1    1    2  503  502 -0.18161547086E+02  0.13723296052E+02  0.30767659293E+02  0.38272960500E+02  0.00000000000E+00 0. -1.
</event>
<event>
 4    1  0.2134315E+005  0.3126214E+02  0.7546771E-02  0.1408937E+00
          2   -1    0    0  503    0  0.00000000000E+00  0.00000000000E+00  0.51112500059E+03  0.51112500059E+03  0.00000000000E+00 0. -1.
         21   -1    0    0  501  502 -0.00000000000E+00 -0.00000000000E+00 -0.20430374430E+01  0.20430374430E+01  0.00000000000E+00 0. -1.
          2    1    1    2  501    0 -0.12509822910E+02 -0.28650053619E+02  0.18958394588E+03  0.19214420048E+03  0.00000000000E+00 0. -1.
         21    1    1    2  503  502  0.12509822910E+02  0.28650053619E+02  0.31949801727E+03  0.32102383756E+03  0.00000000000E+00 0. -1.
</event>
<event>
 4    1  0.2134315E+005  0.2441172E+02  0.7546771E-02  0.1475493E+00
          2   -1    0    0  503    0  0.00000000000E+00  0.00000000000E+00  0.47067362746E+03  0.47067362746E+03  0.00000000000E+00 0.  1.
         21   -1    0    0  501  502 -0.00000000000E+00 -0.00000000000E+00 -0.36721421779E+02  0.36721421779E+02  0.00000000000E+00 0.  1.
          2    1    1    2  501    0 -0.13731405688E+02  0.20183665214E+02  0.46626161879E+03  0.46690023453E+03  0.00000000000E+00 0.  1.
         21    1    1    2  503  502  0.13731405688E+02 -0.20183665214E+02 -0.32309413106E+02  0.40494814716E+02  0.00000000000E+00 0.  1.
</event>
<event>
 4    1  0.2134315E+005  0.2896047E+02  0.7546771E-02  0.1428850E+00
          2   -1    0    0  502    0  0.00000000000E+00  0.00000000000E+00  0.13986386678E+03  0.13986386678E+03  0.00000000000E+00 0. -1.
         21   -1    0    0  503  502 -0.00000000000E+00 -0.00000000000E+00 -0.70836332899E+01  0.70836332899E+01  0.00000000000E+00 0. -1.
          2    1    1    2  501    0 -0.67526175012E+01  0.28162221247E+02  0.95172339457E+02  0.99481067276E+02  0.00000000000E+00 0. -1.
         21    1    1    2  503  501  0.67526175012E+01 -0.28162221247E+02  0.37607894037E+02  0.47466432798E+02  0.00000000000E+00 0. -1.
</event>
<event>
 4    1  0.2134315E+005  0.2491537E+02  0.7546771E-02  0.1469752E+00
          2   -1    0    0  503    0  0.00000000000E+00  0.00000000000E+00  0.39769784381E+01  0.39769784381E+01  0.00000000000E+00 0. -1.
         21   -1    0    0  501  502 -0.00000000000E+00 -0.00000000000E+00 -0.19034589509E+03  0.19034589509E+03  0.00000000000E+00 0. -1.
          2    1    1    2  501    0 -0.20680363122E+02 -0.13895971520E+02 -0.51967524810E+02  0.57631580564E+02  0.00000000000E+00 0. -1.
         21    1    1    2  503  502  0.20680363122E+02  0.13895971520E+02 -0.13440139184E+03  0.13669129297E+03  0.00000000000E+00 0. -1.
</event>
<event>
 4    1  0.2134315E+005  0.2819261E+02  0.7546771E-02  0.1435982E+00
          2   -1    0    0  502    0  0.00000000000E+00  0.00000000000E+00  0.31660650732E+01  0.31660650732E+01  0.00000000000E+00 0.  1.
         21   -1    0    0  503  502 -0.00000000000E+00 -0.00000000000E+00 -0.37586612294E+03  0.37586612294E+03  0.00000000000E+00 0. -1.
          2    1    1    2  501    0 -0.24970782731E+01  0.28081808896E+02 -0.77137031904E+02  0.82127614611E+02  0.00000000000E+00 0.  1.
         21    1    1    2  503  501  0.24970782731E+01 -0.28081808896E+02 -0.29556302596E+03  0.29690457340E+03  0.00000000000E+00 0. -1.
</event>
<event>
 4    1  0.2134315E+005  0.4108326E+02  0.7546771E-02  0.1342252E+00
          2   -1    0    0  502    0  0.00000000000E+00  0.00000000000E+00  0.44183726656E+03  0.44183726656E+03  0.00000000000E+00 0. -1.
         21   -1    0    0  503  502 -0.00000000000E+00 -0.00000000000E+00 -0.10810076309E+02  0.10810076309E+02  0.00000000000E+00 0. -1.
          2    1    1    2  501    0 -0.35609365589E+02  0.20489206828E+02  0.39750690451E+03  0.39962429062E+03  0.00000000000E+00 0. -1.
         21    1    1    2  503  501  0.35609365589E+02 -0.20489206828E+02  0.33520285734E+02  0.53023052249E+02  0.00000000000E+00 0. -1.
</event>
<event>
 4    1  0.2134315E+005  0.2345823E+02  0.7546771E-02  0.1486823E+00
          2   -1    0    0  502    0  0.00000000000E+00  0.00000000000E+00  0.54341063634E+03  0.54341063634E+03  0.00000000000E+00 0. -1.
         21   -1    0    0  503  502 -0.00000000000E+00 -0.00000000000E+00 -0.29172315033E+01  0.29172315033E+01  0.00000000000E+00 0. -1.
          2    1    1    2  501    0 -0.15228949085E+02 -0.17842864355E+02  0.49096425418E+03  0.49152435095E+03  0.00000000000E+00 0. -1.
         21    1    1    2  503  501  0.15228949085E+02  0.17842864355E+02  0.49529150657E+02  0.54803516889E+02  0.00000000000E+00 0. -1.
</event>
<event>
 4    1  0.2134315E+005  0.4664890E+02  0.7546771E-02  0.1313394E+00
          2   -1    0    0  502    0  0.00000000000E+00  0.00000000000E+00  0.20877991826E+04  0.20877991826E+04  0.00000000000E+00 0.  1.
         21   -1    0    0  503  502 -0.00000000000E+00 -0.00000000000E+00 -0.12526600862E+01  0.12526600862E+01  0.00000000000E+00 0.  1.
          2    1    1    2  501    0 -0.40169038275E+02  0.23718526770E+02  0.61523678352E+03  0.61700277142E+03  0.00000000000E+00 0.  1.
         21    1    1    2  503  501  0.40169038275E+02 -0.23718526770E+02  0.14713097390E+04  0.14720490713E+04  0.00000000000E+00 0.  1.
</event>
<event>
 4    1  0.2134315E+005  0.2426719E+02  0.7546771E-02  0.1477171E+00
          2   -1    0    0  503    0  0.00000000000E+00  0.00000000000E+00  0.89218853236E+03  0.89218853236E+03  0.00000000000E+00 0. -1.
         21   -1    0    0  501  502 -0.00000000000E+00 -0.00000000000E+00 -0.46013410161E+01  0.46013410161E+01  0.00000000000E+00 0.  1.
          2    1    1    2  501    0  0.54691505002E+01 -0.23642863245E+02  0.85878325474E+03  0.85912605316E+03  0.00000000000E+00 0. -1.
         21    1    1    2  503  502 -0.54691505002E+01  0.23642863245E+02  0.28803936598E+02  0.37663820215E+02  0.00000000000E+00 0.  1.
</event>
<event>
 4    1  0.2134315E+005  0.3727337E+02  0.7546771E-02  0.1365250E+00
          2   -1    0    0  503    0  0.00000000000E+00  0.00000000000E+00  0.68656176785E+03  0.68656176785E+03  0.00000000000E+00 0. -1.
         21   -1    0    0  501  502 -0.00000000000E+00 -0.00000000000E+00 -0.29402293475E+02  0.29402293475E+02  0.00000000000E+00 0.  1.
          2    1    1    2  501    0 -0.35881288372E+02  0.10091454014E+02  0.67402340658E+03  0.67505322524E+03  0.00000000000E+00 0. -1.
         21    1    1    2  503  502  0.35881288372E+02 -0.10091454014E+02 -0.16863932204E+02  0.40910836080E+02  0.00000000000E+00 0.  1.
</event>
<event>
 4    1  0.2134315E+005  0.2301953E+02  0.7546771E-02  0.1492253E+00
          2   -1    0    0  503    0  0.00000000000E+00  0.00000000000E+00  0.11826831945E+03  0.11826831945E+03  0.00000000000E+00 0. -1.
         21   -1    0    0  501  502 -0.00000000000E+00 -0.00000000000E+00 -0.19757929221E+03  0.19757929221E+03  0.00000000000E+00 0.  1.
          2    1    1    2  501    0  0.20745367889E+02 -0.99763950811E+01  0.11646744282E+03  0.11872052891E+03  0.00000000000E+00 0. -1.
         21    1    1    2  503  502 -0.20745367889E+02  0.99763950811E+01 -0.19577841558E+03  0.19712708275E+03  0.00000000000E+00 0.  1.
</event>
<event>
 4    1  0.2134315E+005  0.2134397E+02  0.7546771E-02  0.1514410E+00
          2   -1    0    0  502    0  0.00000000000E+00  0.00000000000E+00  0.22718016822E+02  0.22718016822E+02  0.00000000000E+00 0.  1.
         21   -1    0    0  503  502 -0.00000000000E+00 -0.00000000000E+00 -0.24281297568E+02  0.24281297568E+02  0.00000000000E+00 0.  1.
          2    1    1    2  501    0 -0.21338945232E+02 -0.46299431217E+00  0.90247029978E+01  0.23173480782E+02  0.00000000000E+00 0.  1.
         21    1    1    2  503  501  0.21338945232E+02  0.46299431217E+00 -0.10587983744E+02  0.23825833608E+02  0.00000000000E+00 0.  1.
</event>
<event>
 4    1  0.2134315E+005  0.4880424E+02  0.7546771E-02  0.1303442E+00
          2   -1    0    0  502    0  0.00000000000E+00  0.00000000000E+00  0.53689955846E+03  0.53689955846E+03  0.00000000000E+00 0.  1.
         21   -1    0    0  503  502 -0.00000000000E+00 -0.00000000000E+00 -0.39045241693E+02  0.39045241693E+02  0.00000000000E+00 0.  1.
          2    1    1    2  501    0 -0.20349173266E+02  0.44359496820E+02  0.52004674537E+03  0.52233176352E+03  0.00000000000E+00 0.  1.
         21    1    1    2  503  501  0.20349173266E+02 -0.44359496820E+02 -0.22192428598E+02  0.53613036640E+02  0.00000000000E+00 0.  1.
</event>
<event>
 4    1  0.2134315E+005  0.3700741E+02  0.7546771E-02  0.1366975E+00
          2   -1    0    0  502    0  0.00000000000E+00  0.00000000000E+00  0.17062792785E+04  0.17062792785E+04  0.00000000000E+00 0. -1.
         21   -1    0    0  503  502 -0.00000000000E+00 -0.00000000000E+00 -0.81001543405E+00  0.81001543405E+00  0.00000000000E+00 0. -1.
          2    1    1    2  501    0 -0.32054005109E+02  0.18495652907E+02  0.77135405632E+03  0.77224130206E+03  0.00000000000E+00 0. -1.
         21    1    1    2  503  501  0.32054005109E+02 -0.18495652907E+02  0.93411520677E+03  0.93484799189E+03  0.00000000000E+00 0. -1.
</event>
<event>
 4    1  0.2134315E+005  0.2041037E+02  0.7546771E-02  0.1527852E+00
          2   -1    0    0  503    0  0.00000000000E+00  0.00000000000E+00  0.16131556897E+02  0.16131556897E+02  0.00000000000E+00 0.  1.
         21   -1    0    0  501  502 -0.00000000000E+00 -0.00000000000E+00 -0.13631430813E+03  0.13631430813E+03  0.00000000000E+00 0.  1.
          2    1    1    2  501    0 -0.12353544285E+02 -0.16247253800E+02  0.85327433457E+01  0.22122183921E+02  0.00000000000E+00 0.  1.
         21    1    1    2  503  502  0.12353544285E+02  0.16247253800E+02 -0.12871549458E+03  0.13032368111E+03  0.00000000000E+00 0.  1.
</event>
<event>
 4    1  0.2134315E+005  0.2322525E+02  0.7546771E-02  0.1489689E+00
          2   -1    0    0  503    0  0.00000000000E+00  0.00000000000E+00  0.34760449805E+03  0.34760449805E+03  0.00000000000E+00 0.  1.
         21   -1    0    0  501  502 -0.00000000000E+00 -0.00000000000E+00 -0.29327352044E+01  0.29327352044E+01  0.00000000000E+00 0.  1.
          2    1    1    2  501    0  0.17341483514E+01  0.23160421479E+02  0.29260510403E+03  0.29352539805E+03  0.00000000000E+00 0.  1.
         21    1    1    2  503  502 -0.17341483514E+01 -0.23160421479E+02  0.52066658810E+02  0.57011835203E+02  0.00000000000E+00 0.  1.
</event>
<event>
 4    1  0.2134315E+005  0.5165043E+02  0.7546771E-02  0.1291171E+00
          2   -1    0    0  503    0  0.00000000000E+00  0.00000000000E+00  0.15167882895E+04  0.15167882895E+04  0.00000000000E+00 0. -1.
         21   -1    0    0  501  502 -0.00000000000E+00 -0.00000000000E+00 -0.71235420644E+02  0.71235420644E+02  0.00000000000E+00 0.  1.
          2    1    1    2  501    0  0.47972471981E+02  0.19141816382E+02  0.15069248168E+04  0.15078097263E+04  0.00000000000E+00 0. -1.
         21    1    1    2  503  502 -0.47972471981E+02 -0.19141816382E+02 -0.61371947977E+02  0.80213983824E+02  0.00000000000E+00 0.  1.
</event>
<event>
 4    1  0.2134315E+005  0.2075967E+02  0.7546771E-02  0.1522724E+00
          2   -1    0    0  502    0  0.00000000000E+00  0.00000000000E+00  0.27485927196E+03  0.27485927196E+03  0.00000000000E+00 0.  1.
         21   -1    0    0  503  502 -0.00000000000E+00 -0.00000000000E+00 -0.25374836106E+01  0.25374836106E+01  0.00000000000E+00 0.  1.
          2    1    1    2  501    0 -0.19507743361E+02 -0.71001311758E+01  0.22189479093E+03  0.22286377489E+03  0.00000000000E+00 0.  1.
         21    1    1    2  503  501  0.19507743361E+02  0.71001311758E+01  0.50426997413E+02  0.54532980680E+02  0.00000000000E+00 0.  1.
</event>
<event>
 4    1  0.2134315E+005  0.2106363E+02  0.7546771E-02  0.1518358E+00
          2   -1    0    0  502    0  0.00000000000E+00  0.00000000000E+00  0.29430337907E+02  0.29430337907E+02  0.00000000000E+00 0. -1.
         21   -1    0    0  503  502 -0.00000000000E+00 -0.00000000000E+00 -0.13987191568E+03  0.13987191568E+03  0.00000000000E+00 0.  1.
          2    1    1    2  501    0 -0.20827360284E+02 -0.31460142561E+01  0.24738436885E+02  0.32491023401E+02  0.00000000000E+00 0. -1.
         21    1    1    2  503  501  0.20827360284E+02  0.31460142561E+01 -0.13518001465E+03  0.13681123018E+03  0.00000000000E+00 0.  1.
</event>
<event>
 4    1  0.2134315E+005  0.2617284E+02  0.7546771E-02  0.1456099E+00
          2   -1    0    0  503    0  0.00000000000E+00  0.00000000000E+00  0.78639513269E+02  0.78639513269E+02  0.00000000000E+00 0.  1.
         21   -1    0    0  501  502 -0.00000000000E+00 -0.00000000000E+00 -0.12220037472E+02  0.12220037472E+02  0.00000000000E+00 0.  1.
          2    1    1    2  501    0 -0.13600690739E+02 -0.22361542161E+02  0.57554600542E+02  0.63226176540E+02  0.00000000000E+00 0.  1.
         21    1    1    2  503  502  0.13600690739E+02  0.22361542161E+02  0.88648752554E+01  0.27633374201E+02  0.00000000000E+00 0.  1.
</event>
<event>
 4    1  0.2134315E+005  0.2309621E+02  0.7546771E-02  0.1491294E+00
          2   -1    0    0  503    0  0.00000000000E+00  0.00000000000E+00  0.26973729911E+02  0.26973729911E+02  0.00000000000E+00 0. -1.
         21   -1    0    0  501  502 -0.00000000000E+00 -0.00000000000E+00 -0.41187372214E+03  0.41187372214E+03  0.00000000000E+00 0. -1.
          2    1    1    2  501    0 -0.22758827539E+02  0.39333039096E+01  0.21641121330E+02  0.31650801617E+02  0.00000000000E+00 0. -1.
         21    1    1    2  503  502  0.22758827539E+02 -0.39333039096E+01 -0.40654111356E+03  0.40719665044E+03  0.00000000000E+00 0. -1.
</event>
<event>
 4    1  0.2134315E+005  0.2081914E+02  0.7546771E-02  0.1521863E+00
          2   -1    0    0  502    0  0.00000000000E+00  0.00000000000E+00  0.75794312349E+03  0.75794312349E+03  0.00000000000E+00 0.  1.
         21   -1    0    0  503  502 -0.00000000000E+00 -0.00000000000E+00 -0.69592695480E+00  0.69592695480E+00  0.00000000000E+00 0.  1.
          2    1    1    2  501    0 -0.20203881492E+02 -0.50239247640E+01  0.53878323083E+03  0.53918531737E+03  0.00000000000E+00 0.  1.
         21    1    1    2  503  501  0.20203881492E+02  0.50239247640E+01  0.21846396570E+03  0.21945373307E+03  0.00000000000E+00 0.  1.
</event>
<event>
 4    1  0.2134315E+005  0.2301559E+02  0.7546771E-02  0.1492302E+00
          2   -1    0    0  502    0  0.00000000000E+00  0.00000000000E+00  0.46023472627E+03  0.46023472627E+03  0.00000000000E+00 0.  1.
         21   -1    0    0  503  502 -0.00000000000E+00 -0.00000000000E+00 -0.12552970055E+01  0.12552970055E+01  0.00000000000E+00 0.  1.
          2    1    1    2  501    0 -0.35066313949E+01  0.22746890858E+02  0.29600971904E+03  0.29690313449E+03  0.00000000000E+00 0.  1.
         21    1    1    2  503  501  0.35066313949E+01 -0.22746890858E+02  0.16296971023E+03  0.16458688879E+03  0.00000000000E+00 0.  1.
</event>
<event>
 4    1  0.2134315E+005  0.2415771E+02  0.7546771E-02  0.1478451E+00
          2   -1    0    0  503    0  0.00000000000E+00  0.00000000000E+00  0.13223662329E+04  0.13223662329E+04  0.00000000000E+00 0. -1.
         21   -1    0    0  501  502 -0.00000000000E+00 -0.00000000000E+00 -0.60737806640E+02  0.60737806640E+02  0.00000000000E+00 0. -1.
          2    1    1    2  501    0 -0.10646694281E+02 -0.21685086353E+02  0.13198492128E+04  0.13200702783E+04  0.00000000000E+00 0. -1.
         21    1    1    2  503  502  0.10646694281E+02  0.21685086353E+02 -0.58220786557E+02  0.63033761244E+02  0.00000000000E+00 0. -1.
</event>
<event>
 4    1  0.2134315E+005  0.2036338E+02  0.7546771E-02  0.1528551E+00
          2   -1    0    0  502    0  0.00000000000E+00  0.00000000000E+00  0.59778905266E+00  0.59778905266E+00  0.00000000000E+00 0. -1.
         21   -1    0    0  503  502 -0.00000000000E+00 -0.00000000000E+00 -0.97728679044E+03  0.97728679044E+03  0.00000000000E+00 0.  1.
          2    1    1    2  501    0 -0.17068293769E+02  0.11105881449E+02 -0.22494561318E+03  0.22586543813E+03  0.00000000000E+00 0. -1.
         21    1    1    2  503  501  0.17068293769E+02 -0.11105881449E+02 -0.75174338821E+03  0.75201914136E+03  0.00000000000E+00 0.  1.
</event>
<event>
 4    1  0.2134315E+005  0.4040544E+02  0.7546771E-02  0.1346126E+00
          2   -1    0    0  502    0  0.00000000000E+00  0.00000000000E+00  0.15504580989E+04  0.15504580989E+04  0.00000000000E+00 0. -1.
         21   -1    0    0  503  502 -0.00000000000E+00 -0.00000000000E+00 -0.72898622741E+02  0.72898622741E+02  0.00000000000E+00 0.  1.
          2    1    1    2  501    0  0.31236276980E+02  0.25629953362E+02  0.15445746616E+04  0.15451030661E+04  0.00000000000E+00 0. -1.
         21    1    1    2  503  501 -0.31236276980E+02 -0.25629953362E+02 -0.67015185518E+02  0.78253655499E+02  0.00000000000E+00 0.  1.
</event>
<event>
 4    1  0.2134315E+005  0.3348044E+02  0.7546771E-02  0.1391573E+00
          2   -1    0    0  502    0  0.00000000000E+00  0.00000000000E+00  0.16583992297E+03  0.16583992297E+03  0.00000000000E+00 0.  1.
         21   -1    0    0  503  502 -0.00000000000E+00 -0.00000000000E+00 -0.82168468855E+02  0.82168468855E+02  0.00000000000E+00 0. -1.
          2    1    1    2  501    0  0.19937065561E+02  0.26897087973E+02  0.16063020140E+03  0.16408230108E+03  0.00000000000E+00 0.  1.
         21    1    1    2  503  501 -0.19937065561E+02 -0.26897087973E+02 -0.76958747286E+02  0.83926090749E+02  0.00000000000E+00 0. -1.
</event>
<event>
 4    1  0.2134315E+005  0.2154516E+02  0.7546771E-02  0.1511622E+00
          2   -1    0    0  502    0  0.00000000000E+00  0.00000000000E+00  0.14326092936E+04  0.14326092936E+04  0.00000000000E+00 0. -1.
         21   -1    0    0  503  502 -0.00000000000E+00 -0.00000000000E+00 -0.29288282837E+01  0.29288282837E+01  0.00000000000E+00 0. -1.
          2    1    1    2  501    0 -0.63373720110E+01 -0.20592024757E+02  0.13917420480E+04  0.13919088052E+04  0.00000000000E+00 0. -1.
         21    1    1    2  503  501  0.63373720110E+01  0.20592024757E+02  0.37938417321E+02  0.43629316708E+02  0.00000000000E+00 0. -1.
</event>
<event>
 4    1  0.2134315E+005  0.2082631E+02  0.7546771E-02  0.1521759E+00
          2   -1    0    0  502    0  0.00000000000E+00  0.00000000000E+00  0.68091676238E+03  0.68091676238E+03  0.00000000000E+00 0. -1.
         21   -1    0    0  503  502 -0.00000000000E+00 -0.00000000000E+00 -0.19126070977E+01  0.19126070977E+01  0.00000000000E+00 0. -1.
          2    1    1    2  501    0  0.17894128217E+01  0.20749294093E+02  0.61832596145E+03  0.61867659549E+03  0.00000000000E+00 0. -1.
         21    1    1    2  503  501 -0.17894128217E+01 -0.20749294093E+02  0.60678193836E+02  0.64152773991E+02  0.00000000000E+00 0. -1.
</event>
<event>
 4    1  0.2134315E+005  0.2078837E+02  0.7546771E-02  0.1522308E+00
          2   -1    0    0  503    0  0.00000000000E+00  0.00000000000E+00  0.36712444631E+03  0.36712444631E+03  0.00000000000E+00 0. -1.
         21   -1    0    0  501  502 -0.00000000000E+00 -0.00000000000E+00 -0.62423158285E+02  0.62423158285E+02  0.00000000000E+00 0.  1.
          2    1    1    2  501    0  0.18883141524E+02 -0.86938750860E+01  0.36508976983E+03  0.36568114052E+03  0.00000000000E+00 0. -1.
         21    1    1    2  503  502 -0.18883141524E+02  0.86938750860E+01 -0.60388481808E+02  0.63866464071E+02  0.00000000000E+00 0.  1.
</event>
<event>
 4    1  0.2134315E+005  0.2641738E+02  0.7546771E-02  0.1453550E+00
          2   -1    0    0  503    0  0.00000000000E+00  0.00000000000E+00  0.21964997213E+03  0.21964997213E+03  0.00000000000E+00 0. -1.
         21   -1    0    0  501  502 -0.00000000000E+00 -0.00000000000E+00 -0.20996733157E+02  0.20996733157E+02  0.00000000000E+00 0.  1.
          2    1    1    2  501    0  0.25762331364E+02  0.58463788031E+01  0.21017309524E+03  0.21182683453E+03  0.00000000000E+00 0. -1.
         21    1    1    2  503  502 -0.25762331364E+02 -0.58463788031E+01 -0.11519856266E+02  0.28819870763E+02  0.00000000000E+00 0.  1.
</event>
<event>
 4    1  0.2134315E+005  0.2082080E+02  0.7546771E-02  0.1521839E+00
          2   -1    0    0  503    0  0.00000000000E+00  0.00000000000E+00  0.57325026423E+01  0.57325026423E+01  0.00000000000E+00 0. -1.
         21   -1    0    0  501  502 -0.00000000000E+00 -0.00000000000E+00 -0.77028518227E+02  0.77028518227E+02  0.00000000000E+00 0. -1.
          2    1    1    2  501    0 -0.20621966962E+02  0.28705585289E+01 -0.41238891467E+02  0.46196880815E+02  0.00000000000E+00 0. -1.
         21    1    1    2  503  502  0.20621966962E+02 -0.28705585289E+01 -0.30057124118E+02  0.36564140054E+02  0.00000000000E+00 0. -1.
</event>
<event>
 4    1  0.2134315E+005  0.3062006E+02  0.7546771E-02  0.1414283E+00
          2   -1    0    0  503    0  0.00000000000E+00  0.00000000000E+00  0.51365190526E+03  0.51365190526E+03  0.00000000000E+00 0.  1.
         21   -1    0    0  501  502 -0.00000000000E+00 -0.00000000000E+00 -0.25734381768E+03  0.25734381768E+03  0.00000000000E+00 0. -1.
          2    1    1    2  501    0  0.27477892256E+02 -0.13511241095E+02  0.51228230561E+03  0.51319659863E+03  0.00000000000E+00 0.  1.
         21    1    1    2  503  502 -0.27477892256E+02  0.13511241095E+02 -0.25597421803E+03  0.25779912431E+03  0.00000000000E+00 0. -1.
</event>
<event>
 4    1  0.2134315E+005  0.2963962E+02  0.7546771E-02  0.1422754E+00
          2   -1    0    0  503    0  0.00000000000E+00  0.00000000000E+00  0.28201199596E+03  0.28201199596E+03  0.00000000000E+00 0. -1.
         21   -1    0    0  501  502 -0.00000000000E+00 -0.00000000000E+00 -0.67312324065E+02  0.67312324065E+02  0.00000000000E+00 0. -1.
          2    1    1    2  501    0  0.48089644935E+00  0.29635721593E+02  0.27792253375E+03  0.27949855459E+03  0.00000000000E+00 0. -1.
         21    1    1    2  503  502 -0.48089644935E+00 -0.29635721593E+02 -0.63222861858E+02  0.69825765425E+02  0.00000000000E+00 0. -1.
</event>
<event>
 4    1  0.2134315E+005  0.2412271E+02  0.7546771E-02  0.1478862E+00
          2   -1    0    0  502    0  0.00000000000E+00  0.00000000000E+00  0.40665987924E+02  0.40665987924E+02  0.00000000000E+00 0. -1.
         21   -1    0    0  503  502 -0.00000000000E+00 -0.00000000000E+00 -0.29425851883E+02  0.29425851883E+02  0.00000000000E+00 0. -1.
          2    1    1    2  501    0  0.13084906481E+02 -0.20265495976E+02  0.30738825409E+02  0.39074038598E+02  0.00000000000E+00 0. -1.
         21    1    1    2  503  501 -0.13084906481E+02  0.20265495976E+02 -0.19498689368E+02  0.31017801209E+02  0.00000000000E+00 0. -1.
</event>
<event>
 4    1  0.2134315E+005  0.2948406E+02  0.7546771E-02  0.1424134E+00
          2   -1    0    0  502    0  0.00000000000E+00  0.00000000000E+00  0.18837860311E+03  0.18837860311E+03  0.00000000000E+00 0.  1.
         21   -1    0    0  503  502 -0.00000000000E+00 -0.00000000000E+00 -0.38309606700E+02  0.38309606700E+02  0.00000000000E+00 0. -1.
          2    1    1    2  501    0  0.28115708429E+01 -0.29349703250E+02  0.18133302471E+03  0.18371438665E+03  0.00000000000E+00 0.  1.
         21    1    1    2  503  501 -0.28115708429E+01  0.29349703250E+02 -0.31264028301E+02  0.42973823161E+02  0.00000000000E+00 0. -1.
</event>
<event>
 4    1  0.2134315E+005  0.2115806E+02  0.7546771E-02  0.1517020E+00
          2   -1    0    0  502    0  0.00000000000E+00  0.00000000000E+00  0.63537120530E+03  0.63537120530E+03  0.00000000000E+00 0. -1.
         21   -1    0    0  503  502 -0.00000000000E+00 -0.00000000000E+00 -0.15785935855E+02  0.15785935855E+02  0.00000000000E+00 0. -1.
          2    1    1    2  501    0 -0.13655169243E+02 -0.16161672823E+02  0.62802253810E+03  0.62837884407E+03  0.00000000000E+00 0. -1.
         21    1    1    2  503  501  0.13655169243E+02  0.16161672823E+02 -0.84372686582E+01  0.22778297081E+02  0.00000000000E+00 0. -1.
</event>
<event>
 4    1  0.2134315E+005  0.5055142E+02  0.7546771E-02  0.1295799E+00
          2   -1    0    0  502    0  0.00000000000E+00  0.00000000000E+00  0.22021095414E+04  0.22021095414E+04  0.00000000000E+00 0.  1.
         21   -1    0    0  503  502 -0.00000000000E+00 -0.00000000000E+00 -0.34730789792E+02  0.34730789792E+02  0.00000000000E+00 0.  1.
          2    1    1    2  501    0 -0.10949258875E+02  0.49351388803E+02  0.21832660157E+04  0.21838511719E+04  0.00000000000E+00 0.  1.
         21    1    1    2  503  501  0.10949258875E+02 -0.49351388803E+02 -0.15887264033E+02  0.52989159317E+02  0.00000000000E+00 0.  1.
</event>
<event>
 4    1  0.2134315E+005  0.2372078E+02  0.7546771E-02  0.1483640E+00
          2   -1    0    0  502    0  0.00000000000E+00  0.00000000000E+00  0.13093858013E+04  0.13093858013E+04  0.00000000000E+00 0. -1.
         21   -1    0    0  503  502 -0.00000000000E+00 -0.00000000000E+00 -0.92054222480E+01  0.92054222480E+01  0.00000000000E+00 0.  1.
          2    1    1    2  501    0  0.21665307152E+02 -0.96586572745E+01  0.12938133811E+04  0.12940308112E+04  0.00000000000E+00 0. -1.
         21    1    1    2  503  501 -0.21665307152E+02  0.96586572745E+01  0.63669980077E+01  0.24560412414E+02  0.00000000000E+00 0.  1.
</event>
<event>
 4    1  0.2134315E+005  0.2142046E+02  0.7546771E-02  0.1513346E+00
          2   -1    0    0  502    0  0.00000000000E+00  0.00000000000E+00  0.61951538824E+03  0.61951538824E+03  0.00000000000E+00 0. -1.
         21   -1    0    0  503  502 -0.00000000000E+00 -0.00000000000E+00 -0.45678093356E+01  0.45678093356E+01  0.00000000000E+00 0. -1.
          2    1    1    2  501    0 -0.40403116390E+00  0.21416649442E+02  0.59309964027E+03  0.59348632622E+03  0.00000000000E+00 0. -1.
         21    1    1    2  503  501  0.40403116390E+00 -0.21416649442E+02  0.21847938632E+02  0.30596871359E+02  0.00000000000E+00 0. -1.
</event>
<event>
 4    1  0.2134315E+005  0.2310742E+02  0.7546771E-02  0.1491154E+00
          2   -1    0    0  503    0  0.00000000000E+00  0.00000000000E+00  0.14610726304E+02  0.14610726304E+02  0.00000000000E+00 0.  1.
         21   -1    0    0  501  502 -0.00000000000E+00 -0.00000000000E+00 -0.20817022706E+03  0.20817022706E+03  0.00000000000E+00 0.  1.
          2    1    1    2  501    0 -0.10286301786E+02 -0.20691661622E+02  0.43616544520E+01  0.23515460758E+02  0.00000000000E+00 0.  1.
         21    1    1    2  503  502  0.10286301786E+02  0.20691661622E+02 -0.19792115521E+03  0.19926549261E+03  0.00000000000E+00 0.  1.
</event>
<event>
 4    1  0.2134315E+005  0.2302371E+02  0.7546771E-02  0.1492201E+00
          2   -1    0    0  502    0  0.00000000000E+00  0.00000000000E+00  0.19669227250E+02  0.19669227250E+02  0.00000000000E+00 0.  1.
         21   -1    0    0  503  502 -0.00000000000E+00 -0.00000000000E+00 -0.27018769238E+02  0.27018769238E+02  0.00000000000E+00 0.  1.
          2    1    1    2  501    0  0.20462394741E+02 -0.10553755553E+02 -0.24995332473E+01  0.23158994393E+02  0.00000000000E+00 0.  1.
         21    1    1    2  503  501 -0.20462394741E+02  0.10553755553E+02 -0.48500087398E+01  0.23529002095E+02  0.00000000000E+00 0.  1.
</event>
<event>
 4    1  0.2134315E+005  0.2084857E+02  0.7546771E-02  0.1521438E+00
          2   -1    0    0  503    0  0.00000000000E+00  0.00000000000E+00  0.16298714216E+03  0.16298714216E+03  0.00000000000E+00 0.  1.
         21   -1    0    0  501  502 -0.00000000000E+00 -0.00000000000E+00 -0.69949954586E+01  0.69949954586E+01  0.00000000000E+00 0. -1.
          2    1    1    2  501    0  0.70516120711E+01  0.19619828808E+02  0.14485051939E+03  0.14634321263E+03  0.00000000000E+00 0.  1.
         21    1    1    2  503  502 -0.70516120711E+01 -0.19619828808E+02  0.11141627302E+02  0.23638924980E+02  0.00000000000E+00 0. -1.
</event>
<event>
 4    1  0.2134315E+005  0.2404062E+02  0.7546771E-02  0.1479829E+00
          2   -1    0    0  503    0  0.00000000000E+00  0.00000000000E+00  0.39909506428E+03  0.39909506428E+03  0.00000000000E+00 0.  1.
         21   -1    0    0  501  502 -0.00000000000E+00 -0.00000000000E+00 -0.29301114643E+03  0.29301114643E+03  0.00000000000E+00 0.  1.
          2    1    1    2  501    0 -0.10718101166E+02 -0.21519150994E+02  0.39823885231E+03  0.39896382674E+03  0.00000000000E+00 0.  1.
         21    1    1    2  503  502  0.10718101166E+02  0.21519150994E+02 -0.29215493446E+03  0.29314238397E+03  0.00000000000E+00 0.  1.
</event>
<event>
 4    1  0.2134315E+005  0.2500580E+02  0.7546771E-02  0.1468739E+00
          2   -1    0    0  502    0  0.00000000000E+00  0.00000000000E+00  0.62593290497E+02  0.62593290497E+02  0.00000000000E+00 0.  1.
         21   -1    0    0  503  502 -0.00000000000E+00 -0.00000000000E+00 -0.22944919652E+02  0.22944919652E+02  0.00000000000E+00 0. -1.
          2    1    1    2  501    0  0.39098080814E+01 -0.24698246862E+02  0.51961441976E+02  0.57665253399E+02  0.00000000000E+00 0.  1.
         21    1    1    2  503  501 -0.39098080814E+01  0.24698246862E+02 -0.12313071132E+02  0.27872956750E+02  0.00000000000E+00 0. -1.
</event>
<event>
 4    1  0.2134315E+005  0.3416474E+02  0.7546771E-02  0.1386532E+00
          2   -1    0    0  502    0  0.00000000000E+00  0.00000000000E+00  0.18003594065E+03  0.18003594065E+03  0.00000000000E+00 0.  1.
         21   -1    0    0  503  502 -0.00000000000E+00 -0.00000000000E+00 -0.94605094730E+01  0.94605094730E+01  0.00000000000E+00 0. -1.
          2    1    1    2  501    0  0.24303859564E+02 -0.24011500735E+02  0.13843944567E+03  0.14259281144E+03  0.00000000000E+00 0.  1.
         21    1    1    2  503  501 -0.24303859564E+02  0.24011500735E+02  0.32135985513E+02  0.46903638688E+02  0.00000000000E+00 0. -1.
</event>
<event>
 4    1  0.2134315E+005  0.2806740E+02  0.7546771E-02  0.1437171E+00
          2   -1    0    0  502    0  0.00000000000E+00  0.00000000000E+00  0.14623983229E+04  0.14623983229E+04  0.00000000000E+00 0. -1.
         21   -1    0    0  503  502 -0.00000000000E+00 -0.00000000000E+00 -0.23378157897E+01  0.23378157897E+01  0.00000000000E+00 0. -1.
          2    1    1    2  501    0 -0.66357714699E+01 -0.27271695379E+02  0.13725035254E+04  0.13727904815E+04  0.00000000000E+00 0. -1.
         21    1    1    2  503  501  0.66357714699E+01  0.27271695379E+02  0.87556981713E+02  0.91945657203E+02  0.00000000000E+00 0. -1.
</event>
<event>
 4    1  0.2134315E+005  0.5780536E+02  0.7546771E-02  0.1267477E+00
          2   -1    0    0  503    0  0.00000000000E+00  0.00000000000E+00  0.31396298316E+04  0.31396298316E+04  0.00000000000E+00 0.  1.
         21   -1    0    0  501  502 -0.00000000000E+00 -0.00000000000E+00 -0.15695647977E+01  0.15695647977E+01  0.00000000000E+00 0. -1.
          2    1    1    2  501    0 -0.46130163489E+02  0.34834866991E+02  0.24601620284E+04  0.24608410485E+04  0.00000000000E+00 0.  1.
         21    1    1    2  503  502  0.46130163489E+02 -0.34834866991E+02  0.67789823845E+03  0.68035834795E+03  0.00000000000E+00 0. -1.
</event>
<event>
 4    1  0.2134315E+005  0.2226424E+02  0.7546771E-02  0.1501950E+00
          2   -1    0    0  503    0  0.00000000000E+00  0.00000000000E+00  0.85306630937E+03  0.85306630937E+03  0.00000000000E+00 0. -1.
         21   -1    0    0  501  502 -0.00000000000E+00 -0.00000000000E+00 -0.12450166295E+01  0.12450166295E+01  0.00000000000E+00 0. -1.
          2    1    1    2  501    0  0.14242824650E+02 -0.17112521715E+02  0.73784498005E+03  0.73818081189E+03  0.00000000000E+00 0. -1.
         21    1    1    2  503  502 -0.14242824650E+02  0.17112521715E+02  0.11397631269E+03  0.11613051411E+03  0.00000000000E+00 0. -1.
</event>
<event>
 4    1  0.2134315E+005  0.2200533E+02  0.7546771E-02  0.1505381E+00
          2   -1    0    0  502    0  0.00000000000E+00  0.00000000000E+00  0.18135151125E+03  0.18135151125E+03  0.00000000000E+00 0. -1.
         21   -1    0    0  503  502 -0.00000000000E+00 -0.00000000000E+00 -0.16318009745E+02  0.16318009745E+02  0.00000000000E+00 0. -1.
          2    1    1    2  501    0  0.17698158305E+02 -0.13077061423E+02  0.17290428059E+03  0.17429895177E+03  0.00000000000E+00 0. -1.
         21    1    1    2  503  501 -0.17698158305E+02  0.13077061423E+02 -0.78707790774E+01  0.23370569230E+02  0.00000000000E+00 0. -1.
</event>
<event>
 4    1  0.2134315E+005  0.3219430E+02  0.7546771E-02  0.1401439E+00
          2   -1    0    0  503    0  0.00000000000E+00  0.00000000000E+00  0.23205537984E+04  0.23205537984E+04  0.00000000000E+00 0.  1.
         21   -1    0    0  501  502 -0.00000000000E+00 -0.00000000000E+00 -0.44730052554E+00  0.44730052554E+00  0.00000000000E+00 0.  1.
          2    1    1    2  501    0  0.17996196412E+02 -0.26694750975E+02  0.12043470309E+04  0.12047772590E+04  0.00000000000E+00 0.  1.
         21    1    1    2  503  502 -0.17996196412E+02  0.26694750975E+02  0.11157594670E+04  0.11162238400E+04  0.00000000000E+00 0.  1.
</event>
<event>
 4    1  0.2134315E+005  0.2555411E+02  0.7546771E-02  0.1462699E+00
          2   -1    0    0  502    0  0.00000000000E+00  0.00000000000E+00  0.83271154660E+03  0.83271154660E+03  0.00000000000E+00 0. -1.
         21   -1    0    0  503  502 -0.00000000000E+00 -0.00000000000E+00 -0.42706602655E+02  0.42706602655E+02  0.00000000000E+00 0.  1.
          2    1    1    2  501    0  0.17306409934E+02 -0.18801614066E+02  0.82867420959E+03  0.82906812636E+03  0.00000000000E+00 0. -1.
         21    1    1    2  503  501 -0.17306409934E+02  0.18801614066E+02 -0.38669265645E+02  0.46350022889E+02  0.00000000000E+00 0.  1.
</event>
<event>
 4    1  0.2134315E+005  0.2716178E+02  0.7546771E-02  0.1445990E+00
          2   -1    0    0  502    0  0.00000000000E+00  0.00000000000E+00  0.10764961343E+04  0.10764961343E+04  0.00000000000E+00 0.  1.
         21   -1    0    0  503  502 -0.00000000000E+00 -0.00000000000E+00 -0.39300682564E+01  0.39300682564E+01  0.00000000000E+00 0.  1.
          2    1    1    2  501    0  0.25080784830E+02  0.10426710091E+02  0.10271394447E+04  0.10274985162E+04  0.00000000000E+00 0.  1.
         21    1    1    2  503  501 -0.25080784830E+02 -0.10426710091E+02  0.45426621387E+02  0.52927686343E+02  0.00000000000E+00 0.  1.
</event>
<event>
 4    1  0.2134315E+005  0.2394801E+02  0.7546771E-02  0.1480925E+00
          2   -1    0    0  502    0  0.00000000000E+00  0.00000000000E+00  0.28439860802E+03  0.28439860802E+03  0.00000000000E+00 0.  1.
         21   -1    0    0  503  502 -0.00000000000E+00 -0.00000000000E+00 -0.15508505577E+02  0.15508505577E+02  0.00000000000E+00 0. -1.
          2    1    1    2  501    0 -0.23325923587E+02 -0.54229391000E+01  0.27431006083E+03  0.27535343915E+03  0.00000000000E+00 0.  1.
         21    1    1    2  503  501  0.23325923587E+02  0.54229391000E+01 -0.54199583914E+01  0.24553674443E+02  0.00000000000E+00 0. -1.
</event>
<event>
 4    1  0.2134315E+005  0.2772490E+02  0.7546771E-02  0.1440459E+00
          2   -1    0    0  503    0  0.00000000000E+00  0.00000000000E+00  0.14701759795E+03  0.14701759795E+03  0.00000000000E+00 0.  1.
         21   -1    0    0  501  502 -0.00000000000E+00 -0.00000000000E+00 -0.55525556077E+03  0.55525556077E+03  0.00000000000E+00 0. -1.
          2    1    1    2  501    0 -0.96715435724E+01 -0.25983293000E+02  0.14536049340E+03  0.14798088834E+03  0.00000000000E+00 0.  1.
         21    1    1    2  503  502  0.96715435724E+01  0.25983293000E+02 -0.55359845622E+03  0.55429227038E+03  0.00000000000E+00 0. -1.
</event>
<event>
 4    1  0.2134315E+005  0.2378079E+02  0.7546771E-02  0.1482920E+00
          2   -1    0    0  503    0  0.00000000000E+00  0.00000000000E+00  0.43234661552E+03  0.43234661552E+03  0.00000000000E+00 0.  1.
         21   -1    0    0  501  502 -0.00000000000E+00 -0.00000000000E+00 -0.13796842317E+02  0.13796842317E+02  0.00000000000E+00 0.  1.
          2    1    1    2  501    0  0.23550227609E+02 -0.33034554091E+01  0.42150895721E+03  0.42217925937E+03  0.00000000000E+00 0.  1.
         21    1    1    2  503  502 -0.23550227609E+02  0.33034554091E+01 -0.29591840046E+01  0.23964198464E+02  0.00000000000E+00 0.  1.
</event>
<event>
 4    1  0.2134315E+005  0.2395341E+02  0.7546771E-02  0.1480861E+00
          2   -1    0    0  503    0  0.00000000000E+00  0.00000000000E+00  0.17954891315E+04  0.17954891315E+04  0.00000000000E+00 0. -1.
         21   -1    0    0  501  502 -0.00000000000E+00 -0.00000000000E+00 -0.30590468822E+01  0.30590468822E+01  0.00000000000E+00 0.  1.
          2    1    1    2  501    0 -0.50498096984E+01 -0.23415065929E+02  0.17472230635E+04  0.17473872495E+04  0.00000000000E+00 0. -1.
         21    1    1    2  503  502  0.50498096984E+01  0.23415065929E+02  0.45207021025E+02  0.51160928846E+02  0.00000000000E+00 0.  1.
</event>
<event>
 4    1  0.2134315E+005  0.2366603E+02  0.7546771E-02  0.1484300E+00
          2   -1    0    0  503    0  0.00000000000E+00  0.00000000000E+00  0.42753943590E+01  0.42753943590E+01  0.00000000000E+00 0. -1.
         21   -1    0    0  501  502 -0.00000000000E+00 -0.00000000000E+00 -0.15157566355E+03  0.15157566355E+03  0.00000000000E+00 0. -1.
          2    1    1    2  501    0  0.14315213696E+01 -0.23622694545E+02 -0.44940256073E+02  0.50790821679E+02  0.00000000000E+00 0. -1.
         21    1    1    2  503  502 -0.14315213696E+01  0.23622694545E+02 -0.10236001312E+03  0.10506023623E+03  0.00000000000E+00 0. -1.
</event>
<event>
 4    1  0.2134315E+005  0.2812783E+02  0.7546771E-02  0.1436596E+00
          2   -1    0    0  503    0  0.00000000000E+00  0.00000000000E+00  0.11505322270E+04  0.11505322270E+04  0.00000000000E+00 0.  1.
         21   -1    0    0  501  502 -0.00000000000E+00 -0.00000000000E+00 -0.13224342654E+01  0.13224342654E+01  0.00000000000E+00 0. -1.
          2    1    1    2  501    0 -0.32762188090E+01  0.27936377442E+02  0.97362093798E+03  0.97402715859E+03  0.00000000000E+00 0.  1.
         21    1    1    2  503  502  0.32762188090E+01 -0.27936377442E+02  0.17558885472E+03  0.17782750264E+03  0.00000000000E+00 0. -1.
</event>
<event>
 4    1  0.2134315E+005  0.2101155E+02  0.7546771E-02  0.1519100E+00
          2   -1    0    0  502    0  0.00000000000E+00  0.00000000000E+00  0.86669616287E+02  0.86669616287E+02  0.00000000000E+00 0.  1.
         21   -1    0    0  503  502 -0.00000000000E+00 -0.00000000000E+00 -0.37677912869E+02  0.37677912869E+02  0.00000000000E+00 0. -1.
          2    1    1    2  501    0 -0.22364811178E+00 -0.21010362594E+02  0.82314256741E+02  0.84953647465E+02  0.00000000000E+00 0.  1.
         21    1    1    2  503  501  0.22364811178E+00  0.21010362594E+02 -0.33322553322E+02  0.39393881691E+02  0.00000000000E+00 0. -1.
</event>
<event>
 4    1  0.2134315E+005  0.2661826E+02  0.7546771E-02  0.1451481E+00
          2   -1    0    0  503    0  0.00000000000E+00  0.00000000000E+00  0.20172030908E+03  0.20172030908E+03  0.00000000000E+00 0.  1.
         21   -1    0    0  501  502 -0.00000000000E+00 -0.00000000000E+00 -0.48317461649E+03  0.48317461649E+03  0.00000000000E+00 0. -1.
          2    1    1    2  501    0  0.23403715193E+02 -0.12680619099E+02  0.20047332439E+03  0.20223275150E+03  0.00000000000E+00 0.  1.
         21    1    1    2  503  502 -0.23403715193E+02  0.12680619099E+02 -0.48192763180E+03  0.48266217407E+03  0.00000000000E+00 0. -1.
</event>
<event>
 4    1  0.2134315E+005  0.2088092E+02  0.7546771E-02  0.1520972E+00
          2   -1    0    0  503    0  0.00000000000E+00  0.00000000000E+00  0.27617844212E+02  0.27617844212E+02  0.00000000000E+00 0.  1.
         21   -1    0    0  501  502 -0.00000000000E+00 -0.00000000000E+00 -0.12158244431E+03  0.12158244431E+03  0.00000000000E+00 0. -1.
          2    1    1    2  501    0 -0.49811568984E+01 -0.20278091838E+02  0.22606119067E+02  0.30774170207E+02  0.00000000000E+00 0.  1.
         21    1    1    2  503  502  0.49811568984E+01  0.20278091838E+02 -0.11657071916E+03  0.11842611831E+03  0.00000000000E+00 0. -1.
</event>
<event>
 4    1  0.2134315E+005  0.2141042E+02  0.7546771E-02  0.1513485E+00
          2   -1    0    0  503    0  0.00000000000E+00  0.00000000000E+00  0.13035386120E+04  0.13035386120E+04  0.00000000000E+00 0. -1.
         21   -1    0    0  501  502 -0.00000000000E+00 -0.00000000000E+00 -0.18815753433E+02  0.18815753433E+02  0.00000000000E+00 0. -1.
          2    1    1    2  501    0  0.20763715375E+02  0.52224569297E+01  0.12973308341E+04  0.12975074948E+04  0.00000000000E+00 0. -1.
         21    1    1    2  503  502 -0.20763715375E+02 -0.52224569297E+01 -0.12607975547E+02  0.24846870627E+02  0.00000000000E+00 0. -1.
</event>
<event>
 4    1  0.2134315E+005  0.2499152E+02  0.7546771E-02  0.1468898E+00
          2   -1    0    0  503    0  0.00000000000E+00  0.00000000000E+00  0.14572895766E+01  0.14572895766E+01  0.00000000000E+00 0.  1.
         21   -1    0    0  501  502 -0.00000000000E+00 -0.00000000000E+00 -0.76137249328E+03  0.76137249328E+03  0.00000000000E+00 0.  1.
          2    1    1    2  501    0  0.17583803379E+02 -0.17759113884E+02 -0.12779490293E+03  0.13021564223E+03  0.00000000000E+00 0.  1.
         21    1    1    2  503  502 -0.17583803379E+02  0.17759113884E+02 -0.63212030077E+03  0.63261414062E+03  0.00000000000E+00 0.  1.
</event>
<event>
 4    1  0.2134315E+005  0.3013222E+02  0.7546771E-02  0.1418451E+00
          2   -1    0    0  503    0  0.00000000000E+00  0.00000000000E+00  0.16833505066E+03  0.16833505066E+03  0.00000000000E+00 0. -1.
         21   -1    0    0  501  502 -0.00000000000E+00 -0.00000000000E+00 -0.15718468321E+03  0.15718468321E+03  0.00000000000E+00 0. -1.
          2    1    1    2  501    0  0.11374398289E+02 -0.27902933936E+02  0.16551816432E+03  0.16823856091E+03  0.00000000000E+00 0. -1.
         21    1    1    2  503  502 -0.11374398289E+02  0.27902933936E+02 -0.15436779687E+03  0.15728117296E+03  0.00000000000E+00 0. -1.
</event>
<event>
 4    1  0.2134315E+005  0.2019802E+02  0.7546771E-02  0.1531030E+00
          2   -1    0    0  503    0  0.00000000000E+00  0.00000000000E+00  0.47171095347E+03  0.47171095347E+03  0.00000000000E+00 0.  1.
         21   -1    0    0  501  502 -0.00000000000E+00 -0.00000000000E+00 -0.11754609989E+01  0.11754609989E+01  0.00000000000E+00 0.  1.
          2    1    1    2  501    0 -0.19910696118E+02  0.33947029938E+01  0.35681082706E+03  0.35738204507E+03  0.00000000000E+00 0.  1.
         21    1    1    2  503  502  0.19910696118E+02 -0.33947029938E+01  0.11372466541E+03  0.11550436940E+03  0.00000000000E+00 0.  1.
</event>
<event>
 4    1  0.2134315E+005  0.2384578E+02  0.7546771E-02  0.1482142E+00
          2   -1    0    0  502    0  0.00000000000E+00  0.00000000000E+00  0.10876825389E+02  0.10876825389E+02  0.00000000000E+00 0.  1.
         21   -1    0    0  503  502 -0.00000000000E+00 -0.00000000000E+00 -0.17337277013E+03  0.17337277013E+03  0.00000000000E+00 0.  1.
          2    1    1    2  501    0 -0.22649046033E+02 -0.74593679433E+01 -0.42554870742E+01  0.24222523125E+02  0.00000000000E+00 0.  1.
         21    1    1    2  503  501  0.22649046033E+02  0.74593679433E+01 -0.15824045766E+03  0.16002707239E+03  0.00000000000E+00 0.  1.
</event>
<event>
 4    1  0.2134315E+005  0.2861808E+02  0.7546771E-02  0.1431998E+00
          2   -1    0    0  503    0  0.00000000000E+00  0.00000000000E+00  0.55425252661E+03  0.55425252661E+03  0.00000000000E+00 0.  1.
         21   -1    0    0  501  502 -0.00000000000E+00 -0.00000000000E+00 -0.21900273548E+02  0.21900273548E+02  0.00000000000E+00 0.  1.
          2    1    1    2  501    0 -0.12875041264E+02  0.25558320475E+02  0.54436427015E+03  0.54511599963E+03  0.00000000000E+00 0.  1.
         21    1    1    2  503  502  0.12875041264E+02 -0.25558320475E+02 -0.12012017084E+02  0.31036800535E+02  0.00000000000E+00 0.  1.
</event>
<event>
 4    1  0.2134315E+005  0.2022862E+02  0.7546771E-02  0.1530569E+00
          2   -1    0    0  503    0  0.00000000000E+00  0.00000000000E+00  0.38134841077E+02  0.38134841077E+02  0.00000000000E+00 0. -1.
         21   -1    0    0  501  502 -0.00000000000E+00 -0.00000000000E+00 -0.38181391835E+02  0.38181391835E+02  0.00000000000E+00 0. -1.
          2    1    1    2  501    0 -0.16281275292E+01 -0.20162988582E+02  0.32331705557E+02  0.38138380826E+02  0.00000000000E+00 0. -1.
         21    1    1    2  503  502  0.16281275292E+01  0.20162988582E+02 -0.32378256315E+02  0.38177852085E+02  0.00000000000E+00 0. -1.
</event>
<event>
 4    1  0.2134315E+005  0.3339255E+02  0.7546771E-02  0.1392230E+00
          2   -1    0    0  502    0  0.00000000000E+00  0.00000000000E+00  0.45778749618E+03  0.45778749618E+03  0.00000000000E+00 0. -1.
         21   -1    0    0  503  502 -0.00000000000E+00 -0.00000000000E+00 -0.45059709293E+02  0.45059709293E+02  0.00000000000E+00 0.  1.
          2    1    1    2  501    0 -0.24915182873E+02 -0.22232771713E+02  0.45089756771E+03  0.45213236894E+03  0.00000000000E+00 0. -1.
         21    1    1    2  503  501  0.24915182873E+02  0.22232771713E+02 -0.38169780828E+02  0.50714836529E+02  0.00000000000E+00 0.  1.
</event>
<event>
 4    1  0.2134315E+005  0.2098002E+02  0.7546771E-02  0.1519550E+00
          2   -1    0    0  502    0  0.00000000000E+00  0.00000000000E+00  0.66714273377E+03  0.66714273377E+03  0.00000000000E+00 0. -1.
         21   -1    0    0  503  502 -0.00000000000E+00 -0.00000000000E+00 -0.22668367813E+03  0.22668367813E+03  0.00000000000E+00 0.  1.
          2    1    1    2  501    0 -0.19715117931E+02 -0.71746253304E+01  0.66649188181E+03  0.66682200747E+03  0.00000000000E+00 0. -1.
         21    1    1    2  503  501  0.19715117931E+02  0.71746253304E+01 -0.22603282617E+03  0.22700440443E+03  0.00000000000E+00 0.  1.
</event>
<event>
 4    1  0.2134315E+005  0.2634087E+02  0.7546771E-02  0.1454344E+00
          2   -1    0    0  503    0  0.00000000000E+00  0.00000000000E+00  0.93369207860E+03  0.93369207860E+03  0.00000000000E+00 0.  1.
         21   -1    0    0  501  502 -0.00000000000E+00 -0.00000000000E+00 -0.14143973318E+03  0.14143973318E+03  0.00000000000E+00 0.  1.
          2    1    1    2  501    0  0.15581669649E+02  0.21238011930E+02  0.93227804898E+03  0.93265009633E+03  0.00000000000E+00 0.  1.
         21    1    1    2  503  502 -0.15581669649E+02 -0.21238011930E+02 -0.14002570356E+03  0.14248171545E+03  0.00000000000E+00 0.  1.
</event>
<event>
 4    1  0.2134315E+005  0.2590008E+02  0.7546771E-02  0.1458981E+00
          2   -1    0    0  502    0  0.00000000000E+00  0.00000000000E+00  0.18611612389E+03  0.18611612389E+03  0.00000000000E+00 0.  1.
         21   -1    0    0  503  502 -0.00000000000E+00 -0.00000000000E+00 -0.21997588020E+02  0.21997588020E+02  0.00000000000E+00 0.  1.
          2    1    1    2  501    0  0.21905081500E+02 -0.13819616667E+02  0.17721021244E+03  0.17909291944E+03  0.00000000000E+00 0.  1.
         21    1    1    2  503  501 -0.21905081500E+02  0.13819616667E+02 -0.13091676568E+02  0.29020792472E+02  0.00000000000E+00 0.  1.
</event>
<event>
 4    1  0.2134315E+005  0.2217473E+02  0.7546771E-02  0.1503130E+00
          2   -1    0    0  503    0  0.00000000000E+00  0.00000000000E+00  0.84939697602E+03  0.84939697602E+03  0.00000000000E+00 0.  1.
         21   -1    0    0  501  502 -0.00000000000E+00 -0.00000000000E+00 -0.44909962039E+02  0.44909962039E+02  0.00000000000E+00 0.  1.
          2    1    1    2  501    0 -0.18563427892E+01  0.22096889816E+02  0.84650565601E+03  0.84679604640E+03  0.00000000000E+00 0.  1.
         21    1    1    2  503  502  0.18563427892E+01 -0.22096889816E+02 -0.42018642028E+02  0.47510891656E+02  0.00000000000E+00 0.  1.
</event>
<event>
 4    1  0.2134315E+005  0.2269099E+02  0.7546771E-02  0.1496415E+00
          2   -1    0    0  503    0  0.00000000000E+00  0.00000000000E+00  0.13371988906E+04  0.13371988906E+04  0.00000000000E+00 0.  1.
         21   -1    0    0  501  502 -0.00000000000E+00 -0.00000000000E+00 -0.70726321131E+00  0.70726321131E+00  0.00000000000E+00 0.  1.
          2    1    1    2  501    0  0.36523316256E+01 -0.22395125313E+02  0.11197694153E+04  0.11199992967E+04  0.00000000000E+00 0.  1.
         21    1    1    2  503  502 -0.36523316256E+01  0.22395125313E+02  0.21672221206E+03  0.21790685709E+03  0.00000000000E+00 0.  1.
</event>
<event>
 4    1  0.2134315E+005  0.2714587E+02  0.7546771E-02  0.1446148E+00
          2   -1    0    0  503    0  0.00000000000E+00  0.00000000000E+00  0.65705798530E+01  0.65705798530E+01  0.00000000000E+00 0. -1.
         21   -1    0    0  501  502 -0.00000000000E+00 -0.00000000000E+00 -0.10056534997E+04  0.10056534997E+04  0.00000000000E+00 0. -1.
          2    1    1    2  501    0  0.23876195137E+02  0.12916088545E+02 -0.22484391128E+02  0.35248345804E+02  0.00000000000E+00 0. -1.
         21    1    1    2  503  502 -0.23876195137E+02 -0.12916088545E+02 -0.97659852872E+03  0.97697573375E+03  0.00000000000E+00 0. -1.
</event>
<event>
 4    1  0.2134315E+005  0.1126250E+03  0.7546771E-02  0.1143564E+00
          2   -1    0    0  502    0  0.00000000000E+00  0.00000000000E+00  0.12193657769E+04  0.12193657769E+04  0.00000000000E+00 0. -1.
         21   -1    0    0  503  502 -0.00000000000E+00 -0.00000000000E+00 -0.12838273729E+03  0.12838273729E+03  0.00000000000E+00 0. -1.
          2    1    1    2  501    0 -0.10849451602E+03 -0.30221214564E+02  0.11914882054E+04  0.11967992837E+04  0.00000000000E+00 0. -1.
         21    1    1    2  503  501  0.10849451602E+03  0.30221214564E+02 -0.10050516584E+03  0.15094923046E+03  0.00000000000E+00 0. -1.
</event>
<event>
 4    1  0.2134315E+005  0.2223930E+02  0.7546771E-02  0.1502278E+00
          2   -1    0    0  503    0  0.00000000000E+00  0.00000000000E+00  0.97601844459E+01  0.97601844459E+01  0.00000000000E+00 0. -1.
         21   -1    0    0  501  502 -0.00000000000E+00 -0.00000000000E+00 -0.10080310533E+03  0.10080310533E+03  0.00000000000E+00 0. -1.
          2    1    1    2  501    0  0.21800367379E+02  0.43966562746E+01 -0.65371897365E+01  0.23180195295E+02  0.00000000000E+00 0. -1.
         21    1    1    2  503  502 -0.21800367379E+02 -0.43966562746E+01 -0.84505731150E+02  0.87383094484E+02  0.00000000000E+00 0. -1.
</event>
<event>
 4    1  0.2134315E+005  0.2358483E+02  0.7546771E-02  0.1485282E+00
          2   -1    0    0  503    0  0.00000000000E+00  0.00000000000E+00  0.74371144141E+03  0.74371144141E+03  0.00000000000E+00 0.  1.
         21   -1    0    0  501  502 -0.00000000000E+00 -0.00000000000E+00 -0.79310306186E+00  0.79310306186E+00  0.00000000000E+00 0.  1.
          2    1    1    2  501    0  0.55237618991E+01 -0.22928857255E+02  0.46029948560E+03  0.46090330969E+03  0.00000000000E+00 0.  1.
         21    1    1    2  503  502 -0.55237618991E+01  0.22928857255E+02  0.28261885274E+03  0.28360123478E+03  0.00000000000E+00 0.  1.
</event>
<event>
 4    1  0.2134315E+005  0.2078820E+02  0.7546771E-02  0.1522310E+00
          2   -1    0    0  503    0  0.00000000000E+00  0.00000000000E+00  0.14354711202E+04  0.14354711202E+04  0.00000000000E+00 0.  1.
         21   -1    0    0  501  502 -0.00000000000E+00 -0.00000000000E+00 -0.70174323914E+00  0.70174323914E+00  0.00000000000E+00 0. -1.
          2    1    1    2  501    0  0.18711664570E+02  0.90566442865E+01  0.12600016648E+04  0.12601731407E+04  0.00000000000E+00 0.  1.
         21    1    1    2  503  502 -0.18711664570E+02 -0.90566442865E+01  0.17476771214E+03  0.17599972274E+03  0.00000000000E+00 0. -1.
</event>
<event>
 4    1  0.2134315E+005  0.2171155E+02  0.7546771E-02  0.1509344E+00
          2   -1    0    0  503    0  0.00000000000E+00  0.00000000000E+00  0.15758649643E+04  0.15758649643E+04  0.00000000000E+00 0. -1.
         21   -1    0    0  501  502 -0.00000000000E+00 -0.00000000000E+00 -0.55783936486E+00  0.55783936486E+00  0.00000000000E+00 0.  1.
          2    1    1    2  501    0  0.16903489919E+02 -0.13625833524E+02  0.13244290867E+04  0.13246070350E+04  0.00000000000E+00 0. -1.
         21    1    1    2  503  502 -0.16903489919E+02  0.13625833524E+02  0.25087803820E+03  0.25181576870E+03  0.00000000000E+00 0.  1.
</event>
<event>
 4    1  0.2134315E+005  0.3508165E+02  0.7546771E-02  0.1379990E+00
          2   -1    0    0  503    0  0.00000000000E+00  0.00000000000E+00  0.27462443457E+03  0.27462443457E+03  0.00000000000E+00 0.  1.
         21   -1    0    0  501  502 -0.00000000000E+00 -0.00000000000E+00 -0.55772021777E+01  0.55772021777E+01  0.00000000000E+00 0.  1.
          2    1    1    2  501    0  0.12165816569E+02 -0.32904637809E+02  0.19662251221E+03  0.19972765104E+03  0.00000000000E+00 0.  1.
         21    1    1    2  503  502 -0.12165816569E+02  0.32904637809E+02  0.72424720179E+02  0.80473985705E+02  0.00000000000E+00 0.  1.
</event>
<event>
 4    1  0.2134315E+005  0.3143718E+02  0.7546771E-02  0.1407505E+00
          2   -1    0    0  503    0  0.00000000000E+00  0.00000000000E+00  0.81408692097E+02  0.81408692097E+02  0.00000000000E+00 0.  1.
         21   -1    0    0  501  502 -0.00000000000E+00 -0.00000000000E+00 -0.11532458161E+03  0.11532458161E+03  0.00000000000E+00 0.  1.
          2    1    1    2  501    0 -0.38842857368E+01  0.31196293565E+02  0.76087349843E+02  0.82326066431E+02  0.00000000000E+00 0.  1.
         21    1    1    2  503  502  0.38842857368E+01 -0.31196293565E+02 -0.11000323936E+03  0.11440720728E+03  0.00000000000E+00 0.  1.
</event>
<event>
 4    1  0.2134315E+005  0.2107778E+02  0.7546771E-02  0.1518157E+00
          2   -1    0    0  503    0  0.00000000000E+00  0.00000000000E+00  0.24934150881E+03  0.24934150881E+03  0.00000000000E+00 0.  1.
         21   -1    0    0  501  502 -0.00000000000E+00 -0.00000000000E+00 -0.10339243150E+02  0.10339243150E+02  0.00000000000E+00 0.  1.
          2    1    1    2  501    0 -0.12963557171E+02  0.16619836798E+02  0.23762503882E+03  0.23855802620E+03  0.00000000000E+00 0.  1.
         21    1    1    2  503  502  0.12963557171E+02 -0.16619836798E+02  0.13772268371E+01  0.21122725758E+02  0.00000000000E+00 0.  1.
</event>
<event>
 4    1  0.2134315E+005  0.2033844E+02  0.7546771E-02  0.1528923E+00
          2   -1    0    0  502    0  0.00000000000E+00  0.00000000000E+00  0.72931283738E+03  0.72931283738E+03  0.00000000000E+00 0. -1.
         21   -1    0    0  503  502 -0.00000000000E+00 -0.00000000000E+00 -0.22598088094E+01  0.22598088094E+01  0.00000000000E+00 0. -1.
          2    1    1    2  501    0  0.88112664604E+00  0.20319347205E+02  0.68009842178E+03  0.68040246587E+03  0.00000000000E+00 0. -1.
         21    1    1    2  503  501 -0.88112664604E+00 -0.20319347205E+02  0.46954606792E+02  0.51170180320E+02  0.00000000000E+00 0. -1.
</event>
<event>
 4    1  0.2134315E+005  0.2364846E+02  0.7546771E-02  0.1484512E+00
          2   -1    0    0  503    0  0.00000000000E+00  0.00000000000E+00  0.10842307448E+04  0.10842307448E+04  0.00000000000E+00 0.  1.
         21   -1    0    0  501  502 -0.00000000000E+00 -0.00000000000E+00 -0.13053221715E+01  0.13053221715E+01  0.00000000000E+00 0. -1.
          2    1    1    2  501    0 -0.38149490770E+01 -0.23338722424E+02  0.96358342214E+03  0.96387357118E+03  0.00000000000E+00 0.  1.
         21    1    1    2  503  502  0.38149490770E+01  0.23338722424E+02  0.11934200045E+03  0.12166249575E+03  0.00000000000E+00 0. -1.
</event>
<event>
 4    1  0.2134315E+005  0.3528317E+02  0.7546771E-02  0.1378583E+00
          2   -1    0    0  502    0  0.00000000000E+00  0.00000000000E+00  0.95007251256E+01  0.95007251256E+01  0.00000000000E+00 0.  1.
         21   -1    0    0  503  502 -0.00000000000E+00 -0.00000000000E+00 -0.30430035377E+03  0.30430035377E+03  0.00000000000E+00 0.  1.
          2    1    1    2  501    0  0.11499663159E+02 -0.33356556036E+02 -0.29005068926E+02  0.45674895804E+02  0.00000000000E+00 0.  1.
         21    1    1    2  503  501 -0.11499663159E+02  0.33356556036E+02 -0.26579455972E+03  0.26812618310E+03  0.00000000000E+00 0.  1.
</event>
<event>
 4    1  0.2134315E+005  0.2194396E+02  0.7546771E-02  0.1506202E+00
          2   -1    0    0  503    0  0.00000000000E+00  0.00000000000E+00  0.31187115878E+03  0.31187115878E+03  0.00000000000E+00 0. -1.
         21   -1    0    0  501  502 -0.00000000000E+00 -0.00000000000E+00 -0.54211220141E+01  0.54211220141E+01  0.00000000000E+00 0. -1.
          2    1    1    2  501    0  0.47303232348E+01  0.21428048356E+02  0.28738969599E+03  0.28822625587E+03  0.00000000000E+00 0. -1.
         21    1    1    2  503  502 -0.47303232348E+01 -0.21428048356E+02  0.19060340782E+02  0.29066024926E+02  0.00000000000E+00 0. -1.
</event>
<event>
 4    1  0.2134315E+005  0.2236495E+02  0.7546771E-02  0.1500630E+00
          2   -1    0    0  503    0  0.00000000000E+00  0.00000000000E+00  0.69615287107E+02  0.69615287107E+02  0.00000000000E+00 0.  1.
         21   -1    0    0  501  502 -0.00000000000E+00 -0.00000000000E+00 -0.14347015519E+02  0.14347015519E+02  0.00000000000E+00 0. -1.
          2    1    1    2  501    0 -0.16614747271E+02 -0.14971348231E+02  0.57295348277E+02  0.61505674770E+02  0.00000000000E+00 0.  1.
         21    1    1    2  503  502  0.16614747271E+02  0.14971348231E+02 -0.20270766884E+01  0.22456627856E+02  0.00000000000E+00 0. -1.
</event>
<event>
 4    1  0.2134315E+005  0.2800114E+02  0.7546771E-02  0.1437803E+00
          2   -1    0    0  502    0  0.00000000000E+00  0.00000000000E+00  0.51894905177E+02  0.51894905177E+02  0.00000000000E+00 0.  1.
         21   -1    0    0  503  502 -0.00000000000E+00 -0.00000000000E+00 -0.54163012559E+02  0.54163012559E+02  0.00000000000E+00 0.  1.
          2    1    1    2  501    0  0.10725343483E+02  0.25865634154E+02  0.43895355656E+02  0.52065979980E+02  0.00000000000E+00 0.  1.
         21    1    1    2  503  501 -0.10725343483E+02 -0.25865634154E+02 -0.46163463039E+02  0.53991937757E+02  0.00000000000E+00 0.  1.
</event>
<event>
 4    1  0.2134315E+005  0.2355068E+02  0.7546771E-02  0.1485697E+00
          2   -1    0    0  503    0  0.00000000000E+00  0.00000000000E+00  0.96440754380E+01  0.96440754380E+01  0.00000000000E+00 0.  1.
         21   -1    0    0  501  502 -0.00000000000E+00 -0.00000000000E+00 -0.90239881146E+02  0.90239881146E+02  0.00000000000E+00 0.  1.
          2    1    1    2  501    0  0.21940806111E+02  0.85577662351E+01 -0.10220782675E+02  0.25672918304E+02  0.00000000000E+00 0.  1.
         21    1    1    2  503  502 -0.21940806111E+02 -0.85577662351E+01 -0.70375023033E+02  0.74211038280E+02  0.00000000000E+00 0.  1.
</event>
<event>
 4    1  0.2134315E+005  0.3324374E+02  0.7546771E-02  0.1393349E+00
          2   -1    0    0  502    0  0.00000000000E+00  0.00000000000E+00  0.28295949417E+03  0.28295949417E+03  0.00000000000E+00 0. -1.
         21   -1    0    0  503  502 -0.00000000000E+00 -0.00000000000E+00 -0.13072261019E+02  0.13072261019E+02  0.00000000000E+00 0. -1.
          2    1    1    2  501    0  0.31179425349E+00 -0.33242280261E+02  0.25889086101E+03  0.26101652117E+03  0.00000000000E+00 0. -1.
         21    1    1    2  503  501 -0.31179425349E+00  0.33242280261E+02  0.10996372140E+02  0.35015234011E+02  0.00000000000E+00 0. -1.
</event>
<event>
 4    1  0.2134315E+005  0.3259945E+02  0.7546771E-02  0.1398274E+00
          2   -1    0    0  502    0  0.00000000000E+00  0.00000000000E+00  0.60790916490E+02  0.60790916490E+02  0.00000000000E+00 0. -1.
         21   -1    0    0  503  502 -0.00000000000E+00 -0.00000000000E+00 -0.74410720478E+02  0.74410720478E+02  0.00000000000E+00 0. -1.
          2    1    1    2  501    0  0.21153529435E+02  0.24804283358E+02  0.52319205532E+02  0.61644331029E+02  0.00000000000E+00 0. -1.
         21    1    1    2  503  501 -0.21153529435E+02 -0.24804283358E+02 -0.65939009521E+02  0.73557305939E+02  0.00000000000E+00 0. -1.
</event>
<event>
 4    1  0.2134315E+005  0.2369275E+02  0.7546771E-02  0.1483978E+00
          2   -1    0    0  502    0  0.00000000000E+00  0.00000000000E+00  0.65457169388E+03  0.65457169388E+03  0.00000000000E+00 0. -1.
         21   -1    0    0  503  502 -0.00000000000E+00 -0.00000000000E+00 -0.55427017204E+01  0.55427017204E+01  0.00000000000E+00 0.  1.
          2    1    1    2  501    0  0.20814834328E+02 -0.11317645312E+02  0.62796577790E+03  0.62841257517E+03  0.00000000000E+00 0. -1.
         21    1    1    2  503  501 -0.20814834328E+02  0.11317645312E+02  0.21063214266E+02  0.31701820433E+02  0.00000000000E+00 0.  1.
</event>
<event>
 4    1  0.2134315E+005  0.3655063E+02  0.7546771E-02  0.1369978E+00
          2   -1    0    0  502    0  0.00000000000E+00  0.00000000000E+00  0.24929850814E+04  0.24929850814E+04  0.00000000000E+00 0.  1.
         21   -1    0    0  503  502 -0.00000000000E+00 -0.00000000000E+00 -0.87955418333E+00  0.87955418333E+00  0.00000000000E+00 0.  1.
          2    1    1    2  501    0 -0.26543787892E+02  0.25127187955E+02  0.20254936075E+04  0.20258233640E+04  0.00000000000E+00 0.  1.
         21    1    1    2  503  501  0.26543787892E+02 -0.25127187955E+02  0.46661191975E+03  0.46804127158E+03  0.00000000000E+00 0.  1.
</event>
<event>
 4    1  0.2134315E+005  0.2076745E+02  0.7546771E-02  0.1522611E+00
          2   -1    0    0  503    0  0.00000000000E+00  0.00000000000E+00  0.29472517397E+03  0.29472517397E+03  0.00000000000E+00 0. -1.
         21   -1    0    0  501  502 -0.00000000000E+00 -0.00000000000E+00 -0.24284339965E+02  0.24284339965E+02  0.00000000000E+00 0.  1.
          2    1    1    2  501    0 -0.14515463146E+02 -0.14852222463E+02  0.28984469765E+03  0.29058774223E+03  0.00000000000E+00 0. -1.
         21    1    1    2  503  502  0.14515463146E+02  0.14852222463E+02 -0.19403863641E+02  0.28421771702E+02  0.00000000000E+00 0.  1.
</event>
<event>
 4    1  0.2134315E+005  0.5818697E+02  0.7546771E-02  0.1266120E+00
          2   -1    0    0  503    0  0.00000000000E+00  0.00000000000E+00  0.39562007958E+04  0.39562007958E+04  0.00000000000E+00 0.  1.
         21   -1    0    0  501  502 -0.00000000000E+00 -0.00000000000E+00 -0.18357182130E+01  0.18357182130E+01  0.00000000000E+00 0.  1.
          2    1    1    2  501    0 -0.37557665844E+02  0.44442608866E+02  0.34230926980E+04  0.34235872039E+04  0.00000000000E+00 0.  1.
         21    1    1    2  503  502  0.37557665844E+02 -0.44442608866E+02  0.53127237960E+03  0.53444931010E+03  0.00000000000E+00 0.  1.
</event>
<event>
 4    1  0.2134315E+005  0.2787529E+02  0.7546771E-02  0.1439008E+00
          2   -1    0    0  502    0  0.00000000000E+00  0.00000000000E+00  0.29051768887E+03  0.29051768887E+03  0.00000000000E+00 0. -1.
         21   -1    0    0  503  502 -0.00000000000E+00 -0.00000000000E+00 -0.92370438671E+01  0.92370438671E+01  0.00000000000E+00 0.  1.
          2    1    1    2  501    0 -0.27721831286E+02  0.29208944765E+01  0.26696868787E+03  0.26842002879E+03  0.00000000000E+00 0. -1.
         21    1    1    2  503  501  0.27721831286E+02 -0.29208944765E+01  0.14311957137E+02  0.31334703948E+02  0.00000000000E+00 0.  1.
</event>
<event>
 4    1  0.2134315E+005  0.2378951E+02  0.7546771E-02  0.1482815E+00
          2   -1    0    0  503    0  0.00000000000E+00  0.00000000000E+00  0.17698770378E+04  0.17698770378E+04  0.00000000000E+00 0. -1.
         21   -1    0    0  501  502 -0.00000000000E+00 -0.00000000000E+00 -0.71771723832E+00  0.71771723832E+00  0.00000000000E+00 0.  1.
          2    1    1    2  501    0  0.93710858652E+01  0.21866034273E+02  0.15437978862E+04  0.15439811703E+04  0.00000000000E+00 0. -1.
         21    1    1    2  503  502 -0.93710858652E+01 -0.21866034273E+02  0.22536143437E+03  0.22661358478E+03  0.00000000000E+00 0.  1.
</event>
<event>
 4    1  0.2134315E+005  0.2626859E+02  0.7546771E-02  0.1455097E+00
          2   -1    0    0  502    0  0.00000000000E+00  0.00000000000E+00  0.59590556983E+03  0.59590556983E+03  0.00000000000E+00 0.  1.
         21   -1    0    0  503  502 -0.00000000000E+00 -0.00000000000E+00 -0.18628638898E+01  0.18628638898E+01  0.00000000000E+00 0.  1.
          2    1    1    2  501    0  0.64200665613E+01 -0.25471976988E+02  0.48087628232E+03  0.48159322853E+03  0.00000000000E+00 0.  1.
         21    1    1    2  503  501 -0.64200665613E+01  0.25471976988E+02  0.11316642362E+03  0.11617520519E+03  0.00000000000E+00 0.  1.
</event>
<event>
 4    1  0.2134315E+005  0.2286668E+02  0.7546771E-02  0.1494179E+00
          2   -1    0    0  503    0  0.00000000000E+00  0.00000000000E+00  0.11097284814E+03  0.11097284814E+03  0.00000000000E+00 0.  1.
         21   -1    0    0  501  502 -0.00000000000E+00 -0.00000000000E+00 -0.18550480525E+02  0.18550480525E+02  0.00000000000E+00 0.  1.
          2    1    1    2  501    0 -0.21381251052E+02  0.81072266137E+01  0.10214665683E+03  0.10467485143E+03  0.00000000000E+00 0.  1.
         21    1    1    2  503  502  0.21381251052E+02 -0.81072266137E+01 -0.97242892199E+01  0.24848477232E+02  0.00000000000E+00 0.  1.
</event>
<event>
 4    1  0.2134315E+005  0.2440340E+02  0.7546771E-02  0.1475589E+00
          2   -1    0    0  503    0  0.00000000000E+00  0.00000000000E+00  0.37270411284E+03  0.37270411284E+03  0.00000000000E+00 0. -1.
         21   -1    0    0  501  502 -0.00000000000E+00 -0.00000000000E+00 -0.62166047761E+01  0.62166047761E+01  0.00000000000E+00 0.  1.
          2    1    1    2  501    0  0.14044016689E+01  0.24362951388E+02  0.34655049757E+03  0.34740865434E+03  0.00000000000E+00 0. -1.
         21    1    1    2  503  502 -0.14044016689E+01 -0.24362951388E+02  0.19937010490E+02  0.31512063272E+02  0.00000000000E+00 0.  1.
</event>
<event>
 4    1  0.2134315E+005  0.2924064E+02  0.7546771E-02  0.1426312E+00
          2   -1    0    0  502    0  0.00000000000E+00  0.00000000000E+00  0.15134570472E+04  0.15134570472E+04  0.00000000000E+00 0.  1.
         21   -1    0    0  503  502 -0.00000000000E+00 -0.00000000000E+00 -0.84458413578E+00  0.84458413578E+00  0.00000000000E+00 0.  1.
          2    1    1    2  501    0  0.13353157382E+01  0.29210129799E+02  0.11919811907E+04  0.11923397896E+04  0.00000000000E+00 0.  1.
         21    1    1    2  503  501 -0.13353157382E+01 -0.29210129799E+02  0.32063127234E+03  0.32196184177E+03  0.00000000000E+00 0.  1.
</event>
<event>
 4    1  0.2134315E+005  0.3394264E+02  0.7546771E-02  0.1388153E+00
          2   -1    0    0  503    0  0.00000000000E+00  0.00000000000E+00  0.14512115394E+04  0.14512115394E+04  0.00000000000E+00 0.  1.
         21   -1    0    0  501  502 -0.00000000000E+00 -0.00000000000E+00 -0.12045352836E+03  0.12045352836E+03  0.00000000000E+00 0. -1.
          2    1    1    2  501    0  0.31682830888E+02 -0.12177887019E+02  0.14486176090E+04  0.14490152104E+04  0.00000000000E+00 0.  1.
         21    1    1    2  503  502 -0.31682830888E+02  0.12177887019E+02 -0.11785959793E+03  0.12264985744E+03  0.00000000000E+00 0. -1.
</event>
<event>
 4    1  0.2134315E+005  0.2043977E+02  0.7546771E-02  0.1527416E+00
          2   -1    0    0  502    0  0.00000000000E+00  0.00000000000E+00  0.76797365368E+03  0.76797365368E+03  0.00000000000E+00 0.  1.
         21   -1    0    0  503  502 -0.00000000000E+00 -0.00000000000E+00 -0.13965228772E+01  0.13965228772E+01  0.00000000000E+00 0. -1.
          2    1    1    2  501    0 -0.19502676735E+01 -0.20346510057E+02  0.68384929773E+03  0.68415469451E+03  0.00000000000E+00 0.  1.
         21    1    1    2  503  501  0.19502676735E+01  0.20346510057E+02  0.82727833080E+02  0.85215482053E+02  0.00000000000E+00 0. -1.
</event>
<event>
 4    1  0.2134315E+005  0.3018616E+02  0.7546771E-02  0.1417985E+00
          2   -1    0    0  502    0  0.00000000000E+00  0.00000000000E+00  0.16686529908E+04  0.16686529908E+04  0.00000000000E+00 0. -1.
         21   -1    0    0  503  502 -0.00000000000E+00 -0.00000000000E+00 -0.10107881892E+01  0.10107881892E+01  0.00000000000E+00 0. -1.
          2    1    1    2  501    0  0.15207384708E+02  0.26075653788E+02  0.13998817511E+04  0.14002071709E+04  0.00000000000E+00 0. -1.
         21    1    1    2  503  501 -0.15207384708E+02 -0.26075653788E+02  0.26776045147E+03  0.26945660809E+03  0.00000000000E+00 0. -1.
</event>
<event>
 4    1  0.2134315E+005  0.3677540E+02  0.7546771E-02  0.1368494E+00
          2   -1    0    0  503    0  0.00000000000E+00  0.00000000000E+00  0.61461178637E+03  0.61461178637E+03  0.00000000000E+00 0.  1.
         21   -1    0    0  501  502 -0.00000000000E+00 -0.00000000000E+00 -0.22039219769E+01  0.22039219769E+01  0.00000000000E+00 0.  1.
          2    1    1    2  501    0 -0.10647080603E+02 -0.35200421676E+02  0.31842335118E+03  0.32053995162E+03  0.00000000000E+00 0.  1.
         21    1    1    2  503  502  0.10647080603E+02  0.35200421676E+02  0.29398451321E+03  0.29627575672E+03  0.00000000000E+00 0.  1.
</event>
<event>
 4    1  0.2134315E+005  0.2437451E+02  0.7546771E-02  0.1475924E+00
          2   -1    0    0  503    0  0.00000000000E+00  0.00000000000E+00  0.87811168826E+01  0.87811168826E+01  0.00000000000E+00 0. -1.
         21   -1    0    0  501  502 -0.00000000000E+00 -0.00000000000E+00 -0.11157990343E+03  0.11157990343E+03  0.00000000000E+00 0. -1.
          2    1    1    2  501    0 -0.77278464635E+01 -0.23117034544E+02 -0.13642074426E+02  0.27932473784E+02  0.00000000000E+00 0. -1.
         21    1    1    2  503  502  0.77278464635E+01  0.23117034544E+02 -0.89156712125E+02  0.92428546532E+02  0.00000000000E+00 0. -1.
</event>
<event>
 4    1  0.2134315E+005  0.2551248E+02  0.7546771E-02  0.1463151E+00
          2   -1    0    0  502    0  0.00000000000E+00  0.00000000000E+00  0.98305411393E+03  0.98305411393E+03  0.00000000000E+00 0. -1.
         21   -1    0    0  503  502 -0.00000000000E+00 -0.00000000000E+00 -0.11967254830E+01  0.11967254830E+01  0.00000000000E+00 0. -1.
          2    1    1    2  501    0  0.23047477100E+02  0.10940765261E+02  0.81985658900E+03  0.82025344442E+03  0.00000000000E+00 0. -1.
         21    1    1    2  503  501 -0.23047477100E+02 -0.10940765261E+02  0.16200079944E+03  0.16399739499E+03  0.00000000000E+00 0. -1.
</event>
<event>
 4    1  0.2134315E+005  0.7888737E+02  0.7546771E-02  0.1206454E+00
          2   -1    0    0  502    0  0.00000000000E+00  0.00000000000E+00  0.35349891510E+03  0.35349891510E+03  0.00000000000E+00 0.  1.
         21   -1    0    0  503  502 -0.00000000000E+00 -0.00000000000E+00 -0.63374556180E+02  0.63374556180E+02  0.00000000000E+00 0. -1.
          2    1    1    2  501    0 -0.78753874295E+02 -0.45874916674E+01  0.32219820700E+03  0.33171509220E+03  0.00000000000E+00 0.  1.
         21    1    1    2  503  501  0.78753874295E+02  0.45874916674E+01 -0.32073848085E+02  0.85158379078E+02  0.00000000000E+00 0. -1.
</event>
<event>
 4    1  0.2134315E+005  0.4855188E+02  0.7546771E-02  0.1304576E+00
          2   -1    0    0  502    0  0.00000000000E+00  0.00000000000E+00  0.25970791634E+01  0.25970791634E+01  0.00000000000E+00 0. -1.
         21   -1    0    0  503  502 -0.00000000000E+00 -0.00000000000E+00 -0.90848137293E+03  0.90848137293E+03  0.00000000000E+00 0. -1.
          2    1    1    2  501    0  0.16236615174E+02  0.45756497720E+02 -0.43930873619E+03  0.44198354093E+03  0.00000000000E+00 0. -1.
         21    1    1    2  503  501 -0.16236615174E+02 -0.45756497720E+02 -0.46657555757E+03  0.46909491116E+03  0.00000000000E+00 0. -1.
</event>
<event>
 4    1  0.2134315E+005  0.2253736E+02  0.7546771E-02  0.1498391E+00
          2   -1    0    0  503    0  0.00000000000E+00  0.00000000000E+00  0.46379259645E+03  0.46379259645E+03  0.00000000000E+00 0. -1.
         21   -1    0    0  501  502 -0.00000000000E+00 -0.00000000000E+00 -0.44131963271E+02  0.44131963271E+02  0.00000000000E+00 0. -1.
          2    1    1    2  501    0 -0.22514291445E+02 -0.10193867133E+01  0.46062165731E+03  0.46117268311E+03  0.00000000000E+00 0. -1.
         21    1    1    2  503  502  0.22514291445E+02  0.10193867133E+01 -0.40961024130E+02  0.46751876607E+02  0.00000000000E+00 0. -1.
</event>
<event>
 4    1  0.2134315E+005  0.2029914E+02  0.7546771E-02  0.1529511E+00
          2   -1    0    0  503    0  0.00000000000E+00  0.00000000000E+00  0.53828953582E+02  0.53828953582E+02  0.00000000000E+00 0. -1.
         21   -1    0    0  501  502 -0.00000000000E+00 -0.00000000000E+00 -0.77840398075E+01  0.77840398075E+01  0.00000000000E+00 0. -1.
          2    1    1    2  501    0 -0.14817616332E+02  0.13874190552E+02  0.19054376491E+02  0.27841052076E+02  0.00000000000E+00 0. -1.
         21    1    1    2  503  502  0.14817616332E+02 -0.13874190552E+02  0.26990537284E+02  0.33771941314E+02  0.00000000000E+00 0. -1.
</event>
<event>
 4    1  0.2134315E+005  0.3031542E+02  0.7546771E-02  0.1416875E+00
          2   -1    0    0  502    0  0.00000000000E+00  0.00000000000E+00  0.17127113901E+03  0.17127113901E+03  0.00000000000E+00 0.  1.
         21   -1    0    0  503  502 -0.00000000000E+00 -0.00000000000E+00 -0.63951115902E+01  0.63951115902E+01  0.00000000000E+00 0.  1.
          2    1    1    2  501    0 -0.20773479648E+02  0.22079115454E+02  0.11807508381E+03  0.12190467675E+03  0.00000000000E+00 0.  1.
         21    1    1    2  503  501  0.20773479648E+02 -0.22079115454E+02  0.46800943611E+02  0.55761573855E+02  0.00000000000E+00 0.  1.
</event>
<event>
 4    1  0.2134315E+005  0.5378694E+02  0.7546771E-02  0.1282539E+00
          2   -1    0    0  503    0  0.00000000000E+00  0.00000000000E+00  0.49345003841E+03  0.49345003841E+03  0.00000000000E+00 0.  1.
         21   -1    0    0  501  502 -0.00000000000E+00 -0.00000000000E+00 -0.75894422442E+01  0.75894422442E+01  0.00000000000E+00 0. -1.
          2    1    1    2  501    0 -0.84145747632E+01 -0.53124666075E+02  0.36241957821E+03  0.36638911813E+03  0.00000000000E+00 0.  1.
         21    1    1    2  503  502  0.84145747632E+01  0.53124666075E+02  0.12344101796E+03  0.13465036253E+03  0.00000000000E+00 0. -1.
</event>
<event>
 4    1  0.2134315E+005  0.2211377E+02  0.7546771E-02  0.1503937E+00
          2   -1    0    0  503    0  0.00000000000E+00  0.00000000000E+00  0.24006274453E+02  0.24006274453E+02  0.00000000000E+00 0.  1.
         21   -1    0    0  501  502 -0.00000000000E+00 -0.00000000000E+00 -0.23532885989E+02  0.23532885989E+02  0.00000000000E+00 0.  1.
          2    1    1    2  501    0 -0.18298528777E+02  0.12417026541E+02  0.89502322586E+01  0.23856348442E+02  0.00000000000E+00 0.  1.
         21    1    1    2  503  502  0.18298528777E+02 -0.12417026541E+02 -0.84768437944E+01  0.23682812000E+02  0.00000000000E+00 0.  1.
</event>
<event>
 4    1  0.2134315E+005  0.2661007E+02  0.7546771E-02  0.1451565E+00
          2   -1    0    0  503    0  0.00000000000E+00  0.00000000000E+00  0.78046596467E+03  0.78046596467E+03  0.00000000000E+00 0.  1.
         21   -1    0    0  501  502 -0.00000000000E+00 -0.00000000000E+00 -0.52022735027E+01  0.52022735027E+01  0.00000000000E+00 0.  1.
          2    1    1    2  501    0 -0.25517518023E+02  0.75466535592E+01  0.74457102368E+03  0.74504637776E+03  0.00000000000E+00 0.  1.
         21    1    1    2  503  502  0.25517518023E+02 -0.75466535592E+01  0.30692667483E+02  0.40621860411E+02  0.00000000000E+00 0.  1.
</event>
<event>
 4    1  0.2134315E+005  0.2526153E+02  0.7546771E-02  0.1465899E+00
          2   -1    0    0  502    0  0.00000000000E+00  0.00000000000E+00  0.17263824492E+04  0.17263824492E+04  0.00000000000E+00 0. -1.
         21   -1    0    0  503  502 -0.00000000000E+00 -0.00000000000E+00 -0.94313560500E+01  0.94313560500E+01  0.00000000000E+00 0.  1.
          2    1    1    2  501    0  0.14768592200E+02 -0.20494720465E+02  0.17092045304E+04  0.17093911991E+04  0.00000000000E+00 0. -1.
         21    1    1    2  503  501 -0.14768592200E+02  0.20494720465E+02  0.77465628082E+01  0.26422606190E+02  0.00000000000E+00 0.  1.
</event>
<event>
 4    1  0.2134315E+005  0.3195873E+02  0.7546771E-02  0.1403305E+00
          2   -1    0    0  503    0  0.00000000000E+00  0.00000000000E+00  0.39058130170E+03  0.39058130170E+03  0.00000000000E+00 0.  1.
         21   -1    0    0  501  502 -0.00000000000E+00 -0.00000000000E+00 -0.52245460878E+02  0.52245460878E+02  0.00000000000E+00 0.  1.
          2    1    1    2  501    0  0.28442006877E+02  0.14574375986E+02  0.38496911631E+03  0.38629338683E+03  0.00000000000E+00 0.  1.
         21    1    1    2  503  502 -0.28442006877E+02 -0.14574375986E+02 -0.46633275492E+02  0.56533375750E+02  0.00000000000E+00 0.  1.
</event>
<event>
 4    1  0.2134315E+005  0.2005936E+02  0.7546771E-02  0.1533130E+00
          2   -1    0    0  503    0  0.00000000000E+00  0.00000000000E+00  0.49955635877E+02  0.49955635877E+02  0.00000000000E+00 0. -1.
         21   -1    0    0  501  502 -0.00000000000E+00 -0.00000000000E+00 -0.61293567845E+02  0.61293567845E+02  0.00000000000E+00 0.  1.
          2    1    1    2  501    0 -0.12412225883E+02  0.15757996624E+02  0.46172092228E+02  0.50341234686E+02  0.00000000000E+00 0. -1.
         21    1    1    2  503  502  0.12412225883E+02 -0.15757996624E+02 -0.57510024196E+02  0.60907969035E+02  0.00000000000E+00 0.  1.
</event>
<event>
 4    1  0.2134315E+005  0.2396288E+02  0.7546771E-02  0.1480749E+00
          2   -1    0    0  503    0  0.00000000000E+00  0.00000000000E+00  0.62420808768E+02  0.62420808768E+02  0.00000000000E+00 0. -1.
         21   -1    0    0  501  502 -0.00000000000E+00 -0.00000000000E+00 -0.96112288349E+01  0.96112288349E+01  0.00000000000E+00 0. -1.
          2    1    1    2  501    0 -0.22727824379E+02  0.75937914982E+01  0.33862157235E+02  0.41483314271E+02  0.00000000000E+00 0. -1.
         21    1    1    2  503  502  0.22727824379E+02 -0.75937914982E+01  0.18947422699E+02  0.30548723332E+02  0.00000000000E+00 0. -1.
</event>
<event>
 4    1  0.2134315E+005  0.2806112E+02  0.7546771E-02  0.1437231E+00
          2   -1    0    0  503    0  0.00000000000E+00  0.00000000000E+00  0.13719749203E+04  0.13719749203E+04  0.00000000000E+00 0. -1.
         21   -1    0    0  501  502 -0.00000000000E+00 -0.00000000000E+00 -0.36373995468E+02  0.36373995468E+02  0.00000000000E+00 0.  1.
          2    1    1    2  501    0  0.30238542399E+01 -0.27897723791E+02  0.13663973301E+04  0.13666854394E+04  0.00000000000E+00 0. -1.
         21    1    1    2  503  502 -0.30238542399E+01  0.27897723791E+02 -0.30796405231E+02  0.41663476359E+02  0.00000000000E+00 0.  1.
</event>
<event>
 4    1  0.2134315E+005  0.2335811E+02  0.7546771E-02  0.1488050E+00
          2   -1    0    0  503    0  0.00000000000E+00  0.00000000000E+00  0.92477276308E+00  0.92477276308E+00  0.00000000000E+00 0. -1.
         21   -1    0    0  501  502 -0.00000000000E+00 -0.00000000000E+00 -0.78282426335E+03  0.78282426335E+03  0.00000000000E+00 0. -1.
          2    1    1    2  501    0  0.15139982860E+02 -0.17787131088E+02 -0.58544713089E+03  0.58591291518E+03  0.00000000000E+00 0. -1.
         21    1    1    2  503  502 -0.15139982860E+02  0.17787131088E+02 -0.19645235970E+03  0.19783612093E+03  0.00000000000E+00 0. -1.
</event>
<event>
 4    1  0.2134315E+005  0.3060837E+02  0.7546771E-02  0.1414382E+00
          2   -1    0    0  502    0  0.00000000000E+00  0.00000000000E+00  0.53009011734E+03  0.53009011734E+03  0.00000000000E+00 0.  1.
         21   -1    0    0  503  502 -0.00000000000E+00 -0.00000000000E+00 -0.28532677886E+02  0.28532677886E+02  0.00000000000E+00 0. -1.
          2    1    1    2  501    0 -0.25836164359E+02 -0.16412347495E+02  0.52130122655E+03  0.52219904379E+03  0.00000000000E+00 0.  1.
         21    1    1    2  503  501  0.25836164359E+02  0.16412347495E+02 -0.19743787098E+02  0.36423751428E+02  0.00000000000E+00 0. -1.
</event>
<event>
 4    1  0.2134315E+005  0.2143453E+02  0.7546771E-02  0.1513150E+00
          2   -1    0    0  503    0  0.00000000000E+00  0.00000000000E+00  0.14536820326E+04  0.14536820326E+04  0.00000000000E+00 0. -1.
         21   -1    0    0  501  502 -0.00000000000E+00 -0.00000000000E+00 -0.11035479276E+02  0.11035479276E+02  0.00000000000E+00 0.  1.
          2    1    1    2  501    0 -0.16381882527E+02  0.13822915097E+02  0.14431186109E+04  0.14432777848E+04  0.00000000000E+00 0. -1.
         21    1    1    2  503  502  0.16381882527E+02 -0.13822915097E+02 -0.47205758942E+00  0.21439727034E+02  0.00000000000E+00 0.  1.
</event>
<event>
 4    1  0.2134315E+005  0.3046445E+02  0.7546771E-02  0.1415602E+00
          2   -1    0    0  503    0  0.00000000000E+00  0.00000000000E+00  0.18435658585E+03  0.18435658585E+03  0.00000000000E+00 0. -1.
         21   -1    0    0  501  502 -0.00000000000E+00 -0.00000000000E+00 -0.12756401529E+02  0.12756401529E+02  0.00000000000E+00 0. -1.
          2    1    1    2  501    0 -0.20212153829E+02 -0.22793679471E+02  0.16248192289E+03  0.16531321257E+03  0.00000000000E+00 0. -1.
         21    1    1    2  503  502  0.20212153829E+02  0.22793679471E+02  0.91182614352E+01  0.31799774808E+02  0.00000000000E+00 0. -1.
</event>
<event>
 4    1  0.2134315E+005  0.2497256E+02  0.7546771E-02  0.1469111E+00
          2   -1    0    0  503    0  0.00000000000E+00  0.00000000000E+00  0.38901491200E+03  0.38901491200E+03  0.00000000000E+00 0. -1.
         21   -1    0    0  501  502 -0.00000000000E+00 -0.00000000000E+00 -0.64400475071E+03  0.64400475071E+03  0.00000000000E+00 0.  1.
          2    1    1    2  501    0  0.14169950207E+01  0.24932326986E+02  0.38837164694E+03  0.38917369509E+03  0.00000000000E+00 0. -1.
         21    1    1    2  503  502 -0.14169950207E+01 -0.24932326986E+02 -0.64336148565E+03  0.64384596762E+03  0.00000000000E+00 0.  1.
</event>
<event>
 4    1  0.2134315E+005  0.2076510E+02  0.7546771E-02  0.1522645E+00
          2   -1    0    0  503    0  0.00000000000E+00  0.00000000000E+00  0.32850813641E+03  0.32850813641E+03  0.00000000000E+00 0. -1.
         21   -1    0    0  501  502 -0.00000000000E+00 -0.00000000000E+00 -0.32909973463E+01  0.32909973463E+01  0.00000000000E+00 0. -1.
          2    1    1    2  501    0  0.14734267355E+02  0.14631834711E+02  0.29123842280E+03  0.29197775281E+03  0.00000000000E+00 0. -1.
         21    1    1    2  503  502 -0.14734267355E+02 -0.14631834711E+02  0.33978716266E+02  0.39821380948E+02  0.00000000000E+00 0. -1.
</event>
<event>
 4    1  0.2134315E+005  0.4590544E+02  0.7546771E-02  0.1316973E+00
          2   -1    0    0  502    0  0.00000000000E+00  0.00000000000E+00  0.73257018054E+02  0.73257018054E+02  0.00000000000E+00 0.  1.
         21   -1    0    0  503  502 -0.00000000000E+00 -0.00000000000E+00 -0.74147362204E+02  0.74147362204E+02  0.00000000000E+00 0. -1.
          2    1    1    2  501    0 -0.30506236411E+02  0.34302748688E+02  0.57214405774E+02  0.73353917793E+02  0.00000000000E+00 0.  1.
         21    1    1    2  503  501  0.30506236411E+02 -0.34302748688E+02 -0.58104749924E+02  0.74050462465E+02  0.00000000000E+00 0. -1.
</event>
<event>
 4    1  0.2134315E+005  0.2298348E+02  0.7546771E-02  0.1492706E+00
          2   -1    0    0  502    0  0.00000000000E+00  0.00000000000E+00  0.10470131253E+02  0.10470131253E+02  0.00000000000E+00 0. -1.
         21   -1    0    0  503  502 -0.00000000000E+00 -0.00000000000E+00 -0.14873628194E+03  0.14873628194E+03  0.00000000000E+00 0. -1.
          2    1    1    2  501    0  0.28194280889E+00 -0.22981750404E+02 -0.44241978579E+01  0.23405423945E+02  0.00000000000E+00 0. -1.
         21    1    1    2  503  501 -0.28194280889E+00  0.22981750404E+02 -0.13384195283E+03  0.13580098924E+03  0.00000000000E+00 0. -1.
</event>
<event>
 4    1  0.2134315E+005  0.2497813E+02  0.7546771E-02  0.1469048E+00
          2   -1    0    0  503    0  0.00000000000E+00  0.00000000000E+00  0.50809750553E+03  0.50809750553E+03  0.00000000000E+00 0.  1.
         21   -1    0    0  501  502 -0.00000000000E+00 -0.00000000000E+00 -0.27750511270E+01  0.27750511270E+01  0.00000000000E+00 0. -1.
          2    1    1    2  501    0 -0.14983411321E+02  0.19985107303E+02  0.44338706422E+03  0.44409007628E+03  0.00000000000E+00 0.  1.
         21    1    1    2  503  502  0.14983411321E+02 -0.19985107303E+02  0.61935390180E+02  0.66782480379E+02  0.00000000000E+00 0. -1.
</event>
<event>
 4    1  0.2134315E+005  0.5021975E+02  0.7546771E-02  0.1297222E+00
          2   -1    0    0  502    0  0.00000000000E+00  0.00000000000E+00  0.30494011937E+04  0.30494011937E+04  0.00000000000E+00 0.  1.
         21   -1    0    0  503  502 -0.00000000000E+00 -0.00000000000E+00 -0.40502166760E+01  0.40502166760E+01  0.00000000000E+00 0.  1.
          2    1    1    2  501    0  0.30939990086E+02  0.39556797061E+02  0.28846309935E+04  0.28850681087E+04  0.00000000000E+00 0.  1.
         21    1    1    2  503  501 -0.30939990086E+02 -0.39556797061E+02  0.16071998360E+03  0.16838330175E+03  0.00000000000E+00 0.  1.
</event>
<event>
 4    1  0.2134315E+005  0.3235577E+02  0.7546771E-02  0.1400171E+00
          2   -1    0    0  503    0  0.00000000000E+00  0.00000000000E+00  0.21503923715E+03  0.21503923715E+03  0.00000000000E+00 0.  1.
         21   -1    0    0  501  502 -0.00000000000E+00 -0.00000000000E+00 -0.16493607105E+02  0.16493607105E+02  0.00000000000E+00 0.  1.
          2    1    1    2  501    0  0.30898653922E+02  0.96004804997E+01  0.19646362989E+03  0.19911015522E+03  0.00000000000E+00 0.  1.
         21    1    1    2  503  502 -0.30898653922E+02 -0.96004804997E+01  0.20820001558E+01  0.32422689041E+02  0.00000000000E+00 0.  1.
</event>
<event>
 4    1  0.2134315E+005  0.2362345E+02  0.7546771E-02  0.1484814E+00
          2   -1    0    0  503    0  0.00000000000E+00  0.00000000000E+00  0.27888415003E+03  0.27888415003E+03  0.00000000000E+00 0. -1.
         21   -1    0    0  501  502 -0.00000000000E+00 -0.00000000000E+00 -0.67875472286E+01  0.67875472286E+01  0.00000000000E+00 0. -1.
          2    1    1    2  501    0  0.97434957055E+01  0.21520494174E+02  0.25599510423E+03  0.25708278972E+03  0.00000000000E+00 0. -1.
         21    1    1    2  503  502 -0.97434957055E+01 -0.21520494174E+02  0.16101498562E+02  0.28588907534E+02  0.00000000000E+00 0. -1.
</event>
<event>
 4    1  0.2134315E+005  0.3074641E+02  0.7546771E-02  0.1413219E+00
          2   -1    0    0  503    0  0.00000000000E+00  0.00000000000E+00  0.16467276905E+04  0.16467276905E+04  0.00000000000E+00 0. -1.
         21   -1    0    0  501  502 -0.00000000000E+00 -0.00000000000E+00 -0.10158081284E+02  0.10158081284E+02  0.00000000000E+00 0.  1.
          2    1    1    2  501    0 -0.26520554061E+02  0.15556417827E+02  0.16229779854E+04  0.16232691961E+04  0.00000000000E+00 0. -1.
         21    1    1    2  503  502  0.26520554061E+02 -0.15556417827E+02  0.13591623836E+02  0.33616575700E+02  0.00000000000E+00 0.  1.
</event>
<event>
 4    1  0.2134315E+005  0.3398764E+02  0.7546771E-02  0.1387823E+00
          2   -1    0    0  503    0  0.00000000000E+00  0.00000000000E+00  0.10760570766E+03  0.10760570766E+03  0.00000000000E+00 0. -1.
         21   -1    0    0  501  502 -0.00000000000E+00 -0.00000000000E+00 -0.24528353257E+02  0.24528353257E+02  0.00000000000E+00 0. -1.
          2    1    1    2  501    0  0.29547692724E+02  0.16795637599E+02  0.91081838877E+02  0.97216567317E+02  0.00000000000E+00 0. -1.
         21    1    1    2  503  502 -0.29547692724E+02 -0.16795637599E+02 -0.80044844735E+01  0.34917493601E+02  0.00000000000E+00 0. -1.
</event>
<event>
 4    1  0.2134315E+005  0.5233914E+02  0.7546771E-02  0.1288337E+00
          2   -1    0    0  502    0  0.00000000000E+00  0.00000000000E+00  0.15368117114E+04  0.15368117114E+04  0.00000000000E+00 0.  1.
         21   -1    0    0  503  502 -0.00000000000E+00 -0.00000000000E+00 -0.18921181881E+01  0.18921181881E+01  0.00000000000E+00 0.  1.
          2    1    1    2  501    0 -0.52336198215E+02 -0.55462963768E+00  0.58229069365E+03  0.58463821049E+03  0.00000000000E+00 0.  1.
         21    1    1    2  503  501  0.52336198215E+02  0.55462963768E+00  0.95262889956E+03  0.95406561910E+03  0.00000000000E+00 0.  1.
</event>
<event>
 4    1  0.2134315E+005  0.2106569E+02  0.7546771E-02  0.1518329E+00
          2   -1    0    0  503    0  0.00000000000E+00  0.00000000000E+00  0.11270276744E+04  0.11270276744E+04  0.00000000000E+00 0.  1.
         21   -1    0    0  501  502 -0.00000000000E+00 -0.00000000000E+00 -0.33806104851E+01  0.33806104851E+01  0.00000000000E+00 0.  1.
          2    1    1    2  501    0  0.13561238099E+02 -0.16120049606E+02  0.10930937781E+04  0.10932967442E+04  0.00000000000E+00 0.  1.
         21    1    1    2  503  502 -0.13561238099E+02  0.16120049606E+02  0.30553285881E+02  0.37111540741E+02  0.00000000000E+00 0.  1.
</event>
<event>
 4    1  0.2134315E+005  0.2855380E+02  0.7546771E-02  0.1432595E+00
          2   -1    0    0  503    0  0.00000000000E+00  0.00000000000E+00  0.22519250228E+02  0.22519250228E+02  0.00000000000E+00 0. -1.
         21   -1    0    0  501  502 -0.00000000000E+00 -0.00000000000E+00 -0.39400450598E+02  0.39400450598E+02  0.00000000000E+00 0.  1.
          2    1    1    2  501    0  0.27348765194E+02  0.82075743365E+01  0.37566814471E+00  0.28556266574E+02  0.00000000000E+00 0. -1.
         21    1    1    2  503  502 -0.27348765194E+02 -0.82075743365E+01 -0.17256868514E+02  0.33363434251E+02  0.00000000000E+00 0.  1.
</event>
<event>
 4    1  0.2134315E+005  0.2363017E+02  0.7546771E-02  0.1484733E+00
          2   -1    0    0  502    0  0.00000000000E+00  0.00000000000E+00  0.60593166690E+02  0.60593166690E+02  0.00000000000E+00 0.  1.
         21   -1    0    0  503  502 -0.00000000000E+00 -0.00000000000E+00 -0.14998437817E+02  0.14998437817E+02  0.00000000000E+00 0.  1.
          2    1    1    2  501    0 -0.55009707865E+00 -0.23623769999E+02  0.46266752378E+02  0.51951876688E+02  0.00000000000E+00 0.  1.
         21    1    1    2  503  501  0.55009707865E+00  0.23623769999E+02 -0.67202350545E+00  0.23639727819E+02  0.00000000000E+00 0.  1.
</event>
<event>
 4    1  0.2134315E+005  0.3666365E+02  0.7546771E-02  0.1369230E+00
          2   -1    0    0  503    0  0.00000000000E+00  0.00000000000E+00  0.24151599751E+03  0.24151599751E+03  0.00000000000E+00 0.  1.
         21   -1    0    0  501  502 -0.00000000000E+00 -0.00000000000E+00 -0.66719339234E+01  0.66719339234E+01  0.00000000000E+00 0.  1.
          2    1    1    2  501    0  0.14870392813E+02 -0.33512599200E+02  0.16795027749E+03  0.17190555139E+03  0.00000000000E+00 0.  1.
         21    1    1    2  503  502 -0.14870392813E+02  0.33512599200E+02  0.66893786088E+02  0.76282380041E+02  0.00000000000E+00 0.  1.
</event>
<event>
 4    1  0.2134315E+005  0.2052729E+02  0.7546771E-02  0.1526122E+00
          2   -1    0    0  502    0  0.00000000000E+00  0.00000000000E+00  0.29451125674E+03  0.29451125674E+03  0.00000000000E+00 0. -1.
         21   -1    0    0  503  502 -0.00000000000E+00 -0.00000000000E+00 -0.70636971044E+01  0.70636971044E+01  0.00000000000E+00 0. -1.
          2    1    1    2  501    0  0.20276989123E+02 -0.31958391947E+01  0.27837719676E+03  0.27913300297E+03  0.00000000000E+00 0. -1.
         21    1    1    2  503  501 -0.20276989123E+02  0.31958391947E+01  0.90703628788E+01  0.22441950869E+02  0.00000000000E+00 0. -1.
</event>
<event>
 4    1  0.2134315E+005  0.2054396E+02  0.7546771E-02  0.1525877E+00
          2   -1    0    0  503    0  0.00000000000E+00  0.00000000000E+00  0.32083782900E+03  0.32083782900E+03  0.00000000000E+00 0. -1.
         21   -1    0    0  501  502 -0.00000000000E+00 -0.00000000000E+00 -0.13841312301E+01  0.13841312301E+01  0.00000000000E+00 0. -1.
          2    1    1    2  501    0  0.19550303242E+02 -0.63118793698E+01  0.19560880726E+03  0.19668467061E+03  0.00000000000E+00 0. -1.
         21    1    1    2  503  502 -0.19550303242E+02  0.63118793698E+01  0.12384489051E+03  0.12553728962E+03  0.00000000000E+00 0. -1.
</event>
<event>
 4    1  0.2134315E+005  0.2347618E+02  0.7546771E-02  0.1486604E+00
          2   -1    0    0  503    0  0.00000000000E+00  0.00000000000E+00  0.52001798952E+02  0.52001798952E+02  0.00000000000E+00 0. -1.
         21   -1    0    0  501  502 -0.00000000000E+00 -0.00000000000E+00 -0.12251178350E+03  0.12251178350E+03  0.00000000000E+00 0. -1.
          2    1    1    2  501    0  0.23363974966E+02  0.22925624445E+01  0.48142212647E+02  0.53561215514E+02  0.00000000000E+00 0. -1.
         21    1    1    2  503  502 -0.23363974966E+02 -0.22925624445E+01 -0.11865219720E+03  0.12095236694E+03  0.00000000000E+00 0. -1.
</event>
<event>
 4    1  0.2134315E+005  0.2148390E+02  0.7546771E-02  0.1512467E+00
          2   -1    0    0  502    0  0.00000000000E+00  0.00000000000E+00  0.56716010793E+03  0.56716010793E+03  0.00000000000E+00 0. -1.
         21   -1    0    0  503  502 -0.00000000000E+00 -0.00000000000E+00 -0.10004937320E+01  0.10004937320E+01  0.00000000000E+00 0. -1.
          2    1    1    2  501    0 -0.21152387373E+02 -0.37596108684E+01  0.40579323739E+03  0.40636155044E+03  0.00000000000E+00 0. -1.
         21    1    1    2  503  501  0.21152387373E+02  0.37596108684E+01  0.16036637681E+03  0.16179905122E+03  0.00000000000E+00 0. -1.
</event>
<event>
 4    1  0.2134315E+005  0.2529008E+02  0.7546771E-02  0.1465584E+00
          2   -1    0    0  502    0  0.00000000000E+00  0.00000000000E+00  0.11279925269E+03  0.11279925269E+03  0.00000000000E+00 0. -1.
         21   -1    0    0  503  502 -0.00000000000E+00 -0.00000000000E+00 -0.95861073628E+01  0.95861073628E+01  0.00000000000E+00 0.  1.
          2    1    1    2  501    0 -0.23054834132E+02 -0.10395313313E+02  0.90717461344E+02  0.94176672847E+02  0.00000000000E+00 0. -1.
         21    1    1    2  503  501  0.23054834132E+02  0.10395313313E+02  0.12495683985E+02  0.28208687208E+02  0.00000000000E+00 0.  1.
</event>
<event>
 4    1  0.2134315E+005  0.2165921E+02  0.7546771E-02  0.1510058E+00
          2   -1    0    0  502    0  0.00000000000E+00  0.00000000000E+00  0.81235044994E+03  0.81235044994E+03  0.00000000000E+00 0. -1.
         21   -1    0    0  503  502 -0.00000000000E+00 -0.00000000000E+00 -0.69259056039E+01  0.69259056039E+01  0.00000000000E+00 0. -1.
          2    1    1    2  501    0 -0.18857730994E+02 -0.10653974751E+02  0.79490085430E+03  0.79519588112E+03  0.00000000000E+00 0. -1.
         21    1    1    2  503  501  0.18857730994E+02  0.10653974751E+02  0.10523690041E+02  0.24080474421E+02  0.00000000000E+00 0. -1.
</event>
<event>
 4    1  0.2134315E+005  0.2252255E+02  0.7546771E-02  0.1498582E+00
          2   -1    0    0  502    0  0.00000000000E+00  0.00000000000E+00  0.18999006967E+03  0.18999006967E+03  0.00000000000E+00 0.  1.
         21   -1    0    0  503  502 -0.00000000000E+00 -0.00000000000E+00 -0.25681043722E+02  0.25681043722E+02  0.00000000000E+00 0.  1.
          2    1    1    2  501    0  0.22267848379E+02  0.33776313456E+01  0.18423064543E+03  0.18560225263E+03  0.00000000000E+00 0.  1.
         21    1    1    2  503  501 -0.22267848379E+02 -0.33776313456E+01 -0.19921619482E+02  0.30068860765E+02  0.00000000000E+00 0.  1.
</event>
<event>
 4    1  0.2134315E+005  0.2771702E+02  0.7546771E-02  0.1440535E+00
          2   -1    0    0  502    0  0.00000000000E+00  0.00000000000E+00  0.15245784797E+04  0.15245784797E+04  0.00000000000E+00 0.  1.
         21   -1    0    0  503  502 -0.00000000000E+00 -0.00000000000E+00 -0.60597998627E+00  0.60597998627E+00  0.00000000000E+00 0. -1.
          2    1    1    2  501    0  0.15846679844E+02 -0.22740187681E+02  0.10749801734E+04  0.10753374385E+04  0.00000000000E+00 0.  1.
         21    1    1    2  503  501 -0.15846679844E+02  0.22740187681E+02  0.44899232635E+03  0.44984702124E+03  0.00000000000E+00 0. -1.
</event>
<event>
 4    1  0.2134315E+005  0.2649360E+02  0.7546771E-02  0.1452762E+00
          2   -1    0    0  503    0  0.00000000000E+00  0.00000000000E+00  0.40985222445E+03  0.40985222445E+03  0.00000000000E+00 0. -1.
         21   -1    0    0  501  502 -0.00000000000E+00 -0.00000000000E+00 -0.63236133132E+01  0.63236133132E+01  0.00000000000E+00 0. -1.
          2    1    1    2  501    0 -0.23288005607E+02  0.12632481028E+02  0.37945416668E+03  0.38037793758E+03  0.00000000000E+00 0. -1.
         21    1    1    2  503  502  0.23288005607E+02 -0.12632481028E+02  0.24074444456E+02  0.35797900189E+02  0.00000000000E+00 0. -1.
</event>
<event>
 4    1  0.2134315E+005  0.2367886E+02  0.7546771E-02  0.1484145E+00
          2   -1    0    0  502    0  0.00000000000E+00  0.00000000000E+00  0.52411472067E+01  0.52411472067E+01  0.00000000000E+00 0.  1.
         21   -1    0    0  503  502 -0.00000000000E+00 -0.00000000000E+00 -0.12858506948E+03  0.12858506948E+03  0.00000000000E+00 0. -1.
          2    1    1    2  501    0 -0.23560710628E+02  0.23625187190E+01 -0.34242852633E+02  0.41632457727E+02  0.00000000000E+00 0.  1.
         21    1    1    2  503  501  0.23560710628E+02 -0.23625187190E+01 -0.89101069638E+02  0.92193758957E+02  0.00000000000E+00 0. -1.
</event>
<event>
 4    1  0.2134315E+005  0.2160189E+02  0.7546771E-02  0.1510842E+00
          2   -1    0    0  502    0  0.00000000000E+00  0.00000000000E+00  0.14741378288E+04  0.14741378288E+04  0.00000000000E+00 0.  1.
         21   -1    0    0  503  502 -0.00000000000E+00 -0.00000000000E+00 -0.37482697541E+01  0.37482697541E+01  0.00000000000E+00 0. -1.
          2    1    1    2  501    0 -0.19261099174E+02  0.97801742661E+01  0.14422467055E+04  0.14424084725E+04  0.00000000000E+00 0.  1.
         21    1    1    2  503  501  0.19261099174E+02 -0.97801742661E+01  0.28142853466E+02  0.35477626065E+02  0.00000000000E+00 0. -1.
</event>
<event>
 4    1  0.2134315E+005  0.2433563E+02  0.7546771E-02  0.1476375E+00
          2   -1    0    0  502    0  0.00000000000E+00  0.00000000000E+00  0.48998331738E+02  0.48998331738E+02  0.00000000000E+00 0.  1.
         21   -1    0    0  503  502 -0.00000000000E+00 -0.00000000000E+00 -0.15258219105E+03  0.15258219105E+03  0.00000000000E+00 0.  1.
          2    1    1    2  501    0 -0.99571052449E+01  0.22205384414E+02  0.44923998062E+02  0.51091962613E+02  0.00000000000E+00 0.  1.
         21    1    1    2  503  501  0.99571052449E+01 -0.22205384414E+02 -0.14850785737E+03  0.15048856017E+03  0.00000000000E+00 0.  1.
</event>
<event>
 4    1  0.2134315E+005  0.2564812E+02  0.7546771E-02  0.1461682E+00
          2   -1    0    0  503    0  0.00000000000E+00  0.00000000000E+00  0.81332976098E+03  0.81332976098E+03  0.00000000000E+00 0. -1.
         21   -1    0    0  501  502 -0.00000000000E+00 -0.00000000000E+00 -0.15854408516E+01  0.15854408516E+01  0.00000000000E+00 0. -1.
          2    1    1    2  501    0  0.52200279657E+01  0.25111303730E+02  0.69104997982E+03  0.69152577745E+03  0.00000000000E+00 0. -1.
         21    1    1    2  503  502 -0.52200279657E+01 -0.25111303730E+02  0.12069434030E+03  0.12338942438E+03  0.00000000000E+00 0. -1.
</event>
<event>
 4    1  0.2134315E+005  0.2591313E+02  0.7546771E-02  0.1458842E+00
          2   -1    0    0  502    0  0.00000000000E+00  0.00000000000E+00  0.64840509079E+03  0.64840509079E+03  0.00000000000E+00 0. -1.
         21   -1    0    0  503  502 -0.00000000000E+00 -0.00000000000E+00 -0.75714432984E+01  0.75714432984E+01  0.00000000000E+00 0.  1.
          2    1    1    2  501    0  0.15048698708E+02  0.21095664697E+02  0.62514995871E+03  0.62568679167E+03  0.00000000000E+00 0. -1.
         21    1    1    2  503  501 -0.15048698708E+02 -0.21095664697E+02  0.15683688788E+02  0.30289742419E+02  0.00000000000E+00 0.  1.
</event>
<event>
 4    1  0.2134315E+005  0.3123096E+02  0.7546771E-02  0.1409193E+00
          2   -1    0    0  502    0  0.00000000000E+00  0.00000000000E+00  0.15245747358E+04  0.15245747358E+04  0.00000000000E+00 0.  1.
         21   -1    0    0  503  502 -0.00000000000E+00 -0.00000000000E+00 -0.72587238788E+01  0.72587238788E+01  0.00000000000E+00 0.  1.
          2    1    1    2  501    0  0.25155695459E+02  0.18508480870E+02  0.14900432395E+04  0.14903705004E+04  0.00000000000E+00 0.  1.
         21    1    1    2  503  501 -0.25155695459E+02 -0.18508480870E+02  0.27272772470E+02  0.41462959329E+02  0.00000000000E+00 0.  1.
</event>
<event>
 4    1  0.2134315E+005  0.2893482E+02  0.7546771E-02  0.1429084E+00
          2   -1    0    0  502    0  0.00000000000E+00  0.00000000000E+00  0.82449920057E+03  0.82449920057E+03  0.00000000000E+00 0. -1.
         21   -1    0    0  503  502 -0.00000000000E+00 -0.00000000000E+00 -0.41599329673E+01  0.41599329673E+01  0.00000000000E+00 0. -1.
          2    1    1    2  501    0  0.28818801124E+02  0.25885888133E+01  0.77039851059E+03  0.77094168989E+03  0.00000000000E+00 0. -1.
         21    1    1    2  503  501 -0.28818801124E+02 -0.25885888133E+01  0.49940757015E+02  0.57717443650E+02  0.00000000000E+00 0. -1.
</event>
<event>
 4    1  0.2134315E+005  0.2101232E+02  0.7546771E-02  0.1519089E+00
          2   -1    0    0  503    0  0.00000000000E+00  0.00000000000E+00  0.56095292070E+03  0.56095292070E+03  0.00000000000E+00 0.  1.
         21   -1    0    0  501  502 -0.00000000000E+00 -0.00000000000E+00 -0.26810405345E+01  0.26810405345E+01  0.00000000000E+00 0.  1.
          2    1    1    2  501    0 -0.97825746043E+01  0.18596205239E+02  0.51600064947E+03  0.51642829887E+03  0.00000000000E+00 0.  1.
         21    1    1    2  503  502  0.97825746043E+01 -0.18596205239E+02  0.42271230692E+02  0.47205662366E+02  0.00000000000E+00 0.  1.
</event>
<event>
 4    1  0.2134315E+005  0.2004178E+02  0.7546771E-02  0.1533398E+00
          2   -1    0    0  503    0  0.00000000000E+00  0.00000000000E+00  0.87923044982E+03  0.87923044982E+03  0.00000000000E+00 0. -1.
         21   -1    0    0  501  502 -0.00000000000E+00 -0.00000000000E+00 -0.21519494823E+01  0.21519494823E+01  0.00000000000E+00 0.  1.
          2    1    1    2  501    0 -0.19694910980E+02 -0.37126199575E+01  0.82966501735E+03  0.82990705147E+03  0.00000000000E+00 0. -1.
         21    1    1    2  503  502  0.19694910980E+02  0.37126199575E+01  0.47413482993E+02  0.51475347838E+02  0.00000000000E+00 0.  1.
</event>
<event>
 4    1  0.2134315E+005  0.2424299E+02  0.7546771E-02  0.1477453E+00
          2   -1    0    0  503    0  0.00000000000E+00  0.00000000000E+00  0.42561562538E+02  0.42561562538E+02  0.00000000000E+00 0. -1.
         21   -1    0    0  501  502 -0.00000000000E+00 -0.00000000000E+00 -0.30152898169E+02  0.30152898169E+02  0.00000000000E+00 0.  1.
          2    1    1    2  501    0  0.13880257426E+02  0.19876139951E+02  0.32971797453E+02  0.40925076822E+02  0.00000000000E+00 0. -1.
         21    1    1    2  503  502 -0.13880257426E+02 -0.19876139951E+02 -0.20563133084E+02  0.31789383885E+02  0.00000000000E+00 0.  1.
</event>
<event>
 4    1  0.2134315E+005  0.2463563E+02  0.7546771E-02  0.1472921E+00
          2   -1    0    0  502    0  0.00000000000E+00  0.00000000000E+00  0.14147084505E+04  0.14147084505E+04  0.00000000000E+00 0. -1.
         21   -1    0    0  503  502 -0.00000000000E+00 -0.00000000000E+00 -0.43168153577E+01  0.43168153577E+01  0.00000000000E+00 0.  1.
          2    1    1    2  501    0  0.21359408338E+02 -0.12275589715E+02  0.13785305757E+04  0.13787506891E+04  0.00000000000E+00 0. -1.
         21    1    1    2  503  501 -0.21359408338E+02  0.12275589715E+02  0.31861059411E+02  0.40274576773E+02  0.00000000000E+00 0.  1.
</event>
<event>
 4    1  0.2134315E+005  0.3227796E+02  0.7546771E-02  0.1400781E+00
          2   -1    0    0  502    0  0.00000000000E+00  0.00000000000E+00  0.21744560436E+04  0.21744560436E+04  0.00000000000E+00 0.  1.
         21   -1    0    0  503  502 -0.00000000000E+00 -0.00000000000E+00 -0.60905841203E+01  0.60905841203E+01  0.00000000000E+00 0.  1.
          2    1    1    2  501    0 -0.90098985254E+01 -0.30994977924E+02  0.21306924464E+04  0.21309369226E+04  0.00000000000E+00 0.  1.
         21    1    1    2  503  501  0.90098985254E+01  0.30994977924E+02  0.37673013068E+02  0.49609705114E+02  0.00000000000E+00 0.  1.
</event>
<event>
 4    1  0.2134315E+005  0.4337355E+02  0.7546771E-02  0.1329775E+00
          2   -1    0    0  503    0  0.00000000000E+00  0.00000000000E+00  0.15985907957E+04  0.15985907957E+04  0.00000000000E+00 0.  1.
         21   -1    0    0  501  502 -0.00000000000E+00 -0.00000000000E+00 -0.11768502137E+01  0.11768502137E+01  0.00000000000E+00 0.  1.
          2    1    1    2  501    0  0.23199984603E+02  0.36647313661E+02  0.80225597188E+03  0.80342760053E+03  0.00000000000E+00 0.  1.
         21    1    1    2  503  502 -0.23199984603E+02 -0.36647313661E+02  0.79515797364E+03  0.79634004542E+03  0.00000000000E+00 0.  1.
</event>
<event>
 4    1  0.2134315E+005  0.2065195E+02  0.7546771E-02  0.1524293E+00
          2   -1    0    0  503    0  0.00000000000E+00  0.00000000000E+00  0.49517773820E+03  0.49517773820E+03  0.00000000000E+00 0.  1.
         21   -1    0    0  501  502 -0.00000000000E+00 -0.00000000000E+00 -0.11974537868E+01  0.11974537868E+01  0.00000000000E+00 0. -1.
          2    1    1    2  501    0 -0.19352416168E+02  0.72101962689E+01  0.37848579758E+03  0.37904881204E+03  0.00000000000E+00 0.  1.
         21    1    1    2  503  502  0.19352416168E+02 -0.72101962689E+01  0.11549448684E+03  0.11732637995E+03  0.00000000000E+00 0. -1.
</event>
<event>
 4    1  0.2134315E+005  0.4387769E+02  0.7546771E-02  0.1327147E+00
          2   -1    0    0  502    0  0.00000000000E+00  0.00000000000E+00  0.30292065453E+03  0.30292065453E+03  0.00000000000E+00 0.  1.
         21   -1    0    0  503  502 -0.00000000000E+00 -0.00000000000E+00 -0.44913914747E+02  0.44913914747E+02  0.00000000000E+00 0. -1.
          2    1    1    2  501    0  0.38642442735E+02  0.20784938136E+02  0.29014625539E+03  0.29344522751E+03  0.00000000000E+00 0.  1.
         21    1    1    2  503  501 -0.38642442735E+02 -0.20784938136E+02 -0.32139515608E+02  0.54389341763E+02  0.00000000000E+00 0. -1.
</event>
<event>
 4    1  0.2134315E+005  0.3805813E+02  0.7546771E-02  0.1360257E+00
          2   -1    0    0  502    0  0.00000000000E+00  0.00000000000E+00  0.28754413440E+03  0.28754413440E+03  0.00000000000E+00 0.  1.
         21   -1    0    0  503  502 -0.00000000000E+00 -0.00000000000E+00 -0.13833492824E+02  0.13833492824E+02  0.00000000000E+00 0.  1.
          2    1    1    2  501    0  0.37154532107E+02 -0.82438941784E+01  0.25701661788E+03  0.25981909652E+03  0.00000000000E+00 0.  1.
         21    1    1    2  503  501 -0.37154532107E+02  0.82438941784E+01  0.16694023692E+02  0.41558530705E+02  0.00000000000E+00 0.  1.
</event>
<event>
 4    1  0.2134315E+005  0.5840405E+02  0.7546771E-02  0.1265354E+00
          2   -1    0    0  502    0  0.00000000000E+00  0.00000000000E+00  0.11837106326E+04  0.11837106326E+04  0.00000000000E+00 0.  1.
         21   -1    0    0  503  502 -0.00000000000E+00 -0.00000000000E+00 -0.38763173167E+02  0.38763173167E+02  0.00000000000E+00 0.  1.
          2    1    1    2  501    0 -0.13661263798E+02  0.56783825758E+02  0.11605523294E+04  0.11620209732E+04  0.00000000000E+00 0.  1.
         21    1    1    2  503  501  0.13661263798E+02 -0.56783825758E+02 -0.15604869944E+02  0.60452832541E+02  0.00000000000E+00 0.  1.
</event>
<event>
 4    1  0.2134315E+005  0.8263632E+02  0.7546771E-02  0.1197856E+00
          2   -1    0    0  503    0  0.00000000000E+00  0.00000000000E+00  0.21387950311E+03  0.21387950311E+03  0.00000000000E+00 0. -1.
         21   -1    0    0  501  502 -0.00000000000E+00 -0.00000000000E+00 -0.50834644387E+02  0.50834644387E+02  0.00000000000E+00 0.  1.
          2    1    1    2  501    0 -0.91743946547E+01 -0.82125462046E+02  0.16224102861E+03  0.18207392015E+03  0.00000000000E+00 0. -1.
         21    1    1    2  503  502  0.91743946547E+01  0.82125462046E+02  0.80383011147E+00  0.82640227349E+02  0.00000000000E+00 0.  1.
</event>
<event>
 4    1  0.2134315E+005  0.2499453E+02  0.7546771E-02  0.1468865E+00
          2   -1    0    0  502    0  0.00000000000E+00  0.00000000000E+00  0.15488869151E+04  0.15488869151E+04  0.00000000000E+00 0. -1.
         21   -1    0    0  503  502 -0.00000000000E+00 -0.00000000000E+00 -0.36007253582E+01  0.36007253582E+01  0.00000000000E+00 0.  1.
          2    1    1    2  501    0  0.17444987332E+02 -0.17899695255E+02  0.15041201510E+04  0.15043278084E+04  0.00000000000E+00 0. -1.
         21    1    1    2  503  501 -0.17444987332E+02  0.17899695255E+02  0.41166038828E+02  0.48159832081E+02  0.00000000000E+00 0.  1.
</event>
<event>
 4    1  0.2134315E+005  0.2952167E+02  0.7546771E-02  0.1423799E+00
          2   -1    0    0  503    0  0.00000000000E+00  0.00000000000E+00  0.78074541331E+03  0.78074541331E+03  0.00000000000E+00 0. -1.
         21   -1    0    0  501  502 -0.00000000000E+00 -0.00000000000E+00 -0.13798715669E+01  0.13798715669E+01  0.00000000000E+00 0.  1.
          2    1    1    2  501    0  0.13646322803E+02  0.26178371373E+02  0.56060323278E+03  0.56138000842E+03  0.00000000000E+00 0. -1.
         21    1    1    2  503  502 -0.13646322803E+02 -0.26178371373E+02  0.21876230897E+03  0.22074527646E+03  0.00000000000E+00 0.  1.
</event>
<event>
 4    1  0.2134315E+005  0.3354182E+02  0.7546771E-02  0.1391115E+00
          2   -1    0    0  503    0  0.00000000000E+00  0.00000000000E+00  0.60911756265E+03  0.60911756265E+03  0.00000000000E+00 0.  1.
         21   -1    0    0  501  502 -0.00000000000E+00 -0.00000000000E+00 -0.75355933850E+02  0.75355933850E+02  0.00000000000E+00 0. -1.
          2    1    1    2  501    0 -0.29743234408E+02  0.15504627919E+02  0.60489732175E+03  0.60582656210E+03  0.00000000000E+00 0.  1.
         21    1    1    2  503  502  0.29743234408E+02 -0.15504627919E+02 -0.71135692949E+02  0.78646934405E+02  0.00000000000E+00 0. -1.
</event>
<event>
 4    1  0.2134315E+005  0.2714457E+02  0.7546771E-02  0.1446161E+00
          2   -1    0    0  503    0  0.00000000000E+00  0.00000000000E+00  0.18981126753E+04  0.18981126753E+04  0.00000000000E+00 0. -1.
         21   -1    0    0  501  502 -0.00000000000E+00 -0.00000000000E+00 -0.55492796035E+00  0.55492796035E+00  0.00000000000E+00 0. -1.
          2    1    1    2  501    0 -0.26221434347E+02 -0.70188369800E+01  0.14691561709E+04  0.14694069151E+04  0.00000000000E+00 0. -1.
         21    1    1    2  503  502  0.26221434347E+02  0.70188369800E+01  0.42840157644E+03  0.42926068815E+03  0.00000000000E+00 0. -1.
</event>
<event>
 4    1  0.2134315E+005  0.4196091E+02  0.7546771E-02  0.1337363E+00
          2   -1    0    0  503    0  0.00000000000E+00  0.00000000000E+00  0.14855751891E+04  0.14855751891E+04  0.00000000000E+00 0. -1.
         21   -1    0    0  501  502 -0.00000000000E+00 -0.00000000000E+00 -0.71488794775E+02  0.71488794775E+02  0.00000000000E+00 0.  1.
          2    1    1    2  501    0 -0.35372239779E+01  0.41811556995E+02  0.14790945916E+04  0.14796896732E+04  0.00000000000E+00 0. -1.
         21    1    1    2  503  502  0.35372239779E+01 -0.41811556995E+02 -0.65008197199E+02  0.77374310691E+02  0.00000000000E+00 0.  1.
</event>
<event>
 4    1  0.2134315E+005  0.3092623E+02  0.7546771E-02  0.1411714E+00
          2   -1    0    0  503    0  0.00000000000E+00  0.00000000000E+00  0.92785419489E+03  0.92785419489E+03  0.00000000000E+00 0.  1.
         21   -1    0    0  501  502 -0.00000000000E+00 -0.00000000000E+00 -0.10312891880E+01  0.10312891880E+01  0.00000000000E+00 0.  1.
          2    1    1    2  501    0 -0.29904689651E+02 -0.78829880161E+01  0.45329455819E+03  0.45434831181E+03  0.00000000000E+00 0.  1.
         21    1    1    2  503  502  0.29904689651E+02  0.78829880161E+01  0.47352834751E+03  0.47453717227E+03  0.00000000000E+00 0.  1.
</event>
<event>
 4    1  0.2134315E+005  0.2105387E+02  0.7546771E-02  0.1518497E+00
          2   -1    0    0  503    0  0.00000000000E+00  0.00000000000E+00  0.93090098112E+02  0.93090098112E+02  0.00000000000E+00 0. -1.
         21   -1    0    0  501  502 -0.00000000000E+00 -0.00000000000E+00 -0.76207386769E+01  0.76207386769E+01  0.00000000000E+00 0. -1.
          2    1    1    2  501    0 -0.33058285976E+01 -0.20792716478E+02  0.73577846423E+02  0.76530811086E+02  0.00000000000E+00 0. -1.
         21    1    1    2  503  502  0.33058285976E+01  0.20792716478E+02  0.11891513012E+02  0.24180025703E+02  0.00000000000E+00 0. -1.
</event>
<event>
 4    1  0.2134315E+005  0.2005393E+02  0.7546771E-02  0.1533213E+00
          2   -1    0    0  502    0  0.00000000000E+00  0.00000000000E+00  0.28637878160E+02  0.28637878160E+02  0.00000000000E+00 0. -1.
         21   -1    0    0  503  502 -0.00000000000E+00 -0.00000000000E+00 -0.10106022928E+03  0.10106022928E+03  0.00000000000E+00 0. -1.
          2    1    1    2  501    0 -0.15976936873E+02  0.12120124511E+02  0.23963850254E+02  0.31247816708E+02  0.00000000000E+00 0. -1.
         21    1    1    2  503  501  0.15976936873E+02 -0.12120124511E+02 -0.96386201370E+02  0.98450290728E+02  0.00000000000E+00 0. -1.
</event>
<event>
 4    1  0.2134315E+005  0.2226214E+02  0.7546771E-02  0.1501977E+00
          2   -1    0    0  503    0  0.00000000000E+00  0.00000000000E+00  0.62551563479E+03  0.62551563479E+03  0.00000000000E+00 0. -1.
         21   -1    0    0  501  502 -0.00000000000E+00 -0.00000000000E+00 -0.13066112151E+01  0.13066112151E+01  0.00000000000E+00 0.  1.
          2    1    1    2  501    0  0.36675246641E+00 -0.22259123611E+02  0.50873436313E+03  0.50922122435E+03  0.00000000000E+00 0. -1.
         21    1    1    2  503  502 -0.36675246641E+00  0.22259123611E+02  0.11547466044E+03  0.11760102166E+03  0.00000000000E+00 0.  1.
</event>
<event>
 4    1  0.2134315E+005  0.6717833E+02  0.7546771E-02  0.1237218E+00
          2   -1    0    0  502    0  0.00000000000E+00  0.00000000000E+00  0.20468829040E+04  0.20468829040E+04  0.00000000000E+00 0.  1.
         21   -1    0    0  503  502 -0.00000000000E+00 -0.00000000000E+00 -0.44758920173E+01  0.44758920173E+01  0.00000000000E+00 0.  1.
          2    1    1    2  501    0 -0.62243168704E+02  0.25272819803E+02  0.17518226773E+04  0.17531102704E+04  0.00000000000E+00 0.  1.
         21    1    1    2  503  501  0.62243168704E+02 -0.25272819803E+02  0.29058433467E+03  0.29824852561E+03  0.00000000000E+00 0.  1.
</event>
<event>
 4    1  0.2134315E+005  0.3400616E+02  0.7546771E-02  0.1387688E+00
          2   -1    0    0  503    0  0.00000000000E+00  0.00000000000E+00  0.71899734121E+03  0.71899734121E+03  0.00000000000E+00 0.  1.
         21   -1    0    0  501  502 -0.00000000000E+00 -0.00000000000E+00 -0.53600114473E+01  0.53600114473E+01  0.00000000000E+00 0.  1.
          2    1    1    2  501    0 -0.33991325618E+02  0.10042566722E+01  0.65982400258E+03  0.66069972993E+03  0.00000000000E+00 0.  1.
         21    1    1    2  503  502  0.33991325618E+02 -0.10042566722E+01  0.53813327179E+02  0.63657622723E+02  0.00000000000E+00 0.  1.
</event>
<event>
 4    1  0.2134315E+005  0.2534178E+02  0.7546771E-02  0.1465016E+00
          2   -1    0    0  502    0  0.00000000000E+00  0.00000000000E+00  0.84962746787E+03  0.84962746787E+03  0.00000000000E+00 0. -1.
         21   -1    0    0  503  502 -0.00000000000E+00 -0.00000000000E+00 -0.20560950784E+01  0.20560950784E+01  0.00000000000E+00 0.  1.
          2    1    1    2  501    0 -0.18025266646E+02 -0.17812796342E+02  0.76242418366E+03  0.76284522794E+03  0.00000000000E+00 0. -1.
         21    1    1    2  503  501  0.18025266646E+02  0.17812796342E+02  0.85147189128E+02  0.88838335012E+02  0.00000000000E+00 0.  1.
</event>
<event>
 4    1  0.2134315E+005  0.2183405E+02  0.7546771E-02  0.1507682E+00
          2   -1    0    0  503    0  0.00000000000E+00  0.00000000000E+00  0.62985256339E+03  0.62985256339E+03  0.00000000000E+00 0. -1.
         21   -1    0    0  501  502 -0.00000000000E+00 -0.00000000000E+00 -0.14937684058E+01  0.14937684058E+01  0.00000000000E+00 0. -1.
          2    1    1    2  501    0 -0.10059294861E+02  0.19378756419E+02  0.53589465490E+03  0.53633926461E+03  0.00000000000E+00 0. -1.
         21    1    1    2  503  502  0.10059294861E+02 -0.19378756419E+02  0.92464140084E+02  0.95007067184E+02  0.00000000000E+00 0. -1.
</event>
<event>
 4    1  0.2134315E+005  0.3321226E+02  0.7546771E-02  0.1393587E+00
          2   -1    0    0  503    0  0.00000000000E+00  0.00000000000E+00  0.53022396145E+03  0.53022396145E+03  0.00000000000E+00 0.  1.
         21   -1    0    0  501  502 -0.00000000000E+00 -0.00000000000E+00 -0.31301324280E+02  0.31301324280E+02  0.00000000000E+00 0. -1.
          2    1    1    2  501    0  0.41543871041E+01  0.32951411035E+02  0.52073350630E+03  0.52179156663E+03  0.00000000000E+00 0.  1.
         21    1    1    2  503  502 -0.41543871041E+01 -0.32951411035E+02 -0.21810869130E+02  0.39733719101E+02  0.00000000000E+00 0. -1.
</event>
<event>
 4    1  0.2134315E+005  0.2185658E+02  0.7546771E-02  0.1507378E+00
          2   -1    0    0  503    0  0.00000000000E+00  0.00000000000E+00  0.13862536995E+04  0.13862536995E+04  0.00000000000E+00 0.  1.
         21   -1    0    0  501  502 -0.00000000000E+00 -0.00000000000E+00 -0.44070176430E+00  0.44070176430E+00  0.00000000000E+00 0.  1.
          2    1    1    2  501    0  0.81605145588E+01 -0.20276002353E+02  0.10166732473E+04  0.10169081581E+04  0.00000000000E+00 0.  1.
         21    1    1    2  503  502 -0.81605145588E+01  0.20276002353E+02  0.36913975044E+03  0.36978624315E+03  0.00000000000E+00 0.  1.
</event>
<event>
 4    1  0.2134315E+005  0.4020330E+02  0.7546771E-02  0.1347299E+00
          2   -1    0    0  503    0  0.00000000000E+00  0.00000000000E+00  0.19535799725E+04  0.19535799725E+04  0.00000000000E+00 0.  1.
         21   -1    0    0  501  502 -0.00000000000E+00 -0.00000000000E+00 -0.86480934281E+02  0.86480934281E+02  0.00000000000E+00 0.  1.
          2    1    1    2  501    0 -0.76390763677E+01 -0.39470877498E+02  0.19486889740E+04  0.19491036461E+04  0.00000000000E+00 0.  1.
         21    1    1    2  503  502  0.76390763677E+01  0.39470877498E+02 -0.81589935783E+02  0.90957260729E+02  0.00000000000E+00 0.  1.
</event>
<event>
 4    1  0.2134315E+005  0.3095419E+02  0.7546771E-02  0.1411482E+00
          2   -1    0    0  503    0  0.00000000000E+00  0.00000000000E+00  0.12654414611E+03  0.12654414611E+03  0.00000000000E+00 0. -1.
         21   -1    0    0  501  502 -0.00000000000E+00 -0.00000000000E+00 -0.38250264734E+02  0.38250264734E+02  0.00000000000E+00 0.  1.
          2    1    1    2  501    0  0.47562028433E+01  0.30586604566E+02  0.11793946334E+03  0.12193391184E+03  0.00000000000E+00 0. -1.
         21    1    1    2  503  502 -0.47562028433E+01 -0.30586604566E+02 -0.29645581966E+02  0.42860498999E+02  0.00000000000E+00 0.  1.
</event>
<event>
 4    1  0.2134315E+005  0.2450085E+02  0.7546771E-02  0.1474465E+00
          2   -1    0    0  503    0  0.00000000000E+00  0.00000000000E+00  0.93350645215E+01  0.93350645215E+01  0.00000000000E+00 0.  1.
         21   -1    0    0  501  502 -0.00000000000E+00 -0.00000000000E+00 -0.74923065549E+02  0.74923065549E+02  0.00000000000E+00 0.  1.
          2    1    1    2  501    0 -0.21446875446E+02 -0.11845812738E+02 -0.16934269083E+02  0.29783572909E+02  0.00000000000E+00 0.  1.
         21    1    1    2  503  502  0.21446875446E+02  0.11845812738E+02 -0.48653731944E+02  0.54474557161E+02  0.00000000000E+00 0.  1.
</event>
<event>
 4    1  0.2134315E+005  0.2490912E+02  0.7546771E-02  0.1469823E+00
          2   -1    0    0  503    0  0.00000000000E+00  0.00000000000E+00  0.13198061447E+03  0.13198061447E+03  0.00000000000E+00 0.  1.
         21   -1    0    0  501  502 -0.00000000000E+00 -0.00000000000E+00 -0.73424120987E+03  0.73424120987E+03  0.00000000000E+00 0.  1.
          2    1    1    2  501    0  0.22056810088E+02  0.11574176142E+02  0.13059183285E+03  0.13294619675E+03  0.00000000000E+00 0.  1.
         21    1    1    2  503  502 -0.22056810088E+02 -0.11574176142E+02 -0.73285242825E+03  0.73327562758E+03  0.00000000000E+00 0.  1.
</event>
<event>
 4    1  0.2134315E+005  0.2542151E+02  0.7546771E-02  0.1464143E+00
          2   -1    0    0  502    0  0.00000000000E+00  0.00000000000E+00  0.96980220042E+03  0.96980220042E+03  0.00000000000E+00 0.  1.
         21   -1    0    0  503  502 -0.00000000000E+00 -0.00000000000E+00 -0.76451866497E+00  0.76451866497E+00  0.00000000000E+00 0. -1.
          2    1    1    2  501    0 -0.42211963466E-01  0.25421471642E+02  0.65839100851E+03  0.65888160780E+03  0.00000000000E+00 0.  1.
         21    1    1    2  503  501  0.42211963466E-01 -0.25421471642E+02  0.31064667324E+03  0.31168511129E+03  0.00000000000E+00 0. -1.
</event>
<event>
 4    1  0.2134315E+005  0.2446135E+02  0.7546771E-02  0.1474920E+00
          2   -1    0    0  502    0  0.00000000000E+00  0.00000000000E+00  0.24381413202E+02  0.24381413202E+02  0.00000000000E+00 0. -1.
         21   -1    0    0  503  502 -0.00000000000E+00 -0.00000000000E+00 -0.37618803006E+02  0.37618803006E+02  0.00000000000E+00 0. -1.
          2    1    1    2  501    0 -0.23466430670E+02 -0.69053798027E+01  0.11658898304E+02  0.27097740649E+02  0.00000000000E+00 0. -1.
         21    1    1    2  503  501  0.23466430670E+02  0.69053798027E+01 -0.24896288107E+02  0.34902475559E+02  0.00000000000E+00 0. -1.
</event>
<event>
 4    1  0.2134315E+005  0.2364474E+02  0.7546771E-02  0.1484557E+00
          2   -1    0    0  503    0  0.00000000000E+00  0.00000000000E+00  0.73434849246E+03  0.73434849246E+03  0.00000000000E+00 0.  1.
         21   -1    0    0  501  502 -0.00000000000E+00 -0.00000000000E+00 -0.26643694005E+01  0.26643694005E+01  0.00000000000E+00 0.  1.
          2    1    1    2  501    0  0.15693559912E+02  0.17685757111E+02  0.67728102172E+03  0.67769363005E+03  0.00000000000E+00 0.  1.
         21    1    1    2  503  502 -0.15693559912E+02 -0.17685757111E+02  0.54403101337E+02  0.59319231809E+02  0.00000000000E+00 0.  1.
</event>
<event>
 4    1  0.2134315E+005  0.2451922E+02  0.7546771E-02  0.1474254E+00
          2   -1    0    0  503    0  0.00000000000E+00  0.00000000000E+00  0.14545122461E+03  0.14545122461E+03  0.00000000000E+00 0.  1.
         21   -1    0    0  501  502 -0.00000000000E+00 -0.00000000000E+00 -0.29380672184E+02  0.29380672184E+02  0.00000000000E+00 0. -1.
          2    1    1    2  501    0  0.20251975069E+02 -0.13822075232E+02  0.13906940686E+03  0.14121434835E+03  0.00000000000E+00 0.  1.
         21    1    1    2  503  502 -0.20251975069E+02  0.13822075232E+02 -0.22998854431E+02  0.33617548439E+02  0.00000000000E+00 0. -1.
</event>
<event>
 4    1  0.2134315E+005  0.2670427E+02  0.7546771E-02  0.1450602E+00
          2   -1    0    0  502    0  0.00000000000E+00  0.00000000000E+00  0.19849919660E+04  0.19849919660E+04  0.00000000000E+00 0. -1.
         21   -1    0    0  503  502 -0.00000000000E+00 -0.00000000000E+00 -0.21514473866E+02  0.21514473866E+02  0.00000000000E+00 0. -1.
          2    1    1    2  501    0 -0.20551522908E+02 -0.17051487002E+02  0.19765803949E+04  0.19767607786E+04  0.00000000000E+00 0. -1.
         21    1    1    2  503  501  0.20551522908E+02  0.17051487002E+02 -0.13102902772E+02  0.29745661262E+02  0.00000000000E+00 0. -1.
</event>
<event>
 4    1  0.2134315E+005  0.2427928E+02  0.7546771E-02  0.1477030E+00
          2   -1    0    0  502    0  0.00000000000E+00  0.00000000000E+00  0.15573590788E+03  0.15573590788E+03  0.00000000000E+00 0.  1.
         21   -1    0    0  503  502 -0.00000000000E+00 -0.00000000000E+00 -0.74735536616E+01  0.74735536616E+01  0.00000000000E+00 0.  1.
          2    1    1    2  501    0  0.11505570245E+02 -0.21380023199E+02  0.13145974172E+03  0.13368301026E+03  0.00000000000E+00 0.  1.
         21    1    1    2  503  501 -0.11505570245E+02  0.21380023199E+02  0.16802612499E+02  0.29526451284E+02  0.00000000000E+00 0.  1.
</event>
<event>
 4    1  0.2134315E+005  0.3298994E+02  0.7546771E-02  0.1395273E+00
          2   -1    0    0  502    0  0.00000000000E+00  0.00000000000E+00  0.14809130898E+04  0.14809130898E+04  0.00000000000E+00 0.  1.
         21   -1    0    0  503  502 -0.00000000000E+00 -0.00000000000E+00 -0.26050521284E+02  0.26050521284E+02  0.00000000000E+00 0.  1.
          2    1    1    2  501    0 -0.30526102524E+02  0.12509716020E+02  0.14702088549E+04  0.14705789380E+04  0.00000000000E+00 0.  1.
         21    1    1    2  503  501  0.30526102524E+02 -0.12509716020E+02 -0.15346286362E+02  0.36384673083E+02  0.00000000000E+00 0.  1.
</event>
<event>
 4    1  0.2134315E+005  0.3918512E+02  0.7546771E-02  0.1353328E+00
          2   -1    0    0  502    0  0.00000000000E+00  0.00000000000E+00  0.65132668793E+02  0.65132668793E+02  0.00000000000E+00 0.  1.
         21   -1    0    0  503  502 -0.00000000000E+00 -0.00000000000E+00 -0.21313910915E+03  0.21313910915E+03  0.00000000000E+00 0. -1.
          2    1    1    2  501    0  0.53959457776E+01 -0.38811818483E+02  0.57212589435E+02  0.69345179174E+02  0.00000000000E+00 0.  1.
         21    1    1    2  503  501 -0.53959457776E+01  0.38811818483E+02 -0.20521902979E+03  0.20892659877E+03  0.00000000000E+00 0. -1.
</event>
<event>
 4    1  0.2134315E+005  0.2317433E+02  0.7546771E-02  0.1490321E+00
          2   -1    0    0  502    0  0.00000000000E+00  0.00000000000E+00  0.19176233880E+03  0.19176233880E+03  0.00000000000E+00 0. -1.
         21   -1    0    0  503  502 -0.00000000000E+00 -0.00000000000E+00 -0.13369337852E+02  0.13369337852E+02  0.00000000000E+00 0. -1.
          2    1    1    2  501    0  0.15751603704E+02 -0.16998127216E+02  0.18038905372E+03  0.18187154822E+03  0.00000000000E+00 0. -1.
         21    1    1    2  503  501 -0.15751603704E+02  0.16998127216E+02 -0.19960527749E+01  0.23260128435E+02  0.00000000000E+00 0. -1.
</event>
<event>
 4    1  0.2134315E+005  0.2020063E+02  0.7546771E-02  0.1530991E+00
          2   -1    0    0  502    0  0.00000000000E+00  0.00000000000E+00  0.10687870695E+03  0.10687870695E+03  0.00000000000E+00 0.  1.
         21   -1    0    0  503  502 -0.00000000000E+00 -0.00000000000E+00 -0.36030827628E+02  0.36030827628E+02  0.00000000000E+00 0. -1.
          2    1    1    2  501    0  0.11899084134E+02 -0.16324134905E+02  0.10298684946E+03  0.10494930559E+03  0.00000000000E+00 0.  1.
         21    1    1    2  503  501 -0.11899084134E+02  0.16324134905E+02 -0.32138970131E+02  0.37960228987E+02  0.00000000000E+00 0. -1.
</event>
<event>
 4    1  0.2134315E+005  0.2172182E+02  0.7546771E-02  0.1509204E+00
          2   -1    0    0  502    0  0.00000000000E+00  0.00000000000E+00  0.23048622585E+03  0.23048622585E+03  0.00000000000E+00 0.  1.
         21   -1    0    0  503  502 -0.00000000000E+00 -0.00000000000E+00 -0.17542587574E+02  0.17542587574E+02  0.00000000000E+00 0.  1.
          2    1    1    2  501    0  0.17276399853E+02 -0.13166760352E+02  0.22302587103E+03  0.22408118332E+03  0.00000000000E+00 0.  1.
         21    1    1    2  503  501 -0.17276399853E+02  0.13166760352E+02 -0.10082232757E+02  0.23947630100E+02  0.00000000000E+00 0.  1.
</event>
<event>
 4    1  0.2134315E+005  0.4415701E+02  0.7546771E-02  0.1325709E+00
          2   -1    0    0  503    0  0.00000000000E+00  0.00000000000E+00  0.30733977220E+04  0.30733977220E+04  0.00000000000E+00 0. -1.
         21   -1    0    0  501  502 -0.00000000000E+00 -0.00000000000E+00 -0.73862591555E+00  0.73862591555E+00  0.00000000000E+00 0. -1.
          2    1    1    2  501    0 -0.33478256738E+02  0.28793186339E+02  0.21136487653E+04  0.21141099651E+04  0.00000000000E+00 0. -1.
         21    1    1    2  503  502  0.33478256738E+02 -0.28793186339E+02  0.95901033078E+03  0.96002638287E+03  0.00000000000E+00 0. -1.
</event>
<event>
 4    1  0.2134315E+005  0.4530501E+02  0.7546771E-02  0.1319921E+00
          2   -1    0    0  503    0  0.00000000000E+00  0.00000000000E+00  0.12675397468E+03  0.12675397468E+03  0.00000000000E+00 0. -1.
         21   -1    0    0  501  502 -0.00000000000E+00 -0.00000000000E+00 -0.16204023059E+02  0.16204023059E+02  0.00000000000E+00 0. -1.
          2    1    1    2  501    0 -0.18822369975E+02  0.41209976402E+02  0.57128141340E+02  0.72912058670E+02  0.00000000000E+00 0. -1.
         21    1    1    2  503  502  0.18822369975E+02 -0.41209976402E+02  0.53421810285E+02  0.70045939073E+02  0.00000000000E+00 0. -1.
</event>
<event>
 4    1  0.2134315E+005  0.6028340E+02  0.7546771E-02  0.1258873E+00
          2   -1    0    0  503    0  0.00000000000E+00  0.00000000000E+00  0.11929239004E+04  0.11929239004E+04  0.00000000000E+00 0. -1.
         21   -1    0    0  501  502 -0.00000000000E+00 -0.00000000000E+00 -0.17979280456E+02  0.17979280456E+02  0.00000000000E+00 0. -1.
          2    1    1    2  501    0 -0.11187786537E+02 -0.59236149626E+02  0.11392517275E+04  0.11408455577E+04  0.00000000000E+00 0. -1.
         21    1    1    2  503  502  0.11187786537E+02  0.59236149626E+02  0.35692892496E+02  0.70057623175E+02  0.00000000000E+00 0. -1.
</event>
<event>
 4    1  0.2134315E+005  0.4629960E+02  0.7546771E-02  0.1315066E+00
          2   -1    0    0  502    0  0.00000000000E+00  0.00000000000E+00  0.17358053396E+04  0.17358053396E+04  0.00000000000E+00 0.  1.
         21   -1    0    0  503  502 -0.00000000000E+00 -0.00000000000E+00 -0.88028570700E+01  0.88028570700E+01  0.00000000000E+00 0. -1.
          2    1    1    2  501    0 -0.46299543150E+02  0.73471174496E-01  0.16723059064E+04  0.16729467110E+04  0.00000000000E+00 0.  1.
         21    1    1    2  503  501  0.46299543150E+02 -0.73471174496E-01  0.54696576085E+02  0.71661485677E+02  0.00000000000E+00 0. -1.
</event>
<event>
 4    1  0.2134315E+005  0.2168698E+02  0.7546771E-02  0.1509678E+00
          2   -1    0    0  503    0  0.00000000000E+00  0.00000000000E+00  0.61983502445E+02  0.61983502445E+02  0.00000000000E+00 0. -1.
         21   -1    0    0  501  502 -0.00000000000E+00 -0.00000000000E+00 -0.10178018587E+02  0.10178018587E+02  0.00000000000E+00 0. -1.
          2    1    1    2  501    0  0.18056513843E+02  0.12011965038E+02  0.77014013459E+01  0.23013834511E+02  0.00000000000E+00 0. -1.
         21    1    1    2  503  502 -0.18056513843E+02 -0.12011965038E+02  0.44104082511E+02  0.49147686521E+02  0.00000000000E+00 0. -1.
</event>
<event>
 4    1  0.2134315E+005  0.5568876E+02  0.7546771E-02  0.1275229E+00
          2   -1    0    0  502    0  0.00000000000E+00  0.00000000000E+00  0.22655765776E+03  0.22655765776E+03  0.00000000000E+00 0. -1.
         21   -1    0    0  503  502 -0.00000000000E+00 -0.00000000000E+00 -0.29321685021E+02  0.29321685021E+02  0.00000000000E+00 0. -1.
          2    1    1    2  501    0 -0.18602010208E+02 -0.52490027169E+02  0.19203679066E+03  0.19994841011E+03  0.00000000000E+00 0. -1.
         21    1    1    2  503  501  0.18602010208E+02  0.52490027169E+02  0.51991820792E+01  0.55930932678E+02  0.00000000000E+00 0. -1.
</event>
<event>
 4    1  0.2134315E+005  0.2112295E+02  0.7546771E-02  0.1517517E+00
          2   -1    0    0  502    0  0.00000000000E+00  0.00000000000E+00  0.38996051633E+03  0.38996051633E+03  0.00000000000E+00 0.  1.
         21   -1    0    0  503  502 -0.00000000000E+00 -0.00000000000E+00 -0.16960448171E+03  0.16960448171E+03  0.00000000000E+00 0. -1.
          2    1    1    2  501    0 -0.20578350431E+02  0.47655405287E+01  0.38901520273E+03  0.38958825295E+03  0.00000000000E+00 0.  1.
         21    1    1    2  503  501  0.20578350431E+02 -0.47655405287E+01 -0.16865916811E+03  0.16997674508E+03  0.00000000000E+00 0. -1.
</event>
<event>
 4    1  0.2134315E+005  0.6557195E+02  0.7546771E-02  0.1241992E+00
          2   -1    0    0  503    0  0.00000000000E+00  0.00000000000E+00  0.55244172702E+03  0.55244172702E+03  0.00000000000E+00 0.  1.
         21   -1    0    0  501  502 -0.00000000000E+00 -0.00000000000E+00 -0.26066336754E+02  0.26066336754E+02  0.00000000000E+00 0. -1.
          2    1    1    2  501    0  0.57394812867E+02  0.31709863981E+02  0.50543925907E+03  0.50967492054E+03  0.00000000000E+00 0.  1.
         21    1    1    2  503  502 -0.57394812867E+02 -0.31709863981E+02  0.20936131192E+02  0.68833143230E+02  0.00000000000E+00 0. -1.
</event>
<event>
 4    1  0.2134315E+005  0.2578490E+02  0.7546771E-02  0.1460211E+00
          2   -1    0    0  503    0  0.00000000000E+00  0.00000000000E+00  0.56845977532E+03  0.56845977532E+03  0.00000000000E+00 0. -1.
         21   -1    0    0  501  502 -0.00000000000E+00 -0.00000000000E+00 -0.38303698800E+02  0.38303698800E+02  0.00000000000E+00 0. -1.
          2    1    1    2  501    0 -0.21821099312E+02  0.13736839694E+02  0.56379206612E+03  0.56438139140E+03  0.00000000000E+00 0. -1.
         21    1    1    2  503  502  0.21821099312E+02 -0.13736839694E+02 -0.33635989595E+02  0.42382082723E+02  0.00000000000E+00 0. -1.
</event>
<event>
 4    1  0.2134315E+005  0.2921549E+02  0.7546771E-02  0.1426538E+00
          2   -1    0    0  503    0  0.00000000000E+00  0.00000000000E+00  0.77489520879E+03  0.77489520879E+03  0.00000000000E+00 0.  1.
         21   -1    0    0  501  502 -0.00000000000E+00 -0.00000000000E+00 -0.11126777338E+01  0.11126777338E+01  0.00000000000E+00 0.  1.
          2    1    1    2  501    0 -0.27092039511E+02 -0.10934627958E+02  0.42578574429E+03  0.42678688445E+03  0.00000000000E+00 0.  1.
         21    1    1    2  503  502  0.27092039511E+02  0.10934627958E+02  0.34799678676E+03  0.34922100207E+03  0.00000000000E+00 0.  1.
</event>
<event>
 4    1  0.2134315E+005  0.2301225E+02  0.7546771E-02  0.1492344E+00
          2   -1    0    0  503    0  0.00000000000E+00  0.00000000000E+00  0.16011034281E+03  0.16011034281E+03  0.00000000000E+00 0. -1.
         21   -1    0    0  501  502 -0.00000000000E+00 -0.00000000000E+00 -0.54505977743E+01  0.54505977743E+01  0.00000000000E+00 0. -1.
          2    1    1    2  501    0 -0.22467952053E+02  0.49754227334E+01  0.12923707350E+03  0.13126989323E+03  0.00000000000E+00 0. -1.
         21    1    1    2  503  502  0.22467952053E+02 -0.49754227334E+01  0.25422671533E+02  0.34291047355E+02  0.00000000000E+00 0. -1.
</event>
<event>
 4    1  0.2334883E+005  0.2643967E+02  0.7546771E-02  0.1453319E+00
          2   -1    0    0  503    0  0.00000000000E+00  0.00000000000E+00  0.12497255013E+04  0.12497255013E+04  0.00000000000E+00 0. -1.
         21   -1    0    0  501  502 -0.00000000000E+00 -0.00000000000E+00 -0.50510813892E+03  0.50510813892E+03  0.00000000000E+00 0.  1.
          2    1    1    2  501    0  0.11935355891E+02  0.23592441804E+02  0.12492395315E+04  0.12495192928E+04  0.00000000000E+00 0. -1.
         21    1    1    2  503  502 -0.11935355891E+02 -0.23592441804E+02 -0.50462216917E+03  0.50531434736E+03  0.00000000000E+00 0.  1.
</event>
<event>
 4    1  0.2134315E+005  0.2945039E+02  0.7546771E-02  0.1424433E+00
          2   -1    0    0  502    0  0.00000000000E+00  0.00000000000E+00  0.83083216495E+03  0.83083216495E+03  0.00000000000E+00 0. -1.
         21   -1    0    0  503  502 -0.00000000000E+00 -0.00000000000E+00 -0.11293165924E+01  0.11293165924E+01  0.00000000000E+00 0. -1.
          2    1    1    2  501    0 -0.28582972716E+02  0.70950155821E+01  0.52923815734E+03  0.53005693351E+03  0.00000000000E+00 0. -1.
         21    1    1    2  503  501  0.28582972716E+02 -0.70950155821E+01  0.30046469101E+03  0.30190454803E+03  0.00000000000E+00 0. -1.
</event>
<event>
 4    1  0.2134315E+005  0.2606658E+02  0.7546771E-02  0.1457217E+00
          2   -1    0    0  503    0  0.00000000000E+00  0.00000000000E+00  0.63381284598E+01  0.63381284598E+01  0.00000000000E+00 0. -1.
         21   -1    0    0  501  502 -0.00000000000E+00 -0.00000000000E+00 -0.12661961093E+03  0.12661961093E+03  0.00000000000E+00 0. -1.
          2    1    1    2  501    0 -0.15424928536E+02  0.21012808960E+02 -0.34108021432E+02  0.42928122329E+02  0.00000000000E+00 0. -1.
         21    1    1    2  503  502  0.15424928536E+02 -0.21012808960E+02 -0.86173461043E+02  0.90029617065E+02  0.00000000000E+00 0. -1.
</event>
<event>
 4    1  0.2134315E+005  0.2313749E+02  0.7546771E-02  0.1490779E+00
          2   -1    0    0  503    0  0.00000000000E+00  0.00000000000E+00  0.30098227232E+02  0.30098227232E+02  0.00000000000E+00 0. -1.
         21   -1    0    0  501  502 -0.00000000000E+00 -0.00000000000E+00 -0.10378364194E+03  0.10378364194E+03  0.00000000000E+00 0.  1.
          2    1    1    2  501    0  0.18764896002E+02 -0.13535949328E+02  0.24092631767E+02  0.33403564954E+02  0.00000000000E+00 0. -1.
         21    1    1    2  503  502 -0.18764896002E+02  0.13535949328E+02 -0.97778046477E+02  0.10047830422E+03  0.00000000000E+00 0.  1.
</event>
<event>
 4    1  0.2134315E+005  0.3006298E+02  0.7546771E-02  0.1419050E+00
          2   -1    0    0  502    0  0.00000000000E+00  0.00000000000E+00  0.51652930783E+01  0.51652930783E+01  0.00000000000E+00 0.  1.
         21   -1    0    0  503  502 -0.00000000000E+00 -0.00000000000E+00 -0.67579142107E+03  0.67579142107E+03  0.00000000000E+00 0.  1.
          2    1    1    2  501    0  0.20685364747E+02 -0.21815097875E+02 -0.42207773145E+02  0.51819676995E+02  0.00000000000E+00 0.  1.
         21    1    1    2  503  501 -0.20685364747E+02  0.21815097875E+02 -0.62841835485E+03  0.62913703715E+03  0.00000000000E+00 0.  1.
</event>
<event>
 4    1  0.2134315E+005  0.2949569E+02  0.7546771E-02  0.1424030E+00
          2   -1    0    0  503    0  0.00000000000E+00  0.00000000000E+00  0.14757717429E+04  0.14757717429E+04  0.00000000000E+00 0. -1.
         21   -1    0    0  501  502 -0.00000000000E+00 -0.00000000000E+00 -0.64126595187E+00  0.64126595187E+00  0.00000000000E+00 0.  1.
          2    1    1    2  501    0 -0.46176215581E+00 -0.29492077918E+02  0.94726600584E+03  0.94772510872E+03  0.00000000000E+00 0. -1.
         21    1    1    2  503  502  0.46176215581E+00  0.29492077918E+02  0.52786447109E+03  0.52868790011E+03  0.00000000000E+00 0.  1.
</event>
<event>
 4    1  0.2134315E+005  0.3013759E+02  0.7546771E-02  0.1418404E+00
          2   -1    0    0  503    0  0.00000000000E+00  0.00000000000E+00  0.37713363283E+03  0.37713363283E+03  0.00000000000E+00 0. -1.
         21   -1    0    0  501  502 -0.00000000000E+00 -0.00000000000E+00 -0.25260136252E+03  0.25260136252E+03  0.00000000000E+00 0. -1.
          2    1    1    2  501    0 -0.29857687432E+02 -0.40979179972E+01  0.37562902659E+03  0.37683609175E+03  0.00000000000E+00 0. -1.
         21    1    1    2  503  502  0.29857687432E+02  0.40979179972E+01 -0.25109675627E+03  0.25289890360E+03  0.00000000000E+00 0. -1.
</event>
<event>
 4    1  0.2134315E+005  0.2087446E+02  0.7546771E-02  0.1521065E+00
          2   -1    0    0  503    0  0.00000000000E+00  0.00000000000E+00  0.95848357364E+03  0.95848357364E+03  0.00000000000E+00 0.  1.
         21   -1    0    0  501  502 -0.00000000000E+00 -0.00000000000E+00 -0.72195010182E+00  0.72195010182E+00  0.00000000000E+00 0. -1.
          2    1    1    2  501    0 -0.17767221891E+02  0.10957590638E+02  0.77072726492E+03  0.77100989608E+03  0.00000000000E+00 0.  1.
         21    1    1    2  503  502  0.17767221891E+02 -0.10957590638E+02  0.18703435862E+03  0.18819562766E+03  0.00000000000E+00 0. -1.
</event>
<event>
 4    1  0.2134315E+005  0.2032555E+02  0.7546771E-02  0.1529116E+00
          2   -1    0    0  503    0  0.00000000000E+00  0.00000000000E+00  0.24032611446E+02  0.24032611446E+02  0.00000000000E+00 0. -1.
         21   -1    0    0  501  502 -0.00000000000E+00 -0.00000000000E+00 -0.39601592241E+02  0.39601592241E+02  0.00000000000E+00 0. -1.
          2    1    1    2  501    0  0.17409179340E+02  0.10490393755E+02  0.16150745329E+02  0.25961018106E+02  0.00000000000E+00 0. -1.
         21    1    1    2  503  502 -0.17409179340E+02 -0.10490393755E+02 -0.31719726124E+02  0.37673185581E+02  0.00000000000E+00 0. -1.
</event>
<event>
 4    1  0.2134315E+005  0.2579273E+02  0.7546771E-02  0.1460127E+00
          2   -1    0    0  503    0  0.00000000000E+00  0.00000000000E+00  0.21683568837E+01  0.21683568837E+01  0.00000000000E+00 0. -1.
         21   -1    0    0  501  502 -0.00000000000E+00 -0.00000000000E+00 -0.30693488903E+03  0.30693488903E+03  0.00000000000E+00 0.  1.
          2    1    1    2  501    0  0.23853497951E+02 -0.98120027287E+01 -0.14921539718E+03  0.15142819922E+03  0.00000000000E+00 0. -1.
         21    1    1    2  503  502 -0.23853497951E+02  0.98120027287E+01 -0.15555113496E+03  0.15767504669E+03  0.00000000000E+00 0.  1.
</event>
<event>
 4    1  0.2134315E+005  0.2725607E+02  0.7546771E-02  0.1445053E+00
          2   -1    0    0  503    0  0.00000000000E+00  0.00000000000E+00  0.33473603252E+03  0.33473603252E+03  0.00000000000E+00 0.  1.
         21   -1    0    0  501  502 -0.00000000000E+00 -0.00000000000E+00 -0.90764196022E+01  0.90764196022E+01  0.00000000000E+00 0.  1.
          2    1    1    2  501    0 -0.10196299396E+02 -0.25277037893E+02  0.31224814734E+03  0.31343547770E+03  0.00000000000E+00 0.  1.
         21    1    1    2  503  502  0.10196299396E+02  0.25277037893E+02  0.13411465582E+02  0.30376974422E+02  0.00000000000E+00 0.  1.
</event>
<event>
 4    1  0.2134315E+005  0.2146774E+02  0.7546771E-02  0.1512690E+00
          2   -1    0    0  503    0  0.00000000000E+00  0.00000000000E+00  0.37658566276E+02  0.37658566276E+02  0.00000000000E+00 0.  1.
         21   -1    0    0  501  502 -0.00000000000E+00 -0.00000000000E+00 -0.29691866164E+03  0.29691866164E+03  0.00000000000E+00 0.  1.
          2    1    1    2  501    0  0.12773814339E+02 -0.17253797578E+02  0.34174763267E+02  0.40358125675E+02  0.00000000000E+00 0.  1.
         21    1    1    2  503  502 -0.12773814339E+02  0.17253797578E+02 -0.29343485863E+03  0.29421910224E+03  0.00000000000E+00 0.  1.
</event>
<event>
 4    1  0.2134315E+005  0.2460162E+02  0.7546771E-02  0.1473310E+00
          2   -1    0    0  502    0  0.00000000000E+00  0.00000000000E+00  0.14502141008E+03  0.14502141008E+03  0.00000000000E+00 0.  1.
         21   -1    0    0  503  502 -0.00000000000E+00 -0.00000000000E+00 -0.70379181839E+01  0.70379181839E+01  0.00000000000E+00 0. -1.
          2    1    1    2  501    0  0.22157823950E+02 -0.10689751424E+02  0.11749633022E+03  0.12004427335E+03  0.00000000000E+00 0.  1.
         21    1    1    2  503  501 -0.22157823950E+02  0.10689751424E+02  0.20487161667E+02  0.32015054910E+02  0.00000000000E+00 0. -1.
</event>
<event>
 4    1  0.2134315E+005  0.2071898E+02  0.7546771E-02  0.1523315E+00
          2   -1    0    0  502    0  0.00000000000E+00  0.00000000000E+00  0.13718845020E+03  0.13718845020E+03  0.00000000000E+00 0.  1.
         21   -1    0    0  503  502 -0.00000000000E+00 -0.00000000000E+00 -0.24427820454E+02  0.24427820454E+02  0.00000000000E+00 0. -1.
          2    1    1    2  501    0 -0.67946642580E+01  0.19573157505E+02  0.13183557382E+03  0.13345371663E+03  0.00000000000E+00 0.  1.
         21    1    1    2  503  501  0.67946642580E+01 -0.19573157505E+02 -0.19074944083E+02  0.28162554018E+02  0.00000000000E+00 0. -1.
</event>
<event>
 4    1  0.2134315E+005  0.4824655E+02  0.7546771E-02  0.1305959E+00
          2   -1    0    0  503    0  0.00000000000E+00  0.00000000000E+00  0.12017467162E+03  0.12017467162E+03  0.00000000000E+00 0. -1.
         21   -1    0    0  501  502 -0.00000000000E+00 -0.00000000000E+00 -0.19660293605E+03  0.19660293605E+03  0.00000000000E+00 0. -1.
          2    1    1    2  501    0  0.23062603692E+02  0.42377427478E+02  0.11217007796E+03  0.12210592302E+03  0.00000000000E+00 0. -1.
         21    1    1    2  503  502 -0.23062603692E+02 -0.42377427478E+02 -0.18859834240E+03  0.19467168465E+03  0.00000000000E+00 0. -1.
</event>
<event>
 4    1  0.2134315E+005  0.3397250E+02  0.7546771E-02  0.1387934E+00
          2   -1    0    0  502    0  0.00000000000E+00  0.00000000000E+00  0.49703186256E+02  0.49703186256E+02  0.00000000000E+00 0. -1.
         21   -1    0    0  503  502 -0.00000000000E+00 -0.00000000000E+00 -0.11634272365E+03  0.11634272365E+03  0.00000000000E+00 0. -1.
          2    1    1    2  501    0 -0.22700040652E+02  0.25275268582E+02  0.40957397494E+02  0.53213151166E+02  0.00000000000E+00 0. -1.
         21    1    1    2  503  501  0.22700040652E+02 -0.25275268582E+02 -0.10759693489E+03  0.11283275874E+03  0.00000000000E+00 0. -1.
</event>
<event>
 4    1  0.2134315E+005  0.2281732E+02  0.7546771E-02  0.1494805E+00
          2   -1    0    0  503    0  0.00000000000E+00  0.00000000000E+00  0.33168256573E+03  0.33168256573E+03  0.00000000000E+00 0.  1.
         21   -1    0    0  501  502 -0.00000000000E+00 -0.00000000000E+00 -0.67281095514E+02  0.67281095514E+02  0.00000000000E+00 0.  1.
          2    1    1    2  501    0 -0.22756485317E+02  0.16650838823E+01  0.32934188373E+03  0.33013134735E+03  0.00000000000E+00 0.  1.
         21    1    1    2  503  502  0.22756485317E+02 -0.16650838823E+01 -0.64940413512E+02  0.68832313890E+02  0.00000000000E+00 0.  1.
</event>
<event>
 4    1  0.2134315E+005  0.3294620E+02  0.7546771E-02  0.1395607E+00
          2   -1    0    0  503    0  0.00000000000E+00  0.00000000000E+00  0.39981870431E+03  0.39981870431E+03  0.00000000000E+00 0. -1.
         21   -1    0    0  501  502 -0.00000000000E+00 -0.00000000000E+00 -0.59285950989E+01  0.59285950989E+01  0.00000000000E+00 0. -1.
          2    1    1    2  501    0 -0.11179169567E+02 -0.30991580213E+02  0.34631209413E+03  0.34787572266E+03  0.00000000000E+00 0. -1.
         21    1    1    2  503  502  0.11179169567E+02  0.30991580213E+02  0.47578015086E+02  0.57871576752E+02  0.00000000000E+00 0. -1.
</event>
<event>
 4    1  0.2134315E+005  0.2070475E+02  0.7546771E-02  0.1523522E+00
          2   -1    0    0  502    0  0.00000000000E+00  0.00000000000E+00  0.82797010384E+03  0.82797010384E+03  0.00000000000E+00 0. -1.
         21   -1    0    0  503  502 -0.00000000000E+00 -0.00000000000E+00 -0.75649741966E+01  0.75649741966E+01  0.00000000000E+00 0. -1.
          2    1    1    2  501    0 -0.31919087058E+01 -0.20457236062E+02  0.81342047494E+03  0.81368394100E+03  0.00000000000E+00 0. -1.
         21    1    1    2  503  501  0.31919087058E+01  0.20457236062E+02  0.69846547021E+01  0.21851137036E+02  0.00000000000E+00 0. -1.
</event>
<event>
 4    1  0.2134315E+005  0.2506964E+02  0.7546771E-02  0.1468026E+00
          2   -1    0    0  503    0  0.00000000000E+00  0.00000000000E+00  0.58150511213E+02  0.58150511213E+02  0.00000000000E+00 0. -1.
         21   -1    0    0  501  502 -0.00000000000E+00 -0.00000000000E+00 -0.24752654031E+02  0.24752654031E+02  0.00000000000E+00 0.  1.
          2    1    1    2  501    0  0.20112674938E+02 -0.14965525340E+02  0.47811449113E+02  0.53985380504E+02  0.00000000000E+00 0. -1.
         21    1    1    2  503  502 -0.20112674938E+02  0.14965525340E+02 -0.14413591931E+02  0.28917784739E+02  0.00000000000E+00 0.  1.
</event>
<event>
 4    1  0.2134315E+005  0.2062593E+02  0.7546771E-02  0.1524673E+00
          2   -1    0    0  503    0  0.00000000000E+00  0.00000000000E+00  0.53517031448E+03  0.53517031448E+03  0.00000000000E+00 0.  1.
         21   -1    0    0  501  502 -0.00000000000E+00 -0.00000000000E+00 -0.24246515229E+01  0.24246515229E+01  0.00000000000E+00 0. -1.
          2    1    1    2  501    0  0.86851048130E+01  0.18708233642E+02  0.48674447539E+03  0.48718129416E+03  0.00000000000E+00 0.  1.
         21    1    1    2  503  502 -0.86851048130E+01 -0.18708233642E+02  0.46001187565E+02  0.50413671846E+02  0.00000000000E+00 0. -1.
</event>
<event>
 4    1  0.2134315E+005  0.2403735E+02  0.7546771E-02  0.1479867E+00
          2   -1    0    0  503    0  0.00000000000E+00  0.00000000000E+00  0.83295315594E+03  0.83295315594E+03  0.00000000000E+00 0. -1.
         21   -1    0    0  501  502 -0.00000000000E+00 -0.00000000000E+00 -0.29665056516E+01  0.29665056516E+01  0.00000000000E+00 0.  1.
          2    1    1    2  501    0 -0.24028499138E+02  0.65242229351E+00  0.78083737247E+03  0.78120726870E+03  0.00000000000E+00 0. -1.
         21    1    1    2  503  502  0.24028499138E+02 -0.65242229351E+00  0.49149277816E+02  0.54712392888E+02  0.00000000000E+00 0.  1.
</event>
<event>
 4    1  0.2134315E+005  0.3377982E+02  0.7546771E-02  0.1389350E+00
          2   -1    0    0  503    0  0.00000000000E+00  0.00000000000E+00  0.45160772422E+02  0.45160772422E+02  0.00000000000E+00 0.  1.
         21   -1    0    0  501  502 -0.00000000000E+00 -0.00000000000E+00 -0.30105121158E+02  0.30105121158E+02  0.00000000000E+00 0.  1.
          2    1    1    2  501    0  0.33126590746E+02  0.66110131269E+01  0.22614278141E+02  0.40650732895E+02  0.00000000000E+00 0.  1.
         21    1    1    2  503  502 -0.33126590746E+02 -0.66110131269E+01 -0.75586268772E+01  0.34615160686E+02  0.00000000000E+00 0.  1.
</event>
<event>
 4    1  0.2134315E+005  0.2223858E+02  0.7546771E-02  0.1502287E+00
          2   -1    0    0  503    0  0.00000000000E+00  0.00000000000E+00  0.20134899115E+01  0.20134899115E+01  0.00000000000E+00 0. -1.
         21   -1    0    0  501  502 -0.00000000000E+00 -0.00000000000E+00 -0.27698406922E+03  0.27698406922E+03  0.00000000000E+00 0. -1.
          2    1    1    2  501    0  0.30200227986E+01  0.22032567127E+02 -0.18442660189E+03  0.18576255284E+03  0.00000000000E+00 0. -1.
         21    1    1    2  503  502 -0.30200227986E+01 -0.22032567127E+02 -0.90543977417E+02  0.93235006293E+02  0.00000000000E+00 0. -1.
</event>
<event>
 4    1  0.2134315E+005  0.2178232E+02  0.7546771E-02  0.1508382E+00
          2   -1    0    0  502    0  0.00000000000E+00  0.00000000000E+00  0.14174357791E+04  0.14174357791E+04  0.00000000000E+00 0. -1.
         21   -1    0    0  503  502 -0.00000000000E+00 -0.00000000000E+00 -0.42937455663E+01  0.42937455663E+01  0.00000000000E+00 0. -1.
          2    1    1    2  501    0  0.19115385818E+02 -0.10443738974E+02  0.13891642805E+04  0.13893350452E+04  0.00000000000E+00 0. -1.
         21    1    1    2  503  501 -0.19115385818E+02  0.10443738974E+02  0.23977753071E+02  0.32394479484E+02  0.00000000000E+00 0. -1.
</event>
<event>
 4    1  0.2134315E+005  0.2240608E+02  0.7546771E-02  0.1500094E+00
          2   -1    0    0  503    0  0.00000000000E+00  0.00000000000E+00  0.10716926962E+04  0.10716926962E+04  0.00000000000E+00 0. -1.
         21   -1    0    0  501  502 -0.00000000000E+00 -0.00000000000E+00 -0.55244368300E+00  0.55244368300E+00  0.00000000000E+00 0. -1.
          2    1    1    2  501    0 -0.10668561162E+02  0.19703154879E+02  0.74461911101E+03  0.74495614166E+03  0.00000000000E+00 0. -1.
         21    1    1    2  503  502  0.10668561162E+02 -0.19703154879E+02  0.32652114149E+03  0.32728899821E+03  0.00000000000E+00 0. -1.
</event>
<event>
 4    1  0.2134315E+005  0.2064183E+02  0.7546771E-02  0.1524441E+00
          2   -1    0    0  502    0  0.00000000000E+00  0.00000000000E+00  0.78862580803E+03  0.78862580803E+03  0.00000000000E+00 0.  1.
         21   -1    0    0  503  502 -0.00000000000E+00 -0.00000000000E+00 -0.10852008094E+01  0.10852008094E+01  0.00000000000E+00 0.  1.
          2    1    1    2  501    0 -0.10492997603E+02  0.17775888658E+02  0.67356957031E+03  0.67388578503E+03  0.00000000000E+00 0.  1.
         21    1    1    2  503  501  0.10492997603E+02 -0.17775888658E+02  0.11397103691E+03  0.11582522381E+03  0.00000000000E+00 0.  1.
</event>
<event>
 4    1  0.2134315E+005  0.2149223E+02  0.7546771E-02  0.1512352E+00
          2   -1    0    0  503    0  0.00000000000E+00  0.00000000000E+00  0.38075344814E+02  0.38075344814E+02  0.00000000000E+00 0.  1.
         21   -1    0    0  501  502 -0.00000000000E+00 -0.00000000000E+00 -0.17257274914E+02  0.17257274914E+02  0.00000000000E+00 0. -1.
          2    1    1    2  501    0  0.14630111025E+02 -0.15744065432E+02  0.25486893505E+02  0.33339128445E+02  0.00000000000E+00 0.  1.
         21    1    1    2  503  502 -0.14630111025E+02  0.15744065432E+02 -0.46688236059E+01  0.21993491283E+02  0.00000000000E+00 0. -1.
</event>
<event>
 4    1  0.2134315E+005  0.9089147E+02  0.7546771E-02  0.1180602E+00
          2   -1    0    0  502    0  0.00000000000E+00  0.00000000000E+00  0.23834222237E+03  0.23834222237E+03  0.00000000000E+00 0.  1.
         21   -1    0    0  503  502 -0.00000000000E+00 -0.00000000000E+00 -0.49901707710E+02  0.49901707710E+02  0.00000000000E+00 0.  1.
          2    1    1    2  501    0  0.89533366422E+02  0.15653599797E+02  0.17386741981E+03  0.19619158636E+03  0.00000000000E+00 0.  1.
         21    1    1    2  503  501 -0.89533366422E+02 -0.15653599797E+02  0.14573094849E+02  0.92052343712E+02  0.00000000000E+00 0.  1.
</event>
<event>
 4    1  0.2134315E+005  0.2114909E+02  0.7546771E-02  0.1517147E+00
          2   -1    0    0  502    0  0.00000000000E+00  0.00000000000E+00  0.68895608274E+02  0.68895608274E+02  0.00000000000E+00 0. -1.
         21   -1    0    0  503  502 -0.00000000000E+00 -0.00000000000E+00 -0.87396927176E+01  0.87396927176E+01  0.00000000000E+00 0. -1.
          2    1    1    2  501    0 -0.67849463830E+01 -0.20031183931E+02  0.49762741531E+02  0.54070456553E+02  0.00000000000E+00 0. -1.
         21    1    1    2  503  501  0.67849463830E+01  0.20031183931E+02  0.10393174025E+02  0.23564844439E+02  0.00000000000E+00 0. -1.
</event>
<event>
 4    1  0.2134315E+005  0.4154281E+02  0.7546771E-02  0.1339675E+00
          2   -1    0    0  503    0  0.00000000000E+00  0.00000000000E+00  0.81354251332E+03  0.81354251332E+03  0.00000000000E+00 0.  1.
         21   -1    0    0  501  502 -0.00000000000E+00 -0.00000000000E+00 -0.77304391105E+01  0.77304391105E+01  0.00000000000E+00 0. -1.
          2    1    1    2  501    0 -0.27844903499E+02  0.30829631586E+02  0.75269152123E+03  0.75383707190E+03  0.00000000000E+00 0.  1.
         21    1    1    2  503  502  0.27844903499E+02 -0.30829631586E+02  0.53120552982E+02  0.67435880536E+02  0.00000000000E+00 0. -1.
</event>
<event>
 4    1  0.2134315E+005  0.2630775E+02  0.7546771E-02  0.1454689E+00
          2   -1    0    0  503    0  0.00000000000E+00  0.00000000000E+00  0.13358718057E+04  0.13358718057E+04  0.00000000000E+00 0.  1.
         21   -1    0    0  501  502 -0.00000000000E+00 -0.00000000000E+00 -0.62892751866E+00  0.62892751866E+00  0.00000000000E+00 0. -1.
          2    1    1    2  501    0 -0.11340889004E+02  0.23737779892E+02  0.38708584359E+03  0.38797879873E+03  0.00000000000E+00 0.  1.
         21    1    1    2  503  502  0.11340889004E+02 -0.23737779892E+02  0.94815703461E+03  0.94852193451E+03  0.00000000000E+00 0. -1.
</event>
<event>
 4    1  0.2134315E+005  0.2666448E+02  0.7546771E-02  0.1451008E+00
          2   -1    0    0  502    0  0.00000000000E+00  0.00000000000E+00  0.11950932017E+04  0.11950932017E+04  0.00000000000E+00 0. -1.
         21   -1    0    0  503  502 -0.00000000000E+00 -0.00000000000E+00 -0.10258589610E+01  0.10258589610E+01  0.00000000000E+00 0. -1.
          2    1    1    2  501    0 -0.91429372037E+01 -0.25047983070E+02  0.98465198634E+03  0.98501295877E+03  0.00000000000E+00 0. -1.
         21    1    1    2  503  501  0.91429372037E+01  0.25047983070E+02  0.20941535637E+03  0.21110610185E+03  0.00000000000E+00 0. -1.
</event>
<event>
 4    1  0.2134315E+005  0.2724540E+02  0.7546771E-02  0.1445159E+00
          2   -1    0    0  502    0  0.00000000000E+00  0.00000000000E+00  0.20001881108E+04  0.20001881108E+04  0.00000000000E+00 0. -1.
         21   -1    0    0  503  502 -0.00000000000E+00 -0.00000000000E+00 -0.85631780097E+00  0.85631780097E+00  0.00000000000E+00 0. -1.
          2    1    1    2  501    0  0.23136148598E+02  0.14388546138E+02  0.17527929599E+04  0.17530046982E+04  0.00000000000E+00 0. -1.
         21    1    1    2  503  501 -0.23136148598E+02 -0.14388546138E+02  0.24653883301E+03  0.24803973031E+03  0.00000000000E+00 0. -1.
</event>
<event>
 4    1  0.2134315E+005  0.2009550E+02  0.7546771E-02  0.1532581E+00
          2   -1    0    0  503    0  0.00000000000E+00  0.00000000000E+00  0.11622141213E+04  0.11622141213E+04  0.00000000000E+00 0. -1.
         21   -1    0    0  501  502 -0.00000000000E+00 -0.00000000000E+00 -0.46630120095E+00  0.46630120095E+00  0.00000000000E+00 0. -1.
          2    1    1    2  501    0  0.16537661244E+02 -0.11416434406E+02  0.28739917756E+03  0.28810087899E+03  0.00000000000E+00 0. -1.
         21    1    1    2  503  502 -0.16537661244E+02  0.11416434406E+02  0.87434864255E+03  0.87457954352E+03  0.00000000000E+00 0. -1.
</event>
<event>
 4    1  0.2134315E+005  0.2111230E+02  0.7546771E-02  0.1517667E+00
          2   -1    0    0  502    0  0.00000000000E+00  0.00000000000E+00  0.19253489783E+03  0.19253489783E+03  0.00000000000E+00 0.  1.
         21   -1    0    0  503  502 -0.00000000000E+00 -0.00000000000E+00 -0.49575591837E+02  0.49575591837E+02  0.00000000000E+00 0. -1.
          2    1    1    2  501    0 -0.13491462663E+02 -0.16239143149E+02  0.18967461653E+03  0.19084598369E+03  0.00000000000E+00 0.  1.
         21    1    1    2  503  501  0.13491462663E+02  0.16239143149E+02 -0.46715310534E+02  0.51264505979E+02  0.00000000000E+00 0. -1.
</event>
<event>
 4    1  0.2134315E+005  0.2324598E+02  0.7546771E-02  0.1489432E+00
          2   -1    0    0  502    0  0.00000000000E+00  0.00000000000E+00  0.22792365571E+03  0.22792365571E+03  0.00000000000E+00 0.  1.
         21   -1    0    0  503  502 -0.00000000000E+00 -0.00000000000E+00 -0.46477384212E+01  0.46477384212E+01  0.00000000000E+00 0.  1.
          2    1    1    2  501    0  0.17902131366E+02 -0.14828656632E+02  0.19302874837E+03  0.19442343753E+03  0.00000000000E+00 0.  1.
         21    1    1    2  503  501 -0.17902131366E+02  0.14828656632E+02  0.30247168917E+02  0.38147956596E+02  0.00000000000E+00 0.  1.
</event>
<event>
 4    1  0.2134315E+005  0.3757966E+02  0.7546771E-02  0.1363284E+00
          2   -1    0    0  503    0  0.00000000000E+00  0.00000000000E+00  0.11519181784E+04  0.11519181784E+04  0.00000000000E+00 0. -1.
         21   -1    0    0  501  502 -0.00000000000E+00 -0.00000000000E+00 -0.43626618367E+01  0.43626618367E+01  0.00000000000E+00 0. -1.
          2    1    1    2  501    0  0.37237780329E+01 -0.37394714133E+02  0.10639995822E+04  0.10646630181E+04  0.00000000000E+00 0. -1.
         21    1    1    2  503  502 -0.37237780329E+01  0.37394714133E+02  0.83555934393E+02  0.91617822176E+02  0.00000000000E+00 0. -1.
</event>
<event>
 4    1  0.2134315E+005  0.3007644E+02  0.7546771E-02  0.1418933E+00
          2   -1    0    0  503    0  0.00000000000E+00  0.00000000000E+00  0.38320037498E+03  0.38320037498E+03  0.00000000000E+00 0.  1.
         21   -1    0    0  501  502 -0.00000000000E+00 -0.00000000000E+00 -0.19672735525E+02  0.19672735525E+02  0.00000000000E+00 0. -1.
          2    1    1    2  501    0 -0.78355978201E+01 -0.29037835277E+02  0.37072862075E+03  0.37194663960E+03  0.00000000000E+00 0.  1.
         21    1    1    2  503  502  0.78355978201E+01  0.29037835277E+02 -0.72009812932E+01  0.30926470900E+02  0.00000000000E+00 0. -1.
</event>
<event>
 4    1  0.2134315E+005  0.2558411E+02  0.7546771E-02  0.1462374E+00
          2   -1    0    0  503    0  0.00000000000E+00  0.00000000000E+00  0.20477771048E+02  0.20477771048E+02  0.00000000000E+00 0.  1.
         21   -1    0    0  501  502 -0.00000000000E+00 -0.00000000000E+00 -0.30270813388E+03  0.30270813388E+03  0.00000000000E+00 0.  1.
          2    1    1    2  501    0 -0.12468412349E+02 -0.22340224245E+02  0.11708295649E+02  0.28135939878E+02  0.00000000000E+00 0.  1.
         21    1    1    2  503  502  0.12468412349E+02  0.22340224245E+02 -0.29393865848E+03  0.29504996505E+03  0.00000000000E+00 0.  1.
</event>
<event>
 4    1  0.2134315E+005  0.4012613E+02  0.7546771E-02  0.1347748E+00
          2   -1    0    0  503    0  0.00000000000E+00  0.00000000000E+00  0.17306681511E+03  0.17306681511E+03  0.00000000000E+00 0. -1.
         21   -1    0    0  501  502 -0.00000000000E+00 -0.00000000000E+00 -0.47010393579E+02  0.47010393579E+02  0.00000000000E+00 0.  1.
          2    1    1    2  501    0  0.31046207170E+02 -0.25421244462E+02  0.16157879165E+03  0.16648667382E+03  0.00000000000E+00 0. -1.
         21    1    1    2  503  502 -0.31046207170E+02  0.25421244462E+02 -0.35522370112E+02  0.53590534873E+02  0.00000000000E+00 0.  1.
</event>
<event>
 4    1  0.2134315E+005  0.2277378E+02  0.7546771E-02  0.1495359E+00
          2   -1    0    0  503    0  0.00000000000E+00  0.00000000000E+00  0.43033301171E+03  0.43033301171E+03  0.00000000000E+00 0.  1.
         21   -1    0    0  501  502 -0.00000000000E+00 -0.00000000000E+00 -0.25268911805E+02  0.25268911805E+02  0.00000000000E+00 0.  1.
          2    1    1    2  501    0 -0.22418788646E+02 -0.40053473920E+01  0.42483408278E+03  0.42544405365E+03  0.00000000000E+00 0.  1.
         21    1    1    2  503  502  0.22418788646E+02  0.40053473920E+01 -0.19769982875E+02  0.30157869867E+02  0.00000000000E+00 0.  1.
</event>
<event>
 4    1  0.2134315E+005  0.2844473E+02  0.7546771E-02  0.1433611E+00
          2   -1    0    0  502    0  0.00000000000E+00  0.00000000000E+00  0.15001915223E+04  0.15001915223E+04  0.00000000000E+00 0. -1.
         21   -1    0    0  503  502 -0.00000000000E+00 -0.00000000000E+00 -0.18733423432E+02  0.18733423432E+02  0.00000000000E+00 0. -1.
          2    1    1    2  501    0 -0.23298691184E+02  0.16317889937E+02  0.14891792701E+04  0.14894509059E+04  0.00000000000E+00 0. -1.
         21    1    1    2  503  501  0.23298691184E+02 -0.16317889937E+02 -0.77211711905E+01  0.29474039890E+02  0.00000000000E+00 0. -1.
</event>
<event>
 4    1  0.2134315E+005  0.2532669E+02  0.7546771E-02  0.1465182E+00
          2   -1    0    0  502    0  0.00000000000E+00  0.00000000000E+00  0.10863629818E+03  0.10863629818E+03  0.00000000000E+00 0. -1.
         21   -1    0    0  503  502 -0.00000000000E+00 -0.00000000000E+00 -0.64635209056E+01  0.64635209056E+01  0.00000000000E+00 0. -1.
          2    1    1    2  501    0 -0.46799310966E+01  0.24890545937E+02  0.68011487274E+02  0.72574123717E+02  0.00000000000E+00 0. -1.
         21    1    1    2  503  501  0.46799310966E+01 -0.24890545937E+02  0.34161290001E+02  0.42525695369E+02  0.00000000000E+00 0. -1.
</event>
<event>
 4    1  0.2134315E+005  0.4717439E+02  0.7546771E-02  0.1310911E+00
          2   -1    0    0  503    0  0.00000000000E+00  0.00000000000E+00  0.28168097227E+04  0.28168097227E+04  0.00000000000E+00 0.  1.
         21   -1    0    0  501  502 -0.00000000000E+00 -0.00000000000E+00 -0.83387748639E+00  0.83387748639E+00  0.00000000000E+00 0. -1.
          2    1    1    2  501    0  0.38792260994E+02 -0.26843683699E+02  0.17309667803E+04  0.17316094875E+04  0.00000000000E+00 0.  1.
         21    1    1    2  503  502 -0.38792260994E+02  0.26843683699E+02  0.10850090650E+04  0.10860341127E+04  0.00000000000E+00 0. -1.
</event>
<event>
 4    1  0.2134315E+005  0.2881320E+02  0.7546771E-02  0.1430198E+00
          2   -1    0    0  503    0  0.00000000000E+00  0.00000000000E+00  0.32039224158E+02  0.32039224158E+02  0.00000000000E+00 0.  1.
         21   -1    0    0  501  502 -0.00000000000E+00 -0.00000000000E+00 -0.31829455527E+02  0.31829455527E+02  0.00000000000E+00 0.  1.
          2    1    1    2  501    0 -0.26918784346E+02 -0.10275199623E+02  0.13874140929E+02  0.31979563231E+02  0.00000000000E+00 0.  1.
         21    1    1    2  503  502  0.26918784346E+02  0.10275199623E+02 -0.13664372297E+02  0.31889116454E+02  0.00000000000E+00 0.  1.
</event>
<event>
 4    1  0.2134315E+005  0.2445589E+02  0.7546771E-02  0.1474983E+00
          2   -1    0    0  502    0  0.00000000000E+00  0.00000000000E+00  0.10348426423E+04  0.10348426423E+04  0.00000000000E+00 0. -1.
         21   -1    0    0  503  502 -0.00000000000E+00 -0.00000000000E+00 -0.46524100623E+02  0.46524100623E+02  0.00000000000E+00 0. -1.
          2    1    1    2  501    0 -0.23524042076E+02 -0.66865492463E+01  0.10314737842E+04  0.10317636638E+04  0.00000000000E+00 0. -1.
         21    1    1    2  503  501  0.23524042076E+02  0.66865492463E+01 -0.43155242536E+02  0.49603079085E+02  0.00000000000E+00 0. -1.
</event>
<event>
 4    1  0.2134315E+005  0.2434759E+02  0.7546771E-02  0.1476236E+00
          2   -1    0    0  503    0  0.00000000000E+00  0.00000000000E+00  0.23499859318E+02  0.23499859318E+02  0.00000000000E+00 0. -1.
         21   -1    0    0  501  502 -0.00000000000E+00 -0.00000000000E+00 -0.32354005212E+03  0.32354005212E+03  0.00000000000E+00 0. -1.
          2    1    1    2  501    0 -0.14987148693E+02 -0.19188288177E+02  0.16598063276E+02  0.29466943065E+02  0.00000000000E+00 0. -1.
         21    1    1    2  503  502  0.14987148693E+02  0.19188288177E+02 -0.31663825608E+03  0.31757296837E+03  0.00000000000E+00 0. -1.
</event>
<event>
 4    1  0.2134315E+005  0.3031645E+02  0.7546771E-02  0.1416866E+00
          2   -1    0    0  502    0  0.00000000000E+00  0.00000000000E+00  0.98921265893E+02  0.98921265893E+02  0.00000000000E+00 0. -1.
         21   -1    0    0  503  502 -0.00000000000E+00 -0.00000000000E+00 -0.95778516865E+01  0.95778516865E+01  0.00000000000E+00 0. -1.
          2    1    1    2  501    0  0.26247139020E+02 -0.15171507843E+02  0.54058523775E+02  0.61979117045E+02  0.00000000000E+00 0. -1.
         21    1    1    2  503  501 -0.26247139020E+02  0.15171507843E+02  0.35284890432E+02  0.46520000534E+02  0.00000000000E+00 0. -1.
</event>
<event>
 4    1  0.2134315E+005  0.2056382E+02  0.7546771E-02  0.1525584E+00
          2   -1    0    0  502    0  0.00000000000E+00  0.00000000000E+00  0.41233534406E+02  0.41233534406E+02  0.00000000000E+00 0. -1.
         21   -1    0    0  503  502 -0.00000000000E+00 -0.00000000000E+00 -0.28482089597E+02  0.28482089597E+02  0.00000000000E+00 0.  1.
          2    1    1    2  501    0 -0.16774637919E+02 -0.11894631546E+02  0.34260477952E+02  0.39958116653E+02  0.00000000000E+00 0. -1.
         21    1    1    2  503  501  0.16774637919E+02  0.11894631546E+02 -0.21509033143E+02  0.29757507350E+02  0.00000000000E+00 0.  1.
</event>
<event>
 4    1  0.2134315E+005  0.2508528E+02  0.7546771E-02  0.1467852E+00
          2   -1    0    0  503    0  0.00000000000E+00  0.00000000000E+00  0.49619572411E+03  0.49619572411E+03  0.00000000000E+00 0. -1.
         21   -1    0    0  501  502 -0.00000000000E+00 -0.00000000000E+00 -0.21412087130E+03  0.21412087130E+03  0.00000000000E+00 0.  1.
          2    1    1    2  501    0 -0.24952994952E+02  0.25727824261E+01  0.49514239939E+03  0.49577743680E+03  0.00000000000E+00 0. -1.
         21    1    1    2  503  502  0.24952994952E+02 -0.25727824261E+01 -0.21306754659E+03  0.21453915861E+03  0.00000000000E+00 0.  1.
</event>
<event>
 4    1  0.2134315E+005  0.3289984E+02  0.7546771E-02  0.1395961E+00
          2   -1    0    0  503    0  0.00000000000E+00  0.00000000000E+00  0.20282689656E+03  0.20282689656E+03  0.00000000000E+00 0.  1.
         21   -1    0    0  501  502 -0.00000000000E+00 -0.00000000000E+00 -0.68411560141E+01  0.68411560141E+01  0.00000000000E+00 0. -1.
          2    1    1    2  501    0 -0.32573339680E+02 -0.46235389136E+01  0.14715676565E+03  0.15078963243E+03  0.00000000000E+00 0.  1.
         21    1    1    2  503  502  0.32573339680E+02  0.46235389136E+01  0.48828974895E+02  0.58878420150E+02  0.00000000000E+00 0. -1.
</event>
<event>
 4    1  0.2134315E+005  0.2954579E+02  0.7546771E-02  0.1423585E+00
          2   -1    0    0  503    0  0.00000000000E+00  0.00000000000E+00  0.17393823322E+04  0.17393823322E+04  0.00000000000E+00 0.  1.
         21   -1    0    0  501  502 -0.00000000000E+00 -0.00000000000E+00 -0.31021127507E+01  0.31021127507E+01  0.00000000000E+00 0. -1.
          2    1    1    2  501    0 -0.15577992216E+02 -0.25105372461E+02  0.16657978861E+04  0.16660598882E+04  0.00000000000E+00 0.  1.
         21    1    1    2  503  502  0.15577992216E+02  0.25105372461E+02  0.70482333356E+02  0.76424556807E+02  0.00000000000E+00 0. -1.
</event>
<event>
 4    1  0.2134315E+005  0.2651293E+02  0.7546771E-02  0.1452563E+00
          2   -1    0    0  503    0  0.00000000000E+00  0.00000000000E+00  0.49724881051E+02  0.49724881051E+02  0.00000000000E+00 0. -1.
         21   -1    0    0  501  502 -0.00000000000E+00 -0.00000000000E+00 -0.16880418391E+03  0.16880418391E+03  0.00000000000E+00 0.  1.
          2    1    1    2  501    0 -0.22688628116E+02  0.13717200503E+02  0.45049685418E+02  0.52272455382E+02  0.00000000000E+00 0. -1.
         21    1    1    2  503  502  0.22688628116E+02 -0.13717200503E+02 -0.16412898828E+03  0.16625660958E+03  0.00000000000E+00 0.  1.
</event>
<event>
 4    1  0.2134315E+005  0.2124809E+02  0.7546771E-02  0.1515752E+00
          2   -1    0    0  503    0  0.00000000000E+00  0.00000000000E+00  0.30677085828E+03  0.30677085828E+03  0.00000000000E+00 0. -1.
         21   -1    0    0  501  502 -0.00000000000E+00 -0.00000000000E+00 -0.24167990311E+01  0.24167990311E+01  0.00000000000E+00 0. -1.
          2    1    1    2  501    0 -0.17443679059E+02 -0.12132568473E+02  0.24885013869E+03  0.24975562593E+03  0.00000000000E+00 0. -1.
         21    1    1    2  503  502  0.17443679059E+02  0.12132568473E+02  0.55503920559E+02  0.59432031383E+02  0.00000000000E+00 0. -1.
</event>
<event>
 4    1  0.2134315E+005  0.2342588E+02  0.7546771E-02  0.1487218E+00
          2   -1    0    0  502    0  0.00000000000E+00  0.00000000000E+00  0.39009355729E+03  0.39009355729E+03  0.00000000000E+00 0. -1.
         21   -1    0    0  503  502 -0.00000000000E+00 -0.00000000000E+00 -0.26247814723E+01  0.26247814723E+01  0.00000000000E+00 0. -1.
          2    1    1    2  501    0 -0.21993454423E+02  0.80659645830E+01  0.32749564501E+03  0.32833240675E+03  0.00000000000E+00 0. -1.
         21    1    1    2  503  501  0.21993454423E+02 -0.80659645830E+01  0.59973130805E+02  0.64385932009E+02  0.00000000000E+00 0. -1.
</event>
<event>
 4    1  0.2134315E+005  0.2262162E+02  0.7546771E-02  0.1497305E+00
          2   -1    0    0  502    0  0.00000000000E+00  0.00000000000E+00  0.10072440846E+04  0.10072440846E+04  0.00000000000E+00 0. -1.
         21   -1    0    0  503  502 -0.00000000000E+00 -0.00000000000E+00 -0.81552410510E+00  0.81552410510E+00  0.00000000000E+00 0. -1.
          2    1    1    2  501    0 -0.10688458562E+02 -0.19937262815E+02  0.81269743489E+03  0.81301221287E+03  0.00000000000E+00 0. -1.
         21    1    1    2  503  501  0.10688458562E+02  0.19937262815E+02  0.19373112565E+03  0.19504739588E+03  0.00000000000E+00 0. -1.
</event>
<event>
 4    1  0.2134315E+005  0.2271715E+02  0.7546771E-02  0.1496081E+00
          2   -1    0    0  503    0  0.00000000000E+00  0.00000000000E+00  0.97466597942E+01  0.97466597942E+01  0.00000000000E+00 0. -1.
         21   -1    0    0  501  502 -0.00000000000E+00 -0.00000000000E+00 -0.56988471174E+02  0.56988471174E+02  0.00000000000E+00 0.  1.
          2    1    1    2  501    0  0.18540323796E+02 -0.13127281429E+02 -0.32505356446E+02  0.39656869794E+02  0.00000000000E+00 0. -1.
         21    1    1    2  503  502 -0.18540323796E+02  0.13127281429E+02 -0.14736454934E+02  0.27078261174E+02  0.00000000000E+00 0.  1.
</event>
<event>
 4    1  0.2134315E+005  0.2606623E+02  0.7546771E-02  0.1457220E+00
          2   -1    0    0  502    0  0.00000000000E+00  0.00000000000E+00  0.34083475142E+03  0.34083475142E+03  0.00000000000E+00 0.  1.
         21   -1    0    0  503  502 -0.00000000000E+00 -0.00000000000E+00 -0.38270931515E+01  0.38270931515E+01  0.00000000000E+00 0. -1.
          2    1    1    2  501    0  0.59362030986E+01 -0.25381293224E+02  0.28778780445E+03  0.28896586121E+03  0.00000000000E+00 0.  1.
         21    1    1    2  503  501 -0.59362030986E+01  0.25381293224E+02  0.49219853814E+02  0.55695983360E+02  0.00000000000E+00 0. -1.
</event>
<event>
 4    1  0.2134315E+005  0.2379720E+02  0.7546771E-02  0.1482723E+00
          2   -1    0    0  503    0  0.00000000000E+00  0.00000000000E+00  0.66387863145E+03  0.66387863145E+03  0.00000000000E+00 0. -1.
         21   -1    0    0  501  502 -0.00000000000E+00 -0.00000000000E+00 -0.86330597575E+00  0.86330597575E+00  0.00000000000E+00 0. -1.
          2    1    1    2  501    0  0.23309948548E+02  0.47909383795E+01  0.29524137723E+03  0.29619888186E+03  0.00000000000E+00 0. -1.
         21    1    1    2  503  502 -0.23309948548E+02 -0.47909383795E+01  0.36777394825E+03  0.36854305556E+03  0.00000000000E+00 0. -1.
</event>
<event>
 4    1  0.2134315E+005  0.2089488E+02  0.7546771E-02  0.1520771E+00
          2   -1    0    0  503    0  0.00000000000E+00  0.00000000000E+00  0.36548012691E+03  0.36548012691E+03  0.00000000000E+00 0.  1.
         21   -1    0    0  501  502 -0.00000000000E+00 -0.00000000000E+00 -0.21342618835E+02  0.21342618835E+02  0.00000000000E+00 0.  1.
          2    1    1    2  501    0 -0.20259069691E+02 -0.51152922231E+01  0.35998940905E+03  0.36059530050E+03  0.00000000000E+00 0.  1.
         21    1    1    2  503  502  0.20259069691E+02  0.51152922231E+01 -0.15851900974E+02  0.26227445239E+02  0.00000000000E+00 0.  1.
</event>
<event>
 4    1  0.2134315E+005  0.3303619E+02  0.7546771E-02  0.1394921E+00
          2   -1    0    0  502    0  0.00000000000E+00  0.00000000000E+00  0.49115794864E+03  0.49115794864E+03  0.00000000000E+00 0.  1.
         21   -1    0    0  503  502 -0.00000000000E+00 -0.00000000000E+00 -0.35636003716E+01  0.35636003716E+01  0.00000000000E+00 0.  1.
          2    1    1    2  501    0 -0.31744076344E+02 -0.91489421453E+01  0.39556715163E+03  0.39694427943E+03  0.00000000000E+00 0.  1.
         21    1    1    2  503  501  0.31744076344E+02  0.91489421453E+01  0.92027196645E+02  0.97777269586E+02  0.00000000000E+00 0.  1.
</event>
<event>
 4    1  0.2134315E+005  0.2503292E+02  0.7546771E-02  0.1468435E+00
          2   -1    0    0  503    0  0.00000000000E+00  0.00000000000E+00  0.18798898518E+04  0.18798898518E+04  0.00000000000E+00 0.  1.
         21   -1    0    0  501  502 -0.00000000000E+00 -0.00000000000E+00 -0.11236262561E+01  0.11236262561E+01  0.00000000000E+00 0. -1.
          2    1    1    2  501    0 -0.95111368837E+01 -0.23155679606E+02  0.17281387826E+04  0.17283200800E+04  0.00000000000E+00 0.  1.
         21    1    1    2  503  502  0.95111368837E+01  0.23155679606E+02  0.15062744294E+03  0.15269339799E+03  0.00000000000E+00 0. -1.
</event>
<event>
 4    1  0.2134315E+005  0.2069166E+02  0.7546771E-02  0.1523713E+00
          2   -1    0    0  503    0  0.00000000000E+00  0.00000000000E+00  0.12249252515E+03  0.12249252515E+03  0.00000000000E+00 0. -1.
         21   -1    0    0  501  502 -0.00000000000E+00 -0.00000000000E+00 -0.70902924177E+01  0.70902924177E+01  0.00000000000E+00 0. -1.
          2    1    1    2  501    0 -0.19025912371E+02 -0.81338388139E+01  0.10383670215E+03  0.10587825740E+03  0.00000000000E+00 0. -1.
         21    1    1    2  503  502  0.19025912371E+02  0.81338388139E+01  0.11565530584E+02  0.23704560175E+02  0.00000000000E+00 0. -1.
</event>
<event>
 4    1  0.2134315E+005  0.2037743E+02  0.7546771E-02  0.1528342E+00
          2   -1    0    0  502    0  0.00000000000E+00  0.00000000000E+00  0.10040967369E+04  0.10040967369E+04  0.00000000000E+00 0.  1.
         21   -1    0    0  503  502 -0.00000000000E+00 -0.00000000000E+00 -0.59049656137E+00  0.59049656137E+00  0.00000000000E+00 0. -1.
          2    1    1    2  501    0 -0.51944447482E+01  0.19704247971E+02  0.77674434778E+03  0.77701159673E+03  0.00000000000E+00 0.  1.
         21    1    1    2  503  501  0.51944447482E+01 -0.19704247971E+02  0.22676189254E+03  0.22767563671E+03  0.00000000000E+00 0. -1.
</event>
<event>
 4    1  0.2134315E+005  0.2392477E+02  0.7546771E-02  0.1481201E+00
          2   -1    0    0  503    0  0.00000000000E+00  0.00000000000E+00  0.16109448926E+04  0.16109448926E+04  0.00000000000E+00 0.  1.
         21   -1    0    0  501  502 -0.00000000000E+00 -0.00000000000E+00 -0.15822595047E+01  0.15822595047E+01  0.00000000000E+00 0.  1.
          2    1    1    2  501    0  0.21671126284E+02  0.10136904215E+02  0.15146684227E+04  0.15148573614E+04  0.00000000000E+00 0.  1.
         21    1    1    2  503  502 -0.21671126284E+02 -0.10136904215E+02  0.94694210351E+02  0.97669790701E+02  0.00000000000E+00 0.  1.
</event>
<event>
 4    1  0.2134315E+005  0.2095309E+02  0.7546771E-02  0.1519936E+00
          2   -1    0    0  502    0  0.00000000000E+00  0.00000000000E+00  0.10064056354E+04  0.10064056354E+04  0.00000000000E+00 0. -1.
         21   -1    0    0  503  502 -0.00000000000E+00 -0.00000000000E+00 -0.10815615690E+01  0.10815615690E+01  0.00000000000E+00 0. -1.
          2    1    1    2  501    0 -0.40371952317E+01  0.20560472592E+02  0.89177241566E+03  0.89201853866E+03  0.00000000000E+00 0. -1.
         21    1    1    2  503  501  0.40371952317E+01 -0.20560472592E+02  0.11355165815E+03  0.11546865829E+03  0.00000000000E+00 0. -1.
</event>
<event>
 4    1  0.2134315E+005  0.2156809E+02  0.7546771E-02  0.1511306E+00
          2   -1    0    0  502    0  0.00000000000E+00  0.00000000000E+00  0.49494448689E+03  0.49494448689E+03  0.00000000000E+00 0.  1.
         21   -1    0    0  503  502 -0.00000000000E+00 -0.00000000000E+00 -0.26318221771E+02  0.26318221771E+02  0.00000000000E+00 0. -1.
          2    1    1    2  501    0  0.19387042303E+02 -0.94511858079E+01  0.49024838880E+03  0.49072259480E+03  0.00000000000E+00 0.  1.
         21    1    1    2  503  501 -0.19387042303E+02  0.94511858079E+01 -0.21622123681E+02  0.30540113866E+02  0.00000000000E+00 0. -1.
</event>
<event>
 4    1  0.2134315E+005  0.2102716E+02  0.7546771E-02  0.1518877E+00
          2   -1    0    0  502    0  0.00000000000E+00  0.00000000000E+00  0.99898512632E+03  0.99898512632E+03  0.00000000000E+00 0. -1.
         21   -1    0    0  503  502 -0.00000000000E+00 -0.00000000000E+00 -0.65231552027E+01  0.65231552027E+01  0.00000000000E+00 0.  1.
          2    1    1    2  501    0  0.33460946597E+01  0.20759218329E+02  0.98162984488E+03  0.98185502691E+03  0.00000000000E+00 0. -1.
         21    1    1    2  503  501 -0.33460946597E+01 -0.20759218329E+02  0.10832126230E+02  0.23653254613E+02  0.00000000000E+00 0.  1.
</event>
<event>
 4    1  0.2134315E+005  0.2031409E+02  0.7546771E-02  0.1529287E+00
          2   -1    0    0  503    0  0.00000000000E+00  0.00000000000E+00  0.11489283073E+03  0.11489283073E+03  0.00000000000E+00 0.  1.
         21   -1    0    0  501  502 -0.00000000000E+00 -0.00000000000E+00 -0.39231845032E+01  0.39231845032E+01  0.00000000000E+00 0.  1.
          2    1    1    2  501    0  0.19753914048E+02 -0.47376221038E+01  0.72753063850E+02  0.75535888709E+02  0.00000000000E+00 0.  1.
         21    1    1    2  503  502 -0.19753914048E+02  0.47376221038E+01  0.38216582375E+02  0.43280126523E+02  0.00000000000E+00 0.  1.
</event>
<event>
 4    1  0.2134315E+005  0.4268088E+02  0.7546771E-02  0.1333454E+00
          2   -1    0    0  503    0  0.00000000000E+00  0.00000000000E+00  0.45596002408E+02  0.45596002408E+02  0.00000000000E+00 0. -1.
         21   -1    0    0  501  502 -0.00000000000E+00 -0.00000000000E+00 -0.19009807502E+03  0.19009807502E+03  0.00000000000E+00 0.  1.
          2    1    1    2  501    0 -0.11794355651E+01  0.42664578129E+02  0.32482706055E+02  0.53635655005E+02  0.00000000000E+00 0. -1.
         21    1    1    2  503  502  0.11794355651E+01 -0.42664578129E+02 -0.17698477867E+03  0.18205842242E+03  0.00000000000E+00 0.  1.
</event>
<event>
 4    1  0.2134315E+005  0.2513026E+02  0.7546771E-02  0.1467351E+00
          2   -1    0    0  503    0  0.00000000000E+00  0.00000000000E+00  0.14121837890E+04  0.14121837890E+04  0.00000000000E+00 0. -1.
         21   -1    0    0  501  502 -0.00000000000E+00 -0.00000000000E+00 -0.60740149762E+00  0.60740149762E+00  0.00000000000E+00 0. -1.
          2    1    1    2  501    0  0.25112769710E+02  0.93731585408E+00  0.10685672555E+04  0.10688627177E+04  0.00000000000E+00 0. -1.
         21    1    1    2  503  502 -0.25112769710E+02 -0.93731585408E+00  0.34300913203E+03  0.34392847283E+03  0.00000000000E+00 0. -1.
</event>
<event>
 4    1  0.2134315E+005  0.2467082E+02  0.7546771E-02  0.1472520E+00
          2   -1    0    0  502    0  0.00000000000E+00  0.00000000000E+00  0.31458281425E+03  0.31458281425E+03  0.00000000000E+00 0.  1.
         21   -1    0    0  503  502 -0.00000000000E+00 -0.00000000000E+00 -0.35889493514E+01  0.35889493514E+01  0.00000000000E+00 0.  1.
          2    1    1    2  501    0 -0.18594595629E+02 -0.16213896323E+02  0.26350037316E+03  0.26465278400E+03  0.00000000000E+00 0.  1.
         21    1    1    2  503  501  0.18594595629E+02  0.16213896323E+02  0.47493491736E+02  0.53518979605E+02  0.00000000000E+00 0.  1.
</event>
<event>
 4    1  0.2134315E+005  0.2306003E+02  0.7546771E-02  0.1491746E+00
          2   -1    0    0  502    0  0.00000000000E+00  0.00000000000E+00  0.52960608546E+02  0.52960608546E+02  0.00000000000E+00 0. -1.
         21   -1    0    0  503  502 -0.00000000000E+00 -0.00000000000E+00 -0.17314036790E+02  0.17314036790E+02  0.00000000000E+00 0. -1.
          2    1    1    2  501    0 -0.90997927431E+01  0.21188649881E+02  0.40597025874E+02  0.46689223827E+02  0.00000000000E+00 0. -1.
         21    1    1    2  503  501  0.90997927431E+01 -0.21188649881E+02 -0.49504541179E+01  0.23585421509E+02  0.00000000000E+00 0. -1.
</event>
<event>
 4    1  0.2134315E+005  0.2148878E+02  0.7546771E-02  0.1512399E+00
          2   -1    0    0  503    0  0.00000000000E+00  0.00000000000E+00  0.35807043757E+02  0.35807043757E+02  0.00000000000E+00 0.  1.
         21   -1    0    0  501  502 -0.00000000000E+00 -0.00000000000E+00 -0.21983364158E+02  0.21983364158E+02  0.00000000000E+00 0.  1.
          2    1    1    2  501    0  0.17825634813E+02 -0.12000608637E+02  0.25489777455E+02  0.33339115448E+02  0.00000000000E+00 0.  1.
         21    1    1    2  503  502 -0.17825634813E+02  0.12000608637E+02 -0.11666097855E+02  0.24451292467E+02  0.00000000000E+00 0.  1.
</event>
<event>
 4    1  0.2134315E+005  0.2229072E+02  0.7546771E-02  0.1501602E+00
          2   -1    0    0  502    0  0.00000000000E+00  0.00000000000E+00  0.60705584349E+03  0.60705584349E+03  0.00000000000E+00 0.  1.
         21   -1    0    0  503  502 -0.00000000000E+00 -0.00000000000E+00 -0.29869933497E+02  0.29869933497E+02  0.00000000000E+00 0.  1.
          2    1    1    2  501    0 -0.12170700097E+02 -0.18674855837E+02  0.60266224552E+03  0.60307433900E+03  0.00000000000E+00 0.  1.
         21    1    1    2  503  501  0.12170700097E+02  0.18674855837E+02 -0.25476335533E+02  0.33851437984E+02  0.00000000000E+00 0.  1.
</event>
<event>
 4    1  0.2134315E+005  0.3706237E+02  0.7546771E-02  0.1366617E+00
          2   -1    0    0  502    0  0.00000000000E+00  0.00000000000E+00  0.17777352482E+04  0.17777352482E+04  0.00000000000E+00 0. -1.
         21   -1    0    0  503  502 -0.00000000000E+00 -0.00000000000E+00 -0.10739831325E+03  0.10739831325E+03  0.00000000000E+00 0. -1.
          2    1    1    2  501    0 -0.21028654941E+02  0.30519096467E+02  0.17743384691E+04  0.17747255062E+04  0.00000000000E+00 0. -1.
         21    1    1    2  503  501  0.21028654941E+02 -0.30519096467E+02 -0.10400153408E+03  0.11040805527E+03  0.00000000000E+00 0. -1.
</event>
<event>
 4    1  0.2134315E+005  0.2962026E+02  0.7546771E-02  0.1422925E+00
          2   -1    0    0  502    0  0.00000000000E+00  0.00000000000E+00  0.68959818356E+03  0.68959818356E+03  0.00000000000E+00 0. -1.
         21   -1    0    0  503  502 -0.00000000000E+00 -0.00000000000E+00 -0.67109671873E+02  0.67109671873E+02  0.00000000000E+00 0. -1.
          2    1    1    2  501    0  0.33029515874E+01 -0.29435524519E+02  0.68599457340E+03  0.68663375560E+03  0.00000000000E+00 0. -1.
         21    1    1    2  503  501 -0.33029515874E+01  0.29435524519E+02 -0.63506061714E+02  0.70074099833E+02  0.00000000000E+00 0. -1.
</event>
<event>
 4    1  0.2134315E+005  0.3599554E+02  0.7546771E-02  0.1373696E+00
          2   -1    0    0  502    0  0.00000000000E+00  0.00000000000E+00  0.62238853872E+03  0.62238853872E+03  0.00000000000E+00 0.  1.
         21   -1    0    0  503  502 -0.00000000000E+00 -0.00000000000E+00 -0.30986487346E+01  0.30986487346E+01  0.00000000000E+00 0.  1.
          2    1    1    2  501    0 -0.22200296783E+02  0.28334180989E+02  0.48880190081E+03  0.49012547090E+03  0.00000000000E+00 0.  1.
         21    1    1    2  503  501  0.22200296783E+02 -0.28334180989E+02  0.13048798918E+03  0.13536171656E+03  0.00000000000E+00 0.  1.
</event>
<event>
 4    1  0.2134315E+005  0.2040956E+02  0.7546771E-02  0.1527864E+00
          2   -1    0    0  502    0  0.00000000000E+00  0.00000000000E+00  0.17850616931E+03  0.17850616931E+03  0.00000000000E+00 0. -1.
         21   -1    0    0  503  502 -0.00000000000E+00 -0.00000000000E+00 -0.48676554412E+01  0.48676554412E+01  0.00000000000E+00 0. -1.
          2    1    1    2  501    0 -0.90062013928E+01 -0.18314975396E+02  0.15297404074E+03  0.15432954068E+03  0.00000000000E+00 0. -1.
         21    1    1    2  503  501  0.90062013928E+01  0.18314975396E+02  0.20664473128E+02  0.29044284066E+02  0.00000000000E+00 0. -1.
</event>
<event>
 4    1  0.2134315E+005  0.2879572E+02  0.7546771E-02  0.1430358E+00
          2   -1    0    0  502    0  0.00000000000E+00  0.00000000000E+00  0.76688147534E+03  0.76688147534E+03  0.00000000000E+00 0.  1.
         21   -1    0    0  503  502 -0.00000000000E+00 -0.00000000000E+00 -0.10609535511E+02  0.10609535511E+02  0.00000000000E+00 0.  1.
          2    1    1    2  501    0 -0.15333255147E+02 -0.24373856753E+02  0.74654009724E+03  0.74709524854E+03  0.00000000000E+00 0.  1.
         21    1    1    2  503  501  0.15333255147E+02  0.24373856753E+02  0.97318425957E+01  0.30395762315E+02  0.00000000000E+00 0.  1.
</event>
<event>
 4    1  0.2134315E+005  0.2407039E+02  0.7546771E-02  0.1479478E+00
          2   -1    0    0  503    0  0.00000000000E+00  0.00000000000E+00  0.98115509149E+03  0.98115509149E+03  0.00000000000E+00 0.  1.
         21   -1    0    0  501  502 -0.00000000000E+00 -0.00000000000E+00 -0.65985995051E+00  0.65985995051E+00  0.00000000000E+00 0.  1.
          2    1    1    2  501    0  0.93565361654E+01  0.22177439550E+02  0.33110319783E+03  0.33197697391E+03  0.00000000000E+00 0.  1.
         21    1    1    2  503  502 -0.93565361654E+01 -0.22177439550E+02  0.64939203372E+03  0.64983797754E+03  0.00000000000E+00 0.  1.
</event>
<event>
 4    1  0.2134315E+005  0.2036519E+02  0.7546771E-02  0.1528524E+00
          2   -1    0    0  502    0  0.00000000000E+00  0.00000000000E+00  0.14140261472E+04  0.14140261472E+04  0.00000000000E+00 0. -1.
         21   -1    0    0  503  502 -0.00000000000E+00 -0.00000000000E+00 -0.17860558787E+03  0.17860558787E+03  0.00000000000E+00 0.  1.
          2    1    1    2  501    0 -0.51621223669E+01  0.19700083158E+02  0.14133720263E+04  0.14135187390E+04  0.00000000000E+00 0. -1.
         21    1    1    2  503  501  0.51621223669E+01 -0.19700083158E+02 -0.17795146694E+03  0.17911299610E+03  0.00000000000E+00 0.  1.
</event>
<event>
 4    1  0.2134315E+005  0.2481572E+02  0.7546771E-02  0.1470875E+00
          2   -1    0    0  503    0  0.00000000000E+00  0.00000000000E+00  0.28236069425E+04  0.28236069425E+04  0.00000000000E+00 0.  1.
         21   -1    0    0  501  502 -0.00000000000E+00 -0.00000000000E+00 -0.23083402514E+00  0.23083402514E+00  0.00000000000E+00 0. -1.
          2    1    1    2  501    0  0.32916304356E+01  0.24596450217E+02  0.17433486632E+04  0.17435252741E+04  0.00000000000E+00 0.  1.
         21    1    1    2  503  502 -0.32916304356E+01 -0.24596450217E+02  0.10800274453E+04  0.10803125023E+04  0.00000000000E+00 0. -1.
</event>
<event>
 4    1  0.2134315E+005  0.2304971E+02  0.7546771E-02  0.1491875E+00
          2   -1    0    0  503    0  0.00000000000E+00  0.00000000000E+00  0.23253530916E+03  0.23253530916E+03  0.00000000000E+00 0.  1.
         21   -1    0    0  501  502 -0.00000000000E+00 -0.00000000000E+00 -0.10043168203E+03  0.10043168203E+03  0.00000000000E+00 0. -1.
          2    1    1    2  501    0 -0.22764648128E+02 -0.36138612970E+01  0.23063070877E+03  0.23177966483E+03  0.00000000000E+00 0.  1.
         21    1    1    2  503  502  0.22764648128E+02  0.36138612970E+01 -0.98527081646E+02  0.10118732636E+03  0.00000000000E+00 0. -1.
</event>
<event>
 4    1  0.2134315E+005  0.3176325E+02  0.7546771E-02  0.1404868E+00
          2   -1    0    0  503    0  0.00000000000E+00  0.00000000000E+00  0.32967566303E+03  0.32967566303E+03  0.00000000000E+00 0. -1.
         21   -1    0    0  501  502 -0.00000000000E+00 -0.00000000000E+00 -0.11929026361E+02  0.11929026361E+02  0.00000000000E+00 0. -1.
          2    1    1    2  501    0 -0.43755350796E+00 -0.31760240855E+02  0.30614597157E+03  0.30778931148E+03  0.00000000000E+00 0. -1.
         21    1    1    2  503  502  0.43755350796E+00  0.31760240855E+02  0.11600665092E+02  0.33815377905E+02  0.00000000000E+00 0. -1.
</event>
<event>
 4    1  0.2134315E+005  0.4846064E+02  0.7546771E-02  0.1304988E+00
          2   -1    0    0  503    0  0.00000000000E+00  0.00000000000E+00  0.15443413953E+03  0.15443413953E+03  0.00000000000E+00 0.  1.
         21   -1    0    0  501  502 -0.00000000000E+00 -0.00000000000E+00 -0.34551780914E+02  0.34551780914E+02  0.00000000000E+00 0.  1.
          2    1    1    2  501    0 -0.48241882657E+02  0.45994093320E+01  0.13064607700E+03  0.13934429032E+03  0.00000000000E+00 0.  1.
         21    1    1    2  503  502  0.48241882657E+02 -0.45994093320E+01 -0.10763718381E+02  0.49641630129E+02  0.00000000000E+00 0.  1.
</event>
<event>
 4    1  0.2134315E+005  0.5175779E+02  0.7546771E-02  0.1290726E+00
          2   -1    0    0  502    0  0.00000000000E+00  0.00000000000E+00  0.91130307803E+03  0.91130307803E+03  0.00000000000E+00 0. -1.
         21   -1    0    0  503  502 -0.00000000000E+00 -0.00000000000E+00 -0.52193180798E+01  0.52193180798E+01  0.00000000000E+00 0. -1.
          2    1    1    2  501    0  0.28835289205E+02 -0.42981329340E+02  0.75590511822E+03  0.75767500706E+03  0.00000000000E+00 0. -1.
         21    1    1    2  503  501 -0.28835289205E+02  0.42981329340E+02  0.15017864173E+03  0.15884738905E+03  0.00000000000E+00 0. -1.
</event>
<event>
 4    1  0.2134315E+005  0.2687939E+02  0.7546771E-02  0.1448823E+00
          2   -1    0    0  503    0  0.00000000000E+00  0.00000000000E+00  0.71468089391E+02  0.71468089391E+02  0.00000000000E+00 0. -1.
         21   -1    0    0  501  502 -0.00000000000E+00 -0.00000000000E+00 -0.68289101373E+03  0.68289101373E+03  0.00000000000E+00 0. -1.
          2    1    1    2  501    0  0.13696764944E+02 -0.23127906405E+02  0.68665821901E+02  0.73739382435E+02  0.00000000000E+00 0. -1.
         21    1    1    2  503  502 -0.13696764944E+02  0.23127906405E+02 -0.68008874624E+03  0.68061972069E+03  0.00000000000E+00 0. -1.
</event>
<event>
 4    1  0.2134315E+005  0.2064198E+02  0.7546771E-02  0.1524438E+00
          2   -1    0    0  503    0  0.00000000000E+00  0.00000000000E+00  0.15533119535E+02  0.15533119535E+02  0.00000000000E+00 0.  1.
         21   -1    0    0  501  502 -0.00000000000E+00 -0.00000000000E+00 -0.27539968927E+02  0.27539968927E+02  0.00000000000E+00 0. -1.
          2    1    1    2  501    0  0.15424061179E+02 -0.13718229076E+02 -0.73571435827E+01  0.21913900473E+02  0.00000000000E+00 0.  1.
         21    1    1    2  503  502 -0.15424061179E+02  0.13718229076E+02 -0.46497058097E+01  0.21159187989E+02  0.00000000000E+00 0. -1.
</event>
<event>
 4    1  0.2134315E+005  0.3507964E+02  0.7546771E-02  0.1380004E+00
          2   -1    0    0  503    0  0.00000000000E+00  0.00000000000E+00  0.22055837144E+03  0.22055837144E+03  0.00000000000E+00 0.  1.
         21   -1    0    0  501  502 -0.00000000000E+00 -0.00000000000E+00 -0.10594968705E+02  0.10594968705E+02  0.00000000000E+00 0.  1.
          2    1    1    2  501    0 -0.12654486004E+02 -0.32717653671E+02  0.18450253446E+03  0.18780779030E+03  0.00000000000E+00 0.  1.
         21    1    1    2  503  502  0.12654486004E+02  0.32717653671E+02  0.25460868281E+02  0.43345549845E+02  0.00000000000E+00 0.  1.
</event>
<event>
 4    1  0.2134315E+005  0.2103171E+02  0.7546771E-02  0.1518812E+00
          2   -1    0    0  503    0  0.00000000000E+00  0.00000000000E+00  0.12984218808E+03  0.12984218808E+03  0.00000000000E+00 0.  1.
         21   -1    0    0  501  502 -0.00000000000E+00 -0.00000000000E+00 -0.30015085031E+02  0.30015085031E+02  0.00000000000E+00 0.  1.
          2    1    1    2  501    0 -0.16389204368E+02 -0.13180549639E+02  0.12516968540E+03  0.12692432018E+03  0.00000000000E+00 0.  1.
         21    1    1    2  503  502  0.16389204368E+02  0.13180549639E+02 -0.25342582354E+02  0.32932952934E+02  0.00000000000E+00 0.  1.
</event>
<event>
 4    1  0.2134315E+005  0.2491551E+02  0.7546771E-02  0.1469751E+00
          2   -1    0    0  503    0  0.00000000000E+00  0.00000000000E+00  0.85527741079E+02  0.85527741079E+02  0.00000000000E+00 0. -1.
         21   -1    0    0  501  502 -0.00000000000E+00 -0.00000000000E+00 -0.52611463010E+02  0.52611463010E+02  0.00000000000E+00 0. -1.
          2    1    1    2  501    0 -0.24610794669E+02  0.38847450109E+01  0.80586590549E+02  0.84350346972E+02  0.00000000000E+00 0. -1.
         21    1    1    2  503  502  0.24610794669E+02 -0.38847450109E+01 -0.47670312480E+02  0.53788857117E+02  0.00000000000E+00 0. -1.
</event>
<event>
 4    1  0.2134315E+005  0.2017235E+02  0.7546771E-02  0.1531417E+00
          2   -1    0    0  503    0  0.00000000000E+00  0.00000000000E+00  0.13691764716E+04  0.13691764716E+04  0.00000000000E+00 0.  1.
         21   -1    0    0  501  502 -0.00000000000E+00 -0.00000000000E+00 -0.22212667500E+02  0.22212667500E+02  0.00000000000E+00 0. -1.
          2    1    1    2  501    0 -0.16442402791E+02 -0.11686362478E+02  0.13645066372E+04  0.13646557392E+04  0.00000000000E+00 0.  1.
         21    1    1    2  503  502  0.16442402791E+02  0.11686362478E+02 -0.17542833070E+02  0.26733399889E+02  0.00000000000E+00 0. -1.
</event>
<event>
 4    1  0.2134315E+005  0.2209520E+02  0.7546771E-02  0.1504183E+00
          2   -1    0    0  502    0  0.00000000000E+00  0.00000000000E+00  0.24325210357E+03  0.24325210357E+03  0.00000000000E+00 0.  1.
         21   -1    0    0  503  502 -0.00000000000E+00 -0.00000000000E+00 -0.63146034619E+01  0.63146034619E+01  0.00000000000E+00 0. -1.
          2    1    1    2  501    0  0.47512031063E+01  0.21578321630E+02  0.22153188556E+03  0.22263102707E+03  0.00000000000E+00 0.  1.
         21    1    1    2  503  501 -0.47512031063E+01 -0.21578321630E+02  0.15405614549E+02  0.26935679961E+02  0.00000000000E+00 0. -1.
</event>
<event>
 4    1  0.2134315E+005  0.2385388E+02  0.7546771E-02  0.1482046E+00
          2   -1    0    0  503    0  0.00000000000E+00  0.00000000000E+00  0.13741486297E+03  0.13741486297E+03  0.00000000000E+00 0.  1.
         21   -1    0    0  501  502 -0.00000000000E+00 -0.00000000000E+00 -0.25425406776E+02  0.25425406776E+02  0.00000000000E+00 0. -1.
          2    1    1    2  501    0 -0.85266166921E+01 -0.22277888021E+02  0.13049033738E+03  0.13265268801E+03  0.00000000000E+00 0.  1.
         21    1    1    2  503  502  0.85266166921E+01  0.22277888021E+02 -0.18500881181E+02  0.30187581741E+02  0.00000000000E+00 0. -1.
</event>
<event>
 4    1  0.2134315E+005  0.2710464E+02  0.7546771E-02  0.1446560E+00
          2   -1    0    0  503    0  0.00000000000E+00  0.00000000000E+00  0.14676611918E+04  0.14676611918E+04  0.00000000000E+00 0. -1.
         21   -1    0    0  501  502 -0.00000000000E+00 -0.00000000000E+00 -0.45772534883E+01  0.45772534883E+01  0.00000000000E+00 0.  1.
          2    1    1    2  501    0 -0.48524527310E+01 -0.26666743841E+02  0.14262452957E+04  0.14265028233E+04  0.00000000000E+00 0. -1.
         21    1    1    2  503  502  0.48524527310E+01  0.26666743841E+02  0.36838642619E+02  0.45735621944E+02  0.00000000000E+00 0.  1.
</event>
<event>
 4    1  0.2134315E+005  0.2277115E+02  0.7546771E-02  0.1495392E+00
          2   -1    0    0  503    0  0.00000000000E+00  0.00000000000E+00  0.18232499915E+03  0.18232499915E+03  0.00000000000E+00 0. -1.
         21   -1    0    0  501  502 -0.00000000000E+00 -0.00000000000E+00 -0.58850002543E+02  0.58850002543E+02  0.00000000000E+00 0.  1.
          2    1    1    2  501    0 -0.15766242531E+02  0.16430183812E+02  0.17937518817E+03  0.18081477671E+03  0.00000000000E+00 0. -1.
         21    1    1    2  503  502  0.15766242531E+02 -0.16430183812E+02 -0.55900191564E+02  0.60360224987E+02  0.00000000000E+00 0.  1.
</event>
<event>
 4    1  0.2134315E+005  0.3646217E+02  0.7546771E-02  0.1370565E+00
          2   -1    0    0  503    0  0.00000000000E+00  0.00000000000E+00  0.17720801218E+03  0.17720801218E+03  0.00000000000E+00 0. -1.
         21   -1    0    0  501  502 -0.00000000000E+00 -0.00000000000E+00 -0.76369896425E+01  0.76369896425E+01  0.00000000000E+00 0. -1.
          2    1    1    2  501    0 -0.61382738946E+01 -0.35941780062E+02  0.72517311912E+02  0.81168038582E+02  0.00000000000E+00 0. -1.
         21    1    1    2  503  502  0.61382738946E+01  0.35941780062E+02  0.97053710626E+02  0.10367696324E+03  0.00000000000E+00 0. -1.
</event>
<event>
 4    1  0.2134315E+005  0.3777044E+02  0.7546771E-02  0.1362071E+00
          2   -1    0    0  502    0  0.00000000000E+00  0.00000000000E+00  0.51270574076E+03  0.51270574076E+03  0.00000000000E+00 0.  1.
         21   -1    0    0  503  502 -0.00000000000E+00 -0.00000000000E+00 -0.34198176320E+01  0.34198176320E+01  0.00000000000E+00 0.  1.
          2    1    1    2  501    0 -0.15433110909E+02 -0.34473547813E+02  0.36604678017E+03  0.36799028748E+03  0.00000000000E+00 0.  1.
         21    1    1    2  503  501  0.15433110909E+02  0.34473547813E+02  0.14323914296E+03  0.14813527091E+03  0.00000000000E+00 0.  1.
</event>
<event>
 4    1  0.2134315E+005  0.3823715E+02  0.7546771E-02  0.1359138E+00
          2   -1    0    0  503    0  0.00000000000E+00  0.00000000000E+00  0.27347373330E+01  0.27347373330E+01  0.00000000000E+00 0.  1.
         21   -1    0    0  501  502 -0.00000000000E+00 -0.00000000000E+00 -0.59417059538E+03  0.59417059538E+03  0.00000000000E+00 0.  1.
          2    1    1    2  501    0  0.32224087029E+02 -0.20583676785E+02 -0.20124285286E+03  0.20484327024E+03  0.00000000000E+00 0.  1.
         21    1    1    2  503  502 -0.32224087029E+02  0.20583676785E+02 -0.39019300518E+03  0.39206206247E+03  0.00000000000E+00 0.  1.
</event>
<event>
 4    1  0.2134315E+005  0.2613848E+02  0.7546771E-02  0.1456460E+00
          2   -1    0    0  503    0  0.00000000000E+00  0.00000000000E+00  0.77975992882E+03  0.77975992882E+03  0.00000000000E+00 0.  1.
         21   -1    0    0  501  502 -0.00000000000E+00 -0.00000000000E+00 -0.59214473935E+02  0.59214473935E+02  0.00000000000E+00 0.  1.
          2    1    1    2  501    0 -0.25806905589E+02 -0.41501698309E+01  0.77664479843E+03  0.77708452772E+03  0.00000000000E+00 0.  1.
         21    1    1    2  503  502  0.25806905589E+02  0.41501698309E+01 -0.56099343547E+02  0.61889875037E+02  0.00000000000E+00 0.  1.
</event>
<event>
 4    1  0.2134315E+005  0.2950989E+02  0.7546771E-02  0.1423904E+00
          2   -1    0    0  502    0  0.00000000000E+00  0.00000000000E+00  0.11099333532E+03  0.11099333532E+03  0.00000000000E+00 0.  1.
         21   -1    0    0  503  502 -0.00000000000E+00 -0.00000000000E+00 -0.10857605398E+02  0.10857605398E+02  0.00000000000E+00 0.  1.
          2    1    1    2  501    0 -0.29466549955E+02 -0.15987446136E+01  0.82155964196E+02  0.87295108703E+02  0.00000000000E+00 0.  1.
         21    1    1    2  503  501  0.29466549955E+02  0.15987446136E+01  0.17979765723E+02  0.34555832012E+02  0.00000000000E+00 0.  1.
</event>
<event>
 4    1  0.2134315E+005  0.2275977E+02  0.7546771E-02  0.1495537E+00
          2   -1    0    0  502    0  0.00000000000E+00  0.00000000000E+00  0.93908587164E+03  0.93908587164E+03  0.00000000000E+00 0.  1.
         21   -1    0    0  503  502 -0.00000000000E+00 -0.00000000000E+00 -0.13217925488E+01  0.13217925488E+01  0.00000000000E+00 0.  1.
          2    1    1    2  501    0 -0.19541152160E+02  0.11668358595E+02  0.82780557193E+03  0.82811839259E+03  0.00000000000E+00 0.  1.
         21    1    1    2  503  501  0.19541152160E+02 -0.11668358595E+02  0.10995850716E+03  0.11228927160E+03  0.00000000000E+00 0.  1.
</event>
<event>
 4    1  0.2134315E+005  0.2696161E+02  0.7546771E-02  0.1447994E+00
          2   -1    0    0  503    0  0.00000000000E+00  0.00000000000E+00  0.13111953248E+04  0.13111953248E+04  0.00000000000E+00 0. -1.
         21   -1    0    0  501  502 -0.00000000000E+00 -0.00000000000E+00 -0.56018730124E+00  0.56018730124E+00  0.00000000000E+00 0. -1.
          2    1    1    2  501    0  0.20726117158E+02 -0.17244027231E+02  0.72197446775E+03  0.72247772318E+03  0.00000000000E+00 0. -1.
         21    1    1    2  503  502 -0.20726117158E+02  0.17244027231E+02  0.58866066979E+03  0.58927778897E+03  0.00000000000E+00 0. -1.
</event>
<event>
 4    1  0.2134315E+005  0.2539477E+02  0.7546771E-02  0.1464435E+00
          2   -1    0    0  503    0  0.00000000000E+00  0.00000000000E+00  0.70454263472E+01  0.70454263472E+01  0.00000000000E+00 0. -1.
         21   -1    0    0  501  502 -0.00000000000E+00 -0.00000000000E+00 -0.12187492334E+03  0.12187492334E+03  0.00000000000E+00 0. -1.
          2    1    1    2  501    0  0.24529722240E+02  0.65716844585E+01 -0.25252198743E+02  0.35812956470E+02  0.00000000000E+00 0. -1.
         21    1    1    2  503  502 -0.24529722240E+02 -0.65716844585E+01 -0.89577298252E+02  0.93107393218E+02  0.00000000000E+00 0. -1.
</event>
<event>
 4    1  0.2134315E+005  0.2364074E+02  0.7546771E-02  0.1484605E+00
          2   -1    0    0  502    0  0.00000000000E+00  0.00000000000E+00  0.13824440816E+03  0.13824440816E+03  0.00000000000E+00 0.  1.
         21   -1    0    0  503  502 -0.00000000000E+00 -0.00000000000E+00 -0.46391116018E+03  0.46391116018E+03  0.00000000000E+00 0. -1.
          2    1    1    2  501    0  0.19361889582E+02 -0.13564718907E+02  0.13692967520E+03  0.13895546164E+03  0.00000000000E+00 0.  1.
         21    1    1    2  503  501 -0.19361889582E+02  0.13564718907E+02 -0.46259642722E+03  0.46320010670E+03  0.00000000000E+00 0. -1.
</event>
<event>
 4    1  0.2134315E+005  0.2696752E+02  0.7546771E-02  0.1447935E+00
          2   -1    0    0  503    0  0.00000000000E+00  0.00000000000E+00  0.35602914858E+02  0.35602914858E+02  0.00000000000E+00 0. -1.
         21   -1    0    0  501  502 -0.00000000000E+00 -0.00000000000E+00 -0.28482147548E+02  0.28482147548E+02  0.00000000000E+00 0. -1.
          2    1    1    2  501    0  0.23798404189E+02 -0.12683961475E+02  0.20601092832E+02  0.33935997797E+02  0.00000000000E+00 0. -1.
         21    1    1    2  503  502 -0.23798404189E+02  0.12683961475E+02 -0.13480325522E+02  0.30149064609E+02  0.00000000000E+00 0. -1.
</event>
<event>
 4    1  0.2134315E+005  0.4736115E+02  0.7546771E-02  0.1310038E+00
          2   -1    0    0  503    0  0.00000000000E+00  0.00000000000E+00  0.77201726652E+03  0.77201726652E+03  0.00000000000E+00 0. -1.
         21   -1    0    0  501  502 -0.00000000000E+00 -0.00000000000E+00 -0.67277400730E+01  0.67277400730E+01  0.00000000000E+00 0.  1.
          2    1    1    2  501    0 -0.16992616488E+02  0.44207802113E+02  0.67613316094E+03  0.67778988640E+03  0.00000000000E+00 0. -1.
         21    1    1    2  503  502  0.16992616488E+02 -0.44207802113E+02  0.89156365503E+02  0.10095512019E+03  0.00000000000E+00 0.  1.
</event>
<event>
 4    1  0.2134315E+005  0.3516057E+02  0.7546771E-02  0.1379438E+00
          2   -1    0    0  503    0  0.00000000000E+00  0.00000000000E+00  0.12339766868E+02  0.12339766868E+02  0.00000000000E+00 0.  1.
         21   -1    0    0  501  502 -0.00000000000E+00 -0.00000000000E+00 -0.39605897786E+03  0.39605897786E+03  0.00000000000E+00 0.  1.
          2    1    1    2  501    0  0.14456493614E+01  0.35130840468E+02 -0.15366606928E+02  0.38371844659E+02  0.00000000000E+00 0.  1.
         21    1    1    2  503  502 -0.14456493614E+01 -0.35130840468E+02 -0.36835260406E+03  0.37002690007E+03  0.00000000000E+00 0.  1.
</event>
<event>
 4    1  0.2134315E+005  0.4034122E+02  0.7546771E-02  0.1346498E+00
          2   -1    0    0  502    0  0.00000000000E+00  0.00000000000E+00  0.31107188142E+02  0.31107188142E+02  0.00000000000E+00 0. -1.
         21   -1    0    0  503  502 -0.00000000000E+00 -0.00000000000E+00 -0.53039027624E+02  0.53039027624E+02  0.00000000000E+00 0. -1.
          2    1    1    2  501    0 -0.16805105140E+02  0.36674276019E+02 -0.60547653768E+01  0.40793066372E+02  0.00000000000E+00 0. -1.
         21    1    1    2  503  501  0.16805105140E+02 -0.36674276019E+02 -0.15877074105E+02  0.43353149394E+02  0.00000000000E+00 0. -1.
</event>
<event>
 4    1  0.2134315E+005  0.1217466E+03  0.7546771E-02  0.1130694E+00
          2   -1    0    0  502    0  0.00000000000E+00  0.00000000000E+00  0.14960363470E+03  0.14960363470E+03  0.00000000000E+00 0.  1.
         21   -1    0    0  503  502 -0.00000000000E+00 -0.00000000000E+00 -0.27667548759E+03  0.27667548759E+03  0.00000000000E+00 0. -1.
          2    1    1    2  501    0 -0.86985079704E+01 -0.12143541287E+03  0.10722905395E+03  0.16223530304E+03  0.00000000000E+00 0.  1.
         21    1    1    2  503  501  0.86985079704E+01  0.12143541287E+03 -0.23430090684E+03  0.26404381926E+03  0.00000000000E+00 0. -1.
</event>
<event>
 4    1  0.2134315E+005  0.2504717E+02  0.7546771E-02  0.1468276E+00
          2   -1    0    0  502    0  0.00000000000E+00  0.00000000000E+00  0.22273679640E+03  0.22273679640E+03  0.00000000000E+00 0. -1.
         21   -1    0    0  503  502 -0.00000000000E+00 -0.00000000000E+00 -0.59959383679E+01  0.59959383679E+01  0.00000000000E+00 0.  1.
          2    1    1    2  501    0  0.24406557720E+02  0.56285784768E+01  0.19164990248E+03  0.19327970943E+03  0.00000000000E+00 0. -1.
         21    1    1    2  503  501 -0.24406557720E+02 -0.56285784768E+01  0.25090955556E+02  0.35453025345E+02  0.00000000000E+00 0.  1.
</event>
<event>
 4    1  0.2134315E+005  0.2887692E+02  0.7546771E-02  0.1429613E+00
          2   -1    0    0  503    0  0.00000000000E+00  0.00000000000E+00  0.56072466779E+03  0.56072466779E+03  0.00000000000E+00 0.  1.
         21   -1    0    0  501  502 -0.00000000000E+00 -0.00000000000E+00 -0.27446767032E+02  0.27446767032E+02  0.00000000000E+00 0.  1.
          2    1    1    2  501    0 -0.28734487253E+02  0.28645944468E+01  0.55264653525E+03  0.55340046041E+03  0.00000000000E+00 0.  1.
         21    1    1    2  503  502  0.28734487253E+02 -0.28645944468E+01 -0.19368634496E+02  0.34770974408E+02  0.00000000000E+00 0.  1.
</event>
<event>
 4    1  0.2134315E+005  0.2574881E+02  0.7546771E-02  0.1460598E+00
          2   -1    0    0  503    0  0.00000000000E+00  0.00000000000E+00  0.11631731918E+01  0.11631731918E+01  0.00000000000E+00 0.  1.
         21   -1    0    0  501  502 -0.00000000000E+00 -0.00000000000E+00 -0.58316051503E+03  0.58316051503E+03  0.00000000000E+00 0.  1.
          2    1    1    2  501    0  0.20451886056E+02 -0.15643581283E+02 -0.33489936709E+03  0.33588776006E+03  0.00000000000E+00 0.  1.
         21    1    1    2  503  502 -0.20451886056E+02  0.15643581283E+02 -0.24709797474E+03  0.24843592816E+03  0.00000000000E+00 0.  1.
</event>
<event>
 4    1  0.2134315E+005  0.2544688E+02  0.7546771E-02  0.1463866E+00
          2   -1    0    0  503    0  0.00000000000E+00  0.00000000000E+00  0.25541210374E+03  0.25541210374E+03  0.00000000000E+00 0. -1.
         21   -1    0    0  501  502 -0.00000000000E+00 -0.00000000000E+00 -0.54202728872E+01  0.54202728872E+01  0.00000000000E+00 0. -1.
          2    1    1    2  501    0 -0.21119809773E+02  0.14194970923E+02  0.22014236851E+03  0.22160822633E+03  0.00000000000E+00 0. -1.
         21    1    1    2  503  502  0.21119809773E+02 -0.14194970923E+02  0.29849462345E+02  0.39224150298E+02  0.00000000000E+00 0. -1.
</event>
<event>
 4    1  0.2134315E+005  0.3472260E+02  0.7546771E-02  0.1382524E+00
          2   -1    0    0  503    0  0.00000000000E+00  0.00000000000E+00  0.15484702290E+04  0.15484702290E+04  0.00000000000E+00 0. -1.
         21   -1    0    0  501  502 -0.00000000000E+00 -0.00000000000E+00 -0.61653851446E+01  0.61653851446E+01  0.00000000000E+00 0.  1.
          2    1    1    2  501    0 -0.17869267967E+02 -0.29771601143E+02  0.14977313790E+04  0.14981338200E+04  0.00000000000E+00 0. -1.
         21    1    1    2  503  502  0.17869267967E+02  0.29771601143E+02  0.44573464830E+02  0.56501794124E+02  0.00000000000E+00 0.  1.
</event>
<event>
 4    1  0.2134315E+005  0.2055928E+02  0.7546771E-02  0.1525651E+00
          2   -1    0    0  502    0  0.00000000000E+00  0.00000000000E+00  0.40909690984E+02  0.40909690984E+02  0.00000000000E+00 0.  1.
         21   -1    0    0  503  502 -0.00000000000E+00 -0.00000000000E+00 -0.16770284350E+02  0.16770284350E+02  0.00000000000E+00 0.  1.
          2    1    1    2  501    0 -0.17559778281E+02  0.10692908539E+02  0.29938926130E+02  0.36318361803E+02  0.00000000000E+00 0.  1.
         21    1    1    2  503  501  0.17559778281E+02 -0.10692908539E+02 -0.57995194960E+01  0.21361613531E+02  0.00000000000E+00 0.  1.
</event>
<event>
 4    1  0.2134315E+005  0.2408533E+02  0.7546771E-02  0.1479301E+00
          2   -1    0    0  503    0  0.00000000000E+00  0.00000000000E+00  0.10068621501E+03  0.10068621501E+03  0.00000000000E+00 0.  1.
         21   -1    0    0  501  502 -0.00000000000E+00 -0.00000000000E+00 -0.48626384112E+02  0.48626384112E+02  0.00000000000E+00 0.  1.
          2    1    1    2  501    0  0.41420323557E+01  0.23726495242E+02  0.96123993798E+02  0.99095535682E+02  0.00000000000E+00 0.  1.
         21    1    1    2  503  502 -0.41420323557E+01 -0.23726495242E+02 -0.44064162900E+02  0.50217063440E+02  0.00000000000E+00 0.  1.
</event>
<event>
 4    1  0.2134315E+005  0.2622086E+02  0.7546771E-02  0.1455596E+00
          2   -1    0    0  503    0  0.00000000000E+00  0.00000000000E+00  0.87520064698E+02  0.87520064698E+02  0.00000000000E+00 0.  1.
         21   -1    0    0  501  502 -0.00000000000E+00 -0.00000000000E+00 -0.71031894925E+03  0.71031894925E+03  0.00000000000E+00 0. -1.
          2    1    1    2  501    0 -0.25451135315E+02  0.63066156392E+01  0.85308019457E+02  0.89246803155E+02  0.00000000000E+00 0.  1.
         21    1    1    2  503  502  0.25451135315E+02 -0.63066156392E+01 -0.70810690401E+03  0.70859221079E+03  0.00000000000E+00 0. -1.
</event>
<event>
 4    1  0.2134315E+005  0.4959587E+02  0.7546771E-02  0.1299934E+00
          2   -1    0    0  502    0  0.00000000000E+00  0.00000000000E+00  0.13332945153E+04  0.13332945153E+04  0.00000000000E+00 0. -1.
         21   -1    0    0  503  502 -0.00000000000E+00 -0.00000000000E+00 -0.27080207122E+01  0.27080207122E+01  0.00000000000E+00 0.  1.
          2    1    1    2  501    0 -0.24211022854E+02  0.43284829551E+02  0.10424271259E+04  0.10436062778E+04  0.00000000000E+00 0. -1.
         21    1    1    2  503  501  0.24211022854E+02 -0.43284829551E+02  0.28815936864E+03  0.29239625824E+03  0.00000000000E+00 0.  1.
</event>
<event>
 4    1  0.2134315E+005  0.3927600E+02  0.7546771E-02  0.1352781E+00
          2   -1    0    0  503    0  0.00000000000E+00  0.00000000000E+00  0.67185281172E+02  0.67185281172E+02  0.00000000000E+00 0.  1.
         21   -1    0    0  501  502 -0.00000000000E+00 -0.00000000000E+00 -0.29386496276E+02  0.29386496276E+02  0.00000000000E+00 0. -1.
          2    1    1    2  501    0 -0.72352688212E+01 -0.38603823920E+02  0.41479095468E+02  0.57123722717E+02  0.00000000000E+00 0.  1.
         21    1    1    2  503  502  0.72352688212E+01  0.38603823920E+02 -0.36803105722E+01  0.39448054731E+02  0.00000000000E+00 0. -1.
</event>
<event>
 4    1  0.2134315E+005  0.3556844E+02  0.7546771E-02  0.1376610E+00
          2   -1    0    0  503    0  0.00000000000E+00  0.00000000000E+00  0.27407291099E+04  0.27407291099E+04  0.00000000000E+00 0.  1.
         21   -1    0    0  501  502 -0.00000000000E+00 -0.00000000000E+00 -0.20886000623E+01  0.20886000623E+01  0.00000000000E+00 0. -1.
          2    1    1    2  501    0 -0.35553798494E+02  0.10205312889E+01  0.25797327733E+04  0.25799779642E+04  0.00000000000E+00 0.  1.
         21    1    1    2  503  502  0.35553798494E+02 -0.10205312889E+01  0.15890773654E+03  0.16283974578E+03  0.00000000000E+00 0. -1.
</event>
<event>
 4    1  0.2134315E+005  0.2850117E+02  0.7546771E-02  0.1433085E+00
          2   -1    0    0  502    0  0.00000000000E+00  0.00000000000E+00  0.69202764621E+03  0.69202764621E+03  0.00000000000E+00 0. -1.
         21   -1    0    0  503  502 -0.00000000000E+00 -0.00000000000E+00 -0.21032327963E+02  0.21032327963E+02  0.00000000000E+00 0. -1.
          2    1    1    2  501    0  0.14184305847E+02 -0.24720886528E+02  0.68193578835E+03  0.68253112471E+03  0.00000000000E+00 0. -1.
         21    1    1    2  503  501 -0.14184305847E+02  0.24720886528E+02 -0.10940470109E+02  0.30528849459E+02  0.00000000000E+00 0. -1.
</event>
<event>
 4    1  0.2134315E+005  0.3453150E+02  0.7546771E-02  0.1383887E+00
          2   -1    0    0  502    0  0.00000000000E+00  0.00000000000E+00  0.64840571317E+03  0.64840571317E+03  0.00000000000E+00 0. -1.
         21   -1    0    0  503  502 -0.00000000000E+00 -0.00000000000E+00 -0.19239025736E+01  0.19239025736E+01  0.00000000000E+00 0. -1.
          2    1    1    2  501    0 -0.15606926112E+02 -0.30803383284E+02  0.39154503333E+03  0.39306480088E+03  0.00000000000E+00 0. -1.
         21    1    1    2  503  501  0.15606926112E+02  0.30803383284E+02  0.25493677726E+03  0.25726481486E+03  0.00000000000E+00 0. -1.
</event>
<event>
 4    1  0.2134315E+005  0.2553938E+02  0.7546771E-02  0.1462859E+00
          2   -1    0    0  502    0  0.00000000000E+00  0.00000000000E+00  0.13005496079E+04  0.13005496079E+04  0.00000000000E+00 0. -1.
         21   -1    0    0  503  502 -0.00000000000E+00 -0.00000000000E+00 -0.18387941358E+01  0.18387941358E+01  0.00000000000E+00 0. -1.
          2    1    1    2  501    0  0.23385493643E+02 -0.10265415639E+02  0.12046879689E+04  0.12049586559E+04  0.00000000000E+00 0. -1.
         21    1    1    2  503  501 -0.23385493643E+02  0.10265415639E+02  0.94022844845E+02  0.97429746094E+02  0.00000000000E+00 0. -1.
</event>
<event>
 4    1  0.2134315E+005  0.3105099E+02  0.7546771E-02  0.1410678E+00
          2   -1    0    0  502    0  0.00000000000E+00  0.00000000000E+00  0.10781359089E+04  0.10781359089E+04  0.00000000000E+00 0. -1.
         21   -1    0    0  503  502 -0.00000000000E+00 -0.00000000000E+00 -0.77641657889E+01  0.77641657889E+01  0.00000000000E+00 0. -1.
          2    1    1    2  501    0  0.29367933637E+02 -0.10084058990E+02  0.10459107100E+04  0.10463715292E+04  0.00000000000E+00 0. -1.
         21    1    1    2  503  501 -0.29367933637E+02  0.10084058990E+02  0.24461033182E+02  0.39528545586E+02  0.00000000000E+00 0. -1.
</event>
<event>
 4    1  0.2134315E+005  0.2095488E+02  0.7546771E-02  0.1519910E+00
          2   -1    0    0  503    0  0.00000000000E+00  0.00000000000E+00  0.14859068379E+04  0.14859068379E+04  0.00000000000E+00 0.  1.
         21   -1    0    0  501  502 -0.00000000000E+00 -0.00000000000E+00 -0.70036463657E+01  0.70036463657E+01  0.00000000000E+00 0.  1.
          2    1    1    2  501    0 -0.74382022221E+00 -0.20941674344E+02  0.14699890112E+04  0.14701383609E+04  0.00000000000E+00 0.  1.
         21    1    1    2  503  502  0.74382022221E+00  0.20941674344E+02  0.89141802986E+01  0.22772123380E+02  0.00000000000E+00 0.  1.
</event>
<event>
 4    1  0.2134315E+005  0.2389710E+02  0.7546771E-02  0.1481530E+00
          2   -1    0    0  503    0  0.00000000000E+00  0.00000000000E+00  0.89203648211E+03  0.89203648211E+03  0.00000000000E+00 0. -1.
         21   -1    0    0  501  502 -0.00000000000E+00 -0.00000000000E+00 -0.10548828191E+02  0.10548828191E+02  0.00000000000E+00 0.  1.
          2    1    1    2  501    0 -0.21465619213E+02 -0.10502318379E+02  0.87812811097E+03  0.87845321490E+03  0.00000000000E+00 0. -1.
         21    1    1    2  503  502  0.21465619213E+02  0.10502318379E+02  0.33595429532E+01  0.24132095400E+02  0.00000000000E+00 0.  1.
</event>
<event>
 4    1  0.2134315E+005  0.3329480E+02  0.7546771E-02  0.1392964E+00
          2   -1    0    0  503    0  0.00000000000E+00  0.00000000000E+00  0.12234435570E+04  0.12234435570E+04  0.00000000000E+00 0. -1.
         21   -1    0    0  501  502 -0.00000000000E+00 -0.00000000000E+00 -0.11947405315E+01  0.11947405315E+01  0.00000000000E+00 0. -1.
          2    1    1    2  501    0  0.71919213976E+01  0.32508770710E+02  0.91209977549E+03  0.91270726104E+03  0.00000000000E+00 0. -1.
         21    1    1    2  503  502 -0.71919213976E+01 -0.32508770710E+02  0.31014904093E+03  0.31193103644E+03  0.00000000000E+00 0. -1.
</event>
<event>
 4    1  0.2134315E+005  0.4528317E+02  0.7546771E-02  0.1320029E+00
          2   -1    0    0  503    0  0.00000000000E+00  0.00000000000E+00  0.70218256823E+03  0.70218256823E+03  0.00000000000E+00 0.  1.
         21   -1    0    0  501  502 -0.00000000000E+00 -0.00000000000E+00 -0.13379306549E+02  0.13379306549E+02  0.00000000000E+00 0.  1.
          2    1    1    2  501    0  0.27540996411E+02 -0.35945225985E+02  0.66073582899E+03  0.66228574004E+03  0.00000000000E+00 0.  1.
         21    1    1    2  503  502 -0.27540996411E+02  0.35945225985E+02  0.28067432690E+02  0.53276134735E+02  0.00000000000E+00 0.  1.
</event>
<event>
 4    1  0.2134315E+005  0.4452823E+02  0.7546771E-02  0.1323815E+00
          2   -1    0    0  503    0  0.00000000000E+00  0.00000000000E+00  0.17807754962E+04  0.17807754962E+04  0.00000000000E+00 0. -1.
         21   -1    0    0  501  502 -0.00000000000E+00 -0.00000000000E+00 -0.15568246448E+01  0.15568246448E+01  0.00000000000E+00 0. -1.
          2    1    1    2  501    0 -0.25685273143E+02  0.36373482849E+02  0.13652024204E+04  0.13659284066E+04  0.00000000000E+00 0. -1.
         21    1    1    2  503  502  0.25685273143E+02 -0.36373482849E+02  0.41401625123E+03  0.41640391424E+03  0.00000000000E+00 0. -1.
</event>
<event>
 4    1  0.2134315E+005  0.3220194E+02  0.7546771E-02  0.1401379E+00
          2   -1    0    0  503    0  0.00000000000E+00  0.00000000000E+00  0.65813574632E+03  0.65813574632E+03  0.00000000000E+00 0. -1.
         21   -1    0    0  501  502 -0.00000000000E+00 -0.00000000000E+00 -0.28749581498E+01  0.28749581498E+01  0.00000000000E+00 0. -1.
          2    1    1    2  501    0  0.24621634584E+02 -0.20754281063E+02  0.54982092570E+03  0.55076312096E+03  0.00000000000E+00 0. -1.
         21    1    1    2  503  502 -0.24621634584E+02  0.20754281063E+02  0.10543986247E+03  0.11024758351E+03  0.00000000000E+00 0. -1.
</event>
<event>
 4    1  0.2134315E+005  0.2466775E+02  0.7546771E-02  0.1472555E+00
          2   -1    0    0  503    0  0.00000000000E+00  0.00000000000E+00  0.10717330435E+04  0.10717330435E+04  0.00000000000E+00 0.  1.
         21   -1    0    0  501  502 -0.00000000000E+00 -0.00000000000E+00 -0.52279873600E+01  0.52279873600E+01  0.00000000000E+00 0.  1.
          2    1    1    2  501    0 -0.22732192307E+02  0.95783906262E+01  0.10416528350E+04  0.10419448770E+04  0.00000000000E+00 0.  1.
         21    1    1    2  503  502  0.22732192307E+02 -0.95783906262E+01  0.24852221218E+02  0.35016153894E+02  0.00000000000E+00 0.  1.
</event>
<event>
 4    1  0.2134315E+005  0.3135540E+02  0.7546771E-02  0.1408173E+00
          2   -1    0    0  502    0  0.00000000000E+00  0.00000000000E+00  0.18050222265E+04  0.18050222265E+04  0.00000000000E+00 0.  1.
         21   -1    0    0  503  502 -0.00000000000E+00 -0.00000000000E+00 -0.71312446555E+02  0.71312446555E+02  0.00000000000E+00 0. -1.
          2    1    1    2  501    0  0.57229452675E+01 -0.30828709264E+02  0.18014325202E+04  0.18017053828E+04  0.00000000000E+00 0.  1.
         21    1    1    2  503  501 -0.57229452675E+01  0.30828709264E+02 -0.67722740274E+02  0.74629290279E+02  0.00000000000E+00 0. -1.
</event>
<event>
 4    1  0.2134315E+005  0.2157532E+02  0.7546771E-02  0.1511207E+00
          2   -1    0    0  503    0  0.00000000000E+00  0.00000000000E+00  0.13748756651E+02  0.13748756651E+02  0.00000000000E+00 0. -1.
         21   -1    0    0  501  502 -0.00000000000E+00 -0.00000000000E+00 -0.44902383314E+02  0.44902383314E+02  0.00000000000E+00 0. -1.
          2    1    1    2  501    0  0.17639041445E+02  0.12424108179E+02 -0.10323248039E+01  0.21599998649E+02  0.00000000000E+00 0. -1.
         21    1    1    2  503  502 -0.17639041445E+02 -0.12424108179E+02 -0.30121301860E+02  0.37051141316E+02  0.00000000000E+00 0. -1.
</event>
<event>
 4    1  0.2134315E+005  0.2844508E+02  0.7546771E-02  0.1433608E+00
          2   -1    0    0  503    0  0.00000000000E+00  0.00000000000E+00  0.84879937757E+02  0.84879937757E+02  0.00000000000E+00 0.  1.
         21   -1    0    0  501  502 -0.00000000000E+00 -0.00000000000E+00 -0.18980609139E+03  0.18980609139E+03  0.00000000000E+00 0.  1.
          2    1    1    2  501    0  0.21894624382E+02 -0.18158957238E+02  0.81386652419E+02  0.86214323037E+02  0.00000000000E+00 0.  1.
         21    1    1    2  503  502 -0.21894624382E+02  0.18158957238E+02 -0.18631280605E+03  0.18847170611E+03  0.00000000000E+00 0.  1.
</event>
<event>
 4    1  0.2134315E+005  0.3028678E+02  0.7546771E-02  0.1417120E+00
          2   -1    0    0  503    0  0.00000000000E+00  0.00000000000E+00  0.11639637107E+04  0.11639637107E+04  0.00000000000E+00 0.  1.
         21   -1    0    0  501  502 -0.00000000000E+00 -0.00000000000E+00 -0.21464949515E+01  0.21464949515E+01  0.00000000000E+00 0.  1.
          2    1    1    2  501    0  0.18840819290E+02  0.23713128639E+02  0.10447419161E+04  0.10451808265E+04  0.00000000000E+00 0.  1.
         21    1    1    2  503  502 -0.18840819290E+02 -0.23713128639E+02  0.11707529970E+03  0.12092937915E+03  0.00000000000E+00 0.  1.
</event>
<event>
 4    1  0.2134315E+005  0.2309896E+02  0.7546771E-02  0.1491259E+00
          2   -1    0    0  502    0  0.00000000000E+00  0.00000000000E+00  0.12545518858E+04  0.12545518858E+04  0.00000000000E+00 0.  1.
         21   -1    0    0  503  502 -0.00000000000E+00 -0.00000000000E+00 -0.79788764496E+00  0.79788764496E+00  0.00000000000E+00 0. -1.
          2    1    1    2  501    0  0.15241654276E+02 -0.17356674130E+02  0.10557982157E+04  0.10560508673E+04  0.00000000000E+00 0.  1.
         21    1    1    2  503  501 -0.15241654276E+02  0.17356674130E+02  0.19795578242E+03  0.19929890606E+03  0.00000000000E+00 0. -1.
</event>
<event>
 4    1  0.2134315E+005  0.2882154E+02  0.7546771E-02  0.1430121E+00
          2   -1    0    0  502    0  0.00000000000E+00  0.00000000000E+00  0.39064400659E+03  0.39064400659E+03  0.00000000000E+00 0. -1.
         21   -1    0    0  503  502 -0.00000000000E+00 -0.00000000000E+00 -0.51245922611E+01  0.51245922611E+01  0.00000000000E+00 0. -1.
          2    1    1    2  501    0 -0.24010679230E+02  0.15942652631E+02  0.34411881178E+03  0.34532367065E+03  0.00000000000E+00 0. -1.
         21    1    1    2  503  501  0.24010679230E+02 -0.15942652631E+02  0.41400602557E+02  0.50444928210E+02  0.00000000000E+00 0. -1.
</event>
<event>
 4    1  0.2134315E+005  0.3444769E+02  0.7546771E-02  0.1384488E+00
          2   -1    0    0  503    0  0.00000000000E+00  0.00000000000E+00  0.94886213971E+02  0.94886213971E+02  0.00000000000E+00 0.  1.
         21   -1    0    0  501  502 -0.00000000000E+00 -0.00000000000E+00 -0.17365431331E+02  0.17365431331E+02  0.00000000000E+00 0. -1.
          2    1    1    2  501    0 -0.24777637655E+02 -0.23931399612E+02  0.68450681040E+02  0.76629882879E+02  0.00000000000E+00 0.  1.
         21    1    1    2  503  502  0.24777637655E+02  0.23931399612E+02  0.90701016001E+01  0.35621762424E+02  0.00000000000E+00 0. -1.
</event>
<event>
 4    1  0.2134315E+005  0.2364575E+02  0.7546771E-02  0.1484545E+00
          2   -1    0    0  503    0  0.00000000000E+00  0.00000000000E+00  0.91454387356E+03  0.91454387356E+03  0.00000000000E+00 0. -1.
         21   -1    0    0  501  502 -0.00000000000E+00 -0.00000000000E+00 -0.17928996465E+02  0.17928996465E+02  0.00000000000E+00 0. -1.
          2    1    1    2  501    0  0.14773512040E+02  0.18462528313E+02  0.90652575430E+03  0.90683408892E+03  0.00000000000E+00 0. -1.
         21    1    1    2  503  502 -0.14773512040E+02 -0.18462528313E+02 -0.99108772060E+01  0.25638781108E+02  0.00000000000E+00 0. -1.
</event>
<event>
 4    1  0.2134315E+005  0.2453957E+02  0.7546771E-02  0.1474021E+00
          2   -1    0    0  502    0  0.00000000000E+00  0.00000000000E+00  0.17189528769E+04  0.17189528769E+04  0.00000000000E+00 0. -1.
         21   -1    0    0  503  502 -0.00000000000E+00 -0.00000000000E+00 -0.14515932837E+01  0.14515932837E+01  0.00000000000E+00 0.  1.
          2    1    1    2  501    0  0.53729897261E+01  0.23944132496E+02  0.16079973589E+04  0.16081845966E+04  0.00000000000E+00 0. -1.
         21    1    1    2  503  501 -0.53729897261E+01 -0.23944132496E+02  0.10950392468E+03  0.11221987355E+03  0.00000000000E+00 0.  1.
</event>
<event>
 4    1  0.2134315E+005  0.2815629E+02  0.7546771E-02  0.1436326E+00
          2   -1    0    0  503    0  0.00000000000E+00  0.00000000000E+00  0.52431262949E+03  0.52431262949E+03  0.00000000000E+00 0. -1.
         21   -1    0    0  501  502 -0.00000000000E+00 -0.00000000000E+00 -0.96859866312E+01  0.96859866312E+01  0.00000000000E+00 0.  1.
          2    1    1    2  501    0 -0.19546299290E+02  0.20266205884E+02  0.50258891923E+03  0.50337699456E+03  0.00000000000E+00 0. -1.
         21    1    1    2  503  502  0.19546299290E+02 -0.20266205884E+02  0.12037723624E+02  0.30621621559E+02  0.00000000000E+00 0.  1.
</event>
<event>
 4    1  0.2134315E+005  0.3261473E+02  0.7546771E-02  0.1398155E+00
          2   -1    0    0  503    0  0.00000000000E+00  0.00000000000E+00  0.30948731991E+03  0.30948731991E+03  0.00000000000E+00 0. -1.
         21   -1    0    0  501  502 -0.00000000000E+00 -0.00000000000E+00 -0.77597189043E+02  0.77597189043E+02  0.00000000000E+00 0. -1.
          2    1    1    2  501    0 -0.20137392008E+01 -0.32552499922E+02  0.30515245636E+03  0.30689043977E+03  0.00000000000E+00 0. -1.
         21    1    1    2  503  502  0.20137392008E+01  0.32552499922E+02 -0.73262325492E+02  0.80194069190E+02  0.00000000000E+00 0. -1.
</event>
<event>
 4    1  0.2134315E+005  0.8385564E+02  0.7546771E-02  0.1195169E+00
          2   -1    0    0  503    0  0.00000000000E+00  0.00000000000E+00  0.13778589499E+04  0.13778589499E+04  0.00000000000E+00 0.  1.
         21   -1    0    0  501  502 -0.00000000000E+00 -0.00000000000E+00 -0.97854718883E+01  0.97854718883E+01  0.00000000000E+00 0. -1.
          2    1    1    2  501    0 -0.58508325965E+02  0.60071152620E+02  0.11639649462E+04  0.11669816466E+04  0.00000000000E+00 0.  1.
         21    1    1    2  503  502  0.58508325965E+02 -0.60071152620E+02  0.20410853185E+03  0.22066277520E+03  0.00000000000E+00 0. -1.
</event>
<event>
 4    1  0.2134315E+005  0.2517148E+02  0.7546771E-02  0.1466894E+00
          2   -1    0    0  503    0  0.00000000000E+00  0.00000000000E+00  0.18921495182E+03  0.18921495182E+03  0.00000000000E+00 0.  1.
         21   -1    0    0  501  502 -0.00000000000E+00 -0.00000000000E+00 -0.47770174228E+01  0.47770174228E+01  0.00000000000E+00 0. -1.
          2    1    1    2  501    0  0.24900293429E+02  0.36849639769E+01  0.14525905209E+03  0.14742386438E+03  0.00000000000E+00 0.  1.
         21    1    1    2  503  502 -0.24900293429E+02 -0.36849639769E+01  0.39178882306E+02  0.46568104869E+02  0.00000000000E+00 0. -1.
</event>
<event>
 4    1  0.2134315E+005  0.2563479E+02  0.7546771E-02  0.1461826E+00
          2   -1    0    0  503    0  0.00000000000E+00  0.00000000000E+00  0.45807298943E+02  0.45807298943E+02  0.00000000000E+00 0. -1.
         21   -1    0    0  501  502 -0.00000000000E+00 -0.00000000000E+00 -0.22642716925E+02  0.22642716925E+02  0.00000000000E+00 0. -1.
          2    1    1    2  501    0 -0.14703823729E+02  0.20998567547E+02  0.32299808026E+02  0.41236147611E+02  0.00000000000E+00 0. -1.
         21    1    1    2  503  502  0.14703823729E+02 -0.20998567547E+02 -0.91352260076E+01  0.27213868257E+02  0.00000000000E+00 0. -1.
</event>
<event>
 4    1  0.2134315E+005  0.2471647E+02  0.7546771E-02  0.1472000E+00
          2   -1    0    0  503    0  0.00000000000E+00  0.00000000000E+00  0.20357285387E+02  0.20357285387E+02  0.00000000000E+00 0.  1.
         21   -1    0    0  501  502 -0.00000000000E+00 -0.00000000000E+00 -0.35444681342E+02  0.35444681342E+02  0.00000000000E+00 0.  1.
          2    1    1    2  501    0  0.12290533107E+02 -0.21444038085E+02  0.33824393952E+01  0.24946840877E+02  0.00000000000E+00 0.  1.
         21    1    1    2  503  502 -0.12290533107E+02  0.21444038085E+02 -0.18469835350E+02  0.30855125852E+02  0.00000000000E+00 0.  1.
</event>
<event>
 4    1  0.2134315E+005  0.2157449E+02  0.7546771E-02  0.1511218E+00
          2   -1    0    0  502    0  0.00000000000E+00  0.00000000000E+00  0.22153974135E+03  0.22153974135E+03  0.00000000000E+00 0.  1.
         21   -1    0    0  503  502 -0.00000000000E+00 -0.00000000000E+00 -0.13973941460E+02  0.13973941460E+02  0.00000000000E+00 0. -1.
          2    1    1    2  501    0 -0.11391410931E+02 -0.18321966631E+02  0.21232683084E+03  0.21342010636E+03  0.00000000000E+00 0.  1.
         21    1    1    2  503  501  0.11391410931E+02  0.18321966631E+02 -0.47610309575E+01  0.22093576442E+02  0.00000000000E+00 0. -1.
</event>
<event>
 4    1  0.2134315E+005  0.2162057E+02  0.7546771E-02  0.1510586E+00
          2   -1    0    0  502    0  0.00000000000E+00  0.00000000000E+00  0.13537724080E+04  0.13537724080E+04  0.00000000000E+00 0.  1.
         21   -1    0    0  503  502 -0.00000000000E+00 -0.00000000000E+00 -0.44595180716E+01  0.44595180716E+01  0.00000000000E+00 0. -1.
          2    1    1    2  501    0 -0.11443543782E+02  0.18343781126E+02  0.13269513170E+04  0.13271274417E+04  0.00000000000E+00 0.  1.
         21    1    1    2  503  501  0.11443543782E+02 -0.18343781126E+02  0.22361572941E+02  0.31104484318E+02  0.00000000000E+00 0. -1.
</event>
<event>
 4    1  0.2134315E+005  0.2053615E+02  0.7546771E-02  0.1525992E+00
          2   -1    0    0  503    0  0.00000000000E+00  0.00000000000E+00  0.25948993216E+03  0.25948993216E+03  0.00000000000E+00 0. -1.
         21   -1    0    0  501  502 -0.00000000000E+00 -0.00000000000E+00 -0.26909751227E+02  0.26909751227E+02  0.00000000000E+00 0.  1.
          2    1    1    2  501    0 -0.16138618965E+02 -0.12699545106E+02  0.25509824368E+03  0.25592351864E+03  0.00000000000E+00 0. -1.
         21    1    1    2  503  502  0.16138618965E+02  0.12699545106E+02 -0.22518062742E+02  0.30476164746E+02  0.00000000000E+00 0.  1.
</event>
<event>
 4    1  0.2134315E+005  0.2492246E+02  0.7546771E-02  0.1469673E+00
          2   -1    0    0  503    0  0.00000000000E+00  0.00000000000E+00  0.71448905235E+02  0.71448905235E+02  0.00000000000E+00 0.  1.
         21   -1    0    0  501  502 -0.00000000000E+00 -0.00000000000E+00 -0.12499055422E+02  0.12499055422E+02  0.00000000000E+00 0.  1.
          2    1    1    2  501    0 -0.20433819189E+02 -0.14268421714E+02  0.52636087345E+02  0.58238187780E+02  0.00000000000E+00 0.  1.
         21    1    1    2  503  502  0.20433819189E+02  0.14268421714E+02  0.63137624682E+01  0.25709772877E+02  0.00000000000E+00 0.  1.
</event>
<event>
 4    1  0.2134315E+005  0.2323519E+02  0.7546771E-02  0.1489566E+00
          2   -1    0    0  503    0  0.00000000000E+00  0.00000000000E+00  0.11433808443E+04  0.11433808443E+04  0.00000000000E+00 0. -1.
         21   -1    0    0  501  502 -0.00000000000E+00 -0.00000000000E+00 -0.51449189256E+01  0.51449189256E+01  0.00000000000E+00 0.  1.
          2    1    1    2  501    0  0.10957951543E+02  0.20488961107E+02  0.11163953887E+04  0.11166371559E+04  0.00000000000E+00 0. -1.
         21    1    1    2  503  502 -0.10957951543E+02 -0.20488961107E+02  0.21840536681E+02  0.31888607241E+02  0.00000000000E+00 0.  1.
</event>
<event>
 4    1  0.2134315E+005  0.2121969E+02  0.7546771E-02  0.1516151E+00
          2   -1    0    0  503    0  0.00000000000E+00  0.00000000000E+00  0.25944963919E+03  0.25944963919E+03  0.00000000000E+00 0. -1.
         21   -1    0    0  501  502 -0.00000000000E+00 -0.00000000000E+00 -0.13505663753E+02  0.13505663753E+02  0.00000000000E+00 0. -1.
          2    1    1    2  501    0  0.15716415317E+02  0.14257267524E+02  0.25037942732E+03  0.25127700455E+03  0.00000000000E+00 0. -1.
         21    1    1    2  503  502 -0.15716415317E+02 -0.14257267524E+02 -0.44354518911E+01  0.21678298391E+02  0.00000000000E+00 0. -1.
</event>
<event>
 4    1  0.2134315E+005  0.2185096E+02  0.7546771E-02  0.1507454E+00
          2   -1    0    0  502    0  0.00000000000E+00  0.00000000000E+00  0.53613715268E+01  0.53613715268E+01  0.00000000000E+00 0. -1.
         21   -1    0    0  503  502 -0.00000000000E+00 -0.00000000000E+00 -0.26549431219E+03  0.26549431219E+03  0.00000000000E+00 0. -1.
          2    1    1    2  501    0 -0.19425572609E+02 -0.10005577330E+02 -0.19664632849E+02  0.29396636440E+02  0.00000000000E+00 0. -1.
         21    1    1    2  503  501  0.19425572609E+02  0.10005577330E+02 -0.24046830782E+03  0.24145904728E+03  0.00000000000E+00 0. -1.
</event>
<event>
 4    1  0.2134315E+005  0.2229411E+02  0.7546771E-02  0.1501558E+00
          2   -1    0    0  503    0  0.00000000000E+00  0.00000000000E+00  0.59554981741E+01  0.59554981741E+01  0.00000000000E+00 0.  1.
         21   -1    0    0  501  502 -0.00000000000E+00 -0.00000000000E+00 -0.17916188326E+03  0.17916188326E+03  0.00000000000E+00 0. -1.
          2    1    1    2  501    0  0.14555915130E+02  0.16886460841E+02 -0.18954136385E+02  0.29262373641E+02  0.00000000000E+00 0.  1.
         21    1    1    2  503  502 -0.14555915130E+02 -0.16886460841E+02 -0.15425224870E+03  0.15585500780E+03  0.00000000000E+00 0. -1.
</event>
<event>
 4    1  0.2134315E+005  0.2752628E+02  0.7546771E-02  0.1442392E+00
          2   -1    0    0  502    0  0.00000000000E+00  0.00000000000E+00  0.61441502141E+02  0.61441502141E+02  0.00000000000E+00 0. -1.
         21   -1    0    0  503  502 -0.00000000000E+00 -0.00000000000E+00 -0.13276834484E+02  0.13276834484E+02  0.00000000000E+00 0.  1.
          2    1    1    2  501    0 -0.27523708907E+02  0.37604197016E+00  0.34048547833E+02  0.43783553638E+02  0.00000000000E+00 0. -1.
         21    1    1    2  503  501  0.27523708907E+02 -0.37604197016E+00  0.14116119824E+02  0.30934782987E+02  0.00000000000E+00 0.  1.
</event>
<event>
 4    1  0.2134315E+005  0.2875911E+02  0.7546771E-02  0.1430695E+00
          2   -1    0    0  503    0  0.00000000000E+00  0.00000000000E+00  0.74148370673E+03  0.74148370673E+03  0.00000000000E+00 0. -1.
         21   -1    0    0  501  502 -0.00000000000E+00 -0.00000000000E+00 -0.13979589378E+01  0.13979589378E+01  0.00000000000E+00 0. -1.
          2    1    1    2  501    0  0.28394618348E+02 -0.45642104099E+01  0.20306450065E+03  0.20509090129E+03  0.00000000000E+00 0. -1.
         21    1    1    2  503  502 -0.28394618348E+02  0.45642104099E+01  0.53702124714E+03  0.53779076438E+03  0.00000000000E+00 0. -1.
</event>
<event>
 4    1  0.2134315E+005  0.2267999E+02  0.7546771E-02  0.1496556E+00
          2   -1    0    0  503    0  0.00000000000E+00  0.00000000000E+00  0.28071392582E+02  0.28071392582E+02  0.00000000000E+00 0.  1.
         21   -1    0    0  501  502 -0.00000000000E+00 -0.00000000000E+00 -0.37091461622E+02  0.37091461622E+02  0.00000000000E+00 0. -1.
          2    1    1    2  501    0 -0.22495100091E+02 -0.28900680750E+01  0.18665787428E+02  0.29373349178E+02  0.00000000000E+00 0.  1.
         21    1    1    2  503  502  0.22495100091E+02  0.28900680750E+01 -0.27685856468E+02  0.35789505026E+02  0.00000000000E+00 0. -1.
</event>
<event>
 4    1  0.2134315E+005  0.2147860E+02  0.7546771E-02  0.1512540E+00
          2   -1    0    0  503    0  0.00000000000E+00  0.00000000000E+00  0.19552863288E+03  0.19552863288E+03  0.00000000000E+00 0.  1.
         21   -1    0    0  501  502 -0.00000000000E+00 -0.00000000000E+00 -0.10138081185E+02  0.10138081185E+02  0.00000000000E+00 0.  1.
          2    1    1    2  501    0 -0.90191946969E+01 -0.19493183231E+02  0.18277128672E+03  0.18402900129E+03  0.00000000000E+00 0.  1.
         21    1    1    2  503  502  0.90191946969E+01  0.19493183231E+02  0.26192649810E+01  0.21637712783E+02  0.00000000000E+00 0.  1.
</event>
<event>
 4    1  0.2134315E+005  0.2613135E+02  0.7546771E-02  0.1456534E+00
          2   -1    0    0  502    0  0.00000000000E+00  0.00000000000E+00  0.16548421575E+04  0.16548421575E+04  0.00000000000E+00 0. -1.
         21   -1    0    0  503  502 -0.00000000000E+00 -0.00000000000E+00 -0.20571502394E+01  0.20571502394E+01  0.00000000000E+00 0. -1.
          2    1    1    2  501    0  0.25650714654E+02  0.49888285709E+01  0.15671088429E+04  0.15673266963E+04  0.00000000000E+00 0. -1.
         21    1    1    2  503  501 -0.25650714654E+02 -0.49888285709E+01  0.85676164348E+02  0.89572611384E+02  0.00000000000E+00 0. -1.
</event>
<event>
 4    1  0.2134315E+005  0.2346183E+02  0.7546771E-02  0.1486779E+00
          2   -1    0    0  502    0  0.00000000000E+00  0.00000000000E+00  0.90161874015E+03  0.90161874015E+03  0.00000000000E+00 0.  1.
         21   -1    0    0  503  502 -0.00000000000E+00 -0.00000000000E+00 -0.14035919223E+01  0.14035919223E+01  0.00000000000E+00 0.  1.
          2    1    1    2  501    0 -0.22072789873E+02  0.79529643370E+01  0.78950138675E+03  0.78984992080E+03  0.00000000000E+00 0.  1.
         21    1    1    2  503  501  0.22072789873E+02 -0.79529643370E+01  0.11071376148E+03  0.11317241128E+03  0.00000000000E+00 0.  1.
</event>
<event>
 4    1  0.2134315E+005  0.2847263E+02  0.7546771E-02  0.1433351E+00
          2   -1    0    0  502    0  0.00000000000E+00  0.00000000000E+00  0.13538568291E+04  0.13538568291E+04  0.00000000000E+00 0. -1.
         21   -1    0    0  503  502 -0.00000000000E+00 -0.00000000000E+00 -0.10535012830E+02  0.10535012830E+02  0.00000000000E+00 0. -1.
          2    1    1    2  501    0 -0.24436547573E+01  0.28367576806E+02  0.13341855013E+04  0.13344892817E+04  0.00000000000E+00 0. -1.
         21    1    1    2  503  501  0.24436547573E+01 -0.28367576806E+02  0.91363149725E+01  0.29902560320E+02  0.00000000000E+00 0. -1.
</event>
<event>
 4    1  0.2134315E+005  0.2376766E+02  0.7546771E-02  0.1483077E+00
          2   -1    0    0  503    0  0.00000000000E+00  0.00000000000E+00  0.36434432817E+03  0.36434432817E+03  0.00000000000E+00 0. -1.
         21   -1    0    0  501  502 -0.00000000000E+00 -0.00000000000E+00 -0.38810193035E+01  0.38810193035E+01  0.00000000000E+00 0. -1.
          2    1    1    2  501    0  0.17591022605E+00  0.23767009619E+02  0.32290431653E+03  0.32377785490E+03  0.00000000000E+00 0. -1.
         21    1    1    2  503  502 -0.17591022605E+00 -0.23767009619E+02  0.37558992336E+02  0.44447492572E+02  0.00000000000E+00 0. -1.
</event>
<event>
 4    1  0.2134315E+005  0.6498882E+02  0.7546771E-02  0.1243763E+00
          2   -1    0    0  503    0  0.00000000000E+00  0.00000000000E+00  0.13231597374E+03  0.13231597374E+03  0.00000000000E+00 0. -1.
         21   -1    0    0  501  502 -0.00000000000E+00 -0.00000000000E+00 -0.58358632460E+02  0.58358632460E+02  0.00000000000E+00 0.  1.
          2    1    1    2  501    0  0.40903597592E+02 -0.50501909017E+02  0.10114814551E+03  0.12022684580E+03  0.00000000000E+00 0. -1.
         21    1    1    2  503  502 -0.40903597592E+02  0.50501909017E+02 -0.27190804235E+02  0.70447760399E+02  0.00000000000E+00 0.  1.
</event>
<event>
 4    1  0.2134315E+005  0.2578868E+02  0.7546771E-02  0.1460171E+00
          2   -1    0    0  503    0  0.00000000000E+00  0.00000000000E+00  0.12862330782E+04  0.12862330782E+04  0.00000000000E+00 0. -1.
         21   -1    0    0  501  502 -0.00000000000E+00 -0.00000000000E+00 -0.54591191792E+00  0.54591191792E+00  0.00000000000E+00 0. -1.
          2    1    1    2  501    0 -0.21097253564E+02 -0.14831120859E+02  0.49492591842E+03  0.49559733754E+03  0.00000000000E+00 0. -1.
         21    1    1    2  503  502  0.21097253564E+02  0.14831120859E+02  0.79076124787E+03  0.79118165258E+03  0.00000000000E+00 0. -1.
</event>
<event>
 4    1  0.2134315E+005  0.2293216E+02  0.7546771E-02  0.1493352E+00
          2   -1    0    0  503    0  0.00000000000E+00  0.00000000000E+00  0.73346918108E+03  0.73346918108E+03  0.00000000000E+00 0. -1.
         21   -1    0    0  501  502 -0.00000000000E+00 -0.00000000000E+00 -0.32741217405E+01  0.32741217405E+01  0.00000000000E+00 0. -1.
          2    1    1    2  501    0  0.20410721117E+01  0.22841148499E+02  0.69064628452E+03  0.69102689844E+03  0.00000000000E+00 0. -1.
         21    1    1    2  503  502 -0.20410721117E+01 -0.22841148499E+02  0.39548774815E+02  0.45716404380E+02  0.00000000000E+00 0. -1.
</event>
<event>
 4    1  0.2134315E+005  0.2013710E+02  0.7546771E-02  0.1531950E+00
          2   -1    0    0  502    0  0.00000000000E+00  0.00000000000E+00  0.35866209398E+02  0.35866209398E+02  0.00000000000E+00 0. -1.
         21   -1    0    0  503  502 -0.00000000000E+00 -0.00000000000E+00 -0.23110160393E+03  0.23110160393E+03  0.00000000000E+00 0. -1.
          2    1    1    2  501    0 -0.18425928395E+02 -0.81232872663E+01  0.32560109389E+02  0.38283983030E+02  0.00000000000E+00 0. -1.
         21    1    1    2  503  501  0.18425928395E+02  0.81232872663E+01 -0.22779550392E+03  0.22868383030E+03  0.00000000000E+00 0. -1.
</event>
<event>
 4    1  0.2134315E+005  0.3666960E+02  0.7546771E-02  0.1369191E+00
          2   -1    0    0  503    0  0.00000000000E+00  0.00000000000E+00  0.26706712200E+03  0.26706712200E+03  0.00000000000E+00 0.  1.
         21   -1    0    0  501  502 -0.00000000000E+00 -0.00000000000E+00 -0.36440048897E+02  0.36440048897E+02  0.00000000000E+00 0.  1.
          2    1    1    2  501    0 -0.36338088081E+02  0.49196744717E+01  0.25619369156E+03  0.25880468975E+03  0.00000000000E+00 0.  1.
         21    1    1    2  503  502  0.36338088081E+02 -0.49196744717E+01 -0.25566618449E+02  0.44702481153E+02  0.00000000000E+00 0.  1.
</event>
<event>
 4    1  0.2134315E+005  0.2002346E+02  0.7546771E-02  0.1533677E+00
          2   -1    0    0  502    0  0.00000000000E+00  0.00000000000E+00  0.52013217070E+03  0.52013217070E+03  0.00000000000E+00 0. -1.
         21   -1    0    0  503  502 -0.00000000000E+00 -0.00000000000E+00 -0.13194509174E+02  0.13194509174E+02  0.00000000000E+00 0.  1.
          2    1    1    2  501    0  0.13029022604E+02 -0.15204725996E+02  0.51222553974E+03  0.51261676006E+03  0.00000000000E+00 0. -1.
         21    1    1    2  503  501 -0.13029022604E+02  0.15204725996E+02 -0.52878782227E+01  0.20709919815E+02  0.00000000000E+00 0.  1.
</event>
<event>
 4    1  0.2134315E+005  0.2079253E+02  0.7546771E-02  0.1522248E+00
          2   -1    0    0  502    0  0.00000000000E+00  0.00000000000E+00  0.48813077636E+03  0.48813077636E+03  0.00000000000E+00 0.  1.
         21   -1    0    0  503  502 -0.00000000000E+00 -0.00000000000E+00 -0.18860369116E+01  0.18860369116E+01  0.00000000000E+00 0.  1.
          2    1    1    2  501    0  0.11220980203E+01 -0.20762231754E+02  0.42155842848E+03  0.42207089214E+03  0.00000000000E+00 0.  1.
         21    1    1    2  503  501 -0.11220980203E+01  0.20762231754E+02  0.64686310965E+02  0.67945921126E+02  0.00000000000E+00 0.  1.
</event>
<event>
 4    1  0.2134315E+005  0.4097834E+02  0.7546771E-02  0.1342846E+00
          2   -1    0    0  503    0  0.00000000000E+00  0.00000000000E+00  0.54018748291E+03  0.54018748291E+03  0.00000000000E+00 0. -1.
         21   -1    0    0  501  502 -0.00000000000E+00 -0.00000000000E+00 -0.35522239586E+01  0.35522239586E+01  0.00000000000E+00 0.  1.
          2    1    1    2  501    0 -0.40335999512E+02  0.72271338013E+01  0.36439489543E+03  0.36669178356E+03  0.00000000000E+00 0. -1.
         21    1    1    2  503  502  0.40335999512E+02 -0.72271338013E+01  0.17224036352E+03  0.17704792330E+03  0.00000000000E+00 0.  1.
</event>
<event>
 4    1  0.2134315E+005  0.2508400E+02  0.7546771E-02  0.1467866E+00
          2   -1    0    0  502    0  0.00000000000E+00  0.00000000000E+00  0.10367489150E+02  0.10367489150E+02  0.00000000000E+00 0. -1.
         21   -1    0    0  503  502 -0.00000000000E+00 -0.00000000000E+00 -0.93181894588E+02  0.93181894588E+02  0.00000000000E+00 0. -1.
          2    1    1    2  501    0  0.22132339765E+00 -0.25083027367E+02 -0.10834313567E+02  0.27323791765E+02  0.00000000000E+00 0. -1.
         21    1    1    2  503  501 -0.22132339765E+00  0.25083027367E+02 -0.71980091871E+02  0.76225591973E+02  0.00000000000E+00 0. -1.
</event>
<event>
 4    1  0.2134315E+005  0.3805443E+02  0.7546771E-02  0.1360280E+00
          2   -1    0    0  502    0  0.00000000000E+00  0.00000000000E+00  0.20384740624E+04  0.20384740624E+04  0.00000000000E+00 0.  1.
         21   -1    0    0  503  502 -0.00000000000E+00 -0.00000000000E+00 -0.12363387744E+03  0.12363387744E+03  0.00000000000E+00 0.  1.
          2    1    1    2  501    0 -0.21073065423E+02  0.31686995485E+02  0.20353637042E+04  0.20357194179E+04  0.00000000000E+00 0.  1.
         21    1    1    2  503  501  0.21073065423E+02 -0.31686995485E+02 -0.12052351931E+03  0.12638852194E+03  0.00000000000E+00 0.  1.
</event>
<event>
 4    1  0.2134315E+005  0.2799340E+02  0.7546771E-02  0.1437877E+00
          2   -1    0    0  503    0  0.00000000000E+00  0.00000000000E+00  0.18159429938E+04  0.18159429938E+04  0.00000000000E+00 0.  1.
         21   -1    0    0  501  502 -0.00000000000E+00 -0.00000000000E+00 -0.35363614444E+01  0.35363614444E+01  0.00000000000E+00 0. -1.
          2    1    1    2  501    0  0.27333219946E+02  0.60436466570E+01  0.17586318022E+04  0.17588545836E+04  0.00000000000E+00 0.  1.
         21    1    1    2  503  502 -0.27333219946E+02 -0.60436466570E+01  0.53774830164E+02  0.60624771643E+02  0.00000000000E+00 0. -1.
</event>
<event>
 4    1  0.2134315E+005  0.2419888E+02  0.7546771E-02  0.1477969E+00
          2   -1    0    0  502    0  0.00000000000E+00  0.00000000000E+00  0.32979922016E+02  0.32979922016E+02  0.00000000000E+00 0.  1.
         21   -1    0    0  503  502 -0.00000000000E+00 -0.00000000000E+00 -0.21705803795E+02  0.21705803795E+02  0.00000000000E+00 0.  1.
          2    1    1    2  501    0 -0.16129754756E+02 -0.18039314017E+02  0.17301212953E+02  0.29747568108E+02  0.00000000000E+00 0.  1.
         21    1    1    2  503  501  0.16129754756E+02  0.18039314017E+02 -0.60270947323E+01  0.24938157703E+02  0.00000000000E+00 0.  1.
</event>
<event>
 4    1  0.2134315E+005  0.4442732E+02  0.7546771E-02  0.1324328E+00
          2   -1    0    0  502    0  0.00000000000E+00  0.00000000000E+00  0.13538333960E+04  0.13538333960E+04  0.00000000000E+00 0.  1.
         21   -1    0    0  503  502 -0.00000000000E+00 -0.00000000000E+00 -0.64255125659E+01  0.64255125659E+01  0.00000000000E+00 0.  1.
          2    1    1    2  501    0 -0.22322029900E+02  0.38412415060E+02  0.12717167550E+04  0.12724925507E+04  0.00000000000E+00 0.  1.
         21    1    1    2  503  501  0.22322029900E+02 -0.38412415060E+02  0.75691128472E+02  0.87766357900E+02  0.00000000000E+00 0.  1.
</event>
<event>
 4    1  0.2134315E+005  0.2048469E+02  0.7546771E-02  0.1526751E+00
          2   -1    0    0  503    0  0.00000000000E+00  0.00000000000E+00  0.56455917062E+02  0.56455917062E+02  0.00000000000E+00 0. -1.
         21   -1    0    0  501  502 -0.00000000000E+00 -0.00000000000E+00 -0.30378544040E+03  0.30378544040E+03  0.00000000000E+00 0. -1.
          2    1    1    2  501    0 -0.20169642606E+02  0.35788486888E+01  0.54238755904E+02  0.57978144872E+02  0.00000000000E+00 0. -1.
         21    1    1    2  503  502  0.20169642606E+02 -0.35788486888E+01 -0.30156827924E+03  0.30226321259E+03  0.00000000000E+00 0. -1.
</event>
<event>
 4    1  0.2134315E+005  0.4214728E+02  0.7546771E-02  0.1336342E+00
          2   -1    0    0  502    0  0.00000000000E+00  0.00000000000E+00  0.39751553359E+01  0.39751553359E+01  0.00000000000E+00 0. -1.
         21   -1    0    0  503  502 -0.00000000000E+00 -0.00000000000E+00 -0.11696193670E+04  0.11696193670E+04  0.00000000000E+00 0. -1.
          2    1    1    2  501    0 -0.33865038925E+02  0.25090885643E+02 -0.12154863996E+03  0.12864861165E+03  0.00000000000E+00 0. -1.
         21    1    1    2  503  501  0.33865038925E+02 -0.25090885643E+02 -0.10440955717E+04  0.10449459107E+04  0.00000000000E+00 0. -1.
</event>
<event>
 4    1  0.2134315E+005  0.2788241E+02  0.7546771E-02  0.1438940E+00
          2   -1    0    0  503    0  0.00000000000E+00  0.00000000000E+00  0.22467893151E+03  0.22467893151E+03  0.00000000000E+00 0.  1.
         21   -1    0    0  501  502 -0.00000000000E+00 -0.00000000000E+00 -0.13802276498E+02  0.13802276498E+02  0.00000000000E+00 0. -1.
          2    1    1    2  501    0  0.13844862953E+02 -0.24202239611E+02  0.20865579133E+03  0.21051049354E+03  0.00000000000E+00 0.  1.
         21    1    1    2  503  502 -0.13844862953E+02  0.24202239611E+02  0.22208636768E+01  0.27970714468E+02  0.00000000000E+00 0. -1.
</event>
<event>
 4    1  0.2134315E+005  0.3080431E+02  0.7546771E-02  0.1412733E+00
          2   -1    0    0  502    0  0.00000000000E+00  0.00000000000E+00  0.44426460897E+02  0.44426460897E+02  0.00000000000E+00 0.  1.
         21   -1    0    0  503  502 -0.00000000000E+00 -0.00000000000E+00 -0.50952919030E+02  0.50952919030E+02  0.00000000000E+00 0.  1.
          2    1    1    2  501    0  0.25563552455E+02 -0.17187506040E+02  0.33081469639E+02  0.45202756680E+02  0.00000000000E+00 0.  1.
         21    1    1    2  503  501 -0.25563552455E+02  0.17187506040E+02 -0.39607927772E+02  0.50176623246E+02  0.00000000000E+00 0.  1.
</event>
<event>
 4    1  0.2134315E+005  0.2222342E+02  0.7546771E-02  0.1502487E+00
          2   -1    0    0  502    0  0.00000000000E+00  0.00000000000E+00  0.10792361743E+04  0.10792361743E+04  0.00000000000E+00 0. -1.
         21   -1    0    0  503  502 -0.00000000000E+00 -0.00000000000E+00 -0.35617915618E+01  0.35617915618E+01  0.00000000000E+00 0.  1.
          2    1    1    2  501    0 -0.96455186846E+01 -0.20021095202E+02  0.10432613869E+04  0.10434980603E+04  0.00000000000E+00 0. -1.
         21    1    1    2  503  501  0.96455186846E+01  0.20021095202E+02  0.32412995799E+02  0.39299905604E+02  0.00000000000E+00 0.  1.
</event>
<event>
 4    1  0.2134315E+005  0.3033165E+02  0.7546771E-02  0.1416736E+00
          2   -1    0    0  503    0  0.00000000000E+00  0.00000000000E+00  0.19327626418E+04  0.19327626418E+04  0.00000000000E+00 0. -1.
         21   -1    0    0  501  502 -0.00000000000E+00 -0.00000000000E+00 -0.35262982115E+01  0.35262982115E+01  0.00000000000E+00 0. -1.
          2    1    1    2  501    0 -0.23059418762E+01 -0.30243871262E+02  0.18650509195E+04  0.18652975477E+04  0.00000000000E+00 0. -1.
         21    1    1    2  503  502  0.23059418762E+01  0.30243871262E+02  0.64185424055E+02  0.70991392281E+02  0.00000000000E+00 0. -1.
</event>
<event>
 4    1  0.2134315E+005  0.3598952E+02  0.7546771E-02  0.1373737E+00
          2   -1    0    0  503    0  0.00000000000E+00  0.00000000000E+00  0.61240274807E+02  0.61240274807E+02  0.00000000000E+00 0.  1.
         21   -1    0    0  501  502 -0.00000000000E+00 -0.00000000000E+00 -0.29017976052E+02  0.29017976052E+02  0.00000000000E+00 0.  1.
          2    1    1    2  501    0 -0.12515457858E+02  0.33743274995E+02  0.39610117800E+02  0.53518284024E+02  0.00000000000E+00 0.  1.
         21    1    1    2  503  502  0.12515457858E+02 -0.33743274995E+02 -0.73878190439E+01  0.36739966835E+02  0.00000000000E+00 0.  1.
</event>
<event>
 4    1  0.2134315E+005  0.3646300E+02  0.7546771E-02  0.1370560E+00
          2   -1    0    0  502    0  0.00000000000E+00  0.00000000000E+00  0.24164668611E+02  0.24164668611E+02  0.00000000000E+00 0.  1.
         21   -1    0    0  503  502 -0.00000000000E+00 -0.00000000000E+00 -0.48510747702E+03  0.48510747702E+03  0.00000000000E+00 0.  1.
          2    1    1    2  501    0  0.17587145182E+02 -0.31941239287E+02  0.92899181688E+01  0.37627822451E+02  0.00000000000E+00 0.  1.
         21    1    1    2  503  501 -0.17587145182E+02  0.31941239287E+02 -0.47023272657E+03  0.47164432318E+03  0.00000000000E+00 0.  1.
</event>
<event>
 4    1  0.2134315E+005  0.5556670E+02  0.7546771E-02  0.1275688E+00
          2   -1    0    0  503    0  0.00000000000E+00  0.00000000000E+00  0.90177153165E+01  0.90177153165E+01  0.00000000000E+00 0. -1.
         21   -1    0    0  501  502 -0.00000000000E+00 -0.00000000000E+00 -0.10985409557E+04  0.10985409557E+04  0.00000000000E+00 0.  1.
          2    1    1    2  501    0  0.36721455981E+02  0.41703633040E+02 -0.85320104973E+02  0.10181934320E+03  0.00000000000E+00 0. -1.
         21    1    1    2  503  502 -0.36721455981E+02 -0.41703633040E+02 -0.10042031354E+04  0.10057393278E+04  0.00000000000E+00 0.  1.
</event>
<event>
 4    1  0.2134315E+005  0.2121523E+02  0.7546771E-02  0.1516214E+00
          2   -1    0    0  503    0  0.00000000000E+00  0.00000000000E+00  0.28697515584E+03  0.28697515584E+03  0.00000000000E+00 0. -1.
         21   -1    0    0  501  502 -0.00000000000E+00 -0.00000000000E+00 -0.19118364561E+01  0.19118364561E+01  0.00000000000E+00 0.  1.
          2    1    1    2  501    0 -0.20308291424E+02  0.61367308970E+01  0.20375377154E+03  0.20485527961E+03  0.00000000000E+00 0. -1.
         21    1    1    2  503  502  0.20308291424E+02 -0.61367308970E+01  0.81309547846E+02  0.84031712690E+02  0.00000000000E+00 0.  1.
</event>
<event>
 4    1  0.2134315E+005  0.2037507E+02  0.7546771E-02  0.1528377E+00
          2   -1    0    0  503    0  0.00000000000E+00  0.00000000000E+00  0.17811189270E+02  0.17811189270E+02  0.00000000000E+00 0.  1.
         21   -1    0    0  501  502 -0.00000000000E+00 -0.00000000000E+00 -0.44897324174E+02  0.44897324174E+02  0.00000000000E+00 0.  1.
          2    1    1    2  501    0  0.75785565271E+00 -0.20360967368E+02  0.81992447048E+01  0.21962944955E+02  0.00000000000E+00 0.  1.
         21    1    1    2  503  502 -0.75785565271E+00  0.20360967368E+02 -0.35285379609E+02  0.40745568489E+02  0.00000000000E+00 0.  1.
</event>
<event>
 4    1  0.2134315E+005  0.6266111E+02  0.7546771E-02  0.1251050E+00
          2   -1    0    0  503    0  0.00000000000E+00  0.00000000000E+00  0.16125489897E+03  0.16125489897E+03  0.00000000000E+00 0.  1.
         21   -1    0    0  501  502 -0.00000000000E+00 -0.00000000000E+00 -0.24908015110E+02  0.24908015110E+02  0.00000000000E+00 0. -1.
          2    1    1    2  501    0 -0.46637800120E+02  0.41848895351E+02  0.54230326080E+02  0.82869431692E+02  0.00000000000E+00 0.  1.
         21    1    1    2  503  502  0.46637800120E+02 -0.41848895351E+02  0.82116557776E+02  0.10329348238E+03  0.00000000000E+00 0. -1.
</event>
<event>
 4    1  0.2134315E+005  0.2276490E+02  0.7546771E-02  0.1495472E+00
          2   -1    0    0  502    0  0.00000000000E+00  0.00000000000E+00  0.29866948126E+02  0.29866948126E+02  0.00000000000E+00 0.  1.
         21   -1    0    0  503  502 -0.00000000000E+00 -0.00000000000E+00 -0.80663460917E+02  0.80663460917E+02  0.00000000000E+00 0. -1.
          2    1    1    2  501    0 -0.22764763855E+02  0.77879197598E-01  0.23563361149E+02  0.32763890599E+02  0.00000000000E+00 0.  1.
         21    1    1    2  503  501  0.22764763855E+02 -0.77879197598E-01 -0.74359873941E+02  0.77766518445E+02  0.00000000000E+00 0. -1.
</event>
<event>
 4    1  0.2134315E+005  0.2208150E+02  0.7546771E-02  0.1504365E+00
          2   -1    0    0  503    0  0.00000000000E+00  0.00000000000E+00  0.23500179571E+03  0.23500179571E+03  0.00000000000E+00 0.  1.
         21   -1    0    0  501  502 -0.00000000000E+00 -0.00000000000E+00 -0.25045707714E+01  0.25045707714E+01  0.00000000000E+00 0. -1.
          2    1    1    2  501    0  0.21539564782E+02 -0.48620823369E+01  0.16543823125E+03  0.16690536557E+03  0.00000000000E+00 0.  1.
         21    1    1    2  503  502 -0.21539564782E+02  0.48620823369E+01  0.67058993684E+02  0.70601000911E+02  0.00000000000E+00 0. -1.
</event>
<event>
 4    1  0.2134315E+005  0.2045734E+02  0.7546771E-02  0.1527155E+00
          2   -1    0    0  503    0  0.00000000000E+00  0.00000000000E+00  0.13171390439E+04  0.13171390439E+04  0.00000000000E+00 0.  1.
         21   -1    0    0  501  502 -0.00000000000E+00 -0.00000000000E+00 -0.58685050317E+02  0.58685050317E+02  0.00000000000E+00 0.  1.
          2    1    1    2  501    0  0.17134126370E+01  0.20385459848E+02  0.13152742485E+04  0.13154333322E+04  0.00000000000E+00 0.  1.
         21    1    1    2  503  502 -0.17134126370E+01 -0.20385459848E+02 -0.56820254957E+02  0.60390761954E+02  0.00000000000E+00 0.  1.
</event>
<event>
 4    1  0.2134315E+005  0.2439438E+02  0.7546771E-02  0.1475694E+00
          2   -1    0    0  503    0  0.00000000000E+00  0.00000000000E+00  0.18448888190E+03  0.18448888190E+03  0.00000000000E+00 0. -1.
         21   -1    0    0  501  502 -0.00000000000E+00 -0.00000000000E+00 -0.11062275198E+03  0.11062275198E+03  0.00000000000E+00 0.  1.
          2    1    1    2  501    0 -0.21569235481E+02  0.11395350568E+02  0.18232171480E+03  0.18394644226E+03  0.00000000000E+00 0. -1.
         21    1    1    2  503  502  0.21569235481E+02 -0.11395350568E+02 -0.10845558489E+03  0.11116519162E+03  0.00000000000E+00 0.  1.
</event>
<event>
 4    1  0.2134315E+005  0.2174332E+02  0.7546771E-02  0.1508911E+00
          2   -1    0    0  502    0  0.00000000000E+00  0.00000000000E+00  0.53885935636E+02  0.53885935636E+02  0.00000000000E+00 0. -1.
         21   -1    0    0  503  502 -0.00000000000E+00 -0.00000000000E+00 -0.22165347707E+02  0.22165347707E+02  0.00000000000E+00 0. -1.
          2    1    1    2  501    0  0.21460842409E+02 -0.34934312694E+01  0.45417164958E+02  0.50353656191E+02  0.00000000000E+00 0. -1.
         21    1    1    2  503  501 -0.21460842409E+02  0.34934312694E+01 -0.13696577029E+02  0.25697627152E+02  0.00000000000E+00 0. -1.
</event>
<event>
 4    1  0.2134315E+005  0.2232506E+02  0.7546771E-02  0.1501152E+00
          2   -1    0    0  502    0  0.00000000000E+00  0.00000000000E+00  0.72043572614E+02  0.72043572614E+02  0.00000000000E+00 0. -1.
         21   -1    0    0  503  502 -0.00000000000E+00 -0.00000000000E+00 -0.94099572750E+02  0.94099572750E+02  0.00000000000E+00 0.  1.
          2    1    1    2  501    0 -0.11948083009E+02 -0.18858730918E+02  0.68931593256E+02  0.72456697194E+02  0.00000000000E+00 0. -1.
         21    1    1    2  503  501  0.11948083009E+02  0.18858730918E+02 -0.90987593392E+02  0.93686448170E+02  0.00000000000E+00 0.  1.
</event>
<event>
 4    1  0.2134315E+005  0.2087293E+02  0.7546771E-02  0.1521087E+00
          2   -1    0    0  503    0  0.00000000000E+00  0.00000000000E+00  0.35506242398E+03  0.35506242398E+03  0.00000000000E+00 0. -1.
         21   -1    0    0  501  502 -0.00000000000E+00 -0.00000000000E+00 -0.34482479371E+02  0.34482479371E+02  0.00000000000E+00 0.  1.
          2    1    1    2  501    0 -0.19688991257E+02  0.69298493772E+01  0.35156557147E+03  0.35218465360E+03  0.00000000000E+00 0. -1.
         21    1    1    2  503  502  0.19688991257E+02 -0.69298493772E+01 -0.30985626863E+02  0.37360249747E+02  0.00000000000E+00 0.  1.
</event>
<event>
 4    1  0.2134315E+005  0.2074029E+02  0.7546771E-02  0.1523005E+00
          2   -1    0    0  502    0  0.00000000000E+00  0.00000000000E+00  0.14003496912E+04  0.14003496912E+04  0.00000000000E+00 0.  1.
         21   -1    0    0  503  502 -0.00000000000E+00 -0.00000000000E+00 -0.49545904156E+02  0.49545904156E+02  0.00000000000E+00 0.  1.
          2    1    1    2  501    0  0.33642652847E+00  0.20737560978E+02  0.13980988916E+04  0.13982527204E+04  0.00000000000E+00 0.  1.
         21    1    1    2  503  501 -0.33642652847E+00 -0.20737560978E+02 -0.47295104521E+02  0.51642874918E+02  0.00000000000E+00 0.  1.
</event>
<event>
 4    1  0.2134315E+005  0.2840051E+02  0.7546771E-02  0.1434025E+00
          2   -1    0    0  502    0  0.00000000000E+00  0.00000000000E+00  0.88345622651E+03  0.88345622651E+03  0.00000000000E+00 0.  1.
         21   -1    0    0  503  502 -0.00000000000E+00 -0.00000000000E+00 -0.93105767420E+01  0.93105767420E+01  0.00000000000E+00 0.  1.
          2    1    1    2  501    0 -0.17568849701E+02  0.22314227928E+02  0.86100552772E+03  0.86147379996E+03  0.00000000000E+00 0.  1.
         21    1    1    2  503  501  0.17568849701E+02 -0.22314227928E+02  0.13140122049E+02  0.31293003296E+02  0.00000000000E+00 0.  1.
</event>
<event>
 4    1  0.2134315E+005  0.2053958E+02  0.7546771E-02  0.1525941E+00
          2   -1    0    0  502    0  0.00000000000E+00  0.00000000000E+00  0.11099431557E+04  0.11099431557E+04  0.00000000000E+00 0. -1.
         21   -1    0    0  503  502 -0.00000000000E+00 -0.00000000000E+00 -0.50608856811E+01  0.50608856811E+01  0.00000000000E+00 0. -1.
          2    1    1    2  501    0  0.19188477669E+02  0.73264350521E+01  0.10885996286E+04  0.10887933806E+04  0.00000000000E+00 0. -1.
         21    1    1    2  503  501 -0.19188477669E+02 -0.73264350521E+01  0.16282641452E+02  0.26210660779E+02  0.00000000000E+00 0. -1.
</event>
<event>
 4    1  0.2134315E+005  0.3840850E+02  0.7546771E-02  0.1358073E+00
          2   -1    0    0  503    0  0.00000000000E+00  0.00000000000E+00  0.97507176979E+03  0.97507176979E+03  0.00000000000E+00 0.  1.
         21   -1    0    0  501  502 -0.00000000000E+00 -0.00000000000E+00 -0.15463432882E+01  0.15463432882E+01  0.00000000000E+00 0.  1.
          2    1    1    2  501    0 -0.33711809342E+02  0.18404540313E+02  0.55854473557E+03  0.55986376453E+03  0.00000000000E+00 0.  1.
         21    1    1    2  503  502  0.33711809342E+02 -0.18404540313E+02  0.41498069093E+03  0.41675434856E+03  0.00000000000E+00 0.  1.
</event>
<event>
 4    1  0.2134315E+005  0.2650650E+02  0.7546771E-02  0.1452629E+00
          2   -1    0    0  502    0  0.00000000000E+00  0.00000000000E+00  0.26780848126E+03  0.26780848126E+03  0.00000000000E+00 0. -1.
         21   -1    0    0  503  502 -0.00000000000E+00 -0.00000000000E+00 -0.83860473253E+01  0.83860473253E+01  0.00000000000E+00 0. -1.
          2    1    1    2  501    0  0.24974722574E+02 -0.88801895121E+01  0.24418705104E+03  0.24562147795E+03  0.00000000000E+00 0. -1.
         21    1    1    2  503  501 -0.24974722574E+02  0.88801895121E+01  0.15235382897E+02  0.30573050640E+02  0.00000000000E+00 0. -1.
</event>
<event>
 4    1  0.2134315E+005  0.2358027E+02  0.7546771E-02  0.1485337E+00
          2   -1    0    0  503    0  0.00000000000E+00  0.00000000000E+00  0.81211689165E+03  0.81211689165E+03  0.00000000000E+00 0. -1.
         21   -1    0    0  501  502 -0.00000000000E+00 -0.00000000000E+00 -0.24179571170E+01  0.24179571170E+01  0.00000000000E+00 0. -1.
          2    1    1    2  501    0  0.56287065462E+01  0.22898620252E+02  0.74966838366E+03  0.75003914205E+03  0.00000000000E+00 0. -1.
         21    1    1    2  503  502 -0.56287065462E+01 -0.22898620252E+02  0.60030550869E+02  0.64495706714E+02  0.00000000000E+00 0. -1.
</event>
<event>
 4    1  0.2134315E+005  0.2029113E+02  0.7546771E-02  0.1529631E+00
          2   -1    0    0  502    0  0.00000000000E+00  0.00000000000E+00  0.15100201195E+03  0.15100201195E+03  0.00000000000E+00 0. -1.
         21   -1    0    0  503  502 -0.00000000000E+00 -0.00000000000E+00 -0.21988611553E+02  0.21988611553E+02  0.00000000000E+00 0.  1.
          2    1    1    2  501    0  0.11282286825E+01 -0.20259742535E+02  0.14546173957E+03  0.14687017310E+03  0.00000000000E+00 0. -1.
         21    1    1    2  503  501 -0.11282286825E+01  0.20259742535E+02 -0.16448339176E+02  0.26120450402E+02  0.00000000000E+00 0.  1.
</event>
<event>
 4    1  0.2134315E+005  0.2707548E+02  0.7546771E-02  0.1446851E+00
          2   -1    0    0  503    0  0.00000000000E+00  0.00000000000E+00  0.10999023884E+02  0.10999023884E+02  0.00000000000E+00 0. -1.
         21   -1    0    0  501  502 -0.00000000000E+00 -0.00000000000E+00 -0.27199310469E+03  0.27199310469E+03  0.00000000000E+00 0. -1.
          2    1    1    2  501    0  0.69393864169E+01 -0.26171100502E+02 -0.75534766868E+01  0.28109368463E+02  0.00000000000E+00 0. -1.
         21    1    1    2  503  502 -0.69393864169E+01  0.26171100502E+02 -0.25344060411E+03  0.25488276011E+03  0.00000000000E+00 0. -1.
</event>
<event>
 4    1  0.2134315E+005  0.3018305E+02  0.7546771E-02  0.1418012E+00
          2   -1    0    0  503    0  0.00000000000E+00  0.00000000000E+00  0.11429553101E+04  0.11429553101E+04  0.00000000000E+00 0.  1.
         21   -1    0    0  501  502 -0.00000000000E+00 -0.00000000000E+00 -0.14023289720E+01  0.14023289720E+01  0.00000000000E+00 0.  1.
          2    1    1    2  501    0 -0.73268002571E+01  0.29280277983E+02  0.94668056801E+03  0.94716160951E+03  0.00000000000E+00 0.  1.
         21    1    1    2  503  502  0.73268002571E+01 -0.29280277983E+02  0.19487241311E+03  0.19719602956E+03  0.00000000000E+00 0.  1.
</event>
<event>
 4    1  0.2134315E+005  0.2853573E+02  0.7546771E-02  0.1432763E+00
          2   -1    0    0  502    0  0.00000000000E+00  0.00000000000E+00  0.73306144828E+03  0.73306144828E+03  0.00000000000E+00 0. -1.
         21   -1    0    0  503  502 -0.00000000000E+00 -0.00000000000E+00 -0.54527410705E+02  0.54527410705E+02  0.00000000000E+00 0.  1.
          2    1    1    2  501    0 -0.11264867070E+02 -0.26218139242E+02  0.72902971978E+03  0.72958797988E+03  0.00000000000E+00 0. -1.
         21    1    1    2  503  501  0.11264867070E+02  0.26218139242E+02 -0.50495682208E+02  0.58000879107E+02  0.00000000000E+00 0.  1.
</event>
<event>
 4    1  0.2134315E+005  0.4802278E+02  0.7546771E-02  0.1306980E+00
          2   -1    0    0  503    0  0.00000000000E+00  0.00000000000E+00  0.26482356639E+02  0.26482356639E+02  0.00000000000E+00 0. -1.
         21   -1    0    0  501  502 -0.00000000000E+00 -0.00000000000E+00 -0.30836173262E+03  0.30836173262E+03  0.00000000000E+00 0. -1.
          2    1    1    2  501    0  0.31820386199E+02  0.35967348890E+02  0.88484017666E+00  0.48030928641E+02  0.00000000000E+00 0. -1.
         21    1    1    2  503  502 -0.31820386199E+02 -0.35967348890E+02 -0.28276421616E+03  0.28681316062E+03  0.00000000000E+00 0. -1.
</event>
<event>
 4    1  0.2134315E+005  0.2561472E+02  0.7546771E-02  0.1462043E+00
          2   -1    0    0  502    0  0.00000000000E+00  0.00000000000E+00  0.39543513395E+03  0.39543513395E+03  0.00000000000E+00 0.  1.
         21   -1    0    0  503  502 -0.00000000000E+00 -0.00000000000E+00 -0.35991710677E+02  0.35991710677E+02  0.00000000000E+00 0.  1.
          2    1    1    2  501    0  0.25367385111E+02 -0.35510168784E+01  0.39040426776E+03  0.39124366606E+03  0.00000000000E+00 0.  1.
         21    1    1    2  503  501 -0.25367385111E+02  0.35510168784E+01 -0.30960844488E+02  0.40183178565E+02  0.00000000000E+00 0.  1.
</event>
<event>
 4    1  0.2134315E+005  0.3561812E+02  0.7546771E-02  0.1376269E+00
          2   -1    0    0  503    0  0.00000000000E+00  0.00000000000E+00  0.33422432965E+03  0.33422432965E+03  0.00000000000E+00 0. -1.
         21   -1    0    0  501  502 -0.00000000000E+00 -0.00000000000E+00 -0.17376927576E+02  0.17376927576E+02  0.00000000000E+00 0. -1.
          2    1    1    2  501    0  0.11423580483E+02  0.33736517820E+02  0.31384185328E+03  0.31585654923E+03  0.00000000000E+00 0. -1.
         21    1    1    2  503  502 -0.11423580483E+02 -0.33736517820E+02  0.30055487940E+01  0.35744707989E+02  0.00000000000E+00 0. -1.
</event>
<event>
 4    1  0.2134315E+005  0.3730622E+02  0.7546771E-02  0.1365038E+00
          2   -1    0    0  502    0  0.00000000000E+00  0.00000000000E+00  0.28533511909E+02  0.28533511909E+02  0.00000000000E+00 0. -1.
         21   -1    0    0  503  502 -0.00000000000E+00 -0.00000000000E+00 -0.92501757375E+02  0.92501757375E+02  0.00000000000E+00 0.  1.
          2    1    1    2  501    0 -0.33322996949E+02  0.16772954149E+02  0.96237016316E+01  0.38527519381E+02  0.00000000000E+00 0. -1.
         21    1    1    2  503  501  0.33322996949E+02 -0.16772954149E+02 -0.73591947098E+02  0.82507749904E+02  0.00000000000E+00 0.  1.
</event>
<event>
 4    1  0.2134315E+005  0.2954808E+02  0.7546771E-02  0.1423565E+00
          2   -1    0    0  503    0  0.00000000000E+00  0.00000000000E+00  0.90689384151E+03  0.90689384151E+03  0.00000000000E+00 0. -1.
         21   -1    0    0  501  502 -0.00000000000E+00 -0.00000000000E+00 -0.13303886379E+01  0.13303886379E+01  0.00000000000E+00 0. -1.
          2    1    1    2  501    0  0.27696944279E+02 -0.10294099835E+02  0.69150747781E+03  0.69213848403E+03  0.00000000000E+00 0. -1.
         21    1    1    2  503  502 -0.27696944279E+02  0.10294099835E+02  0.21405597506E+03  0.21608574611E+03  0.00000000000E+00 0. -1.
</event>
<event>
 4    1  0.2134315E+005  0.4582424E+02  0.7546771E-02  0.1317369E+00
          2   -1    0    0  503    0  0.00000000000E+00  0.00000000000E+00  0.19173144301E+03  0.19173144301E+03  0.00000000000E+00 0.  1.
         21   -1    0    0  501  502 -0.00000000000E+00 -0.00000000000E+00 -0.11564289082E+03  0.11564289082E+03  0.00000000000E+00 0.  1.
          2    1    1    2  501    0  0.94017797745E+01 -0.44849389930E+02  0.18427289655E+03  0.18988512750E+03  0.00000000000E+00 0.  1.
         21    1    1    2  503  502 -0.94017797745E+01  0.44849389930E+02 -0.10818434436E+03  0.11748920634E+03  0.00000000000E+00 0.  1.
</event>
<event>
 4    1  0.2134315E+005  0.2303812E+02  0.7546771E-02  0.1492020E+00
          2   -1    0    0  502    0  0.00000000000E+00  0.00000000000E+00  0.51370471625E+02  0.51370471625E+02  0.00000000000E+00 0.  1.
         21   -1    0    0  503  502 -0.00000000000E+00 -0.00000000000E+00 -0.18864453226E+02  0.18864453226E+02  0.00000000000E+00 0. -1.
          2    1    1    2  501    0 -0.22144583049E+01 -0.22931445811E+02  0.39870855510E+02  0.46048237226E+02  0.00000000000E+00 0.  1.
         21    1    1    2  503  501  0.22144583049E+01  0.22931445811E+02 -0.73648371099E+01  0.24186687624E+02  0.00000000000E+00 0. -1.
</event>
<event>
 4    1  0.2134315E+005  0.2544101E+02  0.7546771E-02  0.1463930E+00
          2   -1    0    0  503    0  0.00000000000E+00  0.00000000000E+00  0.19652598055E+03  0.19652598055E+03  0.00000000000E+00 0. -1.
         21   -1    0    0  501  502 -0.00000000000E+00 -0.00000000000E+00 -0.73512134718E+02  0.73512134718E+02  0.00000000000E+00 0.  1.
          2    1    1    2  501    0  0.25338987214E+02  0.22760810997E+01  0.19346681699E+03  0.19513240145E+03  0.00000000000E+00 0. -1.
         21    1    1    2  503  502 -0.25338987214E+02 -0.22760810997E+01 -0.70452971158E+02  0.74905713822E+02  0.00000000000E+00 0.  1.
</event>
<event>
 4    1  0.2134315E+005  0.2511814E+02  0.7546771E-02  0.1467486E+00
          2   -1    0    0  502    0  0.00000000000E+00  0.00000000000E+00  0.14700925968E+04  0.14700925968E+04  0.00000000000E+00 0. -1.
         21   -1    0    0  503  502 -0.00000000000E+00 -0.00000000000E+00 -0.49020312406E+02  0.49020312406E+02  0.00000000000E+00 0.  1.
          2    1    1    2  501    0  0.17591143415E+01  0.25056470663E+02  0.14667603427E+04  0.14669753999E+04  0.00000000000E+00 0. -1.
         21    1    1    2  503  501 -0.17591143415E+01 -0.25056470663E+02 -0.45688058265E+02  0.52137509275E+02  0.00000000000E+00 0.  1.
</event>
<event>
 4    1  0.2134315E+005  0.3112653E+02  0.7546771E-02  0.1410053E+00
          2   -1    0    0  503    0  0.00000000000E+00  0.00000000000E+00  0.50847601931E+02  0.50847601931E+02  0.00000000000E+00 0.  1.
         21   -1    0    0  501  502 -0.00000000000E+00 -0.00000000000E+00 -0.77616371778E+02  0.77616371778E+02  0.00000000000E+00 0. -1.
          2    1    1    2  501    0  0.25728988861E+02  0.17517996707E+02  0.42409065896E+02  0.52605987745E+02  0.00000000000E+00 0.  1.
         21    1    1    2  503  502 -0.25728988861E+02 -0.17517996707E+02 -0.69177835743E+02  0.75857985964E+02  0.00000000000E+00 0. -1.
</event>
<event>
 4    1  0.2134315E+005  0.2474917E+02  0.7546771E-02  0.1471629E+00
          2   -1    0    0  503    0  0.00000000000E+00  0.00000000000E+00  0.63371910970E+03  0.63371910970E+03  0.00000000000E+00 0.  1.
         21   -1    0    0  501  502 -0.00000000000E+00 -0.00000000000E+00 -0.70892776207E+01  0.70892776207E+01  0.00000000000E+00 0. -1.
          2    1    1    2  501    0  0.39949506332E+01 -0.24424618128E+02  0.61107717288E+03  0.61157814939E+03  0.00000000000E+00 0.  1.
         21    1    1    2  503  502 -0.39949506332E+01  0.24424618128E+02  0.15552659206E+02  0.29230237934E+02  0.00000000000E+00 0. -1.
</event>
<event>
 4    1  0.2134315E+005  0.3551959E+02  0.7546771E-02  0.1376947E+00
          2   -1    0    0  503    0  0.00000000000E+00  0.00000000000E+00  0.11626914277E+04  0.11626914277E+04  0.00000000000E+00 0.  1.
         21   -1    0    0  501  502 -0.00000000000E+00 -0.00000000000E+00 -0.40173884054E+01  0.40173884054E+01  0.00000000000E+00 0. -1.
          2    1    1    2  501    0 -0.32675129119E+02 -0.13927568950E+02  0.10777204680E+04  0.10783056377E+04  0.00000000000E+00 0.  1.
         21    1    1    2  503  502  0.32675129119E+02  0.13927568950E+02  0.80953571318E+02  0.88403178387E+02  0.00000000000E+00 0. -1.
</event>
<event>
 4    1  0.2134315E+005  0.2660843E+02  0.7546771E-02  0.1451582E+00
          2   -1    0    0  503    0  0.00000000000E+00  0.00000000000E+00  0.17043454660E+03  0.17043454660E+03  0.00000000000E+00 0.  1.
         21   -1    0    0  501  502 -0.00000000000E+00 -0.00000000000E+00 -0.30502561414E+02  0.30502561414E+02  0.00000000000E+00 0.  1.
          2    1    1    2  501    0  0.16500513230E+02 -0.20874429717E+02  0.16334286156E+03  0.16549591891E+03  0.00000000000E+00 0.  1.
         21    1    1    2  503  502 -0.16500513230E+02  0.20874429717E+02 -0.23410876371E+02  0.35441189107E+02  0.00000000000E+00 0.  1.
</event>
<event>
 4    1  0.2134315E+005  0.2267977E+02  0.7546771E-02  0.1496559E+00
          2   -1    0    0  503    0  0.00000000000E+00  0.00000000000E+00  0.18601944889E+02  0.18601944889E+02  0.00000000000E+00 0.  1.
         21   -1    0    0  501  502 -0.00000000000E+00 -0.00000000000E+00 -0.32178941520E+02  0.32178941520E+02  0.00000000000E+00 0.  1.
          2    1    1    2  501    0  0.10750817823E+02 -0.19969772875E+02  0.27353008233E+01  0.22844119224E+02  0.00000000000E+00 0.  1.
         21    1    1    2  503  502 -0.10750817823E+02  0.19969772875E+02 -0.16312297454E+02  0.27936767185E+02  0.00000000000E+00 0.  1.
</event>
<event>
 4    1  0.2134315E+005  0.2368823E+02  0.7546771E-02  0.1484032E+00
          2   -1    0    0  503    0  0.00000000000E+00  0.00000000000E+00  0.65234431469E+01  0.65234431469E+01  0.00000000000E+00 0. -1.
         21   -1    0    0  501  502 -0.00000000000E+00 -0.00000000000E+00 -0.10635235027E+03  0.10635235027E+03  0.00000000000E+00 0. -1.
          2    1    1    2  501    0  0.18626848750E+02  0.14634635219E+02 -0.25236174885E+02  0.34612086981E+02  0.00000000000E+00 0. -1.
         21    1    1    2  503  502 -0.18626848750E+02 -0.14634635219E+02 -0.74592732235E+02  0.78263706433E+02  0.00000000000E+00 0. -1.
</event>
<event>
 4    1  0.2134315E+005  0.2156577E+02  0.7546771E-02  0.1511338E+00
          2   -1    0    0  503    0  0.00000000000E+00  0.00000000000E+00  0.12444611885E+04  0.12444611885E+04  0.00000000000E+00 0. -1.
         21   -1    0    0  501  502 -0.00000000000E+00 -0.00000000000E+00 -0.85792819176E+01  0.85792819176E+01  0.00000000000E+00 0. -1.
          2    1    1    2  501    0 -0.10357503718E+02 -0.18915723240E+02  0.12306633347E+04  0.12308522762E+04  0.00000000000E+00 0. -1.
         21    1    1    2  503  502  0.10357503718E+02  0.18915723240E+02  0.52185718570E+01  0.22188194185E+02  0.00000000000E+00 0. -1.
</event>
<event>
 4    1  0.2134315E+005  0.2026869E+02  0.7546771E-02  0.1529967E+00
          2   -1    0    0  503    0  0.00000000000E+00  0.00000000000E+00  0.13716310854E+04  0.13716310854E+04  0.00000000000E+00 0. -1.
         21   -1    0    0  501  502 -0.00000000000E+00 -0.00000000000E+00 -0.36413584081E+00  0.36413584081E+00  0.00000000000E+00 0.  1.
          2    1    1    2  501    0  0.18504094114E+02 -0.82715420068E+01  0.97462654441E+03  0.97483727923E+03  0.00000000000E+00 0. -1.
         21    1    1    2  503  502 -0.18504094114E+02  0.82715420068E+01  0.39664040518E+03  0.39715794204E+03  0.00000000000E+00 0.  1.
</event>
<event>
 4    1  0.2134315E+005  0.3360253E+02  0.7546771E-02  0.1390663E+00
          2   -1    0    0  503    0  0.00000000000E+00  0.00000000000E+00  0.30837995930E+03  0.30837995930E+03  0.00000000000E+00 0.  1.
         21   -1    0    0  501  502 -0.00000000000E+00 -0.00000000000E+00 -0.99136348002E+01  0.99136348002E+01  0.00000000000E+00 0.  1.
          2    1    1    2  501    0 -0.32720467731E+02 -0.76486004559E+01  0.27561828738E+03  0.27765909031E+03  0.00000000000E+00 0.  1.
         21    1    1    2  503  502  0.32720467731E+02  0.76486004559E+01  0.22848037119E+02  0.40634503782E+02  0.00000000000E+00 0.  1.
</event>
<event>
 4    1  0.2134315E+005  0.2859397E+02  0.7546771E-02  0.1432222E+00
          2   -1    0    0  502    0  0.00000000000E+00  0.00000000000E+00  0.53304753072E+03  0.53304753072E+03  0.00000000000E+00 0. -1.
         21   -1    0    0  503  502 -0.00000000000E+00 -0.00000000000E+00 -0.10810713277E+02  0.10810713277E+02  0.00000000000E+00 0. -1.
          2    1    1    2  501    0 -0.27730822006E+02 -0.69725454797E+01  0.51301896537E+03  0.51381521358E+03  0.00000000000E+00 0. -1.
         21    1    1    2  503  501  0.27730822006E+02  0.69725454797E+01  0.92178520719E+01  0.30043030413E+02  0.00000000000E+00 0. -1.
</event>
<event>
 4    1  0.2134315E+005  0.2524849E+02  0.7546771E-02  0.1466043E+00
          2   -1    0    0  502    0  0.00000000000E+00  0.00000000000E+00  0.13705133327E+03  0.13705133327E+03  0.00000000000E+00 0.  1.
         21   -1    0    0  503  502 -0.00000000000E+00 -0.00000000000E+00 -0.10589991481E+02  0.10589991481E+02  0.00000000000E+00 0.  1.
          2    1    1    2  501    0  0.24130630259E+02  0.74296007003E+01  0.11851096359E+03  0.12117068447E+03  0.00000000000E+00 0.  1.
         21    1    1    2  503  501 -0.24130630259E+02 -0.74296007003E+01  0.79503781926E+01  0.26470640277E+02  0.00000000000E+00 0.  1.
</event>
<event>
 4    1  0.2134315E+005  0.3279268E+02  0.7546771E-02  0.1396783E+00
          2   -1    0    0  503    0  0.00000000000E+00  0.00000000000E+00  0.14128701696E+02  0.14128701696E+02  0.00000000000E+00 0.  1.
         21   -1    0    0  501  502 -0.00000000000E+00 -0.00000000000E+00 -0.11408503627E+03  0.11408503627E+03  0.00000000000E+00 0. -1.
          2    1    1    2  501    0 -0.16793894757E+02  0.28166028264E+02 -0.12992847250E+02  0.35272852577E+02  0.00000000000E+00 0.  1.
         21    1    1    2  503  502  0.16793894757E+02 -0.28166028264E+02 -0.86963487319E+02  0.92940885384E+02  0.00000000000E+00 0. -1.
</event>
<event>
 4    1  0.2134315E+005  0.2926227E+02  0.7546771E-02  0.1426117E+00
          2   -1    0    0  503    0  0.00000000000E+00  0.00000000000E+00  0.86822355550E+03  0.86822355550E+03  0.00000000000E+00 0.  1.
         21   -1    0    0  501  502 -0.00000000000E+00 -0.00000000000E+00 -0.90998060703E+02  0.90998060703E+02  0.00000000000E+00 0. -1.
          2    1    1    2  501    0 -0.24652074979E+02  0.15765649011E+02  0.86561744484E+03  0.86611191037E+03  0.00000000000E+00 0.  1.
         21    1    1    2  503  502  0.24652074979E+02 -0.15765649011E+02 -0.88391950034E+02  0.93109705833E+02  0.00000000000E+00 0. -1.
</event>
<event>
 4    1  0.2134315E+005  0.2905154E+02  0.7546771E-02  0.1428021E+00
          2   -1    0    0  503    0  0.00000000000E+00  0.00000000000E+00  0.10612588112E+04  0.10612588112E+04  0.00000000000E+00 0. -1.
         21   -1    0    0  501  502 -0.00000000000E+00 -0.00000000000E+00 -0.80157469175E+00  0.80157469175E+00  0.00000000000E+00 0. -1.
          2    1    1    2  501    0 -0.26021429611E+02  0.12918084114E+02  0.48314863969E+03  0.48402128025E+03  0.00000000000E+00 0. -1.
         21    1    1    2  503  502  0.26021429611E+02 -0.12918084114E+02  0.57730859685E+03  0.57803910568E+03  0.00000000000E+00 0. -1.
</event>
<event>
 4    1  0.2134315E+005  0.2190122E+02  0.7546771E-02  0.1506777E+00
          2   -1    0    0  502    0  0.00000000000E+00  0.00000000000E+00  0.89155105717E+03  0.89155105717E+03  0.00000000000E+00 0. -1.
         21   -1    0    0  503  502 -0.00000000000E+00 -0.00000000000E+00 -0.54946509972E+01  0.54946509972E+01  0.00000000000E+00 0. -1.
          2    1    1    2  501    0 -0.20124266015E+02  0.86416011518E+01  0.86902688426E+03  0.86930281773E+03  0.00000000000E+00 0. -1.
         21    1    1    2  503  501  0.20124266015E+02 -0.86416011518E+01  0.17029521916E+02  0.27742890437E+02  0.00000000000E+00 0. -1.
</event>
<event>
 4    1  0.2134315E+005  0.4011943E+02  0.7546771E-02  0.1347787E+00
          2   -1    0    0  503    0  0.00000000000E+00  0.00000000000E+00  0.52846660828E+03  0.52846660828E+03  0.00000000000E+00 0.  1.
         21   -1    0    0  501  502 -0.00000000000E+00 -0.00000000000E+00 -0.90467666922E+01  0.90467666922E+01  0.00000000000E+00 0.  1.
          2    1    1    2  501    0 -0.33737912552E+02 -0.21709953234E+02  0.47859974587E+03  0.48027834176E+03  0.00000000000E+00 0.  1.
         21    1    1    2  503  502  0.33737912552E+02  0.21709953234E+02  0.40820095715E+02  0.57235033214E+02  0.00000000000E+00 0.  1.
</event>
<event>
 4    1  0.2134315E+005  0.3665217E+02  0.7546771E-02  0.1369306E+00
          2   -1    0    0  502    0  0.00000000000E+00  0.00000000000E+00  0.13164429192E+04  0.13164429192E+04  0.00000000000E+00 0.  1.
         21   -1    0    0  503  502 -0.00000000000E+00 -0.00000000000E+00 -0.13242626452E+02  0.13242626452E+02  0.00000000000E+00 0. -1.
          2    1    1    2  501    0  0.33068207670E+02 -0.15807448551E+02  0.12903133952E+04  0.12908338544E+04  0.00000000000E+00 0.  1.
         21    1    1    2  503  501 -0.33068207670E+02  0.15807448551E+02  0.12886897588E+02  0.38851691310E+02  0.00000000000E+00 0. -1.
</event>
<event>
 4    1  0.2134315E+005  0.2294270E+02  0.7546771E-02  0.1493219E+00
          2   -1    0    0  503    0  0.00000000000E+00  0.00000000000E+00  0.34036565189E+02  0.34036565189E+02  0.00000000000E+00 0. -1.
         21   -1    0    0  501  502 -0.00000000000E+00 -0.00000000000E+00 -0.50464805337E+02  0.50464805337E+02  0.00000000000E+00 0. -1.
          2    1    1    2  501    0 -0.12887417492E+02  0.18981091598E+02  0.26972191920E+02  0.35409977476E+02  0.00000000000E+00 0. -1.
         21    1    1    2  503  502  0.12887417492E+02 -0.18981091598E+02 -0.43400432068E+02  0.49091393050E+02  0.00000000000E+00 0. -1.
</event>
<event>
 4    1  0.2134315E+005  0.2100660E+02  0.7546771E-02  0.1519170E+00
          2   -1    0    0  503    0  0.00000000000E+00  0.00000000000E+00  0.33399776655E+03  0.33399776655E+03  0.00000000000E+00 0. -1.
         21   -1    0    0  501  502 -0.00000000000E+00 -0.00000000000E+00 -0.29895211766E+01  0.29895211766E+01  0.00000000000E+00 0.  1.
          2    1    1    2  501    0 -0.30306612038E+00  0.21004418628E+02  0.29137425591E+03  0.29213050929E+03  0.00000000000E+00 0. -1.
         21    1    1    2  503  502  0.30306612038E+00 -0.21004418628E+02  0.39633989466E+02  0.44856778439E+02  0.00000000000E+00 0.  1.
</event>
<event>
 4    1  0.2134315E+005  0.2119039E+02  0.7546771E-02  0.1516564E+00
          2   -1    0    0  502    0  0.00000000000E+00  0.00000000000E+00  0.11854604371E+03  0.11854604371E+03  0.00000000000E+00 0.  1.
         21   -1    0    0  503  502 -0.00000000000E+00 -0.00000000000E+00 -0.17367554268E+02  0.17367554268E+02  0.00000000000E+00 0.  1.
          2    1    1    2  501    0  0.21190128079E+02  0.10489391733E+00  0.11068018795E+03  0.11269044563E+03  0.00000000000E+00 0.  1.
         21    1    1    2  503  501 -0.21190128079E+02 -0.10489391733E+00 -0.95016985060E+01  0.23223152353E+02  0.00000000000E+00 0.  1.
</event>
<event>
 4    1  0.2134315E+005  0.2091687E+02  0.7546771E-02  0.1520455E+00
          2   -1    0    0  502    0  0.00000000000E+00  0.00000000000E+00  0.86182509583E+02  0.86182509583E+02  0.00000000000E+00 0. -1.
         21   -1    0    0  503  502 -0.00000000000E+00 -0.00000000000E+00 -0.34984130701E+02  0.34984130701E+02  0.00000000000E+00 0.  1.
          2    1    1    2  501    0  0.19191172165E+02 -0.83195266236E+01  0.81614620245E+02  0.84252369996E+02  0.00000000000E+00 0. -1.
         21    1    1    2  503  501 -0.19191172165E+02  0.83195266236E+01 -0.30416241362E+02  0.36914270288E+02  0.00000000000E+00 0.  1.
</event>
<event>
 4    1  0.2134315E+005  0.4181605E+02  0.7546771E-02  0.1338160E+00
          2   -1    0    0  502    0  0.00000000000E+00  0.00000000000E+00  0.13074266669E+04  0.13074266669E+04  0.00000000000E+00 0.  1.
         21   -1    0    0  503  502 -0.00000000000E+00 -0.00000000000E+00 -0.10135435269E+02  0.10135435269E+02  0.00000000000E+00 0.  1.
          2    1    1    2  501    0  0.28557126092E+02 -0.30546232581E+02  0.12624248512E+04  0.12631172102E+04  0.00000000000E+00 0.  1.
         21    1    1    2  503  501 -0.28557126092E+02  0.30546232581E+02  0.34866380390E+02  0.54444891928E+02  0.00000000000E+00 0.  1.
</event>
<event>
 4    1  0.2134315E+005  0.2728050E+02  0.7546771E-02  0.1444811E+00
          2   -1    0    0  503    0  0.00000000000E+00  0.00000000000E+00  0.51465010440E+03  0.51465010440E+03  0.00000000000E+00 0.  1.
         21   -1    0    0  501  502 -0.00000000000E+00 -0.00000000000E+00 -0.12714015021E+02  0.12714015021E+02  0.00000000000E+00 0. -1.
          2    1    1    2  501    0  0.26894580213E+02 -0.45724227253E+01  0.49920210965E+03  0.49994696896E+03  0.00000000000E+00 0.  1.
         21    1    1    2  503  502 -0.26894580213E+02  0.45724227253E+01  0.27339797341E+01  0.27417150465E+02  0.00000000000E+00 0. -1.
</event>
<event>
 4    1  0.2134315E+005  0.2141743E+02  0.7546771E-02  0.1513388E+00
          2   -1    0    0  502    0  0.00000000000E+00  0.00000000000E+00  0.44759137474E+03  0.44759137474E+03  0.00000000000E+00 0.  1.
         21   -1    0    0  503  502 -0.00000000000E+00 -0.00000000000E+00 -0.13495553529E+01  0.13495553529E+01  0.00000000000E+00 0. -1.
          2    1    1    2  501    0 -0.21012982092E+02  0.41425552516E+01  0.33322926938E+03  0.33391683419E+03  0.00000000000E+00 0.  1.
         21    1    1    2  503  501  0.21012982092E+02 -0.41425552516E+01  0.11301255000E+03  0.11502409590E+03  0.00000000000E+00 0. -1.
</event>
<event>
 4    1  0.2134315E+005  0.3537798E+02  0.7546771E-02  0.1377925E+00
          2   -1    0    0  503    0  0.00000000000E+00  0.00000000000E+00  0.45498665355E+03  0.45498665355E+03  0.00000000000E+00 0.  1.
         21   -1    0    0  501  502 -0.00000000000E+00 -0.00000000000E+00 -0.54240238922E+01  0.54240238922E+01  0.00000000000E+00 0.  1.
          2    1    1    2  501    0  0.21654722900E+01  0.35311646379E+02  0.38639119687E+03  0.38800742088E+03  0.00000000000E+00 0.  1.
         21    1    1    2  503  502 -0.21654722900E+01 -0.35311646379E+02  0.63171432789E+02  0.72403256562E+02  0.00000000000E+00 0.  1.
</event>
<event>
 4    1  0.2134315E+005  0.2556511E+02  0.7546771E-02  0.1462580E+00
          2   -1    0    0  503    0  0.00000000000E+00  0.00000000000E+00  0.17590506062E+02  0.17590506062E+02  0.00000000000E+00 0.  1.
         21   -1    0    0  501  502 -0.00000000000E+00 -0.00000000000E+00 -0.43628521533E+02  0.43628521533E+02  0.00000000000E+00 0.  1.
          2    1    1    2  501    0  0.76799459566E+01 -0.24384280517E+02 -0.12282280657E+01  0.25594594164E+02  0.00000000000E+00 0.  1.
         21    1    1    2  503  502 -0.76799459566E+01  0.24384280517E+02 -0.24809787406E+02  0.35624433432E+02  0.00000000000E+00 0.  1.
</event>
<event>
 4    1  0.2134315E+005  0.2393329E+02  0.7546771E-02  0.1481100E+00
          2   -1    0    0  502    0  0.00000000000E+00  0.00000000000E+00  0.15979420873E+03  0.15979420873E+03  0.00000000000E+00 0.  1.
         21   -1    0    0  503  502 -0.00000000000E+00 -0.00000000000E+00 -0.18400211526E+02  0.18400211526E+02  0.00000000000E+00 0. -1.
          2    1    1    2  501    0  0.23075810286E+02 -0.63489601795E+01  0.15064583036E+03  0.15253513864E+03  0.00000000000E+00 0.  1.
         21    1    1    2  503  501 -0.23075810286E+02  0.63489601795E+01 -0.92518331626E+01  0.25659281607E+02  0.00000000000E+00 0. -1.
</event>
<event>
 4    1  0.2134315E+005  0.2093211E+02  0.7546771E-02  0.1520236E+00
          2   -1    0    0  503    0  0.00000000000E+00  0.00000000000E+00  0.79587340195E+03  0.79587340195E+03  0.00000000000E+00 0.  1.
         21   -1    0    0  501  502 -0.00000000000E+00 -0.00000000000E+00 -0.55212034748E+00  0.55212034748E+00  0.00000000000E+00 0.  1.
          2    1    1    2  501    0 -0.15162940173E+02 -0.14430466062E+02  0.37629646414E+03  0.37687820583E+03  0.00000000000E+00 0.  1.
         21    1    1    2  503  502  0.15162940173E+02  0.14430466062E+02  0.41902481746E+03  0.41954731647E+03  0.00000000000E+00 0.  1.
</event>
<event>
 4    1  0.2134315E+005  0.2722056E+02  0.7546771E-02  0.1445405E+00
          2   -1    0    0  503    0  0.00000000000E+00  0.00000000000E+00  0.55907569282E+03  0.55907569282E+03  0.00000000000E+00 0. -1.
         21   -1    0    0  501  502 -0.00000000000E+00 -0.00000000000E+00 -0.21134725535E+01  0.21134725535E+01  0.00000000000E+00 0. -1.
          2    1    1    2  501    0 -0.87220080271E+01 -0.25785368412E+02  0.44983103800E+03  0.45065388203E+03  0.00000000000E+00 0. -1.
         21    1    1    2  503  502  0.87220080271E+01  0.25785368412E+02  0.10713118227E+03  0.11053528334E+03  0.00000000000E+00 0. -1.
</event>
<event>
 4    1  0.2134315E+005  0.3755346E+02  0.7546771E-02  0.1363451E+00
          2   -1    0    0  503    0  0.00000000000E+00  0.00000000000E+00  0.11378387017E+04  0.11378387017E+04  0.00000000000E+00 0. -1.
         21   -1    0    0  501  502 -0.00000000000E+00 -0.00000000000E+00 -0.12889213684E+01  0.12889213684E+01  0.00000000000E+00 0. -1.
          2    1    1    2  501    0  0.31006594302E+02 -0.21186168137E+02  0.45665852339E+03  0.45820003229E+03  0.00000000000E+00 0. -1.
         21    1    1    2  503  502 -0.31006594302E+02  0.21186168137E+02  0.67989125696E+03  0.68092759079E+03  0.00000000000E+00 0. -1.
</event>
<event>
 4    1  0.2134315E+005  0.3059777E+02  0.7546771E-02  0.1414472E+00
          2   -1    0    0  502    0  0.00000000000E+00  0.00000000000E+00  0.23492131180E+03  0.23492131180E+03  0.00000000000E+00 0.  1.
         21   -1    0    0  503  502 -0.00000000000E+00 -0.00000000000E+00 -0.21854780181E+03  0.21854780181E+03  0.00000000000E+00 0.  1.
          2    1    1    2  501    0 -0.14654607407E+02  0.26860116886E+02  0.23284452512E+03  0.23484632481E+03  0.00000000000E+00 0.  1.
         21    1    1    2  503  501  0.14654607407E+02 -0.26860116886E+02 -0.21647101513E+03  0.21862278881E+03  0.00000000000E+00 0.  1.
</event>
<event>
 4    1  0.2134315E+005  0.4767719E+02  0.7546771E-02  0.1308570E+00
          2   -1    0    0  503    0  0.00000000000E+00  0.00000000000E+00  0.11139060954E+04  0.11139060954E+04  0.00000000000E+00 0. -1.
         21   -1    0    0  501  502 -0.00000000000E+00 -0.00000000000E+00 -0.22290348641E+02  0.22290348641E+02  0.00000000000E+00 0.  1.
          2    1    1    2  501    0  0.47630824885E+02 -0.21021852698E+01  0.10872774599E+04  0.10883222820E+04  0.00000000000E+00 0. -1.
         21    1    1    2  503  502 -0.47630824885E+02  0.21021852698E+01  0.43382868894E+01  0.47874162084E+02  0.00000000000E+00 0.  1.
</event>
<event>
 4    1  0.2134315E+005  0.3147043E+02  0.7546771E-02  0.1407235E+00
          2   -1    0    0  502    0  0.00000000000E+00  0.00000000000E+00  0.59296308857E+02  0.59296308857E+02  0.00000000000E+00 0. -1.
         21   -1    0    0  503  502 -0.00000000000E+00 -0.00000000000E+00 -0.52716787582E+02  0.52716787582E+02  0.00000000000E+00 0. -1.
          2    1    1    2  501    0  0.19987887396E+02 -0.24307866831E+02  0.49581406652E+02  0.58725666603E+02  0.00000000000E+00 0. -1.
         21    1    1    2  503  501 -0.19987887396E+02  0.24307866831E+02 -0.43001885378E+02  0.53287429835E+02  0.00000000000E+00 0. -1.
</event>
<event>
 4    1  0.2134315E+005  0.2712487E+02  0.7546771E-02  0.1446358E+00
          2   -1    0    0  502    0  0.00000000000E+00  0.00000000000E+00  0.66037129612E+02  0.66037129612E+02  0.00000000000E+00 0. -1.
         21   -1    0    0  503  502 -0.00000000000E+00 -0.00000000000E+00 -0.28491329569E+02  0.28491329569E+02  0.00000000000E+00 0.  1.
          2    1    1    2  501    0  0.14012548197E+02  0.23225135707E+02  0.55655602955E+02  0.61913686499E+02  0.00000000000E+00 0. -1.
         21    1    1    2  503  501 -0.14012548197E+02 -0.23225135707E+02 -0.18109802912E+02  0.32614772682E+02  0.00000000000E+00 0.  1.
</event>
<event>
 4    1  0.2134315E+005  0.2256051E+02  0.7546771E-02  0.1498092E+00
          2   -1    0    0  503    0  0.00000000000E+00  0.00000000000E+00  0.26169633513E+02  0.26169633513E+02  0.00000000000E+00 0. -1.
         21   -1    0    0  501  502 -0.00000000000E+00 -0.00000000000E+00 -0.27048558384E+02  0.27048558384E+02  0.00000000000E+00 0. -1.
          2    1    1    2  501    0 -0.22408747154E+02  0.26124105976E+01  0.13664738422E+02  0.26376158066E+02  0.00000000000E+00 0. -1.
         21    1    1    2  503  502  0.22408747154E+02 -0.26124105976E+01 -0.14543663294E+02  0.26842033830E+02  0.00000000000E+00 0. -1.
</event>
<event>
 4    1  0.2134315E+005  0.2407259E+02  0.7546771E-02  0.1479452E+00
          2   -1    0    0  502    0  0.00000000000E+00  0.00000000000E+00  0.11208816559E+03  0.11208816559E+03  0.00000000000E+00 0. -1.
         21   -1    0    0  503  502 -0.00000000000E+00 -0.00000000000E+00 -0.42334103346E+02  0.42334103346E+02  0.00000000000E+00 0.  1.
          2    1    1    2  501    0 -0.14099441822E+01  0.24031268084E+02  0.10722009442E+03  0.10988920982E+03  0.00000000000E+00 0. -1.
         21    1    1    2  503  501  0.14099441822E+01 -0.24031268084E+02 -0.37466032167E+02  0.44533059121E+02  0.00000000000E+00 0.  1.
</event>
<event>
 4    1  0.2134315E+005  0.2058165E+02  0.7546771E-02  0.1525322E+00
          2   -1    0    0  503    0  0.00000000000E+00  0.00000000000E+00  0.15203924137E+03  0.15203924137E+03  0.00000000000E+00 0. -1.
         21   -1    0    0  501  502 -0.00000000000E+00 -0.00000000000E+00 -0.30218985432E+01  0.30218985432E+01  0.00000000000E+00 0.  1.
          2    1    1    2  501    0  0.14084735759E+02 -0.15007483349E+02  0.52853765521E+02  0.56719704403E+02  0.00000000000E+00 0. -1.
         21    1    1    2  503  502 -0.14084735759E+02  0.15007483349E+02  0.96163577309E+02  0.98341435513E+02  0.00000000000E+00 0.  1.
</event>
<event>
 4    1  0.2134315E+005  0.2969554E+02  0.7546771E-02  0.1422261E+00
          2   -1    0    0  502    0  0.00000000000E+00  0.00000000000E+00  0.38403706265E+03  0.38403706265E+03  0.00000000000E+00 0. -1.
         21   -1    0    0  503  502 -0.00000000000E+00 -0.00000000000E+00 -0.16756206317E+02  0.16756206317E+02  0.00000000000E+00 0.  1.
          2    1    1    2  501    0 -0.29559123907E+02 -0.28431527198E+01  0.36980062867E+03  0.37099101106E+03  0.00000000000E+00 0. -1.
         21    1    1    2  503  501  0.29559123907E+02  0.28431527198E+01 -0.25197723381E+01  0.29802257904E+02  0.00000000000E+00 0.  1.
</event>
<event>
 4    1  0.2134315E+005  0.2619551E+02  0.7546771E-02  0.1455861E+00
          2   -1    0    0  503    0  0.00000000000E+00  0.00000000000E+00  0.26936987747E+03  0.26936987747E+03  0.00000000000E+00 0.  1.
         21   -1    0    0  501  502 -0.00000000000E+00 -0.00000000000E+00 -0.95554118281E+03  0.95554118281E+03  0.00000000000E+00 0.  1.
          2    1    1    2  501    0  0.23053962415E+02  0.12438640250E+02  0.26855293830E+03  0.26982751087E+03  0.00000000000E+00 0.  1.
         21    1    1    2  503  502 -0.23053962415E+02 -0.12438640250E+02 -0.95472424364E+03  0.95508354941E+03  0.00000000000E+00 0.  1.
</event>
<event>
 4    1  0.2134315E+005  0.2276763E+02  0.7546771E-02  0.1495437E+00
          2   -1    0    0  502    0  0.00000000000E+00  0.00000000000E+00  0.52269035631E+02  0.52269035631E+02  0.00000000000E+00 0.  1.
         21   -1    0    0  503  502 -0.00000000000E+00 -0.00000000000E+00 -0.28636340681E+02  0.28636340681E+02  0.00000000000E+00 0.  1.
          2    1    1    2  501    0 -0.19011164113E+02 -0.12527600315E+02  0.44522615558E+02  0.50006283872E+02  0.00000000000E+00 0.  1.
         21    1    1    2  503  501  0.19011164113E+02  0.12527600315E+02 -0.20889920608E+02  0.30899092440E+02  0.00000000000E+00 0.  1.
</event>
<event>
 4    1  0.2134315E+005  0.2249495E+02  0.7546771E-02  0.1498939E+00
          2   -1    0    0  503    0  0.00000000000E+00  0.00000000000E+00  0.12052790090E+04  0.12052790090E+04  0.00000000000E+00 0. -1.
         21   -1    0    0  501  502 -0.00000000000E+00 -0.00000000000E+00 -0.50891504835E+00  0.50891504835E+00  0.00000000000E+00 0. -1.
          2    1    1    2  501    0  0.10892420091E+02  0.19681915956E+02  0.85461681029E+03  0.85491281138E+03  0.00000000000E+00 0. -1.
         21    1    1    2  503  502 -0.10892420091E+02 -0.19681915956E+02  0.35015328370E+03  0.35087511271E+03  0.00000000000E+00 0. -1.
</event>
<event>
 4    1  0.2134315E+005  0.5520354E+02  0.7546771E-02  0.1277062E+00
          2   -1    0    0  502    0  0.00000000000E+00  0.00000000000E+00  0.11540337110E+04  0.11540337110E+04  0.00000000000E+00 0.  1.
         21   -1    0    0  503  502 -0.00000000000E+00 -0.00000000000E+00 -0.57063108416E+01  0.57063108416E+01  0.00000000000E+00 0.  1.
          2    1    1    2  501    0 -0.53818721286E+00 -0.55200919631E+02  0.99918727716E+03  0.10007110702E+04  0.00000000000E+00 0.  1.
         21    1    1    2  503  501  0.53818721286E+00  0.55200919631E+02  0.14914012299E+03  0.15902895164E+03  0.00000000000E+00 0.  1.
</event>
<event>
 4    1  0.2134315E+005  0.2010098E+02  0.7546771E-02  0.1532498E+00
          2   -1    0    0  502    0  0.00000000000E+00  0.00000000000E+00  0.13300568510E+03  0.13300568510E+03  0.00000000000E+00 0. -1.
         21   -1    0    0  503  502 -0.00000000000E+00 -0.00000000000E+00 -0.18812812744E+02  0.18812812744E+02  0.00000000000E+00 0.  1.
          2    1    1    2  501    0  0.17769390716E+02  0.93967066243E+01  0.12660722290E+03  0.12819297263E+03  0.00000000000E+00 0. -1.
         21    1    1    2  503  501 -0.17769390716E+02 -0.93967066243E+01 -0.12414350549E+02  0.23625525208E+02  0.00000000000E+00 0.  1.
</event>
<event>
 4    1  0.2134315E+005  0.2506379E+02  0.7546771E-02  0.1468091E+00
          2   -1    0    0  502    0  0.00000000000E+00  0.00000000000E+00  0.23386580559E+03  0.23386580559E+03  0.00000000000E+00 0.  1.
         21   -1    0    0  503  502 -0.00000000000E+00 -0.00000000000E+00 -0.59738745672E+02  0.59738745672E+02  0.00000000000E+00 0.  1.
          2    1    1    2  501    0  0.10411714333E+02 -0.22798893216E+02  0.23052739547E+03  0.23188590597E+03  0.00000000000E+00 0.  1.
         21    1    1    2  503  501 -0.10411714333E+02  0.22798893216E+02 -0.56400335546E+02  0.61718645294E+02  0.00000000000E+00 0.  1.
</event>
<event>
 4    1  0.2134315E+005  0.2810463E+02  0.7546771E-02  0.1436817E+00
          2   -1    0    0  503    0  0.00000000000E+00  0.00000000000E+00  0.16502149167E+04  0.16502149167E+04  0.00000000000E+00 0.  1.
         21   -1    0    0  501  502 -0.00000000000E+00 -0.00000000000E+00 -0.58946729766E+00  0.58946729766E+00  0.00000000000E+00 0. -1.
          2    1    1    2  501    0  0.14248632445E+02 -0.24224915078E+02  0.11826996805E+04  0.11830335600E+04  0.00000000000E+00 0.  1.
         21    1    1    2  503  502 -0.14248632445E+02  0.24224915078E+02  0.46692576891E+03  0.46777082392E+03  0.00000000000E+00 0. -1.
</event>
<event>
 4    1  0.2134315E+005  0.2642130E+02  0.7546771E-02  0.1453509E+00
          2   -1    0    0  503    0  0.00000000000E+00  0.00000000000E+00  0.18452666662E+04  0.18452666662E+04  0.00000000000E+00 0. -1.
         21   -1    0    0  501  502 -0.00000000000E+00 -0.00000000000E+00 -0.56698789798E+00  0.56698789798E+00  0.00000000000E+00 0.  1.
          2    1    1    2  501    0 -0.17491026219E+02 -0.19802752995E+02  0.14547458800E+04  0.14549857939E+04  0.00000000000E+00 0. -1.
         21    1    1    2  503  502  0.17491026219E+02  0.19802752995E+02  0.38995379826E+03  0.39084786017E+03  0.00000000000E+00 0.  1.
</event>
<event>
 4    1  0.2134315E+005  0.3278616E+02  0.7546771E-02  0.1396833E+00
          2   -1    0    0  503    0  0.00000000000E+00  0.00000000000E+00  0.70926196809E+03  0.70926196809E+03  0.00000000000E+00 0.  1.
         21   -1    0    0  501  502 -0.00000000000E+00 -0.00000000000E+00 -0.16569260313E+01  0.16569260313E+01  0.00000000000E+00 0. -1.
          2    1    1    2  501    0  0.32530240525E+02  0.40884946738E+01  0.45762800247E+03  0.45880096009E+03  0.00000000000E+00 0.  1.
         21    1    1    2  503  502 -0.32530240525E+02 -0.40884946738E+01  0.24997703958E+03  0.25211793402E+03  0.00000000000E+00 0. -1.
</event>
<event>
 4    1  0.2134315E+005  0.2154750E+02  0.7546771E-02  0.1511590E+00
          2   -1    0    0  503    0  0.00000000000E+00  0.00000000000E+00  0.50421415954E+03  0.50421415954E+03  0.00000000000E+00 0. -1.
         21   -1    0    0  501  502 -0.00000000000E+00 -0.00000000000E+00 -0.92142905340E+00  0.92142905340E+00  0.00000000000E+00 0. -1.
          2    1    1    2  501    0  0.21327484471E+02 -0.30713349288E+01  0.24519758756E+03  0.24614254333E+03  0.00000000000E+00 0. -1.
         21    1    1    2  503  502 -0.21327484471E+02  0.30713349288E+01  0.25809514293E+03  0.25899304527E+03  0.00000000000E+00 0. -1.
</event>
<event>
 4    1  0.2134315E+005  0.2067243E+02  0.7546771E-02  0.1523993E+00
          2   -1    0    0  503    0  0.00000000000E+00  0.00000000000E+00  0.85270409539E+03  0.85270409539E+03  0.00000000000E+00 0.  1.
         21   -1    0    0  501  502 -0.00000000000E+00 -0.00000000000E+00 -0.65468884524E+02  0.65468884524E+02  0.00000000000E+00 0.  1.
          2    1    1    2  501    0  0.60628516962E+01 -0.19763382425E+02  0.85094354720E+03  0.85119461345E+03  0.00000000000E+00 0.  1.
         21    1    1    2  503  502 -0.60628516962E+01  0.19763382425E+02 -0.63708336332E+02  0.66978366461E+02  0.00000000000E+00 0.  1.
</event>
<event>
 4    1  0.2134315E+005  0.2063291E+02  0.7546771E-02  0.1524571E+00
          2   -1    0    0  503    0  0.00000000000E+00  0.00000000000E+00  0.57609263290E+03  0.57609263290E+03  0.00000000000E+00 0.  1.
         21   -1    0    0  501  502 -0.00000000000E+00 -0.00000000000E+00 -0.52394694698E+01  0.52394694698E+01  0.00000000000E+00 0.  1.
          2    1    1    2  501    0 -0.85126854206E+01 -0.18794976851E+02  0.55481620357E+03  0.55519972686E+03  0.00000000000E+00 0.  1.
         21    1    1    2  503  502  0.85126854206E+01  0.18794976851E+02  0.16036959858E+02  0.26132375502E+02  0.00000000000E+00 0.  1.
</event>
<event>
 4    1  0.2134315E+005  0.2062864E+02  0.7546771E-02  0.1524633E+00
          2   -1    0    0  503    0  0.00000000000E+00  0.00000000000E+00  0.24381900408E+03  0.24381900408E+03  0.00000000000E+00 0.  1.
         21   -1    0    0  501  502 -0.00000000000E+00 -0.00000000000E+00 -0.39142417570E+02  0.39142417570E+02  0.00000000000E+00 0. -1.
          2    1    1    2  501    0 -0.16131017068E+02  0.12858116653E+02  0.24062880705E+03  0.24151141517E+03  0.00000000000E+00 0.  1.
         21    1    1    2  503  502  0.16131017068E+02 -0.12858116653E+02 -0.35952220539E+02  0.41450006480E+02  0.00000000000E+00 0. -1.
</event>
<event>
 4    1  0.2134315E+005  0.2434231E+02  0.7546771E-02  0.1476297E+00
          2   -1    0    0  503    0  0.00000000000E+00  0.00000000000E+00  0.25544573671E+03  0.25544573671E+03  0.00000000000E+00 0. -1.
         21   -1    0    0  501  502 -0.00000000000E+00 -0.00000000000E+00 -0.28796395219E+01  0.28796395219E+01  0.00000000000E+00 0. -1.
          2    1    1    2  501    0 -0.20050907024E+02  0.13802505171E+02  0.18324081175E+03  0.18485059673E+03  0.00000000000E+00 0. -1.
         21    1    1    2  503  502  0.20050907024E+02 -0.13802505171E+02  0.69325285441E+02  0.73474779502E+02  0.00000000000E+00 0. -1.
</event>
<event>
 4    1  0.2134315E+005  0.2460854E+02  0.7546771E-02  0.1473231E+00
          2   -1    0    0  502    0  0.00000000000E+00  0.00000000000E+00  0.93493024790E+03  0.93493024790E+03  0.00000000000E+00 0.  1.
         21   -1    0    0  503  502 -0.00000000000E+00 -0.00000000000E+00 -0.69588989267E+00  0.69588989267E+00  0.00000000000E+00 0. -1.
          2    1    1    2  501    0  0.16058493359E+02  0.18646845210E+02  0.59018826975E+03  0.59070108667E+03  0.00000000000E+00 0.  1.
         21    1    1    2  503  501 -0.16058493359E+02 -0.18646845210E+02  0.34404608826E+03  0.34492505112E+03  0.00000000000E+00 0. -1.
</event>
<event>
 4    1  0.2134315E+005  0.4019345E+02  0.7546771E-02  0.1347356E+00
          2   -1    0    0  502    0  0.00000000000E+00  0.00000000000E+00  0.95111375741E+03  0.95111375741E+03  0.00000000000E+00 0.  1.
         21   -1    0    0  503  502 -0.00000000000E+00 -0.00000000000E+00 -0.17219348643E+01  0.17219348643E+01  0.00000000000E+00 0.  1.
          2    1    1    2  501    0  0.21632225155E+01 -0.40135192904E+02  0.53021689597E+03  0.53173815926E+03  0.00000000000E+00 0.  1.
         21    1    1    2  503  501 -0.21632225155E+01  0.40135192904E+02  0.41917492657E+03  0.42109753301E+03  0.00000000000E+00 0.  1.
</event>
<event>
 4    1  0.2134315E+005  0.2259593E+02  0.7546771E-02  0.1497635E+00
          2   -1    0    0  503    0  0.00000000000E+00  0.00000000000E+00  0.14682844822E+04  0.14682844822E+04  0.00000000000E+00 0. -1.
         21   -1    0    0  501  502 -0.00000000000E+00 -0.00000000000E+00 -0.79730453232E+00  0.79730453232E+00  0.00000000000E+00 0. -1.
          2    1    1    2  501    0  0.13462783322E+02 -0.18147434756E+02  0.12853148552E+04  0.12855134589E+04  0.00000000000E+00 0. -1.
         21    1    1    2  503  502 -0.13462783322E+02  0.18147434756E+02  0.18217232245E+03  0.18356832785E+03  0.00000000000E+00 0. -1.
</event>
<event>
 4    1  0.2134315E+005  0.2548096E+02  0.7546771E-02  0.1463494E+00
          2   -1    0    0  502    0  0.00000000000E+00  0.00000000000E+00  0.11727940451E+04  0.11727940451E+04  0.00000000000E+00 0. -1.
         21   -1    0    0  503  502 -0.00000000000E+00 -0.00000000000E+00 -0.56460321124E+00  0.56460321124E+00  0.00000000000E+00 0. -1.
          2    1    1    2  501    0 -0.21643547311E+02  0.13447529824E+02  0.66795084136E+03  0.66843668786E+03  0.00000000000E+00 0. -1.
         21    1    1    2  503  501  0.21643547311E+02 -0.13447529824E+02  0.50427860052E+03  0.50492196045E+03  0.00000000000E+00 0. -1.
</event>
<event>
 4    1  0.2134315E+005  0.2226816E+02  0.7546771E-02  0.1501898E+00
          2   -1    0    0  503    0  0.00000000000E+00  0.00000000000E+00  0.62695352176E+00  0.62695352176E+00  0.00000000000E+00 0. -1.
         21   -1    0    0  501  502 -0.00000000000E+00 -0.00000000000E+00 -0.79121937001E+03  0.79121937001E+03  0.00000000000E+00 0.  1.
          2    1    1    2  501    0 -0.19449133179E+02 -0.10844459297E+02 -0.40297702224E+03  0.40359181302E+03  0.00000000000E+00 0. -1.
         21    1    1    2  503  502  0.19449133179E+02  0.10844459297E+02 -0.38761539425E+03  0.38825451052E+03  0.00000000000E+00 0.  1.
</event>
<event>
 4    1  0.2134315E+005  0.2081089E+02  0.7546771E-02  0.1521982E+00
          2   -1    0    0  502    0  0.00000000000E+00  0.00000000000E+00  0.76346467693E+03  0.76346467693E+03  0.00000000000E+00 0.  1.
         21   -1    0    0  503  502 -0.00000000000E+00 -0.00000000000E+00 -0.71587948293E+01  0.71587948293E+01  0.00000000000E+00 0.  1.
          2    1    1    2  501    0 -0.20515781617E+02 -0.34922417286E+01  0.74788330647E+03  0.74817279631E+03  0.00000000000E+00 0.  1.
         21    1    1    2  503  501  0.20515781617E+02  0.34922417286E+01  0.84225756296E+01  0.22450675444E+02  0.00000000000E+00 0.  1.
</event>
<event>
 4    1  0.2134315E+005  0.2046630E+02  0.7546771E-02  0.1527023E+00
          2   -1    0    0  502    0  0.00000000000E+00  0.00000000000E+00  0.16322719046E+03  0.16322719046E+03  0.00000000000E+00 0. -1.
         21   -1    0    0  503  502 -0.00000000000E+00 -0.00000000000E+00 -0.47631784698E+01  0.47631784698E+01  0.00000000000E+00 0. -1.
          2    1    1    2  501    0 -0.86373304455E+01  0.18554405116E+02  0.13627750698E+03  0.13780576307E+03  0.00000000000E+00 0. -1.
         21    1    1    2  503  501  0.86373304455E+01 -0.18554405116E+02  0.22186505014E+02  0.30184605864E+02  0.00000000000E+00 0. -1.
</event>
<event>
 4    1  0.2134315E+005  0.2412096E+02  0.7546771E-02  0.1478882E+00
          2   -1    0    0  502    0  0.00000000000E+00  0.00000000000E+00  0.17127430899E+04  0.17127430899E+04  0.00000000000E+00 0.  1.
         21   -1    0    0  503  502 -0.00000000000E+00 -0.00000000000E+00 -0.22216452238E+01  0.22216452238E+01  0.00000000000E+00 0. -1.
          2    1    1    2  501    0 -0.70903329951E+01 -0.23055321060E+02  0.16444682358E+04  0.16446451286E+04  0.00000000000E+00 0.  1.
         21    1    1    2  503  501  0.70903329951E+01  0.23055321060E+02  0.66053208877E+02  0.70319606470E+02  0.00000000000E+00 0. -1.
</event>
<event>
 4    1  0.2134315E+005  0.2070523E+02  0.7546771E-02  0.1523515E+00
          2   -1    0    0  502    0  0.00000000000E+00  0.00000000000E+00  0.80993784886E+03  0.80993784886E+03  0.00000000000E+00 0.  1.
         21   -1    0    0  503  502 -0.00000000000E+00 -0.00000000000E+00 -0.11983900615E+02  0.11983900615E+02  0.00000000000E+00 0. -1.
          2    1    1    2  501    0 -0.14641179886E+02  0.14640433957E+02  0.80075964810E+03  0.80102729072E+03  0.00000000000E+00 0.  1.
         21    1    1    2  503  501  0.14641179886E+02 -0.14640433957E+02 -0.28056998563E+01  0.20894458753E+02  0.00000000000E+00 0. -1.
</event>
<event>
 4    1  0.2134315E+005  0.2585342E+02  0.7546771E-02  0.1459479E+00
          2   -1    0    0  502    0  0.00000000000E+00  0.00000000000E+00  0.75446893730E+03  0.75446893730E+03  0.00000000000E+00 0.  1.
         21   -1    0    0  503  502 -0.00000000000E+00 -0.00000000000E+00 -0.24516510054E+02  0.24516510054E+02  0.00000000000E+00 0. -1.
          2    1    1    2  501    0  0.47492844168E+00  0.25849059238E+02  0.74736689844E+03  0.74781393428E+03  0.00000000000E+00 0.  1.
         21    1    1    2  503  501 -0.47492844168E+00 -0.25849059238E+02 -0.17414471192E+02  0.31171513076E+02  0.00000000000E+00 0. -1.
</event>
<event>
 4    1  0.2134315E+005  0.2743987E+02  0.7546771E-02  0.1443239E+00
          2   -1    0    0  503    0  0.00000000000E+00  0.00000000000E+00  0.13346977973E+04  0.13346977973E+04  0.00000000000E+00 0.  1.
         21   -1    0    0  501  502 -0.00000000000E+00 -0.00000000000E+00 -0.69391810781E+00  0.69391810781E+00  0.00000000000E+00 0. -1.
          2    1    1    2  501    0  0.72927494554E+00 -0.27430180419E+02  0.95576228009E+03  0.95615609745E+03  0.00000000000E+00 0.  1.
         21    1    1    2  503  502 -0.72927494554E+00  0.27430180419E+02  0.37824159914E+03  0.37923561800E+03  0.00000000000E+00 0. -1.
</event>
<event>
 4    1  0.2134315E+005  0.3281907E+02  0.7546771E-02  0.1396580E+00
          2   -1    0    0  503    0  0.00000000000E+00  0.00000000000E+00  0.57550682654E+03  0.57550682654E+03  0.00000000000E+00 0. -1.
         21   -1    0    0  501  502 -0.00000000000E+00 -0.00000000000E+00 -0.64517795059E+01  0.64517795059E+01  0.00000000000E+00 0. -1.
          2    1    1    2  501    0  0.29169917189E+02  0.15040191928E+02  0.52969667606E+03  0.53071240806E+03  0.00000000000E+00 0. -1.
         21    1    1    2  503  502 -0.29169917189E+02 -0.15040191928E+02  0.39358370974E+02  0.51246197983E+02  0.00000000000E+00 0. -1.
</event>
<event>
 4    1  0.2134315E+005  0.3574357E+02  0.7546771E-02  0.1375410E+00
          2   -1    0    0  503    0  0.00000000000E+00  0.00000000000E+00  0.31432676197E+03  0.31432676197E+03  0.00000000000E+00 0. -1.
         21   -1    0    0  501  502 -0.00000000000E+00 -0.00000000000E+00 -0.89058323905E+02  0.89058323905E+02  0.00000000000E+00 0. -1.
          2    1    1    2  501    0 -0.13968848467E+01 -0.35716261484E+02  0.30967045050E+03  0.31172646749E+03  0.00000000000E+00 0. -1.
         21    1    1    2  503  502  0.13968848467E+01  0.35716261484E+02 -0.84402012433E+02  0.91658618386E+02  0.00000000000E+00 0. -1.
</event>
<event>
 4    1  0.2134315E+005  0.2111775E+02  0.7546771E-02  0.1517590E+00
          2   -1    0    0  502    0  0.00000000000E+00  0.00000000000E+00  0.78000797166E+01  0.78000797166E+01  0.00000000000E+00 0.  1.
         21   -1    0    0  503  502 -0.00000000000E+00 -0.00000000000E+00 -0.61440798973E+02  0.61440798973E+02  0.00000000000E+00 0.  1.
          2    1    1    2  501    0 -0.13380545195E+01 -0.21075315764E+02 -0.17696657160E+02  0.27552332008E+02  0.00000000000E+00 0.  1.
         21    1    1    2  503  501  0.13380545195E+01  0.21075315764E+02 -0.35944062096E+02  0.41688546681E+02  0.00000000000E+00 0.  1.
</event>
<event>
 4    1  0.2134315E+005  0.2298402E+02  0.7546771E-02  0.1492699E+00
          2   -1    0    0  503    0  0.00000000000E+00  0.00000000000E+00  0.21142462875E+04  0.21142462875E+04  0.00000000000E+00 0.  1.
         21   -1    0    0  501  502 -0.00000000000E+00 -0.00000000000E+00 -0.29651602745E+00  0.29651602745E+00  0.00000000000E+00 0.  1.
          2    1    1    2  501    0 -0.27345202577E+01  0.22820767777E+02  0.14763642900E+04  0.14765431866E+04  0.00000000000E+00 0.  1.
         21    1    1    2  503  502  0.27345202577E+01 -0.22820767777E+02  0.63758548148E+03  0.63799961696E+03  0.00000000000E+00 0.  1.
</event>
<event>
 4    1  0.2134315E+005  0.9464809E+02  0.7546771E-02  0.1173419E+00
          2   -1    0    0  503    0  0.00000000000E+00  0.00000000000E+00  0.95982815924E+02  0.95982815924E+02  0.00000000000E+00 0. -1.
         21   -1    0    0  501  502 -0.00000000000E+00 -0.00000000000E+00 -0.13442147443E+03  0.13442147443E+03  0.00000000000E+00 0. -1.
          2    1    1    2  501    0  0.88788900496E+02  0.32784031565E+02  0.44473698644E+02  0.10457615143E+03  0.00000000000E+00 0. -1.
         21    1    1    2  503  502 -0.88788900496E+02 -0.32784031565E+02 -0.82912357154E+02  0.12582813893E+03  0.00000000000E+00 0. -1.
</event>
<event>
 4    1  0.2134315E+005  0.3125201E+02  0.7546771E-02  0.1409020E+00
          2   -1    0    0  503    0  0.00000000000E+00  0.00000000000E+00  0.12221739965E+04  0.12221739965E+04  0.00000000000E+00 0.  1.
         21   -1    0    0  501  502 -0.00000000000E+00 -0.00000000000E+00 -0.12903625136E+02  0.12903625136E+02  0.00000000000E+00 0.  1.
          2    1    1    2  501    0 -0.25669797812E+02  0.17825525278E+02  0.12027458593E+04  0.12031518150E+04  0.00000000000E+00 0.  1.
         21    1    1    2  503  502  0.25669797812E+02 -0.17825525278E+02  0.65245120522E+01  0.31925806625E+02  0.00000000000E+00 0.  1.
</event>
<event>
 4    1  0.2134315E+005  0.2791653E+02  0.7546771E-02  0.1438612E+00
          2   -1    0    0  502    0  0.00000000000E+00  0.00000000000E+00  0.13827701354E+03  0.13827701354E+03  0.00000000000E+00 0.  1.
         21   -1    0    0  503  502 -0.00000000000E+00 -0.00000000000E+00 -0.16539237037E+03  0.16539237037E+03  0.00000000000E+00 0. -1.
          2    1    1    2  501    0 -0.17811210662E+00 -0.27915962508E+02  0.13566757862E+03  0.13851001615E+03  0.00000000000E+00 0.  1.
         21    1    1    2  503  501  0.17811210662E+00  0.27915962508E+02 -0.16278293544E+03  0.16515936776E+03  0.00000000000E+00 0. -1.
</event>
<event>
 4    1  0.2134315E+005  0.2107824E+02  0.7546771E-02  0.1518151E+00
          2   -1    0    0  502    0  0.00000000000E+00  0.00000000000E+00  0.24140658103E+03  0.24140658103E+03  0.00000000000E+00 0. -1.
         21   -1    0    0  503  502 -0.00000000000E+00 -0.00000000000E+00 -0.60509267231E+01  0.60509267231E+01  0.00000000000E+00 0.  1.
          2    1    1    2  501    0 -0.19474250985E+02 -0.80650888350E+01  0.22088890590E+03  0.22189231816E+03  0.00000000000E+00 0. -1.
         21    1    1    2  503  501  0.19474250985E+02  0.80650888350E+01  0.14466748404E+02  0.25565189589E+02  0.00000000000E+00 0.  1.
</event>
<event>
 4    1  0.2134315E+005  0.2932486E+02  0.7546771E-02  0.1425556E+00
          2   -1    0    0  503    0  0.00000000000E+00  0.00000000000E+00  0.69334186941E+03  0.69334186941E+03  0.00000000000E+00 0. -1.
         21   -1    0    0  501  502 -0.00000000000E+00 -0.00000000000E+00 -0.13022053972E+01  0.13022053972E+01  0.00000000000E+00 0. -1.
          2    1    1    2  501    0  0.27746333338E+02  0.94914784756E+01  0.42175207981E+03  0.42277034428E+03  0.00000000000E+00 0. -1.
         21    1    1    2  503  502 -0.27746333338E+02 -0.94914784756E+01  0.27028758420E+03  0.27187373053E+03  0.00000000000E+00 0. -1.
</event>
<event>
 4    1  0.2134315E+005  0.3292981E+02  0.7546771E-02  0.1395732E+00
          2   -1    0    0  502    0  0.00000000000E+00  0.00000000000E+00  0.18350186294E+03  0.18350186294E+03  0.00000000000E+00 0.  1.
         21   -1    0    0  503  502 -0.00000000000E+00 -0.00000000000E+00 -0.12078408317E+03  0.12078408317E+03  0.00000000000E+00 0.  1.
          2    1    1    2  501    0  0.15292706058E+02  0.29163431062E+02  0.17973341631E+03  0.18272513103E+03  0.00000000000E+00 0.  1.
         21    1    1    2  503  501 -0.15292706058E+02 -0.29163431062E+02 -0.11701563654E+03  0.12156081509E+03  0.00000000000E+00 0.  1.
</event>
<event>
 4    1  0.2134315E+005  0.3460028E+02  0.7546771E-02  0.1383395E+00
          2   -1    0    0  503    0  0.00000000000E+00  0.00000000000E+00  0.20543157850E+03  0.20543157850E+03  0.00000000000E+00 0.  1.
         21   -1    0    0  501  502 -0.00000000000E+00 -0.00000000000E+00 -0.89995423701E+01  0.89995423701E+01  0.00000000000E+00 0.  1.
          2    1    1    2  501    0  0.34381479925E+02 -0.38850161832E+01  0.16186743900E+03  0.16552415933E+03  0.00000000000E+00 0.  1.
         21    1    1    2  503  502 -0.34381479925E+02  0.38850161832E+01  0.34564597129E+02  0.48906961542E+02  0.00000000000E+00 0.  1.
</event>
<event>
 4    1  0.2134315E+005  0.2988623E+02  0.7546771E-02  0.1420588E+00
          2   -1    0    0  502    0  0.00000000000E+00  0.00000000000E+00  0.24283067058E+02  0.24283067058E+02  0.00000000000E+00 0. -1.
         21   -1    0    0  503  502 -0.00000000000E+00 -0.00000000000E+00 -0.40717225207E+03  0.40717225207E+03  0.00000000000E+00 0.  1.
          2    1    1    2  501    0  0.74406859364E+01 -0.28945172872E+02  0.14308489056E+02  0.33134871342E+02  0.00000000000E+00 0. -1.
         21    1    1    2  503  501 -0.74406859364E+01  0.28945172872E+02 -0.39719767407E+03  0.39832044779E+03  0.00000000000E+00 0.  1.
</event>
<event>
 4    1  0.2134315E+005  0.2299056E+02  0.7546771E-02  0.1492617E+00
          2   -1    0    0  502    0  0.00000000000E+00  0.00000000000E+00  0.45467426285E+01  0.45467426285E+01  0.00000000000E+00 0.  1.
         21   -1    0    0  503  502 -0.00000000000E+00 -0.00000000000E+00 -0.18100544203E+03  0.18100544203E+03  0.00000000000E+00 0.  1.
          2    1    1    2  501    0  0.20426792162E+02 -0.10550448610E+02 -0.32738260009E+02  0.40004493151E+02  0.00000000000E+00 0.  1.
         21    1    1    2  503  501 -0.20426792162E+02  0.10550448610E+02 -0.14372043939E+03  0.14554769151E+03  0.00000000000E+00 0.  1.
</event>
<event>
 4    1  0.2134315E+005  0.5426816E+02  0.7546771E-02  0.1280657E+00
          2   -1    0    0  503    0  0.00000000000E+00  0.00000000000E+00  0.77506884234E+03  0.77506884234E+03  0.00000000000E+00 0. -1.
         21   -1    0    0  501  502 -0.00000000000E+00 -0.00000000000E+00 -0.13562837156E+03  0.13562837156E+03  0.00000000000E+00 0. -1.
          2    1    1    2  501    0  0.19416420620E+01  0.54233411889E+02  0.76864510816E+03  0.77055845673E+03  0.00000000000E+00 0. -1.
         21    1    1    2  503  502 -0.19416420620E+01 -0.54233411889E+02 -0.12920463739E+03  0.14013875717E+03  0.00000000000E+00 0. -1.
</event>
<event>
 4    1  0.2134315E+005  0.2660678E+02  0.7546771E-02  0.1451599E+00
          2   -1    0    0  503    0  0.00000000000E+00  0.00000000000E+00  0.21861219158E+03  0.21861219158E+03  0.00000000000E+00 0. -1.
         21   -1    0    0  501  502 -0.00000000000E+00 -0.00000000000E+00 -0.32953154653E+01  0.32953154653E+01  0.00000000000E+00 0.  1.
          2    1    1    2  501    0 -0.47808358343E+01  0.26173732223E+02  0.93057355765E+02  0.96786321925E+02  0.00000000000E+00 0. -1.
         21    1    1    2  503  502  0.47808358343E+01 -0.26173732223E+02  0.12225952035E+03  0.12512118512E+03  0.00000000000E+00 0.  1.
</event>
<event>
 4    1  0.2134315E+005  0.2745040E+02  0.7546771E-02  0.1443135E+00
          2   -1    0    0  502    0  0.00000000000E+00  0.00000000000E+00  0.11064165132E+04  0.11064165132E+04  0.00000000000E+00 0.  1.
         21   -1    0    0  503  502 -0.00000000000E+00 -0.00000000000E+00 -0.15062740914E+02  0.15062740914E+02  0.00000000000E+00 0. -1.
          2    1    1    2  501    0 -0.22999199391E+02 -0.14985375332E+02  0.10935931920E+04  0.10939376556E+04  0.00000000000E+00 0.  1.
         21    1    1    2  503  501  0.22999199391E+02  0.14985375332E+02 -0.22394197847E+01  0.27541598491E+02  0.00000000000E+00 0. -1.
</event>
<event>
 4    1  0.2134315E+005  0.2278042E+02  0.7546771E-02  0.1495274E+00
          2   -1    0    0  502    0  0.00000000000E+00  0.00000000000E+00  0.13261127946E+04  0.13261127946E+04  0.00000000000E+00 0.  1.
         21   -1    0    0  503  502 -0.00000000000E+00 -0.00000000000E+00 -0.71088611044E+01  0.71088611044E+01  0.00000000000E+00 0.  1.
          2    1    1    2  501    0  0.64451870398E+01  0.21849646947E+02  0.13075052367E+04  0.13077036711E+04  0.00000000000E+00 0.  1.
         21    1    1    2  503  501 -0.64451870398E+01 -0.21849646947E+02  0.11498696771E+02  0.25517984543E+02  0.00000000000E+00 0.  1.
</event>
<event>
 4    1  0.2134315E+005  0.2176746E+02  0.7546771E-02  0.1508584E+00
          2   -1    0    0  502    0  0.00000000000E+00  0.00000000000E+00  0.10199194550E+03  0.10199194550E+03  0.00000000000E+00 0.  1.
         21   -1    0    0  503  502 -0.00000000000E+00 -0.00000000000E+00 -0.10006957738E+03  0.10006957738E+03  0.00000000000E+00 0. -1.
          2    1    1    2  501    0  0.57891723766E+01  0.20983515317E+02  0.99618922912E+02  0.10196936910E+03  0.00000000000E+00 0.  1.
         21    1    1    2  503  501 -0.57891723766E+01 -0.20983515317E+02 -0.97696554788E+02  0.10009215378E+03  0.00000000000E+00 0. -1.
</event>
<event>
 4    1  0.2134315E+005  0.3226138E+02  0.7546771E-02  0.1400911E+00
          2   -1    0    0  503    0  0.00000000000E+00  0.00000000000E+00  0.17314064803E+04  0.17314064803E+04  0.00000000000E+00 0.  1.
         21   -1    0    0  501  502 -0.00000000000E+00 -0.00000000000E+00 -0.39014137901E+01  0.39014137901E+01  0.00000000000E+00 0.  1.
          2    1    1    2  501    0 -0.19166362398E+02  0.25950860553E+02  0.16617680312E+04  0.16620811612E+04  0.00000000000E+00 0.  1.
         21    1    1    2  503  502  0.19166362398E+02 -0.25950860553E+02  0.65737035306E+02  0.73226732972E+02  0.00000000000E+00 0.  1.
</event>
<event>
 4    1  0.2134315E+005  0.3157414E+02  0.7546771E-02  0.1406393E+00
          2   -1    0    0  503    0  0.00000000000E+00  0.00000000000E+00  0.44829894513E+02  0.44829894513E+02  0.00000000000E+00 0.  1.
         21   -1    0    0  501  502 -0.00000000000E+00 -0.00000000000E+00 -0.37610322865E+02  0.37610322865E+02  0.00000000000E+00 0. -1.
          2    1    1    2  501    0  0.20672687035E+02  0.23865582586E+02  0.29962522351E+02  0.43527907910E+02  0.00000000000E+00 0.  1.
         21    1    1    2  503  502 -0.20672687035E+02 -0.23865582586E+02 -0.22742950704E+02  0.38912309468E+02  0.00000000000E+00 0. -1.
</event>
<event>
 4    1  0.2134315E+005  0.2974122E+02  0.7546771E-02  0.1421859E+00
          2   -1    0    0  503    0  0.00000000000E+00  0.00000000000E+00  0.77153233551E+03  0.77153233551E+03  0.00000000000E+00 0.  1.
         21   -1    0    0  501  502 -0.00000000000E+00 -0.00000000000E+00 -0.15829639223E+01  0.15829639223E+01  0.00000000000E+00 0.  1.
          2    1    1    2  501    0 -0.28373107596E+01  0.29605566782E+02  0.58796114338E+03  0.58871287233E+03  0.00000000000E+00 0.  1.
         21    1    1    2  503  502  0.28373107596E+01 -0.29605566782E+02  0.18198822821E+03  0.18440242711E+03  0.00000000000E+00 0.  1.
</event>
<event>
 4    1  0.2134315E+005  0.3515083E+02  0.7546771E-02  0.1379506E+00
          2   -1    0    0  503    0  0.00000000000E+00  0.00000000000E+00  0.10557081084E+03  0.10557081084E+03  0.00000000000E+00 0. -1.
         21   -1    0    0  501  502 -0.00000000000E+00 -0.00000000000E+00 -0.42481523866E+02  0.42481523866E+02  0.00000000000E+00 0. -1.
          2    1    1    2  501    0 -0.29145585719E+02 -0.19649830994E+02  0.94553758398E+02  0.10087613321E+03  0.00000000000E+00 0. -1.
         21    1    1    2  503  502  0.29145585719E+02  0.19649830994E+02 -0.31464471425E+02  0.47176201491E+02  0.00000000000E+00 0. -1.
</event>
<event>
 4    1  0.2134315E+005  0.2386428E+02  0.7546771E-02  0.1481921E+00
          2   -1    0    0  502    0  0.00000000000E+00  0.00000000000E+00  0.23493490990E+02  0.23493490990E+02  0.00000000000E+00 0.  1.
         21   -1    0    0  503  502 -0.00000000000E+00 -0.00000000000E+00 -0.50826023142E+02  0.50826023142E+02  0.00000000000E+00 0.  1.
          2    1    1    2  501    0 -0.10186882530E+02  0.21580808031E+02  0.13208764723E+02  0.27275910919E+02  0.00000000000E+00 0.  1.
         21    1    1    2  503  501  0.10186882530E+02 -0.21580808031E+02 -0.40541296874E+02  0.47043603212E+02  0.00000000000E+00 0.  1.
</event>
<event>
 4    1  0.2134315E+005  0.6770469E+02  0.7546771E-02  0.1235686E+00
          2   -1    0    0  502    0  0.00000000000E+00  0.00000000000E+00  0.16169612586E+04  0.16169612586E+04  0.00000000000E+00 0.  1.
         21   -1    0    0  503  502 -0.00000000000E+00 -0.00000000000E+00 -0.69008756711E+02  0.69008756711E+02  0.00000000000E+00 0.  1.
          2    1    1    2  501    0 -0.43770451946E+01 -0.67563056343E+02  0.15994646405E+04  0.16008969553E+04  0.00000000000E+00 0.  1.
         21    1    1    2  503  501  0.43770451946E+01  0.67563056343E+02 -0.51512138675E+02  0.85073060001E+02  0.00000000000E+00 0.  1.
</event>
<event>
 4    1  0.2134315E+005  0.2410753E+02  0.7546771E-02  0.1479040E+00
          2   -1    0    0  502    0  0.00000000000E+00  0.00000000000E+00  0.20704173887E+04  0.20704173887E+04  0.00000000000E+00 0.  1.
         21   -1    0    0  503  502 -0.00000000000E+00 -0.00000000000E+00 -0.39136925732E+00  0.39136925732E+00  0.00000000000E+00 0.  1.
          2    1    1    2  501    0 -0.17941321785E+02 -0.16102241669E+02  0.15855968450E+04  0.15857801008E+04  0.00000000000E+00 0.  1.
         21    1    1    2  503  501  0.17941321785E+02  0.16102241669E+02  0.48442917440E+03  0.48502865712E+03  0.00000000000E+00 0.  1.
</event>
<event>
 4    1  0.2134315E+005  0.2508456E+02  0.7546771E-02  0.1467860E+00
          2   -1    0    0  502    0  0.00000000000E+00  0.00000000000E+00  0.53573075940E+02  0.53573075940E+02  0.00000000000E+00 0.  1.
         21   -1    0    0  503  502 -0.00000000000E+00 -0.00000000000E+00 -0.34858119232E+02  0.34858119232E+02  0.00000000000E+00 0.  1.
          2    1    1    2  501    0 -0.97221654846E+01  0.23123901532E+02  0.45361364144E+02  0.51835206962E+02  0.00000000000E+00 0.  1.
         21    1    1    2  503  501  0.97221654846E+01 -0.23123901532E+02 -0.26646407437E+02  0.36595988210E+02  0.00000000000E+00 0.  1.
</event>
<event>
 4    1  0.2134315E+005  0.2207192E+02  0.7546771E-02  0.1504493E+00
          2   -1    0    0  503    0  0.00000000000E+00  0.00000000000E+00  0.33830909367E+03  0.33830909367E+03  0.00000000000E+00 0.  1.
         21   -1    0    0  501  502 -0.00000000000E+00 -0.00000000000E+00 -0.63832674274E+02  0.63832674274E+02  0.00000000000E+00 0.  1.
          2    1    1    2  501    0 -0.14219676606E+02 -0.16881071743E+02  0.33602815744E+03  0.33675227153E+03  0.00000000000E+00 0.  1.
         21    1    1    2  503  502  0.14219676606E+02  0.16881071743E+02 -0.61551738042E+02  0.65389496419E+02  0.00000000000E+00 0.  1.
</event>
<event>
 4    1  0.2134315E+005  0.2679766E+02  0.7546771E-02  0.1449651E+00
          2   -1    0    0  502    0  0.00000000000E+00  0.00000000000E+00  0.11093246663E+04  0.11093246663E+04  0.00000000000E+00 0. -1.
         21   -1    0    0  503  502 -0.00000000000E+00 -0.00000000000E+00 -0.10003223585E+03  0.10003223585E+03  0.00000000000E+00 0.  1.
          2    1    1    2  501    0  0.52148814182E+01 -0.26285351437E+02  0.11073649464E+04  0.11076891438E+04  0.00000000000E+00 0. -1.
         21    1    1    2  503  501 -0.52148814182E+01  0.26285351437E+02 -0.98072516006E+02  0.10166775833E+03  0.00000000000E+00 0.  1.
</event>
<event>
 4    1  0.2134315E+005  0.2122563E+02  0.7546771E-02  0.1516068E+00
          2   -1    0    0  503    0  0.00000000000E+00  0.00000000000E+00  0.41852432656E+03  0.41852432656E+03  0.00000000000E+00 0. -1.
         21   -1    0    0  501  502 -0.00000000000E+00 -0.00000000000E+00 -0.10951985050E+02  0.10951985050E+02  0.00000000000E+00 0. -1.
          2    1    1    2  501    0 -0.11367911029E+02  0.17924785217E+02  0.40769815803E+03  0.40825030973E+03  0.00000000000E+00 0. -1.
         21    1    1    2  503  502  0.11367911029E+02 -0.17924785217E+02 -0.12581652414E+00  0.21226001885E+02  0.00000000000E+00 0. -1.
</event>
<event>
 4    1  0.2134315E+005  0.2227774E+02  0.7546771E-02  0.1501772E+00
          2   -1    0    0  503    0  0.00000000000E+00  0.00000000000E+00  0.36290403892E+01  0.36290403892E+01  0.00000000000E+00 0.  1.
         21   -1    0    0  501  502 -0.00000000000E+00 -0.00000000000E+00 -0.24362500855E+03  0.24362500855E+03  0.00000000000E+00 0.  1.
          2    1    1    2  501    0  0.10065666594E+02  0.19874103928E+02 -0.38118368406E+02  0.44150964439E+02  0.00000000000E+00 0.  1.
         21    1    1    2  503  502 -0.10065666594E+02 -0.19874103928E+02 -0.20187759975E+03  0.20310308450E+03  0.00000000000E+00 0.  1.
</event>
<event>
 4    1  0.2134315E+005  0.2110961E+02  0.7546771E-02  0.1517706E+00
          2   -1    0    0  502    0  0.00000000000E+00  0.00000000000E+00  0.25017487990E+02  0.25017487990E+02  0.00000000000E+00 0.  1.
         21   -1    0    0  503  502 -0.00000000000E+00 -0.00000000000E+00 -0.12412107120E+03  0.12412107120E+03  0.00000000000E+00 0.  1.
          2    1    1    2  501    0 -0.25907113399E+01 -0.20950029064E+02  0.19459796996E+02  0.28710611317E+02  0.00000000000E+00 0.  1.
         21    1    1    2  503  501  0.25907113399E+01  0.20950029064E+02 -0.11856338021E+03  0.12042794787E+03  0.00000000000E+00 0.  1.
</event>
<event>
 4    1  0.2134315E+005  0.3973821E+02  0.7546771E-02  0.1350027E+00
          2   -1    0    0  503    0  0.00000000000E+00  0.00000000000E+00  0.13609933745E+03  0.13609933745E+03  0.00000000000E+00 0. -1.
         21   -1    0    0  501  502 -0.00000000000E+00 -0.00000000000E+00 -0.15667394111E+02  0.15667394111E+02  0.00000000000E+00 0.  1.
          2    1    1    2  501    0 -0.24446400461E+02  0.31328880405E+02  0.98866905596E+02  0.10655416587E+03  0.00000000000E+00 0. -1.
         21    1    1    2  503  502  0.24446400461E+02 -0.31328880405E+02  0.21565037740E+02  0.45212565683E+02  0.00000000000E+00 0.  1.
</event>
<event>
 4    1  0.2134315E+005  0.2206373E+02  0.7546771E-02  0.1504602E+00
          2   -1    0    0  503    0  0.00000000000E+00  0.00000000000E+00  0.34353570917E+01  0.34353570917E+01  0.00000000000E+00 0.  1.
         21   -1    0    0  501  502 -0.00000000000E+00 -0.00000000000E+00 -0.26737539471E+03  0.26737539471E+03  0.00000000000E+00 0. -1.
          2    1    1    2  501    0 -0.11197986677E+02  0.19010878060E+02 -0.39139427397E+02  0.44929980717E+02  0.00000000000E+00 0.  1.
         21    1    1    2  503  502  0.11197986677E+02 -0.19010878060E+02 -0.22480061022E+03  0.22588077109E+03  0.00000000000E+00 0. -1.
</event>
<event>
 4    1  0.2134315E+005  0.2431959E+02  0.7546771E-02  0.1476561E+00
          2   -1    0    0  502    0  0.00000000000E+00  0.00000000000E+00  0.87684929218E+01  0.87684929218E+01  0.00000000000E+00 0. -1.
         21   -1    0    0  503  502 -0.00000000000E+00 -0.00000000000E+00 -0.21066013109E+03  0.21066013109E+03  0.00000000000E+00 0.  1.
          2    1    1    2  501    0  0.16185607867E+02 -0.18151263238E+02 -0.10485586813E+02  0.26483764649E+02  0.00000000000E+00 0. -1.
         21    1    1    2  503  501 -0.16185607867E+02  0.18151263238E+02 -0.19140605135E+03  0.19294485936E+03  0.00000000000E+00 0.  1.
</event>
<event>
 4    1  0.2134315E+005  0.4039358E+02  0.7546771E-02  0.1346195E+00
          2   -1    0    0  503    0  0.00000000000E+00  0.00000000000E+00  0.20015900828E+03  0.20015900828E+03  0.00000000000E+00 0. -1.
         21   -1    0    0  501  502 -0.00000000000E+00 -0.00000000000E+00 -0.37936365609E+02  0.37936365609E+02  0.00000000000E+00 0.  1.
          2    1    1    2  501    0  0.38545218337E+02  0.12079223280E+02  0.18659597266E+03  0.19091804133E+03  0.00000000000E+00 0. -1.
         21    1    1    2  503  502 -0.38545218337E+02 -0.12079223280E+02 -0.24373329996E+02  0.47177332553E+02  0.00000000000E+00 0.  1.
</event>
<event>
 4    1  0.2134315E+005  0.2506499E+02  0.7546771E-02  0.1468078E+00
          2   -1    0    0  503    0  0.00000000000E+00  0.00000000000E+00  0.52788450340E+02  0.52788450340E+02  0.00000000000E+00 0. -1.
         21   -1    0    0  501  502 -0.00000000000E+00 -0.00000000000E+00 -0.83634143953E+02  0.83634143953E+02  0.00000000000E+00 0. -1.
          2    1    1    2  501    0 -0.37061521833E+01 -0.24789477955E+02  0.47748971295E+02  0.53927896686E+02  0.00000000000E+00 0. -1.
         21    1    1    2  503  502  0.37061521833E+01  0.24789477955E+02 -0.78594664908E+02  0.82494697607E+02  0.00000000000E+00 0. -1.
</event>
<event>
 4    1  0.2134315E+005  0.2010795E+02  0.7546771E-02  0.1532392E+00
          2   -1    0    0  503    0  0.00000000000E+00  0.00000000000E+00  0.15634526172E+03  0.15634526172E+03  0.00000000000E+00 0.  1.
         21   -1    0    0  501  502 -0.00000000000E+00 -0.00000000000E+00 -0.11252840620E+03  0.11252840620E+03  0.00000000000E+00 0.  1.
          2    1    1    2  501    0  0.20357422753E+01  0.20004638093E+02  0.15479146515E+03  0.15609204808E+03  0.00000000000E+00 0.  1.
         21    1    1    2  503  502 -0.20357422753E+01 -0.20004638093E+02 -0.11097460963E+03  0.11278161984E+03  0.00000000000E+00 0.  1.
</event>
<event>
 4    1  0.2134315E+005  0.2301094E+02  0.7546771E-02  0.1492361E+00
          2   -1    0    0  503    0  0.00000000000E+00  0.00000000000E+00  0.16345393260E+04  0.16345393260E+04  0.00000000000E+00 0.  1.
         21   -1    0    0  501  502 -0.00000000000E+00 -0.00000000000E+00 -0.17955292070E+01  0.17955292070E+01  0.00000000000E+00 0. -1.
          2    1    1    2  501    0  0.33744371686E+01 -0.22762171023E+02  0.15570649830E+04  0.15572350062E+04  0.00000000000E+00 0.  1.
         21    1    1    2  503  502 -0.33744371686E+01  0.22762171023E+02  0.75678813845E+02  0.79099849057E+02  0.00000000000E+00 0. -1.
</event>
<event>
 4    1  0.2134315E+005  0.2818662E+02  0.7546771E-02  0.1436039E+00
          2   -1    0    0  503    0  0.00000000000E+00  0.00000000000E+00  0.23851237637E+03  0.23851237637E+03  0.00000000000E+00 0.  1.
         21   -1    0    0  501  502 -0.00000000000E+00 -0.00000000000E+00 -0.58511075277E+01  0.58511075277E+01  0.00000000000E+00 0.  1.
          2    1    1    2  501    0  0.23534064904E+02  0.15512354655E+02  0.19651627081E+03  0.19852740378E+03  0.00000000000E+00 0.  1.
         21    1    1    2  503  502 -0.23534064904E+02 -0.15512354655E+02  0.36144998027E+02  0.45836080115E+02  0.00000000000E+00 0.  1.
</event>
<event>
 4    1  0.2134315E+005  0.2086392E+02  0.7546771E-02  0.1521217E+00
          2   -1    0    0  503    0  0.00000000000E+00  0.00000000000E+00  0.11415920190E+04  0.11415920190E+04  0.00000000000E+00 0. -1.
         21   -1    0    0  501  502 -0.00000000000E+00 -0.00000000000E+00 -0.11735409477E+01  0.11735409477E+01  0.00000000000E+00 0. -1.
          2    1    1    2  501    0  0.10964546605E+02  0.17750548331E+02  0.10396742764E+04  0.10398836013E+04  0.00000000000E+00 0. -1.
         21    1    1    2  503  502 -0.10964546605E+02 -0.17750548331E+02  0.10074420166E+03  0.10288195865E+03  0.00000000000E+00 0. -1.
</event>
<event>
 4    1  0.2134315E+005  0.2131471E+02  0.7546771E-02  0.1514819E+00
          2   -1    0    0  502    0  0.00000000000E+00  0.00000000000E+00  0.17220017171E+02  0.17220017171E+02  0.00000000000E+00 0.  1.
         21   -1    0    0  503  502 -0.00000000000E+00 -0.00000000000E+00 -0.28655005820E+02  0.28655005820E+02  0.00000000000E+00 0.  1.
          2    1    1    2  501    0  0.15441495394E+02  0.14692759965E+02  0.74118559130E+00  0.21327595539E+02  0.00000000000E+00 0.  1.
         21    1    1    2  503  501 -0.15441495394E+02 -0.14692759965E+02 -0.12176174240E+02  0.24547427452E+02  0.00000000000E+00 0.  1.
</event>
<event>
 4    1  0.2134315E+005  0.2672001E+02  0.7546771E-02  0.1450441E+00
          2   -1    0    0  502    0  0.00000000000E+00  0.00000000000E+00  0.10601967786E+04  0.10601967786E+04  0.00000000000E+00 0. -1.
         21   -1    0    0  503  502 -0.00000000000E+00 -0.00000000000E+00 -0.71967778202E+01  0.71967778202E+01  0.00000000000E+00 0. -1.
          2    1    1    2  501    0 -0.74248542885E+01 -0.25667688740E+02  0.10346139322E+04  0.10349589110E+04  0.00000000000E+00 0. -1.
         21    1    1    2  503  501  0.74248542885E+01  0.25667688740E+02  0.18386068551E+02  0.32434645415E+02  0.00000000000E+00 0. -1.
</event>
<event>
 4    1  0.2134315E+005  0.2150003E+02  0.7546771E-02  0.1512244E+00
          2   -1    0    0  503    0  0.00000000000E+00  0.00000000000E+00  0.10851427436E+04  0.10851427436E+04  0.00000000000E+00 0. -1.
         21   -1    0    0  501  502 -0.00000000000E+00 -0.00000000000E+00 -0.42614154991E+00  0.42614154991E+00  0.00000000000E+00 0. -1.
          2    1    1    2  501    0  0.12428556603E+02 -0.17543721865E+02  0.53185322518E+03  0.53228761429E+03  0.00000000000E+00 0. -1.
         21    1    1    2  503  502 -0.12428556603E+02  0.17543721865E+02  0.55286337686E+03  0.55328127085E+03  0.00000000000E+00 0. -1.
</event>
<event>
 4    1  0.2134315E+005  0.2488586E+02  0.7546771E-02  0.1470084E+00
          2   -1    0    0  503    0  0.00000000000E+00  0.00000000000E+00  0.17539139099E+02  0.17539139099E+02  0.00000000000E+00 0.  1.
         21   -1    0    0  501  502 -0.00000000000E+00 -0.00000000000E+00 -0.73212902896E+02  0.73212902896E+02  0.00000000000E+00 0.  1.
          2    1    1    2  501    0  0.69778770909E+01  0.23887549700E+02  0.48120686246E+01  0.25346830252E+02  0.00000000000E+00 0.  1.
         21    1    1    2  503  502 -0.69778770909E+01 -0.23887549700E+02 -0.60485832422E+02  0.65405211743E+02  0.00000000000E+00 0.  1.
</event>
<event>
 4    1  0.2134315E+005  0.2452628E+02  0.7546771E-02  0.1474173E+00
          2   -1    0    0  503    0  0.00000000000E+00  0.00000000000E+00  0.83890767917E+03  0.83890767917E+03  0.00000000000E+00 0. -1.
         21   -1    0    0  501  502 -0.00000000000E+00 -0.00000000000E+00 -0.80438175859E+00  0.80438175859E+00  0.00000000000E+00 0.  1.
          2    1    1    2  501    0  0.25645270075E+01  0.24391837197E+02  0.28070900349E+03  0.28177842920E+03  0.00000000000E+00 0. -1.
         21    1    1    2  503  502 -0.25645270075E+01 -0.24391837197E+02  0.55739429392E+03  0.55793363173E+03  0.00000000000E+00 0.  1.
</event>
<event>
 4    1  0.2134315E+005  0.2590802E+02  0.7546771E-02  0.1458897E+00
          2   -1    0    0  502    0  0.00000000000E+00  0.00000000000E+00  0.64453988754E+01  0.64453988754E+01  0.00000000000E+00 0.  1.
         21   -1    0    0  503  502 -0.00000000000E+00 -0.00000000000E+00 -0.22310907626E+03  0.22310907626E+03  0.00000000000E+00 0.  1.
          2    1    1    2  501    0 -0.18408204241E+02 -0.18230837052E+02 -0.24518382325E+02  0.35670386525E+02  0.00000000000E+00 0.  1.
         21    1    1    2  503  501  0.18408204241E+02  0.18230837052E+02 -0.19214529506E+03  0.19388408861E+03  0.00000000000E+00 0.  1.
</event>
<event>
 4    1  0.2134315E+005  0.2438705E+02  0.7546771E-02  0.1475779E+00
          2   -1    0    0  503    0  0.00000000000E+00  0.00000000000E+00  0.13360020276E+01  0.13360020276E+01  0.00000000000E+00 0.  1.
         21   -1    0    0  501  502 -0.00000000000E+00 -0.00000000000E+00 -0.47248359335E+03  0.47248359335E+03  0.00000000000E+00 0.  1.
          2    1    1    2  501    0  0.63933943628E+01  0.23534076974E+02 -0.17859718875E+03  0.18025449814E+03  0.00000000000E+00 0.  1.
         21    1    1    2  503  502 -0.63933943628E+01 -0.23534076974E+02 -0.29255040257E+03  0.29356509723E+03  0.00000000000E+00 0.  1.
</event>
<event>
 4    1  0.2134315E+005  0.4050873E+02  0.7546771E-02  0.1345530E+00
          2   -1    0    0  502    0  0.00000000000E+00  0.00000000000E+00  0.26386781490E+03  0.26386781490E+03  0.00000000000E+00 0. -1.
         21   -1    0    0  503  502 -0.00000000000E+00 -0.00000000000E+00 -0.15516927335E+02  0.15516927335E+02  0.00000000000E+00 0.  1.
          2    1    1    2  501    0 -0.12046058742E+01 -0.40490816695E+02  0.23231040820E+03  0.23581578206E+03  0.00000000000E+00 0. -1.
         21    1    1    2  503  501  0.12046058742E+01  0.40490816695E+02  0.16040479361E+02  0.43568960168E+02  0.00000000000E+00 0.  1.
</event>
<event>
 4    1  0.2134315E+005  0.2838757E+02  0.7546771E-02  0.1434146E+00
          2   -1    0    0  502    0  0.00000000000E+00  0.00000000000E+00  0.82166484669E+03  0.82166484669E+03  0.00000000000E+00 0.  1.
         21   -1    0    0  503  502 -0.00000000000E+00 -0.00000000000E+00 -0.10956480062E+01  0.10956480062E+01  0.00000000000E+00 0.  1.
          2    1    1    2  501    0 -0.28383358248E+02 -0.48891500517E+00  0.54349856112E+03  0.54423941423E+03  0.00000000000E+00 0.  1.
         21    1    1    2  503  501  0.28383358248E+02  0.48891500517E+00  0.27707063756E+03  0.27852108046E+03  0.00000000000E+00 0.  1.
</event>
<event>
 4    1  0.2134315E+005  0.2623641E+02  0.7546771E-02  0.1455433E+00
          2   -1    0    0  502    0  0.00000000000E+00  0.00000000000E+00  0.25092279184E+03  0.25092279184E+03  0.00000000000E+00 0. -1.
         21   -1    0    0  503  502 -0.00000000000E+00 -0.00000000000E+00 -0.60273497348E+01  0.60273497348E+01  0.00000000000E+00 0. -1.
          2    1    1    2  501    0  0.66481293491E+01 -0.25380140281E+02  0.21728137174E+03  0.21885964372E+03  0.00000000000E+00 0. -1.
         21    1    1    2  503  501 -0.66481293491E+01  0.25380140281E+02  0.27614070362E+02  0.38090497850E+02  0.00000000000E+00 0. -1.
</event>
<event>
 4    1  0.2134315E+005  0.2589700E+02  0.7546771E-02  0.1459014E+00
          2   -1    0    0  503    0  0.00000000000E+00  0.00000000000E+00  0.29773844532E+03  0.29773844532E+03  0.00000000000E+00 0.  1.
         21   -1    0    0  501  502 -0.00000000000E+00 -0.00000000000E+00 -0.75649367480E+03  0.75649367480E+03  0.00000000000E+00 0.  1.
          2    1    1    2  501    0  0.25663761283E+02 -0.34678715909E+01  0.29695310354E+03  0.29808019136E+03  0.00000000000E+00 0.  1.
         21    1    1    2  503  502 -0.25663761283E+02  0.34678715909E+01 -0.75570833302E+03  0.75615192877E+03  0.00000000000E+00 0.  1.
</event>
<event>
 4    1  0.2134315E+005  0.2541693E+02  0.7546771E-02  0.1464193E+00
          2   -1    0    0  502    0  0.00000000000E+00  0.00000000000E+00  0.31178555995E+02  0.31178555995E+02  0.00000000000E+00 0. -1.
         21   -1    0    0  503  502 -0.00000000000E+00 -0.00000000000E+00 -0.43495681271E+02  0.43495681271E+02  0.00000000000E+00 0. -1.
          2    1    1    2  501    0  0.16116058127E+01 -0.25365788226E+02  0.20859435840E+02  0.32880640949E+02  0.00000000000E+00 0. -1.
         21    1    1    2  503  501 -0.16116058127E+01  0.25365788226E+02 -0.33176561116E+02  0.41793596317E+02  0.00000000000E+00 0. -1.
</event>
<event>
 4    1  0.2134315E+005  0.2252231E+02  0.7546771E-02  0.1498585E+00
          2   -1    0    0  502    0  0.00000000000E+00  0.00000000000E+00  0.18990768847E+04  0.18990768847E+04  0.00000000000E+00 0. -1.
         21   -1    0    0  503  502 -0.00000000000E+00 -0.00000000000E+00 -0.40279272375E+00  0.40279272375E+00  0.00000000000E+00 0.  1.
          2    1    1    2  501    0 -0.13464239384E+02 -0.18054608052E+02  0.15005668712E+04  0.15007358827E+04  0.00000000000E+00 0. -1.
         21    1    1    2  503  501  0.13464239384E+02  0.18054608052E+02  0.39810722078E+03  0.39874379475E+03  0.00000000000E+00 0.  1.
</event>
<event>
 4    1  0.2134315E+005  0.3626750E+02  0.7546771E-02  0.1371865E+00
          2   -1    0    0  502    0  0.00000000000E+00  0.00000000000E+00  0.13522523552E+04  0.13522523552E+04  0.00000000000E+00 0.  1.
         21   -1    0    0  503  502 -0.00000000000E+00 -0.00000000000E+00 -0.61282042775E+01  0.61282042775E+01  0.00000000000E+00 0.  1.
          2    1    1    2  501    0 -0.36249894142E+02  0.11299710201E+01  0.12960226350E+04  0.12965299851E+04  0.00000000000E+00 0.  1.
         21    1    1    2  503  501  0.36249894142E+02 -0.11299710201E+01  0.50101515860E+02  0.61850574381E+02  0.00000000000E+00 0.  1.
</event>
<event>
 4    1  0.2134315E+005  0.3028920E+02  0.7546771E-02  0.1417100E+00
          2   -1    0    0  503    0  0.00000000000E+00  0.00000000000E+00  0.94284222823E+03  0.94284222823E+03  0.00000000000E+00 0.  1.
         21   -1    0    0  501  502 -0.00000000000E+00 -0.00000000000E+00 -0.11278727522E+01  0.11278727522E+01  0.00000000000E+00 0.  1.
          2    1    1    2  501    0 -0.19436670205E+02  0.23230403501E+02  0.64572539147E+03  0.64643539274E+03  0.00000000000E+00 0.  1.
         21    1    1    2  503  502  0.19436670205E+02 -0.23230403501E+02  0.29598896401E+03  0.29753470825E+03  0.00000000000E+00 0.  1.
</event>
<event>
 4    1  0.2134315E+005  0.2733556E+02  0.7546771E-02  0.1444266E+00
          2   -1    0    0  502    0  0.00000000000E+00  0.00000000000E+00  0.17215153287E+04  0.17215153287E+04  0.00000000000E+00 0. -1.
         21   -1    0    0  503  502 -0.00000000000E+00 -0.00000000000E+00 -0.68887621233E+01  0.68887621233E+01  0.00000000000E+00 0.  1.
          2    1    1    2  501    0  0.37619436977E+01  0.27075458875E+02  0.16938460550E+04  0.16940666134E+04  0.00000000000E+00 0. -1.
         21    1    1    2  503  501 -0.37619436977E+01 -0.27075458875E+02  0.20780511621E+02  0.34337477440E+02  0.00000000000E+00 0.  1.
</event>
<event>
 4    1  0.2134315E+005  0.3155961E+02  0.7546771E-02  0.1406511E+00
          2   -1    0    0  502    0  0.00000000000E+00  0.00000000000E+00  0.49612040115E+03  0.49612040115E+03  0.00000000000E+00 0. -1.
         21   -1    0    0  503  502 -0.00000000000E+00 -0.00000000000E+00 -0.19348655764E+02  0.19348655764E+02  0.00000000000E+00 0.  1.
          2    1    1    2  501    0  0.14180386054E+02 -0.28194423580E+02  0.48238318059E+03  0.48341446170E+03  0.00000000000E+00 0. -1.
         21    1    1    2  503  501 -0.14180386054E+02  0.28194423580E+02 -0.56114351951E+01  0.32054595218E+02  0.00000000000E+00 0.  1.
</event>
<event>
 4    1  0.2134315E+005  0.2428182E+02  0.7546771E-02  0.1477000E+00
          2   -1    0    0  502    0  0.00000000000E+00  0.00000000000E+00  0.22640436252E+03  0.22640436252E+03  0.00000000000E+00 0. -1.
         21   -1    0    0  503  502 -0.00000000000E+00 -0.00000000000E+00 -0.11458882670E+04  0.11458882670E+04  0.00000000000E+00 0.  1.
          2    1    1    2  501    0 -0.35304718396E+01  0.24023787171E+02  0.22562422896E+03  0.22692707920E+03  0.00000000000E+00 0. -1.
         21    1    1    2  503  501  0.35304718396E+01 -0.24023787171E+02 -0.11451081334E+04  0.11453655503E+04  0.00000000000E+00 0.  1.
</event>
<event>
 4    1  0.2134315E+005  0.3135196E+02  0.7546771E-02  0.1408201E+00
          2   -1    0    0  503    0  0.00000000000E+00  0.00000000000E+00  0.73803857472E+03  0.73803857472E+03  0.00000000000E+00 0.  1.
         21   -1    0    0  501  502 -0.00000000000E+00 -0.00000000000E+00 -0.55596491146E+02  0.55596491146E+02  0.00000000000E+00 0.  1.
          2    1    1    2  501    0 -0.25428818764E+02  0.18339042711E+02  0.73325680817E+03  0.73392676204E+03  0.00000000000E+00 0.  1.
         21    1    1    2  503  502  0.25428818764E+02 -0.18339042711E+02 -0.50814724590E+02  0.59708303831E+02  0.00000000000E+00 0.  1.
</event>
<event>
 4    1  0.2134315E+005  0.2136016E+02  0.7546771E-02  0.1514184E+00
          2   -1    0    0  502    0  0.00000000000E+00  0.00000000000E+00  0.54670894243E+03  0.54670894243E+03  0.00000000000E+00 0. -1.
         21   -1    0    0  503  502 -0.00000000000E+00 -0.00000000000E+00 -0.32745297616E+01  0.32745297616E+01  0.00000000000E+00 0. -1.
          2    1    1    2  501    0  0.49340151954E+01  0.20782494424E+02  0.50909395712E+03  0.50954186654E+03  0.00000000000E+00 0. -1.
         21    1    1    2  503  501 -0.49340151954E+01 -0.20782494424E+02  0.34340455546E+02  0.40441605649E+02  0.00000000000E+00 0. -1.
</event>
<event>
 4    1  0.2134315E+005  0.2082442E+02  0.7546771E-02  0.1521786E+00
          2   -1    0    0  503    0  0.00000000000E+00  0.00000000000E+00  0.17087427983E+02  0.17087427983E+02  0.00000000000E+00 0.  1.
         21   -1    0    0  501  502 -0.00000000000E+00 -0.00000000000E+00 -0.54652350163E+02  0.54652350163E+02  0.00000000000E+00 0. -1.
          2    1    1    2  501    0  0.41664511585E+01  0.20403363922E+02  0.74696425362E+01  0.22123565133E+02  0.00000000000E+00 0.  1.
         21    1    1    2  503  502 -0.41664511585E+01 -0.20403363922E+02 -0.45034564716E+02  0.49616213013E+02  0.00000000000E+00 0. -1.
</event>
<event>
 4    1  0.2134315E+005  0.2031630E+02  0.7546771E-02  0.1529254E+00
          2   -1    0    0  502    0  0.00000000000E+00  0.00000000000E+00  0.15755474146E+04  0.15755474146E+04  0.00000000000E+00 0.  1.
         21   -1    0    0  503  502 -0.00000000000E+00 -0.00000000000E+00 -0.33472381610E+00  0.33472381610E+00  0.00000000000E+00 0.  1.
          2    1    1    2  501    0 -0.20139205567E+02 -0.26766802326E+01  0.11549451732E+04  0.11551238485E+04  0.00000000000E+00 0.  1.
         21    1    1    2  503  501  0.20139205567E+02  0.26766802326E+01  0.42026751757E+03  0.42075828993E+03  0.00000000000E+00 0.  1.
</event>
<event>
 4    1  0.2134315E+005  0.3366765E+02  0.7546771E-02  0.1390180E+00
          2   -1    0    0  503    0  0.00000000000E+00  0.00000000000E+00  0.34488077758E+03  0.34488077758E+03  0.00000000000E+00 0.  1.
         21   -1    0    0  501  502 -0.00000000000E+00 -0.00000000000E+00 -0.39450792897E+02  0.39450792897E+02  0.00000000000E+00 0.  1.
          2    1    1    2  501    0 -0.22194951029E+02  0.25315906852E+02  0.33670199131E+03  0.33838106026E+03  0.00000000000E+00 0.  1.
         21    1    1    2  503  502  0.22194951029E+02 -0.25315906852E+02 -0.31272006626E+02  0.45950510219E+02  0.00000000000E+00 0.  1.
</event>
<event>
 4    1  0.2134315E+005  0.2226038E+02  0.7546771E-02  0.1502000E+00
          2   -1    0    0  503    0  0.00000000000E+00  0.00000000000E+00  0.46478480322E+01  0.46478480322E+01  0.00000000000E+00 0. -1.
         21   -1    0    0  501  502 -0.00000000000E+00 -0.00000000000E+00 -0.42224497187E+03  0.42224497187E+03  0.00000000000E+00 0.  1.
          2    1    1    2  501    0 -0.10637513471E+01 -0.22234948449E+02 -0.24255980699E+02  0.32922288789E+02  0.00000000000E+00 0. -1.
         21    1    1    2  503  502  0.10637513471E+01  0.22234948449E+02 -0.39334114314E+03  0.39397053111E+03  0.00000000000E+00 0.  1.
</event>
<event>
 4    1  0.2134315E+005  0.6546374E+02  0.7546771E-02  0.1242319E+00
          2   -1    0    0  503    0  0.00000000000E+00  0.00000000000E+00  0.10155755006E+04  0.10155755006E+04  0.00000000000E+00 0. -1.
         21   -1    0    0  501  502 -0.00000000000E+00 -0.00000000000E+00 -0.10093055282E+02  0.10093055282E+02  0.00000000000E+00 0. -1.
          2    1    1    2  501    0  0.63260908504E+02 -0.16839209820E+02  0.89394769485E+03  0.89634144312E+03  0.00000000000E+00 0. -1.
         21    1    1    2  503  502 -0.63260908504E+02  0.16839209820E+02  0.11153475045E+03  0.12932711274E+03  0.00000000000E+00 0. -1.
</event>
<event>
 4    1  0.2134315E+005  0.2200860E+02  0.7546771E-02  0.1505337E+00
          2   -1    0    0  502    0  0.00000000000E+00  0.00000000000E+00  0.53290250648E+03  0.53290250648E+03  0.00000000000E+00 0.  1.
         21   -1    0    0  503  502 -0.00000000000E+00 -0.00000000000E+00 -0.20233441658E+01  0.20233441658E+01  0.00000000000E+00 0. -1.
          2    1    1    2  501    0  0.19951101654E+02 -0.92915046545E+01  0.46393445744E+03  0.46445619741E+03  0.00000000000E+00 0.  1.
         21    1    1    2  503  501 -0.19951101654E+02  0.92915046545E+01  0.66944704875E+02  0.70469653233E+02  0.00000000000E+00 0. -1.
</event>
<event>
 4    1  0.2134315E+005  0.2031691E+02  0.7546771E-02  0.1529245E+00
          2   -1    0    0  502    0  0.00000000000E+00  0.00000000000E+00  0.43785520091E+02  0.43785520091E+02  0.00000000000E+00 0.  1.
         21   -1    0    0  503  502 -0.00000000000E+00 -0.00000000000E+00 -0.10106764323E+02  0.10106764323E+02  0.00000000000E+00 0. -1.
          2    1    1    2  501    0 -0.11023633287E+02 -0.17066229284E+02  0.98523488692E+01  0.22579757551E+02  0.00000000000E+00 0.  1.
         21    1    1    2  503  501  0.11023633287E+02  0.17066229284E+02  0.23826406899E+02  0.31312526862E+02  0.00000000000E+00 0. -1.
</event>
<event>
 4    1  0.2134315E+005  0.3331355E+02  0.7546771E-02  0.1392823E+00
          2   -1    0    0  503    0  0.00000000000E+00  0.00000000000E+00  0.17671661171E+03  0.17671661171E+03  0.00000000000E+00 0. -1.
         21   -1    0    0  501  502 -0.00000000000E+00 -0.00000000000E+00 -0.13269509060E+02  0.13269509060E+02  0.00000000000E+00 0. -1.
          2    1    1    2  501    0  0.17484581037E+02  0.28356337066E+02  0.15066583419E+03  0.15430484768E+03  0.00000000000E+00 0. -1.
         21    1    1    2  503  502 -0.17484581037E+02 -0.28356337066E+02  0.12781268460E+02  0.35681273089E+02  0.00000000000E+00 0. -1.
</event>
<event>
 4    1  0.2134315E+005  0.3851599E+02  0.7546771E-02  0.1357408E+00
          2   -1    0    0  502    0  0.00000000000E+00  0.00000000000E+00  0.40865104559E+03  0.40865104559E+03  0.00000000000E+00 0.  1.
         21   -1    0    0  503  502 -0.00000000000E+00 -0.00000000000E+00 -0.19276600558E+02  0.19276600558E+02  0.00000000000E+00 0.  1.
          2    1    1    2  501    0 -0.37981635255E+02 -0.63934948427E+01  0.38745412578E+03  0.38936381570E+03  0.00000000000E+00 0.  1.
         21    1    1    2  503  501  0.37981635255E+02  0.63934948427E+01  0.19203192551E+01  0.38563830450E+02  0.00000000000E+00 0.  1.
</event>
<event>
 4    1  0.2134315E+005  0.3312148E+02  0.7546771E-02  0.1394273E+00
          2   -1    0    0  503    0  0.00000000000E+00  0.00000000000E+00  0.11970579587E+04  0.11970579587E+04  0.00000000000E+00 0. -1.
         21   -1    0    0  501  502 -0.00000000000E+00 -0.00000000000E+00 -0.38820755897E+02  0.38820755897E+02  0.00000000000E+00 0.  1.
          2    1    1    2  501    0 -0.99625018721E+01 -0.31587670934E+02  0.11897205581E+04  0.11901815150E+04  0.00000000000E+00 0. -1.
         21    1    1    2  503  502  0.99625018721E+01  0.31587670934E+02 -0.31483355214E+02  0.45697199630E+02  0.00000000000E+00 0.  1.
</event>
<event>
 4    1  0.2134315E+005  0.2666893E+02  0.7546771E-02  0.1450962E+00
          2   -1    0    0  503    0  0.00000000000E+00  0.00000000000E+00  0.74460537185E+02  0.74460537185E+02  0.00000000000E+00 0. -1.
         21   -1    0    0  501  502 -0.00000000000E+00 -0.00000000000E+00 -0.19427612503E+02  0.19427612503E+02  0.00000000000E+00 0. -1.
          2    1    1    2  501    0  0.25872879880E+02 -0.64673153622E+01  0.60986600825E+02  0.66562734030E+02  0.00000000000E+00 0. -1.
         21    1    1    2  503  502 -0.25872879880E+02  0.64673153622E+01 -0.59536761437E+01  0.27325415659E+02  0.00000000000E+00 0. -1.
</event>
<event>
 4    1  0.2134315E+005  0.3493823E+02  0.7546771E-02  0.1380998E+00
          2   -1    0    0  503    0  0.00000000000E+00  0.00000000000E+00  0.74966722068E+03  0.74966722068E+03  0.00000000000E+00 0. -1.
         21   -1    0    0  501  502 -0.00000000000E+00 -0.00000000000E+00 -0.29799072201E+01  0.29799072201E+01  0.00000000000E+00 0. -1.
          2    1    1    2  501    0  0.28465063198E+02  0.20258823928E+02  0.62678999125E+03  0.62776299102E+03  0.00000000000E+00 0. -1.
         21    1    1    2  503  502 -0.28465063198E+02 -0.20258823928E+02  0.11989732221E+03  0.12488413687E+03  0.00000000000E+00 0. -1.
</event>
<event>
 4    1  0.2134315E+005  0.3327634E+02  0.7546771E-02  0.1393103E+00
          2   -1    0    0  502    0  0.00000000000E+00  0.00000000000E+00  0.82347290164E+03  0.82347290164E+03  0.00000000000E+00 0.  1.
         21   -1    0    0  503  502 -0.00000000000E+00 -0.00000000000E+00 -0.52188855858E+02  0.52188855858E+02  0.00000000000E+00 0. -1.
          2    1    1    2  501    0 -0.21057573255E+02  0.25766129757E+02  0.81779555601E+03  0.81847228803E+03  0.00000000000E+00 0.  1.
         21    1    1    2  503  501  0.21057573255E+02 -0.25766129757E+02 -0.46511510233E+02  0.57189469469E+02  0.00000000000E+00 0. -1.
</event>
<event>
 4    1  0.2134315E+005  0.2231632E+02  0.7546771E-02  0.1501266E+00
          2   -1    0    0  503    0  0.00000000000E+00  0.00000000000E+00  0.10043055970E+04  0.10043055970E+04  0.00000000000E+00 0. -1.
         21   -1    0    0  501  502 -0.00000000000E+00 -0.00000000000E+00 -0.39962910486E+01  0.39962910486E+01  0.00000000000E+00 0.  1.
          2    1    1    2  501    0  0.20565322445E+02 -0.86651879409E+01  0.97199097821E+03  0.97224712892E+03  0.00000000000E+00 0. -1.
         21    1    1    2  503  502 -0.20565322445E+02  0.86651879409E+01  0.28318327707E+02  0.36054759096E+02  0.00000000000E+00 0.  1.
</event>
<event>
 4    1  0.2134315E+005  0.3409779E+02  0.7546771E-02  0.1387019E+00
          2   -1    0    0  502    0  0.00000000000E+00  0.00000000000E+00  0.17055862960E+04  0.17055862960E+04  0.00000000000E+00 0. -1.
         21   -1    0    0  503  502 -0.00000000000E+00 -0.00000000000E+00 -0.45775089831E+01  0.45775089831E+01  0.00000000000E+00 0.  1.
          2    1    1    2  501    0  0.77216893830E+01 -0.33211970808E+02  0.16393521665E+04  0.16397067376E+04  0.00000000000E+00 0. -1.
         21    1    1    2  503  501 -0.77216893830E+01  0.33211970808E+02  0.61656620510E+02  0.70457067386E+02  0.00000000000E+00 0.  1.
</event>
<event>
 4    1  0.2134315E+005  0.2648367E+02  0.7546771E-02  0.1452865E+00
          2   -1    0    0  503    0  0.00000000000E+00  0.00000000000E+00  0.26199583854E+03  0.26199583854E+03  0.00000000000E+00 0. -1.
         21   -1    0    0  501  502 -0.00000000000E+00 -0.00000000000E+00 -0.37671345033E+02  0.37671345033E+02  0.00000000000E+00 0. -1.
          2    1    1    2  501    0  0.26482037643E+02 -0.29391031581E+00  0.25657383506E+03  0.25793704181E+03  0.00000000000E+00 0. -1.
         21    1    1    2  503  502 -0.26482037643E+02  0.29391031581E+00 -0.32249341553E+02  0.41730141763E+02  0.00000000000E+00 0. -1.
</event>
<event>
 4    1  0.2134315E+005  0.2164046E+02  0.7546771E-02  0.1510314E+00
          2   -1    0    0  503    0  0.00000000000E+00  0.00000000000E+00  0.84790303416E+01  0.84790303416E+01  0.00000000000E+00 0.  1.
         21   -1    0    0  501  502 -0.00000000000E+00 -0.00000000000E+00 -0.68380193352E+02  0.68380193352E+02  0.00000000000E+00 0.  1.
          2    1    1    2  501    0 -0.15292498282E+01 -0.21586360878E+02 -0.13098944259E+02  0.25296085106E+02  0.00000000000E+00 0.  1.
         21    1    1    2  503  502  0.15292498282E+01  0.21586360878E+02 -0.46802218752E+02  0.51563138588E+02  0.00000000000E+00 0.  1.
</event>
<event>
 4    1  0.2134315E+005  0.2312881E+02  0.7546771E-02  0.1490887E+00
          2   -1    0    0  502    0  0.00000000000E+00  0.00000000000E+00  0.11076082939E+02  0.11076082939E+02  0.00000000000E+00 0.  1.
         21   -1    0    0  503  502 -0.00000000000E+00 -0.00000000000E+00 -0.37954093429E+03  0.37954093429E+03  0.00000000000E+00 0. -1.
          2    1    1    2  501    0 -0.10701121283E+02 -0.20504339541E+02 -0.17732121886E+01  0.23196685500E+02  0.00000000000E+00 0.  1.
         21    1    1    2  503  501  0.10701121283E+02  0.20504339541E+02 -0.36669163916E+03  0.36742033173E+03  0.00000000000E+00 0. -1.
</event>
<event>
 4    1  0.2134315E+005  0.2006683E+02  0.7546771E-02  0.1533017E+00
          2   -1    0    0  502    0  0.00000000000E+00  0.00000000000E+00  0.88139813325E+03  0.88139813325E+03  0.00000000000E+00 0. -1.
         21   -1    0    0  503  502 -0.00000000000E+00 -0.00000000000E+00 -0.46160527854E+00  0.46160527854E+00  0.00000000000E+00 0. -1.
          2    1    1    2  501    0 -0.31260309289E+01  0.19821845380E+02  0.48516310171E+03  0.48557791639E+03  0.00000000000E+00 0. -1.
         21    1    1    2  503  501  0.31260309289E+01 -0.19821845380E+02  0.39577342626E+03  0.39628182214E+03  0.00000000000E+00 0. -1.
</event>
<event>
 4    1  0.2134315E+005  0.3301274E+02  0.7546771E-02  0.1395100E+00
          2   -1    0    0  502    0  0.00000000000E+00  0.00000000000E+00  0.45333620968E+03  0.45333620968E+03  0.00000000000E+00 0.  1.
         21   -1    0    0  503  502 -0.00000000000E+00 -0.00000000000E+00 -0.61108126319E+02  0.61108126319E+02  0.00000000000E+00 0.  1.
          2    1    1    2  501    0 -0.22704057212E+02  0.23965957380E+02  0.44822577193E+03  0.44943985576E+03  0.00000000000E+00 0.  1.
         21    1    1    2  503  501  0.22704057212E+02 -0.23965957380E+02 -0.55997688564E+02  0.65004480241E+02  0.00000000000E+00 0.  1.
</event>
<event>
 4    1  0.2134315E+005  0.2071957E+02  0.7546771E-02  0.1523307E+00
          2   -1    0    0  503    0  0.00000000000E+00  0.00000000000E+00  0.48279084118E+02  0.48279084118E+02  0.00000000000E+00 0.  1.
         21   -1    0    0  501  502 -0.00000000000E+00 -0.00000000000E+00 -0.90971338293E+01  0.90971338293E+01  0.00000000000E+00 0.  1.
          2    1    1    2  501    0  0.19741534965E+02 -0.62906467080E+01  0.23898287558E+02  0.31629552431E+02  0.00000000000E+00 0.  1.
         21    1    1    2  503  502 -0.19741534965E+02  0.62906467080E+01  0.15283662731E+02  0.25746665517E+02  0.00000000000E+00 0.  1.
</event>
<event>
 4    1  0.2134315E+005  0.3414084E+02  0.7546771E-02  0.1386706E+00
          2   -1    0    0  503    0  0.00000000000E+00  0.00000000000E+00  0.54737385242E+03  0.54737385242E+03  0.00000000000E+00 0.  1.
         21   -1    0    0  501  502 -0.00000000000E+00 -0.00000000000E+00 -0.59128821320E+02  0.59128821320E+02  0.00000000000E+00 0. -1.
          2    1    1    2  501    0 -0.18870450790E+02  0.28451767830E+02  0.54186321439E+03  0.54293769450E+03  0.00000000000E+00 0.  1.
         21    1    1    2  503  502  0.18870450790E+02 -0.28451767830E+02 -0.53618183291E+02  0.63564979235E+02  0.00000000000E+00 0. -1.
</event>
<event>
 4    1  0.2134315E+005  0.2190601E+02  0.7546771E-02  0.1506712E+00
          2   -1    0    0  502    0  0.00000000000E+00  0.00000000000E+00  0.35612706519E+03  0.35612706519E+03  0.00000000000E+00 0.  1.
         21   -1    0    0  503  502 -0.00000000000E+00 -0.00000000000E+00 -0.12546398702E+02  0.12546398702E+02  0.00000000000E+00 0. -1.
          2    1    1    2  501    0 -0.15949356206E+02 -0.15016368277E+02  0.34594713152E+03  0.34664000215E+03  0.00000000000E+00 0.  1.
         21    1    1    2  503  501  0.15949356206E+02  0.15016368277E+02 -0.23664650355E+01  0.22033461743E+02  0.00000000000E+00 0. -1.
</event>
<event>
 4    1  0.2134315E+005  0.3519294E+02  0.7546771E-02  0.1379212E+00
          2   -1    0    0  503    0  0.00000000000E+00  0.00000000000E+00  0.17958399706E+04  0.17958399706E+04  0.00000000000E+00 0. -1.
         21   -1    0    0  501  502 -0.00000000000E+00 -0.00000000000E+00 -0.74123354637E+00  0.74123354637E+00  0.00000000000E+00 0. -1.
          2    1    1    2  501    0 -0.32274002783E+02  0.14033241816E+02  0.11344663673E+04  0.11350121064E+04  0.00000000000E+00 0. -1.
         21    1    1    2  503  502  0.32274002783E+02 -0.14033241816E+02  0.66063236979E+03  0.66156909779E+03  0.00000000000E+00 0. -1.
</event>
<event>
 4    1  0.2134315E+005  0.2592874E+02  0.7546771E-02  0.1458676E+00
          2   -1    0    0  503    0  0.00000000000E+00  0.00000000000E+00  0.47936086872E+03  0.47936086872E+03  0.00000000000E+00 0.  1.
         21   -1    0    0  501  502 -0.00000000000E+00 -0.00000000000E+00 -0.16704136559E+01  0.16704136559E+01  0.00000000000E+00 0.  1.
          2    1    1    2  501    0 -0.14932529847E+02  0.21197152535E+02  0.33516940740E+03  0.33617083660E+03  0.00000000000E+00 0.  1.
         21    1    1    2  503  502  0.14932529847E+02 -0.21197152535E+02  0.14252104766E+03  0.14486044578E+03  0.00000000000E+00 0.  1.
</event>
<event>
 4    1  0.2134315E+005  0.2473149E+03  0.7546771E-02  0.1025872E+00
          2   -1    0    0  503    0  0.00000000000E+00  0.00000000000E+00  0.92907529673E+03  0.92907529673E+03  0.00000000000E+00 0. -1.
         21   -1    0    0  501  502 -0.00000000000E+00 -0.00000000000E+00 -0.31577116039E+03  0.31577116039E+03  0.00000000000E+00 0. -1.
          2    1    1    2  501    0  0.24499153498E+02 -0.24609842562E+03  0.86040376388E+03  0.89524258194E+03  0.00000000000E+00 0. -1.
         21    1    1    2  503  502 -0.24499153498E+02  0.24609842562E+03 -0.24709962754E+03  0.34960387519E+03  0.00000000000E+00 0. -1.
</event>
<event>
 4    1  0.2134315E+005  0.2191809E+02  0.7546771E-02  0.1506550E+00
          2   -1    0    0  502    0  0.00000000000E+00  0.00000000000E+00  0.97743341851E+03  0.97743341851E+03  0.00000000000E+00 0.  1.
         21   -1    0    0  503  502 -0.00000000000E+00 -0.00000000000E+00 -0.41318030217E+01  0.41318030217E+01  0.00000000000E+00 0.  1.
          2    1    1    2  501    0 -0.77473215538E+00  0.21904388687E+02  0.94731929080E+03  0.94757281577E+03  0.00000000000E+00 0.  1.
         21    1    1    2  503  501  0.77473215538E+00 -0.21904388687E+02  0.25982324690E+02  0.33992405769E+02  0.00000000000E+00 0.  1.
</event>
<event>
 4    1  0.2134315E+005  0.2716612E+02  0.7546771E-02  0.1445946E+00
          2   -1    0    0  502    0  0.00000000000E+00  0.00000000000E+00  0.32343960633E+03  0.32343960633E+03  0.00000000000E+00 0.  1.
         21   -1    0    0  503  502 -0.00000000000E+00 -0.00000000000E+00 -0.75854433420E+01  0.75854433420E+01  0.00000000000E+00 0.  1.
          2    1    1    2  501    0  0.11446957998E+02 -0.24636668017E+02  0.29632541346E+03  0.29756805763E+03  0.00000000000E+00 0.  1.
         21    1    1    2  503  501 -0.11446957998E+02  0.24636668017E+02  0.19528749524E+02  0.33456992040E+02  0.00000000000E+00 0.  1.
</event>
<event>
 4    1  0.2134315E+005  0.2018225E+02  0.7546771E-02  0.1531268E+00
          2   -1    0    0  503    0  0.00000000000E+00  0.00000000000E+00  0.84442558849E+03  0.84442558849E+03  0.00000000000E+00 0.  1.
         21   -1    0    0  501  502 -0.00000000000E+00 -0.00000000000E+00 -0.65454436592E+00  0.65454436592E+00  0.00000000000E+00 0.  1.
          2    1    1    2  501    0  0.84265724860E+01 -0.18338922664E+02  0.63859910221E+03  0.63891794196E+03  0.00000000000E+00 0.  1.
         21    1    1    2  503  502 -0.84265724860E+01  0.18338922664E+02  0.20517194191E+03  0.20616219090E+03  0.00000000000E+00 0.  1.
</event>
<event>
 4    1  0.2134315E+005  0.2235646E+02  0.7546771E-02  0.1500741E+00
          2   -1    0    0  503    0  0.00000000000E+00  0.00000000000E+00  0.11999445404E+04  0.11999445404E+04  0.00000000000E+00 0. -1.
         21   -1    0    0  501  502 -0.00000000000E+00 -0.00000000000E+00 -0.26966098222E+01  0.26966098222E+01  0.00000000000E+00 0.  1.
          2    1    1    2  501    0  0.22283482136E+02  0.18048854080E+01  0.11515565317E+04  0.11517735268E+04  0.00000000000E+00 0. -1.
         21    1    1    2  503  502 -0.22283482136E+02 -0.18048854080E+01  0.45691398844E+02  0.50867623453E+02  0.00000000000E+00 0.  1.
</event>
<event>
 4    1  0.2134315E+005  0.2072597E+02  0.7546771E-02  0.1523213E+00
          2   -1    0    0  503    0  0.00000000000E+00  0.00000000000E+00  0.69840863376E+03  0.69840863376E+03  0.00000000000E+00 0.  1.
         21   -1    0    0  501  502 -0.00000000000E+00 -0.00000000000E+00 -0.23321332102E+02  0.23321332102E+02  0.00000000000E+00 0.  1.
          2    1    1    2  501    0 -0.20421837645E+02  0.35375926883E+01  0.69361821024E+03  0.69392779711E+03  0.00000000000E+00 0.  1.
         21    1    1    2  503  502  0.20421837645E+02 -0.35375926883E+01 -0.18530908583E+02  0.27802168759E+02  0.00000000000E+00 0.  1.
</event>
<event>
 4    1  0.2134315E+005  0.3339869E+02  0.7546771E-02  0.1392184E+00
          2   -1    0    0  503    0  0.00000000000E+00  0.00000000000E+00  0.21227886557E+04  0.21227886557E+04  0.00000000000E+00 0. -1.
         21   -1    0    0  501  502 -0.00000000000E+00 -0.00000000000E+00 -0.17085691951E+01  0.17085691951E+01  0.00000000000E+00 0. -1.
          2    1    1    2  501    0  0.18560513599E+02 -0.27766525135E+02  0.19444734135E+04  0.19447602239E+04  0.00000000000E+00 0. -1.
         21    1    1    2  503  502 -0.18560513599E+02  0.27766525135E+02  0.17660667294E+03  0.17973700095E+03  0.00000000000E+00 0. -1.
</event>
<event>
 4    1  0.2134315E+005  0.3995090E+02  0.7546771E-02  0.1348774E+00
          2   -1    0    0  502    0  0.00000000000E+00  0.00000000000E+00  0.41385467091E+03  0.41385467091E+03  0.00000000000E+00 0. -1.
         21   -1    0    0  503  502 -0.00000000000E+00 -0.00000000000E+00 -0.13617475376E+03  0.13617475376E+03  0.00000000000E+00 0. -1.
          2    1    1    2  501    0 -0.36630332708E+02 -0.15946583518E+02  0.40993235284E+03  0.41187450602E+03  0.00000000000E+00 0. -1.
         21    1    1    2  503  501  0.36630332708E+02  0.15946583518E+02 -0.13225243569E+03  0.13815491865E+03  0.00000000000E+00 0. -1.
</event>
<event>
 4    1  0.2134315E+005  0.3470629E+02  0.7546771E-02  0.1382640E+00
          2   -1    0    0  503    0  0.00000000000E+00  0.00000000000E+00  0.94573404124E+02  0.94573404124E+02  0.00000000000E+00 0. -1.
         21   -1    0    0  501  502 -0.00000000000E+00 -0.00000000000E+00 -0.29982018430E+02  0.29982018430E+02  0.00000000000E+00 0. -1.
          2    1    1    2  501    0  0.99770214900E+01 -0.33241322239E+02  0.79528239559E+02  0.86771350971E+02  0.00000000000E+00 0. -1.
         21    1    1    2  503  502 -0.99770214900E+01  0.33241322239E+02 -0.14936853865E+02  0.37784071582E+02  0.00000000000E+00 0. -1.
</event>
<event>
 4    1  0.2134315E+005  0.3923447E+02  0.7546771E-02  0.1353031E+00
          2   -1    0    0  503    0  0.00000000000E+00  0.00000000000E+00  0.27307657957E+02  0.27307657957E+02  0.00000000000E+00 0. -1.
         21   -1    0    0  501  502 -0.00000000000E+00 -0.00000000000E+00 -0.89482343264E+02  0.89482343264E+02  0.00000000000E+00 0.  1.
          2    1    1    2  501    0  0.33356570306E+02 -0.20656311719E+02  0.44348064632E+01  0.39484319733E+02  0.00000000000E+00 0. -1.
         21    1    1    2  503  502 -0.33356570306E+02  0.20656311719E+02 -0.66609491770E+02  0.77305681488E+02  0.00000000000E+00 0.  1.
</event>
<event>
 4    1  0.2134315E+005  0.2464605E+02  0.7546771E-02  0.1472802E+00
          2   -1    0    0  502    0  0.00000000000E+00  0.00000000000E+00  0.14178363748E+04  0.14178363748E+04  0.00000000000E+00 0.  1.
         21   -1    0    0  503  502 -0.00000000000E+00 -0.00000000000E+00 -0.58422508137E+01  0.58422508137E+01  0.00000000000E+00 0. -1.
          2    1    1    2  501    0 -0.14584437213E+02  0.19867606050E+02  0.13912395185E+04  0.13914578059E+04  0.00000000000E+00 0.  1.
         21    1    1    2  503  501  0.14584437213E+02 -0.19867606050E+02  0.20754605510E+02  0.32220819804E+02  0.00000000000E+00 0. -1.
</event>
<event>
 4    1  0.2134315E+005  0.2665404E+02  0.7546771E-02  0.1451115E+00
          2   -1    0    0  502    0  0.00000000000E+00  0.00000000000E+00  0.13918482052E+04  0.13918482052E+04  0.00000000000E+00 0.  1.
         21   -1    0    0  503  502 -0.00000000000E+00 -0.00000000000E+00 -0.21069776787E+01  0.21069776787E+01  0.00000000000E+00 0.  1.
          2    1    1    2  501    0  0.26653199850E+02  0.21180624880E+00  0.13015791461E+04  0.13018520313E+04  0.00000000000E+00 0.  1.
         21    1    1    2  503  501 -0.26653199850E+02 -0.21180624880E+00  0.88162081429E+02  0.92103151553E+02  0.00000000000E+00 0.  1.
</event>
<event>
 4    1  0.2134315E+005  0.3193856E+02  0.7546771E-02  0.1403466E+00
          2   -1    0    0  503    0  0.00000000000E+00  0.00000000000E+00  0.87744314599E+01  0.87744314599E+01  0.00000000000E+00 0. -1.
         21   -1    0    0  501  502 -0.00000000000E+00 -0.00000000000E+00 -0.15455458938E+03  0.15455458938E+03  0.00000000000E+00 0. -1.
          2    1    1    2  501    0  0.16334310440E+01 -0.31896761035E+02 -0.32237367948E+02  0.45379724037E+02  0.00000000000E+00 0. -1.
         21    1    1    2  503  502 -0.16334310440E+01  0.31896761035E+02 -0.11354278997E+03  0.11794929680E+03  0.00000000000E+00 0. -1.
</event>
<event>
 4    1  0.2134315E+005  0.3018396E+02  0.7546771E-02  0.1418004E+00
          2   -1    0    0  502    0  0.00000000000E+00  0.00000000000E+00  0.13332559779E+04  0.13332559779E+04  0.00000000000E+00 0.  1.
         21   -1    0    0  503  502 -0.00000000000E+00 -0.00000000000E+00 -0.31562497888E+02  0.31562497888E+02  0.00000000000E+00 0.  1.
          2    1    1    2  501    0  0.25871433157E+02  0.15548008858E+02  0.13258283094E+04  0.13261718507E+04  0.00000000000E+00 0.  1.
         21    1    1    2  503  501 -0.25871433157E+02 -0.15548008858E+02 -0.24134829440E+02  0.38646625016E+02  0.00000000000E+00 0.  1.
</event>
<event>
 4    1  0.2134315E+005  0.3133031E+02  0.7546771E-02  0.1408378E+00
          2   -1    0    0  502    0  0.00000000000E+00  0.00000000000E+00  0.12719328472E+04  0.12719328472E+04  0.00000000000E+00 0. -1.
         21   -1    0    0  503  502 -0.00000000000E+00 -0.00000000000E+00 -0.26336611567E+01  0.26336611567E+01  0.00000000000E+00 0.  1.
          2    1    1    2  501    0 -0.29588503984E+02  0.10300919722E+02  0.11704886765E+04  0.11709079086E+04  0.00000000000E+00 0. -1.
         21    1    1    2  503  501  0.29588503984E+02 -0.10300919722E+02  0.98810509509E+02  0.10365859976E+03  0.00000000000E+00 0.  1.
</event>
<event>
 4    1  0.2134315E+005  0.4192799E+02  0.7546771E-02  0.1337544E+00
          2   -1    0    0  503    0  0.00000000000E+00  0.00000000000E+00  0.24295523509E+03  0.24295523509E+03  0.00000000000E+00 0. -1.
         21   -1    0    0  501  502 -0.00000000000E+00 -0.00000000000E+00 -0.84347926476E+02  0.84347926476E+02  0.00000000000E+00 0. -1.
          2    1    1    2  501    0  0.47444035511E+01  0.41658694070E+02  0.23577851125E+03  0.23947747812E+03  0.00000000000E+00 0. -1.
         21    1    1    2  503  502 -0.47444035511E+01 -0.41658694070E+02 -0.77171202639E+02  0.87825683450E+02  0.00000000000E+00 0. -1.
</event>
<event>
 4    1  0.2134315E+005  0.2720616E+02  0.7546771E-02  0.1445548E+00
          2   -1    0    0  503    0  0.00000000000E+00  0.00000000000E+00  0.24335691963E+03  0.24335691963E+03  0.00000000000E+00 0.  1.
         21   -1    0    0  501  502 -0.00000000000E+00 -0.00000000000E+00 -0.32946912475E+01  0.32946912475E+01  0.00000000000E+00 0.  1.
          2    1    1    2  501    0 -0.24878621213E+02 -0.11010430688E+02  0.15421742544E+03  0.15659881764E+03  0.00000000000E+00 0.  1.
         21    1    1    2  503  502  0.24878621213E+02  0.11010430688E+02  0.85844802943E+02  0.90052793237E+02  0.00000000000E+00 0.  1.
</event>
<event>
 4    1  0.2134315E+005  0.2341154E+02  0.7546771E-02  0.1487394E+00
          2   -1    0    0  503    0  0.00000000000E+00  0.00000000000E+00  0.14156977090E+03  0.14156977090E+03  0.00000000000E+00 0. -1.
         21   -1    0    0  501  502 -0.00000000000E+00 -0.00000000000E+00 -0.10739472135E+02  0.10739472135E+02  0.00000000000E+00 0. -1.
          2    1    1    2  501    0  0.23135356641E+02  0.35854759167E+01  0.12631498999E+03  0.12846624872E+03  0.00000000000E+00 0. -1.
         21    1    1    2  503  502 -0.23135356641E+02 -0.35854759167E+01  0.45153087745E+01  0.23842994313E+02  0.00000000000E+00 0. -1.
</event>
<event>
 4    1  0.2134315E+005  0.4526655E+02  0.7546771E-02  0.1320112E+00
          2   -1    0    0  503    0  0.00000000000E+00  0.00000000000E+00  0.24157191726E+04  0.24157191726E+04  0.00000000000E+00 0.  1.
         21   -1    0    0  501  502 -0.00000000000E+00 -0.00000000000E+00 -0.65389300110E+02  0.65389300110E+02  0.00000000000E+00 0.  1.
          2    1    1    2  501    0  0.45058360742E+02 -0.43364689748E+01  0.24076467707E+04  0.24080722649E+04  0.00000000000E+00 0.  1.
         21    1    1    2  503  502 -0.45058360742E+02  0.43364689748E+01 -0.57316898154E+02  0.73036207800E+02  0.00000000000E+00 0.  1.
</event>
<event>
 4    1  0.2134315E+005  0.2104668E+02  0.7546771E-02  0.1518599E+00
          2   -1    0    0  502    0  0.00000000000E+00  0.00000000000E+00  0.77399331392E+02  0.77399331392E+02  0.00000000000E+00 0. -1.
         21   -1    0    0  503  502 -0.00000000000E+00 -0.00000000000E+00 -0.40158311352E+02  0.40158311352E+02  0.00000000000E+00 0. -1.
          2    1    1    2  501    0  0.17909653299E+02 -0.11054737179E+02  0.73050045486E+02  0.76021523537E+02  0.00000000000E+00 0. -1.
         21    1    1    2  503  501 -0.17909653299E+02  0.11054737179E+02 -0.35809025446E+02  0.41536119207E+02  0.00000000000E+00 0. -1.
</event>
<event>
 4    1  0.2134315E+005  0.2743034E+02  0.7546771E-02  0.1443333E+00
          2   -1    0    0  503    0  0.00000000000E+00  0.00000000000E+00  0.17995511782E+04  0.17995511782E+04  0.00000000000E+00 0.  1.
         21   -1    0    0  501  502 -0.00000000000E+00 -0.00000000000E+00 -0.35063729028E+02  0.35063729028E+02  0.00000000000E+00 0.  1.
          2    1    1    2  501    0 -0.26841442882E+02 -0.56533412032E+01  0.17940655625E+04  0.17942752480E+04  0.00000000000E+00 0.  1.
         21    1    1    2  503  502  0.26841442882E+02  0.56533412032E+01 -0.29578113253E+02  0.40339659225E+02  0.00000000000E+00 0.  1.
</event>
<event>
 4    1  0.2134315E+005  0.3035289E+02  0.7546771E-02  0.1416554E+00
          2   -1    0    0  502    0  0.00000000000E+00  0.00000000000E+00  0.25761410500E+03  0.25761410500E+03  0.00000000000E+00 0. -1.
         21   -1    0    0  503  502 -0.00000000000E+00 -0.00000000000E+00 -0.41108838828E+02  0.41108838828E+02  0.00000000000E+00 0.  1.
          2    1    1    2  501    0 -0.27457130466E+02  0.12938461765E+02  0.25096943987E+03  0.25279825465E+03  0.00000000000E+00 0. -1.
         21    1    1    2  503  501  0.27457130466E+02 -0.12938461765E+02 -0.34464173705E+02  0.45924689170E+02  0.00000000000E+00 0.  1.
</event>
<event>
 4    1  0.2134315E+005  0.4647915E+02  0.7546771E-02  0.1314204E+00
          2   -1    0    0  503    0  0.00000000000E+00  0.00000000000E+00  0.61651064867E+03  0.61651064867E+03  0.00000000000E+00 0.  1.
         21   -1    0    0  501  502 -0.00000000000E+00 -0.00000000000E+00 -0.60498814240E+01  0.60498814240E+01  0.00000000000E+00 0.  1.
          2    1    1    2  501    0  0.43149545337E+02 -0.17275071541E+02  0.50715497446E+03  0.50928035450E+03  0.00000000000E+00 0.  1.
         21    1    1    2  503  502 -0.43149545337E+02  0.17275071541E+02  0.10330579278E+03  0.11328017559E+03  0.00000000000E+00 0.  1.
</event>
<event>
 4    1  0.2134315E+005  0.2051848E+02  0.7546771E-02  0.1526252E+00
          2   -1    0    0  502    0  0.00000000000E+00  0.00000000000E+00  0.99650778502E+02  0.99650778502E+02  0.00000000000E+00 0.  1.
         21   -1    0    0  503  502 -0.00000000000E+00 -0.00000000000E+00 -0.63960416638E+01  0.63960416638E+01  0.00000000000E+00 0. -1.
          2    1    1    2  501    0  0.18436264159E+02 -0.90062219348E+01  0.77520563190E+02  0.80190059153E+02  0.00000000000E+00 0.  1.
         21    1    1    2  503  501 -0.18436264159E+02  0.90062219348E+01  0.15734173648E+02  0.25856761012E+02  0.00000000000E+00 0. -1.
</event>
<event>
 4    1  0.2134315E+005  0.3268357E+02  0.7546771E-02  0.1397623E+00
          2   -1    0    0  502    0  0.00000000000E+00  0.00000000000E+00  0.34972488164E+03  0.34972488164E+03  0.00000000000E+00 0.  1.
         21   -1    0    0  503  502 -0.00000000000E+00 -0.00000000000E+00 -0.32248880633E+01  0.32248880633E+01  0.00000000000E+00 0.  1.
          2    1    1    2  501    0 -0.19180269305E+02  0.26463810928E+02  0.21382074830E+03  0.21630424967E+03  0.00000000000E+00 0.  1.
         21    1    1    2  503  501  0.19180269305E+02 -0.26463810928E+02  0.13267924527E+03  0.13664552004E+03  0.00000000000E+00 0.  1.
</event>
<event>
 4    1  0.2134315E+005  0.2144353E+02  0.7546771E-02  0.1513026E+00
          2   -1    0    0  502    0  0.00000000000E+00  0.00000000000E+00  0.58754973932E+01  0.58754973932E+01  0.00000000000E+00 0. -1.
         21   -1    0    0  503  502 -0.00000000000E+00 -0.00000000000E+00 -0.11238761124E+03  0.11238761124E+03  0.00000000000E+00 0. -1.
          2    1    1    2  501    0  0.21067996710E+02 -0.39955504005E+01 -0.20672099170E+02  0.29785241186E+02  0.00000000000E+00 0. -1.
         21    1    1    2  503  501 -0.21067996710E+02  0.39955504005E+01 -0.85840014672E+02  0.88477867443E+02  0.00000000000E+00 0. -1.
</event>
<event>
 4    1  0.2134315E+005  0.2634519E+02  0.7546771E-02  0.1454299E+00
          2   -1    0    0  503    0  0.00000000000E+00  0.00000000000E+00  0.31073489926E+03  0.31073489926E+03  0.00000000000E+00 0. -1.
         21   -1    0    0  501  502 -0.00000000000E+00 -0.00000000000E+00 -0.25866596175E+01  0.25866596175E+01  0.00000000000E+00 0. -1.
          2    1    1    2  501    0 -0.73789033943E+01  0.25290724176E+02  0.21194924634E+03  0.21358031737E+03  0.00000000000E+00 0. -1.
         21    1    1    2  503  502  0.73789033943E+01 -0.25290724176E+02  0.96198993303E+02  0.99741241506E+02  0.00000000000E+00 0. -1.
</event>
<event>
 4    1  0.2134315E+005  0.3815549E+02  0.7546771E-02  0.1359647E+00
          2   -1    0    0  503    0  0.00000000000E+00  0.00000000000E+00  0.30405835185E+03  0.30405835185E+03  0.00000000000E+00 0.  1.
         21   -1    0    0  501  502 -0.00000000000E+00 -0.00000000000E+00 -0.28784745519E+02  0.28784745519E+02  0.00000000000E+00 0.  1.
          2    1    1    2  501    0  0.12814154247E+02 -0.35939374413E+02  0.28958804142E+03  0.29209086756E+03  0.00000000000E+00 0.  1.
         21    1    1    2  503  502 -0.12814154247E+02  0.35939374413E+02 -0.14314435086E+02  0.40752229805E+02  0.00000000000E+00 0.  1.
</event>
<event>
 4    1  0.2134315E+005  0.2166434E+02  0.7546771E-02  0.1509987E+00
          2   -1    0    0  503    0  0.00000000000E+00  0.00000000000E+00  0.51384775328E+03  0.51384775328E+03  0.00000000000E+00 0.  1.
         21   -1    0    0  501  502 -0.00000000000E+00 -0.00000000000E+00 -0.36558401172E+01  0.36558401172E+01  0.00000000000E+00 0. -1.
          2    1    1    2  501    0  0.21315125566E+01  0.21559228139E+02  0.47920485695E+03  0.47969431787E+03  0.00000000000E+00 0.  1.
         21    1    1    2  503  502 -0.21315125566E+01 -0.21559228139E+02  0.30987056207E+02  0.37809275530E+02  0.00000000000E+00 0. -1.
</event>
<event>
 4    1  0.2134315E+005  0.2828542E+02  0.7546771E-02  0.1435106E+00
          2   -1    0    0  502    0  0.00000000000E+00  0.00000000000E+00  0.47608076800E+02  0.47608076800E+02  0.00000000000E+00 0. -1.
         21   -1    0    0  503  502 -0.00000000000E+00 -0.00000000000E+00 -0.18261080562E+02  0.18261080562E+02  0.00000000000E+00 0.  1.
          2    1    1    2  501    0  0.16053160487E+02 -0.23288643363E+02  0.23972721435E+02  0.37077705489E+02  0.00000000000E+00 0. -1.
         21    1    1    2  503  501 -0.16053160487E+02  0.23288643363E+02  0.53742748031E+01  0.28791451873E+02  0.00000000000E+00 0.  1.
</event>
<event>
 4    1  0.2134315E+005  0.2848735E+02  0.7546771E-02  0.1433213E+00
          2   -1    0    0  502    0  0.00000000000E+00  0.00000000000E+00  0.73416199585E+03  0.73416199585E+03  0.00000000000E+00 0.  1.
         21   -1    0    0  503  502 -0.00000000000E+00 -0.00000000000E+00 -0.99601930675E+01  0.99601930675E+01  0.00000000000E+00 0.  1.
          2    1    1    2  501    0  0.28487347916E+02 -0.11635386211E-01  0.71290934789E+03  0.71347828799E+03  0.00000000000E+00 0.  1.
         21    1    1    2  503  501 -0.28487347916E+02  0.11635386211E-01  0.11292454898E+02  0.30643900931E+02  0.00000000000E+00 0.  1.
</event>
<event>
 4    1  0.2134315E+005  0.3406638E+02  0.7546771E-02  0.1387248E+00
          2   -1    0    0  503    0  0.00000000000E+00  0.00000000000E+00  0.13354931818E+04  0.13354931818E+04  0.00000000000E+00 0. -1.
         21   -1    0    0  501  502 -0.00000000000E+00 -0.00000000000E+00 -0.11976132547E+01  0.11976132547E+01  0.00000000000E+00 0. -1.
          2    1    1    2  501    0  0.43097177527E+01  0.33792668628E+02  0.10172523688E+04  0.10178226269E+04  0.00000000000E+00 0. -1.
         21    1    1    2  503  502 -0.43097177527E+01 -0.33792668628E+02  0.31704319975E+03  0.31886816810E+03  0.00000000000E+00 0. -1.
</event>
<event>
 4    1  0.2134315E+005  0.2465520E+02  0.7546771E-02  0.1472698E+00
          2   -1    0    0  503    0  0.00000000000E+00  0.00000000000E+00  0.25400488917E+03  0.25400488917E+03  0.00000000000E+00 0. -1.
         21   -1    0    0  501  502 -0.00000000000E+00 -0.00000000000E+00 -0.25689837354E+01  0.25689837354E+01  0.00000000000E+00 0.  1.
          2    1    1    2  501    0  0.22983449348E+01 -0.24547845908E+02  0.15927758769E+03  0.16117452984E+03  0.00000000000E+00 0. -1.
         21    1    1    2  503  502 -0.22983449348E+01  0.24547845908E+02  0.92158317741E+02  0.95399343064E+02  0.00000000000E+00 0.  1.
</event>
<event>
 4    1  0.2134315E+005  0.4151028E+02  0.7546771E-02  0.1339856E+00
          2   -1    0    0  502    0  0.00000000000E+00  0.00000000000E+00  0.93896658001E+02  0.93896658001E+02  0.00000000000E+00 0. -1.
         21   -1    0    0  503  502 -0.00000000000E+00 -0.00000000000E+00 -0.32541250661E+02  0.32541250661E+02  0.00000000000E+00 0. -1.
          2    1    1    2  501    0  0.35590476190E+02 -0.21364024376E+02  0.72424605430E+02  0.83477104674E+02  0.00000000000E+00 0. -1.
         21    1    1    2  503  501 -0.35590476190E+02  0.21364024376E+02 -0.11069198090E+02  0.42960803989E+02  0.00000000000E+00 0. -1.
</event>
<event>
 4    1  0.2134315E+005  0.2347192E+02  0.7546771E-02  0.1486656E+00
          2   -1    0    0  502    0  0.00000000000E+00  0.00000000000E+00  0.48586859740E+03  0.48586859740E+03  0.00000000000E+00 0.  1.
         21   -1    0    0  503  502 -0.00000000000E+00 -0.00000000000E+00 -0.32020282104E+01  0.32020282104E+01  0.00000000000E+00 0. -1.
          2    1    1    2  501    0 -0.21985347167E+02  0.82204269127E+01  0.43785781272E+03  0.43848648219E+03  0.00000000000E+00 0.  1.
         21    1    1    2  503  501  0.21985347167E+02 -0.82204269127E+01  0.44808756476E+02  0.50584143421E+02  0.00000000000E+00 0. -1.
</event>
<event>
 4    1  0.2134315E+005  0.2745059E+02  0.7546771E-02  0.1443134E+00
          2   -1    0    0  502    0  0.00000000000E+00  0.00000000000E+00  0.36514926483E+03  0.36514926483E+03  0.00000000000E+00 0. -1.
         21   -1    0    0  503  502 -0.00000000000E+00 -0.00000000000E+00 -0.46209333656E+03  0.46209333656E+03  0.00000000000E+00 0.  1.
          2    1    1    2  501    0 -0.16554283320E+02  0.21897276152E+02  0.36422464782E+03  0.36525762015E+03  0.00000000000E+00 0. -1.
         21    1    1    2  503  501  0.16554283320E+02 -0.21897276152E+02 -0.46116871955E+03  0.46198498123E+03  0.00000000000E+00 0.  1.
</event>
<event>
 4    1  0.2134315E+005  0.2873926E+02  0.7546771E-02  0.1430878E+00
          2   -1    0    0  503    0  0.00000000000E+00  0.00000000000E+00  0.41108756717E+02  0.41108756717E+02  0.00000000000E+00 0. -1.
         21   -1    0    0  501  502 -0.00000000000E+00 -0.00000000000E+00 -0.24234115221E+02  0.24234115221E+02  0.00000000000E+00 0. -1.
          2    1    1    2  501    0  0.24250114361E+02 -0.15423260279E+02 -0.50703728950E+01  0.29183106165E+02  0.00000000000E+00 0. -1.
         21    1    1    2  503  502 -0.24250114361E+02  0.15423260279E+02  0.21945014391E+02  0.36159765773E+02  0.00000000000E+00 0. -1.
</event>
<event>
 4    1  0.2134315E+005  0.2373759E+02  0.7546771E-02  0.1483438E+00
          2   -1    0    0  503    0  0.00000000000E+00  0.00000000000E+00  0.66941210584E+03  0.66941210584E+03  0.00000000000E+00 0. -1.
         21   -1    0    0  501  502 -0.00000000000E+00 -0.00000000000E+00 -0.34468853803E+01  0.34468853803E+01  0.00000000000E+00 0.  1.
          2    1    1    2  501    0 -0.11466901110E+02 -0.20784205837E+02  0.62546273925E+03  0.62591302209E+03  0.00000000000E+00 0. -1.
         21    1    1    2  503  502  0.11466901110E+02  0.20784205837E+02  0.40502481212E+02  0.46945969131E+02  0.00000000000E+00 0.  1.
</event>
<event>
 4    1  0.2134315E+005  0.2944793E+02  0.7546771E-02  0.1424455E+00
          2   -1    0    0  503    0  0.00000000000E+00  0.00000000000E+00  0.23343750788E+04  0.23343750788E+04  0.00000000000E+00 0.  1.
         21   -1    0    0  501  502 -0.00000000000E+00 -0.00000000000E+00 -0.14177283351E+01  0.14177283351E+01  0.00000000000E+00 0.  1.
          2    1    1    2  501    0  0.27991830902E+02 -0.91453862728E+01  0.21697642685E+04  0.21699640923E+04  0.00000000000E+00 0.  1.
         21    1    1    2  503  502 -0.27991830902E+02  0.91453862728E+01  0.16319308193E+03  0.16582871488E+03  0.00000000000E+00 0.  1.
</event>
<event>
 4    1  0.2134315E+005  0.3075548E+02  0.7546771E-02  0.1413143E+00
          2   -1    0    0  503    0  0.00000000000E+00  0.00000000000E+00  0.24378890102E+03  0.24378890102E+03  0.00000000000E+00 0. -1.
         21   -1    0    0  501  502 -0.00000000000E+00 -0.00000000000E+00 -0.69386645371E+01  0.69386645371E+01  0.00000000000E+00 0. -1.
          2    1    1    2  501    0 -0.24701406651E+02 -0.18323211646E+02  0.20165906008E+03  0.20399087256E+03  0.00000000000E+00 0. -1.
         21    1    1    2  503  502  0.24701406651E+02  0.18323211646E+02  0.35191176397E+02  0.46736692991E+02  0.00000000000E+00 0. -1.
</event>
<event>
 4    1  0.2134315E+005  0.3530392E+02  0.7546771E-02  0.1378439E+00
          2   -1    0    0  502    0  0.00000000000E+00  0.00000000000E+00  0.98639671504E+01  0.98639671504E+01  0.00000000000E+00 0. -1.
         21   -1    0    0  503  502 -0.00000000000E+00 -0.00000000000E+00 -0.42087061674E+03  0.42087061674E+03  0.00000000000E+00 0. -1.
          2    1    1    2  501    0 -0.55196439748E+01 -0.34869764839E+02 -0.25342979922E+02  0.43458412314E+02  0.00000000000E+00 0. -1.
         21    1    1    2  503  501  0.55196439748E+01  0.34869764839E+02 -0.38566366967E+03  0.38727617158E+03  0.00000000000E+00 0. -1.
</event>
<event>
 4    1  0.2134315E+005  0.2270197E+02  0.7546771E-02  0.1496275E+00
          2   -1    0    0  502    0  0.00000000000E+00  0.00000000000E+00  0.10565118470E+03  0.10565118470E+03  0.00000000000E+00 0. -1.
         21   -1    0    0  503  502 -0.00000000000E+00 -0.00000000000E+00 -0.51349853365E+02  0.51349853365E+02  0.00000000000E+00 0.  1.
          2    1    1    2  501    0 -0.22624481418E+02  0.18741688110E+01  0.10182946685E+03  0.10432938219E+03  0.00000000000E+00 0. -1.
         21    1    1    2  503  501  0.22624481418E+02 -0.18741688110E+01 -0.47528135513E+02  0.52671655883E+02  0.00000000000E+00 0.  1.
</event>
<event>
 4    1  0.2134315E+005  0.2340384E+02  0.7546771E-02  0.1487488E+00
          2   -1    0    0  502    0  0.00000000000E+00  0.00000000000E+00  0.35189115666E+03  0.35189115666E+03  0.00000000000E+00 0. -1.
         21   -1    0    0  503  502 -0.00000000000E+00 -0.00000000000E+00 -0.32835398502E+01  0.32835398502E+01  0.00000000000E+00 0.  1.
          2    1    1    2  501    0  0.23305466742E+02  0.21436371394E+01  0.30309448313E+03  0.30399671983E+03  0.00000000000E+00 0. -1.
         21    1    1    2  503  501 -0.23305466742E+02 -0.21436371394E+01  0.45513133677E+02  0.51177976683E+02  0.00000000000E+00 0.  1.
</event>
<event>
 4    1  0.2259298E+005  0.2721232E+02  0.7546771E-02  0.1445487E+00
          2   -1    0    0  503    0  0.00000000000E+00  0.00000000000E+00  0.13235456653E+04  0.13235456653E+04  0.00000000000E+00 0.  1.
         21   -1    0    0  501  502 -0.00000000000E+00 -0.00000000000E+00 -0.71862324868E+03  0.71862324868E+03  0.00000000000E+00 0. -1.
          2    1    1    2  501    0  0.17450465162E+02  0.20880408954E+02  0.13231481012E+04  0.13234279006E+04  0.00000000000E+00 0.  1.
         21    1    1    2  503  502 -0.17450465162E+02 -0.20880408954E+02 -0.71822568465E+03  0.71874101338E+03  0.00000000000E+00 0. -1.
</event>
<event>
 4    1  0.2134315E+005  0.2418544E+02  0.7546771E-02  0.1478126E+00
          2   -1    0    0  503    0  0.00000000000E+00  0.00000000000E+00  0.12443129312E+03  0.12443129312E+03  0.00000000000E+00 0.  1.
         21   -1    0    0  501  502 -0.00000000000E+00 -0.00000000000E+00 -0.75197826299E+02  0.75197826299E+02  0.00000000000E+00 0. -1.
          2    1    1    2  501    0  0.40214499894E+01  0.23848759924E+02  0.12126107539E+03  0.12364943920E+03  0.00000000000E+00 0.  1.
         21    1    1    2  503  502 -0.40214499894E+01 -0.23848759924E+02 -0.72027608569E+02  0.75979680218E+02  0.00000000000E+00 0. -1.
</event>
<event>
 4    1  0.2134315E+005  0.3804513E+02  0.7546771E-02  0.1360338E+00
          2   -1    0    0  503    0  0.00000000000E+00  0.00000000000E+00  0.13544341810E+03  0.13544341810E+03  0.00000000000E+00 0.  1.
         21   -1    0    0  501  502 -0.00000000000E+00 -0.00000000000E+00 -0.32964573535E+02  0.32964573535E+02  0.00000000000E+00 0.  1.
          2    1    1    2  501    0  0.30627336688E+02  0.22569857753E+02  0.12046181788E+03  0.12632688470E+03  0.00000000000E+00 0.  1.
         21    1    1    2  503  502 -0.30627336688E+02 -0.22569857753E+02 -0.17982973314E+02  0.42081106934E+02  0.00000000000E+00 0.  1.
</event>
<event>
 4    1  0.2134315E+005  0.2882297E+02  0.7546771E-02  0.1430108E+00
          2   -1    0    0  502    0  0.00000000000E+00  0.00000000000E+00  0.84338458101E+03  0.84338458101E+03  0.00000000000E+00 0. -1.
         21   -1    0    0  503  502 -0.00000000000E+00 -0.00000000000E+00 -0.47575020857E+01  0.47575020857E+01  0.00000000000E+00 0.  1.
          2    1    1    2  501    0 -0.28731942855E+02  0.22888492859E+01  0.79693950620E+03  0.79746055697E+03  0.00000000000E+00 0. -1.
         21    1    1    2  503  501  0.28731942855E+02 -0.22888492859E+01  0.41687572719E+02  0.50681526126E+02  0.00000000000E+00 0.  1.
</event>
<event>
 4    1  0.2134315E+005  0.2252641E+02  0.7546771E-02  0.1498532E+00
          2   -1    0    0  503    0  0.00000000000E+00  0.00000000000E+00  0.12259010121E+04  0.12259010121E+04  0.00000000000E+00 0. -1.
         21   -1    0    0  501  502 -0.00000000000E+00 -0.00000000000E+00 -0.13577182845E+01  0.13577182845E+01  0.00000000000E+00 0.  1.
          2    1    1    2  501    0 -0.17998936414E+02 -0.13545389139E+02  0.11238806791E+04  0.11241064096E+04  0.00000000000E+00 0. -1.
         21    1    1    2  503  502  0.17998936414E+02  0.13545389139E+02  0.10066261468E+03  0.10315232073E+03  0.00000000000E+00 0.  1.
</event>
<event>
 4    1  0.2134315E+005  0.3781613E+02  0.7546771E-02  0.1361781E+00
          2   -1    0    0  503    0  0.00000000000E+00  0.00000000000E+00  0.11623183887E+04  0.11623183887E+04  0.00000000000E+00 0. -1.
         21   -1    0    0  501  502 -0.00000000000E+00 -0.00000000000E+00 -0.41629872776E+01  0.41629872776E+01  0.00000000000E+00 0. -1.
          2    1    1    2  501    0  0.33370945235E+02  0.17788747235E+02  0.10686021393E+04  0.10692710562E+04  0.00000000000E+00 0. -1.
         21    1    1    2  503  502 -0.33370945235E+02 -0.17788747235E+02  0.89553262118E+02  0.97210319771E+02  0.00000000000E+00 0. -1.
</event>
<event>
 4    1  0.2134315E+005  0.2334397E+02  0.7546771E-02  0.1488224E+00
          2   -1    0    0  503    0  0.00000000000E+00  0.00000000000E+00  0.13510833740E+03  0.13510833740E+03  0.00000000000E+00 0. -1.
         21   -1    0    0  501  502 -0.00000000000E+00 -0.00000000000E+00 -0.37043393549E+02  0.37043393549E+02  0.00000000000E+00 0.  1.
          2    1    1    2  501    0  0.16557413487E+02 -0.16455785974E+02  0.13028726433E+03  0.13236204925E+03  0.00000000000E+00 0. -1.
         21    1    1    2  503  502 -0.16557413487E+02  0.16455785974E+02 -0.32222320478E+02  0.39789681707E+02  0.00000000000E+00 0.  1.
</event>
<event>
 4    1  0.2134315E+005  0.2056658E+02  0.7546771E-02  0.1525544E+00
          2   -1    0    0  503    0  0.00000000000E+00  0.00000000000E+00  0.10337407591E+03  0.10337407591E+03  0.00000000000E+00 0. -1.
         21   -1    0    0  501  502 -0.00000000000E+00 -0.00000000000E+00 -0.80289504123E+01  0.80289504123E+01  0.00000000000E+00 0.  1.
          2    1    1    2  501    0 -0.14000809547E+02  0.15065242650E+02  0.86678398727E+02  0.89084953892E+02  0.00000000000E+00 0. -1.
         21    1    1    2  503  502  0.14000809547E+02 -0.15065242650E+02  0.86667267700E+01  0.22318072429E+02  0.00000000000E+00 0.  1.
</event>
<event>
 4    1  0.2134315E+005  0.2947001E+02  0.7546771E-02  0.1424259E+00
          2   -1    0    0  503    0  0.00000000000E+00  0.00000000000E+00  0.12426723846E+03  0.12426723846E+03  0.00000000000E+00 0.  1.
         21   -1    0    0  501  502 -0.00000000000E+00 -0.00000000000E+00 -0.89012506347E+01  0.89012506347E+01  0.00000000000E+00 0. -1.
          2    1    1    2  501    0  0.68109682470E+01 -0.28672146857E+02  0.88546045839E+02  0.93321399087E+02  0.00000000000E+00 0.  1.
         21    1    1    2  503  502 -0.68109682470E+01  0.28672146857E+02  0.26819941982E+02  0.39847090003E+02  0.00000000000E+00 0. -1.
</event>
<event>
 4    1  0.2134315E+005  0.2461289E+02  0.7546771E-02  0.1473181E+00
          2   -1    0    0  503    0  0.00000000000E+00  0.00000000000E+00  0.69114047810E+01  0.69114047810E+01  0.00000000000E+00 0.  1.
         21   -1    0    0  501  502 -0.00000000000E+00 -0.00000000000E+00 -0.13131002958E+03  0.13131002958E+03  0.00000000000E+00 0. -1.
          2    1    1    2  501    0 -0.19302524546E+02  0.15271110426E+02 -0.22349018667E+02  0.33245644870E+02  0.00000000000E+00 0.  1.
         21    1    1    2  503  502  0.19302524546E+02 -0.15271110426E+02 -0.10204960613E+03  0.10497578949E+03  0.00000000000E+00 0. -1.
</event>
<event>
 4    1  0.2134315E+005  0.2598248E+02  0.7546771E-02  0.1458106E+00
          2   -1    0    0  502    0  0.00000000000E+00  0.00000000000E+00  0.12019604056E+03  0.12019604056E+03  0.00000000000E+00 0. -1.
         21   -1    0    0  503  502 -0.00000000000E+00 -0.00000000000E+00 -0.79875636554E+01  0.79875636554E+01  0.00000000000E+00 0. -1.
          2    1    1    2  501    0  0.65357902619E+01  0.25147024330E+02  0.91023140543E+02  0.94658869111E+02  0.00000000000E+00 0. -1.
         21    1    1    2  503  501 -0.65357902619E+01 -0.25147024330E+02  0.21185336357E+02  0.33524735100E+02  0.00000000000E+00 0. -1.
</event>
<event>
 4    1  0.2134315E+005  0.2069371E+02  0.7546771E-02  0.1523683E+00
          2   -1    0    0  502    0  0.00000000000E+00  0.00000000000E+00  0.16099936800E+04  0.16099936800E+04  0.00000000000E+00 0. -1.
         21   -1    0    0  503  502 -0.00000000000E+00 -0.00000000000E+00 -0.63267769984E+00  0.63267769984E+00  0.00000000000E+00 0.  1.
          2    1    1    2  501    0 -0.37642012297E+01 -0.20348476801E+02  0.14177734362E+04  0.14179244501E+04  0.00000000000E+00 0. -1.
         21    1    1    2  503  501  0.37642012297E+01  0.20348476801E+02  0.19158756608E+03  0.19270190761E+03  0.00000000000E+00 0.  1.
</event>
<event>
 4    1  0.2134315E+005  0.2088213E+02  0.7546771E-02  0.1520954E+00
          2   -1    0    0  503    0  0.00000000000E+00  0.00000000000E+00  0.75962019625E+03  0.75962019625E+03  0.00000000000E+00 0.  1.
         21   -1    0    0  501  502 -0.00000000000E+00 -0.00000000000E+00 -0.22973542881E+01  0.22973542881E+01  0.00000000000E+00 0. -1.
          2    1    1    2  501    0  0.14674441658E+02 -0.14856783393E+02  0.70860861163E+03  0.70891623464E+03  0.00000000000E+00 0.  1.
         21    1    1    2  503  502 -0.14674441658E+02  0.14856783393E+02  0.48714230329E+02  0.53001315902E+02  0.00000000000E+00 0. -1.
</event>
<event>
 4    1  0.2134315E+005  0.2958545E+02  0.7546771E-02  0.1423234E+00
          2   -1    0    0  503    0  0.00000000000E+00  0.00000000000E+00  0.91461538424E+03  0.91461538424E+03  0.00000000000E+00 0.  1.
         21   -1    0    0  501  502 -0.00000000000E+00 -0.00000000000E+00 -0.55551445670E+02  0.55551445670E+02  0.00000000000E+00 0. -1.
          2    1    1    2  501    0 -0.29351595780E+02 -0.37124942721E+01  0.91041884253E+03  0.91089942783E+03  0.00000000000E+00 0.  1.
         21    1    1    2  503  502  0.29351595780E+02  0.37124942721E+01 -0.51354903960E+02  0.59267402080E+02  0.00000000000E+00 0. -1.
</event>
<event>
 4    1  0.2134315E+005  0.2037702E+02  0.7546771E-02  0.1528348E+00
          2   -1    0    0  503    0  0.00000000000E+00  0.00000000000E+00  0.16288314944E+03  0.16288314944E+03  0.00000000000E+00 0. -1.
         21   -1    0    0  501  502 -0.00000000000E+00 -0.00000000000E+00 -0.82543532315E+02  0.82543532315E+02  0.00000000000E+00 0.  1.
          2    1    1    2  501    0  0.20266441400E+02 -0.21199998672E+01  0.16097339891E+03  0.16225799888E+03  0.00000000000E+00 0. -1.
         21    1    1    2  503  502 -0.20266441400E+02  0.21199998672E+01 -0.80633781780E+02  0.83168682872E+02  0.00000000000E+00 0.  1.
</event>
<event>
 4    1  0.2134315E+005  0.2100296E+02  0.7546771E-02  0.1519223E+00
          2   -1    0    0  502    0  0.00000000000E+00  0.00000000000E+00  0.21610609983E+02  0.21610609983E+02  0.00000000000E+00 0. -1.
         21   -1    0    0  503  502 -0.00000000000E+00 -0.00000000000E+00 -0.18623616332E+03  0.18623616332E+03  0.00000000000E+00 0.  1.
          2    1    1    2  501    0 -0.11753275331E+02  0.17406459353E+02  0.15750109926E+02  0.26252433619E+02  0.00000000000E+00 0. -1.
         21    1    1    2  503  501  0.11753275331E+02 -0.17406459353E+02 -0.18037566326E+03  0.18159433968E+03  0.00000000000E+00 0.  1.
</event>
<event>
 4    1  0.2134315E+005  0.2304152E+02  0.7546771E-02  0.1491977E+00
          2   -1    0    0  503    0  0.00000000000E+00  0.00000000000E+00  0.64497702115E+02  0.64497702115E+02  0.00000000000E+00 0. -1.
         21   -1    0    0  501  502 -0.00000000000E+00 -0.00000000000E+00 -0.14138197053E+02  0.14138197053E+02  0.00000000000E+00 0.  1.
          2    1    1    2  501    0  0.16153993923E+02 -0.16430459423E+02  0.50593396784E+02  0.55593194859E+02  0.00000000000E+00 0. -1.
         21    1    1    2  503  502 -0.16153993923E+02  0.16430459423E+02 -0.23389172159E+00  0.23042704309E+02  0.00000000000E+00 0.  1.
</event>
<event>
 4    1  0.2134315E+005  0.2495470E+02  0.7546771E-02  0.1469311E+00
          2   -1    0    0  503    0  0.00000000000E+00  0.00000000000E+00  0.31380641311E+02  0.31380641311E+02  0.00000000000E+00 0.  1.
         21   -1    0    0  501  502 -0.00000000000E+00 -0.00000000000E+00 -0.30364209060E+02  0.30364209060E+02  0.00000000000E+00 0. -1.
          2    1    1    2  501    0 -0.17561127292E+02 -0.17729748138E+02  0.18679640778E+02  0.31171559801E+02  0.00000000000E+00 0.  1.
         21    1    1    2  503  502  0.17561127292E+02  0.17729748138E+02 -0.17663208527E+02  0.30573290570E+02  0.00000000000E+00 0. -1.
</event>
<event>
 4    1  0.2134315E+005  0.2164479E+02  0.7546771E-02  0.1510255E+00
          2   -1    0    0  502    0  0.00000000000E+00  0.00000000000E+00  0.12554536915E+03  0.12554536915E+03  0.00000000000E+00 0. -1.
         21   -1    0    0  503  502 -0.00000000000E+00 -0.00000000000E+00 -0.46630162770E+01  0.46630162770E+01  0.00000000000E+00 0. -1.
          2    1    1    2  501    0 -0.21032942683E+02 -0.51099958249E+01  0.89536674463E+02  0.92115757659E+02  0.00000000000E+00 0. -1.
         21    1    1    2  503  501  0.21032942683E+02  0.51099958249E+01  0.31345678407E+02  0.38092627765E+02  0.00000000000E+00 0. -1.
</event>
<event>
 4    1  0.2134315E+005  0.2445492E+02  0.7546771E-02  0.1474994E+00
          2   -1    0    0  502    0  0.00000000000E+00  0.00000000000E+00  0.12534919216E+03  0.12534919216E+03  0.00000000000E+00 0.  1.
         21   -1    0    0  503  502 -0.00000000000E+00 -0.00000000000E+00 -0.13607801758E+02  0.13607801758E+02  0.00000000000E+00 0.  1.
          2    1    1    2  501    0 -0.11940478211E+02  0.21341699300E+02  0.11185980492E+03  0.11450178647E+03  0.00000000000E+00 0.  1.
         21    1    1    2  503  501  0.11940478211E+02 -0.21341699300E+02 -0.11841452154E+00  0.24455207440E+02  0.00000000000E+00 0.  1.
</event>
<event>
 4    1  0.2134315E+005  0.2286253E+02  0.7546771E-02  0.1494232E+00
          2   -1    0    0  503    0  0.00000000000E+00  0.00000000000E+00  0.30111647864E+03  0.30111647864E+03  0.00000000000E+00 0.  1.
         21   -1    0    0  501  502 -0.00000000000E+00 -0.00000000000E+00 -0.21817866632E+01  0.21817866632E+01  0.00000000000E+00 0.  1.
          2    1    1    2  501    0 -0.17325186853E+02 -0.14917543130E+02  0.21802672851E+03  0.21922214655E+03  0.00000000000E+00 0.  1.
         21    1    1    2  503  502  0.17325186853E+02  0.14917543130E+02  0.80907963465E+02  0.84076118753E+02  0.00000000000E+00 0.  1.
</event>
<event>
 4    1  0.2134315E+005  0.3040797E+02  0.7546771E-02  0.1416084E+00
          2   -1    0    0  502    0  0.00000000000E+00  0.00000000000E+00  0.68549626973E+03  0.68549626973E+03  0.00000000000E+00 0.  1.
         21   -1    0    0  503  502 -0.00000000000E+00 -0.00000000000E+00 -0.53166559805E+02  0.53166559805E+02  0.00000000000E+00 0. -1.
          2    1    1    2  501    0 -0.17762277298E+02 -0.24680891978E+02  0.68078108456E+03  0.68145985209E+03  0.00000000000E+00 0.  1.
         21    1    1    2  503  501  0.17762277298E+02  0.24680891978E+02 -0.48451374636E+02  0.57202977438E+02  0.00000000000E+00 0. -1.
</event>
<event>
 4    1  0.2134315E+005  0.8495851E+02  0.7546771E-02  0.1192781E+00
          2   -1    0    0  503    0  0.00000000000E+00  0.00000000000E+00  0.82950553949E+03  0.82950553949E+03  0.00000000000E+00 0.  1.
         21   -1    0    0  501  502 -0.00000000000E+00 -0.00000000000E+00 -0.71318077897E+02  0.71318077897E+02  0.00000000000E+00 0. -1.
          2    1    1    2  501    0  0.84529704058E+02  0.85251061337E+01  0.80113468201E+03  0.80562691553E+03  0.00000000000E+00 0.  1.
         21    1    1    2  503  502 -0.84529704058E+02 -0.85251061337E+01 -0.42947220419E+02  0.95196701857E+02  0.00000000000E+00 0. -1.
</event>
<event>
 4    1  0.2134315E+005  0.2272822E+02  0.7546771E-02  0.1495939E+00
          2   -1    0    0  503    0  0.00000000000E+00  0.00000000000E+00  0.56385516027E+02  0.56385516027E+02  0.00000000000E+00 0.  1.
         21   -1    0    0  501  502 -0.00000000000E+00 -0.00000000000E+00 -0.42235560251E+02  0.42235560251E+02  0.00000000000E+00 0.  1.
          2    1    1    2  501    0  0.67928700490E+01  0.21689368278E+02  0.50710969477E+02  0.55571343380E+02  0.00000000000E+00 0.  1.
         21    1    1    2  503  502 -0.67928700490E+01 -0.21689368278E+02 -0.36561013701E+02  0.43049732899E+02  0.00000000000E+00 0.  1.
</event>
<event>
 4    1  0.2134315E+005  0.3403769E+02  0.7546771E-02  0.1387458E+00
          2   -1    0    0  502    0  0.00000000000E+00  0.00000000000E+00  0.67775807344E+03  0.67775807344E+03  0.00000000000E+00 0.  1.
         21   -1    0    0  503  502 -0.00000000000E+00 -0.00000000000E+00 -0.60612987228E+01  0.60612987228E+01  0.00000000000E+00 0. -1.
          2    1    1    2  501    0  0.23776957425E+02  0.24356123226E+02  0.62556112989E+03  0.62648646567E+03  0.00000000000E+00 0.  1.
         21    1    1    2  503  501 -0.23776957425E+02 -0.24356123226E+02  0.46135644832E+02  0.57332906494E+02  0.00000000000E+00 0. -1.
</event>
<event>
 4    1  0.2134315E+005  0.2148247E+02  0.7546771E-02  0.1512487E+00
          2   -1    0    0  502    0  0.00000000000E+00  0.00000000000E+00  0.83535635614E+03  0.83535635614E+03  0.00000000000E+00 0.  1.
         21   -1    0    0  503  502 -0.00000000000E+00 -0.00000000000E+00 -0.10069445387E+02  0.10069445387E+02  0.00000000000E+00 0. -1.
          2    1    1    2  501    0 -0.16617774498E+01 -0.21418098202E+02  0.82359683089E+03  0.82387695458E+03  0.00000000000E+00 0.  1.
         21    1    1    2  503  501  0.16617774498E+01  0.21418098202E+02  0.16900798640E+01  0.21548846949E+02  0.00000000000E+00 0. -1.
</event>
<event>
 4    1  0.2134315E+005  0.2512692E+02  0.7546771E-02  0.1467388E+00
          2   -1    0    0  502    0  0.00000000000E+00  0.00000000000E+00  0.14888201972E+04  0.14888201972E+04  0.00000000000E+00 0. -1.
         21   -1    0    0  503  502 -0.00000000000E+00 -0.00000000000E+00 -0.83549003161E+00  0.83549003161E+00  0.00000000000E+00 0. -1.
          2    1    1    2  501    0 -0.25096875188E+02 -0.12284666677E+01  0.12666635754E+04  0.12669127735E+04  0.00000000000E+00 0. -1.
         21    1    1    2  503  501  0.25096875188E+02  0.12284666677E+01  0.22132113174E+03  0.22274291376E+03  0.00000000000E+00 0. -1.
</event>
<event>
 4    1  0.2134315E+005  0.2003393E+02  0.7546771E-02  0.1533518E+00
          2   -1    0    0  502    0  0.00000000000E+00  0.00000000000E+00  0.13768785483E+03  0.13768785483E+03  0.00000000000E+00 0.  1.
         21   -1    0    0  503  502 -0.00000000000E+00 -0.00000000000E+00 -0.84460766051E+01  0.84460766051E+01  0.00000000000E+00 0. -1.
          2    1    1    2  501    0  0.19936384405E+02  0.19745482239E+01  0.12374966987E+03  0.12536083542E+03  0.00000000000E+00 0.  1.
         21    1    1    2  503  501 -0.19936384405E+02 -0.19745482239E+01  0.54921083520E+01  0.20773096014E+02  0.00000000000E+00 0. -1.
</event>
<event>
 4    1  0.2134315E+005  0.2585843E+02  0.7546771E-02  0.1459425E+00
          2   -1    0    0  503    0  0.00000000000E+00  0.00000000000E+00  0.27538412538E+04  0.27538412538E+04  0.00000000000E+00 0. -1.
         21   -1    0    0  501  502 -0.00000000000E+00 -0.00000000000E+00 -0.25455139968E+00  0.25455139968E+00  0.00000000000E+00 0.  1.
          2    1    1    2  501    0 -0.24668050430E+02  0.77553627249E+01  0.10810373670E+04  0.10813465897E+04  0.00000000000E+00 0. -1.
         21    1    1    2  503  502  0.24668050430E+02 -0.77553627249E+01  0.16725493354E+04  0.16727492154E+04  0.00000000000E+00 0.  1.
</event>
<event>
 4    1  0.2134315E+005  0.2121269E+02  0.7546771E-02  0.1516250E+00
          2   -1    0    0  503    0  0.00000000000E+00  0.00000000000E+00  0.82885916977E+03  0.82885916977E+03  0.00000000000E+00 0.  1.
         21   -1    0    0  501  502 -0.00000000000E+00 -0.00000000000E+00 -0.52524548925E+01  0.52524548925E+01  0.00000000000E+00 0. -1.
          2    1    1    2  501    0 -0.19218408276E+02  0.89794735187E+01  0.80671821350E+03  0.80699705957E+03  0.00000000000E+00 0.  1.
         21    1    1    2  503  502  0.19218408276E+02 -0.89794735187E+01  0.16888501374E+02  0.27114565089E+02  0.00000000000E+00 0. -1.
</event>
<event>
 4    1  0.2134315E+005  0.2234592E+02  0.7546771E-02  0.1500879E+00
          2   -1    0    0  502    0  0.00000000000E+00  0.00000000000E+00  0.71648890636E+03  0.71648890636E+03  0.00000000000E+00 0. -1.
         21   -1    0    0  503  502 -0.00000000000E+00 -0.00000000000E+00 -0.15510629725E+02  0.15510629725E+02  0.00000000000E+00 0. -1.
          2    1    1    2  501    0  0.17183899878E+02 -0.14284742610E+02  0.70817181857E+03  0.70852428674E+03  0.00000000000E+00 0. -1.
         21    1    1    2  503  501 -0.17183899878E+02  0.14284742610E+02 -0.71935419302E+01  0.23475249348E+02  0.00000000000E+00 0. -1.
</event>
<event>
 4    1  0.2134315E+005  0.2182430E+02  0.7546771E-02  0.1507814E+00
          2   -1    0    0  502    0  0.00000000000E+00  0.00000000000E+00  0.16786182849E+03  0.16786182849E+03  0.00000000000E+00 0.  1.
         21   -1    0    0  503  502 -0.00000000000E+00 -0.00000000000E+00 -0.19428855294E+03  0.19428855294E+03  0.00000000000E+00 0.  1.
          2    1    1    2  501    0 -0.19950279068E+02 -0.88479511829E+01  0.16653472541E+03  0.16795866944E+03  0.00000000000E+00 0.  1.
         21    1    1    2  503  501  0.19950279068E+02  0.88479511829E+01 -0.19296144986E+03  0.19419171199E+03  0.00000000000E+00 0.  1.
</event>
<event>
 4    1  0.2134315E+005  0.2143138E+02  0.7546771E-02  0.1513194E+00
          2   -1    0    0  503    0  0.00000000000E+00  0.00000000000E+00  0.37128028317E+03  0.37128028317E+03  0.00000000000E+00 0. -1.
         21   -1    0    0  501  502 -0.00000000000E+00 -0.00000000000E+00 -0.21801462653E+01  0.21801462653E+01  0.00000000000E+00 0. -1.
          2    1    1    2  501    0 -0.20585503782E+02 -0.59616423258E+01  0.30736252874E+03  0.30810879283E+03  0.00000000000E+00 0. -1.
         21    1    1    2  503  502  0.20585503782E+02  0.59616423258E+01  0.61737608162E+02  0.65351636603E+02  0.00000000000E+00 0. -1.
</event>
<event>
 4    1  0.2134315E+005  0.3474691E+02  0.7546771E-02  0.1382351E+00
          2   -1    0    0  503    0  0.00000000000E+00  0.00000000000E+00  0.50629519480E+03  0.50629519480E+03  0.00000000000E+00 0.  1.
         21   -1    0    0  501  502 -0.00000000000E+00 -0.00000000000E+00 -0.16620832016E+03  0.16620832016E+03  0.00000000000E+00 0. -1.
          2    1    1    2  501    0 -0.26273507428E+02 -0.22738741482E+02  0.50387429666E+03  0.50507093996E+03  0.00000000000E+00 0.  1.
         21    1    1    2  503  502  0.26273507428E+02  0.22738741482E+02 -0.16378742203E+03  0.16743257500E+03  0.00000000000E+00 0. -1.
</event>
<event>
 4    1  0.2134315E+005  0.2041504E+02  0.7546771E-02  0.1527783E+00
          2   -1    0    0  503    0  0.00000000000E+00  0.00000000000E+00  0.67231039008E+03  0.67231039008E+03  0.00000000000E+00 0. -1.
         21   -1    0    0  501  502 -0.00000000000E+00 -0.00000000000E+00 -0.11301315498E+02  0.11301315498E+02  0.00000000000E+00 0.  1.
          2    1    1    2  501    0  0.58631081717E+01  0.19554991569E+02  0.66280361978E+03  0.66311794738E+03  0.00000000000E+00 0. -1.
         21    1    1    2  503  502 -0.58631081717E+01 -0.19554991569E+02 -0.17945452049E+01  0.20493758200E+02  0.00000000000E+00 0.  1.
</event>
<event>
 4    1  0.2134315E+005  0.2217051E+02  0.7546771E-02  0.1503185E+00
          2   -1    0    0  503    0  0.00000000000E+00  0.00000000000E+00  0.23751062186E+02  0.23751062186E+02  0.00000000000E+00 0.  1.
         21   -1    0    0  501  502 -0.00000000000E+00 -0.00000000000E+00 -0.21024042308E+03  0.21024042308E+03  0.00000000000E+00 0. -1.
          2    1    1    2  501    0  0.60072306317E+01 -0.21341151705E+02  0.17843649357E+02  0.28459223432E+02  0.00000000000E+00 0.  1.
         21    1    1    2  503  502 -0.60072306317E+01  0.21341151705E+02 -0.20433301025E+03  0.20553226183E+03  0.00000000000E+00 0. -1.
</event>
<event>
 4    1  0.2134315E+005  0.2047917E+02  0.7546771E-02  0.1526832E+00
          2   -1    0    0  502    0  0.00000000000E+00  0.00000000000E+00  0.11636464357E+04  0.11636464357E+04  0.00000000000E+00 0. -1.
         21   -1    0    0  503  502 -0.00000000000E+00 -0.00000000000E+00 -0.19618775546E+03  0.19618775546E+03  0.00000000000E+00 0.  1.
          2    1    1    2  501    0 -0.19586648956E+02 -0.59799242694E+01  0.11630216124E+04  0.11632019031E+04  0.00000000000E+00 0. -1.
         21    1    1    2  503  501  0.19586648956E+02  0.59799242694E+01 -0.19556293215E+03  0.19663228815E+03  0.00000000000E+00 0.  1.
</event>
<event>
 4    1  0.2134315E+005  0.2313040E+02  0.7546771E-02  0.1490867E+00
          2   -1    0    0  503    0  0.00000000000E+00  0.00000000000E+00  0.16764951578E+04  0.16764951578E+04  0.00000000000E+00 0. -1.
         21   -1    0    0  501  502 -0.00000000000E+00 -0.00000000000E+00 -0.45890417997E+01  0.45890417997E+01  0.00000000000E+00 0.  1.
          2    1    1    2  501    0 -0.22745814771E+02 -0.42004187120E+01  0.16467424280E+04  0.16469048666E+04  0.00000000000E+00 0. -1.
         21    1    1    2  503  502  0.22745814771E+02  0.42004187120E+01  0.25163687977E+02  0.34179332930E+02  0.00000000000E+00 0.  1.
</event>
<event>
 4    1  0.2134315E+005  0.2337344E+02  0.7546771E-02  0.1487861E+00
          2   -1    0    0  502    0  0.00000000000E+00  0.00000000000E+00  0.10856746252E+03  0.10856746252E+03  0.00000000000E+00 0. -1.
         21   -1    0    0  503  502 -0.00000000000E+00 -0.00000000000E+00 -0.32206698233E+02  0.32206698233E+02  0.00000000000E+00 0. -1.
          2    1    1    2  501    0 -0.87386785474E+01  0.21678398917E+02  0.10283533089E+03  0.10545815645E+03  0.00000000000E+00 0. -1.
         21    1    1    2  503  501  0.87386785474E+01 -0.21678398917E+02 -0.26474566610E+02  0.35316004297E+02  0.00000000000E+00 0. -1.
</event>
<event>
 4    1  0.2134315E+005  0.2207524E+02  0.7546771E-02  0.1504449E+00
          2   -1    0    0  503    0  0.00000000000E+00  0.00000000000E+00  0.47316183669E+03  0.47316183669E+03  0.00000000000E+00 0.  1.
         21   -1    0    0  501  502 -0.00000000000E+00 -0.00000000000E+00 -0.22916717511E+02  0.22916717511E+02  0.00000000000E+00 0.  1.
          2    1    1    2  501    0  0.20218741981E+02 -0.88610729940E+01  0.46752412371E+03  0.46804500039E+03  0.00000000000E+00 0.  1.
         21    1    1    2  503  502 -0.20218741981E+02  0.88610729940E+01 -0.17279004527E+02  0.28033553812E+02  0.00000000000E+00 0.  1.
</event>
<event>
 4    1  0.2134315E+005  0.2226697E+02  0.7546771E-02  0.1501914E+00
          2   -1    0    0  503    0  0.00000000000E+00  0.00000000000E+00  0.10871655161E+04  0.10871655161E+04  0.00000000000E+00 0. -1.
         21   -1    0    0  501  502 -0.00000000000E+00 -0.00000000000E+00 -0.49778609883E+00  0.49778609883E+00  0.00000000000E+00 0. -1.
          2    1    1    2  501    0 -0.21686447739E+02 -0.50513297856E+01  0.70077633355E+03  0.70113000764E+03  0.00000000000E+00 0. -1.
         21    1    1    2  503  502  0.21686447739E+02  0.50513297856E+01  0.38589139641E+03  0.38653329452E+03  0.00000000000E+00 0. -1.
</event>
<event>
 4    1  0.2134315E+005  0.2082535E+02  0.7546771E-02  0.1521773E+00
          2   -1    0    0  502    0  0.00000000000E+00  0.00000000000E+00  0.15334595463E+04  0.15334595463E+04  0.00000000000E+00 0.  1.
         21   -1    0    0  503  502 -0.00000000000E+00 -0.00000000000E+00 -0.52650091814E+01  0.52650091814E+01  0.00000000000E+00 0.  1.
          2    1    1    2  501    0 -0.17660023984E+02  0.11037152623E+02  0.15125103471E+04  0.15126537097E+04  0.00000000000E+00 0.  1.
         21    1    1    2  503  501  0.17660023984E+02 -0.11037152623E+02  0.15684189946E+02  0.26070845775E+02  0.00000000000E+00 0.  1.
</event>
<event>
 4    1  0.2134315E+005  0.3671662E+02  0.7546771E-02  0.1368880E+00
          2   -1    0    0  502    0  0.00000000000E+00  0.00000000000E+00  0.12686946752E+04  0.12686946752E+04  0.00000000000E+00 0.  1.
         21   -1    0    0  503  502 -0.00000000000E+00 -0.00000000000E+00 -0.21874346584E+01  0.21874346584E+01  0.00000000000E+00 0. -1.
          2    1    1    2  501    0  0.32524970345E+02 -0.17036339166E+02  0.10889260393E+04  0.10895448727E+04  0.00000000000E+00 0.  1.
         21    1    1    2  503  501 -0.32524970345E+02  0.17036339166E+02  0.17758120125E+03  0.18133723718E+03  0.00000000000E+00 0. -1.
</event>
<event>
 4    1  0.2134315E+005  0.3285210E+02  0.7546771E-02  0.1396327E+00
          2   -1    0    0  503    0  0.00000000000E+00  0.00000000000E+00  0.16303067924E+04  0.16303067924E+04  0.00000000000E+00 0. -1.
         21   -1    0    0  501  502 -0.00000000000E+00 -0.00000000000E+00 -0.27227028995E+03  0.27227028995E+03  0.00000000000E+00 0. -1.
          2    1    1    2  501    0 -0.31698261945E+02 -0.86302209244E+01  0.16291496063E+04  0.16294808069E+04  0.00000000000E+00 0. -1.
         21    1    1    2  503  502  0.31698261945E+02  0.86302209244E+01 -0.27111310388E+03  0.27309627536E+03  0.00000000000E+00 0. -1.
</event>
<event>
 4    1  0.2134315E+005  0.2983673E+02  0.7546771E-02  0.1421021E+00
          2   -1    0    0  502    0  0.00000000000E+00  0.00000000000E+00  0.10818549447E+04  0.10818549447E+04  0.00000000000E+00 0. -1.
         21   -1    0    0  503  502 -0.00000000000E+00 -0.00000000000E+00 -0.87338698165E+00  0.87338698165E+00  0.00000000000E+00 0. -1.
          2    1    1    2  501    0  0.72756016185E+00  0.29827854744E+02  0.67068383542E+03  0.67134718094E+03  0.00000000000E+00 0. -1.
         21    1    1    2  503  501 -0.72756016185E+00 -0.29827854744E+02  0.41029772234E+03  0.41138115078E+03  0.00000000000E+00 0. -1.
</event>
<event>
 4    1  0.2134315E+005  0.2429766E+02  0.7546771E-02  0.1476816E+00
          2   -1    0    0  502    0  0.00000000000E+00  0.00000000000E+00  0.38830250159E+01  0.38830250159E+01  0.00000000000E+00 0.  1.
         21   -1    0    0  503  502 -0.00000000000E+00 -0.00000000000E+00 -0.18705948298E+03  0.18705948298E+03  0.00000000000E+00 0. -1.
          2    1    1    2  501    0 -0.22870443990E+02  0.82048121239E+01 -0.50280055970E+02  0.55843174862E+02  0.00000000000E+00 0.  1.
         21    1    1    2  503  501  0.22870443990E+02 -0.82048121239E+01 -0.13289640199E+03  0.13509933313E+03  0.00000000000E+00 0. -1.
</event>
<event>
 4    1  0.2134315E+005  0.3000265E+02  0.7546771E-02  0.1419574E+00
          2   -1    0    0  502    0  0.00000000000E+00  0.00000000000E+00  0.13641561764E+04  0.13641561764E+04  0.00000000000E+00 0. -1.
         21   -1    0    0  503  502 -0.00000000000E+00 -0.00000000000E+00 -0.81653174592E+00  0.81653174592E+00  0.00000000000E+00 0.  1.
          2    1    1    2  501    0  0.14688270340E+02  0.26161297292E+02  0.98061806359E+03  0.98107693144E+03  0.00000000000E+00 0. -1.
         21    1    1    2  503  501 -0.14688270340E+02 -0.26161297292E+02  0.38272158102E+03  0.38389577667E+03  0.00000000000E+00 0.  1.
</event>
<event>
 4    1  0.2134315E+005  0.2142993E+02  0.7546771E-02  0.1513214E+00
          2   -1    0    0  502    0  0.00000000000E+00  0.00000000000E+00  0.14432968958E+04  0.14432968958E+04  0.00000000000E+00 0. -1.
         21   -1    0    0  503  502 -0.00000000000E+00 -0.00000000000E+00 -0.31914292434E+02  0.31914292434E+02  0.00000000000E+00 0.  1.
          2    1    1    2  501    0  0.20900219601E+02 -0.47352635390E+01  0.14396106748E+04  0.14397701680E+04  0.00000000000E+00 0. -1.
         21    1    1    2  503  501 -0.20900219601E+02  0.47352635390E+01 -0.28228071374E+02  0.35441020212E+02  0.00000000000E+00 0.  1.
</event>
<event>
 4    1  0.2134315E+005  0.2107240E+02  0.7546771E-02  0.1518234E+00
          2   -1    0    0  503    0  0.00000000000E+00  0.00000000000E+00  0.76628436314E+02  0.76628436314E+02  0.00000000000E+00 0. -1.
         21   -1    0    0  501  502 -0.00000000000E+00 -0.00000000000E+00 -0.14546294676E+02  0.14546294676E+02  0.00000000000E+00 0. -1.
          2    1    1    2  501    0  0.13459624296E+02  0.16213717475E+02  0.66400848974E+02  0.69664329933E+02  0.00000000000E+00 0. -1.
         21    1    1    2  503  502 -0.13459624296E+02 -0.16213717475E+02 -0.43187073354E+01  0.21510401057E+02  0.00000000000E+00 0. -1.
</event>
<event>
 4    1  0.2134315E+005  0.2166616E+02  0.7546771E-02  0.1509963E+00
          2   -1    0    0  503    0  0.00000000000E+00  0.00000000000E+00  0.27167535052E+03  0.27167535052E+03  0.00000000000E+00 0.  1.
         21   -1    0    0  501  502 -0.00000000000E+00 -0.00000000000E+00 -0.17748394411E+01  0.17748394411E+01  0.00000000000E+00 0. -1.
          2    1    1    2  501    0  0.61586211291E+01 -0.20772432050E+02  0.15718989420E+03  0.15867603911E+03  0.00000000000E+00 0.  1.
         21    1    1    2  503  502 -0.61586211291E+01  0.20772432050E+02  0.11271061688E+03  0.11477415085E+03  0.00000000000E+00 0. -1.
</event>
<event>
 4    1  0.2134315E+005  0.2146042E+02  0.7546771E-02  0.1512792E+00
          2   -1    0    0  503    0  0.00000000000E+00  0.00000000000E+00  0.39324554042E+03  0.39324554042E+03  0.00000000000E+00 0. -1.
         21   -1    0    0  501  502 -0.00000000000E+00 -0.00000000000E+00 -0.28148552679E+01  0.28148552679E+01  0.00000000000E+00 0.  1.
          2    1    1    2  501    0 -0.17779033052E+02  0.12018972769E+02  0.34654194806E+03  0.34720580567E+03  0.00000000000E+00 0. -1.
         21    1    1    2  503  502  0.17779033052E+02 -0.12018972769E+02  0.43888737090E+02  0.48854590020E+02  0.00000000000E+00 0.  1.
</event>
<event>
 4    1  0.2134315E+005  0.3322563E+02  0.7546771E-02  0.1393486E+00
          2   -1    0    0  503    0  0.00000000000E+00  0.00000000000E+00  0.35438322879E+02  0.35438322879E+02  0.00000000000E+00 0. -1.
         21   -1    0    0  501  502 -0.00000000000E+00 -0.00000000000E+00 -0.34094856825E+02  0.34094856825E+02  0.00000000000E+00 0. -1.
          2    1    1    2  501    0  0.86902254933E+01 -0.32069028346E+02  0.10887451573E+02  0.34963970026E+02  0.00000000000E+00 0. -1.
         21    1    1    2  503  502 -0.86902254933E+01  0.32069028346E+02 -0.95439855185E+01  0.34569209678E+02  0.00000000000E+00 0. -1.
</event>
<event>
 4    1  0.2134315E+005  0.4931052E+02  0.7546771E-02  0.1301190E+00
          2   -1    0    0  503    0  0.00000000000E+00  0.00000000000E+00  0.26686245019E+02  0.26686245019E+02  0.00000000000E+00 0. -1.
         21   -1    0    0  501  502 -0.00000000000E+00 -0.00000000000E+00 -0.51248361131E+03  0.51248361131E+03  0.00000000000E+00 0.  1.
          2    1    1    2  501    0 -0.29683990557E+02 -0.39374971698E+02  0.15493265101E+01  0.49334856889E+02  0.00000000000E+00 0. -1.
         21    1    1    2  503  502  0.29683990557E+02  0.39374971698E+02 -0.48734669280E+03  0.48983499944E+03  0.00000000000E+00 0.  1.
</event>
<event>
 4    1  0.2134315E+005  0.2433716E+02  0.7546771E-02  0.1476357E+00
          2   -1    0    0  503    0  0.00000000000E+00  0.00000000000E+00  0.38476684850E+03  0.38476684850E+03  0.00000000000E+00 0.  1.
         21   -1    0    0  501  502 -0.00000000000E+00 -0.00000000000E+00 -0.66112789358E+01  0.66112789358E+01  0.00000000000E+00 0.  1.
          2    1    1    2  501    0 -0.36540058236E+01  0.24061292448E+02  0.36047732353E+03  0.36129793569E+03  0.00000000000E+00 0.  1.
         21    1    1    2  503  502  0.36540058236E+01 -0.24061292448E+02  0.17678246037E+02  0.30080191751E+02  0.00000000000E+00 0.  1.
</event>
<event>
 4    1  0.2134315E+005  0.6185296E+02  0.7546771E-02  0.1253664E+00
          2   -1    0    0  502    0  0.00000000000E+00  0.00000000000E+00  0.19506388194E+04  0.19506388194E+04  0.00000000000E+00 0. -1.
         21   -1    0    0  503  502 -0.00000000000E+00 -0.00000000000E+00 -0.26847820233E+01  0.26847820233E+01  0.00000000000E+00 0.  1.
          2    1    1    2  501    0  0.60463332549E+02 -0.13037420310E+02  0.14809717024E+04  0.14822627878E+04  0.00000000000E+00 0. -1.
         21    1    1    2  503  501 -0.60463332549E+02  0.13037420310E+02  0.46698233494E+03  0.47106081354E+03  0.00000000000E+00 0.  1.
</event>
<event>
 4    1  0.2134315E+005  0.2369631E+02  0.7546771E-02  0.1483935E+00
          2   -1    0    0  503    0  0.00000000000E+00  0.00000000000E+00  0.16667735535E+04  0.16667735535E+04  0.00000000000E+00 0. -1.
         21   -1    0    0  501  502 -0.00000000000E+00 -0.00000000000E+00 -0.85411299677E+01  0.85411299677E+01  0.00000000000E+00 0. -1.
          2    1    1    2  501    0  0.97154445192E+01 -0.21613075220E+02  0.16500875252E+04  0.16502576635E+04  0.00000000000E+00 0. -1.
         21    1    1    2  503  502 -0.97154445192E+01  0.21613075220E+02  0.81448982813E+01  0.25057019988E+02  0.00000000000E+00 0. -1.
</event>
<event>
 4    1  0.2134315E+005  0.2349493E+02  0.7546771E-02  0.1486375E+00
          2   -1    0    0  503    0  0.00000000000E+00  0.00000000000E+00  0.42810004954E+01  0.42810004954E+01  0.00000000000E+00 0.  1.
         21   -1    0    0  501  502 -0.00000000000E+00 -0.00000000000E+00 -0.13753732075E+03  0.13753732075E+03  0.00000000000E+00 0.  1.
          2    1    1    2  501    0  0.21493781799E+02 -0.94883585432E+01 -0.84352054006E+02  0.87563009421E+02  0.00000000000E+00 0.  1.
         21    1    1    2  503  502 -0.21493781799E+02  0.94883585432E+01 -0.48904266251E+02  0.54255311826E+02  0.00000000000E+00 0.  1.
</event>
<event>
 4    1  0.2134315E+005  0.3592073E+02  0.7546771E-02  0.1374203E+00
          2   -1    0    0  502    0  0.00000000000E+00  0.00000000000E+00  0.16433620573E+04  0.16433620573E+04  0.00000000000E+00 0.  1.
         21   -1    0    0  503  502 -0.00000000000E+00 -0.00000000000E+00 -0.36746765630E+01  0.36746765630E+01  0.00000000000E+00 0. -1.
          2    1    1    2  501    0 -0.30049624807E+02 -0.19680412149E+02  0.15501019668E+04  0.15505181089E+04  0.00000000000E+00 0.  1.
         21    1    1    2  503  501  0.30049624807E+02  0.19680412149E+02  0.89585413965E+02  0.96518624984E+02  0.00000000000E+00 0. -1.
</event>
<event>
 4    1  0.2134315E+005  0.2941047E+02  0.7546771E-02  0.1424790E+00
          2   -1    0    0  503    0  0.00000000000E+00  0.00000000000E+00  0.12532764228E+04  0.12532764228E+04  0.00000000000E+00 0. -1.
         21   -1    0    0  501  502 -0.00000000000E+00 -0.00000000000E+00 -0.30070720313E+01  0.30070720313E+01  0.00000000000E+00 0.  1.
          2    1    1    2  501    0  0.27582937192E+02 -0.10205757753E+02  0.11764999606E+04  0.11768675088E+04  0.00000000000E+00 0. -1.
         21    1    1    2  503  502 -0.27582937192E+02  0.10205757753E+02  0.73769390153E+02  0.79415986042E+02  0.00000000000E+00 0.  1.
</event>
<event>
 4    1  0.2134315E+005  0.2098560E+02  0.7546771E-02  0.1519470E+00
          2   -1    0    0  502    0  0.00000000000E+00  0.00000000000E+00  0.28578182300E+01  0.28578182300E+01  0.00000000000E+00 0. -1.
         21   -1    0    0  503  502 -0.00000000000E+00 -0.00000000000E+00 -0.16263878847E+03  0.16263878847E+03  0.00000000000E+00 0. -1.
          2    1    1    2  501    0  0.15965969895E+02  0.13619224669E+02 -0.60932396185E+02  0.64444956204E+02  0.00000000000E+00 0. -1.
         21    1    1    2  503  501 -0.15965969895E+02 -0.13619224669E+02 -0.98848574058E+02  0.10105165050E+03  0.00000000000E+00 0. -1.
</event>
<event>
 4    1  0.2134315E+005  0.2083597E+02  0.7546771E-02  0.1521620E+00
          2   -1    0    0  502    0  0.00000000000E+00  0.00000000000E+00  0.90249700307E+03  0.90249700307E+03  0.00000000000E+00 0. -1.
         21   -1    0    0  503  502 -0.00000000000E+00 -0.00000000000E+00 -0.11228442875E+02  0.11228442875E+02  0.00000000000E+00 0. -1.
          2    1    1    2  501    0  0.19621684465E+02  0.70090864542E+01  0.89260359300E+03  0.89284674611E+03  0.00000000000E+00 0. -1.
         21    1    1    2  503  501 -0.19621684465E+02 -0.70090864542E+01 -0.13350328103E+01  0.20878699835E+02  0.00000000000E+00 0. -1.
</event>
<event>
 4    1  0.2134315E+005  0.2479002E+02  0.7546771E-02  0.1471166E+00
          2   -1    0    0  502    0  0.00000000000E+00  0.00000000000E+00  0.57132491467E+03  0.57132491467E+03  0.00000000000E+00 0. -1.
         21   -1    0    0  503  502 -0.00000000000E+00 -0.00000000000E+00 -0.29256885817E+01  0.29256885817E+01  0.00000000000E+00 0.  1.
          2    1    1    2  501    0 -0.24395363600E+02 -0.44058564946E+01  0.51252167194E+03  0.51312085277E+03  0.00000000000E+00 0. -1.
         21    1    1    2  503  501  0.24395363600E+02  0.44058564946E+01  0.55877554145E+02  0.61129750481E+02  0.00000000000E+00 0.  1.
</event>
<event>
 4    1  0.2134315E+005  0.3224001E+02  0.7546771E-02  0.1401079E+00
          2   -1    0    0  503    0  0.00000000000E+00  0.00000000000E+00  0.65045786688E+02  0.65045786688E+02  0.00000000000E+00 0. -1.
         21   -1    0    0  501  502 -0.00000000000E+00 -0.00000000000E+00 -0.59827207868E+02  0.59827207868E+02  0.00000000000E+00 0.  1.
          2    1    1    2  501    0 -0.25904041656E+02  0.19193715934E+02  0.56060945810E+02  0.64670300375E+02  0.00000000000E+00 0. -1.
         21    1    1    2  503  502  0.25904041656E+02 -0.19193715934E+02 -0.50842366990E+02  0.60202694181E+02  0.00000000000E+00 0.  1.
</event>
<event>
 4    1  0.2134315E+005  0.2369389E+02  0.7546771E-02  0.1483964E+00
          2   -1    0    0  502    0  0.00000000000E+00  0.00000000000E+00  0.81482690346E+03  0.81482690346E+03  0.00000000000E+00 0. -1.
         21   -1    0    0  503  502 -0.00000000000E+00 -0.00000000000E+00 -0.65847753410E+01  0.65847753410E+01  0.00000000000E+00 0. -1.
          2    1    1    2  501    0  0.14762605080E+01 -0.23647851618E+02  0.79274680275E+03  0.79310080916E+03  0.00000000000E+00 0. -1.
         21    1    1    2  503  501 -0.14762605080E+01  0.23647851618E+02  0.15495325373E+02  0.28310869638E+02  0.00000000000E+00 0. -1.
</event>
<event>
 4    1  0.2134315E+005  0.3477555E+02  0.7546771E-02  0.1382148E+00
          2   -1    0    0  502    0  0.00000000000E+00  0.00000000000E+00  0.22849877918E+02  0.22849877918E+02  0.00000000000E+00 0. -1.
         21   -1    0    0  503  502 -0.00000000000E+00 -0.00000000000E+00 -0.65368061755E+02  0.65368061755E+02  0.00000000000E+00 0.  1.
          2    1    1    2  501    0 -0.56040592320E+01  0.34321032116E+02 -0.20148452892E+01  0.34833867527E+02  0.00000000000E+00 0. -1.
         21    1    1    2  503  501  0.56040592320E+01 -0.34321032116E+02 -0.40503338548E+02  0.53384072146E+02  0.00000000000E+00 0.  1.
</event>
<event>
 4    1  0.2134315E+005  0.3164870E+02  0.7546771E-02  0.1405791E+00
          2   -1    0    0  503    0  0.00000000000E+00  0.00000000000E+00  0.26861373051E+03  0.26861373051E+03  0.00000000000E+00 0. -1.
         21   -1    0    0  501  502 -0.00000000000E+00 -0.00000000000E+00 -0.13779062879E+02  0.13779062879E+02  0.00000000000E+00 0. -1.
          2    1    1    2  501    0  0.26731062402E+02 -0.16943737992E+02  0.24800414840E+03  0.25001539468E+03  0.00000000000E+00 0. -1.
         21    1    1    2  503  502 -0.26731062402E+02  0.16943737992E+02  0.68305192350E+01  0.32377398711E+02  0.00000000000E+00 0. -1.
</event>
<event>
 4    1  0.2134315E+005  0.3306626E+02  0.7546771E-02  0.1394692E+00
          2   -1    0    0  502    0  0.00000000000E+00  0.00000000000E+00  0.62557960868E+02  0.62557960868E+02  0.00000000000E+00 0. -1.
         21   -1    0    0  503  502 -0.00000000000E+00 -0.00000000000E+00 -0.17486413964E+02  0.17486413964E+02  0.00000000000E+00 0. -1.
          2    1    1    2  501    0  0.45340072777E+01  0.32753940329E+02  0.23422159457E+02  0.40521295423E+02  0.00000000000E+00 0. -1.
         21    1    1    2  503  501 -0.45340072777E+01 -0.32753940329E+02  0.21649387447E+02  0.39523079409E+02  0.00000000000E+00 0. -1.
</event>
<event>
 4    1  0.2134315E+005  0.2161741E+02  0.7546771E-02  0.1510630E+00
          2   -1    0    0  502    0  0.00000000000E+00  0.00000000000E+00  0.89139941352E+03  0.89139941352E+03  0.00000000000E+00 0. -1.
         21   -1    0    0  503  502 -0.00000000000E+00 -0.00000000000E+00 -0.58350857080E+01  0.58350857080E+01  0.00000000000E+00 0.  1.
          2    1    1    2  501    0  0.17706283052E+02 -0.12401603129E+02  0.87077249909E+03  0.87104078974E+03  0.00000000000E+00 0. -1.
         21    1    1    2  503  501 -0.17706283052E+02  0.12401603129E+02  0.14791828717E+02  0.26193709483E+02  0.00000000000E+00 0.  1.
</event>
<event>
 4    1  0.2134315E+005  0.2646151E+02  0.7546771E-02  0.1453094E+00
          2   -1    0    0  502    0  0.00000000000E+00  0.00000000000E+00  0.10379588746E+03  0.10379588746E+03  0.00000000000E+00 0.  1.
         21   -1    0    0  503  502 -0.00000000000E+00 -0.00000000000E+00 -0.54877227787E+02  0.54877227787E+02  0.00000000000E+00 0. -1.
          2    1    1    2  501    0 -0.19258873308E+02 -0.18146829135E+02  0.98759625666E+02  0.10224321626E+03  0.00000000000E+00 0.  1.
         21    1    1    2  503  501  0.19258873308E+02  0.18146829135E+02 -0.49840965994E+02  0.56429898990E+02  0.00000000000E+00 0. -1.
</event>
<event>
 4    1  0.2134315E+005  0.2775930E+02  0.7546771E-02  0.1440126E+00
          2   -1    0    0  502    0  0.00000000000E+00  0.00000000000E+00  0.16549577120E+02  0.16549577120E+02  0.00000000000E+00 0.  1.
         21   -1    0    0  503  502 -0.00000000000E+00 -0.00000000000E+00 -0.32975519703E+03  0.32975519703E+03  0.00000000000E+00 0.  1.
          2    1    1    2  501    0 -0.12609135698E+01  0.27730644183E+02  0.38599287562E+01  0.28026372934E+02  0.00000000000E+00 0.  1.
         21    1    1    2  503  501  0.12609135698E+01 -0.27730644183E+02 -0.31706554867E+03  0.31827840122E+03  0.00000000000E+00 0.  1.
</event>
<event>
 4    1  0.2134315E+005  0.2677130E+02  0.7546771E-02  0.1449919E+00
          2   -1    0    0  503    0  0.00000000000E+00  0.00000000000E+00  0.22240242505E+03  0.22240242505E+03  0.00000000000E+00 0. -1.
         21   -1    0    0  501  502 -0.00000000000E+00 -0.00000000000E+00 -0.14237821757E+04  0.14237821757E+04  0.00000000000E+00 0.  1.
          2    1    1    2  501    0  0.26321530401E+02 -0.48866615589E+01  0.22147041564E+03  0.22308260225E+03  0.00000000000E+00 0. -1.
         21    1    1    2  503  502 -0.26321530401E+02  0.48866615589E+01 -0.14228501663E+04  0.14231019985E+04  0.00000000000E+00 0.  1.
</event>
<event>
 4    1  0.2134315E+005  0.2765834E+02  0.7546771E-02  0.1441105E+00
          2   -1    0    0  502    0  0.00000000000E+00  0.00000000000E+00  0.43950137298E+03  0.43950137298E+03  0.00000000000E+00 0.  1.
         21   -1    0    0  503  502 -0.00000000000E+00 -0.00000000000E+00 -0.20371068353E+01  0.20371068353E+01  0.00000000000E+00 0.  1.
          2    1    1    2  501    0 -0.26135848059E+02 -0.90499409727E+01  0.30296259514E+03  0.30422248116E+03  0.00000000000E+00 0.  1.
         21    1    1    2  503  501  0.26135848059E+02  0.90499409727E+01  0.13450167101E+03  0.13731599866E+03  0.00000000000E+00 0.  1.
</event>
<event>
 4    1  0.2134315E+005  0.6805640E+02  0.7546771E-02  0.1234671E+00
          2   -1    0    0  503    0  0.00000000000E+00  0.00000000000E+00  0.11736254634E+04  0.11736254634E+04  0.00000000000E+00 0. -1.
         21   -1    0    0  501  502 -0.00000000000E+00 -0.00000000000E+00 -0.43985727971E+01  0.43985727971E+01  0.00000000000E+00 0. -1.
          2    1    1    2  501    0  0.33884987382E+02  0.59021021637E+02  0.77345111309E+03  0.77643950035E+03  0.00000000000E+00 0. -1.
         21    1    1    2  503  502 -0.33884987382E+02 -0.59021021637E+02  0.39577577751E+03  0.40158453584E+03  0.00000000000E+00 0. -1.
</event>
<event>
 4    1  0.2134315E+005  0.5494893E+02  0.7546771E-02  0.1278032E+00
          2   -1    0    0  503    0  0.00000000000E+00  0.00000000000E+00  0.55741052384E+03  0.55741052384E+03  0.00000000000E+00 0.  1.
         21   -1    0    0  501  502 -0.00000000000E+00 -0.00000000000E+00 -0.64717969235E+02  0.64717969235E+02  0.00000000000E+00 0.  1.
          2    1    1    2  501    0 -0.40410694288E+02  0.37233871669E+02  0.54410826662E+03  0.54687584626E+03  0.00000000000E+00 0.  1.
         21    1    1    2  503  502  0.40410694288E+02 -0.37233871669E+02 -0.51415712011E+02  0.75252646823E+02  0.00000000000E+00 0.  1.
</event>
<event>
 4    1  0.2134315E+005  0.3617767E+02  0.7546771E-02  0.1372468E+00
          2   -1    0    0  503    0  0.00000000000E+00  0.00000000000E+00  0.40889902430E+02  0.40889902430E+02  0.00000000000E+00 0. -1.
         21   -1    0    0  501  502 -0.00000000000E+00 -0.00000000000E+00 -0.54012226424E+02  0.54012226424E+02  0.00000000000E+00 0. -1.
          2    1    1    2  501    0  0.11569277901E+02  0.34277922456E+02  0.23725269520E+02  0.43263293597E+02  0.00000000000E+00 0. -1.
         21    1    1    2  503  502 -0.11569277901E+02 -0.34277922456E+02 -0.36847593514E+02  0.51638835258E+02  0.00000000000E+00 0. -1.
</event>
<event>
 4    1  0.2134315E+005  0.2129340E+02  0.7546771E-02  0.1515117E+00
          2   -1    0    0  503    0  0.00000000000E+00  0.00000000000E+00  0.14516256088E+02  0.14516256088E+02  0.00000000000E+00 0.  1.
         21   -1    0    0  501  502 -0.00000000000E+00 -0.00000000000E+00 -0.39452858378E+02  0.39452858378E+02  0.00000000000E+00 0.  1.
          2    1    1    2  501    0 -0.18312088667E+02  0.10866284779E+02 -0.24784232480E+02  0.32675172774E+02  0.00000000000E+00 0.  1.
         21    1    1    2  503  502  0.18312088667E+02 -0.10866284779E+02 -0.15236980989E+00  0.21293941692E+02  0.00000000000E+00 0.  1.
</event>
<event>
 4    1  0.2134315E+005  0.2383688E+02  0.7546771E-02  0.1482249E+00
          2   -1    0    0  502    0  0.00000000000E+00  0.00000000000E+00  0.50935020782E+02  0.50935020782E+02  0.00000000000E+00 0.  1.
         21   -1    0    0  503  502 -0.00000000000E+00 -0.00000000000E+00 -0.32741684070E+03  0.32741684070E+03  0.00000000000E+00 0. -1.
          2    1    1    2  501    0  0.23509705066E+02  0.39357894847E+01  0.47684414086E+02  0.53310411909E+02  0.00000000000E+00 0.  1.
         21    1    1    2  503  501 -0.23509705066E+02 -0.39357894847E+01 -0.32416623401E+03  0.32504144957E+03  0.00000000000E+00 0. -1.
</event>
<event>
 4    1  0.2134315E+005  0.2427143E+02  0.7546771E-02  0.1477121E+00
          2   -1    0    0  502    0  0.00000000000E+00  0.00000000000E+00  0.16303957585E+04  0.16303957585E+04  0.00000000000E+00 0. -1.
         21   -1    0    0  503  502 -0.00000000000E+00 -0.00000000000E+00 -0.65302763662E+00  0.65302763662E+00  0.00000000000E+00 0. -1.
          2    1    1    2  501    0  0.21030108859E+02 -0.12117628263E+02  0.13599278540E+04  0.13601444300E+04  0.00000000000E+00 0. -1.
         21    1    1    2  503  501 -0.21030108859E+02  0.12117628263E+02  0.26981487687E+03  0.27090435614E+03  0.00000000000E+00 0. -1.
</event>
<event>
 4    1  0.2134315E+005  0.2574824E+02  0.7546771E-02  0.1460604E+00
          2   -1    0    0  503    0  0.00000000000E+00  0.00000000000E+00  0.13721502447E+04  0.13721502447E+04  0.00000000000E+00 0.  1.
         21   -1    0    0  501  502 -0.00000000000E+00 -0.00000000000E+00 -0.19004540133E+01  0.19004540133E+01  0.00000000000E+00 0. -1.
          2    1    1    2  501    0  0.15872979992E+02 -0.20273641459E+02  0.12784238972E+04  0.12786831637E+04  0.00000000000E+00 0.  1.
         21    1    1    2  503  502 -0.15872979992E+02  0.20273641459E+02  0.91825893424E+02  0.95367535016E+02  0.00000000000E+00 0. -1.
</event>
<event>
 4    1  0.2134315E+005  0.2298880E+02  0.7546771E-02  0.1492639E+00
          2   -1    0    0  502    0  0.00000000000E+00  0.00000000000E+00  0.32642041662E+03  0.32642041662E+03  0.00000000000E+00 0. -1.
         21   -1    0    0  503  502 -0.00000000000E+00 -0.00000000000E+00 -0.56952490461E+02  0.56952490461E+02  0.00000000000E+00 0. -1.
          2    1    1    2  501    0  0.18535464459E+02 -0.13598591352E+02  0.32367616391E+03  0.32449151639E+03  0.00000000000E+00 0. -1.
         21    1    1    2  503  501 -0.18535464459E+02  0.13598591352E+02 -0.54208237748E+02  0.58881390687E+02  0.00000000000E+00 0. -1.
</event>
<event>
 4    1  0.2134315E+005  0.2626290E+02  0.7546771E-02  0.1455156E+00
          2   -1    0    0  502    0  0.00000000000E+00  0.00000000000E+00  0.23570179697E+03  0.23570179697E+03  0.00000000000E+00 0.  1.
         21   -1    0    0  503  502 -0.00000000000E+00 -0.00000000000E+00 -0.38562084019E+02  0.38562084019E+02  0.00000000000E+00 0.  1.
          2    1    1    2  501    0  0.23021111730E+02 -0.12639949844E+02  0.23039595035E+03  0.23188797695E+03  0.00000000000E+00 0.  1.
         21    1    1    2  503  501 -0.23021111730E+02  0.12639949844E+02 -0.33256237397E+02  0.42375904039E+02  0.00000000000E+00 0.  1.
</event>
<event>
 4    1  0.2134315E+005  0.2314095E+02  0.7546771E-02  0.1490736E+00
          2   -1    0    0  503    0  0.00000000000E+00  0.00000000000E+00  0.10371206551E+04  0.10371206551E+04  0.00000000000E+00 0. -1.
         21   -1    0    0  501  502 -0.00000000000E+00 -0.00000000000E+00 -0.72411651576E+00  0.72411651576E+00  0.00000000000E+00 0. -1.
          2    1    1    2  501    0  0.22620004574E+02  0.48825365929E+01  0.79616930271E+03  0.79650553190E+03  0.00000000000E+00 0. -1.
         21    1    1    2  503  502 -0.22620004574E+02 -0.48825365929E+01  0.24022723588E+03  0.24133923972E+03  0.00000000000E+00 0. -1.
</event>
<event>
 4    1  0.2134315E+005  0.3502130E+02  0.7546771E-02  0.1380414E+00
          2   -1    0    0  502    0  0.00000000000E+00  0.00000000000E+00  0.98106813045E+03  0.98106813045E+03  0.00000000000E+00 0. -1.
         21   -1    0    0  503  502 -0.00000000000E+00 -0.00000000000E+00 -0.12678216989E+02  0.12678216989E+02  0.00000000000E+00 0.  1.
          2    1    1    2  501    0  0.33011623332E+02 -0.11692909010E+02  0.95593492391E+03  0.95657622287E+03  0.00000000000E+00 0. -1.
         21    1    1    2  503  501 -0.33011623332E+02  0.11692909010E+02  0.12454989548E+02  0.37170124573E+02  0.00000000000E+00 0.  1.
</event>
<event>
 4    1  0.2134315E+005  0.3490776E+02  0.7546771E-02  0.1381213E+00
          2   -1    0    0  503    0  0.00000000000E+00  0.00000000000E+00  0.13632776561E+03  0.13632776561E+03  0.00000000000E+00 0. -1.
         21   -1    0    0  501  502 -0.00000000000E+00 -0.00000000000E+00 -0.89386657098E+01  0.89386657098E+01  0.00000000000E+00 0. -1.
          2    1    1    2  501    0  0.17781949548E+02 -0.30039210923E+02  0.63297573922E+02  0.72285093809E+02  0.00000000000E+00 0. -1.
         21    1    1    2  503  502 -0.17781949548E+02  0.30039210923E+02  0.64091525978E+02  0.72981337510E+02  0.00000000000E+00 0. -1.
</event>
<event>
 4    1  0.2134315E+005  0.2868529E+02  0.7546771E-02  0.1431376E+00
          2   -1    0    0  502    0  0.00000000000E+00  0.00000000000E+00  0.36828796686E+03  0.36828796686E+03  0.00000000000E+00 0.  1.
         21   -1    0    0  503  502 -0.00000000000E+00 -0.00000000000E+00 -0.31074630930E+01  0.31074630930E+01  0.00000000000E+00 0.  1.
          2    1    1    2  501    0 -0.35824061004E+01 -0.28460711345E+02  0.28102871274E+03  0.28248890794E+03  0.00000000000E+00 0.  1.
         21    1    1    2  503  501  0.35824061004E+01  0.28460711345E+02  0.84151791028E+02  0.88906522016E+02  0.00000000000E+00 0.  1.
</event>
<event>
 4    1  0.2134315E+005  0.3381650E+02  0.7546771E-02  0.1389080E+00
          2   -1    0    0  502    0  0.00000000000E+00  0.00000000000E+00  0.11706780370E+04  0.11706780370E+04  0.00000000000E+00 0.  1.
         21   -1    0    0  503  502 -0.00000000000E+00 -0.00000000000E+00 -0.13166392747E+01  0.13166392747E+01  0.00000000000E+00 0.  1.
          2    1    1    2  501    0 -0.14504822576E+02  0.30547761577E+02  0.88238057905E+03  0.88302833584E+03  0.00000000000E+00 0.  1.
         21    1    1    2  503  501  0.14504822576E+02 -0.30547761577E+02  0.28698081864E+03  0.28896634040E+03  0.00000000000E+00 0.  1.
</event>
<event>
 4    1  0.2134315E+005  0.2073761E+02  0.7546771E-02  0.1523044E+00
          2   -1    0    0  503    0  0.00000000000E+00  0.00000000000E+00  0.35814308520E+01  0.35814308520E+01  0.00000000000E+00 0. -1.
         21   -1    0    0  501  502 -0.00000000000E+00 -0.00000000000E+00 -0.12457000726E+03  0.12457000726E+03  0.00000000000E+00 0. -1.
          2    1    1    2  501    0 -0.11274766202E+02 -0.17404830700E+02 -0.72662917018E+02  0.75564197834E+02  0.00000000000E+00 0. -1.
         21    1    1    2  503  502  0.11274766202E+02  0.17404830700E+02 -0.48325659385E+02  0.52587240274E+02  0.00000000000E+00 0. -1.
</event>
<event>
 4    1  0.2134315E+005  0.5209977E+02  0.7546771E-02  0.1289317E+00
          2   -1    0    0  503    0  0.00000000000E+00  0.00000000000E+00  0.70702503496E+03  0.70702503496E+03  0.00000000000E+00 0. -1.
         21   -1    0    0  501  502 -0.00000000000E+00 -0.00000000000E+00 -0.20777892617E+02  0.20777892617E+02  0.00000000000E+00 0. -1.
          2    1    1    2  501    0 -0.19181814925E+02 -0.48440111975E+02  0.67169018595E+03  0.67370772029E+03  0.00000000000E+00 0. -1.
         21    1    1    2  503  502  0.19181814925E+02  0.48440111975E+02  0.14556956387E+02  0.54095207285E+02  0.00000000000E+00 0. -1.
</event>
<event>
 4    1  0.2134315E+005  0.2530948E+02  0.7546771E-02  0.1465371E+00
          2   -1    0    0  503    0  0.00000000000E+00  0.00000000000E+00  0.82659626949E+03  0.82659626949E+03  0.00000000000E+00 0.  1.
         21   -1    0    0  501  502 -0.00000000000E+00 -0.00000000000E+00 -0.78466363701E+00  0.78466363701E+00  0.00000000000E+00 0.  1.
          2    1    1    2  501    0  0.14826391104E+02  0.20512139343E+02  0.36687453303E+03  0.36774650606E+03  0.00000000000E+00 0.  1.
         21    1    1    2  503  502 -0.14826391104E+02 -0.20512139343E+02  0.45893707283E+03  0.45963442707E+03  0.00000000000E+00 0.  1.
</event>
<event>
 4    1  0.2134315E+005  0.3047211E+02  0.7546771E-02  0.1415537E+00
          2   -1    0    0  503    0  0.00000000000E+00  0.00000000000E+00  0.25238970924E+01  0.25238970924E+01  0.00000000000E+00 0. -1.
         21   -1    0    0  501  502 -0.00000000000E+00 -0.00000000000E+00 -0.75230699877E+03  0.75230699877E+03  0.00000000000E+00 0. -1.
          2    1    1    2  501    0  0.17470442006E+02  0.24966646090E+02 -0.10510768777E+03  0.10943571533E+03  0.00000000000E+00 0. -1.
         21    1    1    2  503  502 -0.17470442006E+02 -0.24966646090E+02 -0.64467541391E+03  0.64539518054E+03  0.00000000000E+00 0. -1.
</event>
<event>
 4    1  0.2134315E+005  0.2269589E+02  0.7546771E-02  0.1496353E+00
          2   -1    0    0  503    0  0.00000000000E+00  0.00000000000E+00  0.87826904666E+03  0.87826904666E+03  0.00000000000E+00 0.  1.
         21   -1    0    0  501  502 -0.00000000000E+00 -0.00000000000E+00 -0.69464937989E+00  0.69464937989E+00  0.00000000000E+00 0.  1.
          2    1    1    2  501    0 -0.20325283978E+02 -0.10098826519E+02  0.26537758396E+03  0.26634632630E+03  0.00000000000E+00 0.  1.
         21    1    1    2  503  502  0.20325283978E+02  0.10098826519E+02  0.61219681332E+03  0.61261736974E+03  0.00000000000E+00 0.  1.
</event>
<event>
 4    1  0.2134315E+005  0.3630298E+02  0.7546771E-02  0.1371627E+00
          2   -1    0    0  502    0  0.00000000000E+00  0.00000000000E+00  0.22980656655E+02  0.22980656655E+02  0.00000000000E+00 0. -1.
         21   -1    0    0  503  502 -0.00000000000E+00 -0.00000000000E+00 -0.17765680077E+03  0.17765680077E+03  0.00000000000E+00 0.  1.
          2    1    1    2  501    0  0.26286358279E+02 -0.25038649311E+02  0.52160695873E+01  0.36675795463E+02  0.00000000000E+00 0. -1.
         21    1    1    2  503  501 -0.26286358279E+02  0.25038649311E+02 -0.15989221370E+03  0.16396166196E+03  0.00000000000E+00 0.  1.
</event>
<event>
 4    1  0.2134315E+005  0.3131906E+02  0.7546771E-02  0.1408470E+00
          2   -1    0    0  502    0  0.00000000000E+00  0.00000000000E+00  0.84685052617E+02  0.84685052617E+02  0.00000000000E+00 0. -1.
         21   -1    0    0  503  502 -0.00000000000E+00 -0.00000000000E+00 -0.12814084878E+02  0.12814084878E+02  0.00000000000E+00 0. -1.
          2    1    1    2  501    0 -0.45612553519E+01  0.30985130653E+02  0.51047420114E+02  0.59889251726E+02  0.00000000000E+00 0. -1.
         21    1    1    2  503  501  0.45612553519E+01 -0.30985130653E+02  0.20823547625E+02  0.37609885770E+02  0.00000000000E+00 0. -1.
</event>
<event>
 4    1  0.2134315E+005  0.2431077E+02  0.7546771E-02  0.1476664E+00
          2   -1    0    0  502    0  0.00000000000E+00  0.00000000000E+00  0.18437601472E+04  0.18437601472E+04  0.00000000000E+00 0.  1.
         21   -1    0    0  503  502 -0.00000000000E+00 -0.00000000000E+00 -0.16580611006E+01  0.16580611006E+01  0.00000000000E+00 0.  1.
          2    1    1    2  501    0  0.22607122710E+02 -0.89404317887E+01  0.17497820533E+04  0.17499509271E+04  0.00000000000E+00 0.  1.
         21    1    1    2  503  501 -0.22607122710E+02  0.89404317887E+01  0.92320032814E+02  0.95467281184E+02  0.00000000000E+00 0.  1.
</event>
<event>
 4    1  0.2134315E+005  0.2285540E+02  0.7546771E-02  0.1494322E+00
          2   -1    0    0  503    0  0.00000000000E+00  0.00000000000E+00  0.70021746193E+03  0.70021746193E+03  0.00000000000E+00 0.  1.
         21   -1    0    0  501  502 -0.00000000000E+00 -0.00000000000E+00 -0.95694767769E+00  0.95694767769E+00  0.00000000000E+00 0.  1.
          2    1    1    2  501    0 -0.20184235523E+02 -0.10722227098E+02  0.51422979857E+03  0.51473746245E+03  0.00000000000E+00 0.  1.
         21    1    1    2  503  502  0.20184235523E+02  0.10722227098E+02  0.18503071569E+03  0.18643694716E+03  0.00000000000E+00 0.  1.
</event>
<event>
 4    1  0.2134315E+005  0.2122151E+02  0.7546771E-02  0.1516126E+00
          2   -1    0    0  503    0  0.00000000000E+00  0.00000000000E+00  0.21743009084E+04  0.21743009084E+04  0.00000000000E+00 0.  1.
         21   -1    0    0  501  502 -0.00000000000E+00 -0.00000000000E+00 -0.20718370290E+00  0.20718370290E+00  0.00000000000E+00 0.  1.
          2    1    1    2  501    0 -0.20998488010E+02 -0.30685214069E+01  0.10687632093E+04  0.10689738771E+04  0.00000000000E+00 0.  1.
         21    1    1    2  503  502  0.20998488010E+02  0.30685214069E+01  0.11053305154E+04  0.11055342151E+04  0.00000000000E+00 0.  1.
</event>
<event>
 4    1  0.2134315E+005  0.2204593E+02  0.7546771E-02  0.1504839E+00
          2   -1    0    0  502    0  0.00000000000E+00  0.00000000000E+00  0.38159005942E+03  0.38159005942E+03  0.00000000000E+00 0. -1.
         21   -1    0    0  503  502 -0.00000000000E+00 -0.00000000000E+00 -0.39970200462E+02  0.39970200462E+02  0.00000000000E+00 0.  1.
          2    1    1    2  501    0 -0.14959091262E+02  0.16194093294E+02  0.37820454208E+03  0.37884653716E+03  0.00000000000E+00 0. -1.
         21    1    1    2  503  501  0.14959091262E+02 -0.16194093294E+02 -0.36584683126E+02  0.42713722718E+02  0.00000000000E+00 0.  1.
</event>
<event>
 4    1  0.2134315E+005  0.2226695E+02  0.7546771E-02  0.1501914E+00
          2   -1    0    0  503    0  0.00000000000E+00  0.00000000000E+00  0.43110917159E+02  0.43110917159E+02  0.00000000000E+00 0. -1.
         21   -1    0    0  501  502 -0.00000000000E+00 -0.00000000000E+00 -0.75445887087E+02  0.75445887087E+02  0.00000000000E+00 0.  1.
          2    1    1    2  501    0  0.98920494734E+01  0.19949045080E+02  0.38406006991E+02  0.44394125911E+02  0.00000000000E+00 0. -1.
         21    1    1    2  503  502 -0.98920494734E+01 -0.19949045080E+02 -0.70740976919E+02  0.74162678336E+02  0.00000000000E+00 0.  1.
</event>
<event>
 4    1  0.2134315E+005  0.2372924E+02  0.7546771E-02  0.1483539E+00
          2   -1    0    0  503    0  0.00000000000E+00  0.00000000000E+00  0.12103577434E+03  0.12103577434E+03  0.00000000000E+00 0.  1.
         21   -1    0    0  501  502 -0.00000000000E+00 -0.00000000000E+00 -0.16693130608E+02  0.16693130608E+02  0.00000000000E+00 0.  1.
          2    1    1    2  501    0  0.20147943983E+01 -0.23643544704E+02  0.11065802322E+03  0.11317364846E+03  0.00000000000E+00 0.  1.
         21    1    1    2  503  502 -0.20147943983E+01  0.23643544704E+02 -0.63153794958E+01  0.24555256480E+02  0.00000000000E+00 0.  1.
</event>
<event>
 4    1  0.2134315E+005  0.2151849E+02  0.7546771E-02  0.1511989E+00
          2   -1    0    0  503    0  0.00000000000E+00  0.00000000000E+00  0.63504355877E+03  0.63504355877E+03  0.00000000000E+00 0.  1.
         21   -1    0    0  501  502 -0.00000000000E+00 -0.00000000000E+00 -0.75464599700E+00  0.75464599700E+00  0.00000000000E+00 0.  1.
          2    1    1    2  501    0 -0.10803458724E+02 -0.18609961382E+02  0.25871814966E+03  0.25961149117E+03  0.00000000000E+00 0.  1.
         21    1    1    2  503  502  0.10803458724E+02  0.18609961382E+02  0.37557076312E+03  0.37618671360E+03  0.00000000000E+00 0.  1.
</event>
<event>
 4    1  0.2134315E+005  0.2086453E+02  0.7546771E-02  0.1521208E+00
          2   -1    0    0  502    0  0.00000000000E+00  0.00000000000E+00  0.14695617290E+03  0.14695617290E+03  0.00000000000E+00 0.  1.
         21   -1    0    0  503  502 -0.00000000000E+00 -0.00000000000E+00 -0.32329100480E+02  0.32329100480E+02  0.00000000000E+00 0. -1.
          2    1    1    2  501    0 -0.19988631918E+02 -0.59818913456E+01  0.14275056170E+03  0.14426729115E+03  0.00000000000E+00 0.  1.
         21    1    1    2  503  501  0.19988631918E+02  0.59818913456E+01 -0.28123489281E+02  0.35017982229E+02  0.00000000000E+00 0. -1.
</event>
<event>
 4    1  0.2134315E+005  0.3602585E+02  0.7546771E-02  0.1373491E+00
          2   -1    0    0  502    0  0.00000000000E+00  0.00000000000E+00  0.16687204417E+04  0.16687204417E+04  0.00000000000E+00 0.  1.
         21   -1    0    0  503  502 -0.00000000000E+00 -0.00000000000E+00 -0.34136974110E+01  0.34136974110E+01  0.00000000000E+00 0. -1.
          2    1    1    2  501    0 -0.31871069260E+02 -0.16795736337E+02  0.15673300645E+04  0.15677440457E+04  0.00000000000E+00 0.  1.
         21    1    1    2  503  501  0.31871069260E+02  0.16795736337E+02  0.97976679772E+02  0.10439009337E+03  0.00000000000E+00 0. -1.
</event>
<event>
 4    1  0.2134315E+005  0.2467220E+02  0.7546771E-02  0.1472504E+00
          2   -1    0    0  503    0  0.00000000000E+00  0.00000000000E+00  0.17304440730E+04  0.17304440730E+04  0.00000000000E+00 0.  1.
         21   -1    0    0  501  502 -0.00000000000E+00 -0.00000000000E+00 -0.71037807279E+00  0.71037807279E+00  0.00000000000E+00 0.  1.
          2    1    1    2  501    0  0.24408138198E+02  0.36000225958E+01  0.14798615951E+04  0.14800672478E+04  0.00000000000E+00 0.  1.
         21    1    1    2  503  502 -0.24408138198E+02 -0.36000225958E+01  0.24987209989E+03  0.25108720333E+03  0.00000000000E+00 0.  1.
</event>
<event>
 4    1  0.2134315E+005  0.2235078E+02  0.7546771E-02  0.1500815E+00
          2   -1    0    0  502    0  0.00000000000E+00  0.00000000000E+00  0.24144730221E+03  0.24144730221E+03  0.00000000000E+00 0.  1.
         21   -1    0    0  503  502 -0.00000000000E+00 -0.00000000000E+00 -0.18311194952E+02  0.18311194952E+02  0.00000000000E+00 0. -1.
          2    1    1    2  501    0  0.21155924025E+02  0.72100197981E+01  0.23388978381E+03  0.23495529038E+03  0.00000000000E+00 0.  1.
         21    1    1    2  503  501 -0.21155924025E+02 -0.72100197981E+01 -0.10753676558E+02  0.24803206775E+02  0.00000000000E+00 0. -1.
</event>
<event>
 4    1  0.2134315E+005  0.2183704E+02  0.7546771E-02  0.1507642E+00
          2   -1    0    0  502    0  0.00000000000E+00  0.00000000000E+00  0.15042734504E+04  0.15042734504E+04  0.00000000000E+00 0. -1.
         21   -1    0    0  503  502 -0.00000000000E+00 -0.00000000000E+00 -0.31809572808E+00  0.31809572808E+00  0.00000000000E+00 0. -1.
          2    1    1    2  501    0 -0.66476357256E+01 -0.20800605373E+02  0.70784549801E+03  0.70818225430E+03  0.00000000000E+00 0. -1.
         21    1    1    2  503  501  0.66476357256E+01  0.20800605373E+02  0.79610985671E+03  0.79640929188E+03  0.00000000000E+00 0. -1.
</event>
<event>
 4    1  0.2134315E+005  0.2091052E+02  0.7546771E-02  0.1520546E+00
          2   -1    0    0  503    0  0.00000000000E+00  0.00000000000E+00  0.12209523476E+03  0.12209523476E+03  0.00000000000E+00 0. -1.
         21   -1    0    0  501  502 -0.00000000000E+00 -0.00000000000E+00 -0.91604878208E+03  0.91604878208E+03  0.00000000000E+00 0.  1.
          2    1    1    2  501    0  0.20901213443E+02 -0.62387810491E+00  0.12107960563E+03  0.12287196933E+03  0.00000000000E+00 0. -1.
         21    1    1    2  503  502 -0.20901213443E+02  0.62387810491E+00 -0.91503315295E+03  0.91527204751E+03  0.00000000000E+00 0.  1.
</event>
<event>
 4    1  0.2134315E+005  0.2387076E+02  0.7546771E-02  0.1481844E+00
          2   -1    0    0  503    0  0.00000000000E+00  0.00000000000E+00  0.24355075872E+03  0.24355075872E+03  0.00000000000E+00 0.  1.
         21   -1    0    0  501  502 -0.00000000000E+00 -0.00000000000E+00 -0.30735358304E+02  0.30735358304E+02  0.00000000000E+00 0.  1.
          2    1    1    2  501    0 -0.23838504297E+02 -0.12404670404E+01  0.23822772012E+03  0.23942067513E+03  0.00000000000E+00 0.  1.
         21    1    1    2  503  502  0.23838504297E+02  0.12404670404E+01 -0.25412319706E+02  0.34865441894E+02  0.00000000000E+00 0.  1.
</event>
<event>
 4    1  0.2134315E+005  0.2513340E+02  0.7546771E-02  0.1467316E+00
          2   -1    0    0  503    0  0.00000000000E+00  0.00000000000E+00  0.57438241964E+03  0.57438241964E+03  0.00000000000E+00 0. -1.
         21   -1    0    0  501  502 -0.00000000000E+00 -0.00000000000E+00 -0.19442840269E+01  0.19442840269E+01  0.00000000000E+00 0. -1.
          2    1    1    2  501    0  0.24080326137E+02 -0.71990167690E+01  0.47613552372E+03  0.47679841117E+03  0.00000000000E+00 0. -1.
         21    1    1    2  503  502 -0.24080326137E+02  0.71990167690E+01  0.96302611901E+02  0.99528292502E+02  0.00000000000E+00 0. -1.
</event>
<event>
 4    1  0.2134315E+005  0.2069240E+02  0.7546771E-02  0.1523702E+00
          2   -1    0    0  503    0  0.00000000000E+00  0.00000000000E+00  0.11320402083E+03  0.11320402083E+03  0.00000000000E+00 0. -1.
         21   -1    0    0  501  502 -0.00000000000E+00 -0.00000000000E+00 -0.43426803999E+01  0.43426803999E+01  0.00000000000E+00 0. -1.
          2    1    1    2  501    0  0.24045061330E+00 -0.20690999131E+02  0.75542717053E+02  0.78325457938E+02  0.00000000000E+00 0. -1.
         21    1    1    2  503  502 -0.24045061330E+00  0.20690999131E+02  0.33318623375E+02  0.39221243289E+02  0.00000000000E+00 0. -1.
</event>
<event>
 4    1  0.2134315E+005  0.2606396E+02  0.7546771E-02  0.1457244E+00
          2   -1    0    0  502    0  0.00000000000E+00  0.00000000000E+00  0.64253709025E+02  0.64253709025E+02  0.00000000000E+00 0.  1.
         21   -1    0    0  503  502 -0.00000000000E+00 -0.00000000000E+00 -0.52780005980E+02  0.52780005980E+02  0.00000000000E+00 0. -1.
          2    1    1    2  501    0  0.24711045888E+02 -0.82882099280E+01  0.58065617434E+02  0.63647043456E+02  0.00000000000E+00 0.  1.
         21    1    1    2  503  501 -0.24711045888E+02  0.82882099280E+01 -0.46591914389E+02  0.53386671549E+02  0.00000000000E+00 0. -1.
</event>
<event>
 4    1  0.2134315E+005  0.2166444E+02  0.7546771E-02  0.1509986E+00
          2   -1    0    0  502    0  0.00000000000E+00  0.00000000000E+00  0.85379728818E+03  0.85379728818E+03  0.00000000000E+00 0. -1.
         21   -1    0    0  503  502 -0.00000000000E+00 -0.00000000000E+00 -0.89140637400E+01  0.89140637400E+01  0.00000000000E+00 0.  1.
          2    1    1    2  501    0 -0.16898213617E+02  0.13557229387E+02  0.84028508919E+03  0.84056432187E+03  0.00000000000E+00 0. -1.
         21    1    1    2  503  501  0.16898213617E+02 -0.13557229387E+02  0.45981352495E+01  0.22147030046E+02  0.00000000000E+00 0.  1.
</event>
<event>
 4    1  0.2134315E+005  0.2042853E+02  0.7546771E-02  0.1527583E+00
          2   -1    0    0  502    0  0.00000000000E+00  0.00000000000E+00  0.12788202984E+04  0.12788202984E+04  0.00000000000E+00 0. -1.
         21   -1    0    0  503  502 -0.00000000000E+00 -0.00000000000E+00 -0.33831376331E+00  0.33831376331E+00  0.00000000000E+00 0.  1.
          2    1    1    2  501    0 -0.83307060884E+01  0.18652727409E+02  0.75958521026E+03  0.75985986639E+03  0.00000000000E+00 0. -1.
         21    1    1    2  503  501  0.83307060884E+01 -0.18652727409E+02  0.51889677436E+03  0.51929874575E+03  0.00000000000E+00 0.  1.
</event>
<event>
 4    1  0.2134315E+005  0.2484990E+02  0.7546771E-02  0.1470490E+00
          2   -1    0    0  503    0  0.00000000000E+00  0.00000000000E+00  0.47672020684E+01  0.47672020684E+01  0.00000000000E+00 0.  1.
         21   -1    0    0  501  502 -0.00000000000E+00 -0.00000000000E+00 -0.13057266936E+03  0.13057266936E+03  0.00000000000E+00 0. -1.
          2    1    1    2  501    0  0.24747284110E+02 -0.22560043840E+01 -0.56869054477E+02  0.62061316323E+02  0.00000000000E+00 0.  1.
         21    1    1    2  503  502 -0.24747284110E+02  0.22560043840E+01 -0.68936412813E+02  0.73278555104E+02  0.00000000000E+00 0. -1.
</event>
<event>
 4    1  0.2134315E+005  0.2039066E+02  0.7546771E-02  0.1528145E+00
          2   -1    0    0  503    0  0.00000000000E+00  0.00000000000E+00  0.29552284715E+03  0.29552284715E+03  0.00000000000E+00 0.  1.
         21   -1    0    0  501  502 -0.00000000000E+00 -0.00000000000E+00 -0.64933529450E+01  0.64933529450E+01  0.00000000000E+00 0.  1.
          2    1    1    2  501    0  0.15590200160E+02  0.13142472496E+02  0.27816571954E+03  0.27891207656E+03  0.00000000000E+00 0.  1.
         21    1    1    2  503  502 -0.15590200160E+02 -0.13142472496E+02  0.10863774667E+02  0.23104123536E+02  0.00000000000E+00 0.  1.
</event>
<event>
 4    1  0.2134315E+005  0.2228842E+02  0.7546771E-02  0.1501632E+00
          2   -1    0    0  503    0  0.00000000000E+00  0.00000000000E+00  0.15340270849E+04  0.15340270849E+04  0.00000000000E+00 0.  1.
         21   -1    0    0  501  502 -0.00000000000E+00 -0.00000000000E+00 -0.44545285211E+00  0.44545285211E+00  0.00000000000E+00 0.  1.
          2    1    1    2  501    0 -0.19637216044E+02 -0.10542928687E+02  0.11676802974E+04  0.11678929962E+04  0.00000000000E+00 0.  1.
         21    1    1    2  503  502  0.19637216044E+02  0.10542928687E+02  0.36590133464E+03  0.36657954156E+03  0.00000000000E+00 0.  1.
</event>
<event>
 4    1  0.2134315E+005  0.2455662E+02  0.7546771E-02  0.1473825E+00
          2   -1    0    0  503    0  0.00000000000E+00  0.00000000000E+00  0.45956283215E+03  0.45956283215E+03  0.00000000000E+00 0. -1.
         21   -1    0    0  501  502 -0.00000000000E+00 -0.00000000000E+00 -0.34370854152E+03  0.34370854152E+03  0.00000000000E+00 0. -1.
          2    1    1    2  501    0 -0.92964004569E+01 -0.22728940483E+02  0.45879543620E+03  0.45945215211E+03  0.00000000000E+00 0. -1.
         21    1    1    2  503  502  0.92964004569E+01  0.22728940483E+02 -0.34294114557E+03  0.34381922157E+03  0.00000000000E+00 0. -1.
</event>
<event>
 4    1  0.2134315E+005  0.3670873E+02  0.7546771E-02  0.1368932E+00
          2   -1    0    0  503    0  0.00000000000E+00  0.00000000000E+00  0.49518288891E+03  0.49518288891E+03  0.00000000000E+00 0. -1.
         21   -1    0    0  501  502 -0.00000000000E+00 -0.00000000000E+00 -0.46121384193E+01  0.46121384193E+01  0.00000000000E+00 0.  1.
          2    1    1    2  501    0  0.36698580404E+02 -0.86320399118E+00  0.40529288260E+03  0.40695190332E+03  0.00000000000E+00 0. -1.
         21    1    1    2  503  502 -0.36698580404E+02  0.86320399118E+00  0.85277867883E+02  0.92843124008E+02  0.00000000000E+00 0.  1.
</event>
<event>
 4    1  0.2134315E+005  0.2166235E+02  0.7546771E-02  0.1510015E+00
          2   -1    0    0  503    0  0.00000000000E+00  0.00000000000E+00  0.30621896546E+03  0.30621896546E+03  0.00000000000E+00 0. -1.
         21   -1    0    0  501  502 -0.00000000000E+00 -0.00000000000E+00 -0.17554748944E+01  0.17554748944E+01  0.00000000000E+00 0.  1.
          2    1    1    2  501    0  0.19106196505E+02 -0.10208362095E+02  0.20712121102E+03  0.20825093867E+03  0.00000000000E+00 0. -1.
         21    1    1    2  503  502 -0.19106196505E+02  0.10208362095E+02  0.97342279548E+02  0.99723501689E+02  0.00000000000E+00 0.  1.
</event>
<event>
 4    1  0.2134315E+005  0.2193534E+02  0.7546771E-02  0.1506318E+00
          2   -1    0    0  503    0  0.00000000000E+00  0.00000000000E+00  0.16609402940E+04  0.16609402940E+04  0.00000000000E+00 0.  1.
         21   -1    0    0  501  502 -0.00000000000E+00 -0.00000000000E+00 -0.76154724087E+00  0.76154724087E+00  0.00000000000E+00 0.  1.
          2    1    1    2  501    0  0.99615188994E+01  0.19542965238E+02  0.14840921045E+04  0.14842542013E+04  0.00000000000E+00 0.  1.
         21    1    1    2  503  502 -0.99615188994E+01 -0.19542965238E+02  0.17608664227E+03  0.17744763998E+03  0.00000000000E+00 0.  1.
</event>
<event>
 4    1  0.2134315E+005  0.2116998E+02  0.7546771E-02  0.1516852E+00
          2   -1    0    0  503    0  0.00000000000E+00  0.00000000000E+00  0.19569515031E+04  0.19569515031E+04  0.00000000000E+00 0. -1.
         21   -1    0    0  501  502 -0.00000000000E+00 -0.00000000000E+00 -0.27803627732E+00  0.27803627732E+00  0.00000000000E+00 0.  1.
          2    1    1    2  501    0  0.17603269692E+02 -0.11759808914E+02  0.13892595193E+04  0.13894208075E+04  0.00000000000E+00 0. -1.
         21    1    1    2  503  502 -0.17603269692E+02  0.11759808914E+02  0.56741394749E+03  0.56780873189E+03  0.00000000000E+00 0.  1.
</event>
<event>
 4    1  0.2134315E+005  0.3654548E+02  0.7546771E-02  0.1370012E+00
          2   -1    0    0  503    0  0.00000000000E+00  0.00000000000E+00  0.57303330808E+03  0.57303330808E+03  0.00000000000E+00 0.  1.
         21   -1    0    0  501  502 -0.00000000000E+00 -0.00000000000E+00 -0.17966701349E+02  0.17966701349E+02  0.00000000000E+00 0. -1.
          2    1    1    2  501    0 -0.34148609083E+02 -0.13017079232E+02  0.55320113596E+03  0.55440695223E+03  0.00000000000E+00 0.  1.
         21    1    1    2  503  502  0.34148609083E+02  0.13017079232E+02  0.18654707723E+01  0.36593057200E+02  0.00000000000E+00 0. -1.
</event>
<event>
 4    1  0.2134315E+005  0.3198041E+02  0.7546771E-02  0.1403133E+00
          2   -1    0    0  502    0  0.00000000000E+00  0.00000000000E+00  0.21611333014E+04  0.21611333014E+04  0.00000000000E+00 0.  1.
         21   -1    0    0  503  502 -0.00000000000E+00 -0.00000000000E+00 -0.34546343109E+01  0.34546343109E+01  0.00000000000E+00 0.  1.
          2    1    1    2  501    0  0.10627793119E+01  0.31962750266E+02  0.20842731674E+04  0.20845185015E+04  0.00000000000E+00 0.  1.
         21    1    1    2  503  501 -0.10627793119E+01 -0.31962750266E+02  0.73405499690E+02  0.80069434175E+02  0.00000000000E+00 0.  1.
</event>
<event>
 4    1  0.2134315E+005  0.2126363E+02  0.7546771E-02  0.1515534E+00
          2   -1    0    0  503    0  0.00000000000E+00  0.00000000000E+00  0.11073497856E+01  0.11073497856E+01  0.00000000000E+00 0. -1.
         21   -1    0    0  501  502 -0.00000000000E+00 -0.00000000000E+00 -0.42758202739E+03  0.42758202739E+03  0.00000000000E+00 0. -1.
          2    1    1    2  501    0  0.86703054328E+01  0.19415657128E+02 -0.25874319036E+03  0.25961544734E+03  0.00000000000E+00 0. -1.
         21    1    1    2  503  502 -0.86703054328E+01 -0.19415657128E+02 -0.16773148724E+03  0.16907392984E+03  0.00000000000E+00 0. -1.
</event>
<event>
 4    1  0.2134315E+005  0.3906017E+02  0.7546771E-02  0.1354083E+00
          2   -1    0    0  503    0  0.00000000000E+00  0.00000000000E+00  0.17026124518E+04  0.17026124518E+04  0.00000000000E+00 0.  1.
         21   -1    0    0  501  502 -0.00000000000E+00 -0.00000000000E+00 -0.93434089938E+00  0.93434089938E+00  0.00000000000E+00 0.  1.
          2    1    1    2  501    0  0.37004301813E+02  0.12505136437E+02  0.10231777853E+04  0.10239230816E+04  0.00000000000E+00 0.  1.
         21    1    1    2  503  502 -0.37004301813E+02 -0.12505136437E+02  0.67850032565E+03  0.67962371111E+03  0.00000000000E+00 0.  1.
</event>
<event>
 4    1  0.2134315E+005  0.2668903E+02  0.7546771E-02  0.1450757E+00
          2   -1    0    0  503    0  0.00000000000E+00  0.00000000000E+00  0.15507560596E+04  0.15507560596E+04  0.00000000000E+00 0.  1.
         21   -1    0    0  501  502 -0.00000000000E+00 -0.00000000000E+00 -0.15641538060E+01  0.15641538060E+01  0.00000000000E+00 0.  1.
          2    1    1    2  501    0  0.21840430462E+02 -0.15339481739E+02  0.14269129484E+04  0.14271625228E+04  0.00000000000E+00 0.  1.
         21    1    1    2  503  502 -0.21840430462E+02  0.15339481739E+02  0.12227895742E+03  0.12515769066E+03  0.00000000000E+00 0.  1.
</event>
<event>
 4    1  0.2134315E+005  0.2883453E+02  0.7546771E-02  0.1430002E+00
          2   -1    0    0  502    0  0.00000000000E+00  0.00000000000E+00  0.19323986704E+04  0.19323986704E+04  0.00000000000E+00 0.  1.
         21   -1    0    0  503  502 -0.00000000000E+00 -0.00000000000E+00 -0.47190287353E+01  0.47190287353E+01  0.00000000000E+00 0. -1.
          2    1    1    2  501    0  0.21050544710E+02 -0.19705449141E+02  0.18871893106E+04  0.18874095804E+04  0.00000000000E+00 0.  1.
         21    1    1    2  503  501 -0.21050544710E+02  0.19705449141E+02  0.40490331086E+02  0.49708118753E+02  0.00000000000E+00 0. -1.
</event>
<event>
 4    1  0.2134315E+005  0.2028568E+02  0.7546771E-02  0.1529712E+00
          2   -1    0    0  502    0  0.00000000000E+00  0.00000000000E+00  0.30863952199E+02  0.30863952199E+02  0.00000000000E+00 0. -1.
         21   -1    0    0  503  502 -0.00000000000E+00 -0.00000000000E+00 -0.23891765614E+02  0.23891765614E+02  0.00000000000E+00 0. -1.
          2    1    1    2  501    0 -0.20274546318E+02  0.67198274243E+00  0.21686543178E+02  0.29695369070E+02  0.00000000000E+00 0. -1.
         21    1    1    2  503  501  0.20274546318E+02 -0.67198274243E+00 -0.14714356593E+02  0.25060348743E+02  0.00000000000E+00 0. -1.
</event>
<event>
 4    1  0.2134315E+005  0.2011281E+02  0.7546771E-02  0.1532318E+00
          2   -1    0    0  503    0  0.00000000000E+00  0.00000000000E+00  0.78086975354E+03  0.78086975354E+03  0.00000000000E+00 0.  1.
         21   -1    0    0  501  502 -0.00000000000E+00 -0.00000000000E+00 -0.35635351149E+01  0.35635351149E+01  0.00000000000E+00 0.  1.
          2    1    1    2  501    0 -0.19788880956E+02  0.35951988731E+01  0.75124169846E+03  0.75151088800E+03  0.00000000000E+00 0.  1.
         21    1    1    2  503  502  0.19788880956E+02 -0.35951988731E+01  0.26064519964E+02  0.32922400662E+02  0.00000000000E+00 0.  1.
</event>
<event>
 4    1  0.2134315E+005  0.2119480E+02  0.7546771E-02  0.1516502E+00
          2   -1    0    0  503    0  0.00000000000E+00  0.00000000000E+00  0.15296521181E+02  0.15296521181E+02  0.00000000000E+00 0.  1.
         21   -1    0    0  501  502 -0.00000000000E+00 -0.00000000000E+00 -0.73260796900E+02  0.73260796900E+02  0.00000000000E+00 0.  1.
          2    1    1    2  501    0  0.79358027395E+01  0.19653052777E+02  0.52913347705E+01  0.21845312363E+02  0.00000000000E+00 0.  1.
         21    1    1    2  503  502 -0.79358027395E+01 -0.19653052777E+02 -0.63255610489E+02  0.66712005718E+02  0.00000000000E+00 0.  1.
</event>
<event>
 4    1  0.2134315E+005  0.6114292E+02  0.7546771E-02  0.1255998E+00
          2   -1    0    0  503    0  0.00000000000E+00  0.00000000000E+00  0.20910225880E+04  0.20910225880E+04  0.00000000000E+00 0.  1.
         21   -1    0    0  501  502 -0.00000000000E+00 -0.00000000000E+00 -0.20484627085E+01  0.20484627085E+01  0.00000000000E+00 0. -1.
          2    1    1    2  501    0 -0.43195725569E+02 -0.43273391545E+02  0.14177619881E+04  0.14190798117E+04  0.00000000000E+00 0.  1.
         21    1    1    2  503  502  0.43195725569E+02  0.43273391545E+02  0.67121213720E+03  0.67399123900E+03  0.00000000000E+00 0. -1.
</event>
<event>
 4    1  0.2134315E+005  0.2681232E+02  0.7546771E-02  0.1449503E+00
          2   -1    0    0  502    0  0.00000000000E+00  0.00000000000E+00  0.23576489396E+03  0.23576489396E+03  0.00000000000E+00 0. -1.
         21   -1    0    0  503  502 -0.00000000000E+00 -0.00000000000E+00 -0.21027342134E+02  0.21027342134E+02  0.00000000000E+00 0. -1.
          2    1    1    2  501    0  0.26149020969E+02 -0.59269942224E+01  0.22609093545E+03  0.22767523285E+03  0.00000000000E+00 0. -1.
         21    1    1    2  503  501 -0.26149020969E+02  0.59269942224E+01 -0.11353383628E+02  0.29117003245E+02  0.00000000000E+00 0. -1.
</event>
<event>
 4    1  0.2134315E+005  0.4196214E+02  0.7546771E-02  0.1337356E+00
          2   -1    0    0  502    0  0.00000000000E+00  0.00000000000E+00  0.26956993954E+04  0.26956993954E+04  0.00000000000E+00 0.  1.
         21   -1    0    0  503  502 -0.00000000000E+00 -0.00000000000E+00 -0.35346575095E+01  0.35346575095E+01  0.00000000000E+00 0. -1.
          2    1    1    2  501    0  0.36211623727E+02 -0.21202342558E+02  0.25646321147E+04  0.25649753810E+04  0.00000000000E+00 0.  1.
         21    1    1    2  503  501 -0.36211623727E+02  0.21202342558E+02  0.12753262311E+03  0.13425867190E+03  0.00000000000E+00 0. -1.
</event>
<event>
 4    1  0.2134315E+005  0.2205453E+02  0.7546771E-02  0.1504724E+00
          2   -1    0    0  503    0  0.00000000000E+00  0.00000000000E+00  0.19580960055E+02  0.19580960055E+02  0.00000000000E+00 0. -1.
         21   -1    0    0  501  502 -0.00000000000E+00 -0.00000000000E+00 -0.34034690188E+02  0.34034690188E+02  0.00000000000E+00 0.  1.
          2    1    1    2  501    0 -0.16936239461E+02 -0.14126781528E+02  0.67064938390E+01  0.23051664214E+02  0.00000000000E+00 0. -1.
         21    1    1    2  503  502  0.16936239461E+02  0.14126781528E+02 -0.21160223973E+02  0.30563986029E+02  0.00000000000E+00 0.  1.
</event>
<event>
 4    1  0.2134315E+005  0.2858190E+02  0.7546771E-02  0.1432334E+00
          2   -1    0    0  503    0  0.00000000000E+00  0.00000000000E+00  0.15092758780E+03  0.15092758780E+03  0.00000000000E+00 0. -1.
         21   -1    0    0  501  502 -0.00000000000E+00 -0.00000000000E+00 -0.74730048392E+01  0.74730048392E+01  0.00000000000E+00 0.  1.
          2    1    1    2  501    0  0.26117671367E+02 -0.11609994694E+02  0.11331314585E+03  0.11686228544E+03  0.00000000000E+00 0. -1.
         21    1    1    2  503  502 -0.26117671367E+02  0.11609994694E+02  0.30141437114E+02  0.41538307208E+02  0.00000000000E+00 0.  1.
</event>
<event>
 4    1  0.2134315E+005  0.3057439E+02  0.7546771E-02  0.1414669E+00
          2   -1    0    0  503    0  0.00000000000E+00  0.00000000000E+00  0.18998256177E+03  0.18998256177E+03  0.00000000000E+00 0. -1.
         21   -1    0    0  501  502 -0.00000000000E+00 -0.00000000000E+00 -0.52482784909E+01  0.52482784909E+01  0.00000000000E+00 0. -1.
          2    1    1    2  501    0  0.16717982551E+02  0.25598871057E+02  0.67969031028E+02  0.74529070294E+02  0.00000000000E+00 0. -1.
         21    1    1    2  503  502 -0.16717982551E+02 -0.25598871057E+02  0.11676525226E+03  0.12070176997E+03  0.00000000000E+00 0. -1.
</event>
<event>
 4    1  0.2134315E+005  0.2087706E+02  0.7546771E-02  0.1521027E+00
          2   -1    0    0  502    0  0.00000000000E+00  0.00000000000E+00  0.14758244709E+03  0.14758244709E+03  0.00000000000E+00 0. -1.
         21   -1    0    0  503  502 -0.00000000000E+00 -0.00000000000E+00 -0.10644267119E+02  0.10644267119E+02  0.00000000000E+00 0. -1.
          2    1    1    2  501    0  0.16022625182E+02  0.13383830860E+02  0.13571767252E+03  0.13731401269E+03  0.00000000000E+00 0. -1.
         21    1    1    2  503  501 -0.16022625182E+02 -0.13383830860E+02  0.12205074442E+01  0.20912701514E+02  0.00000000000E+00 0. -1.
</event>
<event>
 4    1  0.2134315E+005  0.2440955E+02  0.7546771E-02  0.1475518E+00
          2   -1    0    0  503    0  0.00000000000E+00  0.00000000000E+00  0.67515310296E+03  0.67515310296E+03  0.00000000000E+00 0. -1.
         21   -1    0    0  501  502 -0.00000000000E+00 -0.00000000000E+00 -0.10239046569E+02  0.10239046569E+02  0.00000000000E+00 0. -1.
          2    1    1    2  501    0  0.92445811255E+01 -0.22591233797E+02  0.66005186026E+03  0.66050305401E+03  0.00000000000E+00 0. -1.
         21    1    1    2  503  502 -0.92445811255E+01  0.22591233797E+02  0.48621961352E+01  0.24889095522E+02  0.00000000000E+00 0. -1.
</event>
<event>
 4    1  0.2134315E+005  0.3200661E+02  0.7546771E-02  0.1402925E+00
          2   -1    0    0  503    0  0.00000000000E+00  0.00000000000E+00  0.70204275721E+02  0.70204275721E+02  0.00000000000E+00 0. -1.
         21   -1    0    0  501  502 -0.00000000000E+00 -0.00000000000E+00 -0.38042418454E+02  0.38042418454E+02  0.00000000000E+00 0. -1.
          2    1    1    2  501    0  0.29579610410E+02 -0.12225782754E+02  0.58574729552E+02  0.66748947992E+02  0.00000000000E+00 0. -1.
         21    1    1    2  503  502 -0.29579610410E+02  0.12225782754E+02 -0.26412872285E+02  0.41497746183E+02  0.00000000000E+00 0. -1.
</event>
<event>
 4    1  0.2134315E+005  0.3338978E+02  0.7546771E-02  0.1392251E+00
          2   -1    0    0  503    0  0.00000000000E+00  0.00000000000E+00  0.42111239493E+03  0.42111239493E+03  0.00000000000E+00 0. -1.
         21   -1    0    0  501  502 -0.00000000000E+00 -0.00000000000E+00 -0.36019811183E+01  0.36019811183E+01  0.00000000000E+00 0.  1.
          2    1    1    2  501    0  0.31470121061E+02 -0.11158342425E+02  0.31807268714E+03  0.31982043622E+03  0.00000000000E+00 0. -1.
         21    1    1    2  503  502 -0.31470121061E+02  0.11158342425E+02  0.99437726676E+02  0.10489393982E+03  0.00000000000E+00 0.  1.
</event>
<event>
 4    1  0.2134315E+005  0.3563477E+02  0.7546771E-02  0.1376155E+00
          2   -1    0    0  502    0  0.00000000000E+00  0.00000000000E+00  0.19652024852E+04  0.19652024852E+04  0.00000000000E+00 0.  1.
         21   -1    0    0  503  502 -0.00000000000E+00 -0.00000000000E+00 -0.10501410805E+01  0.10501410805E+01  0.00000000000E+00 0.  1.
          2    1    1    2  501    0 -0.19923863549E+02  0.29544481989E+02  0.15918455270E+04  0.15922443338E+04  0.00000000000E+00 0.  1.
         21    1    1    2  503  501  0.19923863549E+02 -0.29544481989E+02  0.37230681708E+03  0.37400829242E+03  0.00000000000E+00 0.  1.
</event>
<event>
 4    1  0.2187425E+005  0.2122772E+02  0.7546771E-02  0.1516038E+00
          2   -1    0    0  502    0  0.00000000000E+00  0.00000000000E+00  0.11547548687E+04  0.11547548687E+04  0.00000000000E+00 0. -1.
         21   -1    0    0  503  502 -0.00000000000E+00 -0.00000000000E+00 -0.33445855977E+03  0.33445855977E+03  0.00000000000E+00 0.  1.
          2    1    1    2  501    0  0.83431870808E+01  0.19519414001E+02  0.11543203600E+04  0.11545155304E+04  0.00000000000E+00 0. -1.
         21    1    1    2  503  501 -0.83431870808E+01 -0.19519414001E+02 -0.33402405109E+03  0.33469789811E+03  0.00000000000E+00 0.  1.
</event>
<event>
 4    1  0.2134315E+005  0.2923780E+02  0.7546771E-02  0.1426338E+00
          2   -1    0    0  502    0  0.00000000000E+00  0.00000000000E+00  0.92039416526E+03  0.92039416526E+03  0.00000000000E+00 0.  1.
         21   -1    0    0  503  502 -0.00000000000E+00 -0.00000000000E+00 -0.66946975663E+02  0.66946975663E+02  0.00000000000E+00 0.  1.
          2    1    1    2  501    0  0.27027324741E+02  0.11152239676E+02  0.91695774807E+03  0.91742376276E+03  0.00000000000E+00 0.  1.
         21    1    1    2  503  501 -0.27027324741E+02 -0.11152239676E+02 -0.63510558469E+02  0.69917378166E+02  0.00000000000E+00 0.  1.
</event>
<event>
 4    1  0.2134315E+005  0.3444874E+02  0.7546771E-02  0.1384481E+00
          2   -1    0    0  503    0  0.00000000000E+00  0.00000000000E+00  0.19688531681E+03  0.19688531681E+03  0.00000000000E+00 0.  1.
         21   -1    0    0  501  502 -0.00000000000E+00 -0.00000000000E+00 -0.85994108013E+01  0.85994108013E+01  0.00000000000E+00 0.  1.
          2    1    1    2  501    0 -0.13828233230E+02 -0.31551471950E+02  0.15033149991E+03  0.15422799773E+03  0.00000000000E+00 0.  1.
         21    1    1    2  503  502  0.13828233230E+02  0.31551471950E+02  0.37954406095E+02  0.51256729885E+02  0.00000000000E+00 0.  1.
</event>
<event>
 4    1  0.2134315E+005  0.3747451E+02  0.7546771E-02  0.1363956E+00
          2   -1    0    0  502    0  0.00000000000E+00  0.00000000000E+00  0.19351050203E+04  0.19351050203E+04  0.00000000000E+00 0. -1.
         21   -1    0    0  503  502 -0.00000000000E+00 -0.00000000000E+00 -0.13089879245E+01  0.13089879245E+01  0.00000000000E+00 0.  1.
          2    1    1    2  501    0 -0.25577115855E+02 -0.27388871549E+02  0.16131999596E+04  0.16136351660E+04  0.00000000000E+00 0. -1.
         21    1    1    2  503  501  0.25577115855E+02  0.27388871549E+02  0.32059607273E+03  0.32277884223E+03  0.00000000000E+00 0.  1.
</event>
<event>
 4    1  0.2134315E+005  0.2711591E+02  0.7546771E-02  0.1446447E+00
          2   -1    0    0  503    0  0.00000000000E+00  0.00000000000E+00  0.78953230303E+02  0.78953230303E+02  0.00000000000E+00 0.  1.
         21   -1    0    0  501  502 -0.00000000000E+00 -0.00000000000E+00 -0.15787123292E+02  0.15787123292E+02  0.00000000000E+00 0. -1.
          2    1    1    2  501    0 -0.26326829946E+00  0.27114631499E+02  0.61918613021E+02  0.67595763106E+02  0.00000000000E+00 0.  1.
         21    1    1    2  503  502  0.26326829946E+00 -0.27114631499E+02  0.12474939910E+01  0.27144590489E+02  0.00000000000E+00 0. -1.
</event>
<event>
 4    1  0.2134315E+005  0.2174899E+02  0.7546771E-02  0.1508834E+00
          2   -1    0    0  503    0  0.00000000000E+00  0.00000000000E+00  0.12192126660E+04  0.12192126660E+04  0.00000000000E+00 0. -1.
         21   -1    0    0  501  502 -0.00000000000E+00 -0.00000000000E+00 -0.74502942081E+01  0.74502942081E+01  0.00000000000E+00 0. -1.
          2    1    1    2  501    0 -0.19789774832E+02 -0.90212642010E+01  0.12030297031E+04  0.12032262817E+04  0.00000000000E+00 0. -1.
         21    1    1    2  503  502  0.19789774832E+02  0.90212642010E+01  0.87326686224E+01  0.23436678454E+02  0.00000000000E+00 0. -1.
</event>
<event>
 4    1  0.2134315E+005  0.5086766E+02  0.7546771E-02  0.1294454E+00
          2   -1    0    0  502    0  0.00000000000E+00  0.00000000000E+00  0.85673308182E+03  0.85673308182E+03  0.00000000000E+00 0.  1.
         21   -1    0    0  503  502 -0.00000000000E+00 -0.00000000000E+00 -0.25569898823E+03  0.25569898823E+03  0.00000000000E+00 0.  1.
          2    1    1    2  501    0 -0.19848857737E+02  0.46835264790E+02  0.85343842118E+03  0.85495301504E+03  0.00000000000E+00 0.  1.
         21    1    1    2  503  501  0.19848857737E+02 -0.46835264790E+02 -0.25240432759E+03  0.25747905501E+03  0.00000000000E+00 0.  1.
</event>
<event>
 4    1  0.2134315E+005  0.3220593E+02  0.7546771E-02  0.1401348E+00
          2   -1    0    0  503    0  0.00000000000E+00  0.00000000000E+00  0.34420167236E+02  0.34420167236E+02  0.00000000000E+00 0.  1.
         21   -1    0    0  501  502 -0.00000000000E+00 -0.00000000000E+00 -0.11087656929E+03  0.11087656929E+03  0.00000000000E+00 0. -1.
          2    1    1    2  501    0  0.32160275561E+02 -0.17141920190E+01  0.23766833810E+02  0.40026043618E+02  0.00000000000E+00 0.  1.
         21    1    1    2  503  502 -0.32160275561E+02  0.17141920190E+01 -0.10022323587E+03  0.10527069291E+03  0.00000000000E+00 0. -1.
</event>
<event>
 4    1  0.2134315E+005  0.2611707E+02  0.7546771E-02  0.1456685E+00
          2   -1    0    0  502    0  0.00000000000E+00  0.00000000000E+00  0.12819851793E+04  0.12819851793E+04  0.00000000000E+00 0.  1.
         21   -1    0    0  503  502 -0.00000000000E+00 -0.00000000000E+00 -0.93637850249E+00  0.93637850249E+00  0.00000000000E+00 0.  1.
          2    1    1    2  501    0 -0.12612306634E+00 -0.26116764622E+02  0.10620294043E+04  0.10623504869E+04  0.00000000000E+00 0.  1.
         21    1    1    2  503  501  0.12612306634E+00  0.26116764622E+02  0.21901939650E+03  0.22057107096E+03  0.00000000000E+00 0.  1.
</event>
<event>
 4    1  0.2134315E+005  0.2061833E+02  0.7546771E-02  0.1524784E+00
          2   -1    0    0  503    0  0.00000000000E+00  0.00000000000E+00  0.11412165552E+02  0.11412165552E+02  0.00000000000E+00 0.  1.
         21   -1    0    0  501  502 -0.00000000000E+00 -0.00000000000E+00 -0.49078671780E+02  0.49078671780E+02  0.00000000000E+00 0.  1.
          2    1    1    2  501    0  0.20419459382E+02  0.28568036720E+01 -0.39854872198E+01  0.20999994215E+02  0.00000000000E+00 0.  1.
         21    1    1    2  503  502 -0.20419459382E+02 -0.28568036720E+01 -0.33681019008E+02  0.39490843117E+02  0.00000000000E+00 0.  1.
</event>
<event>
 4    1  0.2134315E+005  0.5114997E+02  0.7546771E-02  0.1293262E+00
          2   -1    0    0  503    0  0.00000000000E+00  0.00000000000E+00  0.35190000267E+02  0.35190000267E+02  0.00000000000E+00 0.  1.
         21   -1    0    0  501  502 -0.00000000000E+00 -0.00000000000E+00 -0.10734907163E+03  0.10734907163E+03  0.00000000000E+00 0.  1.
          2    1    1    2  501    0  0.27168012775E+02 -0.43338424150E+02  0.34358502712E+01  0.51265241568E+02  0.00000000000E+00 0.  1.
         21    1    1    2  503  502 -0.27168012775E+02  0.43338424150E+02 -0.75594921629E+02  0.91273830324E+02  0.00000000000E+00 0.  1.
</event>
<event>
 4    1  0.2134315E+005  0.3032303E+02  0.7546771E-02  0.1416810E+00
          2   -1    0    0  503    0  0.00000000000E+00  0.00000000000E+00  0.36562613913E+01  0.36562613913E+01  0.00000000000E+00 0.  1.
         21   -1    0    0  501  502 -0.00000000000E+00 -0.00000000000E+00 -0.33886386314E+03  0.33886386314E+03  0.00000000000E+00 0.  1.
          2    1    1    2  501    0 -0.29858132026E+02 -0.52894388027E+01 -0.80637185786E+02  0.86150112841E+02  0.00000000000E+00 0.  1.
         21    1    1    2  503  502  0.29858132026E+02  0.52894388027E+01 -0.25457041596E+03  0.25637001169E+03  0.00000000000E+00 0.  1.
</event>
<event>
 4    1  0.2134315E+005  0.2169584E+02  0.7546771E-02  0.1509558E+00
          2   -1    0    0  502    0  0.00000000000E+00  0.00000000000E+00  0.77439920364E+03  0.77439920364E+03  0.00000000000E+00 0.  1.
         21   -1    0    0  503  502 -0.00000000000E+00 -0.00000000000E+00 -0.26171056743E+01  0.26171056743E+01  0.00000000000E+00 0.  1.
          2    1    1    2  501    0  0.11952171935E+02 -0.18106769028E+02  0.72630580335E+03  0.72662977470E+03  0.00000000000E+00 0.  1.
         21    1    1    2  503  501 -0.11952171935E+02  0.18106769028E+02  0.45476294617E+02  0.50386534617E+02  0.00000000000E+00 0.  1.
</event>
<event>
 4    1  0.2134315E+005  0.2053166E+02  0.7546771E-02  0.1526058E+00
          2   -1    0    0  502    0  0.00000000000E+00  0.00000000000E+00  0.12836278176E+03  0.12836278176E+03  0.00000000000E+00 0. -1.
         21   -1    0    0  503  502 -0.00000000000E+00 -0.00000000000E+00 -0.94937614647E+01  0.94937614647E+01  0.00000000000E+00 0. -1.
          2    1    1    2  501    0  0.19946794899E+02 -0.48656398725E+01  0.11518056480E+03  0.11699620330E+03  0.00000000000E+00 0. -1.
         21    1    1    2  503  501 -0.19946794899E+02  0.48656398725E+01  0.36884554988E+01  0.20860339932E+02  0.00000000000E+00 0. -1.
</event>
<event>
 4    1  0.2134315E+005  0.2762760E+02  0.7546771E-02  0.1441404E+00
          2   -1    0    0  502    0  0.00000000000E+00  0.00000000000E+00  0.45960211110E+03  0.45960211110E+03  0.00000000000E+00 0. -1.
         21   -1    0    0  503  502 -0.00000000000E+00 -0.00000000000E+00 -0.19118417005E+01  0.19118417005E+01  0.00000000000E+00 0. -1.
          2    1    1    2  501    0  0.15704243054E+02  0.22730175465E+02  0.31247188164E+03  0.31369086844E+03  0.00000000000E+00 0. -1.
         21    1    1    2  503  501 -0.15704243054E+02 -0.22730175465E+02  0.14521838776E+03  0.14782308437E+03  0.00000000000E+00 0. -1.
</event>
<event>
 4    1  0.2134315E+005  0.8225029E+02  0.7546771E-02  0.1198718E+00
          2   -1    0    0  503    0  0.00000000000E+00  0.00000000000E+00  0.16092657652E+04  0.16092657652E+04  0.00000000000E+00 0. -1.
         21   -1    0    0  501  502 -0.00000000000E+00 -0.00000000000E+00 -0.14193184266E+02  0.14193184266E+02  0.00000000000E+00 0.  1.
          2    1    1    2  501    0 -0.50939767933E+01 -0.82092398677E+02  0.14785246475E+04  0.14808106711E+04  0.00000000000E+00 0. -1.
         21    1    1    2  503  502  0.50939767933E+01  0.82092398677E+02  0.11654793345E+03  0.14264827833E+03  0.00000000000E+00 0.  1.
</event>
<event>
 4    1  0.2134315E+005  0.2185717E+02  0.7546771E-02  0.1507370E+00
          2   -1    0    0  502    0  0.00000000000E+00  0.00000000000E+00  0.37501195603E+03  0.37501195603E+03  0.00000000000E+00 0.  1.
         21   -1    0    0  503  502 -0.00000000000E+00 -0.00000000000E+00 -0.12742076647E+01  0.12742076647E+01  0.00000000000E+00 0.  1.
          2    1    1    2  501    0  0.11441009839E+02  0.18623614479E+02  0.18404841307E+03  0.18534172243E+03  0.00000000000E+00 0.  1.
         21    1    1    2  503  501 -0.11441009839E+02 -0.18623614479E+02  0.18968933530E+03  0.19094444127E+03  0.00000000000E+00 0.  1.
</event>
<event>
 4    1  0.2134315E+005  0.2984108E+02  0.7546771E-02  0.1420983E+00
          2   -1    0    0  503    0  0.00000000000E+00  0.00000000000E+00  0.15704516986E+03  0.15704516986E+03  0.00000000000E+00 0.  1.
         21   -1    0    0  501  502 -0.00000000000E+00 -0.00000000000E+00 -0.11308478367E+02  0.11308478367E+02  0.00000000000E+00 0. -1.
          2    1    1    2  501    0 -0.21634510573E+02 -0.20553297549E+02  0.13230585827E+03  0.13562938553E+03  0.00000000000E+00 0.  1.
         21    1    1    2  503  502  0.21634510573E+02  0.20553297549E+02  0.13430833229E+02  0.32724262697E+02  0.00000000000E+00 0. -1.
</event>
<event>
 4    1  0.2134315E+005  0.2386422E+02  0.7546771E-02  0.1481922E+00
          2   -1    0    0  502    0  0.00000000000E+00  0.00000000000E+00  0.37884504191E+03  0.37884504191E+03  0.00000000000E+00 0. -1.
         21   -1    0    0  503  502 -0.00000000000E+00 -0.00000000000E+00 -0.23360710925E+02  0.23360710925E+02  0.00000000000E+00 0. -1.
          2    1    1    2  501    0 -0.54280919440E+01  0.23238691854E+02  0.37226699940E+03  0.37303112447E+03  0.00000000000E+00 0. -1.
         21    1    1    2  503  501  0.54280919440E+01 -0.23238691854E+02 -0.16782668414E+02  0.29174628367E+02  0.00000000000E+00 0. -1.
</event>
<event>
 4    1  0.2134315E+005  0.2019615E+02  0.7546771E-02  0.1531058E+00
          2   -1    0    0  503    0  0.00000000000E+00  0.00000000000E+00  0.12733600056E+03  0.12733600056E+03  0.00000000000E+00 0.  1.
         21   -1    0    0  501  502 -0.00000000000E+00 -0.00000000000E+00 -0.33033738151E+01  0.33033738151E+01  0.00000000000E+00 0. -1.
          2    1    1    2  501    0 -0.90726423673E+01 -0.18043609066E+02  0.73390188403E+02  0.76118357980E+02  0.00000000000E+00 0.  1.
         21    1    1    2  503  502  0.90726423673E+01  0.18043609066E+02  0.50642438345E+02  0.54521016398E+02  0.00000000000E+00 0. -1.
</event>
<event>
 4    1  0.2134315E+005  0.2237834E+02  0.7546771E-02  0.1500455E+00
          2   -1    0    0  502    0  0.00000000000E+00  0.00000000000E+00  0.10297691109E+03  0.10297691109E+03  0.00000000000E+00 0.  1.
         21   -1    0    0  503  502 -0.00000000000E+00 -0.00000000000E+00 -0.17247562881E+02  0.17247562881E+02  0.00000000000E+00 0.  1.
          2    1    1    2  501    0 -0.26575594821E+01 -0.22219982058E+02  0.93802108057E+02  0.96434566940E+02  0.00000000000E+00 0.  1.
         21    1    1    2  503  501  0.26575594821E+01  0.22219982058E+02 -0.80727598470E+01  0.23789907032E+02  0.00000000000E+00 0.  1.
</event>
<event>
 4    1  0.2134315E+005  0.2607088E+02  0.7546771E-02  0.1457171E+00
          2   -1    0    0  503    0  0.00000000000E+00  0.00000000000E+00  0.29743436049E+03  0.29743436049E+03  0.00000000000E+00 0. -1.
         21   -1    0    0  501  502 -0.00000000000E+00 -0.00000000000E+00 -0.14931640230E+02  0.14931640230E+02  0.00000000000E+00 0. -1.
          2    1    1    2  501    0 -0.20371060632E+02  0.16269936170E+02  0.28498701138E+03  0.28617702142E+03  0.00000000000E+00 0. -1.
         21    1    1    2  503  502  0.20371060632E+02 -0.16269936170E+02 -0.24842911204E+01  0.26188979297E+02  0.00000000000E+00 0. -1.
</event>
<event>
 4    1  0.2134315E+005  0.2161012E+02  0.7546771E-02  0.1510729E+00
          2   -1    0    0  503    0  0.00000000000E+00  0.00000000000E+00  0.11388990449E+04  0.11388990449E+04  0.00000000000E+00 0.  1.
         21   -1    0    0  501  502 -0.00000000000E+00 -0.00000000000E+00 -0.37565716501E+01  0.37565716501E+01  0.00000000000E+00 0. -1.
          2    1    1    2  501    0 -0.20798286421E+02  0.58675848158E+01  0.11068170924E+04  0.11070280363E+04  0.00000000000E+00 0.  1.
         21    1    1    2  503  502  0.20798286421E+02 -0.58675848158E+01  0.28325380856E+02  0.35627580191E+02  0.00000000000E+00 0. -1.
</event>
<event>
 4    1  0.2134315E+005  0.4965216E+02  0.7546771E-02  0.1299688E+00
          2   -1    0    0  503    0  0.00000000000E+00  0.00000000000E+00  0.40391888075E+03  0.40391888075E+03  0.00000000000E+00 0. -1.
         21   -1    0    0  501  502 -0.00000000000E+00 -0.00000000000E+00 -0.17164668580E+02  0.17164668580E+02  0.00000000000E+00 0.  1.
          2    1    1    2  501    0  0.20855951900E+02 -0.45059586229E+02  0.36239013759E+03  0.36577581777E+03  0.00000000000E+00 0. -1.
         21    1    1    2  503  502 -0.20855951900E+02  0.45059586229E+02  0.24364074587E+02  0.55307731569E+02  0.00000000000E+00 0.  1.
</event>
<event>
 4    1  0.2134315E+005  0.2337935E+02  0.7546771E-02  0.1487789E+00
          2   -1    0    0  503    0  0.00000000000E+00  0.00000000000E+00  0.52588405502E+02  0.52588405502E+02  0.00000000000E+00 0.  1.
         21   -1    0    0  501  502 -0.00000000000E+00 -0.00000000000E+00 -0.27958145680E+02  0.27958145680E+02  0.00000000000E+00 0.  1.
          2    1    1    2  501    0  0.22043553407E+02  0.77894792880E+01  0.44236281949E+02  0.50034416906E+02  0.00000000000E+00 0.  1.
         21    1    1    2  503  502 -0.22043553407E+02 -0.77894792880E+01 -0.19606022128E+02  0.30512134276E+02  0.00000000000E+00 0.  1.
</event>
<event>
 4    1  0.2134315E+005  0.2093970E+02  0.7546771E-02  0.1520127E+00
          2   -1    0    0  503    0  0.00000000000E+00  0.00000000000E+00  0.11712371171E+04  0.11712371171E+04  0.00000000000E+00 0.  1.
         21   -1    0    0  501  502 -0.00000000000E+00 -0.00000000000E+00 -0.38676487499E+00  0.38676487499E+00  0.00000000000E+00 0.  1.
          2    1    1    2  501    0 -0.19042410221E+02 -0.87096269928E+01  0.48053584677E+03  0.48099186170E+03  0.00000000000E+00 0.  1.
         21    1    1    2  503  502  0.19042410221E+02  0.87096269928E+01  0.69031450545E+03  0.69063202027E+03  0.00000000000E+00 0.  1.
</event>
<event>
 4    1  0.2134315E+005  0.3471799E+02  0.7546771E-02  0.1382557E+00
          2   -1    0    0  502    0  0.00000000000E+00  0.00000000000E+00  0.21812819623E+03  0.21812819623E+03  0.00000000000E+00 0. -1.
         21   -1    0    0  503  502 -0.00000000000E+00 -0.00000000000E+00 -0.32866626178E+02  0.32866626178E+02  0.00000000000E+00 0.  1.
          2    1    1    2  501    0  0.76315779773E+01 -0.33868830260E+02  0.20709317458E+03  0.20998314600E+03  0.00000000000E+00 0. -1.
         21    1    1    2  503  501 -0.76315779773E+01  0.33868830260E+02 -0.21831604529E+02  0.41011676409E+02  0.00000000000E+00 0.  1.
</event>
<event>
 4    1  0.2134315E+005  0.2083564E+02  0.7546771E-02  0.1521625E+00
          2   -1    0    0  503    0  0.00000000000E+00  0.00000000000E+00  0.30832196433E+01  0.30832196433E+01  0.00000000000E+00 0. -1.
         21   -1    0    0  501  502 -0.00000000000E+00 -0.00000000000E+00 -0.14323740028E+03  0.14323740028E+03  0.00000000000E+00 0. -1.
          2    1    1    2  501    0 -0.17811468820E+02 -0.10810895155E+02 -0.79616498028E+02  0.82297695192E+02  0.00000000000E+00 0. -1.
         21    1    1    2  503  502  0.17811468820E+02  0.10810895155E+02 -0.60537682607E+02  0.64022924731E+02  0.00000000000E+00 0. -1.
</event>
<event>
 4    1  0.2134315E+005  0.3769958E+02  0.7546771E-02  0.1362520E+00
          2   -1    0    0  503    0  0.00000000000E+00  0.00000000000E+00  0.68453249779E+03  0.68453249779E+03  0.00000000000E+00 0. -1.
         21   -1    0    0  501  502 -0.00000000000E+00 -0.00000000000E+00 -0.26983809042E+02  0.26983809042E+02  0.00000000000E+00 0.  1.
          2    1    1    2  501    0 -0.33545686069E+02 -0.17203058054E+02  0.67057181838E+03  0.67163071838E+03  0.00000000000E+00 0. -1.
         21    1    1    2  503  502  0.33545686069E+02  0.17203058054E+02 -0.13023129640E+02  0.39885588449E+02  0.00000000000E+00 0.  1.
</event>
<event>
 4    1  0.2134315E+005  0.2072659E+02  0.7546771E-02  0.1523205E+00
          2   -1    0    0  502    0  0.00000000000E+00  0.00000000000E+00  0.17823118552E+02  0.17823118552E+02  0.00000000000E+00 0.  1.
         21   -1    0    0  503  502 -0.00000000000E+00 -0.00000000000E+00 -0.61879913474E+03  0.61879913474E+03  0.00000000000E+00 0. -1.
          2    1    1    2  501    0  0.72592012050E+01 -0.19413794337E+02  0.11562225965E+02  0.23733446483E+02  0.00000000000E+00 0.  1.
         21    1    1    2  503  501 -0.72592012050E+01  0.19413794337E+02 -0.61253824216E+03  0.61288880681E+03  0.00000000000E+00 0. -1.
</event>
<event>
 4    1  0.2134315E+005  0.2480934E+02  0.7546771E-02  0.1470948E+00
          2   -1    0    0  502    0  0.00000000000E+00  0.00000000000E+00  0.19565529081E+02  0.19565529081E+02  0.00000000000E+00 0. -1.
         21   -1    0    0  503  502 -0.00000000000E+00 -0.00000000000E+00 -0.41974197211E+02  0.41974197211E+02  0.00000000000E+00 0. -1.
          2    1    1    2  501    0 -0.14603233693E+02 -0.20056150205E+02  0.41967724804E+01  0.25161806266E+02  0.00000000000E+00 0. -1.
         21    1    1    2  503  501  0.14603233693E+02  0.20056150205E+02 -0.26605440610E+02  0.36377920026E+02  0.00000000000E+00 0. -1.
</event>
<event>
 4    1  0.2134315E+005  0.2146883E+02  0.7546771E-02  0.1512675E+00
          2   -1    0    0  502    0  0.00000000000E+00  0.00000000000E+00  0.12679464913E+04  0.12679464913E+04  0.00000000000E+00 0. -1.
         21   -1    0    0  503  502 -0.00000000000E+00 -0.00000000000E+00 -0.75439314251E+00  0.75439314251E+00  0.00000000000E+00 0. -1.
          2    1    1    2  501    0  0.18537810335E+02 -0.10828681874E+02  0.10902151302E+04  0.10904264949E+04  0.00000000000E+00 0. -1.
         21    1    1    2  503  501 -0.18537810335E+02  0.10828681874E+02  0.17697696803E+03  0.17827438957E+03  0.00000000000E+00 0. -1.
</event>
<event>
 4    1  0.2134315E+005  0.2303732E+02  0.7546771E-02  0.1492030E+00
          2   -1    0    0  503    0  0.00000000000E+00  0.00000000000E+00  0.81837559445E+02  0.81837559445E+02  0.00000000000E+00 0.  1.
         21   -1    0    0  501  502 -0.00000000000E+00 -0.00000000000E+00 -0.50031575615E+02  0.50031575615E+02  0.00000000000E+00 0. -1.
          2    1    1    2  501    0  0.12569420319E+02  0.19306164092E+02  0.77416142485E+02  0.80771142226E+02  0.00000000000E+00 0.  1.
         21    1    1    2  503  502 -0.12569420319E+02 -0.19306164092E+02 -0.45610158656E+02  0.51097992834E+02  0.00000000000E+00 0. -1.
</event>
<event>
 4    1  0.2134315E+005  0.2965460E+02  0.7546771E-02  0.1422622E+00
          2   -1    0    0  503    0  0.00000000000E+00  0.00000000000E+00  0.38551313516E+04  0.38551313516E+04  0.00000000000E+00 0.  1.
         21   -1    0    0  501  502 -0.00000000000E+00 -0.00000000000E+00 -0.22821822774E+00  0.22821822774E+00  0.00000000000E+00 0.  1.
          2    1    1    2  501    0 -0.29269346981E+02 -0.47644980310E+01  0.18855283150E+04  0.18857614965E+04  0.00000000000E+00 0.  1.
         21    1    1    2  503  502  0.29269346981E+02  0.47644980310E+01  0.19693748183E+04  0.19695980733E+04  0.00000000000E+00 0.  1.
</event>
<event>
 4    1  0.2134315E+005  0.2190571E+02  0.7546771E-02  0.1506716E+00
          2   -1    0    0  502    0  0.00000000000E+00  0.00000000000E+00  0.20603144863E+03  0.20603144863E+03  0.00000000000E+00 0.  1.
         21   -1    0    0  503  502 -0.00000000000E+00 -0.00000000000E+00 -0.23033513336E+02  0.23033513336E+02  0.00000000000E+00 0. -1.
          2    1    1    2  501    0 -0.21783839306E+02  0.23074615734E+01  0.20008661840E+03  0.20128217729E+03  0.00000000000E+00 0.  1.
         21    1    1    2  503  501  0.21783839306E+02 -0.23074615734E+01 -0.17088683106E+02  0.27782784672E+02  0.00000000000E+00 0. -1.
</event>
<event>
 4    1  0.2134315E+005  0.2791560E+02  0.7546771E-02  0.1438621E+00
          2   -1    0    0  503    0  0.00000000000E+00  0.00000000000E+00  0.35810947409E+03  0.35810947409E+03  0.00000000000E+00 0. -1.
         21   -1    0    0  501  502 -0.00000000000E+00 -0.00000000000E+00 -0.11228357788E+02  0.11228357788E+02  0.00000000000E+00 0.  1.
          2    1    1    2  501    0 -0.25644169921E+02 -0.11029848133E+02  0.33925188845E+03  0.34039847946E+03  0.00000000000E+00 0. -1.
         21    1    1    2  503  502  0.25644169921E+02  0.11029848133E+02  0.76292278511E+01  0.28939352418E+02  0.00000000000E+00 0.  1.
</event>
<event>
 4    1  0.2134315E+005  0.2253630E+02  0.7546771E-02  0.1498404E+00
          2   -1    0    0  503    0  0.00000000000E+00  0.00000000000E+00  0.24115685058E+03  0.24115685058E+03  0.00000000000E+00 0.  1.
         21   -1    0    0  501  502 -0.00000000000E+00 -0.00000000000E+00 -0.22561264434E+01  0.22561264434E+01  0.00000000000E+00 0.  1.
          2    1    1    2  501    0  0.52246159784E+01 -0.21922322967E+02  0.15084167280E+03  0.15251588478E+03  0.00000000000E+00 0.  1.
         21    1    1    2  503  502 -0.52246159784E+01  0.21922322967E+02  0.88059051330E+02  0.90897092239E+02  0.00000000000E+00 0.  1.
</event>
<event>
 4    1  0.2134315E+005  0.3650216E+02  0.7546771E-02  0.1370299E+00
          2   -1    0    0  502    0  0.00000000000E+00  0.00000000000E+00  0.99273963811E+03  0.99273963811E+03  0.00000000000E+00 0. -1.
         21   -1    0    0  503  502 -0.00000000000E+00 -0.00000000000E+00 -0.21949032694E+01  0.21949032694E+01  0.00000000000E+00 0.  1.
          2    1    1    2  501    0 -0.12054674392E+02  0.34454208253E+02  0.80534823606E+03  0.80617503619E+03  0.00000000000E+00 0. -1.
         21    1    1    2  503  501  0.12054674392E+02 -0.34454208253E+02  0.18519649877E+03  0.18875950519E+03  0.00000000000E+00 0.  1.
</event>
<event>
 4    1  0.2134315E+005  0.2670179E+02  0.7546771E-02  0.1450627E+00
          2   -1    0    0  502    0  0.00000000000E+00  0.00000000000E+00  0.32362544570E+02  0.32362544570E+02  0.00000000000E+00 0.  1.
         21   -1    0    0  503  502 -0.00000000000E+00 -0.00000000000E+00 -0.24803006573E+02  0.24803006573E+02  0.00000000000E+00 0.  1.
          2    1    1    2  501    0  0.91921894478E+01  0.25069689696E+02  0.13334835281E+02  0.29846331772E+02  0.00000000000E+00 0.  1.
         21    1    1    2  503  501 -0.91921894478E+01 -0.25069689696E+02 -0.57752972835E+01  0.27319219371E+02  0.00000000000E+00 0.  1.
</event>
<event>
 4    1  0.2134315E+005  0.7299876E+02  0.7546771E-02  0.1221106E+00
          2   -1    0    0  503    0  0.00000000000E+00  0.00000000000E+00  0.14628316140E+04  0.14628316140E+04  0.00000000000E+00 0. -1.
         21   -1    0    0  501  502 -0.00000000000E+00 -0.00000000000E+00 -0.55358600275E+01  0.55358600275E+01  0.00000000000E+00 0.  1.
          2    1    1    2  501    0  0.75222797912E+01 -0.72610157240E+02  0.11579797182E+04  0.11602783491E+04  0.00000000000E+00 0. -1.
         21    1    1    2  503  502 -0.75222797912E+01  0.72610157240E+02  0.29931603575E+03  0.30808912491E+03  0.00000000000E+00 0.  1.
</event>
<event>
 4    1  0.2134315E+005  0.2954261E+02  0.7546771E-02  0.1423613E+00
          2   -1    0    0  502    0  0.00000000000E+00  0.00000000000E+00  0.23229187701E+03  0.23229187701E+03  0.00000000000E+00 0. -1.
         21   -1    0    0  503  502 -0.00000000000E+00 -0.00000000000E+00 -0.31288555505E+03  0.31288555505E+03  0.00000000000E+00 0. -1.
          2    1    1    2  501    0 -0.11292136354E+02  0.27299335519E+02  0.23065028255E+03  0.23253455422E+03  0.00000000000E+00 0. -1.
         21    1    1    2  503  501  0.11292136354E+02 -0.27299335519E+02 -0.31124396059E+03  0.31264287785E+03  0.00000000000E+00 0. -1.
</event>
<event>
 4    1  0.2134315E+005  0.2165489E+02  0.7546771E-02  0.1510117E+00
          2   -1    0    0  503    0  0.00000000000E+00  0.00000000000E+00  0.15275282194E+03  0.15275282194E+03  0.00000000000E+00 0. -1.
         21   -1    0    0  501  502 -0.00000000000E+00 -0.00000000000E+00 -0.70268814345E+02  0.70268814345E+02  0.00000000000E+00 0. -1.
          2    1    1    2  501    0 -0.14702638147E+02 -0.15898638257E+02  0.15028978967E+03  0.15184187547E+03  0.00000000000E+00 0. -1.
         21    1    1    2  503  502  0.14702638147E+02  0.15898638257E+02 -0.67805782076E+02  0.71179760816E+02  0.00000000000E+00 0. -1.
</event>
<event>
 4    1  0.2134315E+005  0.2003529E+02  0.7546771E-02  0.1533497E+00
          2   -1    0    0  502    0  0.00000000000E+00  0.00000000000E+00  0.79920575458E+02  0.79920575458E+02  0.00000000000E+00 0. -1.
         21   -1    0    0  503  502 -0.00000000000E+00 -0.00000000000E+00 -0.26858042559E+02  0.26858042559E+02  0.00000000000E+00 0. -1.
          2    1    1    2  501    0  0.18943631449E+02  0.65231542606E+01  0.74670333426E+02  0.77311521831E+02  0.00000000000E+00 0. -1.
         21    1    1    2  503  501 -0.18943631449E+02 -0.65231542606E+01 -0.21607800527E+02  0.29467096185E+02  0.00000000000E+00 0. -1.
</event>
<event>
 4    1  0.2134315E+005  0.2018938E+02  0.7546771E-02  0.1531160E+00
          2   -1    0    0  502    0  0.00000000000E+00  0.00000000000E+00  0.32816624573E+02  0.32816624573E+02  0.00000000000E+00 0.  1.
         21   -1    0    0  503  502 -0.00000000000E+00 -0.00000000000E+00 -0.45048788816E+02  0.45048788816E+02  0.00000000000E+00 0.  1.
          2    1    1    2  501    0 -0.80201516211E+01  0.18528039771E+02  0.27017448252E+02  0.33727638516E+02  0.00000000000E+00 0.  1.
         21    1    1    2  503  501  0.80201516211E+01 -0.18528039771E+02 -0.39249612495E+02  0.44137774874E+02  0.00000000000E+00 0.  1.
</event>
<event>
 4    1  0.2134315E+005  0.3614831E+02  0.7546771E-02  0.1372665E+00
          2   -1    0    0  503    0  0.00000000000E+00  0.00000000000E+00  0.39031935628E+03  0.39031935628E+03  0.00000000000E+00 0.  1.
         21   -1    0    0  501  502 -0.00000000000E+00 -0.00000000000E+00 -0.57977693028E+01  0.57977693028E+01  0.00000000000E+00 0.  1.
          2    1    1    2  501    0  0.31583330452E+02 -0.17583905493E+02  0.32101039600E+03  0.32303927754E+03  0.00000000000E+00 0.  1.
         21    1    1    2  503  502 -0.31583330452E+02  0.17583905493E+02  0.63511190973E+02  0.73077848037E+02  0.00000000000E+00 0.  1.
</event>
<event>
 4    1  0.2134315E+005  0.2376673E+02  0.7546771E-02  0.1483088E+00
          2   -1    0    0  502    0  0.00000000000E+00  0.00000000000E+00  0.12822646615E+03  0.12822646615E+03  0.00000000000E+00 0. -1.
         21   -1    0    0  503  502 -0.00000000000E+00 -0.00000000000E+00 -0.14961207104E+03  0.14961207104E+03  0.00000000000E+00 0.  1.
          2    1    1    2  501    0 -0.34108214559E+01  0.23520706218E+02  0.12616602763E+03  0.12838506086E+03  0.00000000000E+00 0. -1.
         21    1    1    2  503  501  0.34108214559E+01 -0.23520706218E+02 -0.14755163252E+03  0.14945347632E+03  0.00000000000E+00 0.  1.
</event>
<event>
 4    1  0.2134315E+005  0.2203227E+02  0.7546771E-02  0.1505021E+00
          2   -1    0    0  502    0  0.00000000000E+00  0.00000000000E+00  0.54624132618E+01  0.54624132618E+01  0.00000000000E+00 0. -1.
         21   -1    0    0  503  502 -0.00000000000E+00 -0.00000000000E+00 -0.14467900516E+03  0.14467900516E+03  0.00000000000E+00 0. -1.
          2    1    1    2  501    0 -0.19827187527E+02  0.96074785705E+01 -0.22981373369E+02  0.31836528260E+02  0.00000000000E+00 0. -1.
         21    1    1    2  503  501  0.19827187527E+02 -0.96074785705E+01 -0.11623521853E+03  0.11830489016E+03  0.00000000000E+00 0. -1.
</event>
<event>
 4    1  0.2134315E+005  0.3502049E+02  0.7546771E-02  0.1380419E+00
          2   -1    0    0  503    0  0.00000000000E+00  0.00000000000E+00  0.12103810435E+01  0.12103810435E+01  0.00000000000E+00 0.  1.
         21   -1    0    0  501  502 -0.00000000000E+00 -0.00000000000E+00 -0.13304328159E+04  0.13304328159E+04  0.00000000000E+00 0. -1.
          2    1    1    2  501    0 -0.27306436292E+02  0.21927001929E+02 -0.33951866586E+03  0.34132002482E+03  0.00000000000E+00 0.  1.
         21    1    1    2  503  502  0.27306436292E+02 -0.21927001929E+02 -0.98970376905E+03  0.99032317217E+03  0.00000000000E+00 0. -1.
</event>
<event>
 4    1  0.2808436E+005  0.2419171E+02  0.7546771E-02  0.1478052E+00
          2   -1    0    0  502    0  0.00000000000E+00  0.00000000000E+00  0.87273420436E+03  0.87273420436E+03  0.00000000000E+00 0.  1.
         21   -1    0    0  503  502 -0.00000000000E+00 -0.00000000000E+00 -0.20156563410E+03  0.20156563410E+03  0.00000000000E+00 0. -1.
          2    1    1    2  501    0 -0.39930941503E+01  0.23859887450E+02  0.87183994812E+03  0.87217551799E+03  0.00000000000E+00 0.  1.
         21    1    1    2  503  501  0.39930941503E+01 -0.23859887450E+02 -0.20067137787E+03  0.20212432047E+03  0.00000000000E+00 0. -1.
</event>
<event>
 4    1  0.2134315E+005  0.2051426E+02  0.7546771E-02  0.1526314E+00
          2   -1    0    0  502    0  0.00000000000E+00  0.00000000000E+00  0.11553835239E+03  0.11553835239E+03  0.00000000000E+00 0. -1.
         21   -1    0    0  503  502 -0.00000000000E+00 -0.00000000000E+00 -0.42901166692E+01  0.42901166692E+01  0.00000000000E+00 0. -1.
          2    1    1    2  501    0 -0.51003787527E+01  0.19870105237E+02  0.78904690386E+02  0.81527818016E+02  0.00000000000E+00 0. -1.
         21    1    1    2  503  501  0.51003787527E+01 -0.19870105237E+02  0.32343545337E+02  0.38300651046E+02  0.00000000000E+00 0. -1.
</event>
<event>
 4    1  0.2134315E+005  0.2254411E+02  0.7546771E-02  0.1498304E+00
          2   -1    0    0  502    0  0.00000000000E+00  0.00000000000E+00  0.39866939839E+01  0.39866939839E+01  0.00000000000E+00 0. -1.
         21   -1    0    0  503  502 -0.00000000000E+00 -0.00000000000E+00 -0.43997213140E+03  0.43997213140E+03  0.00000000000E+00 0.  1.
          2    1    1    2  501    0  0.18202696540E+02  0.13300329102E+02 -0.30917026017E+02  0.38263552021E+02  0.00000000000E+00 0. -1.
         21    1    1    2  503  501 -0.18202696540E+02 -0.13300329102E+02 -0.40506841140E+03  0.40569527336E+03  0.00000000000E+00 0.  1.
</event>
<event>
 4    1  0.2134315E+005  0.2092614E+02  0.7546771E-02  0.1520322E+00
          2   -1    0    0  503    0  0.00000000000E+00  0.00000000000E+00  0.11446739495E+04  0.11446739495E+04  0.00000000000E+00 0.  1.
         21   -1    0    0  501  502 -0.00000000000E+00 -0.00000000000E+00 -0.28467209346E+01  0.28467209346E+01  0.00000000000E+00 0.  1.
          2    1    1    2  501    0 -0.20853633608E+02 -0.17404312630E+01  0.11047311850E+04  0.11049293617E+04  0.00000000000E+00 0.  1.
         21    1    1    2  503  502  0.20853633608E+02  0.17404312630E+01  0.37096043593E+02  0.42591308807E+02  0.00000000000E+00 0.  1.
</event>
<event>
 4    1  0.2134315E+005  0.3448661E+02  0.7546771E-02  0.1384209E+00
          2   -1    0    0  502    0  0.00000000000E+00  0.00000000000E+00  0.98935506519E+03  0.98935506519E+03  0.00000000000E+00 0.  1.
         21   -1    0    0  503  502 -0.00000000000E+00 -0.00000000000E+00 -0.28839616203E+01  0.28839616203E+01  0.00000000000E+00 0.  1.
          2    1    1    2  501    0  0.21783024169E+01  0.34417742702E+02  0.87209994594E+03  0.87278155441E+03  0.00000000000E+00 0.  1.
         21    1    1    2  503  501 -0.21783024169E+01 -0.34417742702E+02  0.11437115763E+03  0.11945747240E+03  0.00000000000E+00 0.  1.
</event>
<event>
 4    1  0.2134315E+005  0.2076683E+02  0.7546771E-02  0.1522620E+00
          2   -1    0    0  503    0  0.00000000000E+00  0.00000000000E+00  0.30588580004E+02  0.30588580004E+02  0.00000000000E+00 0. -1.
         21   -1    0    0  501  502 -0.00000000000E+00 -0.00000000000E+00 -0.14925520032E+02  0.14925520032E+02  0.00000000000E+00 0. -1.
          2    1    1    2  501    0  0.19070319261E+02 -0.82209531778E+01  0.24755356475E+01  0.20913857239E+02  0.00000000000E+00 0. -1.
         21    1    1    2  503  502 -0.19070319261E+02  0.82209531778E+01  0.13187524325E+02  0.24600242797E+02  0.00000000000E+00 0. -1.
</event>
<event>
 4    1  0.2134315E+005  0.2151131E+02  0.7546771E-02  0.1512088E+00
          2   -1    0    0  503    0  0.00000000000E+00  0.00000000000E+00  0.14143780975E+04  0.14143780975E+04  0.00000000000E+00 0. -1.
         21   -1    0    0  501  502 -0.00000000000E+00 -0.00000000000E+00 -0.15175025401E+02  0.15175025401E+02  0.00000000000E+00 0. -1.
          2    1    1    2  501    0 -0.14818308708E+02 -0.15593406570E+02  0.14066309975E+04  0.14067954719E+04  0.00000000000E+00 0. -1.
         21    1    1    2  503  502  0.14818308708E+02  0.15593406570E+02 -0.74279254393E+01  0.22757650972E+02  0.00000000000E+00 0. -1.
</event>
<event>
 4    1  0.2134315E+005  0.2513464E+02  0.7546771E-02  0.1467303E+00
          2   -1    0    0  503    0  0.00000000000E+00  0.00000000000E+00  0.22626168639E+03  0.22626168639E+03  0.00000000000E+00 0.  1.
         21   -1    0    0  501  502 -0.00000000000E+00 -0.00000000000E+00 -0.21192297830E+03  0.21192297830E+03  0.00000000000E+00 0.  1.
          2    1    1    2  501    0  0.11187852646E+02 -0.22507382294E+02  0.22481361100E+03  0.22621430104E+03  0.00000000000E+00 0.  1.
         21    1    1    2  503  502 -0.11187852646E+02  0.22507382294E+02 -0.21047490292E+03  0.21197036364E+03  0.00000000000E+00 0.  1.
</event>
<event>
 4    1  0.2134315E+005  0.2216858E+02  0.7546771E-02  0.1503211E+00
          2   -1    0    0  502    0  0.00000000000E+00  0.00000000000E+00  0.21725759016E+01  0.21725759016E+01  0.00000000000E+00 0.  1.
         21   -1    0    0  503  502 -0.00000000000E+00 -0.00000000000E+00 -0.24373336705E+03  0.24373336705E+03  0.00000000000E+00 0.  1.
          2    1    1    2  501    0 -0.18720956554E+02  0.11873144821E+02 -0.15375368241E+03  0.15534362116E+03  0.00000000000E+00 0.  1.
         21    1    1    2  503  501  0.18720956554E+02 -0.11873144821E+02 -0.87807108738E+02  0.90562321785E+02  0.00000000000E+00 0.  1.
</event>
<event>
 4    1  0.2134315E+005  0.2072238E+02  0.7546771E-02  0.1523266E+00
          2   -1    0    0  503    0  0.00000000000E+00  0.00000000000E+00  0.93893230406E+02  0.93893230406E+02  0.00000000000E+00 0. -1.
         21   -1    0    0  501  502 -0.00000000000E+00 -0.00000000000E+00 -0.82236647708E+01  0.82236647708E+01  0.00000000000E+00 0. -1.
          2    1    1    2  501    0  0.20138473948E+02  0.48845537622E+01  0.88179809862E+01  0.22520519245E+02  0.00000000000E+00 0. -1.
         21    1    1    2  503  502 -0.20138473948E+02 -0.48845537622E+01  0.76851584649E+02  0.79596375932E+02  0.00000000000E+00 0. -1.
</event>
<event>
 4    1  0.2134315E+005  0.2110822E+02  0.7546771E-02  0.1517725E+00
          2   -1    0    0  503    0  0.00000000000E+00  0.00000000000E+00  0.17759345366E+03  0.17759345366E+03  0.00000000000E+00 0.  1.
         21   -1    0    0  501  502 -0.00000000000E+00 -0.00000000000E+00 -0.36216814297E+02  0.36216814297E+02  0.00000000000E+00 0.  1.
          2    1    1    2  501    0 -0.21064333926E+02  0.13604642921E+01  0.17382416686E+03  0.17510110796E+03  0.00000000000E+00 0.  1.
         21    1    1    2  503  502  0.21064333926E+02 -0.13604642921E+01 -0.32447527494E+02  0.38709159993E+02  0.00000000000E+00 0.  1.
</event>
<event>
 4    1  0.2134315E+005  0.3817162E+02  0.7546771E-02  0.1359546E+00
          2   -1    0    0  503    0  0.00000000000E+00  0.00000000000E+00  0.21317913287E+04  0.21317913287E+04  0.00000000000E+00 0. -1.
         21   -1    0    0  501  502 -0.00000000000E+00 -0.00000000000E+00 -0.93616318030E+00  0.93616318030E+00  0.00000000000E+00 0. -1.
          2    1    1    2  501    0  0.31759268689E+02 -0.21175969937E+02  0.16194192116E+04  0.16198690243E+04  0.00000000000E+00 0. -1.
         21    1    1    2  503  502 -0.31759268689E+02  0.21175969937E+02  0.51143595390E+03  0.51285846760E+03  0.00000000000E+00 0. -1.
</event>
<event>
 4    1  0.2134315E+005  0.3826732E+02  0.7546771E-02  0.1358950E+00
          2   -1    0    0  503    0  0.00000000000E+00  0.00000000000E+00  0.56551314118E+03  0.56551314118E+03  0.00000000000E+00 0. -1.
         21   -1    0    0  501  502 -0.00000000000E+00 -0.00000000000E+00 -0.48115439432E+01  0.48115439432E+01  0.00000000000E+00 0.  1.
          2    1    1    2  501    0  0.23036464630E+02 -0.30556653564E+02  0.47413918026E+03  0.47568093302E+03  0.00000000000E+00 0. -1.
         21    1    1    2  503  502 -0.23036464630E+02  0.30556653564E+02  0.86562416979E+02  0.94643752107E+02  0.00000000000E+00 0.  1.
</event>
<event>
 4    1  0.2134315E+005  0.2083412E+02  0.7546771E-02  0.1521646E+00
          2   -1    0    0  503    0  0.00000000000E+00  0.00000000000E+00  0.31089550090E+02  0.31089550090E+02  0.00000000000E+00 0. -1.
         21   -1    0    0  501  502 -0.00000000000E+00 -0.00000000000E+00 -0.63738108872E+03  0.63738108872E+03  0.00000000000E+00 0.  1.
          2    1    1    2  501    0 -0.13734573806E+02  0.15665956011E+02  0.27408622764E+02  0.34428088782E+02  0.00000000000E+00 0. -1.
         21    1    1    2  503  502  0.13734573806E+02 -0.15665956011E+02 -0.63370016139E+03  0.63404255003E+03  0.00000000000E+00 0.  1.
</event>
<event>
 4    1  0.2134315E+005  0.3822836E+02  0.7546771E-02  0.1359192E+00
          2   -1    0    0  503    0  0.00000000000E+00  0.00000000000E+00  0.18247896956E+03  0.18247896956E+03  0.00000000000E+00 0.  1.
         21   -1    0    0  501  502 -0.00000000000E+00 -0.00000000000E+00 -0.54661756754E+02  0.54661756754E+02  0.00000000000E+00 0.  1.
          2    1    1    2  501    0 -0.38207383759E+02 -0.12661508065E+01  0.17344910566E+03  0.17761193531E+03  0.00000000000E+00 0.  1.
         21    1    1    2  503  502  0.38207383759E+02  0.12661508065E+01 -0.45631892859E+02  0.59528790996E+02  0.00000000000E+00 0.  1.
</event>
<event>
 4    1  0.2134315E+005  0.2022954E+02  0.7546771E-02  0.1530555E+00
          2   -1    0    0  502    0  0.00000000000E+00  0.00000000000E+00  0.44110913921E+03  0.44110913921E+03  0.00000000000E+00 0.  1.
         21   -1    0    0  503  502 -0.00000000000E+00 -0.00000000000E+00 -0.19400466221E+03  0.19400466221E+03  0.00000000000E+00 0. -1.
          2    1    1    2  501    0 -0.18857892332E+02  0.73221684064E+01  0.44034894344E+03  0.44081336895E+03  0.00000000000E+00 0.  1.
         21    1    1    2  503  501  0.18857892332E+02 -0.73221684064E+01 -0.19324446643E+03  0.19430043247E+03  0.00000000000E+00 0. -1.
</event>
<event>
 4    1  0.2134315E+005  0.3815041E+02  0.7546771E-02  0.1359679E+00
          2   -1    0    0  503    0  0.00000000000E+00  0.00000000000E+00  0.53779544337E+03  0.53779544337E+03  0.00000000000E+00 0.  1.
         21   -1    0    0  501  502 -0.00000000000E+00 -0.00000000000E+00 -0.23990672147E+02  0.23990672147E+02  0.00000000000E+00 0. -1.
          2    1    1    2  501    0  0.29198611043E+02  0.24553911448E+02  0.52147804370E+03  0.52287168934E+03  0.00000000000E+00 0.  1.
         21    1    1    2  503  502 -0.29198611043E+02 -0.24553911448E+02 -0.76732724758E+01  0.38914426177E+02  0.00000000000E+00 0. -1.
</event>
<event>
 4    1  0.2134315E+005  0.2452848E+02  0.7546771E-02  0.1474148E+00
          2   -1    0    0  503    0  0.00000000000E+00  0.00000000000E+00  0.35993693508E+02  0.35993693508E+02  0.00000000000E+00 0.  1.
         21   -1    0    0  501  502 -0.00000000000E+00 -0.00000000000E+00 -0.31787751937E+02  0.31787751937E+02  0.00000000000E+00 0.  1.
          2    1    1    2  501    0  0.23912204903E+02  0.54637861471E+01  0.25439831240E+02  0.35338810336E+02  0.00000000000E+00 0.  1.
         21    1    1    2  503  502 -0.23912204903E+02 -0.54637861471E+01 -0.21233889669E+02  0.32442635110E+02  0.00000000000E+00 0.  1.
</event>
<event>
 4    1  0.2134315E+005  0.2249091E+02  0.7546771E-02  0.1498992E+00
          2   -1    0    0  503    0  0.00000000000E+00  0.00000000000E+00  0.16997337857E+02  0.16997337857E+02  0.00000000000E+00 0. -1.
         21   -1    0    0  501  502 -0.00000000000E+00 -0.00000000000E+00 -0.39668310045E+02  0.39668310045E+02  0.00000000000E+00 0.  1.
          2    1    1    2  501    0  0.21157599501E+02  0.76287084068E+01  0.28246441487E+01  0.22667594120E+02  0.00000000000E+00 0. -1.
         21    1    1    2  503  502 -0.21157599501E+02 -0.76287084068E+01 -0.25495616337E+02  0.33998053783E+02  0.00000000000E+00 0.  1.
</event>
<event>
 4    1  0.2134315E+005  0.4436747E+02  0.7546771E-02  0.1324633E+00
          2   -1    0    0  503    0  0.00000000000E+00  0.00000000000E+00  0.66407389901E+03  0.66407389901E+03  0.00000000000E+00 0.  1.
         21   -1    0    0  501  502 -0.00000000000E+00 -0.00000000000E+00 -0.29721643428E+01  0.29721643428E+01  0.00000000000E+00 0. -1.
          2    1    1    2  501    0 -0.21258651005E+02 -0.38942806167E+02  0.31332606001E+03  0.31645172187E+03  0.00000000000E+00 0.  1.
         21    1    1    2  503  502  0.21258651005E+02  0.38942806167E+02  0.34777567466E+03  0.35059434148E+03  0.00000000000E+00 0. -1.
</event>
<event>
 4    1  0.2134315E+005  0.2265106E+02  0.7546771E-02  0.1496927E+00
          2   -1    0    0  503    0  0.00000000000E+00  0.00000000000E+00  0.50150233596E+03  0.50150233596E+03  0.00000000000E+00 0.  1.
         21   -1    0    0  501  502 -0.00000000000E+00 -0.00000000000E+00 -0.22054611890E+01  0.22054611890E+01  0.00000000000E+00 0. -1.
          2    1    1    2  501    0 -0.14363646347E+02 -0.17514450191E+02  0.43405661689E+03  0.43464723279E+03  0.00000000000E+00 0.  1.
         21    1    1    2  503  502  0.14363646347E+02  0.17514450191E+02  0.65240257882E+02  0.69060564365E+02  0.00000000000E+00 0. -1.
</event>
<event>
 4    1  0.2134315E+005  0.2076202E+02  0.7546771E-02  0.1522690E+00
          2   -1    0    0  503    0  0.00000000000E+00  0.00000000000E+00  0.77338615046E+03  0.77338615046E+03  0.00000000000E+00 0.  1.
         21   -1    0    0  501  502 -0.00000000000E+00 -0.00000000000E+00 -0.76879183291E+01  0.76879183291E+01  0.00000000000E+00 0.  1.
          2    1    1    2  501    0 -0.20606455077E+02 -0.25368620471E+01  0.75896296957E+03  0.75924689716E+03  0.00000000000E+00 0.  1.
         21    1    1    2  503  502  0.20606455077E+02  0.25368620471E+01  0.67352625630E+01  0.21827171637E+02  0.00000000000E+00 0.  1.
</event>
<event>
 4    1  0.2134315E+005  0.4716860E+02  0.7546771E-02  0.1310938E+00
          2   -1    0    0  503    0  0.00000000000E+00  0.00000000000E+00  0.20011313733E+04  0.20011313733E+04  0.00000000000E+00 0.  1.
         21   -1    0    0  501  502 -0.00000000000E+00 -0.00000000000E+00 -0.33140524865E+01  0.33140524865E+01  0.00000000000E+00 0.  1.
          2    1    1    2  501    0  0.16300254870E+02  0.44262606175E+02  0.18158994867E+04  0.18165119935E+04  0.00000000000E+00 0.  1.
         21    1    1    2  503  502 -0.16300254870E+02 -0.44262606175E+02  0.18191783408E+03  0.18793343229E+03  0.00000000000E+00 0.  1.
</event>
<event>
 4    1  0.2134315E+005  0.2355625E+02  0.7546771E-02  0.1485629E+00
          2   -1    0    0  502    0  0.00000000000E+00  0.00000000000E+00  0.18749189558E+03  0.18749189558E+03  0.00000000000E+00 0.  1.
         21   -1    0    0  503  502 -0.00000000000E+00 -0.00000000000E+00 -0.52801852275E+01  0.52801852275E+01  0.00000000000E+00 0.  1.
          2    1    1    2  501    0 -0.22906981071E+02 -0.54924430279E+01  0.15500432663E+03  0.15678404889E+03  0.00000000000E+00 0.  1.
         21    1    1    2  503  501  0.22906981071E+02  0.54924430279E+01  0.27207383717E+02  0.35988031913E+02  0.00000000000E+00 0.  1.
</event>
<event>
 4    1  0.2134315E+005  0.2452191E+02  0.7546771E-02  0.1474223E+00
          2   -1    0    0  503    0  0.00000000000E+00  0.00000000000E+00  0.50432577436E+02  0.50432577436E+02  0.00000000000E+00 0. -1.
         21   -1    0    0  501  502 -0.00000000000E+00 -0.00000000000E+00 -0.49731249062E+02  0.49731249062E+02  0.00000000000E+00 0. -1.
          2    1    1    2  501    0 -0.21361322628E+02  0.12042336854E+02  0.44018095664E+02  0.50387664435E+02  0.00000000000E+00 0. -1.
         21    1    1    2  503  502  0.21361322628E+02 -0.12042336854E+02 -0.43316767290E+02  0.49776162063E+02  0.00000000000E+00 0. -1.
</event>
<event>
 4    1  0.2134315E+005  0.2449140E+02  0.7546771E-02  0.1474574E+00
          2   -1    0    0  502    0  0.00000000000E+00  0.00000000000E+00  0.53041612228E+03  0.53041612228E+03  0.00000000000E+00 0.  1.
         21   -1    0    0  503  502 -0.00000000000E+00 -0.00000000000E+00 -0.21289307997E+01  0.21289307997E+01  0.00000000000E+00 0.  1.
          2    1    1    2  501    0 -0.68525334644E+01 -0.23513223199E+02  0.44645978485E+03  0.44713104161E+03  0.00000000000E+00 0.  1.
         21    1    1    2  503  501  0.68525334644E+01  0.23513223199E+02  0.81827406634E+02  0.85414011477E+02  0.00000000000E+00 0.  1.
</event>
<event>
 4    1  0.2134315E+005  0.2586697E+02  0.7546771E-02  0.1459334E+00
          2   -1    0    0  503    0  0.00000000000E+00  0.00000000000E+00  0.16828993068E+04  0.16828993068E+04  0.00000000000E+00 0.  1.
         21   -1    0    0  501  502 -0.00000000000E+00 -0.00000000000E+00 -0.64536257756E+01  0.64536257756E+01  0.00000000000E+00 0.  1.
          2    1    1    2  501    0  0.25383067199E+01  0.25742123473E+02  0.16564667977E+04  0.16566687514E+04  0.00000000000E+00 0.  1.
         21    1    1    2  503  502 -0.25383067199E+01 -0.25742123473E+02  0.19978883343E+02  0.32684181212E+02  0.00000000000E+00 0.  1.
</event>
<event>
 4    1  0.2134315E+005  0.2038800E+02  0.7546771E-02  0.1528185E+00
          2   -1    0    0  503    0  0.00000000000E+00  0.00000000000E+00  0.12143347011E+04  0.12143347011E+04  0.00000000000E+00 0. -1.
         21   -1    0    0  501  502 -0.00000000000E+00 -0.00000000000E+00 -0.60218187304E+01  0.60218187304E+01  0.00000000000E+00 0.  1.
          2    1    1    2  501    0 -0.13617532108E+01  0.20342471801E+02  0.11967385574E+04  0.11969122129E+04  0.00000000000E+00 0. -1.
         21    1    1    2  503  502  0.13617532108E+01 -0.20342471801E+02  0.11574324972E+02  0.23444306970E+02  0.00000000000E+00 0.  1.
</event>
<event>
 4    1  0.2134315E+005  0.2348729E+02  0.7546771E-02  0.1486468E+00
          2   -1    0    0  502    0  0.00000000000E+00  0.00000000000E+00  0.40709974693E+03  0.40709974693E+03  0.00000000000E+00 0. -1.
         21   -1    0    0  503  502 -0.00000000000E+00 -0.00000000000E+00 -0.62208023352E+01  0.62208023352E+01  0.00000000000E+00 0. -1.
          2    1    1    2  501    0  0.21290849496E+02 -0.99172952459E+01  0.38321053215E+03  0.38392963544E+03  0.00000000000E+00 0. -1.
         21    1    1    2  503  501 -0.21290849496E+02  0.99172952459E+01  0.17668412444E+02  0.29390913826E+02  0.00000000000E+00 0. -1.
</event>
<event>
 4    1  0.2134315E+005  0.3217407E+02  0.7546771E-02  0.1401599E+00
          2   -1    0    0  502    0  0.00000000000E+00  0.00000000000E+00  0.10633633949E+04  0.10633633949E+04  0.00000000000E+00 0.  1.
         21   -1    0    0  503  502 -0.00000000000E+00 -0.00000000000E+00 -0.18036719799E+02  0.18036719799E+02  0.00000000000E+00 0. -1.
          2    1    1    2  501    0  0.96229992575E+01 -0.30701281676E+02  0.10485695365E+04  0.10490630313E+04  0.00000000000E+00 0.  1.
         21    1    1    2  503  501 -0.96229992575E+01  0.30701281676E+02 -0.32428613982E+01  0.32337083377E+02  0.00000000000E+00 0. -1.
</event>
<event>
 4    1  0.2134315E+005  0.4358690E+02  0.7546771E-02  0.1328658E+00
          2   -1    0    0  502    0  0.00000000000E+00  0.00000000000E+00  0.58396157824E+01  0.58396157824E+01  0.00000000000E+00 0.  1.
         21   -1    0    0  503  502 -0.00000000000E+00 -0.00000000000E+00 -0.81298663269E+03  0.81298663269E+03  0.00000000000E+00 0. -1.
          2    1    1    2  501    0 -0.24908459171E+02  0.35768516617E+02 -0.86488352075E+02  0.96850674566E+02  0.00000000000E+00 0.  1.
         21    1    1    2  503  501  0.24908459171E+02 -0.35768516617E+02 -0.72065866483E+03  0.72197557391E+03  0.00000000000E+00 0. -1.
</event>
<event>
 4    1  0.2134315E+005  0.2253352E+02  0.7546771E-02  0.1498440E+00
          2   -1    0    0  503    0  0.00000000000E+00  0.00000000000E+00  0.15669684483E+02  0.15669684483E+02  0.00000000000E+00 0.  1.
         21   -1    0    0  501  502 -0.00000000000E+00 -0.00000000000E+00 -0.35196404630E+02  0.35196404630E+02  0.00000000000E+00 0.  1.
          2    1    1    2  501    0  0.94978016995E+01  0.20434072657E+02 -0.16927149472E+02  0.28183114656E+02  0.00000000000E+00 0.  1.
         21    1    1    2  503  502 -0.94978016995E+01 -0.20434072657E+02 -0.25995706747E+01  0.22682974456E+02  0.00000000000E+00 0.  1.
</event>
<event>
 4    1  0.2134315E+005  0.2176494E+02  0.7546771E-02  0.1508618E+00
          2   -1    0    0  503    0  0.00000000000E+00  0.00000000000E+00  0.47354131690E+03  0.47354131690E+03  0.00000000000E+00 0.  1.
         21   -1    0    0  501  502 -0.00000000000E+00 -0.00000000000E+00 -0.18685199681E+02  0.18685199681E+02  0.00000000000E+00 0. -1.
          2    1    1    2  501    0 -0.18241017781E+02 -0.11873412607E+02  0.46686253198E+03  0.46736959296E+03  0.00000000000E+00 0.  1.
         21    1    1    2  503  502  0.18241017781E+02  0.11873412607E+02 -0.12006414759E+02  0.24856923623E+02  0.00000000000E+00 0. -1.
</event>
<event>
 4    1  0.2134315E+005  0.2614509E+02  0.7546771E-02  0.1456390E+00
          2   -1    0    0  502    0  0.00000000000E+00  0.00000000000E+00  0.11477885373E+04  0.11477885373E+04  0.00000000000E+00 0.  1.
         21   -1    0    0  503  502 -0.00000000000E+00 -0.00000000000E+00 -0.14906764401E+01  0.14906764401E+01  0.00000000000E+00 0. -1.
          2    1    1    2  501    0  0.13704965168E+02 -0.22265217336E+02  0.10184420118E+04  0.10187775505E+04  0.00000000000E+00 0.  1.
         21    1    1    2  503  501 -0.13704965168E+02  0.22265217336E+02  0.12785584902E+03  0.13050166321E+03  0.00000000000E+00 0. -1.
</event>
<event>
 4    1  0.2134315E+005  0.4818868E+02  0.7546771E-02  0.1306223E+00
          2   -1    0    0  503    0  0.00000000000E+00  0.00000000000E+00  0.84630593035E+03  0.84630593035E+03  0.00000000000E+00 0. -1.
         21   -1    0    0  501  502 -0.00000000000E+00 -0.00000000000E+00 -0.37769562431E+02  0.37769562431E+02  0.00000000000E+00 0. -1.
          2    1    1    2  501    0  0.23997730513E+02  0.41788253888E+02  0.82994674238E+03  0.83134454014E+03  0.00000000000E+00 0. -1.
         21    1    1    2  503  502 -0.23997730513E+02 -0.41788253888E+02 -0.21410374455E+02  0.52730952648E+02  0.00000000000E+00 0. -1.
</event>
<event>
 4    1  0.2134315E+005  0.2786323E+02  0.7546771E-02  0.1439124E+00
          2   -1    0    0  503    0  0.00000000000E+00  0.00000000000E+00  0.69669026056E+03  0.69669026056E+03  0.00000000000E+00 0.  1.
         21   -1    0    0  501  502 -0.00000000000E+00 -0.00000000000E+00 -0.24735211416E+01  0.24735211416E+01  0.00000000000E+00 0.  1.
          2    1    1    2  501    0  0.19386437945E+02 -0.20013131637E+02  0.60624427071E+03  0.60688423540E+03  0.00000000000E+00 0.  1.
         21    1    1    2  503  502 -0.19386437945E+02  0.20013131637E+02  0.87972468708E+02  0.92279546297E+02  0.00000000000E+00 0.  1.
</event>
<event>
 4    1  0.2134315E+005  0.3098649E+02  0.7546771E-02  0.1411213E+00
          2   -1    0    0  503    0  0.00000000000E+00  0.00000000000E+00  0.35405142395E+03  0.35405142395E+03  0.00000000000E+00 0. -1.
         21   -1    0    0  501  502 -0.00000000000E+00 -0.00000000000E+00 -0.10088413465E+03  0.10088413465E+03  0.00000000000E+00 0.  1.
          2    1    1    2  501    0 -0.29579634294E+02  0.92308202957E+01  0.35097324362E+03  0.35233844603E+03  0.00000000000E+00 0. -1.
         21    1    1    2  503  502  0.29579634294E+02 -0.92308202957E+01 -0.97805954317E+02  0.10259711257E+03  0.00000000000E+00 0.  1.
</event>
<event>
 4    1  0.2134315E+005  0.2623329E+02  0.7546771E-02  0.1455466E+00
          2   -1    0    0  502    0  0.00000000000E+00  0.00000000000E+00  0.35613088274E+03  0.35613088274E+03  0.00000000000E+00 0. -1.
         21   -1    0    0  503  502 -0.00000000000E+00 -0.00000000000E+00 -0.56615216997E+02  0.56615216997E+02  0.00000000000E+00 0.  1.
          2    1    1    2  501    0  0.22027203237E+02 -0.14247373310E+02  0.35257833617E+03  0.35355292173E+03  0.00000000000E+00 0. -1.
         21    1    1    2  503  501 -0.22027203237E+02  0.14247373310E+02 -0.53062670431E+02  0.59193178002E+02  0.00000000000E+00 0.  1.
</event>
<event>
 4    1  0.2134315E+005  0.2699239E+02  0.7546771E-02  0.1447685E+00
          2   -1    0    0  502    0  0.00000000000E+00  0.00000000000E+00  0.56305029262E+03  0.56305029262E+03  0.00000000000E+00 0. -1.
         21   -1    0    0  503  502 -0.00000000000E+00 -0.00000000000E+00 -0.39469539254E+01  0.39469539254E+01  0.00000000000E+00 0.  1.
          2    1    1    2  501    0  0.26127089060E+02 -0.67796877238E+01  0.51197756213E+03  0.51268861219E+03  0.00000000000E+00 0. -1.
         21    1    1    2  503  501 -0.26127089060E+02  0.67796877238E+01  0.47125776568E+02  0.54308634355E+02  0.00000000000E+00 0.  1.
</event>
<event>
 4    1  0.2134315E+005  0.3704853E+02  0.7546771E-02  0.1366707E+00
          2   -1    0    0  502    0  0.00000000000E+00  0.00000000000E+00  0.28725441676E+04  0.28725441676E+04  0.00000000000E+00 0. -1.
         21   -1    0    0  503  502 -0.00000000000E+00 -0.00000000000E+00 -0.60719837140E+00  0.60719837140E+00  0.00000000000E+00 0. -1.
          2    1    1    2  501    0  0.13706898141E+02  0.34419682603E+02  0.20990605971E+04  0.20993875259E+04  0.00000000000E+00 0. -1.
         21    1    1    2  503  501 -0.13706898141E+02 -0.34419682603E+02  0.77287637210E+03  0.77376384004E+03  0.00000000000E+00 0. -1.
</event>
<event>
 4    1  0.2134315E+005  0.7556490E+02  0.7546771E-02  0.1214536E+00
          2   -1    0    0  502    0  0.00000000000E+00  0.00000000000E+00  0.16425029799E+04  0.16425029799E+04  0.00000000000E+00 0. -1.
         21   -1    0    0  503  502 -0.00000000000E+00 -0.00000000000E+00 -0.11368129856E+03  0.11368129856E+03  0.00000000000E+00 0. -1.
          2    1    1    2  501    0 -0.68167644759E+02 -0.32607158521E+02  0.16289724708E+04  0.16307241843E+04  0.00000000000E+00 0. -1.
         21    1    1    2  503  501  0.68167644759E+02  0.32607158521E+02 -0.10015078951E+03  0.12546009413E+03  0.00000000000E+00 0. -1.
</event>
<event>
 4    1  0.2134315E+005  0.2677492E+02  0.7546771E-02  0.1449882E+00
          2   -1    0    0  502    0  0.00000000000E+00  0.00000000000E+00  0.15078603555E+04  0.15078603555E+04  0.00000000000E+00 0. -1.
         21   -1    0    0  503  502 -0.00000000000E+00 -0.00000000000E+00 -0.27258751655E+01  0.27258751655E+01  0.00000000000E+00 0.  1.
          2    1    1    2  501    0  0.26624575367E+02  0.28334681049E+01  0.14388385354E+04  0.14390876372E+04  0.00000000000E+00 0. -1.
         21    1    1    2  503  501 -0.26624575367E+02 -0.28334681049E+01  0.66295944981E+02  0.71498593524E+02  0.00000000000E+00 0.  1.
</event>
<event>
 4    1  0.2134315E+005  0.2006186E+02  0.7546771E-02  0.1533092E+00
          2   -1    0    0  503    0  0.00000000000E+00  0.00000000000E+00  0.20446948766E+03  0.20446948766E+03  0.00000000000E+00 0.  1.
         21   -1    0    0  501  502 -0.00000000000E+00 -0.00000000000E+00 -0.11425515658E+02  0.11425515658E+02  0.00000000000E+00 0. -1.
          2    1    1    2  501    0  0.32854275497E+01  0.19791015626E+02  0.19473159319E+03  0.19576228371E+03  0.00000000000E+00 0.  1.
         21    1    1    2  503  502 -0.32854275497E+01 -0.19791015626E+02 -0.16876211936E+01  0.20132719612E+02  0.00000000000E+00 0. -1.
</event>
<event>
 4    1  0.2134315E+005  0.2445539E+02  0.7546771E-02  0.1474989E+00
          2   -1    0    0  503    0  0.00000000000E+00  0.00000000000E+00  0.31175364677E+03  0.31175364677E+03  0.00000000000E+00 0. -1.
         21   -1    0    0  501  502 -0.00000000000E+00 -0.00000000000E+00 -0.35668367409E+02  0.35668367409E+02  0.00000000000E+00 0. -1.
          2    1    1    2  501    0  0.16120455085E+02 -0.18390137342E+02  0.30701763455E+03  0.30799008775E+03  0.00000000000E+00 0. -1.
         21    1    1    2  503  502 -0.16120455085E+02  0.18390137342E+02 -0.30932355198E+02  0.39431926427E+02  0.00000000000E+00 0. -1.
</event>
<event>
 4    1  0.2134315E+005  0.2259287E+02  0.7546771E-02  0.1497675E+00
          2   -1    0    0  502    0  0.00000000000E+00  0.00000000000E+00  0.11872707090E+03  0.11872707090E+03  0.00000000000E+00 0.  1.
         21   -1    0    0  503  502 -0.00000000000E+00 -0.00000000000E+00 -0.11557102405E+02  0.11557102405E+02  0.00000000000E+00 0.  1.
          2    1    1    2  501    0 -0.20662043435E+02 -0.91387979665E+01  0.10520773872E+03  0.10760625425E+03  0.00000000000E+00 0.  1.
         21    1    1    2  503  501  0.20662043435E+02  0.91387979665E+01  0.19622297803E+01  0.22677919060E+02  0.00000000000E+00 0.  1.
</event>
<event>
 4    1  0.2134315E+005  0.2986559E+02  0.7546771E-02  0.1420768E+00
          2   -1    0    0  502    0  0.00000000000E+00  0.00000000000E+00  0.42508985096E+02  0.42508985096E+02  0.00000000000E+00 0. -1.
         21   -1    0    0  503  502 -0.00000000000E+00 -0.00000000000E+00 -0.13051757466E+03  0.13051757466E+03  0.00000000000E+00 0. -1.
          2    1    1    2  501    0  0.26686435084E+02 -0.13408483941E+02  0.35250307083E+02  0.46201054192E+02  0.00000000000E+00 0. -1.
         21    1    1    2  503  501 -0.26686435084E+02  0.13408483941E+02 -0.12325889664E+03  0.12682550556E+03  0.00000000000E+00 0. -1.
</event>
<event>
 4    1  0.2134315E+005  0.2680555E+02  0.7546771E-02  0.1449571E+00
          2   -1    0    0  502    0  0.00000000000E+00  0.00000000000E+00  0.19714458450E+04  0.19714458450E+04  0.00000000000E+00 0.  1.
         21   -1    0    0  503  502 -0.00000000000E+00 -0.00000000000E+00 -0.68938857882E+00  0.68938857882E+00  0.00000000000E+00 0.  1.
          2    1    1    2  501    0  0.26468806747E+02 -0.42355500542E+01  0.16623340343E+04  0.16625501433E+04  0.00000000000E+00 0.  1.
         21    1    1    2  503  501 -0.26468806747E+02  0.42355500542E+01  0.30842242214E+03  0.30958509023E+03  0.00000000000E+00 0.  1.
</event>
<event>
 4    1  0.2134315E+005  0.2085665E+02  0.7546771E-02  0.1521321E+00
          2   -1    0    0  503    0  0.00000000000E+00  0.00000000000E+00  0.36138513731E+03  0.36138513731E+03  0.00000000000E+00 0. -1.
         21   -1    0    0  501  502 -0.00000000000E+00 -0.00000000000E+00 -0.12243067315E+01  0.12243067315E+01  0.00000000000E+00 0. -1.
          2    1    1    2  501    0 -0.13673678428E+02 -0.15748977408E+02  0.15655948384E+03  0.15794262170E+03  0.00000000000E+00 0. -1.
         21    1    1    2  503  502  0.13673678428E+02  0.15748977408E+02  0.20360134674E+03  0.20466682234E+03  0.00000000000E+00 0. -1.
</event>
<event>
 4    1  0.2134315E+005  0.2567069E+02  0.7546771E-02  0.1461438E+00
          2   -1    0    0  503    0  0.00000000000E+00  0.00000000000E+00  0.46186818211E+02  0.46186818211E+02  0.00000000000E+00 0.  1.
         21   -1    0    0  501  502 -0.00000000000E+00 -0.00000000000E+00 -0.15754265741E+03  0.15754265741E+03  0.00000000000E+00 0. -1.
          2    1    1    2  501    0  0.39551852003E+01  0.25364161474E+02  0.41464694086E+02  0.48767868858E+02  0.00000000000E+00 0.  1.
         21    1    1    2  503  502 -0.39551852003E+01 -0.25364161474E+02 -0.15282053329E+03  0.15496160676E+03  0.00000000000E+00 0. -1.
</event>
<event>
 4    1  0.2134315E+005  0.2327787E+02  0.7546771E-02  0.1489038E+00
          2   -1    0    0  503    0  0.00000000000E+00  0.00000000000E+00  0.10619279348E+04  0.10619279348E+04  0.00000000000E+00 0.  1.
         21   -1    0    0  501  502 -0.00000000000E+00 -0.00000000000E+00 -0.14581442895E+02  0.14581442895E+02  0.00000000000E+00 0. -1.
          2    1    1    2  501    0 -0.20277039027E+02 -0.11432444381E+02  0.10524262876E+04  0.10526836894E+04  0.00000000000E+00 0.  1.
         21    1    1    2  503  502  0.20277039027E+02  0.11432444381E+02 -0.50797957333E+01  0.23825688257E+02  0.00000000000E+00 0. -1.
</event>
<event>
 4    1  0.2134315E+005  0.3943421E+02  0.7546771E-02  0.1351834E+00
          2   -1    0    0  503    0  0.00000000000E+00  0.00000000000E+00  0.36389932214E+03  0.36389932214E+03  0.00000000000E+00 0.  1.
         21   -1    0    0  501  502 -0.00000000000E+00 -0.00000000000E+00 -0.73050694517E+01  0.73050694517E+01  0.00000000000E+00 0.  1.
          2    1    1    2  501    0 -0.16720250979E+02  0.35714005967E+02  0.29786591583E+03  0.30046490781E+03  0.00000000000E+00 0.  1.
         21    1    1    2  503  502  0.16720250979E+02 -0.35714005967E+02  0.58728336866E+02  0.70739483785E+02  0.00000000000E+00 0.  1.
</event>
<event>
 4    1  0.2134315E+005  0.2394806E+02  0.7546771E-02  0.1480925E+00
          2   -1    0    0  502    0  0.00000000000E+00  0.00000000000E+00  0.37384346271E+02  0.37384346271E+02  0.00000000000E+00 0.  1.
         21   -1    0    0  503  502 -0.00000000000E+00 -0.00000000000E+00 -0.50783526366E+02  0.50783526366E+02  0.00000000000E+00 0. -1.
          2    1    1    2  501    0 -0.23664298807E+02 -0.36756638347E+01  0.30128727843E+02  0.38487007991E+02  0.00000000000E+00 0.  1.
         21    1    1    2  503  501  0.23664298807E+02  0.36756638347E+01 -0.43527907937E+02  0.49680864646E+02  0.00000000000E+00 0. -1.
</event>
<event>
 4    1  0.2134315E+005  0.2555880E+02  0.7546771E-02  0.1462648E+00
          2   -1    0    0  503    0  0.00000000000E+00  0.00000000000E+00  0.13529644817E+04  0.13529644817E+04  0.00000000000E+00 0. -1.
         21   -1    0    0  501  502 -0.00000000000E+00 -0.00000000000E+00 -0.77679165650E+00  0.77679165650E+00  0.00000000000E+00 0.  1.
          2    1    1    2  501    0  0.11964646339E+02 -0.22585382389E+02  0.10924821400E+04  0.10927810752E+04  0.00000000000E+00 0. -1.
         21    1    1    2  503  502 -0.11964646339E+02  0.22585382389E+02  0.25970555014E+03  0.26096019817E+03  0.00000000000E+00 0.  1.
</event>
<event>
 4    1  0.2134315E+005  0.2213023E+02  0.7546771E-02  0.1503719E+00
          2   -1    0    0  503    0  0.00000000000E+00  0.00000000000E+00  0.92562512332E+02  0.92562512332E+02  0.00000000000E+00 0.  1.
         21   -1    0    0  501  502 -0.00000000000E+00 -0.00000000000E+00 -0.24997409255E+02  0.24997409255E+02  0.00000000000E+00 0.  1.
          2    1    1    2  501    0  0.21383025529E+02  0.57020469276E+01  0.85972356707E+02  0.88774958393E+02  0.00000000000E+00 0.  1.
         21    1    1    2  503  502 -0.21383025529E+02 -0.57020469276E+01 -0.18407253629E+02  0.28784963195E+02  0.00000000000E+00 0.  1.
</event>
<event>
 4    1  0.2134315E+005  0.2307796E+02  0.7546771E-02  0.1491522E+00
          2   -1    0    0  503    0  0.00000000000E+00  0.00000000000E+00  0.49423155163E+03  0.49423155163E+03  0.00000000000E+00 0. -1.
         21   -1    0    0  501  502 -0.00000000000E+00 -0.00000000000E+00 -0.15775006617E+01  0.15775006617E+01  0.00000000000E+00 0.  1.
          2    1    1    2  501    0  0.11251133749E+02 -0.20149544077E+02  0.38587846304E+03  0.38656795052E+03  0.00000000000E+00 0. -1.
         21    1    1    2  503  502 -0.11251133749E+02  0.20149544077E+02  0.10677558793E+03  0.10924110177E+03  0.00000000000E+00 0.  1.
</event>
<event>
 4    1  0.2134315E+005  0.2510517E+02  0.7546771E-02  0.1467630E+00
          2   -1    0    0  502    0  0.00000000000E+00  0.00000000000E+00  0.49242734464E+02  0.49242734464E+02  0.00000000000E+00 0.  1.
         21   -1    0    0  503  502 -0.00000000000E+00 -0.00000000000E+00 -0.41056946041E+02  0.41056946041E+02  0.00000000000E+00 0.  1.
          2    1    1    2  501    0 -0.25089035960E+02 -0.89977680717E+00  0.41549755961E+02  0.48545355536E+02  0.00000000000E+00 0.  1.
         21    1    1    2  503  501  0.25089035960E+02  0.89977680717E+00 -0.33363967539E+02  0.41754324969E+02  0.00000000000E+00 0.  1.
</event>
<event>
 4    1  0.2134315E+005  0.4819443E+02  0.7546771E-02  0.1306196E+00
          2   -1    0    0  503    0  0.00000000000E+00  0.00000000000E+00  0.57930894819E+03  0.57930894819E+03  0.00000000000E+00 0. -1.
         21   -1    0    0  501  502 -0.00000000000E+00 -0.00000000000E+00 -0.45466583024E+01  0.45466583024E+01  0.00000000000E+00 0. -1.
          2    1    1    2  501    0  0.48194231550E+02 -0.13991941982E+00  0.38772836713E+03  0.39071215774E+03  0.00000000000E+00 0. -1.
         21    1    1    2  503  502 -0.48194231550E+02  0.13991941982E+00  0.18703392276E+03  0.19314344875E+03  0.00000000000E+00 0. -1.
</event>
<event>
 4    1  0.2134315E+005  0.7956265E+02  0.7546771E-02  0.1204867E+00
          2   -1    0    0  503    0  0.00000000000E+00  0.00000000000E+00  0.38570523746E+02  0.38570523746E+02  0.00000000000E+00 0. -1.
         21   -1    0    0  501  502 -0.00000000000E+00 -0.00000000000E+00 -0.15348210860E+04  0.15348210860E+04  0.00000000000E+00 0. -1.
          2    1    1    2  501    0 -0.78517331170E+02  0.12854699157E+02 -0.46795859520E+01  0.79700144975E+02  0.00000000000E+00 0. -1.
         21    1    1    2  503  502  0.78517331170E+02 -0.12854699157E+02 -0.14915709763E+04  0.14936914648E+04  0.00000000000E+00 0. -1.
</event>
<event>
 4    1  0.2134315E+005  0.2126620E+02  0.7546771E-02  0.1515498E+00
          2   -1    0    0  502    0  0.00000000000E+00  0.00000000000E+00  0.51557686067E+03  0.51557686067E+03  0.00000000000E+00 0.  1.
         21   -1    0    0  503  502 -0.00000000000E+00 -0.00000000000E+00 -0.63924593658E+01  0.63924593658E+01  0.00000000000E+00 0. -1.
          2    1    1    2  501    0 -0.94846921100E+01  0.19033965262E+02  0.49701024402E+03  0.49746500769E+03  0.00000000000E+00 0.  1.
         21    1    1    2  503  501  0.94846921100E+01 -0.19033965262E+02  0.12174157292E+02  0.24504312350E+02  0.00000000000E+00 0. -1.
</event>
<event>
 4    1  0.2134315E+005  0.2321858E+02  0.7546771E-02  0.1489771E+00
          2   -1    0    0  503    0  0.00000000000E+00  0.00000000000E+00  0.13687457663E+04  0.13687457663E+04  0.00000000000E+00 0. -1.
         21   -1    0    0  501  502 -0.00000000000E+00 -0.00000000000E+00 -0.17964096048E+01  0.17964096048E+01  0.00000000000E+00 0. -1.
          2    1    1    2  501    0  0.91191220081E+01 -0.21352848681E+02  0.12889799076E+04  0.12891890105E+04  0.00000000000E+00 0. -1.
         21    1    1    2  503  502 -0.91191220081E+01  0.21352848681E+02  0.77969449059E+02  0.81353165394E+02  0.00000000000E+00 0. -1.
</event>
<event>
 4    1  0.2134315E+005  0.8802939E+02  0.7546771E-02  0.1186342E+00
          2   -1    0    0  502    0  0.00000000000E+00  0.00000000000E+00  0.24881362748E+02  0.24881362748E+02  0.00000000000E+00 0.  1.
         21   -1    0    0  503  502 -0.00000000000E+00 -0.00000000000E+00 -0.31156239301E+03  0.31156239301E+03  0.00000000000E+00 0.  1.
          2    1    1    2  501    0 -0.15563132570E+01 -0.88015634742E+02 -0.14007406464E+03  0.16543856157E+03  0.00000000000E+00 0.  1.
         21    1    1    2  503  501  0.15563132570E+01  0.88015634742E+02 -0.14660696562E+03  0.17100519419E+03  0.00000000000E+00 0.  1.
</event>
<event>
 4    1  0.2134315E+005  0.2110273E+02  0.7546771E-02  0.1517803E+00
          2   -1    0    0  502    0  0.00000000000E+00  0.00000000000E+00  0.12008408531E+04  0.12008408531E+04  0.00000000000E+00 0. -1.
         21   -1    0    0  503  502 -0.00000000000E+00 -0.00000000000E+00 -0.23055426053E+02  0.23055426053E+02  0.00000000000E+00 0.  1.
          2    1    1    2  501    0 -0.16320536717E+02 -0.13377797727E+02  0.11958993338E+04  0.11960855078E+04  0.00000000000E+00 0. -1.
         21    1    1    2  503  501  0.16320536717E+02  0.13377797727E+02 -0.18113906694E+02  0.27810771411E+02  0.00000000000E+00 0.  1.
</event>
<event>
 4    1  0.2134315E+005  0.3123482E+02  0.7546771E-02  0.1409161E+00
          2   -1    0    0  503    0  0.00000000000E+00  0.00000000000E+00  0.29458129375E+02  0.29458129375E+02  0.00000000000E+00 0. -1.
         21   -1    0    0  501  502 -0.00000000000E+00 -0.00000000000E+00 -0.46056326663E+02  0.46056326663E+02  0.00000000000E+00 0. -1.
          2    1    1    2  501    0  0.25111036392E+02  0.18575510094E+02  0.11712577218E+02  0.33358629903E+02  0.00000000000E+00 0. -1.
         21    1    1    2  503  502 -0.25111036392E+02 -0.18575510094E+02 -0.28310774506E+02  0.42155826135E+02  0.00000000000E+00 0. -1.
</event>
<event>
 4    1  0.2196985E+005  0.2742680E+02  0.7546771E-02  0.1443367E+00
          2   -1    0    0  502    0  0.00000000000E+00  0.00000000000E+00  0.11554091800E+04  0.11554091800E+04  0.00000000000E+00 0. -1.
         21   -1    0    0  503  502 -0.00000000000E+00 -0.00000000000E+00 -0.83215677446E+02  0.83215677446E+02  0.00000000000E+00 0. -1.
          2    1    1    2  501    0 -0.58146951845E+01 -0.26803335539E+02  0.11529817813E+04  0.11533079456E+04  0.00000000000E+00 0. -1.
         21    1    1    2  503  501  0.58146951845E+01  0.26803335539E+02 -0.80788278687E+02  0.85316911860E+02  0.00000000000E+00 0. -1.
</event>
<event>
 4    1  0.2134315E+005  0.2008991E+02  0.7546771E-02  0.1532666E+00
          2   -1    0    0  503    0  0.00000000000E+00  0.00000000000E+00  0.14582547932E+02  0.14582547932E+02  0.00000000000E+00 0.  1.
         21   -1    0    0  501  502 -0.00000000000E+00 -0.00000000000E+00 -0.42421239571E+02  0.42421239571E+02  0.00000000000E+00 0.  1.
          2    1    1    2  501    0 -0.15527618026E+02 -0.12747459359E+02  0.28837665558E+01  0.20295830883E+02  0.00000000000E+00 0.  1.
         21    1    1    2  503  502  0.15527618026E+02  0.12747459359E+02 -0.30722458194E+02  0.36707956620E+02  0.00000000000E+00 0.  1.
</event>
<event>
 4    1  0.2134315E+005  0.2888666E+02  0.7546771E-02  0.1429524E+00
          2   -1    0    0  502    0  0.00000000000E+00  0.00000000000E+00  0.11246055771E+04  0.11246055771E+04  0.00000000000E+00 0.  1.
         21   -1    0    0  503  502 -0.00000000000E+00 -0.00000000000E+00 -0.11768840358E+01  0.11768840358E+01  0.00000000000E+00 0.  1.
          2    1    1    2  501    0 -0.22426414628E+02  0.18207000077E+02  0.90389271787E+03  0.90435418081E+03  0.00000000000E+00 0.  1.
         21    1    1    2  503  501  0.22426414628E+02 -0.18207000077E+02  0.21953597520E+03  0.22142828033E+03  0.00000000000E+00 0.  1.
</event>
<event>
 4    1  0.2134315E+005  0.5927966E+02  0.7546771E-02  0.1262300E+00
          2   -1    0    0  502    0  0.00000000000E+00  0.00000000000E+00  0.11968129629E+04  0.11968129629E+04  0.00000000000E+00 0.  1.
         21   -1    0    0  503  502 -0.00000000000E+00 -0.00000000000E+00 -0.14176984044E+03  0.14176984044E+03  0.00000000000E+00 0.  1.
          2    1    1    2  501    0  0.49427933490E+01  0.59073231377E+02  0.11898458502E+04  0.11913216296E+04  0.00000000000E+00 0.  1.
         21    1    1    2  503  501 -0.49427933490E+01 -0.59073231377E+02 -0.13480272777E+03  0.14726117372E+03  0.00000000000E+00 0.  1.
</event>
<event>
 4    1  0.2134315E+005  0.5701056E+02  0.7546771E-02  0.1270342E+00
          2   -1    0    0  503    0  0.00000000000E+00  0.00000000000E+00  0.13950802681E+04  0.13950802681E+04  0.00000000000E+00 0. -1.
         21   -1    0    0  501  502 -0.00000000000E+00 -0.00000000000E+00 -0.58313085991E+02  0.58313085991E+02  0.00000000000E+00 0. -1.
          2    1    1    2  501    0 -0.21266005683E+02 -0.52895760825E+02  0.13804155769E+04  0.13815923312E+04  0.00000000000E+00 0. -1.
         21    1    1    2  503  502  0.21266005683E+02  0.52895760825E+02 -0.43648394871E+02  0.71801022874E+02  0.00000000000E+00 0. -1.
</event>
<event>
 4    1  0.2134315E+005  0.2006890E+02  0.7546771E-02  0.1532985E+00
          2   -1    0    0  503    0  0.00000000000E+00  0.00000000000E+00  0.11744007100E+04  0.11744007100E+04  0.00000000000E+00 0. -1.
         21   -1    0    0  501  502 -0.00000000000E+00 -0.00000000000E+00 -0.36689561805E+00  0.36689561805E+00  0.00000000000E+00 0.  1.
          2    1    1    2  501    0  0.17665839650E+02 -0.95225527790E+01  0.73707601204E+03  0.73734917674E+03  0.00000000000E+00 0. -1.
         21    1    1    2  503  502 -0.17665839650E+02  0.95225527790E+01  0.43695780231E+03  0.43741842885E+03  0.00000000000E+00 0.  1.
</event>
<event>
 4    1  0.2134315E+005  0.2595341E+02  0.7546771E-02  0.1458414E+00
          2   -1    0    0  503    0  0.00000000000E+00  0.00000000000E+00  0.11809997637E+03  0.11809997637E+03  0.00000000000E+00 0.  1.
         21   -1    0    0  501  502 -0.00000000000E+00 -0.00000000000E+00 -0.24583623680E+03  0.24583623680E+03  0.00000000000E+00 0.  1.
          2    1    1    2  501    0 -0.14000024964E+02  0.21853573371E+02  0.11597673442E+03  0.11884520308E+03  0.00000000000E+00 0.  1.
         21    1    1    2  503  502  0.14000024964E+02 -0.21853573371E+02 -0.24371299485E+03  0.24509101009E+03  0.00000000000E+00 0.  1.
</event>
<event>
 4    1  0.2134315E+005  0.3054300E+02  0.7546771E-02  0.1414935E+00
          2   -1    0    0  503    0  0.00000000000E+00  0.00000000000E+00  0.70193909886E+03  0.70193909886E+03  0.00000000000E+00 0. -1.
         21   -1    0    0  501  502 -0.00000000000E+00 -0.00000000000E+00 -0.17431864745E+01  0.17431864745E+01  0.00000000000E+00 0. -1.
          2    1    1    2  501    0  0.21117538879E+02 -0.22066359369E+02  0.52160203230E+03  0.52249550693E+03  0.00000000000E+00 0. -1.
         21    1    1    2  503  502 -0.21117538879E+02  0.22066359369E+02  0.17859388009E+03  0.18118677840E+03  0.00000000000E+00 0. -1.
</event>
<event>
 4    1  0.2134315E+005  0.3313979E+02  0.7546771E-02  0.1394135E+00
          2   -1    0    0  502    0  0.00000000000E+00  0.00000000000E+00  0.89422743975E+03  0.89422743975E+03  0.00000000000E+00 0. -1.
         21   -1    0    0  503  502 -0.00000000000E+00 -0.00000000000E+00 -0.16423176397E+01  0.16423176397E+01  0.00000000000E+00 0.  1.
          2    1    1    2  501    0  0.31350569669E+02  0.10741848342E+02  0.67123651662E+03  0.67205409512E+03  0.00000000000E+00 0. -1.
         21    1    1    2  503  501 -0.31350569669E+02 -0.10741848342E+02  0.22134860549E+03  0.22381566227E+03  0.00000000000E+00 0.  1.
</event>
<event>
 4    1  0.2134315E+005  0.2443354E+02  0.7546771E-02  0.1475241E+00
          2   -1    0    0  502    0  0.00000000000E+00  0.00000000000E+00  0.77684493229E+01  0.77684493229E+01  0.00000000000E+00 0.  1.
         21   -1    0    0  503  502 -0.00000000000E+00 -0.00000000000E+00 -0.36906548040E+03  0.36906548040E+03  0.00000000000E+00 0.  1.
          2    1    1    2  501    0 -0.33106880719E+01  0.24208206598E+02 -0.12991933251E+02  0.27672879356E+02  0.00000000000E+00 0.  1.
         21    1    1    2  503  501  0.33106880719E+01 -0.24208206598E+02 -0.34830509782E+03  0.34916105037E+03  0.00000000000E+00 0.  1.
</event>
<event>
 4    1  0.2134315E+005  0.3622732E+02  0.7546771E-02  0.1372134E+00
          2   -1    0    0  502    0  0.00000000000E+00  0.00000000000E+00  0.71499302803E+03  0.71499302803E+03  0.00000000000E+00 0. -1.
         21   -1    0    0  503  502 -0.00000000000E+00 -0.00000000000E+00 -0.34848899059E+02  0.34848899059E+02  0.00000000000E+00 0.  1.
          2    1    1    2  501    0 -0.33668466709E+02 -0.13373605346E+02  0.70498550599E+03  0.70591570504E+03  0.00000000000E+00 0. -1.
         21    1    1    2  503  501  0.33668466709E+02  0.13373605346E+02 -0.24841377023E+02  0.43926222042E+02  0.00000000000E+00 0.  1.
</event>
<event>
 4    1  0.2134315E+005  0.2655523E+02  0.7546771E-02  0.1452128E+00
          2   -1    0    0  503    0  0.00000000000E+00  0.00000000000E+00  0.12332622217E+04  0.12332622217E+04  0.00000000000E+00 0. -1.
         21   -1    0    0  501  502 -0.00000000000E+00 -0.00000000000E+00 -0.81990495618E+00  0.81990495618E+00  0.00000000000E+00 0. -1.
          2    1    1    2  501    0 -0.13899004183E+02 -0.22627371265E+02  0.95565050295E+03  0.95601938476E+03  0.00000000000E+00 0. -1.
         21    1    1    2  503  502  0.13899004183E+02  0.22627371265E+02  0.27679181376E+03  0.27806274186E+03  0.00000000000E+00 0. -1.
</event>
<event>
 4    1  0.2134315E+005  0.2026435E+02  0.7546771E-02  0.1530032E+00
          2   -1    0    0  502    0  0.00000000000E+00  0.00000000000E+00  0.25140754035E+03  0.25140754035E+03  0.00000000000E+00 0.  1.
         21   -1    0    0  503  502 -0.00000000000E+00 -0.00000000000E+00 -0.88415299704E+02  0.88415299704E+02  0.00000000000E+00 0. -1.
          2    1    1    2  501    0  0.20262231369E+02  0.29286886283E+00  0.24983075733E+03  0.25065125393E+03  0.00000000000E+00 0.  1.
         21    1    1    2  503  501 -0.20262231369E+02 -0.29286886283E+00 -0.86838516680E+02  0.89171586121E+02  0.00000000000E+00 0. -1.
</event>
<event>
 4    1  0.2134315E+005  0.4627199E+02  0.7546771E-02  0.1315199E+00
          2   -1    0    0  502    0  0.00000000000E+00  0.00000000000E+00  0.14623322514E+04  0.14623322514E+04  0.00000000000E+00 0. -1.
         21   -1    0    0  503  502 -0.00000000000E+00 -0.00000000000E+00 -0.22872421869E+01  0.22872421869E+01  0.00000000000E+00 0.  1.
          2    1    1    2  501    0  0.26718424146E+02  0.37778607087E+02  0.11693199971E+04  0.11702351699E+04  0.00000000000E+00 0. -1.
         21    1    1    2  503  501 -0.26718424146E+02 -0.37778607087E+02  0.29072501217E+03  0.29438432370E+03  0.00000000000E+00 0.  1.
</event>
<event>
 4    1  0.2134315E+005  0.2708959E+02  0.7546771E-02  0.1446710E+00
          2   -1    0    0  503    0  0.00000000000E+00  0.00000000000E+00  0.80498361810E+02  0.80498361810E+02  0.00000000000E+00 0. -1.
         21   -1    0    0  501  502 -0.00000000000E+00 -0.00000000000E+00 -0.16926566799E+02  0.16926566799E+02  0.00000000000E+00 0.  1.
          2    1    1    2  501    0 -0.17210066270E+02  0.20920315273E+02  0.64875307630E+02  0.70303993572E+02  0.00000000000E+00 0. -1.
         21    1    1    2  503  502  0.17210066270E+02 -0.20920315273E+02 -0.13035126188E+01  0.27120935037E+02  0.00000000000E+00 0.  1.
</event>
<event>
 4    1  0.2134315E+005  0.2371482E+02  0.7546771E-02  0.1483712E+00
          2   -1    0    0  502    0  0.00000000000E+00  0.00000000000E+00  0.14884585951E+03  0.14884585951E+03  0.00000000000E+00 0. -1.
         21   -1    0    0  503  502 -0.00000000000E+00 -0.00000000000E+00 -0.35367052039E+03  0.35367052039E+03  0.00000000000E+00 0. -1.
          2    1    1    2  501    0  0.20587203153E+02 -0.11771131784E+02  0.14750012711E+03  0.14939437732E+03  0.00000000000E+00 0. -1.
         21    1    1    2  503  501 -0.20587203153E+02  0.11771131784E+02 -0.35232478798E+03  0.35312200258E+03  0.00000000000E+00 0. -1.
</event>
<event>
 4    1  0.2134315E+005  0.4311295E+02  0.7546771E-02  0.1331150E+00
          2   -1    0    0  502    0  0.00000000000E+00  0.00000000000E+00  0.17351017885E+04  0.17351017885E+04  0.00000000000E+00 0. -1.
         21   -1    0    0  503  502 -0.00000000000E+00 -0.00000000000E+00 -0.31040582556E+01  0.31040582556E+01  0.00000000000E+00 0.  1.
          2    1    1    2  501    0  0.14772153899E+02  0.40503213041E+02  0.15693214250E+04  0.15699135205E+04  0.00000000000E+00 0. -1.
         21    1    1    2  503  501 -0.14772153899E+02 -0.40503213041E+02  0.16267630521E+03  0.16829232625E+03  0.00000000000E+00 0.  1.
</event>
<event>
 4    1  0.2134315E+005  0.4011450E+02  0.7546771E-02  0.1347816E+00
          2   -1    0    0  502    0  0.00000000000E+00  0.00000000000E+00  0.19500714563E+03  0.19500714563E+03  0.00000000000E+00 0. -1.
         21   -1    0    0  503  502 -0.00000000000E+00 -0.00000000000E+00 -0.63921083236E+02  0.63921083236E+02  0.00000000000E+00 0.  1.
          2    1    1    2  501    0  0.39814647347E+02  0.48955691015E+01  0.18636193783E+03  0.19063038743E+03  0.00000000000E+00 0. -1.
         21    1    1    2  503  501 -0.39814647347E+02 -0.48955691015E+01 -0.55275875433E+02  0.68297841438E+02  0.00000000000E+00 0.  1.
</event>
<event>
 4    1  0.2134315E+005  0.2761998E+02  0.7546771E-02  0.1441478E+00
          2   -1    0    0  503    0  0.00000000000E+00  0.00000000000E+00  0.10811199506E+02  0.10811199506E+02  0.00000000000E+00 0. -1.
         21   -1    0    0  501  502 -0.00000000000E+00 -0.00000000000E+00 -0.10362407525E+04  0.10362407525E+04  0.00000000000E+00 0. -1.
          2    1    1    2  501    0 -0.26975287940E+02  0.59327249113E+01 -0.73276608653E+01  0.28575478965E+02  0.00000000000E+00 0. -1.
         21    1    1    2  503  502  0.26975287940E+02 -0.59327249113E+01 -0.10181018921E+04  0.10184764730E+04  0.00000000000E+00 0. -1.
</event>
<event>
 4    1  0.2134315E+005  0.2053440E+02  0.7546771E-02  0.1526017E+00
          2   -1    0    0  503    0  0.00000000000E+00  0.00000000000E+00  0.88826921610E+02  0.88826921610E+02  0.00000000000E+00 0.  1.
         21   -1    0    0  501  502 -0.00000000000E+00 -0.00000000000E+00 -0.91543337312E+01  0.91543337312E+01  0.00000000000E+00 0. -1.
          2    1    1    2  501    0  0.21534300771E+01 -0.20421173323E+02  0.73829137822E+02  0.76631606877E+02  0.00000000000E+00 0.  1.
         21    1    1    2  503  502 -0.21534300771E+01  0.20421173323E+02  0.58434500569E+01  0.21349648464E+02  0.00000000000E+00 0. -1.
</event>
<event>
 4    1  0.2134315E+005  0.3784425E+02  0.7546771E-02  0.1361603E+00
          2   -1    0    0  503    0  0.00000000000E+00  0.00000000000E+00  0.22915498759E+04  0.22915498759E+04  0.00000000000E+00 0.  1.
         21   -1    0    0  501  502 -0.00000000000E+00 -0.00000000000E+00 -0.64722305714E+00  0.64722305714E+00  0.00000000000E+00 0.  1.
          2    1    1    2  501    0  0.16785432144E+02  0.33918085722E+02  0.13578886046E+04  0.13584158604E+04  0.00000000000E+00 0.  1.
         21    1    1    2  503  502 -0.16785432144E+02 -0.33918085722E+02  0.93301404824E+03  0.93378123856E+03  0.00000000000E+00 0.  1.
</event>
<event>
 4    1  0.2134315E+005  0.2379657E+02  0.7546771E-02  0.1482731E+00
          2   -1    0    0  503    0  0.00000000000E+00  0.00000000000E+00  0.14491496179E+04  0.14491496179E+04  0.00000000000E+00 0.  1.
         21   -1    0    0  501  502 -0.00000000000E+00 -0.00000000000E+00 -0.21860464599E+01  0.21860464599E+01  0.00000000000E+00 0.  1.
          2    1    1    2  501    0  0.20491774193E+02  0.12098092809E+02  0.13811009718E+04  0.13813059657E+04  0.00000000000E+00 0.  1.
         21    1    1    2  503  502 -0.20491774193E+02 -0.12098092809E+02  0.65862599714E+02  0.70029698702E+02  0.00000000000E+00 0.  1.
</event>
<event>
 4    1  0.2134315E+005  0.2049008E+02  0.7546771E-02  0.1526671E+00
          2   -1    0    0  502    0  0.00000000000E+00  0.00000000000E+00  0.18623013973E+03  0.18623013973E+03  0.00000000000E+00 0.  1.
         21   -1    0    0  503  502 -0.00000000000E+00 -0.00000000000E+00 -0.94761206208E+02  0.94761206208E+02  0.00000000000E+00 0.  1.
          2    1    1    2  501    0  0.18196153576E+02 -0.94203760357E+01  0.18454883583E+03  0.18568283791E+03  0.00000000000E+00 0.  1.
         21    1    1    2  503  501 -0.18196153576E+02  0.94203760357E+01 -0.93079902304E+02  0.95308508028E+02  0.00000000000E+00 0.  1.
</event>
<event>
 4    1  0.2134315E+005  0.2640868E+02  0.7546771E-02  0.1453640E+00
          2   -1    0    0  503    0  0.00000000000E+00  0.00000000000E+00  0.12938658999E+02  0.12938658999E+02  0.00000000000E+00 0.  1.
         21   -1    0    0  501  502 -0.00000000000E+00 -0.00000000000E+00 -0.62169270615E+02  0.62169270615E+02  0.00000000000E+00 0.  1.
          2    1    1    2  501    0  0.18538243718E+02  0.18808293919E+02 -0.10920640719E+02  0.28577592516E+02  0.00000000000E+00 0.  1.
         21    1    1    2  503  502 -0.18538243718E+02 -0.18808293919E+02 -0.38309970897E+02  0.46530337098E+02  0.00000000000E+00 0.  1.
</event>
<event>
 4    1  0.2134315E+005  0.2855720E+02  0.7546771E-02  0.1432563E+00
          2   -1    0    0  502    0  0.00000000000E+00  0.00000000000E+00  0.67999254476E+03  0.67999254476E+03  0.00000000000E+00 0.  1.
         21   -1    0    0  503  502 -0.00000000000E+00 -0.00000000000E+00 -0.19054985316E+02  0.19054985316E+02  0.00000000000E+00 0.  1.
          2    1    1    2  501    0 -0.26331845648E+02 -0.11052027020E+02  0.66881450362E+03  0.66942389684E+03  0.00000000000E+00 0.  1.
         21    1    1    2  503  501  0.26331845648E+02  0.11052027020E+02 -0.78769441840E+01  0.29623633237E+02  0.00000000000E+00 0.  1.
</event>
<event>
 4    1  0.2134315E+005  0.3120978E+02  0.7546771E-02  0.1409367E+00
          2   -1    0    0  503    0  0.00000000000E+00  0.00000000000E+00  0.33298089978E+03  0.33298089978E+03  0.00000000000E+00 0. -1.
         21   -1    0    0  501  502 -0.00000000000E+00 -0.00000000000E+00 -0.63790093414E+01  0.63790093414E+01  0.00000000000E+00 0.  1.
          2    1    1    2  501    0 -0.15353431985E+02 -0.27172095491E+02  0.28815431921E+03  0.28983954583E+03  0.00000000000E+00 0. -1.
         21    1    1    2  503  502  0.15353431985E+02  0.27172095491E+02  0.38447571223E+02  0.49520363286E+02  0.00000000000E+00 0.  1.
</event>
<event>
 4    1  0.2134315E+005  0.4421727E+02  0.7546771E-02  0.1325400E+00
          2   -1    0    0  502    0  0.00000000000E+00  0.00000000000E+00  0.86609183367E+03  0.86609183367E+03  0.00000000000E+00 0. -1.
         21   -1    0    0  503  502 -0.00000000000E+00 -0.00000000000E+00 -0.15071304064E+02  0.15071304064E+02  0.00000000000E+00 0. -1.
          2    1    1    2  501    0 -0.28723477236E+02 -0.33617391496E+02  0.83175770414E+03  0.83293219746E+03  0.00000000000E+00 0. -1.
         21    1    1    2  503  501  0.28723477236E+02  0.33617391496E+02  0.19262825465E+02  0.48230940281E+02  0.00000000000E+00 0. -1.
</event>
<event>
 4    1  0.2134315E+005  0.3501923E+02  0.7546771E-02  0.1380428E+00
          2   -1    0    0  503    0  0.00000000000E+00  0.00000000000E+00  0.25188501324E+04  0.25188501324E+04  0.00000000000E+00 0. -1.
         21   -1    0    0  501  502 -0.00000000000E+00 -0.00000000000E+00 -0.41849854401E+01  0.41849854401E+01  0.00000000000E+00 0.  1.
          2    1    1    2  501    0  0.15478597143E+01  0.34985001710E+02  0.24432015402E+04  0.24434524985E+04  0.00000000000E+00 0. -1.
         21    1    1    2  503  502 -0.15478597143E+01 -0.34985001710E+02  0.71463606680E+02  0.79582619297E+02  0.00000000000E+00 0.  1.
</event>
<event>
 4    1  0.2134315E+005  0.2385154E+02  0.7546771E-02  0.1482073E+00
          2   -1    0    0  502    0  0.00000000000E+00  0.00000000000E+00  0.47922597961E+03  0.47922597961E+03  0.00000000000E+00 0. -1.
         21   -1    0    0  503  502 -0.00000000000E+00 -0.00000000000E+00 -0.13826178186E+01  0.13826178186E+01  0.00000000000E+00 0. -1.
          2    1    1    2  501    0 -0.67264556228E+01  0.22883412226E+02  0.32928420225E+03  0.33014690914E+03  0.00000000000E+00 0. -1.
         21    1    1    2  503  501  0.67264556228E+01 -0.22883412226E+02  0.14855915954E+03  0.15046168829E+03  0.00000000000E+00 0. -1.
</event>
<event>
 4    1  0.2134315E+005  0.2317413E+02  0.7546771E-02  0.1490323E+00
          2   -1    0    0  503    0  0.00000000000E+00  0.00000000000E+00  0.33268631843E+02  0.33268631843E+02  0.00000000000E+00 0. -1.
         21   -1    0    0  501  502 -0.00000000000E+00 -0.00000000000E+00 -0.18242452351E+02  0.18242452351E+02  0.00000000000E+00 0.  1.
          2    1    1    2  501    0  0.17804789224E+01 -0.23105632166E+02  0.16251436765E+02  0.28304585139E+02  0.00000000000E+00 0. -1.
         21    1    1    2  503  502 -0.17804789224E+01  0.23105632166E+02 -0.12252572734E+01  0.23206499054E+02  0.00000000000E+00 0.  1.
</event>
<event>
 4    1  0.2134315E+005  0.2124077E+02  0.7546771E-02  0.1515855E+00
          2   -1    0    0  503    0  0.00000000000E+00  0.00000000000E+00  0.15485035583E+03  0.15485035583E+03  0.00000000000E+00 0.  1.
         21   -1    0    0  501  502 -0.00000000000E+00 -0.00000000000E+00 -0.24500310604E+02  0.24500310604E+02  0.00000000000E+00 0. -1.
          2    1    1    2  501    0  0.21155811326E+02  0.18979274886E+01  0.14934952102E+03  0.15085241102E+03  0.00000000000E+00 0.  1.
         21    1    1    2  503  502 -0.21155811326E+02 -0.18979274886E+01 -0.18999475790E+02  0.28498255418E+02  0.00000000000E+00 0. -1.
</event>
<event>
 4    1  0.2134315E+005  0.2033767E+02  0.7546771E-02  0.1528935E+00
          2   -1    0    0  503    0  0.00000000000E+00  0.00000000000E+00  0.29986186447E+02  0.29986186447E+02  0.00000000000E+00 0.  1.
         21   -1    0    0  501  502 -0.00000000000E+00 -0.00000000000E+00 -0.46847841115E+02  0.46847841115E+02  0.00000000000E+00 0. -1.
          2    1    1    2  501    0 -0.20322768057E+02 -0.77853405644E+00  0.23838627527E+02  0.31335302443E+02  0.00000000000E+00 0.  1.
         21    1    1    2  503  502  0.20322768057E+02  0.77853405644E+00 -0.40700282194E+02  0.45498725120E+02  0.00000000000E+00 0. -1.
</event>
<event>
 4    1  0.2134315E+005  0.2031655E+02  0.7546771E-02  0.1529250E+00
          2   -1    0    0  503    0  0.00000000000E+00  0.00000000000E+00  0.18820868382E+03  0.18820868382E+03  0.00000000000E+00 0. -1.
         21   -1    0    0  501  502 -0.00000000000E+00 -0.00000000000E+00 -0.27381731162E+01  0.27381731162E+01  0.00000000000E+00 0.  1.
          2    1    1    2  501    0  0.78921896140E+01  0.18720991542E+02  0.13533194157E+03  0.13684844387E+03  0.00000000000E+00 0. -1.
         21    1    1    2  503  502 -0.78921896140E+01 -0.18720991542E+02  0.50138569130E+02  0.54098413060E+02  0.00000000000E+00 0.  1.
</event>
<event>
 4    1  0.2134315E+005  0.2203659E+02  0.7546771E-02  0.1504963E+00
          2   -1    0    0  502    0  0.00000000000E+00  0.00000000000E+00  0.82719880431E+03  0.82719880431E+03  0.00000000000E+00 0. -1.
         21   -1    0    0  503  502 -0.00000000000E+00 -0.00000000000E+00 -0.48954875854E+01  0.48954875854E+01  0.00000000000E+00 0. -1.
          2    1    1    2  501    0 -0.14243250103E+02  0.16814912471E+02  0.80145673973E+03  0.80175963800E+03  0.00000000000E+00 0. -1.
         21    1    1    2  503  501  0.14243250103E+02 -0.16814912471E+02  0.20846576989E+02  0.30334653897E+02  0.00000000000E+00 0. -1.
</event>
<event>
 4    1  0.2134315E+005  0.2705816E+02  0.7546771E-02  0.1447025E+00
          2   -1    0    0  503    0  0.00000000000E+00  0.00000000000E+00  0.21148949727E+02  0.21148949727E+02  0.00000000000E+00 0. -1.
         21   -1    0    0  501  502 -0.00000000000E+00 -0.00000000000E+00 -0.36083383617E+02  0.36083383617E+02  0.00000000000E+00 0. -1.
          2    1    1    2  501    0  0.22874117725E+02  0.14454015575E+02 -0.17013181242E+01  0.27111589981E+02  0.00000000000E+00 0. -1.
         21    1    1    2  503  502 -0.22874117725E+02 -0.14454015575E+02 -0.13233115766E+02  0.30120743364E+02  0.00000000000E+00 0. -1.
</event>
<event>
 4    1  0.2134315E+005  0.3171141E+02  0.7546771E-02  0.1405285E+00
          2   -1    0    0  502    0  0.00000000000E+00  0.00000000000E+00  0.30446850754E+03  0.30446850754E+03  0.00000000000E+00 0.  1.
         21   -1    0    0  503  502 -0.00000000000E+00 -0.00000000000E+00 -0.34101562098E+02  0.34101562098E+02  0.00000000000E+00 0.  1.
          2    1    1    2  501    0  0.22792699345E+02 -0.22047818592E+02  0.29606186480E+03  0.29775533788E+03  0.00000000000E+00 0.  1.
         21    1    1    2  503  501 -0.22792699345E+02  0.22047818592E+02 -0.25694919353E+02  0.40814731760E+02  0.00000000000E+00 0.  1.
</event>
<event>
 4    1  0.2134315E+005  0.3382007E+02  0.7546771E-02  0.1389054E+00
          2   -1    0    0  503    0  0.00000000000E+00  0.00000000000E+00  0.18790933333E+04  0.18790933333E+04  0.00000000000E+00 0.  1.
         21   -1    0    0  501  502 -0.00000000000E+00 -0.00000000000E+00 -0.15299733108E+01  0.15299733108E+01  0.00000000000E+00 0. -1.
          2    1    1    2  501    0 -0.31830962877E+02 -0.11427449577E+02  0.16684492640E+04  0.16687920012E+04  0.00000000000E+00 0.  1.
         21    1    1    2  503  502  0.31830962877E+02  0.11427449577E+02  0.20911409604E+03  0.21183130544E+03  0.00000000000E+00 0. -1.
</event>
<event>
 4    1  0.2134315E+005  0.2455158E+02  0.7546771E-02  0.1473883E+00
          2   -1    0    0  502    0  0.00000000000E+00  0.00000000000E+00  0.23102964884E+03  0.23102964884E+03  0.00000000000E+00 0.  1.
         21   -1    0    0  503  502 -0.00000000000E+00 -0.00000000000E+00 -0.56577904004E+01  0.56577904004E+01  0.00000000000E+00 0.  1.
          2    1    1    2  501    0  0.22659546466E+02  0.94511871650E+01  0.19955762253E+03  0.20106224085E+03  0.00000000000E+00 0.  1.
         21    1    1    2  503  501 -0.22659546466E+02 -0.94511871650E+01  0.25814235907E+02  0.35625198390E+02  0.00000000000E+00 0.  1.
</event>
<event>
 4    1  0.2134315E+005  0.2560152E+02  0.7546771E-02  0.1462185E+00
          2   -1    0    0  503    0  0.00000000000E+00  0.00000000000E+00  0.60607039661E+03  0.60607039661E+03  0.00000000000E+00 0.  1.
         21   -1    0    0  501  502 -0.00000000000E+00 -0.00000000000E+00 -0.13018960676E+02  0.13018960676E+02  0.00000000000E+00 0.  1.
          2    1    1    2  501    0 -0.15376928493E+02  0.20469193387E+02  0.59293512463E+03  0.59348757344E+03  0.00000000000E+00 0.  1.
         21    1    1    2  503  502  0.15376928493E+02 -0.20469193387E+02  0.11631130489E+00  0.25601783847E+02  0.00000000000E+00 0.  1.
</event>
<event>
 4    1  0.2134315E+005  0.2973040E+02  0.7546771E-02  0.1421954E+00
          2   -1    0    0  502    0  0.00000000000E+00  0.00000000000E+00  0.40438851638E+03  0.40438851638E+03  0.00000000000E+00 0.  1.
         21   -1    0    0  503  502 -0.00000000000E+00 -0.00000000000E+00 -0.25104444924E+01  0.25104444924E+01  0.00000000000E+00 0.  1.
          2    1    1    2  501    0 -0.26870514838E+02 -0.12722888395E+02  0.27410543712E+03  0.27571305214E+03  0.00000000000E+00 0.  1.
         21    1    1    2  503  501  0.26870514838E+02  0.12722888395E+02  0.12777263476E+03  0.13118590873E+03  0.00000000000E+00 0.  1.
</event>
<event>
 4    1  0.2134315E+005  0.2222953E+02  0.7546771E-02  0.1502406E+00
          2   -1    0    0  503    0  0.00000000000E+00  0.00000000000E+00  0.70256588133E+01  0.70256588133E+01  0.00000000000E+00 0. -1.
         21   -1    0    0  501  502 -0.00000000000E+00 -0.00000000000E+00 -0.19041296282E+03  0.19041296282E+03  0.00000000000E+00 0. -1.
          2    1    1    2  501    0  0.11567431289E+02 -0.18982792327E+02 -0.13299266634E+02  0.25904099369E+02  0.00000000000E+00 0. -1.
         21    1    1    2  503  502 -0.11567431289E+02  0.18982792327E+02 -0.17008803737E+03  0.17153452226E+03  0.00000000000E+00 0. -1.
</event>
<event>
 4    1  0.2134315E+005  0.2347529E+02  0.7546771E-02  0.1486615E+00
          2   -1    0    0  503    0  0.00000000000E+00  0.00000000000E+00  0.20133734370E+03  0.20133734370E+03  0.00000000000E+00 0.  1.
         21   -1    0    0  501  502 -0.00000000000E+00 -0.00000000000E+00 -0.39320872847E+03  0.39320872847E+03  0.00000000000E+00 0. -1.
          2    1    1    2  501    0 -0.80935517061E+01 -0.22035965630E+02  0.20030087108E+03  0.20167183323E+03  0.00000000000E+00 0.  1.
         21    1    1    2  503  502  0.80935517061E+01  0.22035965630E+02 -0.39217225586E+03  0.39287423894E+03  0.00000000000E+00 0. -1.
</event>
<event>
 4    1  0.2134315E+005  0.2241746E+02  0.7546771E-02  0.1499946E+00
          2   -1    0    0  502    0  0.00000000000E+00  0.00000000000E+00  0.29771444555E+01  0.29771444555E+01  0.00000000000E+00 0.  1.
         21   -1    0    0  503  502 -0.00000000000E+00 -0.00000000000E+00 -0.72097018219E+03  0.72097018219E+03  0.00000000000E+00 0.  1.
          2    1    1    2  501    0  0.10671417549E+01 -0.22392044071E+02 -0.42218719308E+02  0.47801283342E+02  0.00000000000E+00 0.  1.
         21    1    1    2  503  501 -0.10671417549E+01  0.22392044071E+02 -0.67577431843E+03  0.67614604330E+03  0.00000000000E+00 0.  1.
</event>
<event>
 4    1  0.2134315E+005  0.2609082E+02  0.7546771E-02  0.1456961E+00
          2   -1    0    0  502    0  0.00000000000E+00  0.00000000000E+00  0.67294462425E+02  0.67294462425E+02  0.00000000000E+00 0.  1.
         21   -1    0    0  503  502 -0.00000000000E+00 -0.00000000000E+00 -0.83775629212E+02  0.83775629212E+02  0.00000000000E+00 0.  1.
          2    1    1    2  501    0 -0.19017803488E+02 -0.17862083655E+02  0.62587466369E+02  0.67807977617E+02  0.00000000000E+00 0.  1.
         21    1    1    2  503  501  0.19017803488E+02  0.17862083655E+02 -0.79068633156E+02  0.83262114021E+02  0.00000000000E+00 0.  1.
</event>
<event>
 4    1  0.2134315E+005  0.2827336E+02  0.7546771E-02  0.1435220E+00
          2   -1    0    0  503    0  0.00000000000E+00  0.00000000000E+00  0.61638060877E+03  0.61638060877E+03  0.00000000000E+00 0.  1.
         21   -1    0    0  501  502 -0.00000000000E+00 -0.00000000000E+00 -0.41362381320E+01  0.41362381320E+01  0.00000000000E+00 0.  1.
          2    1    1    2  501    0 -0.78521725979E+01 -0.27161115460E+02  0.56317923647E+03  0.56388849536E+03  0.00000000000E+00 0.  1.
         21    1    1    2  503  502  0.78521725979E+01  0.27161115460E+02  0.49065134170E+02  0.56628351545E+02  0.00000000000E+00 0.  1.
</event>
<event>
 4    1  0.2134315E+005  0.2418278E+02  0.7546771E-02  0.1478157E+00
          2   -1    0    0  503    0  0.00000000000E+00  0.00000000000E+00  0.29796575141E+03  0.29796575141E+03  0.00000000000E+00 0.  1.
         21   -1    0    0  501  502 -0.00000000000E+00 -0.00000000000E+00 -0.30178364186E+02  0.30178364186E+02  0.00000000000E+00 0. -1.
          2    1    1    2  501    0 -0.18359265927E+02  0.15739894829E+02  0.29254081128E+03  0.29353864005E+03  0.00000000000E+00 0.  1.
         21    1    1    2  503  502  0.18359265927E+02 -0.15739894829E+02 -0.24753424065E+02  0.34605475543E+02  0.00000000000E+00 0. -1.
</event>
<event>
 4    1  0.2134315E+005  0.3081912E+02  0.7546771E-02  0.1412609E+00
          2   -1    0    0  503    0  0.00000000000E+00  0.00000000000E+00  0.12281221048E+04  0.12281221048E+04  0.00000000000E+00 0.  1.
         21   -1    0    0  501  502 -0.00000000000E+00 -0.00000000000E+00 -0.13783541866E+01  0.13783541866E+01  0.00000000000E+00 0.  1.
          2    1    1    2  501    0 -0.21531630619E+02 -0.22050107195E+02  0.10206422575E+04  0.10211074557E+04  0.00000000000E+00 0.  1.
         21    1    1    2  503  502  0.21531630619E+02  0.22050107195E+02  0.20610149311E+03  0.20839300326E+03  0.00000000000E+00 0.  1.
</event>
<event>
 4    1  0.2134315E+005  0.2218286E+02  0.7546771E-02  0.1503022E+00
          2   -1    0    0  503    0  0.00000000000E+00  0.00000000000E+00  0.18456253568E+03  0.18456253568E+03  0.00000000000E+00 0. -1.
         21   -1    0    0  501  502 -0.00000000000E+00 -0.00000000000E+00 -0.87186570257E+01  0.87186570257E+01  0.00000000000E+00 0. -1.
          2    1    1    2  501    0 -0.14081081295E+02  0.17140663433E+02  0.16844141560E+03  0.16989582008E+03  0.00000000000E+00 0. -1.
         21    1    1    2  503  502  0.14081081295E+02 -0.17140663433E+02  0.74024630569E+01  0.23385372622E+02  0.00000000000E+00 0. -1.
</event>
<event>
 4    1  0.2134315E+005  0.2721711E+02  0.7546771E-02  0.1445439E+00
          2   -1    0    0  502    0  0.00000000000E+00  0.00000000000E+00  0.16178821070E+03  0.16178821070E+03  0.00000000000E+00 0.  1.
         21   -1    0    0  503  502 -0.00000000000E+00 -0.00000000000E+00 -0.46145037336E+01  0.46145037336E+01  0.00000000000E+00 0.  1.
          2    1    1    2  501    0 -0.17057259472E+02 -0.21208977489E+02  0.85921238507E+02  0.90128963455E+02  0.00000000000E+00 0.  1.
         21    1    1    2  503  501  0.17057259472E+02  0.21208977489E+02  0.71252468456E+02  0.76273750975E+02  0.00000000000E+00 0.  1.
</event>
<event>
 4    1  0.2134315E+005  0.2349442E+02  0.7546771E-02  0.1486381E+00
          2   -1    0    0  503    0  0.00000000000E+00  0.00000000000E+00  0.48755891269E+00  0.48755891269E+00  0.00000000000E+00 0. -1.
         21   -1    0    0  501  502 -0.00000000000E+00 -0.00000000000E+00 -0.14447241101E+04  0.14447241101E+04  0.00000000000E+00 0.  1.
          2    1    1    2  501    0 -0.51155571652E+01  0.22930740249E+02 -0.38600286449E+03  0.38671720827E+03  0.00000000000E+00 0. -1.
         21    1    1    2  503  502  0.51155571652E+01 -0.22930740249E+02 -0.10582336867E+04  0.10584944607E+04  0.00000000000E+00 0.  1.
</event>
<event>
 4    1  0.2134315E+005  0.2903333E+02  0.7546771E-02  0.1428187E+00
          2   -1    0    0  502    0  0.00000000000E+00  0.00000000000E+00  0.12034190252E+04  0.12034190252E+04  0.00000000000E+00 0.  1.
         21   -1    0    0  503  502 -0.00000000000E+00 -0.00000000000E+00 -0.25399437564E+02  0.25399437564E+02  0.00000000000E+00 0. -1.
          2    1    1    2  501    0 -0.11619936819E+02 -0.26606602547E+02  0.11948879047E+04  0.11952405779E+04  0.00000000000E+00 0.  1.
         21    1    1    2  503  501  0.11619936819E+02  0.26606602547E+02 -0.16868317078E+02  0.33577884862E+02  0.00000000000E+00 0. -1.
</event>
<event>
 4    1  0.2134315E+005  0.2721354E+02  0.7546771E-02  0.1445475E+00
          2   -1    0    0  503    0  0.00000000000E+00  0.00000000000E+00  0.27850679072E+02  0.27850679072E+02  0.00000000000E+00 0. -1.
         21   -1    0    0  501  502 -0.00000000000E+00 -0.00000000000E+00 -0.22570542969E+03  0.22570542969E+03  0.00000000000E+00 0. -1.
          2    1    1    2  501    0 -0.20245648694E+02  0.18184901982E+02  0.20148686838E+02  0.33860693030E+02  0.00000000000E+00 0. -1.
         21    1    1    2  503  502  0.20245648694E+02 -0.18184901982E+02 -0.21800343746E+03  0.21969541573E+03  0.00000000000E+00 0. -1.
</event>
<event>
 4    1  0.2134315E+005  0.2250059E+02  0.7546771E-02  0.1498866E+00
          2   -1    0    0  503    0  0.00000000000E+00  0.00000000000E+00  0.58046459640E+03  0.58046459640E+03  0.00000000000E+00 0.  1.
         21   -1    0    0  501  502 -0.00000000000E+00 -0.00000000000E+00 -0.62209159509E+01  0.62209159509E+01  0.00000000000E+00 0.  1.
          2    1    1    2  501    0  0.21135448562E+02 -0.77181316120E+01  0.55912458219E+03  0.55957713959E+03  0.00000000000E+00 0.  1.
         21    1    1    2  503  502 -0.21135448562E+02  0.77181316120E+01  0.15119098255E+02  0.27108372757E+02  0.00000000000E+00 0.  1.
</event>
<event>
 4    1  0.2134315E+005  0.2424837E+02  0.7546771E-02  0.1477390E+00
          2   -1    0    0  503    0  0.00000000000E+00  0.00000000000E+00  0.64664282404E+03  0.64664282404E+03  0.00000000000E+00 0.  1.
         21   -1    0    0  501  502 -0.00000000000E+00 -0.00000000000E+00 -0.27008544440E+01  0.27008544440E+01  0.00000000000E+00 0.  1.
          2    1    1    2  501    0  0.15069662760E+02  0.18997072076E+02  0.58640096538E+03  0.58690210060E+03  0.00000000000E+00 0.  1.
         21    1    1    2  503  502 -0.15069662760E+02 -0.18997072076E+02  0.57541004210E+02  0.62441577884E+02  0.00000000000E+00 0.  1.
</event>
<event>
 4    1  0.2134315E+005  0.3137974E+02  0.7546771E-02  0.1407974E+00
          2   -1    0    0  503    0  0.00000000000E+00  0.00000000000E+00  0.23065087725E+02  0.23065087725E+02  0.00000000000E+00 0.  1.
         21   -1    0    0  501  502 -0.00000000000E+00 -0.00000000000E+00 -0.11625849967E+03  0.11625849967E+03  0.00000000000E+00 0. -1.
          2    1    1    2  501    0 -0.28380969812E+02 -0.13386887160E+02  0.88177632381E+01  0.32595109201E+02  0.00000000000E+00 0.  1.
         21    1    1    2  503  502  0.28380969812E+02  0.13386887160E+02 -0.10201117518E+03  0.10672847819E+03  0.00000000000E+00 0. -1.
</event>
<event>
 4    1  0.2134315E+005  0.4432757E+02  0.7546771E-02  0.1324836E+00
          2   -1    0    0  503    0  0.00000000000E+00  0.00000000000E+00  0.71240804432E+03  0.71240804432E+03  0.00000000000E+00 0.  1.
         21   -1    0    0  501  502 -0.00000000000E+00 -0.00000000000E+00 -0.60009840539E+01  0.60009840539E+01  0.00000000000E+00 0. -1.
          2    1    1    2  501    0 -0.32195492909E+02  0.30469393435E+02  0.61725731658E+03  0.61884693469E+03  0.00000000000E+00 0.  1.
         21    1    1    2  503  502  0.32195492909E+02 -0.30469393435E+02  0.89149743681E+02  0.99562093682E+02  0.00000000000E+00 0. -1.
</event>
<event>
 4    1  0.2134315E+005  0.3407526E+02  0.7546771E-02  0.1387183E+00
          2   -1    0    0  503    0  0.00000000000E+00  0.00000000000E+00  0.96145636558E+01  0.96145636558E+01  0.00000000000E+00 0.  1.
         21   -1    0    0  501  502 -0.00000000000E+00 -0.00000000000E+00 -0.19628139447E+03  0.19628139447E+03  0.00000000000E+00 0.  1.
          2    1    1    2  501    0 -0.18344960369E+02  0.28715605167E+02 -0.15718808604E+03  0.16083910576E+03  0.00000000000E+00 0.  1.
         21    1    1    2  503  502  0.18344960369E+02 -0.28715605167E+02 -0.29478744776E+02  0.45056852360E+02  0.00000000000E+00 0.  1.
</event>
<event>
 4    1  0.2134315E+005  0.2260663E+02  0.7546771E-02  0.1497498E+00
          2   -1    0    0  502    0  0.00000000000E+00  0.00000000000E+00  0.21424277433E+03  0.21424277433E+03  0.00000000000E+00 0.  1.
         21   -1    0    0  503  502 -0.00000000000E+00 -0.00000000000E+00 -0.33628770366E+02  0.33628770366E+02  0.00000000000E+00 0.  1.
          2    1    1    2  501    0 -0.21547155325E+02 -0.68395673235E+01  0.20976630164E+03  0.21098094911E+03  0.00000000000E+00 0.  1.
         21    1    1    2  503  501  0.21547155325E+02  0.68395673235E+01 -0.29152297669E+02  0.36890595593E+02  0.00000000000E+00 0.  1.
</event>
<event>
 4    1  0.2134315E+005  0.2300865E+02  0.7546771E-02  0.1492390E+00
          2   -1    0    0  503    0  0.00000000000E+00  0.00000000000E+00  0.23173647383E+02  0.23173647383E+02  0.00000000000E+00 0.  1.
         21   -1    0    0  501  502 -0.00000000000E+00 -0.00000000000E+00 -0.65539839865E+03  0.65539839865E+03  0.00000000000E+00 0.  1.
          2    1    1    2  501    0 -0.20505817680E+02 -0.10435958618E+02  0.17208059336E+02  0.28731778523E+02  0.00000000000E+00 0.  1.
         21    1    1    2  503  502  0.20505817680E+02  0.10435958618E+02 -0.64943281060E+03  0.64984026751E+03  0.00000000000E+00 0.  1.
</event>
<event>
 4    1  0.2134315E+005  0.2813997E+02  0.7546771E-02  0.1436481E+00
          2   -1    0    0  502    0  0.00000000000E+00  0.00000000000E+00  0.57735678720E+03  0.57735678720E+03  0.00000000000E+00 0. -1.
         21   -1    0    0  503  502 -0.00000000000E+00 -0.00000000000E+00 -0.54559288579E+01  0.54559288579E+01  0.00000000000E+00 0. -1.
          2    1    1    2  501    0 -0.85161179998E+01  0.26820399149E+02  0.53808309886E+03  0.53881841038E+03  0.00000000000E+00 0. -1.
         21    1    1    2  503  501  0.85161179998E+01 -0.26820399149E+02  0.33817759476E+02  0.43994305680E+02  0.00000000000E+00 0. -1.
</event>
<event>
 4    1  0.2134315E+005  0.6412223E+02  0.7546771E-02  0.1246435E+00
          2   -1    0    0  502    0  0.00000000000E+00  0.00000000000E+00  0.21080665672E+04  0.21080665672E+04  0.00000000000E+00 0. -1.
         21   -1    0    0  503  502 -0.00000000000E+00 -0.00000000000E+00 -0.25052518505E+02  0.25052518505E+02  0.00000000000E+00 0.  1.
          2    1    1    2  501    0  0.15011584685E+02  0.62340295671E+02  0.20657073870E+04  0.20667023659E+04  0.00000000000E+00 0. -1.
         21    1    1    2  503  501 -0.15011584685E+02 -0.62340295671E+02  0.17306661660E+02  0.66416719860E+02  0.00000000000E+00 0.  1.
</event>
