<event>
 4    1  0.6651744E+003  0.3504445E+02  0.7546771E-02  0.1380251E+00
          2   -1    0    0  501    0  0.00000000000E+00  0.00000000000E+00  0.49083460215E+01  0.49083460215E+01  0.00000000000E+00 0. -1.
          2   -1    0    0  502    0 -0.00000000000E+00 -0.00000000000E+00 -0.83228586034E+03  0.83228586034E+03  0.00000000000E+00 0.  1.
          2    1    1    2  501    0  0.28517764947E+02  0.20367884982E+02 -0.76375483477E+03  0.76455840934E+03  0.00000000000E+00 0.  1.
          2    1    1    2  502    0 -0.28517764947E+02 -0.20367884982E+02 -0.63622679550E+02  0.72635797024E+02  0.00000000000E+00 0. -1.
</event>
<event>
 4    1  0.6651744E+003  0.2060340E+02  0.7546771E-02  0.1525003E+00
          2   -1    0    0  501    0  0.00000000000E+00  0.00000000000E+00  0.79783864233E+01  0.79783864233E+01  0.00000000000E+00 0. -1.
          2   -1    0    0  502    0 -0.00000000000E+00 -0.00000000000E+00 -0.32510939034E+03  0.32510939034E+03  0.00000000000E+00 0. -1.
          2    1    1    2  501    0 -0.34364916965E+01 -0.20314786065E+02 -0.31087292020E+03  0.31155492698E+03  0.00000000000E+00 0. -1.
          2    1    1    2  502    0  0.34364916965E+01  0.20314786065E+02 -0.62580837106E+01  0.21532849783E+02  0.00000000000E+00 0. -1.
</event>
<event>
 4    1  0.6651744E+003  0.5666527E+02  0.7546771E-02  0.1271604E+00
          2   -1    0    0  502    0  0.00000000000E+00  0.00000000000E+00  0.99583252924E+03  0.99583252924E+03  0.00000000000E+00 0. -1.
          2   -1    0    0  501    0 -0.00000000000E+00 -0.00000000000E+00 -0.79217406117E+02  0.79217406117E+02  0.00000000000E+00 0. -1.
          2    1    1    2  501    0  0.25179903194E+02  0.50763421981E+02  0.98477943419E+03  0.98640837717E+03  0.00000000000E+00 0. -1.
          2    1    1    2  502    0 -0.25179903194E+02 -0.50763421981E+02 -0.68164311065E+02  0.88641558194E+02  0.00000000000E+00 0. -1.
</event>
<event>
 4    1  0.6651744E+003  0.3511722E+02  0.7546771E-02  0.1379741E+00
          2   -1    0    0  502    0  0.00000000000E+00  0.00000000000E+00  0.36074207376E+03  0.36074207376E+03  0.00000000000E+00 0. -1.
          2   -1    0    0  501    0 -0.00000000000E+00 -0.00000000000E+00 -0.28720642151E+02  0.28720642151E+02  0.00000000000E+00 0.  1.
          2    1    1    2  501    0 -0.27714198827E+02  0.21567164155E+02  0.34878577250E+03  0.35054918983E+03  0.00000000000E+00 0. -1.
          2    1    1    2  502    0  0.27714198827E+02 -0.21567164155E+02 -0.16764340900E+02  0.38913526081E+02  0.00000000000E+00 0.  1.
</event>
<event>
 4    1  0.6651744E+003  0.2706214E+02  0.7546771E-02  0.1446985E+00
          2   -1    0    0  501    0  0.00000000000E+00  0.00000000000E+00  0.13315780611E+04  0.13315780611E+04  0.00000000000E+00 0. -1.
          2   -1    0    0  502    0 -0.00000000000E+00 -0.00000000000E+00 -0.71273038399E+00  0.71273038399E+00  0.00000000000E+00 0.  1.
          2    1    1    2  501    0  0.13603300439E+02 -0.23394650432E+02  0.34712344553E+03  0.34817674518E+03  0.00000000000E+00 0.  1.
          2    1    1    2  502    0 -0.13603300439E+02  0.23394650432E+02  0.98374188515E+03  0.98411404626E+03  0.00000000000E+00 0. -1.
</event>
<event>
 4    1  0.6651744E+003  0.2824165E+02  0.7546771E-02  0.1435519E+00
          2   -1    0    0  502    0  0.00000000000E+00  0.00000000000E+00  0.54442614077E+00  0.54442614077E+00  0.00000000000E+00 0. -1.
          2   -1    0    0  501    0 -0.00000000000E+00 -0.00000000000E+00 -0.15643905398E+04  0.15643905398E+04  0.00000000000E+00 0. -1.
          2    1    1    2  501    0  0.18383986259E+02  0.21438749558E+02 -0.97913789897E+03  0.97954510673E+03  0.00000000000E+00 0. -1.
          2    1    1    2  502    0 -0.18383986259E+02 -0.21438749558E+02 -0.58470821472E+03  0.58538985924E+03  0.00000000000E+00 0. -1.
</event>
<event>
 4    1  0.6651744E+003  0.2218703E+02  0.7546771E-02  0.1502967E+00
          2   -1    0    0  502    0  0.00000000000E+00  0.00000000000E+00  0.13362465109E+02  0.13362465109E+02  0.00000000000E+00 0.  1.
          2   -1    0    0  501    0 -0.00000000000E+00 -0.00000000000E+00 -0.36942728848E+02  0.36942728848E+02  0.00000000000E+00 0.  1.
          2    1    1    2  501    0  0.26275052862E+01 -0.22030900091E+02 -0.13120780686E+02  0.25776330783E+02  0.00000000000E+00 0.  1.
          2    1    1    2  502    0 -0.26275052862E+01  0.22030900091E+02 -0.10459483052E+02  0.24528863173E+02  0.00000000000E+00 0.  1.
</event>
<event>
 4    1  0.6651744E+003  0.3043678E+02  0.7546771E-02  0.1415838E+00
          2   -1    0    0  501    0  0.00000000000E+00  0.00000000000E+00  0.51655369430E+02  0.51655369430E+02  0.00000000000E+00 0. -1.
          2   -1    0    0  502    0 -0.00000000000E+00 -0.00000000000E+00 -0.25929809909E+03  0.25929809909E+03  0.00000000000E+00 0. -1.
          2    1    1    2  501    0 -0.21495598961E+02 -0.21548477026E+02 -0.25382504061E+03  0.25564340179E+03  0.00000000000E+00 0. -1.
          2    1    1    2  502    0  0.21495598961E+02  0.21548477026E+02  0.46182310952E+02  0.55310066730E+02  0.00000000000E+00 0. -1.
</event>
<event>
 4    1  0.6651744E+003  0.4038110E+02  0.7546771E-02  0.1346267E+00
          2   -1    0    0  501    0  0.00000000000E+00  0.00000000000E+00  0.51184842731E+01  0.51184842731E+01  0.00000000000E+00 0.  1.
          2   -1    0    0  502    0 -0.00000000000E+00 -0.00000000000E+00 -0.38366304492E+03  0.38366304492E+03  0.00000000000E+00 0.  1.
          2    1    1    2  501    0 -0.99233283738E+01  0.39142828094E+02 -0.10920718354E+03  0.11643385407E+03  0.00000000000E+00 0.  1.
          2    1    1    2  502    0  0.99233283738E+01 -0.39142828094E+02 -0.26933737711E+03  0.27234767513E+03  0.00000000000E+00 0.  1.
</event>
<event>
 4    1  0.6651744E+003  0.2053910E+02  0.7546771E-02  0.1525948E+00
          2   -1    0    0  501    0  0.00000000000E+00  0.00000000000E+00  0.68458800953E+03  0.68458800953E+03  0.00000000000E+00 0.  1.
          2   -1    0    0  502    0 -0.00000000000E+00 -0.00000000000E+00 -0.32971841256E+01  0.32971841256E+01  0.00000000000E+00 0. -1.
          2    1    1    2  501    0 -0.89051223773E+01  0.18508193783E+02  0.30503722819E+02  0.36774060797E+02  0.00000000000E+00 0. -1.
          2    1    1    2  502    0  0.89051223773E+01 -0.18508193783E+02  0.65078710258E+03  0.65111113286E+03  0.00000000000E+00 0.  1.
</event>
<event>
 4    1  0.6651744E+003  0.2511426E+02  0.7546771E-02  0.1467529E+00
          2   -1    0    0  502    0  0.00000000000E+00  0.00000000000E+00  0.16667104787E+02  0.16667104787E+02  0.00000000000E+00 0. -1.
          2   -1    0    0  501    0 -0.00000000000E+00 -0.00000000000E+00 -0.46294541755E+02  0.46294541755E+02  0.00000000000E+00 0.  1.
          2    1    1    2  501    0 -0.57483905273E+01 -0.24447541383E+02 -0.13625532877E+01  0.25151199272E+02  0.00000000000E+00 0. -1.
          2    1    1    2  502    0  0.57483905273E+01  0.24447541383E+02 -0.28264883680E+02  0.37810447270E+02  0.00000000000E+00 0.  1.
</event>
<event>
 4    1  0.6651744E+003  0.2555523E+02  0.7546771E-02  0.1462687E+00
          2   -1    0    0  502    0  0.00000000000E+00  0.00000000000E+00  0.16455679153E+01  0.16455679153E+01  0.00000000000E+00 0.  1.
          2   -1    0    0  501    0 -0.00000000000E+00 -0.00000000000E+00 -0.13890767931E+04  0.13890767931E+04  0.00000000000E+00 0. -1.
          2    1    1    2  501    0  0.70182310281E+01 -0.24572633325E+02 -0.10602426295E+03  0.10906059879E+03  0.00000000000E+00 0.  1.
          2    1    1    2  502    0 -0.70182310281E+01  0.24572633325E+02 -0.12814069623E+04  0.12816617622E+04  0.00000000000E+00 0. -1.
</event>
<event>
 4    1  0.6651744E+003  0.2702040E+02  0.7546771E-02  0.1447403E+00
          2   -1    0    0  502    0  0.00000000000E+00  0.00000000000E+00  0.32939164030E+03  0.32939164030E+03  0.00000000000E+00 0.  1.
          2   -1    0    0  501    0 -0.00000000000E+00 -0.00000000000E+00 -0.18391274687E+02  0.18391274687E+02  0.00000000000E+00 0.  1.
          2    1    1    2  501    0 -0.18560044985E+02 -0.19637382006E+02  0.31857662538E+03  0.31972045334E+03  0.00000000000E+00 0.  1.
          2    1    1    2  502    0  0.18560044985E+02  0.19637382006E+02 -0.75762597676E+01  0.28062461652E+02  0.00000000000E+00 0.  1.
</event>
<event>
 4    1  0.6651744E+003  0.2438328E+02  0.7546771E-02  0.1475822E+00
          2   -1    0    0  502    0  0.00000000000E+00  0.00000000000E+00  0.27140389057E+03  0.27140389057E+03  0.00000000000E+00 0. -1.
          2   -1    0    0  501    0 -0.00000000000E+00 -0.00000000000E+00 -0.52513566439E+03  0.52513566439E+03  0.00000000000E+00 0. -1.
          2    1    1    2  501    0 -0.16803096422E+02  0.17669195750E+02  0.27057232254E+03  0.27166878041E+03  0.00000000000E+00 0. -1.
          2    1    1    2  502    0  0.16803096422E+02 -0.17669195750E+02 -0.52430409635E+03  0.52487077455E+03  0.00000000000E+00 0. -1.
</event>
<event>
 4    1  0.6651744E+003  0.2868552E+02  0.7546771E-02  0.1431374E+00
          2   -1    0    0  501    0  0.00000000000E+00  0.00000000000E+00  0.56756607765E+03  0.56756607765E+03  0.00000000000E+00 0. -1.
          2   -1    0    0  502    0 -0.00000000000E+00 -0.00000000000E+00 -0.12951949217E+02  0.12951949217E+02  0.00000000000E+00 0.  1.
          2    1    1    2  501    0 -0.19548377053E+02  0.20993338292E+02  0.37754171765E+01  0.28932906403E+02  0.00000000000E+00 0.  1.
          2    1    1    2  502    0  0.19548377053E+02 -0.20993338292E+02  0.55083871125E+03  0.55158512046E+03  0.00000000000E+00 0. -1.
</event>
<event>
 4    1  0.6651744E+003  0.2009751E+02  0.7546771E-02  0.1532550E+00
          2   -1    0    0  501    0  0.00000000000E+00  0.00000000000E+00  0.97911659363E+01  0.97911659363E+01  0.00000000000E+00 0.  1.
          2   -1    0    0  502    0 -0.00000000000E+00 -0.00000000000E+00 -0.67567555885E+03  0.67567555885E+03  0.00000000000E+00 0. -1.
          2    1    1    2  501    0 -0.20063300555E+02 -0.11721923971E+01 -0.66504822328E+03  0.66535182374E+03  0.00000000000E+00 0. -1.
          2    1    1    2  502    0  0.20063300555E+02  0.11721923971E+01 -0.83616962530E+00  0.20114901040E+02  0.00000000000E+00 0.  1.
</event>
<event>
 4    1  0.6651744E+003  0.4003655E+02  0.7546771E-02  0.1348272E+00
          2   -1    0    0  502    0  0.00000000000E+00  0.00000000000E+00  0.29590628624E+03  0.29590628624E+03  0.00000000000E+00 0. -1.
          2   -1    0    0  501    0 -0.00000000000E+00 -0.00000000000E+00 -0.27279555147E+02  0.27279555147E+02  0.00000000000E+00 0.  1.
          2    1    1    2  501    0  0.20907347567E+02  0.34143933645E+02  0.27897524825E+03  0.28183348722E+03  0.00000000000E+00 0. -1.
          2    1    1    2  502    0 -0.20907347567E+02 -0.34143933645E+02 -0.10348517157E+02  0.41352354158E+02  0.00000000000E+00 0.  1.
</event>
<event>
 4    1  0.6651744E+003  0.3345673E+02  0.7546771E-02  0.1391750E+00
          2   -1    0    0  502    0  0.00000000000E+00  0.00000000000E+00  0.68965685318E+03  0.68965685318E+03  0.00000000000E+00 0. -1.
          2   -1    0    0  501    0 -0.00000000000E+00 -0.00000000000E+00 -0.10241476296E+03  0.10241476296E+03  0.00000000000E+00 0.  1.
          2    1    1    2  501    0 -0.18014365295E+02  0.28192831126E+02  0.68650615416E+03  0.68732092415E+03  0.00000000000E+00 0. -1.
          2    1    1    2  502    0  0.18014365295E+02 -0.28192831126E+02 -0.99264063929E+02  0.10475069199E+03  0.00000000000E+00 0.  1.
</event>
<event>
 4    1  0.6651744E+003  0.2274872E+02  0.7546771E-02  0.1495678E+00
          2   -1    0    0  502    0  0.00000000000E+00  0.00000000000E+00  0.11298776442E+04  0.11298776442E+04  0.00000000000E+00 0. -1.
          2   -1    0    0  501    0 -0.00000000000E+00 -0.00000000000E+00 -0.77061848240E+01  0.77061848240E+01  0.00000000000E+00 0.  1.
          2    1    1    2  501    0 -0.62564851008E+01  0.21871462268E+02  0.11127156187E+04  0.11129481356E+04  0.00000000000E+00 0. -1.
          2    1    1    2  502    0  0.62564851008E+01 -0.21871462268E+02  0.94558406981E+01  0.24635693432E+02  0.00000000000E+00 0.  1.
</event>
<event>
 4    1  0.6651744E+003  0.2439127E+02  0.7546771E-02  0.1475730E+00
          2   -1    0    0  501    0  0.00000000000E+00  0.00000000000E+00  0.84178257058E+02  0.84178257058E+02  0.00000000000E+00 0. -1.
          2   -1    0    0  502    0 -0.00000000000E+00 -0.00000000000E+00 -0.13194146123E+02  0.13194146123E+02  0.00000000000E+00 0. -1.
          2    1    1    2  501    0  0.22399660086E+02 -0.96534618876E+01  0.23159922586E+01  0.24500977910E+02  0.00000000000E+00 0. -1.
          2    1    1    2  502    0 -0.22399660086E+02  0.96534618876E+01  0.68668118677E+02  0.72871425271E+02  0.00000000000E+00 0. -1.
</event>
<event>
 4    1  0.6651744E+003  0.2812702E+02  0.7546771E-02  0.1436604E+00
          2   -1    0    0  501    0  0.00000000000E+00  0.00000000000E+00  0.74030542992E+02  0.74030542992E+02  0.00000000000E+00 0. -1.
          2   -1    0    0  502    0 -0.00000000000E+00 -0.00000000000E+00 -0.67206733220E+03  0.67206733220E+03  0.00000000000E+00 0. -1.
          2    1    1    2  501    0  0.19155144092E+02 -0.20596345173E+02 -0.66908952760E+03  0.66968046479E+03  0.00000000000E+00 0. -1.
          2    1    1    2  502    0 -0.19155144092E+02  0.20596345173E+02  0.71052738391E+02  0.76417410402E+02  0.00000000000E+00 0. -1.
</event>
<event>
 4    1  0.6651744E+003  0.4462226E+02  0.7546771E-02  0.1323339E+00
          2   -1    0    0  502    0  0.00000000000E+00  0.00000000000E+00  0.56625251922E+02  0.56625251922E+02  0.00000000000E+00 0. -1.
          2   -1    0    0  501    0 -0.00000000000E+00 -0.00000000000E+00 -0.37171142901E+02  0.37171142901E+02  0.00000000000E+00 0. -1.
          2    1    1    2  501    0  0.44611891582E+02 -0.96184278538E+00  0.20626109682E+02  0.49158747062E+02  0.00000000000E+00 0. -1.
          2    1    1    2  502    0 -0.44611891582E+02  0.96184278538E+00 -0.11720006611E+01  0.44637647761E+02  0.00000000000E+00 0. -1.
</event>
<event>
 4    1  0.6651744E+003  0.2230235E+02  0.7546771E-02  0.1501449E+00
          2   -1    0    0  502    0  0.00000000000E+00  0.00000000000E+00  0.43846274753E+03  0.43846274753E+03  0.00000000000E+00 0. -1.
          2   -1    0    0  501    0 -0.00000000000E+00 -0.00000000000E+00 -0.35792049283E+01  0.35792049283E+01  0.00000000000E+00 0.  1.
          2    1    1    2  501    0  0.95129253276E+01  0.20171736011E+02  0.40010948868E+03  0.40073057983E+03  0.00000000000E+00 0. -1.
          2    1    1    2  502    0 -0.95129253276E+01 -0.20171736011E+02  0.34774053921E+02  0.41311372624E+02  0.00000000000E+00 0.  1.
</event>
<event>
 4    1  0.6651744E+003  0.2427134E+02  0.7546771E-02  0.1477122E+00
          2   -1    0    0  501    0  0.00000000000E+00  0.00000000000E+00  0.98668818693E+01  0.98668818693E+01  0.00000000000E+00 0.  1.
          2   -1    0    0  502    0 -0.00000000000E+00 -0.00000000000E+00 -0.12432493430E+03  0.12432493430E+03  0.00000000000E+00 0.  1.
          2    1    1    2  501    0 -0.11149537586E+02  0.21558888572E+02 -0.10560187250E+03  0.10835521833E+03  0.00000000000E+00 0.  1.
          2    1    1    2  502    0  0.11149537586E+02 -0.21558888572E+02 -0.88561799353E+01  0.25836597839E+02  0.00000000000E+00 0.  1.
</event>
<event>
 4    1  0.6651744E+003  0.2832633E+02  0.7546771E-02  0.1434721E+00
          2   -1    0    0  501    0  0.00000000000E+00  0.00000000000E+00  0.33787900581E+02  0.33787900581E+02  0.00000000000E+00 0. -1.
          2   -1    0    0  502    0 -0.00000000000E+00 -0.00000000000E+00 -0.31110168612E+03  0.31110168612E+03  0.00000000000E+00 0.  1.
          2    1    1    2  501    0  0.26784753907E+02 -0.92172513422E+01 -0.30438936539E+03  0.30570454123E+03  0.00000000000E+00 0.  1.
          2    1    1    2  502    0 -0.26784753907E+02  0.92172513422E+01  0.27075579853E+02  0.39185045471E+02  0.00000000000E+00 0. -1.
</event>
<event>
 4    1  0.6651744E+003  0.2561295E+02  0.7546771E-02  0.1462062E+00
          2   -1    0    0  502    0  0.00000000000E+00  0.00000000000E+00  0.27473638095E+02  0.27473638095E+02  0.00000000000E+00 0. -1.
          2   -1    0    0  501    0 -0.00000000000E+00 -0.00000000000E+00 -0.14139231821E+04  0.14139231821E+04  0.00000000000E+00 0.  1.
          2    1    1    2  501    0  0.94828858938E+01 -0.23792811420E+02  0.21362164286E+02  0.33352137310E+02  0.00000000000E+00 0. -1.
          2    1    1    2  502    0 -0.94828858938E+01  0.23792811420E+02 -0.14078117083E+04  0.14080446829E+04  0.00000000000E+00 0.  1.
</event>
<event>
 4    1  0.6651744E+003  0.3149433E+02  0.7546771E-02  0.1407040E+00
          2   -1    0    0  502    0  0.00000000000E+00  0.00000000000E+00  0.19491811266E+04  0.19491811266E+04  0.00000000000E+00 0. -1.
          2   -1    0    0  501    0 -0.00000000000E+00 -0.00000000000E+00 -0.51341623200E+00  0.51341623200E+00  0.00000000000E+00 0. -1.
          2    1    1    2  501    0  0.31320262758E+02 -0.33066847384E+01  0.10659988048E+04  0.10664639445E+04  0.00000000000E+00 0. -1.
          2    1    1    2  502    0 -0.31320262758E+02  0.33066847384E+01  0.88266890557E+03  0.88323059836E+03  0.00000000000E+00 0. -1.
</event>
<event>
 4    1  0.6651744E+003  0.2374586E+02  0.7546771E-02  0.1483339E+00
          2   -1    0    0  501    0  0.00000000000E+00  0.00000000000E+00  0.26449058085E+02  0.26449058085E+02  0.00000000000E+00 0.  1.
          2   -1    0    0  502    0 -0.00000000000E+00 -0.00000000000E+00 -0.45688813833E+02  0.45688813833E+02  0.00000000000E+00 0.  1.
          2    1    1    2  501    0 -0.10465053996E+02  0.21315453950E+02 -0.35962258020E+02  0.43094662479E+02  0.00000000000E+00 0.  1.
          2    1    1    2  502    0  0.10465053996E+02 -0.21315453950E+02  0.16722502273E+02  0.29043209439E+02  0.00000000000E+00 0.  1.
</event>
<event>
 4    1  0.6651744E+003  0.2074741E+02  0.7546771E-02  0.1522902E+00
          2   -1    0    0  502    0  0.00000000000E+00  0.00000000000E+00  0.13433176993E+03  0.13433176993E+03  0.00000000000E+00 0. -1.
          2   -1    0    0  501    0 -0.00000000000E+00 -0.00000000000E+00 -0.48904567054E+01  0.48904567054E+01  0.00000000000E+00 0. -1.
          2    1    1    2  501    0  0.12386397474E+02 -0.16644289282E+02  0.10559375651E+03  0.10761271590E+03  0.00000000000E+00 0. -1.
          2    1    1    2  502    0 -0.12386397474E+02  0.16644289282E+02  0.23847556715E+02  0.31609510742E+02  0.00000000000E+00 0. -1.
</event>
<event>
 4    1  0.6651744E+003  0.2548042E+02  0.7546771E-02  0.1463500E+00
          2   -1    0    0  502    0  0.00000000000E+00  0.00000000000E+00  0.89950215544E+02  0.89950215544E+02  0.00000000000E+00 0. -1.
          2   -1    0    0  501    0 -0.00000000000E+00 -0.00000000000E+00 -0.42172288253E+02  0.42172288253E+02  0.00000000000E+00 0.  1.
          2    1    1    2  501    0 -0.25385850612E+02 -0.21932794139E+01  0.84031820504E+02  0.87810015050E+02  0.00000000000E+00 0. -1.
          2    1    1    2  502    0  0.25385850612E+02  0.21932794139E+01 -0.36253893213E+02  0.44312488747E+02  0.00000000000E+00 0.  1.
</event>
<event>
 4    1  0.6651744E+003  0.2346054E+02  0.7546771E-02  0.1486795E+00
          2   -1    0    0  502    0  0.00000000000E+00  0.00000000000E+00  0.16983955569E+03  0.16983955569E+03  0.00000000000E+00 0. -1.
          2   -1    0    0  501    0 -0.00000000000E+00 -0.00000000000E+00 -0.62728462323E+01  0.62728462323E+01  0.00000000000E+00 0. -1.
          2    1    1    2  501    0 -0.20410176687E+02  0.11568121205E+02  0.14300481269E+03  0.14491643521E+03  0.00000000000E+00 0. -1.
          2    1    1    2  502    0  0.20410176687E+02 -0.11568121205E+02  0.20561896768E+02  0.31195966715E+02  0.00000000000E+00 0. -1.
</event>
<event>
 4    1  0.6651744E+003  0.2667517E+02  0.7546771E-02  0.1450899E+00
          2   -1    0    0  501    0  0.00000000000E+00  0.00000000000E+00  0.15166258426E+02  0.15166258426E+02  0.00000000000E+00 0.  1.
          2   -1    0    0  502    0 -0.00000000000E+00 -0.00000000000E+00 -0.21029644358E+03  0.21029644358E+03  0.00000000000E+00 0.  1.
          2    1    1    2  501    0 -0.66563338049E+01  0.25831337104E+02 -0.19692853505E+03  0.19872698024E+03  0.00000000000E+00 0.  1.
          2    1    1    2  502    0  0.66563338049E+01 -0.25831337104E+02  0.17983498967E+01  0.26735721771E+02  0.00000000000E+00 0.  1.
</event>
<event>
 4    1  0.6651744E+003  0.2309047E+02  0.7546771E-02  0.1491365E+00
          2   -1    0    0  502    0  0.00000000000E+00  0.00000000000E+00  0.26927686579E+03  0.26927686579E+03  0.00000000000E+00 0.  1.
          2   -1    0    0  501    0 -0.00000000000E+00 -0.00000000000E+00 -0.56225708470E+03  0.56225708470E+03  0.00000000000E+00 0.  1.
          2    1    1    2  501    0  0.22975179615E+02  0.23045792948E+01  0.26854415171E+03  0.26953502811E+03  0.00000000000E+00 0.  1.
          2    1    1    2  502    0 -0.22975179615E+02 -0.23045792948E+01 -0.56152437061E+03  0.56199892238E+03  0.00000000000E+00 0.  1.
</event>
<event>
 4    1  0.6651744E+003  0.2004580E+02  0.7546771E-02  0.1533337E+00
          2   -1    0    0  501    0  0.00000000000E+00  0.00000000000E+00  0.11275457511E+01  0.11275457511E+01  0.00000000000E+00 0.  1.
          2   -1    0    0  502    0 -0.00000000000E+00 -0.00000000000E+00 -0.12713972291E+04  0.12713972291E+04  0.00000000000E+00 0. -1.
          2    1    1    2  501    0 -0.20014048120E+02  0.11278334339E+01 -0.11749068856E+04  0.11750778800E+04  0.00000000000E+00 0. -1.
          2    1    1    2  502    0  0.20014048120E+02 -0.11278334339E+01 -0.95362797775E+02  0.97446894922E+02  0.00000000000E+00 0.  1.
</event>
<event>
 4    1  0.6651744E+003  0.3365836E+02  0.7546771E-02  0.1390249E+00
          2   -1    0    0  502    0  0.00000000000E+00  0.00000000000E+00  0.57028309482E+01  0.57028309482E+01  0.00000000000E+00 0.  1.
          2   -1    0    0  501    0 -0.00000000000E+00 -0.00000000000E+00 -0.43664976878E+03  0.43664976878E+03  0.00000000000E+00 0.  1.
          2    1    1    2  501    0 -0.18844262303E+02 -0.27888683975E+02 -0.52184280247E+02  0.62097375311E+02  0.00000000000E+00 0.  1.
          2    1    1    2  502    0  0.18844262303E+02  0.27888683975E+02 -0.37876265758E+03  0.38025522441E+03  0.00000000000E+00 0.  1.
</event>
<event>
 4    1  0.6651744E+003  0.3177728E+02  0.7546771E-02  0.1404756E+00
          2   -1    0    0  502    0  0.00000000000E+00  0.00000000000E+00  0.13496148746E+04  0.13496148746E+04  0.00000000000E+00 0. -1.
          2   -1    0    0  501    0 -0.00000000000E+00 -0.00000000000E+00 -0.35063014431E+01  0.35063014431E+01  0.00000000000E+00 0.  1.
          2    1    1    2  501    0 -0.31763670082E+02 -0.92985024493E+00  0.12731028488E+04  0.12734993753E+04  0.00000000000E+00 0. -1.
          2    1    1    2  502    0  0.31763670082E+02  0.92985024493E+00  0.73005724324E+02  0.79621800674E+02  0.00000000000E+00 0.  1.
</event>
<event>
 4    1  0.6651744E+003  0.2064598E+02  0.7546771E-02  0.1524380E+00
          2   -1    0    0  502    0  0.00000000000E+00  0.00000000000E+00  0.18585339064E+01  0.18585339064E+01  0.00000000000E+00 0.  1.
          2   -1    0    0  501    0 -0.00000000000E+00 -0.00000000000E+00 -0.34374254889E+03  0.34374254889E+03  0.00000000000E+00 0. -1.
          2    1    1    2  501    0  0.88754969150E+01  0.18640864845E+02 -0.71257939723E+02  0.74188612747E+02  0.00000000000E+00 0.  1.
          2    1    1    2  502    0 -0.88754969150E+01 -0.18640864845E+02 -0.27062607526E+03  0.27141247005E+03  0.00000000000E+00 0. -1.
</event>
<event>
 4    1  0.6651744E+003  0.3236213E+02  0.7546771E-02  0.1400121E+00
          2   -1    0    0  501    0  0.00000000000E+00  0.00000000000E+00  0.19178567300E+03  0.19178567300E+03  0.00000000000E+00 0.  1.
          2   -1    0    0  502    0 -0.00000000000E+00 -0.00000000000E+00 -0.55595672123E+02  0.55595672123E+02  0.00000000000E+00 0. -1.
          2    1    1    2  501    0  0.20689152160E+02 -0.24885065692E+02 -0.49364004387E+02  0.59026370723E+02  0.00000000000E+00 0. -1.
          2    1    1    2  502    0 -0.20689152160E+02  0.24885065692E+02  0.18555400526E+03  0.18835497440E+03  0.00000000000E+00 0.  1.
</event>
<event>
 4    1  0.6651744E+003  0.2363862E+02  0.7546771E-02  0.1484631E+00
          2   -1    0    0  501    0  0.00000000000E+00  0.00000000000E+00  0.54237394635E+02  0.54237394635E+02  0.00000000000E+00 0.  1.
          2   -1    0    0  502    0 -0.00000000000E+00 -0.00000000000E+00 -0.97598617777E+02  0.97598617777E+02  0.00000000000E+00 0.  1.
          2    1    1    2  501    0 -0.98935003052E+00 -0.23617910724E+02 -0.93479918647E+02  0.96422402535E+02  0.00000000000E+00 0.  1.
          2    1    1    2  502    0  0.98935003052E+00  0.23617910724E+02  0.50118695505E+02  0.55413609876E+02  0.00000000000E+00 0.  1.
</event>
<event>
 4    1  0.6651744E+003  0.2719462E+02  0.7546771E-02  0.1445663E+00
          2   -1    0    0  501    0  0.00000000000E+00  0.00000000000E+00  0.21984521763E+03  0.21984521763E+03  0.00000000000E+00 0. -1.
          2   -1    0    0  502    0 -0.00000000000E+00 -0.00000000000E+00 -0.79861346581E+01  0.79861346581E+01  0.00000000000E+00 0. -1.
          2    1    1    2  501    0 -0.19936928351E+02 -0.18495040325E+02  0.19265493338E+02  0.33327269049E+02  0.00000000000E+00 0. -1.
          2    1    1    2  502    0  0.19936928351E+02  0.18495040325E+02  0.19259358963E+03  0.19450408324E+03  0.00000000000E+00 0. -1.
</event>
<event>
 4    1  0.6651744E+003  0.2395657E+02  0.7546771E-02  0.1480823E+00
          2   -1    0    0  502    0  0.00000000000E+00  0.00000000000E+00  0.41478499169E+03  0.41478499169E+03  0.00000000000E+00 0.  1.
          2   -1    0    0  501    0 -0.00000000000E+00 -0.00000000000E+00 -0.14987654749E+03  0.14987654749E+03  0.00000000000E+00 0.  1.
          2    1    1    2  501    0  0.22802125712E+02 -0.73471405693E+01  0.41347874039E+03  0.41417216971E+03  0.00000000000E+00 0.  1.
          2    1    1    2  502    0 -0.22802125712E+02  0.73471405693E+01 -0.14857029619E+03  0.15048936947E+03  0.00000000000E+00 0.  1.
</event>
<event>
 4    1  0.6651744E+003  0.2140647E+02  0.7546771E-02  0.1513540E+00
          2   -1    0    0  501    0  0.00000000000E+00  0.00000000000E+00  0.74261221130E+02  0.74261221130E+02  0.00000000000E+00 0.  1.
          2   -1    0    0  502    0 -0.00000000000E+00 -0.00000000000E+00 -0.13542481712E+04  0.13542481712E+04  0.00000000000E+00 0. -1.
          2    1    1    2  501    0 -0.20983517772E+02  0.42342810425E+01 -0.13526190679E+04  0.13527884461E+04  0.00000000000E+00 0. -1.
          2    1    1    2  502    0  0.20983517772E+02 -0.42342810425E+01  0.72632117823E+02  0.75720946201E+02  0.00000000000E+00 0.  1.
</event>
<event>
 4    1  0.6651744E+003  0.2502819E+02  0.7546771E-02  0.1468488E+00
          2   -1    0    0  502    0  0.00000000000E+00  0.00000000000E+00  0.11468484312E+03  0.11468484312E+03  0.00000000000E+00 0. -1.
          2   -1    0    0  501    0 -0.00000000000E+00 -0.00000000000E+00 -0.15673330892E+04  0.15673330892E+04  0.00000000000E+00 0.  1.
          2    1    1    2  501    0  0.21581751762E+02  0.12674316060E+02  0.11321814392E+03  0.11595153474E+03  0.00000000000E+00 0. -1.
          2    1    1    2  502    0 -0.21581751762E+02 -0.12674316060E+02 -0.15658663900E+04  0.15660663976E+04  0.00000000000E+00 0.  1.
</event>
<event>
 4    1  0.6651744E+003  0.2130342E+02  0.7546771E-02  0.1514977E+00
          2   -1    0    0  501    0  0.00000000000E+00  0.00000000000E+00  0.75310557722E+02  0.75310557722E+02  0.00000000000E+00 0.  1.
          2   -1    0    0  502    0 -0.00000000000E+00 -0.00000000000E+00 -0.14715267231E+03  0.14715267231E+03  0.00000000000E+00 0. -1.
          2    1    1    2  501    0 -0.20695341430E+02 -0.50535568016E+01 -0.14485128898E+03  0.14640946524E+03  0.00000000000E+00 0. -1.
          2    1    1    2  502    0  0.20695341430E+02  0.50535568016E+01  0.73009174393E+02  0.76053764790E+02  0.00000000000E+00 0.  1.
</event>
<event>
 4    1  0.1046034E+004  0.2559179E+02  0.7546771E-02  0.1462291E+00
          2   -1    0    0  502    0  0.00000000000E+00  0.00000000000E+00  0.54593912246E+03  0.54593912246E+03  0.00000000000E+00 0. -1.
          2   -1    0    0  501    0 -0.00000000000E+00 -0.00000000000E+00 -0.84666497622E+03  0.84666497622E+03  0.00000000000E+00 0.  1.
          2    1    1    2  501    0 -0.43639618502E+01 -0.25216972271E+02  0.54544564513E+03  0.54604568641E+03  0.00000000000E+00 0. -1.
          2    1    1    2  502    0  0.43639618502E+01  0.25216972271E+02 -0.84617149890E+03  0.84655841228E+03  0.00000000000E+00 0.  1.
</event>
<event>
 4    1  0.6651744E+003  0.2202493E+02  0.7546771E-02  0.1505119E+00
          2   -1    0    0  501    0  0.00000000000E+00  0.00000000000E+00  0.46325000672E+03  0.46325000672E+03  0.00000000000E+00 0. -1.
          2   -1    0    0  502    0 -0.00000000000E+00 -0.00000000000E+00 -0.38399945819E+01  0.38399945819E+01  0.00000000000E+00 0.  1.
          2    1    1    2  501    0 -0.16509147350E+02  0.14578937884E+02  0.30533231782E+02  0.37648049340E+02  0.00000000000E+00 0.  1.
          2    1    1    2  502    0  0.16509147350E+02 -0.14578937884E+02  0.42887678036E+03  0.42944195197E+03  0.00000000000E+00 0. -1.
</event>
<event>
 4    1  0.6651744E+003  0.2400268E+02  0.7546771E-02  0.1480277E+00
          2   -1    0    0  501    0  0.00000000000E+00  0.00000000000E+00  0.35220588916E+02  0.35220588916E+02  0.00000000000E+00 0.  1.
          2   -1    0    0  502    0 -0.00000000000E+00 -0.00000000000E+00 -0.25047456648E+03  0.25047456648E+03  0.00000000000E+00 0. -1.
          2    1    1    2  501    0 -0.20403604083E+02 -0.12642051110E+02 -0.24573135105E+03  0.24690084124E+03  0.00000000000E+00 0. -1.
          2    1    1    2  502    0  0.20403604083E+02  0.12642051110E+02  0.30477373489E+02  0.38794314153E+02  0.00000000000E+00 0.  1.
</event>
<event>
 4    1  0.6651744E+003  0.2266538E+02  0.7546771E-02  0.1496743E+00
          2   -1    0    0  502    0  0.00000000000E+00  0.00000000000E+00  0.13141902727E+01  0.13141902727E+01  0.00000000000E+00 0. -1.
          2   -1    0    0  501    0 -0.00000000000E+00 -0.00000000000E+00 -0.13074220580E+04  0.13074220580E+04  0.00000000000E+00 0. -1.
          2    1    1    2  501    0  0.22449749861E+00  0.22664267436E+02 -0.10517417915E+03  0.10758869540E+03  0.00000000000E+00 0. -1.
          2    1    1    2  502    0 -0.22449749861E+00 -0.22664267436E+02 -0.12009336886E+04  0.12011475529E+04  0.00000000000E+00 0. -1.
</event>
<event>
 4    1  0.6651744E+003  0.2531285E+02  0.7546771E-02  0.1465334E+00
          2   -1    0    0  502    0  0.00000000000E+00  0.00000000000E+00  0.96372048585E+01  0.96372048585E+01  0.00000000000E+00 0.  1.
          2   -1    0    0  501    0 -0.00000000000E+00 -0.00000000000E+00 -0.51430683868E+03  0.51430683868E+03  0.00000000000E+00 0.  1.
          2    1    1    2  501    0 -0.24335670654E+02 -0.69653216081E+01 -0.78815515778E+01  0.26511496121E+02  0.00000000000E+00 0.  1.
          2    1    1    2  502    0  0.24335670654E+02  0.69653216081E+01 -0.49678808224E+03  0.49743254742E+03  0.00000000000E+00 0.  1.
</event>
<event>
 4    1  0.6651744E+003  0.2351743E+02  0.7546771E-02  0.1486101E+00
          2   -1    0    0  501    0  0.00000000000E+00  0.00000000000E+00  0.91396402277E+03  0.91396402277E+03  0.00000000000E+00 0.  1.
          2   -1    0    0  502    0 -0.00000000000E+00 -0.00000000000E+00 -0.14123898566E+01  0.14123898566E+01  0.00000000000E+00 0. -1.
          2    1    1    2  501    0 -0.17073271250E+02 -0.16173210584E+02  0.11025802236E+03  0.11273819595E+03  0.00000000000E+00 0. -1.
          2    1    1    2  502    0  0.17073271250E+02  0.16173210584E+02  0.80229361055E+03  0.80263821667E+03  0.00000000000E+00 0.  1.
</event>
<event>
 4    1  0.6651744E+003  0.2426628E+02  0.7546771E-02  0.1477181E+00
          2   -1    0    0  501    0  0.00000000000E+00  0.00000000000E+00  0.61270123233E+01  0.61270123233E+01  0.00000000000E+00 0.  1.
          2   -1    0    0  502    0 -0.00000000000E+00 -0.00000000000E+00 -0.13536863456E+03  0.13536863456E+03  0.00000000000E+00 0.  1.
          2    1    1    2  501    0  0.18612135029E+02 -0.15570513944E+02 -0.10272168231E+03  0.10554902411E+03  0.00000000000E+00 0.  1.
          2    1    1    2  502    0 -0.18612135029E+02  0.15570513944E+02 -0.26519939926E+02  0.35946622769E+02  0.00000000000E+00 0.  1.
</event>
<event>
 4    1  0.6651744E+003  0.2798769E+02  0.7546771E-02  0.1437931E+00
          2   -1    0    0  501    0  0.00000000000E+00  0.00000000000E+00  0.11953480565E+03  0.11953480565E+03  0.00000000000E+00 0. -1.
          2   -1    0    0  502    0 -0.00000000000E+00 -0.00000000000E+00 -0.46009440397E+02  0.46009440397E+02  0.00000000000E+00 0.  1.
          2    1    1    2  501    0  0.12109263164E+02  0.25232446969E+02 -0.39888633076E+02  0.48727955868E+02  0.00000000000E+00 0.  1.
          2    1    1    2  502    0 -0.12109263164E+02 -0.25232446969E+02  0.11341399833E+03  0.11681629018E+03  0.00000000000E+00 0. -1.
</event>
<event>
 4    1  0.6651744E+003  0.5760957E+02  0.7546771E-02  0.1268178E+00
          2   -1    0    0  501    0  0.00000000000E+00  0.00000000000E+00  0.34146342836E+04  0.34146342836E+04  0.00000000000E+00 0.  1.
          2   -1    0    0  502    0 -0.00000000000E+00 -0.00000000000E+00 -0.10360313865E+01  0.10360313865E+01  0.00000000000E+00 0.  1.
          2    1    1    2  501    0  0.42548346659E+02 -0.38839424118E+02  0.21315327405E+04  0.21323111139E+04  0.00000000000E+00 0.  1.
          2    1    1    2  502    0 -0.42548346659E+02  0.38839424118E+02  0.12820655117E+04  0.12833592011E+04  0.00000000000E+00 0.  1.
</event>
<event>
 4    1  0.6651744E+003  0.2383706E+02  0.7546771E-02  0.1482246E+00
          2   -1    0    0  502    0  0.00000000000E+00  0.00000000000E+00  0.13740038391E+04  0.13740038391E+04  0.00000000000E+00 0. -1.
          2   -1    0    0  501    0 -0.00000000000E+00 -0.00000000000E+00 -0.29137591853E+01  0.29137591853E+01  0.00000000000E+00 0. -1.
          2    1    1    2  501    0 -0.11811425718E+02  0.20704963463E+02  0.13232799412E+04  0.13234946196E+04  0.00000000000E+00 0. -1.
          2    1    1    2  502    0  0.11811425718E+02 -0.20704963463E+02  0.47810138738E+02  0.53422978724E+02  0.00000000000E+00 0. -1.
</event>
<event>
 4    1  0.6651744E+003  0.3142087E+02  0.7546771E-02  0.1407638E+00
          2   -1    0    0  501    0  0.00000000000E+00  0.00000000000E+00  0.76916977801E+01  0.76916977801E+01  0.00000000000E+00 0.  1.
          2   -1    0    0  502    0 -0.00000000000E+00 -0.00000000000E+00 -0.20377504877E+03  0.20377504877E+03  0.00000000000E+00 0. -1.
          2    1    1    2  501    0  0.31305423679E+02  0.26909895357E+01 -0.16236653202E+03  0.16537884295E+03  0.00000000000E+00 0. -1.
          2    1    1    2  502    0 -0.31305423679E+02 -0.26909895357E+01 -0.33716818968E+02  0.46087903594E+02  0.00000000000E+00 0.  1.
</event>
<event>
 4    1  0.6651744E+003  0.2633497E+02  0.7546771E-02  0.1454405E+00
          2   -1    0    0  501    0  0.00000000000E+00  0.00000000000E+00  0.14646961965E+01  0.14646961965E+01  0.00000000000E+00 0. -1.
          2   -1    0    0  502    0 -0.00000000000E+00 -0.00000000000E+00 -0.82236040989E+03  0.82236040989E+03  0.00000000000E+00 0. -1.
          2    1    1    2  501    0 -0.17246754545E+02  0.19901767798E+02 -0.67873566667E+03  0.67924637365E+03  0.00000000000E+00 0. -1.
          2    1    1    2  502    0  0.17246754545E+02 -0.19901767798E+02 -0.14216004702E+03  0.14457873244E+03  0.00000000000E+00 0. -1.
</event>
<event>
 4    1  0.6651744E+003  0.2004607E+02  0.7546771E-02  0.1533333E+00
          2   -1    0    0  502    0  0.00000000000E+00  0.00000000000E+00  0.87261509552E+03  0.87261509552E+03  0.00000000000E+00 0. -1.
          2   -1    0    0  501    0 -0.00000000000E+00 -0.00000000000E+00 -0.34131189386E+02  0.34131189386E+02  0.00000000000E+00 0. -1.
          2    1    1    2  501    0 -0.16224167125E+02 -0.11773755483E+02  0.86954619721E+03  0.86977723240E+03  0.00000000000E+00 0. -1.
          2    1    1    2  502    0  0.16224167125E+02  0.11773755483E+02 -0.31062291071E+02  0.36969052512E+02  0.00000000000E+00 0. -1.
</event>
<event>
 4    1  0.6651744E+003  0.2488971E+02  0.7546771E-02  0.1470041E+00
          2   -1    0    0  501    0  0.00000000000E+00  0.00000000000E+00  0.12685610942E+01  0.12685610942E+01  0.00000000000E+00 0.  1.
          2   -1    0    0  502    0 -0.00000000000E+00 -0.00000000000E+00 -0.16026344010E+04  0.16026344010E+04  0.00000000000E+00 0.  1.
          2    1    1    2  501    0  0.75725307892E+01 -0.23709795532E+02 -0.14693801612E+04  0.14695909485E+04  0.00000000000E+00 0.  1.
          2    1    1    2  502    0 -0.75725307892E+01  0.23709795532E+02 -0.13198567870E+03  0.13431201364E+03  0.00000000000E+00 0.  1.
</event>
<event>
 4    1  0.6651744E+003  0.5339281E+02  0.7546771E-02  0.1284097E+00
          2   -1    0    0  501    0  0.00000000000E+00  0.00000000000E+00  0.89758419124E+02  0.89758419124E+02  0.00000000000E+00 0. -1.
          2   -1    0    0  502    0 -0.00000000000E+00 -0.00000000000E+00 -0.11155318582E+03  0.11155318582E+03  0.00000000000E+00 0. -1.
          2    1    1    2  501    0 -0.44455117092E+02 -0.29572533717E+02 -0.96026625024E+02  0.10987222078E+03  0.00000000000E+00 0. -1.
          2    1    1    2  502    0  0.44455117092E+02  0.29572533717E+02  0.74231858325E+02  0.91439384165E+02  0.00000000000E+00 0. -1.
</event>
<event>
 4    1  0.6651744E+003  0.3050631E+02  0.7546771E-02  0.1415247E+00
          2   -1    0    0  501    0  0.00000000000E+00  0.00000000000E+00  0.16418198663E+03  0.16418198663E+03  0.00000000000E+00 0.  1.
          2   -1    0    0  502    0 -0.00000000000E+00 -0.00000000000E+00 -0.10044549591E+03  0.10044549591E+03  0.00000000000E+00 0. -1.
          2    1    1    2  501    0 -0.30492825946E+02 -0.90686701484E+00 -0.96657939007E+02  0.10135774275E+03  0.00000000000E+00 0. -1.
          2    1    1    2  502    0  0.30492825946E+02  0.90686701484E+00  0.16039442974E+03  0.16326973979E+03  0.00000000000E+00 0.  1.
</event>
<event>
 4    1  0.7915302E+003  0.2155035E+02  0.7546771E-02  0.1511550E+00
          2   -1    0    0  502    0  0.00000000000E+00  0.00000000000E+00  0.87342614052E+03  0.87342614052E+03  0.00000000000E+00 0. -1.
          2   -1    0    0  501    0 -0.00000000000E+00 -0.00000000000E+00 -0.42323858895E+03  0.42323858895E+03  0.00000000000E+00 0. -1.
          2    1    1    2  501    0  0.67505078919E+01  0.20465784098E+02  0.87301875886E+03  0.87328470214E+03  0.00000000000E+00 0. -1.
          2    1    1    2  502    0 -0.67505078919E+01 -0.20465784098E+02 -0.42283120730E+03  0.42338002733E+03  0.00000000000E+00 0. -1.
</event>
<event>
 4    1  0.6651744E+003  0.2450081E+02  0.7546771E-02  0.1474466E+00
          2   -1    0    0  502    0  0.00000000000E+00  0.00000000000E+00  0.29118248808E+03  0.29118248808E+03  0.00000000000E+00 0.  1.
          2   -1    0    0  501    0 -0.00000000000E+00 -0.00000000000E+00 -0.62411364631E+01  0.62411364631E+01  0.00000000000E+00 0.  1.
          2    1    1    2  501    0 -0.14885083584E+01  0.24455552499E+02  0.26416766876E+03  0.26530142654E+03  0.00000000000E+00 0.  1.
          2    1    1    2  502    0  0.14885083584E+01 -0.24455552499E+02  0.20773682855E+02  0.32122198003E+02  0.00000000000E+00 0.  1.
</event>
<event>
 4    1  0.6651744E+003  0.2070415E+02  0.7546771E-02  0.1523531E+00
          2   -1    0    0  502    0  0.00000000000E+00  0.00000000000E+00  0.29955603783E+02  0.29955603783E+02  0.00000000000E+00 0.  1.
          2   -1    0    0  501    0 -0.00000000000E+00 -0.00000000000E+00 -0.52428235365E+02  0.52428235365E+02  0.00000000000E+00 0.  1.
          2    1    1    2  501    0 -0.13313011986E+00 -0.20703726169E+02  0.23887065291E+02  0.31610977351E+02  0.00000000000E+00 0.  1.
          2    1    1    2  502    0  0.13313011986E+00  0.20703726169E+02 -0.46359696873E+02  0.50772861797E+02  0.00000000000E+00 0.  1.
</event>
<event>
 4    1  0.6651744E+003  0.3427753E+02  0.7546771E-02  0.1385715E+00
          2   -1    0    0  501    0  0.00000000000E+00  0.00000000000E+00  0.16779420170E+01  0.16779420170E+01  0.00000000000E+00 0. -1.
          2   -1    0    0  502    0 -0.00000000000E+00 -0.00000000000E+00 -0.13586124565E+04  0.13586124565E+04  0.00000000000E+00 0. -1.
          2    1    1    2  501    0  0.27604900197E+02  0.20320390919E+02 -0.11519370595E+04  0.11524469350E+04  0.00000000000E+00 0. -1.
          2    1    1    2  502    0 -0.27604900197E+02 -0.20320390919E+02 -0.20499745491E+03  0.20784346350E+03  0.00000000000E+00 0. -1.
</event>
<event>
 4    1  0.6651744E+003  0.2103013E+02  0.7546771E-02  0.1518835E+00
          2   -1    0    0  502    0  0.00000000000E+00  0.00000000000E+00  0.69276785567E+03  0.69276785567E+03  0.00000000000E+00 0. -1.
          2   -1    0    0  501    0 -0.00000000000E+00 -0.00000000000E+00 -0.92833770109E+01  0.92833770109E+01  0.00000000000E+00 0. -1.
          2    1    1    2  501    0  0.20409509502E+02  0.50713343856E+01  0.68048311864E+03  0.68080800617E+03  0.00000000000E+00 0. -1.
          2    1    1    2  502    0 -0.20409509502E+02 -0.50713343856E+01  0.30013600173E+01  0.21243226509E+02  0.00000000000E+00 0. -1.
</event>
<event>
 4    1  0.6651744E+003  0.2589801E+02  0.7546771E-02  0.1459003E+00
          2   -1    0    0  502    0  0.00000000000E+00  0.00000000000E+00  0.40028044508E+03  0.40028044508E+03  0.00000000000E+00 0. -1.
          2   -1    0    0  501    0 -0.00000000000E+00 -0.00000000000E+00 -0.15568457900E+02  0.15568457900E+02  0.00000000000E+00 0.  1.
          2    1    1    2  501    0  0.25891238230E+02 -0.59212451986E+00  0.38877281719E+03  0.38963445717E+03  0.00000000000E+00 0. -1.
          2    1    1    2  502    0 -0.25891238230E+02  0.59212451986E+00 -0.40608300128E+01  0.26214445806E+02  0.00000000000E+00 0.  1.
</event>
<event>
 4    1  0.6651744E+003  0.2715872E+02  0.7546771E-02  0.1446020E+00
          2   -1    0    0  501    0  0.00000000000E+00  0.00000000000E+00  0.18566431209E+02  0.18566431209E+02  0.00000000000E+00 0.  1.
          2   -1    0    0  502    0 -0.00000000000E+00 -0.00000000000E+00 -0.16460316009E+03  0.16460316009E+03  0.00000000000E+00 0. -1.
          2    1    1    2  501    0 -0.23694347765E+02  0.13273046387E+02 -0.15278906094E+03  0.15518406174E+03  0.00000000000E+00 0. -1.
          2    1    1    2  502    0  0.23694347765E+02 -0.13273046387E+02  0.67523320571E+01  0.27985529557E+02  0.00000000000E+00 0.  1.
</event>
<event>
 4    1  0.6651744E+003  0.2424037E+02  0.7546771E-02  0.1477484E+00
          2   -1    0    0  502    0  0.00000000000E+00  0.00000000000E+00  0.37693755057E+02  0.37693755057E+02  0.00000000000E+00 0.  1.
          2   -1    0    0  501    0 -0.00000000000E+00 -0.00000000000E+00 -0.66618335653E+02  0.66618335653E+02  0.00000000000E+00 0. -1.
          2    1    1    2  501    0  0.70942200077E+01 -0.23179038017E+02  0.31185430510E+02  0.39498440944E+02  0.00000000000E+00 0.  1.
          2    1    1    2  502    0 -0.70942200077E+01  0.23179038017E+02 -0.60110011106E+02  0.64813649766E+02  0.00000000000E+00 0. -1.
</event>
<event>
 4    1  0.6651744E+003  0.2179654E+02  0.7546771E-02  0.1508189E+00
          2   -1    0    0  501    0  0.00000000000E+00  0.00000000000E+00  0.10956074532E+03  0.10956074532E+03  0.00000000000E+00 0.  1.
          2   -1    0    0  502    0 -0.00000000000E+00 -0.00000000000E+00 -0.57560225820E+03  0.57560225820E+03  0.00000000000E+00 0. -1.
          2    1    1    2  501    0  0.11680954564E+02  0.18402298589E+02 -0.57430939685E+03  0.57472286592E+03  0.00000000000E+00 0. -1.
          2    1    1    2  502    0 -0.11680954564E+02 -0.18402298589E+02  0.10826788397E+03  0.11044013760E+03  0.00000000000E+00 0.  1.
</event>
<event>
 4    1  0.6651744E+003  0.3053515E+02  0.7546771E-02  0.1415002E+00
          2   -1    0    0  502    0  0.00000000000E+00  0.00000000000E+00  0.62462370764E+03  0.62462370764E+03  0.00000000000E+00 0. -1.
          2   -1    0    0  501    0 -0.00000000000E+00 -0.00000000000E+00 -0.16606712990E+02  0.16606712990E+02  0.00000000000E+00 0. -1.
          2    1    1    2  501    0 -0.30040155411E+02 -0.54758017504E+01  0.60987486680E+03  0.61063880363E+03  0.00000000000E+00 0. -1.
          2    1    1    2  502    0  0.30040155411E+02  0.54758017504E+01 -0.18578721497E+01  0.30591617003E+02  0.00000000000E+00 0. -1.
</event>
<event>
 4    1  0.6651744E+003  0.3129949E+02  0.7546771E-02  0.1408630E+00
          2   -1    0    0  501    0  0.00000000000E+00  0.00000000000E+00  0.78772626955E+03  0.78772626955E+03  0.00000000000E+00 0.  1.
          2   -1    0    0  502    0 -0.00000000000E+00 -0.00000000000E+00 -0.79314345033E+02  0.79314345033E+02  0.00000000000E+00 0.  1.
          2    1    1    2  501    0 -0.25985881726E+02  0.17446828825E+02 -0.75902106716E+02  0.82102300144E+02  0.00000000000E+00 0.  1.
          2    1    1    2  502    0  0.25985881726E+02 -0.17446828825E+02  0.78431403123E+03  0.78493831444E+03  0.00000000000E+00 0.  1.
</event>
<event>
 4    1  0.6651744E+003  0.2234137E+02  0.7546771E-02  0.1500938E+00
          2   -1    0    0  501    0  0.00000000000E+00  0.00000000000E+00  0.30478814966E+00  0.30478814966E+00  0.00000000000E+00 0. -1.
          2   -1    0    0  502    0 -0.00000000000E+00 -0.00000000000E+00 -0.16400476819E+04  0.16400476819E+04  0.00000000000E+00 0. -1.
          2    1    1    2  501    0  0.15262446640E+02 -0.16315470327E+02 -0.78852304862E+03  0.78883948624E+03  0.00000000000E+00 0. -1.
          2    1    1    2  502    0 -0.15262446640E+02  0.16315470327E+02 -0.85121984514E+03  0.85151298382E+03  0.00000000000E+00 0. -1.
</event>
<event>
 4    1  0.6651744E+003  0.4659409E+02  0.7546771E-02  0.1313655E+00
          2   -1    0    0  502    0  0.00000000000E+00  0.00000000000E+00  0.46016726169E+02  0.46016726169E+02  0.00000000000E+00 0.  1.
          2   -1    0    0  501    0 -0.00000000000E+00 -0.00000000000E+00 -0.13619313158E+03  0.13619313158E+03  0.00000000000E+00 0. -1.
          2    1    1    2  501    0 -0.15684118220E+02 -0.43875022401E+02  0.28565484064E+02  0.54653417413E+02  0.00000000000E+00 0.  1.
          2    1    1    2  502    0  0.15684118220E+02  0.43875022401E+02 -0.11874188948E+03  0.12755644034E+03  0.00000000000E+00 0. -1.
</event>
<event>
 4    1  0.6651744E+003  0.3081986E+02  0.7546771E-02  0.1412603E+00
          2   -1    0    0  501    0  0.00000000000E+00  0.00000000000E+00  0.32975410338E+01  0.32975410338E+01  0.00000000000E+00 0. -1.
          2   -1    0    0  502    0 -0.00000000000E+00 -0.00000000000E+00 -0.80732355847E+03  0.80732355847E+03  0.00000000000E+00 0.  1.
          2    1    1    2  501    0  0.38141461437E+01 -0.30582933052E+02 -0.72707136575E+03  0.72772428460E+03  0.00000000000E+00 0.  1.
          2    1    1    2  502    0 -0.38141461437E+01  0.30582933052E+02 -0.76954651691E+02  0.82896814907E+02  0.00000000000E+00 0. -1.
</event>
<event>
 4    1  0.9353969E+003  0.3575547E+02  0.7546771E-02  0.1375328E+00
          2   -1    0    0  501    0  0.00000000000E+00  0.00000000000E+00  0.86066023933E+03  0.86066023933E+03  0.00000000000E+00 0. -1.
          2   -1    0    0  502    0 -0.00000000000E+00 -0.00000000000E+00 -0.85618169059E+03  0.85618169059E+03  0.00000000000E+00 0. -1.
          2    1    1    2  501    0 -0.34918330251E+02 -0.76917916216E+01 -0.85543670812E+03  0.85618363395E+03  0.00000000000E+00 0. -1.
          2    1    1    2  502    0  0.34918330251E+02  0.76917916216E+01  0.85991525686E+03  0.86065829597E+03  0.00000000000E+00 0. -1.
</event>
<event>
 4    1  0.6651744E+003  0.2676107E+02  0.7546771E-02  0.1450023E+00
          2   -1    0    0  502    0  0.00000000000E+00  0.00000000000E+00  0.28799367098E+02  0.28799367098E+02  0.00000000000E+00 0.  1.
          2   -1    0    0  501    0 -0.00000000000E+00 -0.00000000000E+00 -0.42148431937E+03  0.42148431937E+03  0.00000000000E+00 0. -1.
          2    1    1    2  501    0  0.20666569243E+02  0.17001408022E+02  0.22056864521E+02  0.34679392029E+02  0.00000000000E+00 0.  1.
          2    1    1    2  502    0 -0.20666569243E+02 -0.17001408022E+02 -0.41474181679E+03  0.41560429444E+03  0.00000000000E+00 0. -1.
</event>
<event>
 4    1  0.6651744E+003  0.2847776E+02  0.7546771E-02  0.1433303E+00
          2   -1    0    0  501    0  0.00000000000E+00  0.00000000000E+00  0.28434918092E+03  0.28434918092E+03  0.00000000000E+00 0.  1.
          2   -1    0    0  502    0 -0.00000000000E+00 -0.00000000000E+00 -0.90021928007E+01  0.90021928007E+01  0.00000000000E+00 0.  1.
          2    1    1    2  501    0  0.27769085370E+02  0.63135510001E+01  0.16439067874E+02  0.32882000868E+02  0.00000000000E+00 0.  1.
          2    1    1    2  502    0 -0.27769085370E+02 -0.63135510001E+01  0.25890792025E+03  0.26046937286E+03  0.00000000000E+00 0.  1.
</event>
<event>
 4    1  0.6651744E+003  0.3382763E+02  0.7546771E-02  0.1388998E+00
          2   -1    0    0  502    0  0.00000000000E+00  0.00000000000E+00  0.45235040782E+03  0.45235040782E+03  0.00000000000E+00 0.  1.
          2   -1    0    0  501    0 -0.00000000000E+00 -0.00000000000E+00 -0.76354844832E+02  0.76354844832E+02  0.00000000000E+00 0.  1.
          2    1    1    2  501    0 -0.33823375019E+02 -0.53656399834E+00  0.44793441997E+03  0.44920992107E+03  0.00000000000E+00 0.  1.
          2    1    1    2  502    0  0.33823375019E+02  0.53656399834E+00 -0.71938856982E+02  0.79495331577E+02  0.00000000000E+00 0.  1.
</event>
<event>
 4    1  0.6651744E+003  0.2751083E+02  0.7546771E-02  0.1442543E+00
          2   -1    0    0  502    0  0.00000000000E+00  0.00000000000E+00  0.94099058547E+03  0.94099058547E+03  0.00000000000E+00 0. -1.
          2   -1    0    0  501    0 -0.00000000000E+00 -0.00000000000E+00 -0.16092417970E+01  0.16092417970E+01  0.00000000000E+00 0.  1.
          2    1    1    2  501    0  0.51560699195E+01 -0.27023333821E+02  0.80301496705E+03  0.80348608136E+03  0.00000000000E+00 0. -1.
          2    1    1    2  502    0 -0.51560699195E+01  0.27023333821E+02  0.13636637662E+03  0.13911374591E+03  0.00000000000E+00 0.  1.
</event>
<event>
 4    1  0.6651744E+003  0.2986737E+02  0.7546771E-02  0.1420753E+00
          2   -1    0    0  502    0  0.00000000000E+00  0.00000000000E+00  0.20057983229E+02  0.20057983229E+02  0.00000000000E+00 0. -1.
          2   -1    0    0  501    0 -0.00000000000E+00 -0.00000000000E+00 -0.95667662314E+03  0.95667662314E+03  0.00000000000E+00 0.  1.
          2    1    1    2  501    0 -0.91338884355E+01 -0.28436449614E+02  0.85712711724E+01  0.31072918661E+02  0.00000000000E+00 0. -1.
          2    1    1    2  502    0  0.91338884355E+01  0.28436449614E+02 -0.94518991108E+03  0.94566168771E+03  0.00000000000E+00 0.  1.
</event>
<event>
 4    1  0.6651744E+003  0.2175242E+02  0.7546771E-02  0.1508788E+00
          2   -1    0    0  502    0  0.00000000000E+00  0.00000000000E+00  0.61941761106E+03  0.61941761106E+03  0.00000000000E+00 0.  1.
          2   -1    0    0  501    0 -0.00000000000E+00 -0.00000000000E+00 -0.12428751351E+01  0.12428751351E+01  0.00000000000E+00 0.  1.
          2    1    1    2  501    0 -0.28328523964E+01 -0.21567162969E+02  0.50173820141E+03  0.50220950840E+03  0.00000000000E+00 0.  1.
          2    1    1    2  502    0  0.28328523964E+01  0.21567162969E+02  0.11643653452E+03  0.11845097780E+03  0.00000000000E+00 0.  1.
</event>
<event>
 4    1  0.6651744E+003  0.2589631E+02  0.7546771E-02  0.1459021E+00
          2   -1    0    0  502    0  0.00000000000E+00  0.00000000000E+00  0.15353391000E+03  0.15353391000E+03  0.00000000000E+00 0. -1.
          2   -1    0    0  501    0 -0.00000000000E+00 -0.00000000000E+00 -0.11831331538E+03  0.11831331538E+03  0.00000000000E+00 0.  1.
          2    1    1    2  501    0  0.57863291844E+01  0.25241575294E+02  0.15100130400E+03  0.15320578493E+03  0.00000000000E+00 0. -1.
          2    1    1    2  502    0 -0.57863291844E+01 -0.25241575294E+02 -0.11578070937E+03  0.11864144045E+03  0.00000000000E+00 0.  1.
</event>
<event>
 4    1  0.6651744E+003  0.2775699E+02  0.7546771E-02  0.1440149E+00
          2   -1    0    0  502    0  0.00000000000E+00  0.00000000000E+00  0.24907019295E+04  0.24907019295E+04  0.00000000000E+00 0. -1.
          2   -1    0    0  501    0 -0.00000000000E+00 -0.00000000000E+00 -0.31976035259E+00  0.31976035259E+00  0.00000000000E+00 0. -1.
          2    1    1    2  501    0  0.24349753578E+02  0.13324407955E+02  0.10202483319E+04  0.10206258418E+04  0.00000000000E+00 0. -1.
          2    1    1    2  502    0 -0.24349753578E+02 -0.13324407955E+02  0.14701338373E+04  0.14703958480E+04  0.00000000000E+00 0. -1.
</event>
<event>
 4    1  0.6651744E+003  0.2058688E+02  0.7546771E-02  0.1525246E+00
          2   -1    0    0  501    0  0.00000000000E+00  0.00000000000E+00  0.28652481081E+02  0.28652481081E+02  0.00000000000E+00 0.  1.
          2   -1    0    0  502    0 -0.00000000000E+00 -0.00000000000E+00 -0.14756929659E+04  0.14756929659E+04  0.00000000000E+00 0.  1.
          2    1    1    2  501    0 -0.20539715547E+02 -0.13926926831E+01 -0.14719137414E+04  0.14720577032E+04  0.00000000000E+00 0.  1.
          2    1    1    2  502    0  0.20539715547E+02  0.13926926831E+01  0.24873256546E+02  0.32287743788E+02  0.00000000000E+00 0.  1.
</event>
<event>
 4    1  0.6651744E+003  0.2083693E+02  0.7546771E-02  0.1521606E+00
          2   -1    0    0  501    0  0.00000000000E+00  0.00000000000E+00  0.68496323231E+02  0.68496323231E+02  0.00000000000E+00 0. -1.
          2   -1    0    0  502    0 -0.00000000000E+00 -0.00000000000E+00 -0.86557027191E+02  0.86557027191E+02  0.00000000000E+00 0. -1.
          2    1    1    2  501    0  0.17472272440E+02  0.11353289948E+02 -0.83664365991E+02  0.86220088341E+02  0.00000000000E+00 0. -1.
          2    1    1    2  502    0 -0.17472272440E+02 -0.11353289948E+02  0.65603662031E+02  0.68833262081E+02  0.00000000000E+00 0. -1.
</event>
<event>
 4    1  0.6651744E+003  0.2285749E+02  0.7546771E-02  0.1494295E+00
          2   -1    0    0  502    0  0.00000000000E+00  0.00000000000E+00  0.51354293038E+01  0.51354293038E+01  0.00000000000E+00 0.  1.
          2   -1    0    0  501    0 -0.00000000000E+00 -0.00000000000E+00 -0.14211633653E+03  0.14211633653E+03  0.00000000000E+00 0. -1.
          2    1    1    2  501    0 -0.22264371865E+02 -0.51732777011E+01 -0.29245291374E+02  0.37118083521E+02  0.00000000000E+00 0.  1.
          2    1    1    2  502    0  0.22264371865E+02  0.51732777011E+01 -0.10773561585E+03  0.11013368231E+03  0.00000000000E+00 0. -1.
</event>
<event>
 4    1  0.6651744E+003  0.4119997E+02  0.7546771E-02  0.1341594E+00
          2   -1    0    0  502    0  0.00000000000E+00  0.00000000000E+00  0.24209820366E+04  0.24209820366E+04  0.00000000000E+00 0.  1.
          2   -1    0    0  501    0 -0.00000000000E+00 -0.00000000000E+00 -0.45126708782E+01  0.45126708782E+01  0.00000000000E+00 0.  1.
          2    1    1    2  501    0  0.50348407057E+01 -0.40891173277E+02  0.23227946868E+04  0.23231600450E+04  0.00000000000E+00 0.  1.
          2    1    1    2  502    0 -0.50348407057E+01  0.40891173277E+02  0.93674678928E+02  0.10233466248E+03  0.00000000000E+00 0.  1.
</event>
<event>
 4    1  0.6651744E+003  0.2231339E+02  0.7546771E-02  0.1501305E+00
          2   -1    0    0  501    0  0.00000000000E+00  0.00000000000E+00  0.14799388066E+02  0.14799388066E+02  0.00000000000E+00 0. -1.
          2   -1    0    0  502    0 -0.00000000000E+00 -0.00000000000E+00 -0.35102944678E+02  0.35102944678E+02  0.00000000000E+00 0. -1.
          2    1    1    2  501    0  0.21817718465E+02 -0.46770437759E+01 -0.15241218629E+02  0.27021885996E+02  0.00000000000E+00 0. -1.
          2    1    1    2  502    0 -0.21817718465E+02  0.46770437759E+01 -0.50623379833E+01  0.22880446748E+02  0.00000000000E+00 0. -1.
</event>
<event>
 4    1  0.6651744E+003  0.2884493E+02  0.7546771E-02  0.1429907E+00
          2   -1    0    0  501    0  0.00000000000E+00  0.00000000000E+00  0.41636458594E+03  0.41636458594E+03  0.00000000000E+00 0.  1.
          2   -1    0    0  502    0 -0.00000000000E+00 -0.00000000000E+00 -0.21711811830E+01  0.21711811830E+01  0.00000000000E+00 0. -1.
          2    1    1    2  501    0 -0.27596065109E+01 -0.28712616069E+02  0.14804898993E+03  0.15083279872E+03  0.00000000000E+00 0. -1.
          2    1    1    2  502    0  0.27596065109E+01  0.28712616069E+02  0.26614441482E+03  0.26770296840E+03  0.00000000000E+00 0.  1.
</event>
<event>
 4    1  0.6651744E+003  0.2894906E+02  0.7546771E-02  0.1428954E+00
          2   -1    0    0  501    0  0.00000000000E+00  0.00000000000E+00  0.81854315502E+03  0.81854315502E+03  0.00000000000E+00 0.  1.
          2   -1    0    0  502    0 -0.00000000000E+00 -0.00000000000E+00 -0.57015804106E+01  0.57015804106E+01  0.00000000000E+00 0.  1.
          2    1    1    2  501    0  0.27952800200E+02 -0.75291978637E+01  0.33130105498E+02  0.43996042434E+02  0.00000000000E+00 0.  1.
          2    1    1    2  502    0 -0.27952800200E+02  0.75291978637E+01  0.77971146911E+03  0.78024869300E+03  0.00000000000E+00 0.  1.
</event>
<event>
 4    1  0.6651744E+003  0.2114415E+02  0.7546771E-02  0.1517217E+00
          2   -1    0    0  502    0  0.00000000000E+00  0.00000000000E+00  0.29216500806E+01  0.29216500806E+01  0.00000000000E+00 0.  1.
          2   -1    0    0  501    0 -0.00000000000E+00 -0.00000000000E+00 -0.37323581527E+03  0.37323581527E+03  0.00000000000E+00 0.  1.
          2    1    1    2  501    0 -0.20916208057E+02  0.30963090763E+01 -0.40689322677E+02  0.45855161861E+02  0.00000000000E+00 0.  1.
          2    1    1    2  502    0  0.20916208057E+02 -0.30963090763E+01 -0.32962484252E+03  0.33030230349E+03  0.00000000000E+00 0.  1.
</event>
<event>
 4    1  0.6651744E+003  0.2184051E+02  0.7546771E-02  0.1507595E+00
          2   -1    0    0  502    0  0.00000000000E+00  0.00000000000E+00  0.60959339332E+01  0.60959339332E+01  0.00000000000E+00 0. -1.
          2   -1    0    0  501    0 -0.00000000000E+00 -0.00000000000E+00 -0.20078616516E+03  0.20078616516E+03  0.00000000000E+00 0.  1.
          2    1    1    2  501    0  0.26894960199E+01  0.21674282012E+02 -0.16536463980E+02  0.27394571188E+02  0.00000000000E+00 0. -1.
          2    1    1    2  502    0 -0.26894960199E+01 -0.21674282012E+02 -0.17815376725E+03  0.17948752791E+03  0.00000000000E+00 0.  1.
</event>
<event>
 4    1  0.6651744E+003  0.2675479E+02  0.7546771E-02  0.1450087E+00
          2   -1    0    0  502    0  0.00000000000E+00  0.00000000000E+00  0.40287949525E+01  0.40287949525E+01  0.00000000000E+00 0.  1.
          2   -1    0    0  501    0 -0.00000000000E+00 -0.00000000000E+00 -0.74958285619E+03  0.74958285619E+03  0.00000000000E+00 0.  1.
          2    1    1    2  501    0 -0.18938887838E+02  0.18898083437E+02 -0.43644699995E+02  0.51192566528E+02  0.00000000000E+00 0.  1.
          2    1    1    2  502    0  0.18938887838E+02 -0.18898083437E+02 -0.70190936124E+03  0.70241908462E+03  0.00000000000E+00 0.  1.
</event>
<event>
 4    1  0.6651744E+003  0.3547340E+02  0.7546771E-02  0.1377265E+00
          2   -1    0    0  502    0  0.00000000000E+00  0.00000000000E+00  0.80080590331E+02  0.80080590331E+02  0.00000000000E+00 0.  1.
          2   -1    0    0  501    0 -0.00000000000E+00 -0.00000000000E+00 -0.26554799908E+03  0.26554799908E+03  0.00000000000E+00 0. -1.
          2    1    1    2  501    0 -0.34911229185E+02 -0.62903119988E+01  0.74889516670E+02  0.82866167133E+02  0.00000000000E+00 0.  1.
          2    1    1    2  502    0  0.34911229185E+02  0.62903119988E+01 -0.26035692542E+03  0.26276242228E+03  0.00000000000E+00 0. -1.
</event>
<event>
 4    1  0.6651744E+003  0.2142013E+02  0.7546771E-02  0.1513350E+00
          2   -1    0    0  501    0  0.00000000000E+00  0.00000000000E+00  0.12418795958E+04  0.12418795958E+04  0.00000000000E+00 0. -1.
          2   -1    0    0  502    0 -0.00000000000E+00 -0.00000000000E+00 -0.88238685486E+01  0.88238685486E+01  0.00000000000E+00 0.  1.
          2    1    1    2  501    0  0.14688757114E+02  0.15590462642E+02  0.44079419392E+01  0.21868974898E+02  0.00000000000E+00 0.  1.
          2    1    1    2  502    0 -0.14688757114E+02 -0.15590462642E+02  0.12286477853E+04  0.12288344894E+04  0.00000000000E+00 0. -1.
</event>
<event>
 4    1  0.6651744E+003  0.3325242E+02  0.7546771E-02  0.1393284E+00
          2   -1    0    0  502    0  0.00000000000E+00  0.00000000000E+00  0.11511776039E+02  0.11511776039E+02  0.00000000000E+00 0.  1.
          2   -1    0    0  501    0 -0.00000000000E+00 -0.00000000000E+00 -0.13077938087E+04  0.13077938087E+04  0.00000000000E+00 0. -1.
          2    1    1    2  501    0  0.28387795539E+02  0.17316355841E+02 -0.13174380004E+02  0.35767127417E+02  0.00000000000E+00 0.  1.
          2    1    1    2  502    0 -0.28387795539E+02 -0.17316355841E+02 -0.12831076527E+04  0.12835384573E+04  0.00000000000E+00 0. -1.
</event>
<event>
 4    1  0.6651744E+003  0.3145229E+02  0.7546771E-02  0.1407382E+00
          2   -1    0    0  501    0  0.00000000000E+00  0.00000000000E+00  0.11965096426E+04  0.11965096426E+04  0.00000000000E+00 0. -1.
          2   -1    0    0  502    0 -0.00000000000E+00 -0.00000000000E+00 -0.18250405386E+02  0.18250405386E+02  0.00000000000E+00 0. -1.
          2    1    1    2  501    0  0.10928360966E+02 -0.29492670116E+02 -0.43332429838E+01  0.31749388321E+02  0.00000000000E+00 0. -1.
          2    1    1    2  502    0 -0.10928360966E+02  0.29492670116E+02  0.11825924802E+04  0.11830106597E+04  0.00000000000E+00 0. -1.
</event>
<event>
 4    1  0.6651744E+003  0.3896601E+02  0.7546771E-02  0.1354654E+00
          2   -1    0    0  501    0  0.00000000000E+00  0.00000000000E+00  0.28605194977E+01  0.28605194977E+01  0.00000000000E+00 0. -1.
          2   -1    0    0  502    0 -0.00000000000E+00 -0.00000000000E+00 -0.23046017549E+04  0.23046017549E+04  0.00000000000E+00 0.  1.
          2    1    1    2  501    0 -0.24427486141E+02  0.30358649604E+02 -0.21630554185E+04  0.21634063634E+04  0.00000000000E+00 0.  1.
          2    1    1    2  502    0  0.24427486141E+02 -0.30358649604E+02 -0.13868581696E+03  0.14405591106E+03  0.00000000000E+00 0. -1.
</event>
<event>
 4    1  0.6651744E+003  0.2783575E+02  0.7546771E-02  0.1439389E+00
          2   -1    0    0  501    0  0.00000000000E+00  0.00000000000E+00  0.18179630546E+04  0.18179630546E+04  0.00000000000E+00 0.  1.
          2   -1    0    0  502    0 -0.00000000000E+00 -0.00000000000E+00 -0.19659602213E+03  0.19659602213E+03  0.00000000000E+00 0.  1.
          2    1    1    2  501    0 -0.27805739491E+02  0.12922420993E+01 -0.19550357181E+03  0.19747525321E+03  0.00000000000E+00 0.  1.
          2    1    1    2  502    0  0.27805739491E+02 -0.12922420993E+01  0.18168706043E+04  0.18170838235E+04  0.00000000000E+00 0.  1.
</event>
<event>
 4    1  0.6651744E+003  0.2896857E+02  0.7546771E-02  0.1428776E+00
          2   -1    0    0  502    0  0.00000000000E+00  0.00000000000E+00  0.39629161594E+02  0.39629161594E+02  0.00000000000E+00 0.  1.
          2   -1    0    0  501    0 -0.00000000000E+00 -0.00000000000E+00 -0.76475402313E+03  0.76475402313E+03  0.00000000000E+00 0. -1.
          2    1    1    2  501    0 -0.23641139646E+02 -0.16741400209E+02  0.34021801067E+02  0.44684011823E+02  0.00000000000E+00 0.  1.
          2    1    1    2  502    0  0.23641139646E+02  0.16741400209E+02 -0.75914666260E+03  0.75969917290E+03  0.00000000000E+00 0. -1.
</event>
<event>
 4    1  0.6651744E+003  0.2605113E+02  0.7546771E-02  0.1457380E+00
          2   -1    0    0  502    0  0.00000000000E+00  0.00000000000E+00  0.14706516596E+04  0.14706516596E+04  0.00000000000E+00 0.  1.
          2   -1    0    0  501    0 -0.00000000000E+00 -0.00000000000E+00 -0.16931307196E+01  0.16931307196E+01  0.00000000000E+00 0.  1.
          2    1    1    2  501    0  0.13138928429E+02 -0.22495108397E+02  0.13623639096E+04  0.13626129618E+04  0.00000000000E+00 0.  1.
          2    1    1    2  502    0 -0.13138928429E+02  0.22495108397E+02  0.10659461925E+03  0.10973182855E+03  0.00000000000E+00 0.  1.
</event>
<event>
 4    1  0.6651744E+003  0.4975862E+02  0.7546771E-02  0.1299222E+00
          2   -1    0    0  501    0  0.00000000000E+00  0.00000000000E+00  0.21187636437E+04  0.21187636437E+04  0.00000000000E+00 0. -1.
          2   -1    0    0  502    0 -0.00000000000E+00 -0.00000000000E+00 -0.10471753367E+02  0.10471753367E+02  0.00000000000E+00 0.  1.
          2    1    1    2  501    0  0.38481692865E+02 -0.31544889232E+02  0.50686554028E+02  0.71028497673E+02  0.00000000000E+00 0.  1.
          2    1    1    2  502    0 -0.38481692865E+02  0.31544889232E+02  0.20576053363E+04  0.20582068994E+04  0.00000000000E+00 0. -1.
</event>
<event>
 4    1  0.6651744E+003  0.2022505E+02  0.7546771E-02  0.1530623E+00
          2   -1    0    0  501    0  0.00000000000E+00  0.00000000000E+00  0.91300847769E+01  0.91300847769E+01  0.00000000000E+00 0.  1.
          2   -1    0    0  502    0 -0.00000000000E+00 -0.00000000000E+00 -0.22796764145E+03  0.22796764145E+03  0.00000000000E+00 0.  1.
          2    1    1    2  501    0  0.18758240140E+02  0.75618222512E+01 -0.21568174339E+03  0.21662794640E+03  0.00000000000E+00 0.  1.
          2    1    1    2  502    0 -0.18758240140E+02 -0.75618222512E+01 -0.31558132869E+01  0.20469779833E+02  0.00000000000E+00 0.  1.
</event>
<event>
 4    1  0.6651744E+003  0.3338269E+02  0.7546771E-02  0.1392304E+00
          2   -1    0    0  501    0  0.00000000000E+00  0.00000000000E+00  0.10184088324E+03  0.10184088324E+03  0.00000000000E+00 0. -1.
          2   -1    0    0  502    0 -0.00000000000E+00 -0.00000000000E+00 -0.27362533765E+03  0.27362533765E+03  0.00000000000E+00 0.  1.
          2    1    1    2  501    0 -0.32653502084E+02 -0.69392216655E+01 -0.26983320377E+03  0.27189034895E+03  0.00000000000E+00 0.  1.
          2    1    1    2  502    0  0.32653502084E+02  0.69392216655E+01  0.98048749361E+02  0.10357587193E+03  0.00000000000E+00 0. -1.
</event>
<event>
 4    1  0.6651744E+003  0.4837230E+02  0.7546771E-02  0.1305388E+00
          2   -1    0    0  501    0  0.00000000000E+00  0.00000000000E+00  0.10970825331E+04  0.10970825331E+04  0.00000000000E+00 0. -1.
          2   -1    0    0  502    0 -0.00000000000E+00 -0.00000000000E+00 -0.95850383085E+01  0.95850383085E+01  0.00000000000E+00 0. -1.
          2    1    1    2  501    0  0.17952496067E+01  0.48338971482E+02  0.55846229754E+02  0.73882883422E+02  0.00000000000E+00 0. -1.
          2    1    1    2  502    0 -0.17952496067E+01 -0.48338971482E+02  0.10316512651E+04  0.10327846880E+04  0.00000000000E+00 0. -1.
</event>
<event>
 4    1  0.6651744E+003  0.2684911E+02  0.7546771E-02  0.1449130E+00
          2   -1    0    0  502    0  0.00000000000E+00  0.00000000000E+00  0.14256483723E+02  0.14256483723E+02  0.00000000000E+00 0.  1.
          2   -1    0    0  501    0 -0.00000000000E+00 -0.00000000000E+00 -0.14615777365E+03  0.14615777365E+03  0.00000000000E+00 0.  1.
          2    1    1    2  501    0  0.18844355102E+02  0.19124979439E+02 -0.10849216763E+01  0.26871018083E+02  0.00000000000E+00 0.  1.
          2    1    1    2  502    0 -0.18844355102E+02 -0.19124979439E+02 -0.13081636825E+03  0.13354323929E+03  0.00000000000E+00 0.  1.
</event>
<event>
 4    1  0.6651744E+003  0.3540534E+02  0.7546771E-02  0.1377736E+00
          2   -1    0    0  501    0  0.00000000000E+00  0.00000000000E+00  0.43513514682E+01  0.43513514682E+01  0.00000000000E+00 0.  1.
          2   -1    0    0  502    0 -0.00000000000E+00 -0.00000000000E+00 -0.78364435407E+03  0.78364435407E+03  0.00000000000E+00 0. -1.
          2    1    1    2  501    0 -0.11349565281E+02 -0.33536926845E+02 -0.70296374956E+03  0.70385479418E+03  0.00000000000E+00 0. -1.
          2    1    1    2  502    0  0.11349565281E+02  0.33536926845E+02 -0.76329253037E+02  0.84140911354E+02  0.00000000000E+00 0.  1.
</event>
<event>
 4    1  0.6651744E+003  0.2313475E+02  0.7546771E-02  0.1490813E+00
          2   -1    0    0  501    0  0.00000000000E+00  0.00000000000E+00  0.94176379688E+01  0.94176379688E+01  0.00000000000E+00 0. -1.
          2   -1    0    0  502    0 -0.00000000000E+00 -0.00000000000E+00 -0.48060658490E+03  0.48060658490E+03  0.00000000000E+00 0.  1.
          2    1    1    2  501    0  0.13476544407E+02 -0.18804237853E+02 -0.46566474585E+03  0.46623907187E+03  0.00000000000E+00 0.  1.
          2    1    1    2  502    0 -0.13476544407E+02  0.18804237853E+02 -0.55242010796E+01  0.23785150997E+02  0.00000000000E+00 0. -1.
</event>
<event>
 4    1  0.6651744E+003  0.2275225E+02  0.7546771E-02  0.1495633E+00
          2   -1    0    0  501    0  0.00000000000E+00  0.00000000000E+00  0.13549266575E+04  0.13549266575E+04  0.00000000000E+00 0. -1.
          2   -1    0    0  502    0 -0.00000000000E+00 -0.00000000000E+00 -0.51457742267E+00  0.51457742267E+00  0.00000000000E+00 0. -1.
          2    1    1    2  501    0  0.50990700850E+01  0.22173510163E+02  0.33328427593E+03  0.33405998511E+03  0.00000000000E+00 0. -1.
          2    1    1    2  502    0 -0.50990700850E+01 -0.22173510163E+02  0.10211278042E+04  0.10213812498E+04  0.00000000000E+00 0. -1.
</event>
<event>
 4    1  0.6651744E+003  0.2212819E+02  0.7546771E-02  0.1503746E+00
          2   -1    0    0  502    0  0.00000000000E+00  0.00000000000E+00  0.49629378571E+01  0.49629378571E+01  0.00000000000E+00 0.  1.
          2   -1    0    0  501    0 -0.00000000000E+00 -0.00000000000E+00 -0.30871549639E+03  0.30871549639E+03  0.00000000000E+00 0.  1.
          2    1    1    2  501    0 -0.20353760045E+02 -0.86822453426E+01 -0.22504465398E+02  0.31561177022E+02  0.00000000000E+00 0.  1.
          2    1    1    2  502    0  0.20353760045E+02  0.86822453426E+01 -0.28124809314E+03  0.28211725723E+03  0.00000000000E+00 0.  1.
</event>
<event>
 4    1  0.6651744E+003  0.2425934E+02  0.7546771E-02  0.1477262E+00
          2   -1    0    0  502    0  0.00000000000E+00  0.00000000000E+00  0.12181250545E+02  0.12181250545E+02  0.00000000000E+00 0.  1.
          2   -1    0    0  501    0 -0.00000000000E+00 -0.00000000000E+00 -0.63045075955E+02  0.63045075955E+02  0.00000000000E+00 0.  1.
          2    1    1    2  501    0 -0.49139729253E+00  0.24254360618E+02 -0.72498583044E+01  0.25319477201E+02  0.00000000000E+00 0.  1.
          2    1    1    2  502    0  0.49139729253E+00 -0.24254360618E+02 -0.43613967106E+02  0.49906849299E+02  0.00000000000E+00 0.  1.
</event>
<event>
 4    1  0.6651744E+003  0.3299819E+02  0.7546771E-02  0.1395210E+00
          2   -1    0    0  501    0  0.00000000000E+00  0.00000000000E+00  0.70589065504E+03  0.70589065504E+03  0.00000000000E+00 0. -1.
          2   -1    0    0  502    0 -0.00000000000E+00 -0.00000000000E+00 -0.26452329123E+01  0.26452329123E+01  0.00000000000E+00 0.  1.
          2    1    1    2  501    0  0.19538668333E+02  0.26591741660E+02  0.12289288176E+03  0.12724598489E+03  0.00000000000E+00 0.  1.
          2    1    1    2  502    0 -0.19538668333E+02 -0.26591741660E+02  0.58035254037E+03  0.58128990306E+03  0.00000000000E+00 0. -1.
</event>
<event>
 4    1  0.6651744E+003  0.2252246E+02  0.7546771E-02  0.1498583E+00
          2   -1    0    0  502    0  0.00000000000E+00  0.00000000000E+00  0.10589658727E+01  0.10589658727E+01  0.00000000000E+00 0. -1.
          2   -1    0    0  501    0 -0.00000000000E+00 -0.00000000000E+00 -0.56770936629E+03  0.56770936629E+03  0.00000000000E+00 0. -1.
          2    1    1    2  501    0  0.22448875309E+02  0.18191429159E+01 -0.39573098835E+03  0.39637138699E+03  0.00000000000E+00 0. -1.
          2    1    1    2  502    0 -0.22448875309E+02 -0.18191429159E+01 -0.17091941207E+03  0.17239694517E+03  0.00000000000E+00 0. -1.
</event>
<event>
 4    1  0.6651744E+003  0.2136698E+02  0.7546771E-02  0.1514089E+00
          2   -1    0    0  501    0  0.00000000000E+00  0.00000000000E+00  0.15458077551E+02  0.15458077551E+02  0.00000000000E+00 0. -1.
          2   -1    0    0  502    0 -0.00000000000E+00 -0.00000000000E+00 -0.39877693936E+02  0.39877693936E+02  0.00000000000E+00 0. -1.
          2    1    1    2  501    0  0.53329251485E+01  0.20690766070E+02 -0.26300636536E+02  0.33886153122E+02  0.00000000000E+00 0. -1.
          2    1    1    2  502    0 -0.53329251485E+01 -0.20690766070E+02  0.18810201514E+01  0.21449618365E+02  0.00000000000E+00 0. -1.
</event>
<event>
 4    1  0.6651744E+003  0.2257801E+02  0.7546771E-02  0.1497866E+00
          2   -1    0    0  501    0  0.00000000000E+00  0.00000000000E+00  0.37221234664E+03  0.37221234664E+03  0.00000000000E+00 0.  1.
          2   -1    0    0  502    0 -0.00000000000E+00 -0.00000000000E+00 -0.76933942702E+01  0.76933942702E+01  0.00000000000E+00 0.  1.
          2    1    1    2  501    0 -0.22288491237E+02  0.36041527231E+01  0.10042031452E+02  0.24710506959E+02  0.00000000000E+00 0.  1.
          2    1    1    2  502    0  0.22288491237E+02 -0.36041527231E+01  0.35447692092E+03  0.35519523395E+03  0.00000000000E+00 0.  1.
</event>
<event>
 4    1  0.6651744E+003  0.2146465E+02  0.7546771E-02  0.1512733E+00
          2   -1    0    0  502    0  0.00000000000E+00  0.00000000000E+00  0.51057577005E+03  0.51057577005E+03  0.00000000000E+00 0.  1.
          2   -1    0    0  501    0 -0.00000000000E+00 -0.00000000000E+00 -0.38086031093E+02  0.38086031093E+02  0.00000000000E+00 0.  1.
          2    1    1    2  501    0 -0.11776891568E+02 -0.17945365255E+02  0.50730641455E+03  0.50776030719E+03  0.00000000000E+00 0.  1.
          2    1    1    2  502    0  0.11776891568E+02  0.17945365255E+02 -0.34816675590E+02  0.40901493961E+02  0.00000000000E+00 0.  1.
</event>
<event>
 4    1  0.6651744E+003  0.5485273E+02  0.7546771E-02  0.1278401E+00
          2   -1    0    0  501    0  0.00000000000E+00  0.00000000000E+00  0.11556338616E+04  0.11556338616E+04  0.00000000000E+00 0.  1.
          2   -1    0    0  502    0 -0.00000000000E+00 -0.00000000000E+00 -0.95152760679E+03  0.95152760679E+03  0.00000000000E+00 0. -1.
          2    1    1    2  501    0  0.33591115643E+02  0.43364252685E+02 -0.95008519261E+03  0.95166732354E+03  0.00000000000E+00 0. -1.
          2    1    1    2  502    0 -0.33591115643E+02 -0.43364252685E+02  0.11541914475E+04  0.11554941449E+04  0.00000000000E+00 0.  1.
</event>
<event>
 4    1  0.6651744E+003  0.2929918E+02  0.7546771E-02  0.1425786E+00
          2   -1    0    0  502    0  0.00000000000E+00  0.00000000000E+00  0.52043075944E+02  0.52043075944E+02  0.00000000000E+00 0. -1.
          2   -1    0    0  501    0 -0.00000000000E+00 -0.00000000000E+00 -0.22328497703E+02  0.22328497703E+02  0.00000000000E+00 0. -1.
          2    1    1    2  501    0 -0.19852042456E+02  0.21548514152E+02  0.33864474407E+02  0.44779958449E+02  0.00000000000E+00 0. -1.
          2    1    1    2  502    0  0.19852042456E+02 -0.21548514152E+02 -0.41498961660E+01  0.29591615198E+02  0.00000000000E+00 0. -1.
</event>
<event>
 4    1  0.6651744E+003  0.1975392E+03  0.7546771E-02  0.1056895E+00
          2   -1    0    0  502    0  0.00000000000E+00  0.00000000000E+00  0.13123219656E+04  0.13123219656E+04  0.00000000000E+00 0. -1.
          2   -1    0    0  501    0 -0.00000000000E+00 -0.00000000000E+00 -0.31242473740E+02  0.31242473740E+02  0.00000000000E+00 0. -1.
          2    1    1    2  501    0 -0.15596836916E+03 -0.12122539388E+03  0.78810999983E+03  0.81248944616E+03  0.00000000000E+00 0. -1.
          2    1    1    2  502    0  0.15596836916E+03  0.12122539388E+03  0.49296949202E+03  0.53107499316E+03  0.00000000000E+00 0. -1.
</event>
<event>
 4    1  0.6651744E+003  0.3536096E+02  0.7546771E-02  0.1378043E+00
          2   -1    0    0  502    0  0.00000000000E+00  0.00000000000E+00  0.24601158868E+01  0.24601158868E+01  0.00000000000E+00 0.  1.
          2   -1    0    0  501    0 -0.00000000000E+00 -0.00000000000E+00 -0.26815867543E+04  0.26815867543E+04  0.00000000000E+00 0. -1.
          2    1    1    2  501    0  0.10378059345E+01 -0.35345731352E+02 -0.13139928075E+03  0.13607412961E+03  0.00000000000E+00 0.  1.
          2    1    1    2  502    0 -0.10378059345E+01  0.35345731352E+02 -0.25477273576E+04  0.25479727405E+04  0.00000000000E+00 0. -1.
</event>
<event>
 4    1  0.6651744E+003  0.6670819E+02  0.7546771E-02  0.1238599E+00
          2   -1    0    0  501    0  0.00000000000E+00  0.00000000000E+00  0.66555515517E+01  0.66555515517E+01  0.00000000000E+00 0.  1.
          2   -1    0    0  502    0 -0.00000000000E+00 -0.00000000000E+00 -0.22753526458E+04  0.22753526458E+04  0.00000000000E+00 0.  1.
          2    1    1    2  501    0 -0.61656742157E+02  0.25464256905E+02 -0.20931655453E+04  0.20942282545E+04  0.00000000000E+00 0.  1.
          2    1    1    2  502    0  0.61656742157E+02 -0.25464256905E+02 -0.17553154896E+03  0.18777994279E+03  0.00000000000E+00 0.  1.
</event>
<event>
 4    1  0.6651744E+003  0.3419306E+02  0.7546771E-02  0.1386327E+00
          2   -1    0    0  502    0  0.00000000000E+00  0.00000000000E+00  0.77941664068E+02  0.77941664068E+02  0.00000000000E+00 0.  1.
          2   -1    0    0  501    0 -0.00000000000E+00 -0.00000000000E+00 -0.50267929591E+02  0.50267929591E+02  0.00000000000E+00 0.  1.
          2    1    1    2  501    0  0.29983487588E+02  0.16436408127E+02  0.67531619812E+02  0.75694680887E+02  0.00000000000E+00 0.  1.
          2    1    1    2  502    0 -0.29983487588E+02 -0.16436408127E+02 -0.39857885336E+02  0.52514912772E+02  0.00000000000E+00 0.  1.
</event>
<event>
 4    1  0.6651744E+003  0.3521341E+02  0.7546771E-02  0.1379069E+00
          2   -1    0    0  502    0  0.00000000000E+00  0.00000000000E+00  0.46945678131E+03  0.46945678131E+03  0.00000000000E+00 0. -1.
          2   -1    0    0  501    0 -0.00000000000E+00 -0.00000000000E+00 -0.15636203390E+02  0.15636203390E+02  0.00000000000E+00 0. -1.
          2    1    1    2  501    0  0.98463536784E+01 -0.33808777212E+02  0.44802395704E+03  0.44940566327E+03  0.00000000000E+00 0. -1.
          2    1    1    2  502    0 -0.98463536784E+01  0.33808777212E+02  0.57966208808E+01  0.35687321432E+02  0.00000000000E+00 0. -1.
</event>
<event>
 4    1  0.6651744E+003  0.2661046E+02  0.7546771E-02  0.1451561E+00
          2   -1    0    0  502    0  0.00000000000E+00  0.00000000000E+00  0.72610909384E+03  0.72610909384E+03  0.00000000000E+00 0.  1.
          2   -1    0    0  501    0 -0.00000000000E+00 -0.00000000000E+00 -0.46040914878E+02  0.46040914878E+02  0.00000000000E+00 0. -1.
          2    1    1    2  501    0  0.23772058369E+02 -0.11958504861E+02  0.72199836442E+03  0.72248858456E+03  0.00000000000E+00 0.  1.
          2    1    1    2  502    0 -0.23772058369E+02  0.11958504861E+02 -0.41930185453E+02  0.49661424161E+02  0.00000000000E+00 0. -1.
</event>
<event>
 4    1  0.6651744E+003  0.3527038E+02  0.7546771E-02  0.1378672E+00
          2   -1    0    0  501    0  0.00000000000E+00  0.00000000000E+00  0.84130264174E+02  0.84130264174E+02  0.00000000000E+00 0. -1.
          2   -1    0    0  502    0 -0.00000000000E+00 -0.00000000000E+00 -0.32842979795E+02  0.32842979795E+02  0.00000000000E+00 0.  1.
          2    1    1    2  501    0  0.29149985978E+02 -0.19856438453E+02 -0.17722491802E+02  0.39472605009E+02  0.00000000000E+00 0.  1.
          2    1    1    2  502    0 -0.29149985978E+02  0.19856438453E+02  0.69009776181E+02  0.77500638959E+02  0.00000000000E+00 0. -1.
</event>
<event>
 4    1  0.6651744E+003  0.5950119E+02  0.7546771E-02  0.1261537E+00
          2   -1    0    0  502    0  0.00000000000E+00  0.00000000000E+00  0.98187549722E+03  0.98187549722E+03  0.00000000000E+00 0.  1.
          2   -1    0    0  501    0 -0.00000000000E+00 -0.00000000000E+00 -0.24750247712E+03  0.24750247712E+03  0.00000000000E+00 0. -1.
          2    1    1    2  501    0  0.73230293653E+01  0.59048834555E+02  0.97738151616E+03  0.97919100269E+03  0.00000000000E+00 0.  1.
          2    1    1    2  502    0 -0.73230293653E+01 -0.59048834555E+02 -0.24300849607E+03  0.25018697165E+03  0.00000000000E+00 0. -1.
</event>
<event>
 4    1  0.6651744E+003  0.2679062E+02  0.7546771E-02  0.1449723E+00
          2   -1    0    0  502    0  0.00000000000E+00  0.00000000000E+00  0.10958673421E+04  0.10958673421E+04  0.00000000000E+00 0.  1.
          2   -1    0    0  501    0 -0.00000000000E+00 -0.00000000000E+00 -0.96624905909E+02  0.96624905909E+02  0.00000000000E+00 0.  1.
          2    1    1    2  501    0 -0.33313175520E+01 -0.26582697449E+02  0.10938431490E+04  0.10941711804E+04  0.00000000000E+00 0.  1.
          2    1    1    2  502    0  0.33313175520E+01  0.26582697449E+02 -0.94600712769E+02  0.98321067614E+02  0.00000000000E+00 0.  1.
</event>
<event>
 4    1  0.6651744E+003  0.7611092E+02  0.7546771E-02  0.1213176E+00
          2   -1    0    0  501    0  0.00000000000E+00  0.00000000000E+00  0.10347450058E+02  0.10347450058E+02  0.00000000000E+00 0.  1.
          2   -1    0    0  502    0 -0.00000000000E+00 -0.00000000000E+00 -0.79475479372E+03  0.79475479372E+03  0.00000000000E+00 0.  1.
          2    1    1    2  501    0  0.59699173667E+02  0.47211026925E+02 -0.61106225387E+03  0.61578401287E+03  0.00000000000E+00 0.  1.
          2    1    1    2  502    0 -0.59699173667E+02 -0.47211026925E+02 -0.17334508979E+03  0.18931823091E+03  0.00000000000E+00 0.  1.
</event>
<event>
 4    1  0.6651744E+003  0.2095805E+02  0.7546771E-02  0.1519865E+00
          2   -1    0    0  502    0  0.00000000000E+00  0.00000000000E+00  0.28467715095E+00  0.28467715095E+00  0.00000000000E+00 0.  1.
          2   -1    0    0  501    0 -0.00000000000E+00 -0.00000000000E+00 -0.18321274360E+04  0.18321274360E+04  0.00000000000E+00 0.  1.
          2    1    1    2  501    0  0.20421186387E+02  0.47132730860E+01 -0.12799243615E+04  0.12800959382E+04  0.00000000000E+00 0.  1.
          2    1    1    2  502    0 -0.20421186387E+02 -0.47132730860E+01 -0.55191839733E+03  0.55231617495E+03  0.00000000000E+00 0.  1.
</event>
<event>
 4    1  0.6651744E+003  0.2570251E+02  0.7546771E-02  0.1461096E+00
          2   -1    0    0  501    0  0.00000000000E+00  0.00000000000E+00  0.64382314350E+02  0.64382314350E+02  0.00000000000E+00 0.  1.
          2   -1    0    0  502    0 -0.00000000000E+00 -0.00000000000E+00 -0.81636855572E+02  0.81636855572E+02  0.00000000000E+00 0. -1.
          2    1    1    2  501    0  0.11691300358E+02  0.22889569754E+02 -0.76894580231E+02  0.81076478565E+02  0.00000000000E+00 0. -1.
          2    1    1    2  502    0 -0.11691300358E+02 -0.22889569754E+02  0.59640039010E+02  0.64942691357E+02  0.00000000000E+00 0.  1.
</event>
<event>
 4    1  0.6651744E+003  0.2026747E+02  0.7546771E-02  0.1529985E+00
          2   -1    0    0  501    0  0.00000000000E+00  0.00000000000E+00  0.90295195411E+02  0.90295195411E+02  0.00000000000E+00 0. -1.
          2   -1    0    0  502    0 -0.00000000000E+00 -0.00000000000E+00 -0.24667775765E+03  0.24667775765E+03  0.00000000000E+00 0.  1.
          2    1    1    2  501    0  0.14707868813E+02 -0.13944497916E+02 -0.24511692666E+03  0.24595340649E+03  0.00000000000E+00 0.  1.
          2    1    1    2  502    0 -0.14707868813E+02  0.13944497916E+02  0.88734364427E+02  0.91019546568E+02  0.00000000000E+00 0. -1.
</event>
<event>
 4    1  0.6651744E+003  0.2014848E+02  0.7546771E-02  0.1531778E+00
          2   -1    0    0  501    0  0.00000000000E+00  0.00000000000E+00  0.36531356897E+02  0.36531356897E+02  0.00000000000E+00 0. -1.
          2   -1    0    0  502    0 -0.00000000000E+00 -0.00000000000E+00 -0.14426685414E+02  0.14426685414E+02  0.00000000000E+00 0. -1.
          2    1    1    2  501    0 -0.20118069458E+02  0.11065828690E+01 -0.11593642898E+01  0.20181807895E+02  0.00000000000E+00 0. -1.
          2    1    1    2  502    0  0.20118069458E+02 -0.11065828690E+01  0.23264035773E+02  0.30776234415E+02  0.00000000000E+00 0. -1.
</event>
<event>
 4    1  0.6651744E+003  0.2153003E+02  0.7546771E-02  0.1511830E+00
          2   -1    0    0  502    0  0.00000000000E+00  0.00000000000E+00  0.23403632737E+01  0.23403632737E+01  0.00000000000E+00 0. -1.
          2   -1    0    0  501    0 -0.00000000000E+00 -0.00000000000E+00 -0.70984128844E+03  0.70984128844E+03  0.00000000000E+00 0. -1.
          2    1    1    2  501    0 -0.18888606138E+02  0.10332596926E+02 -0.51393058205E+02  0.55720628431E+02  0.00000000000E+00 0. -1.
          2    1    1    2  502    0  0.18888606138E+02 -0.10332596926E+02 -0.65610786696E+03  0.65646102328E+03  0.00000000000E+00 0. -1.
</event>
<event>
 4    1  0.6651744E+003  0.3203701E+02  0.7546771E-02  0.1402683E+00
          2   -1    0    0  502    0  0.00000000000E+00  0.00000000000E+00  0.10842812516E+04  0.10842812516E+04  0.00000000000E+00 0.  1.
          2   -1    0    0  501    0 -0.00000000000E+00 -0.00000000000E+00 -0.13037966066E+03  0.13037966066E+03  0.00000000000E+00 0.  1.
          2    1    1    2  501    0  0.30259026905E+02 -0.10524316031E+02  0.10820725471E+04  0.10825467044E+04  0.00000000000E+00 0.  1.
          2    1    1    2  502    0 -0.30259026905E+02  0.10524316031E+02 -0.12817095614E+03  0.13211420792E+03  0.00000000000E+00 0.  1.
</event>
<event>
 4    1  0.6651744E+003  0.3458124E+02  0.7546771E-02  0.1383531E+00
          2   -1    0    0  501    0  0.00000000000E+00  0.00000000000E+00  0.50289357903E+02  0.50289357903E+02  0.00000000000E+00 0.  1.
          2   -1    0    0  502    0 -0.00000000000E+00 -0.00000000000E+00 -0.24723649314E+02  0.24723649314E+02  0.00000000000E+00 0.  1.
          2    1    1    2  501    0  0.32166430920E+02  0.12695785669E+02  0.54539160475E+01  0.35008676812E+02  0.00000000000E+00 0.  1.
          2    1    1    2  502    0 -0.32166430920E+02 -0.12695785669E+02  0.20111792541E+02  0.40004330405E+02  0.00000000000E+00 0.  1.
</event>
<event>
 4    1  0.6651744E+003  0.4248577E+02  0.7546771E-02  0.1334504E+00
          2   -1    0    0  502    0  0.00000000000E+00  0.00000000000E+00  0.86063929627E+01  0.86063929627E+01  0.00000000000E+00 0. -1.
          2   -1    0    0  501    0 -0.00000000000E+00 -0.00000000000E+00 -0.68218812873E+03  0.68218812873E+03  0.00000000000E+00 0. -1.
          2    1    1    2  501    0  0.74514752447E+00  0.42479234730E+02 -0.49350799767E+02  0.65119444606E+02  0.00000000000E+00 0. -1.
          2    1    1    2  502    0 -0.74514752447E+00 -0.42479234730E+02 -0.62423093600E+03  0.62567507708E+03  0.00000000000E+00 0. -1.
</event>
<event>
 4    1  0.6651744E+003  0.3141257E+02  0.7546771E-02  0.1407706E+00
          2   -1    0    0  502    0  0.00000000000E+00  0.00000000000E+00  0.13959222906E+02  0.13959222906E+02  0.00000000000E+00 0. -1.
          2   -1    0    0  501    0 -0.00000000000E+00 -0.00000000000E+00 -0.43677206039E+03  0.43677206039E+03  0.00000000000E+00 0. -1.
          2    1    1    2  501    0 -0.30644495530E+02 -0.69039625478E+01 -0.50819762936E+01  0.31821003884E+02  0.00000000000E+00 0. -1.
          2    1    1    2  502    0  0.30644495530E+02  0.69039625478E+01 -0.41773086119E+03  0.41891027941E+03  0.00000000000E+00 0. -1.
</event>
<event>
 4    1  0.6651744E+003  0.2610853E+02  0.7546771E-02  0.1456775E+00
          2   -1    0    0  501    0  0.00000000000E+00  0.00000000000E+00  0.11154235960E+03  0.11154235960E+03  0.00000000000E+00 0. -1.
          2   -1    0    0  502    0 -0.00000000000E+00 -0.00000000000E+00 -0.42454096274E+03  0.42454096274E+03  0.00000000000E+00 0. -1.
          2    1    1    2  501    0  0.62014725514E+01  0.25361335356E+02 -0.42260476691E+03  0.42341049185E+03  0.00000000000E+00 0. -1.
          2    1    1    2  502    0 -0.62014725514E+01 -0.25361335356E+02  0.10960616377E+03  0.11267283049E+03  0.00000000000E+00 0. -1.
</event>
<event>
 4    1  0.6651744E+003  0.4273807E+02  0.7546771E-02  0.1333147E+00
          2   -1    0    0  501    0  0.00000000000E+00  0.00000000000E+00  0.15885794331E+01  0.15885794331E+01  0.00000000000E+00 0. -1.
          2   -1    0    0  502    0 -0.00000000000E+00 -0.00000000000E+00 -0.33453046795E+04  0.33453046795E+04  0.00000000000E+00 0. -1.
          2    1    1    2  501    0  0.42342645177E+02 -0.58002438223E+01 -0.30275518094E+04  0.30278534477E+04  0.00000000000E+00 0. -1.
          2    1    1    2  502    0 -0.42342645177E+02  0.58002438223E+01 -0.31616429064E+03  0.31903981116E+03  0.00000000000E+00 0. -1.
</event>
<event>
 4    1  0.6651744E+003  0.2391656E+02  0.7546771E-02  0.1481299E+00
          2   -1    0    0  501    0  0.00000000000E+00  0.00000000000E+00  0.10006152751E+04  0.10006152751E+04  0.00000000000E+00 0.  1.
          2   -1    0    0  502    0 -0.00000000000E+00 -0.00000000000E+00 -0.91085197055E+00  0.91085197055E+00  0.00000000000E+00 0. -1.
          2    1    1    2  501    0 -0.95693667927E+01  0.21918693581E+02  0.19426339955E+03  0.19573009557E+03  0.00000000000E+00 0. -1.
          2    1    1    2  502    0  0.95693667927E+01 -0.21918693581E+02  0.80544102356E+03  0.80579603148E+03  0.00000000000E+00 0.  1.
</event>
<event>
 4    1  0.6651744E+003  0.2479122E+02  0.7546771E-02  0.1471153E+00
          2   -1    0    0  501    0  0.00000000000E+00  0.00000000000E+00  0.38610943070E+03  0.38610943070E+03  0.00000000000E+00 0. -1.
          2   -1    0    0  502    0 -0.00000000000E+00 -0.00000000000E+00 -0.26576921080E+01  0.26576921080E+01  0.00000000000E+00 0.  1.
          2    1    1    2  501    0  0.13030416766E+02  0.21090580366E+02  0.68623537757E+02  0.72964335641E+02  0.00000000000E+00 0.  1.
          2    1    1    2  502    0 -0.13030416766E+02 -0.21090580366E+02  0.31482820083E+03  0.31580278717E+03  0.00000000000E+00 0. -1.
</event>
<event>
 4    1  0.6651744E+003  0.2048793E+02  0.7546771E-02  0.1526703E+00
          2   -1    0    0  502    0  0.00000000000E+00  0.00000000000E+00  0.35796856840E+03  0.35796856840E+03  0.00000000000E+00 0. -1.
          2   -1    0    0  501    0 -0.00000000000E+00 -0.00000000000E+00 -0.11864942171E+01  0.11864942171E+01  0.00000000000E+00 0. -1.
          2    1    1    2  501    0 -0.16280753812E+02 -0.12437540669E+02  0.15896097224E+03  0.16027584365E+03  0.00000000000E+00 0. -1.
          2    1    1    2  502    0  0.16280753812E+02  0.12437540669E+02  0.19782110194E+03  0.19887921896E+03  0.00000000000E+00 0. -1.
</event>
<event>
 4    1  0.6651744E+003  0.2054277E+02  0.7546771E-02  0.1525894E+00
          2   -1    0    0  502    0  0.00000000000E+00  0.00000000000E+00  0.49535010159E+02  0.49535010159E+02  0.00000000000E+00 0. -1.
          2   -1    0    0  501    0 -0.00000000000E+00 -0.00000000000E+00 -0.11784847799E+02  0.11784847799E+02  0.00000000000E+00 0. -1.
          2    1    1    2  501    0 -0.37755519561E+01 -0.20192839927E+02  0.35014375457E+02  0.40595714867E+02  0.00000000000E+00 0. -1.
          2    1    1    2  502    0  0.37755519561E+01  0.20192839927E+02  0.27357869029E+01  0.20724143092E+02  0.00000000000E+00 0. -1.
</event>
<event>
 4    1  0.6651744E+003  0.6960169E+02  0.7546771E-02  0.1230292E+00
          2   -1    0    0  502    0  0.00000000000E+00  0.00000000000E+00  0.34123731751E+02  0.34123731751E+02  0.00000000000E+00 0.  1.
          2   -1    0    0  501    0 -0.00000000000E+00 -0.00000000000E+00 -0.71927008471E+03  0.71927008471E+03  0.00000000000E+00 0. -1.
          2    1    1    2  501    0 -0.48736398653E+02 -0.49690633872E+02 -0.50927984810E+01  0.69787765723E+02  0.00000000000E+00 0.  1.
          2    1    1    2  502    0  0.48736398653E+02  0.49690633872E+02 -0.68005355448E+03  0.68360605074E+03  0.00000000000E+00 0. -1.
</event>
<event>
 4    1  0.6651744E+003  0.2693502E+02  0.7546771E-02  0.1448262E+00
          2   -1    0    0  501    0  0.00000000000E+00  0.00000000000E+00  0.38312260798E+03  0.38312260798E+03  0.00000000000E+00 0. -1.
          2   -1    0    0  502    0 -0.00000000000E+00 -0.00000000000E+00 -0.15615701719E+03  0.15615701719E+03  0.00000000000E+00 0. -1.
          2    1    1    2  501    0 -0.10891654734E+02  0.24634668648E+02 -0.15451713810E+03  0.15684718999E+03  0.00000000000E+00 0. -1.
          2    1    1    2  502    0  0.10891654734E+02 -0.24634668648E+02  0.38148272889E+03  0.38243243518E+03  0.00000000000E+00 0. -1.
</event>
<event>
 4    1  0.6651744E+003  0.3861948E+02  0.7546771E-02  0.1356771E+00
          2   -1    0    0  502    0  0.00000000000E+00  0.00000000000E+00  0.23137175542E+04  0.23137175542E+04  0.00000000000E+00 0. -1.
          2   -1    0    0  501    0 -0.00000000000E+00 -0.00000000000E+00 -0.83641513769E+01  0.83641513769E+01  0.00000000000E+00 0.  1.
          2    1    1    2  501    0 -0.38516786553E+02 -0.28144840591E+01  0.22680804033E+04  0.22684091739E+04  0.00000000000E+00 0. -1.
          2    1    1    2  502    0  0.38516786553E+02  0.28144840591E+01  0.37272999468E+02  0.53672531673E+02  0.00000000000E+00 0.  1.
</event>
<event>
 4    1  0.6651744E+003  0.2310423E+02  0.7546771E-02  0.1491193E+00
          2   -1    0    0  501    0  0.00000000000E+00  0.00000000000E+00  0.33804263409E+01  0.33804263409E+01  0.00000000000E+00 0. -1.
          2   -1    0    0  502    0 -0.00000000000E+00 -0.00000000000E+00 -0.16619555125E+04  0.16619555125E+04  0.00000000000E+00 0. -1.
          2    1    1    2  501    0  0.46012646742E+01 -0.22641417751E+02 -0.16214104126E+04  0.16215750156E+04  0.00000000000E+00 0. -1.
          2    1    1    2  502    0 -0.46012646742E+01  0.22641417751E+02 -0.37164673593E+02  0.43760923181E+02  0.00000000000E+00 0. -1.
</event>
<event>
 4    1  0.6651744E+003  0.5692773E+02  0.7546771E-02  0.1270644E+00
          2   -1    0    0  502    0  0.00000000000E+00  0.00000000000E+00  0.44912014527E+03  0.44912014527E+03  0.00000000000E+00 0.  1.
          2   -1    0    0  501    0 -0.00000000000E+00 -0.00000000000E+00 -0.36230507003E+03  0.36230507003E+03  0.00000000000E+00 0.  1.
          2    1    1    2  501    0  0.48933726668E+02  0.29090492424E+02  0.44505965935E+03  0.44868571042E+03  0.00000000000E+00 0.  1.
          2    1    1    2  502    0 -0.48933726668E+02 -0.29090492424E+02 -0.35824458411E+03  0.36273950488E+03  0.00000000000E+00 0.  1.
</event>
<event>
 4    1  0.6651744E+003  0.3700292E+02  0.7546771E-02  0.1367004E+00
          2   -1    0    0  502    0  0.00000000000E+00  0.00000000000E+00  0.54363920622E+03  0.54363920622E+03  0.00000000000E+00 0.  1.
          2   -1    0    0  501    0 -0.00000000000E+00 -0.00000000000E+00 -0.47836514801E+02  0.47836514801E+02  0.00000000000E+00 0.  1.
          2    1    1    2  501    0  0.33731725720E+02  0.15211412629E+02  0.53574858035E+03  0.53702491352E+03  0.00000000000E+00 0.  1.
          2    1    1    2  502    0 -0.33731725720E+02 -0.15211412629E+02 -0.39945888935E+02  0.54450807497E+02  0.00000000000E+00 0.  1.
</event>
<event>
 4    1  0.6651744E+003  0.4676609E+02  0.7546771E-02  0.1312837E+00
          2   -1    0    0  501    0  0.00000000000E+00  0.00000000000E+00  0.87171761907E+02  0.87171761907E+02  0.00000000000E+00 0. -1.
          2   -1    0    0  502    0 -0.00000000000E+00 -0.00000000000E+00 -0.17489995763E+03  0.17489995763E+03  0.00000000000E+00 0. -1.
          2    1    1    2  501    0 -0.71159942759E+01 -0.46221531771E+02 -0.16513786001E+03  0.17163210709E+03  0.00000000000E+00 0. -1.
          2    1    1    2  502    0  0.71159942759E+01  0.46221531771E+02  0.77409664292E+02  0.90439612447E+02  0.00000000000E+00 0. -1.
</event>
<event>
 4    1  0.6651744E+003  0.3351743E+02  0.7546771E-02  0.1391297E+00
          2   -1    0    0  501    0  0.00000000000E+00  0.00000000000E+00  0.40399960817E+03  0.40399960817E+03  0.00000000000E+00 0.  1.
          2   -1    0    0  502    0 -0.00000000000E+00 -0.00000000000E+00 -0.80037398963E+02  0.80037398963E+02  0.00000000000E+00 0.  1.
          2    1    1    2  501    0  0.27956204420E+02  0.18489697617E+02 -0.75796006645E+02  0.82876129898E+02  0.00000000000E+00 0.  1.
          2    1    1    2  502    0 -0.27956204420E+02 -0.18489697617E+02  0.39975821585E+03  0.40116087723E+03  0.00000000000E+00 0.  1.
</event>
<event>
 4    1  0.6651744E+003  0.2899644E+02  0.7546771E-02  0.1428522E+00
          2   -1    0    0  502    0  0.00000000000E+00  0.00000000000E+00  0.23792524718E+03  0.23792524718E+03  0.00000000000E+00 0. -1.
          2   -1    0    0  501    0 -0.00000000000E+00 -0.00000000000E+00 -0.82909637570E+03  0.82909637570E+03  0.00000000000E+00 0. -1.
          2    1    1    2  501    0  0.10324004013E+02 -0.27096284631E+02  0.23678704177E+03  0.23855585688E+03  0.00000000000E+00 0. -1.
          2    1    1    2  502    0 -0.10324004013E+02  0.27096284631E+02 -0.82795817029E+03  0.82846576601E+03  0.00000000000E+00 0. -1.
</event>
<event>
 4    1  0.6651744E+003  0.2464112E+02  0.7546771E-02  0.1472858E+00
          2   -1    0    0  502    0  0.00000000000E+00  0.00000000000E+00  0.21328992314E+03  0.21328992314E+03  0.00000000000E+00 0.  1.
          2   -1    0    0  501    0 -0.00000000000E+00 -0.00000000000E+00 -0.26775744833E+03  0.26775744833E+03  0.00000000000E+00 0. -1.
          2    1    1    2  501    0 -0.12841348309E+02 -0.21030559688E+02  0.21200790043E+03  0.21343508266E+03  0.00000000000E+00 0.  1.
          2    1    1    2  502    0  0.12841348309E+02  0.21030559688E+02 -0.26647542561E+03  0.26761228881E+03  0.00000000000E+00 0. -1.
</event>
<event>
 4    1  0.6651744E+003  0.2144594E+02  0.7546771E-02  0.1512992E+00
          2   -1    0    0  501    0  0.00000000000E+00  0.00000000000E+00  0.11987549607E+02  0.11987549607E+02  0.00000000000E+00 0.  1.
          2   -1    0    0  502    0 -0.00000000000E+00 -0.00000000000E+00 -0.41348643138E+02  0.41348643138E+02  0.00000000000E+00 0.  1.
          2    1    1    2  501    0 -0.21420991208E+02  0.10341537123E+01 -0.21841600433E+02  0.30610191893E+02  0.00000000000E+00 0.  1.
          2    1    1    2  502    0  0.21420991208E+02 -0.10341537123E+01 -0.75194930982E+01  0.22726000851E+02  0.00000000000E+00 0.  1.
</event>
<event>
 4    1  0.6651744E+003  0.2213780E+02  0.7546771E-02  0.1503618E+00
          2   -1    0    0  502    0  0.00000000000E+00  0.00000000000E+00  0.43075251299E+01  0.43075251299E+01  0.00000000000E+00 0.  1.
          2   -1    0    0  501    0 -0.00000000000E+00 -0.00000000000E+00 -0.80091583870E+03  0.80091583870E+03  0.00000000000E+00 0. -1.
          2    1    1    2  501    0 -0.19893457259E+02 -0.97125043514E+01 -0.25383644166E+02  0.33681029878E+02  0.00000000000E+00 0.  1.
          2    1    1    2  502    0  0.19893457259E+02  0.97125043514E+01 -0.77122466941E+03  0.77154233395E+03  0.00000000000E+00 0. -1.
</event>
<event>
 4    1  0.6651744E+003  0.2046950E+02  0.7546771E-02  0.1526976E+00
          2   -1    0    0  501    0  0.00000000000E+00  0.00000000000E+00  0.78117036244E+03  0.78117036244E+03  0.00000000000E+00 0. -1.
          2   -1    0    0  502    0 -0.00000000000E+00 -0.00000000000E+00 -0.27571597763E+01  0.27571597763E+01  0.00000000000E+00 0.  1.
          2    1    1    2  501    0  0.64717540047E+01  0.19419492000E+02  0.37429000135E+02  0.42660641352E+02  0.00000000000E+00 0.  1.
          2    1    1    2  502    0 -0.64717540047E+01 -0.19419492000E+02  0.74098420253E+03  0.74126688087E+03  0.00000000000E+00 0. -1.
</event>
<event>
 4    1  0.6651744E+003  0.2401373E+02  0.7546771E-02  0.1480146E+00
          2   -1    0    0  501    0  0.00000000000E+00  0.00000000000E+00  0.36453790348E+01  0.36453790348E+01  0.00000000000E+00 0. -1.
          2   -1    0    0  502    0 -0.00000000000E+00 -0.00000000000E+00 -0.15834075925E+03  0.15834075925E+03  0.00000000000E+00 0. -1.
          2    1    1    2  501    0 -0.23992395350E+02  0.10119214231E+01 -0.79854769321E+02  0.83387308404E+02  0.00000000000E+00 0. -1.
          2    1    1    2  502    0  0.23992395350E+02 -0.10119214231E+01 -0.74840610893E+02  0.78598829879E+02  0.00000000000E+00 0. -1.
</event>
<event>
 4    1  0.6651744E+003  0.3073756E+02  0.7546771E-02  0.1413293E+00
          2   -1    0    0  501    0  0.00000000000E+00  0.00000000000E+00  0.10999951243E+02  0.10999951243E+02  0.00000000000E+00 0.  1.
          2   -1    0    0  502    0 -0.00000000000E+00 -0.00000000000E+00 -0.31709027667E+03  0.31709027667E+03  0.00000000000E+00 0.  1.
          2    1    1    2  501    0 -0.82900891793E+00  0.30726375986E+02 -0.29312157804E+03  0.29472878542E+03  0.00000000000E+00 0.  1.
          2    1    1    2  502    0  0.82900891793E+00 -0.30726375986E+02 -0.12968747386E+02  0.33361442502E+02  0.00000000000E+00 0.  1.
</event>
<event>
 4    1  0.6651744E+003  0.3390922E+02  0.7546771E-02  0.1388398E+00
          2   -1    0    0  501    0  0.00000000000E+00  0.00000000000E+00  0.91312670523E+03  0.91312670523E+03  0.00000000000E+00 0.  1.
          2   -1    0    0  502    0 -0.00000000000E+00 -0.00000000000E+00 -0.76269099205E+01  0.76269099205E+01  0.00000000000E+00 0. -1.
          2    1    1    2  501    0 -0.10202448198E+02  0.32337983158E+02  0.32091275854E+02  0.46687097681E+02  0.00000000000E+00 0. -1.
          2    1    1    2  502    0  0.10202448198E+02 -0.32337983158E+02  0.87340851945E+03  0.87406651747E+03  0.00000000000E+00 0.  1.
</event>
<event>
 4    1  0.6651744E+003  0.2266585E+02  0.7546771E-02  0.1496737E+00
          2   -1    0    0  501    0  0.00000000000E+00  0.00000000000E+00  0.59589644323E+01  0.59589644323E+01  0.00000000000E+00 0.  1.
          2   -1    0    0  502    0 -0.00000000000E+00 -0.00000000000E+00 -0.22676631801E+03  0.22676631801E+03  0.00000000000E+00 0.  1.
          2    1    1    2  501    0 -0.89264905655E+01  0.20834068460E+02 -0.20201406695E+03  0.20328163687E+03  0.00000000000E+00 0.  1.
          2    1    1    2  502    0  0.89264905655E+01 -0.20834068460E+02 -0.18793286628E+02  0.29443645574E+02  0.00000000000E+00 0.  1.
</event>
<event>
 4    1  0.6651744E+003  0.2147257E+02  0.7546771E-02  0.1512624E+00
          2   -1    0    0  501    0  0.00000000000E+00  0.00000000000E+00  0.22372058637E+03  0.22372058637E+03  0.00000000000E+00 0. -1.
          2   -1    0    0  502    0 -0.00000000000E+00 -0.00000000000E+00 -0.21944419887E+02  0.21944419887E+02  0.00000000000E+00 0. -1.
          2    1    1    2  501    0 -0.96299855795E+00 -0.21450965311E+02 -0.16034287958E+02  0.26798687828E+02  0.00000000000E+00 0. -1.
          2    1    1    2  502    0  0.96299855795E+00  0.21450965311E+02  0.21781045444E+03  0.21886631843E+03  0.00000000000E+00 0. -1.
</event>
<event>
 4    1  0.1224399E+004  0.2774289E+02  0.7546771E-02  0.1440285E+00
          2   -1    0    0  501    0  0.00000000000E+00  0.00000000000E+00  0.44249616431E+03  0.44249616431E+03  0.00000000000E+00 0. -1.
          2   -1    0    0  502    0 -0.00000000000E+00 -0.00000000000E+00 -0.16202202650E+04  0.16202202650E+04  0.00000000000E+00 0.  1.
          2    1    1    2  501    0 -0.16630450564E+02  0.22205768366E+02 -0.16196665121E+04  0.16199040954E+04  0.00000000000E+00 0.  1.
          2    1    1    2  502    0  0.16630450564E+02 -0.22205768366E+02  0.44194241140E+03  0.44281233387E+03  0.00000000000E+00 0. -1.
</event>
<event>
 4    1  0.6651744E+003  0.2202106E+02  0.7546771E-02  0.1505171E+00
          2   -1    0    0  501    0  0.00000000000E+00  0.00000000000E+00  0.87201242206E+01  0.87201242206E+01  0.00000000000E+00 0. -1.
          2   -1    0    0  502    0 -0.00000000000E+00 -0.00000000000E+00 -0.19675151942E+03  0.19675151942E+03  0.00000000000E+00 0. -1.
          2    1    1    2  501    0  0.19509051483E+02  0.10213905068E+02 -0.18102989088E+03  0.18236432858E+03  0.00000000000E+00 0. -1.
          2    1    1    2  502    0 -0.19509051483E+02 -0.10213905068E+02 -0.70015043171E+01  0.23107315058E+02  0.00000000000E+00 0. -1.
</event>
<event>
 4    1  0.6651744E+003  0.3132342E+02  0.7546771E-02  0.1408434E+00
          2   -1    0    0  501    0  0.00000000000E+00  0.00000000000E+00  0.42730488048E+02  0.42730488048E+02  0.00000000000E+00 0. -1.
          2   -1    0    0  502    0 -0.00000000000E+00 -0.00000000000E+00 -0.35423192979E+02  0.35423192979E+02  0.00000000000E+00 0.  1.
          2    1    1    2  501    0 -0.28528967193E+02 -0.12932687354E+02 -0.19523714434E+02  0.36909779146E+02  0.00000000000E+00 0.  1.
          2    1    1    2  502    0  0.28528967193E+02  0.12932687354E+02  0.26831009503E+02  0.41243901880E+02  0.00000000000E+00 0. -1.
</event>
<event>
 4    1  0.8124638E+003  0.2902578E+02  0.7546771E-02  0.1428255E+00
          2   -1    0    0  502    0  0.00000000000E+00  0.00000000000E+00  0.27890498728E+03  0.27890498728E+03  0.00000000000E+00 0. -1.
          2   -1    0    0  501    0 -0.00000000000E+00 -0.00000000000E+00 -0.13762917057E+04  0.13762917057E+04  0.00000000000E+00 0. -1.
          2    1    1    2  501    0  0.45825223387E+01  0.28661754712E+02  0.27799626948E+03  0.27950746241E+03  0.00000000000E+00 0. -1.
          2    1    1    2  502    0 -0.45825223387E+01 -0.28661754712E+02 -0.13753829879E+04  0.13756892306E+04  0.00000000000E+00 0. -1.
</event>
<event>
 4    1  0.6651744E+003  0.9938349E+02  0.7546771E-02  0.1164881E+00
          2   -1    0    0  502    0  0.00000000000E+00  0.00000000000E+00  0.12898339805E+03  0.12898339805E+03  0.00000000000E+00 0.  1.
          2   -1    0    0  501    0 -0.00000000000E+00 -0.00000000000E+00 -0.21541833291E+03  0.21541833291E+03  0.00000000000E+00 0. -1.
          2    1    1    2  501    0  0.97007467995E+02 -0.21601615253E+02  0.95029111721E+02  0.13750494792E+03  0.00000000000E+00 0.  1.
          2    1    1    2  502    0 -0.97007467995E+02  0.21601615253E+02 -0.18146404658E+03  0.20689678303E+03  0.00000000000E+00 0. -1.
</event>
<event>
 4    1  0.6651744E+003  0.3207232E+02  0.7546771E-02  0.1402403E+00
          2   -1    0    0  501    0  0.00000000000E+00  0.00000000000E+00  0.13074895353E+02  0.13074895353E+02  0.00000000000E+00 0. -1.
          2   -1    0    0  502    0 -0.00000000000E+00 -0.00000000000E+00 -0.45985304668E+03  0.45985304668E+03  0.00000000000E+00 0.  1.
          2    1    1    2  501    0 -0.24776356502E+02 -0.20365805694E+02 -0.43867758195E+03  0.43984844525E+03  0.00000000000E+00 0.  1.
          2    1    1    2  502    0  0.24776356502E+02  0.20365805694E+02 -0.81005693757E+01  0.33079496781E+02  0.00000000000E+00 0. -1.
</event>
<event>
 4    1  0.6651744E+003  0.2345502E+02  0.7546771E-02  0.1486862E+00
          2   -1    0    0  502    0  0.00000000000E+00  0.00000000000E+00  0.41327727146E+03  0.41327727146E+03  0.00000000000E+00 0. -1.
          2   -1    0    0  501    0 -0.00000000000E+00 -0.00000000000E+00 -0.10982078562E+02  0.10982078562E+02  0.00000000000E+00 0. -1.
          2    1    1    2  501    0  0.23330972531E+02  0.24091228364E+01  0.40000578550E+03  0.40069285817E+03  0.00000000000E+00 0. -1.
          2    1    1    2  502    0 -0.23330972531E+02 -0.24091228364E+01  0.22894073977E+01  0.23566491855E+02  0.00000000000E+00 0. -1.
</event>
<event>
 4    1  0.6651744E+003  0.2649065E+02  0.7546771E-02  0.1452793E+00
          2   -1    0    0  501    0  0.00000000000E+00  0.00000000000E+00  0.21898541528E+02  0.21898541528E+02  0.00000000000E+00 0. -1.
          2   -1    0    0  502    0 -0.00000000000E+00 -0.00000000000E+00 -0.68232139538E+03  0.68232139538E+03  0.00000000000E+00 0. -1.
          2    1    1    2  501    0 -0.19739839290E+02  0.17666169045E+02 -0.67395340845E+03  0.67447383311E+03  0.00000000000E+00 0. -1.
          2    1    1    2  502    0  0.19739839290E+02 -0.17666169045E+02  0.13530554595E+02  0.29746103805E+02  0.00000000000E+00 0. -1.
</event>
<event>
 4    1  0.6651744E+003  0.2007051E+02  0.7546771E-02  0.1532961E+00
          2   -1    0    0  502    0  0.00000000000E+00  0.00000000000E+00  0.27833406257E+01  0.27833406257E+01  0.00000000000E+00 0. -1.
          2   -1    0    0  501    0 -0.00000000000E+00 -0.00000000000E+00 -0.14732784299E+04  0.14732784299E+04  0.00000000000E+00 0. -1.
          2    1    1    2  501    0 -0.13427552553E+02 -0.14917313430E+02 -0.34403711930E+02  0.39830149410E+02  0.00000000000E+00 0. -1.
          2    1    1    2  502    0  0.13427552553E+02  0.14917313430E+02 -0.14360913773E+04  0.14362316211E+04  0.00000000000E+00 0. -1.
</event>
<event>
 4    1  0.7725914E+003  0.3723112E+02  0.7546771E-02  0.1365523E+00
          2   -1    0    0  501    0  0.00000000000E+00  0.00000000000E+00  0.63118800274E+03  0.63118800274E+03  0.00000000000E+00 0. -1.
          2   -1    0    0  502    0 -0.00000000000E+00 -0.00000000000E+00 -0.76738976517E+03  0.76738976517E+03  0.00000000000E+00 0.  1.
          2    1    1    2  501    0 -0.36460523790E+02  0.75356750619E+01 -0.76638844005E+03  0.76729225021E+03  0.00000000000E+00 0.  1.
          2    1    1    2  502    0  0.36460523790E+02 -0.75356750619E+01  0.63018667763E+03  0.63128551769E+03  0.00000000000E+00 0. -1.
</event>
<event>
 4    1  0.6651744E+003  0.3428875E+02  0.7546771E-02  0.1385634E+00
          2   -1    0    0  501    0  0.00000000000E+00  0.00000000000E+00  0.14498166841E+04  0.14498166841E+04  0.00000000000E+00 0. -1.
          2   -1    0    0  502    0 -0.00000000000E+00 -0.00000000000E+00 -0.10849101554E+01  0.10849101554E+01  0.00000000000E+00 0. -1.
          2    1    1    2  501    0  0.11909590350E+02 -0.32154009751E+02  0.35981317912E+03  0.36144327709E+03  0.00000000000E+00 0. -1.
          2    1    1    2  502    0 -0.11909590350E+02  0.32154009751E+02  0.10889185948E+04  0.10894583172E+04  0.00000000000E+00 0. -1.
</event>
<event>
 4    1  0.6651744E+003  0.2420426E+02  0.7546771E-02  0.1477906E+00
          2   -1    0    0  501    0  0.00000000000E+00  0.00000000000E+00  0.13534409419E+02  0.13534409419E+02  0.00000000000E+00 0. -1.
          2   -1    0    0  502    0 -0.00000000000E+00 -0.00000000000E+00 -0.97329992048E+02  0.97329992048E+02  0.00000000000E+00 0. -1.
          2    1    1    2  501    0  0.24195304685E+02  0.65831058335E+00 -0.83203850753E+02  0.86652910636E+02  0.00000000000E+00 0. -1.
          2    1    1    2  502    0 -0.24195304685E+02 -0.65831058335E+00 -0.59173187531E+00  0.24211490830E+02  0.00000000000E+00 0. -1.
</event>
<event>
 4    1  0.6651744E+003  0.4120988E+02  0.7546771E-02  0.1341538E+00
          2   -1    0    0  501    0  0.00000000000E+00  0.00000000000E+00  0.26117411264E+02  0.26117411264E+02  0.00000000000E+00 0. -1.
          2   -1    0    0  502    0 -0.00000000000E+00 -0.00000000000E+00 -0.59820582775E+03  0.59820582775E+03  0.00000000000E+00 0.  1.
          2    1    1    2  501    0 -0.40432973238E+02 -0.79642077415E+01 -0.58075220947E+03  0.58221248933E+03  0.00000000000E+00 0.  1.
          2    1    1    2  502    0  0.40432973238E+02  0.79642077415E+01  0.86637929853E+01  0.42110749681E+02  0.00000000000E+00 0. -1.
</event>
<event>
 4    1  0.6651744E+003  0.3019497E+02  0.7546771E-02  0.1417910E+00
          2   -1    0    0  502    0  0.00000000000E+00  0.00000000000E+00  0.50524670163E+03  0.50524670163E+03  0.00000000000E+00 0. -1.
          2   -1    0    0  501    0 -0.00000000000E+00 -0.00000000000E+00 -0.39642904675E+03  0.39642904675E+03  0.00000000000E+00 0.  1.
          2    1    1    2  501    0 -0.65833961771E+01 -0.29468541319E+02  0.50421942920E+03  0.50512272649E+03  0.00000000000E+00 0. -1.
          2    1    1    2  502    0  0.65833961771E+01  0.29468541319E+02 -0.39540177432E+03  0.39655302189E+03  0.00000000000E+00 0.  1.
</event>
<event>
 4    1  0.6651744E+003  0.2357277E+02  0.7546771E-02  0.1485428E+00
          2   -1    0    0  501    0  0.00000000000E+00  0.00000000000E+00  0.45069190353E+02  0.45069190353E+02  0.00000000000E+00 0.  1.
          2   -1    0    0  502    0 -0.00000000000E+00 -0.00000000000E+00 -0.17444219549E+02  0.17444219549E+02  0.00000000000E+00 0. -1.
          2    1    1    2  501    0 -0.15836950682E+02 -0.17460427343E+02 -0.31126866994E+01  0.23777391539E+02  0.00000000000E+00 0. -1.
          2    1    1    2  502    0  0.15836950682E+02  0.17460427343E+02  0.30737657503E+02  0.38736018363E+02  0.00000000000E+00 0.  1.
</event>
<event>
 4    1  0.6651744E+003  0.2194370E+02  0.7546771E-02  0.1506206E+00
          2   -1    0    0  502    0  0.00000000000E+00  0.00000000000E+00  0.23503356515E+03  0.23503356515E+03  0.00000000000E+00 0.  1.
          2   -1    0    0  501    0 -0.00000000000E+00 -0.00000000000E+00 -0.59883145153E+02  0.59883145153E+02  0.00000000000E+00 0.  1.
          2    1    1    2  501    0 -0.31373426406E+01 -0.21718260842E+02  0.23248915221E+03  0.23352244360E+03  0.00000000000E+00 0.  1.
          2    1    1    2  502    0  0.31373426406E+01  0.21718260842E+02 -0.57338732207E+02  0.61394266702E+02  0.00000000000E+00 0.  1.
</event>
<event>
 4    1  0.6651744E+003  0.5623945E+02  0.7546771E-02  0.1273174E+00
          2   -1    0    0  501    0  0.00000000000E+00  0.00000000000E+00  0.12635582465E+02  0.12635582465E+02  0.00000000000E+00 0.  1.
          2   -1    0    0  502    0 -0.00000000000E+00 -0.00000000000E+00 -0.25685790377E+04  0.25685790377E+04  0.00000000000E+00 0. -1.
          2    1    1    2  501    0  0.62794836409E+00  0.56235941073E+02 -0.25040808003E+04  0.25047122649E+04  0.00000000000E+00 0. -1.
          2    1    1    2  502    0 -0.62794836409E+00 -0.56235941073E+02 -0.51862654925E+02  0.76502355280E+02  0.00000000000E+00 0.  1.
</event>
<event>
 4    1  0.6651744E+003  0.3187008E+02  0.7546771E-02  0.1404013E+00
          2   -1    0    0  502    0  0.00000000000E+00  0.00000000000E+00  0.59665098183E+02  0.59665098183E+02  0.00000000000E+00 0.  1.
          2   -1    0    0  501    0 -0.00000000000E+00 -0.00000000000E+00 -0.59824676553E+02  0.59824676553E+02  0.00000000000E+00 0. -1.
          2    1    1    2  501    0  0.83593990305E+01  0.30754230275E+02  0.50454827892E+02  0.59677398482E+02  0.00000000000E+00 0.  1.
          2    1    1    2  502    0 -0.83593990305E+01 -0.30754230275E+02 -0.50614406261E+02  0.59812376254E+02  0.00000000000E+00 0. -1.
</event>
<event>
 4    1  0.6651744E+003  0.4600444E+02  0.7546771E-02  0.1316492E+00
          2   -1    0    0  502    0  0.00000000000E+00  0.00000000000E+00  0.49684210453E+03  0.49684210453E+03  0.00000000000E+00 0.  1.
          2   -1    0    0  501    0 -0.00000000000E+00 -0.00000000000E+00 -0.11085873165E+02  0.11085873165E+02  0.00000000000E+00 0. -1.
          2    1    1    2  501    0 -0.24940943388E+02  0.38656929372E+02  0.44216336904E+03  0.44455017013E+03  0.00000000000E+00 0.  1.
          2    1    1    2  502    0  0.24940943388E+02 -0.38656929372E+02  0.43592862326E+02  0.63377807561E+02  0.00000000000E+00 0. -1.
</event>
<event>
 4    1  0.6651744E+003  0.2668618E+02  0.7546771E-02  0.1450786E+00
          2   -1    0    0  501    0  0.00000000000E+00  0.00000000000E+00  0.20733921593E+03  0.20733921593E+03  0.00000000000E+00 0.  1.
          2   -1    0    0  502    0 -0.00000000000E+00 -0.00000000000E+00 -0.21911998517E+02  0.21911998517E+02  0.00000000000E+00 0.  1.
          2    1    1    2  501    0 -0.17137397854E+01  0.26631093013E+02 -0.12545494247E+02  0.29487988148E+02  0.00000000000E+00 0.  1.
          2    1    1    2  502    0  0.17137397854E+01 -0.26631093013E+02  0.19797271167E+03  0.19976322630E+03  0.00000000000E+00 0.  1.
</event>
<event>
 4    1  0.6651744E+003  0.4475543E+02  0.7546771E-02  0.1322667E+00
          2   -1    0    0  501    0  0.00000000000E+00  0.00000000000E+00  0.28661546194E+03  0.28661546194E+03  0.00000000000E+00 0. -1.
          2   -1    0    0  502    0 -0.00000000000E+00 -0.00000000000E+00 -0.31009579033E+03  0.31009579033E+03  0.00000000000E+00 0.  1.
          2    1    1    2  501    0 -0.21929484565E+02  0.39014690880E+02 -0.30671461214E+03  0.30996274244E+03  0.00000000000E+00 0.  1.
          2    1    1    2  502    0  0.21929484565E+02 -0.39014690880E+02  0.28323428375E+03  0.28674850983E+03  0.00000000000E+00 0. -1.
</event>
<event>
 4    1  0.6651744E+003  0.2338028E+02  0.7546771E-02  0.1487777E+00
          2   -1    0    0  502    0  0.00000000000E+00  0.00000000000E+00  0.13602861828E+04  0.13602861828E+04  0.00000000000E+00 0. -1.
          2   -1    0    0  501    0 -0.00000000000E+00 -0.00000000000E+00 -0.83564504954E+00  0.83564504954E+00  0.00000000000E+00 0.  1.
          2    1    1    2  501    0  0.10522818981E+02  0.20878403921E+02  0.11700637716E+04  0.11702973413E+04  0.00000000000E+00 0. -1.
          2    1    1    2  502    0 -0.10522818981E+02 -0.20878403921E+02  0.18938676614E+03  0.19082448653E+03  0.00000000000E+00 0.  1.
</event>
<event>
 4    1  0.6651744E+003  0.2377557E+02  0.7546771E-02  0.1482982E+00
          2   -1    0    0  502    0  0.00000000000E+00  0.00000000000E+00  0.33737433888E+03  0.33737433888E+03  0.00000000000E+00 0.  1.
          2   -1    0    0  501    0 -0.00000000000E+00 -0.00000000000E+00 -0.19422438476E+01  0.19422438476E+01  0.00000000000E+00 0.  1.
          2    1    1    2  501    0  0.11990588604E+02 -0.20530554936E+02  0.23058743611E+03  0.23180992988E+03  0.00000000000E+00 0.  1.
          2    1    1    2  502    0 -0.11990588604E+02  0.20530554936E+02  0.10484465892E+03  0.10750665284E+03  0.00000000000E+00 0.  1.
</event>
<event>
 4    1  0.6651744E+003  0.2488403E+02  0.7546771E-02  0.1470105E+00
          2   -1    0    0  501    0  0.00000000000E+00  0.00000000000E+00  0.11531410785E+04  0.11531410785E+04  0.00000000000E+00 0.  1.
          2   -1    0    0  502    0 -0.00000000000E+00 -0.00000000000E+00 -0.40147211313E+02  0.40147211313E+02  0.00000000000E+00 0. -1.
          2    1    1    2  501    0  0.12079032572E+02  0.21755729936E+02 -0.36143631965E+02  0.43881396338E+02  0.00000000000E+00 0. -1.
          2    1    1    2  502    0 -0.12079032572E+02 -0.21755729936E+02  0.11491374992E+04  0.11494068935E+04  0.00000000000E+00 0.  1.
</event>
<event>
 4    1  0.6651744E+003  0.2501267E+02  0.7546771E-02  0.1468662E+00
          2   -1    0    0  501    0  0.00000000000E+00  0.00000000000E+00  0.30938856257E+02  0.30938856257E+02  0.00000000000E+00 0.  1.
          2   -1    0    0  502    0 -0.00000000000E+00 -0.00000000000E+00 -0.29083371452E+02  0.29083371452E+02  0.00000000000E+00 0. -1.
          2    1    1    2  501    0 -0.23900991466E+02 -0.73740300667E+01 -0.15638331212E+02  0.29499001942E+02  0.00000000000E+00 0. -1.
          2    1    1    2  502    0  0.23900991466E+02  0.73740300667E+01  0.17493816017E+02  0.30523225768E+02  0.00000000000E+00 0.  1.
</event>
<event>
 4    1  0.6651744E+003  0.4386862E+02  0.7546771E-02  0.1327194E+00
          2   -1    0    0  502    0  0.00000000000E+00  0.00000000000E+00  0.25879631320E+03  0.25879631320E+03  0.00000000000E+00 0.  1.
          2   -1    0    0  501    0 -0.00000000000E+00 -0.00000000000E+00 -0.24014855710E+04  0.24014855710E+04  0.00000000000E+00 0.  1.
          2    1    1    2  501    0 -0.39733869997E+02 -0.18592342664E+02  0.25673533172E+03  0.26045630379E+03  0.00000000000E+00 0.  1.
          2    1    1    2  502    0  0.39733869997E+02  0.18592342664E+02 -0.23994245895E+04  0.23998255804E+04  0.00000000000E+00 0.  1.
</event>
<event>
 4    1  0.6651744E+003  0.2514448E+02  0.7546771E-02  0.1467193E+00
          2   -1    0    0  502    0  0.00000000000E+00  0.00000000000E+00  0.58286402907E+01  0.58286402907E+01  0.00000000000E+00 0.  1.
          2   -1    0    0  501    0 -0.00000000000E+00 -0.00000000000E+00 -0.81901882335E+03  0.81901882335E+03  0.00000000000E+00 0.  1.
          2    1    1    2  501    0  0.85629875061E+01 -0.23641493028E+02 -0.22452004953E+02  0.33709605071E+02  0.00000000000E+00 0.  1.
          2    1    1    2  502    0 -0.85629875061E+01  0.23641493028E+02 -0.79073817811E+03  0.79113785857E+03  0.00000000000E+00 0.  1.
</event>
<event>
 4    1  0.6651744E+003  0.5259004E+02  0.7546771E-02  0.1287317E+00
          2   -1    0    0  501    0  0.00000000000E+00  0.00000000000E+00  0.22580190619E+02  0.22580190619E+02  0.00000000000E+00 0. -1.
          2   -1    0    0  502    0 -0.00000000000E+00 -0.00000000000E+00 -0.12960901145E+04  0.12960901145E+04  0.00000000000E+00 0.  1.
          2    1    1    2  501    0  0.46239689645E+02  0.25052016668E+02 -0.12641626130E+04  0.12652560312E+04  0.00000000000E+00 0.  1.
          2    1    1    2  502    0 -0.46239689645E+02 -0.25052016668E+02 -0.93473109088E+01  0.53414273924E+02  0.00000000000E+00 0. -1.
</event>
<event>
 4    1  0.6651744E+003  0.2251715E+02  0.7546771E-02  0.1498652E+00
          2   -1    0    0  502    0  0.00000000000E+00  0.00000000000E+00  0.51711091718E+01  0.51711091718E+01  0.00000000000E+00 0.  1.
          2   -1    0    0  501    0 -0.00000000000E+00 -0.00000000000E+00 -0.59041757668E+03  0.59041757668E+03  0.00000000000E+00 0. -1.
          2    1    1    2  501    0  0.23891593508E+01 -0.22390041439E+02 -0.20677673890E+02  0.30571035893E+02  0.00000000000E+00 0.  1.
          2    1    1    2  502    0 -0.23891593508E+01  0.22390041439E+02 -0.56456879362E+03  0.56501764996E+03  0.00000000000E+00 0. -1.
</event>
<event>
 4    1  0.6651744E+003  0.2585831E+02  0.7546771E-02  0.1459426E+00
          2   -1    0    0  501    0  0.00000000000E+00  0.00000000000E+00  0.14238366041E+01  0.14238366041E+01  0.00000000000E+00 0.  1.
          2   -1    0    0  502    0 -0.00000000000E+00 -0.00000000000E+00 -0.47028043974E+03  0.47028043974E+03  0.00000000000E+00 0.  1.
          2    1    1    2  501    0  0.24328671892E+02 -0.87617178136E+01 -0.22554214371E+03  0.22701962595E+03  0.00000000000E+00 0.  1.
          2    1    1    2  502    0 -0.24328671892E+02  0.87617178136E+01 -0.24331445942E+03  0.24468465039E+03  0.00000000000E+00 0.  1.
</event>
<event>
 4    1  0.6651744E+003  0.3295071E+02  0.7546771E-02  0.1395572E+00
          2   -1    0    0  501    0  0.00000000000E+00  0.00000000000E+00  0.13273111896E+03  0.13273111896E+03  0.00000000000E+00 0. -1.
          2   -1    0    0  502    0 -0.00000000000E+00 -0.00000000000E+00 -0.51866462656E+03  0.51866462656E+03  0.00000000000E+00 0.  1.
          2    1    1    2  501    0  0.25313312995E+02  0.21094678990E+02 -0.51608606400E+03  0.51713690136E+03  0.00000000000E+00 0.  1.
          2    1    1    2  502    0 -0.25313312995E+02 -0.21094678990E+02  0.13015255640E+03  0.13425884415E+03  0.00000000000E+00 0. -1.
</event>
<event>
 4    1  0.6651744E+003  0.3510437E+02  0.7546771E-02  0.1379831E+00
          2   -1    0    0  502    0  0.00000000000E+00  0.00000000000E+00  0.15745137949E+04  0.15745137949E+04  0.00000000000E+00 0.  1.
          2   -1    0    0  501    0 -0.00000000000E+00 -0.00000000000E+00 -0.21402606083E+02  0.21402606083E+02  0.00000000000E+00 0. -1.
          2    1    1    2  501    0  0.35095755411E+02 -0.77766545585E+00  0.15597877756E+04  0.15601827527E+04  0.00000000000E+00 0.  1.
          2    1    1    2  502    0 -0.35095755411E+02  0.77766545585E+00 -0.66765867751E+01  0.35733648322E+02  0.00000000000E+00 0. -1.
</event>
<event>
 4    1  0.6651744E+003  0.2265672E+02  0.7546771E-02  0.1496854E+00
          2   -1    0    0  501    0  0.00000000000E+00  0.00000000000E+00  0.60374111141E+00  0.60374111141E+00  0.00000000000E+00 0. -1.
          2   -1    0    0  502    0 -0.00000000000E+00 -0.00000000000E+00 -0.85591209627E+03  0.85591209627E+03  0.00000000000E+00 0.  1.
          2    1    1    2  501    0 -0.18890278565E+02  0.12509363434E+02 -0.46250705181E+03  0.46306165871E+03  0.00000000000E+00 0. -1.
          2    1    1    2  502    0  0.18890278565E+02 -0.12509363434E+02 -0.39280130335E+03  0.39345417866E+03  0.00000000000E+00 0.  1.
</event>
<event>
 4    1  0.8072980E+003  0.2206337E+02  0.7546771E-02  0.1504607E+00
          2   -1    0    0  501    0  0.00000000000E+00  0.00000000000E+00  0.85340052777E+03  0.85340052777E+03  0.00000000000E+00 0.  1.
          2   -1    0    0  502    0 -0.00000000000E+00 -0.00000000000E+00 -0.45588094682E+03  0.45588094682E+03  0.00000000000E+00 0. -1.
          2    1    1    2  501    0  0.11378379024E+02  0.18903040426E+02 -0.45547126336E+03  0.45600533351E+03  0.00000000000E+00 0. -1.
          2    1    1    2  502    0 -0.11378379024E+02 -0.18903040426E+02  0.85299084431E+03  0.85327614108E+03  0.00000000000E+00 0.  1.
</event>
<event>
 4    1  0.6651744E+003  0.2066988E+02  0.7546771E-02  0.1524031E+00
          2   -1    0    0  501    0  0.00000000000E+00  0.00000000000E+00  0.82599961775E+01  0.82599961775E+01  0.00000000000E+00 0. -1.
          2   -1    0    0  502    0 -0.00000000000E+00 -0.00000000000E+00 -0.14178155879E+03  0.14178155879E+03  0.00000000000E+00 0.  1.
          2    1    1    2  501    0 -0.14593040087E+02 -0.14638555218E+02 -0.12655106068E+03  0.12822798087E+03  0.00000000000E+00 0.  1.
          2    1    1    2  502    0  0.14593040087E+02  0.14638555218E+02 -0.69705019326E+01  0.21813574101E+02  0.00000000000E+00 0. -1.
</event>
<event>
 4    1  0.6651744E+003  0.2241415E+02  0.7546771E-02  0.1499989E+00
          2   -1    0    0  502    0  0.00000000000E+00  0.00000000000E+00  0.10609210931E+04  0.10609210931E+04  0.00000000000E+00 0.  1.
          2   -1    0    0  501    0 -0.00000000000E+00 -0.00000000000E+00 -0.66323430839E+00  0.66323430839E+00  0.00000000000E+00 0.  1.
          2    1    1    2  501    0 -0.18748737171E+02  0.12283277540E+02  0.81399419201E+03  0.81430273159E+03  0.00000000000E+00 0.  1.
          2    1    1    2  502    0  0.18748737171E+02 -0.12283277540E+02  0.24626366677E+03  0.24728159581E+03  0.00000000000E+00 0.  1.
</event>
<event>
 4    1  0.6651744E+003  0.4188738E+02  0.7546771E-02  0.1337767E+00
          2   -1    0    0  501    0  0.00000000000E+00  0.00000000000E+00  0.28736129769E+03  0.28736129769E+03  0.00000000000E+00 0.  1.
          2   -1    0    0  502    0 -0.00000000000E+00 -0.00000000000E+00 -0.37703784641E+03  0.37703784641E+03  0.00000000000E+00 0. -1.
          2    1    1    2  501    0  0.28127995922E+02 -0.31038171029E+02 -0.37433705428E+03  0.37667330994E+03  0.00000000000E+00 0. -1.
          2    1    1    2  502    0 -0.28127995922E+02  0.31038171029E+02  0.28466050556E+03  0.28772583416E+03  0.00000000000E+00 0.  1.
</event>
<event>
 4    1  0.6651744E+003  0.2890793E+02  0.7546771E-02  0.1429330E+00
          2   -1    0    0  501    0  0.00000000000E+00  0.00000000000E+00  0.20348868338E+04  0.20348868338E+04  0.00000000000E+00 0.  1.
          2   -1    0    0  502    0 -0.00000000000E+00 -0.00000000000E+00 -0.57918088781E+00  0.57918088781E+00  0.00000000000E+00 0. -1.
          2    1    1    2  501    0 -0.27033728962E+02  0.10239434403E+02  0.46819502148E+03  0.46908660891E+03  0.00000000000E+00 0. -1.
          2    1    1    2  502    0  0.27033728962E+02 -0.10239434403E+02  0.15661126314E+04  0.15663794058E+04  0.00000000000E+00 0.  1.
</event>
<event>
 4    1  0.6651744E+003  0.3291349E+02  0.7546771E-02  0.1395857E+00
          2   -1    0    0  502    0  0.00000000000E+00  0.00000000000E+00  0.45149740408E+01  0.45149740408E+01  0.00000000000E+00 0.  1.
          2   -1    0    0  501    0 -0.00000000000E+00 -0.00000000000E+00 -0.58863881508E+03  0.58863881508E+03  0.00000000000E+00 0.  1.
          2    1    1    2  501    0 -0.90471113711E+01  0.31645655219E+02 -0.63795740901E+02  0.71785752594E+02  0.00000000000E+00 0.  1.
          2    1    1    2  502    0  0.90471113711E+01 -0.31645655219E+02 -0.52032810014E+03  0.52136803653E+03  0.00000000000E+00 0.  1.
</event>
<event>
 4    1  0.6651744E+003  0.2475824E+02  0.7546771E-02  0.1471526E+00
          2   -1    0    0  502    0  0.00000000000E+00  0.00000000000E+00  0.10430065022E+03  0.10430065022E+03  0.00000000000E+00 0. -1.
          2   -1    0    0  501    0 -0.00000000000E+00 -0.00000000000E+00 -0.68078174167E+02  0.68078174167E+02  0.00000000000E+00 0. -1.
          2    1    1    2  501    0  0.14771609043E+02  0.19868819660E+02  0.10049647797E+03  0.10350126817E+03  0.00000000000E+00 0. -1.
          2    1    1    2  502    0 -0.14771609043E+02 -0.19868819660E+02 -0.64274001915E+02  0.68877556218E+02  0.00000000000E+00 0. -1.
</event>
<event>
 4    1  0.6651744E+003  0.4981842E+02  0.7546771E-02  0.1298962E+00
          2   -1    0    0  501    0  0.00000000000E+00  0.00000000000E+00  0.11442024459E+03  0.11442024459E+03  0.00000000000E+00 0.  1.
          2   -1    0    0  502    0 -0.00000000000E+00 -0.00000000000E+00 -0.68448730775E+02  0.68448730775E+02  0.00000000000E+00 0. -1.
          2    1    1    2  501    0  0.36282725408E+02  0.34138524455E+02 -0.52585150681E+02  0.72436683297E+02  0.00000000000E+00 0. -1.
          2    1    1    2  502    0 -0.36282725408E+02 -0.34138524455E+02  0.98556664494E+02  0.11043229207E+03  0.00000000000E+00 0.  1.
</event>
<event>
 4    1  0.6651744E+003  0.3150625E+02  0.7546771E-02  0.1406944E+00
          2   -1    0    0  502    0  0.00000000000E+00  0.00000000000E+00  0.25532567928E+03  0.25532567928E+03  0.00000000000E+00 0.  1.
          2   -1    0    0  501    0 -0.00000000000E+00 -0.00000000000E+00 -0.25388012482E+03  0.25388012482E+03  0.00000000000E+00 0. -1.
          2    1    1    2  501    0 -0.31304713328E+02 -0.35579442792E+01  0.25336874630E+03  0.25532012386E+03  0.00000000000E+00 0.  1.
          2    1    1    2  502    0  0.31304713328E+02  0.35579442792E+01 -0.25192319185E+03  0.25388568025E+03  0.00000000000E+00 0. -1.
</event>
<event>
 4    1  0.6651744E+003  0.2561206E+02  0.7546771E-02  0.1462071E+00
          2   -1    0    0  502    0  0.00000000000E+00  0.00000000000E+00  0.36382426373E+00  0.36382426373E+00  0.00000000000E+00 0. -1.
          2   -1    0    0  501    0 -0.00000000000E+00 -0.00000000000E+00 -0.24055972136E+04  0.24055972136E+04  0.00000000000E+00 0. -1.
          2    1    1    2  501    0 -0.24642921418E+02  0.69788241013E+01 -0.60053100272E+03  0.60107691919E+03  0.00000000000E+00 0. -1.
          2    1    1    2  502    0  0.24642921418E+02 -0.69788241013E+01 -0.18047023866E+04  0.18048841186E+04  0.00000000000E+00 0. -1.
</event>
<event>
 4    1  0.6651744E+003  0.2750663E+02  0.7546771E-02  0.1442584E+00
          2   -1    0    0  502    0  0.00000000000E+00  0.00000000000E+00  0.51310496419E+01  0.51310496419E+01  0.00000000000E+00 0.  1.
          2   -1    0    0  501    0 -0.00000000000E+00 -0.00000000000E+00 -0.53891379268E+03  0.53891379268E+03  0.00000000000E+00 0. -1.
          2    1    1    2  501    0 -0.99731712071E+01  0.25634949412E+02 -0.35052440875E+02  0.44556575122E+02  0.00000000000E+00 0.  1.
          2    1    1    2  502    0  0.99731712071E+01 -0.25634949412E+02 -0.49873030216E+03  0.49948826720E+03  0.00000000000E+00 0. -1.
</event>
<event>
 4    1  0.6651744E+003  0.3414177E+02  0.7546771E-02  0.1386699E+00
          2   -1    0    0  501    0  0.00000000000E+00  0.00000000000E+00  0.23103097188E+03  0.23103097188E+03  0.00000000000E+00 0.  1.
          2   -1    0    0  502    0 -0.00000000000E+00 -0.00000000000E+00 -0.26885444241E+03  0.26885444241E+03  0.00000000000E+00 0. -1.
          2    1    1    2  501    0 -0.56986819793E+01  0.33662818521E+02 -0.26649805274E+03  0.26867614788E+03  0.00000000000E+00 0. -1.
          2    1    1    2  502    0  0.56986819793E+01 -0.33662818521E+02  0.22867458220E+03  0.23120926641E+03  0.00000000000E+00 0.  1.
</event>
<event>
 4    1  0.6651744E+003  0.2023355E+02  0.7546771E-02  0.1530495E+00
          2   -1    0    0  502    0  0.00000000000E+00  0.00000000000E+00  0.13010454700E+02  0.13010454700E+02  0.00000000000E+00 0.  1.
          2   -1    0    0  501    0 -0.00000000000E+00 -0.00000000000E+00 -0.36755156097E+02  0.36755156097E+02  0.00000000000E+00 0.  1.
          2    1    1    2  501    0 -0.10886249271E+02 -0.17055386022E+02 -0.24338512931E+01  0.20379407441E+02  0.00000000000E+00 0.  1.
          2    1    1    2  502    0  0.10886249271E+02  0.17055386022E+02 -0.21310850104E+02  0.29386203356E+02  0.00000000000E+00 0.  1.
</event>
<event>
 4    1  0.6651744E+003  0.2005537E+02  0.7546771E-02  0.1533191E+00
          2   -1    0    0  501    0  0.00000000000E+00  0.00000000000E+00  0.50188181552E+03  0.50188181552E+03  0.00000000000E+00 0. -1.
          2   -1    0    0  502    0 -0.00000000000E+00 -0.00000000000E+00 -0.21944575726E+03  0.21944575726E+03  0.00000000000E+00 0. -1.
          2    1    1    2  501    0 -0.17069075715E+02 -0.10529215875E+02 -0.21878658008E+03  0.21970385831E+03  0.00000000000E+00 0. -1.
          2    1    1    2  502    0  0.17069075715E+02  0.10529215875E+02  0.50122263834E+03  0.50162371447E+03  0.00000000000E+00 0. -1.
</event>
<event>
 4    1  0.6651744E+003  0.2602360E+02  0.7546771E-02  0.1457671E+00
          2   -1    0    0  502    0  0.00000000000E+00  0.00000000000E+00  0.55914334489E+03  0.55914334489E+03  0.00000000000E+00 0. -1.
          2   -1    0    0  501    0 -0.00000000000E+00 -0.00000000000E+00 -0.11484679751E+03  0.11484679751E+03  0.00000000000E+00 0.  1.
          2    1    1    2  501    0  0.12034345057E+02 -0.23073839754E+02  0.55736164029E+03  0.55796883928E+03  0.00000000000E+00 0. -1.
          2    1    1    2  502    0 -0.12034345057E+02  0.23073839754E+02 -0.11306509291E+03  0.11602130311E+03  0.00000000000E+00 0.  1.
</event>
<event>
 4    1  0.6651744E+003  0.2216221E+02  0.7546771E-02  0.1503295E+00
          2   -1    0    0  501    0  0.00000000000E+00  0.00000000000E+00  0.34232532928E+00  0.34232532928E+00  0.00000000000E+00 0.  1.
          2   -1    0    0  502    0 -0.00000000000E+00 -0.00000000000E+00 -0.15627877073E+04  0.15627877073E+04  0.00000000000E+00 0.  1.
          2    1    1    2  501    0 -0.13398692130E+01 -0.22121671937E+02 -0.55754490448E+03  0.55798520064E+03  0.00000000000E+00 0.  1.
          2    1    1    2  502    0  0.13398692130E+01  0.22121671937E+02 -0.10049004775E+04  0.10051448320E+04  0.00000000000E+00 0.  1.
</event>
<event>
 4    1  0.6651744E+003  0.2250741E+02  0.7546771E-02  0.1498778E+00
          2   -1    0    0  501    0  0.00000000000E+00  0.00000000000E+00  0.45405202791E+02  0.45405202791E+02  0.00000000000E+00 0. -1.
          2   -1    0    0  502    0 -0.00000000000E+00 -0.00000000000E+00 -0.16055989622E+02  0.16055989622E+02  0.00000000000E+00 0. -1.
          2    1    1    2  501    0  0.22484839598E+02  0.10076841009E+01 -0.23003259812E+01  0.22624653336E+02  0.00000000000E+00 0. -1.
          2    1    1    2  502    0 -0.22484839598E+02 -0.10076841009E+01  0.31649539151E+02  0.38836539076E+02  0.00000000000E+00 0. -1.
</event>
<event>
 4    1  0.6651744E+003  0.2232202E+02  0.7546771E-02  0.1501192E+00
          2   -1    0    0  501    0  0.00000000000E+00  0.00000000000E+00  0.86242455246E+02  0.86242455246E+02  0.00000000000E+00 0. -1.
          2   -1    0    0  502    0 -0.00000000000E+00 -0.00000000000E+00 -0.13559434063E+02  0.13559434063E+02  0.00000000000E+00 0. -1.
          2    1    1    2  501    0  0.16913911445E+02  0.14566816779E+02 -0.14617769339E+01  0.22369831096E+02  0.00000000000E+00 0. -1.
          2    1    1    2  502    0 -0.16913911445E+02 -0.14566816779E+02  0.74144798117E+02  0.77432058214E+02  0.00000000000E+00 0. -1.
</event>
<event>
 4    1  0.6651744E+003  0.2542294E+02  0.7546771E-02  0.1464127E+00
          2   -1    0    0  501    0  0.00000000000E+00  0.00000000000E+00  0.41154017123E+03  0.41154017123E+03  0.00000000000E+00 0.  1.
          2   -1    0    0  502    0 -0.00000000000E+00 -0.00000000000E+00 -0.23132037523E+01  0.23132037523E+01  0.00000000000E+00 0.  1.
          2    1    1    2  501    0 -0.21846561646E+02 -0.13002067585E+02  0.87362681473E+02  0.90986615122E+02  0.00000000000E+00 0.  1.
          2    1    1    2  502    0  0.21846561646E+02  0.13002067585E+02  0.32186428600E+03  0.32286675986E+03  0.00000000000E+00 0.  1.
</event>
<event>
 4    1  0.6651744E+003  0.3181921E+02  0.7546771E-02  0.1404420E+00
          2   -1    0    0  501    0  0.00000000000E+00  0.00000000000E+00  0.60070033691E+02  0.60070033691E+02  0.00000000000E+00 0. -1.
          2   -1    0    0  502    0 -0.00000000000E+00 -0.00000000000E+00 -0.11994760359E+04  0.11994760359E+04  0.00000000000E+00 0. -1.
          2    1    1    2  501    0  0.17871947941E+02  0.26325948192E+02 -0.11950356867E+04  0.11954592233E+04  0.00000000000E+00 0. -1.
          2    1    1    2  502    0 -0.17871947941E+02 -0.26325948192E+02  0.55629684492E+02  0.64086846295E+02  0.00000000000E+00 0. -1.
</event>
<event>
 4    1  0.6651744E+003  0.2481568E+02  0.7546771E-02  0.1470876E+00
          2   -1    0    0  501    0  0.00000000000E+00  0.00000000000E+00  0.17062549443E+04  0.17062549443E+04  0.00000000000E+00 0.  1.
          2   -1    0    0  502    0 -0.00000000000E+00 -0.00000000000E+00 -0.58686671690E+01  0.58686671690E+01  0.00000000000E+00 0.  1.
          2    1    1    2  501    0 -0.23664740447E+02 -0.74697989959E+01  0.20872517424E+02  0.32426529587E+02  0.00000000000E+00 0.  1.
          2    1    1    2  502    0  0.23664740447E+02  0.74697989959E+01  0.16795137597E+04  0.16796970819E+04  0.00000000000E+00 0.  1.
</event>
<event>
 4    1  0.6651744E+003  0.3624678E+02  0.7546771E-02  0.1372004E+00
          2   -1    0    0  502    0  0.00000000000E+00  0.00000000000E+00  0.11439093960E+01  0.11439093960E+01  0.00000000000E+00 0. -1.
          2   -1    0    0  501    0 -0.00000000000E+00 -0.00000000000E+00 -0.15789455363E+04  0.15789455363E+04  0.00000000000E+00 0.  1.
          2    1    1    2  501    0  0.34536825915E+02 -0.11001670742E+02 -0.37641831707E+03  0.37815946178E+03  0.00000000000E+00 0. -1.
          2    1    1    2  502    0 -0.34536825915E+02  0.11001670742E+02 -0.12013833099E+04  0.12019299839E+04  0.00000000000E+00 0.  1.
</event>
<event>
 4    1  0.7660126E+003  0.2533338E+02  0.7546771E-02  0.1465108E+00
          2   -1    0    0  502    0  0.00000000000E+00  0.00000000000E+00  0.35498312152E+03  0.35498312152E+03  0.00000000000E+00 0.  1.
          2   -1    0    0  501    0 -0.00000000000E+00 -0.00000000000E+00 -0.86743871495E+03  0.86743871495E+03  0.00000000000E+00 0.  1.
          2    1    1    2  501    0  0.92434481822E+01  0.23586840169E+02  0.35434584562E+03  0.35525027611E+03  0.00000000000E+00 0.  1.
          2    1    1    2  502    0 -0.92434481822E+01 -0.23586840169E+02 -0.86680143905E+03  0.86717156037E+03  0.00000000000E+00 0.  1.
</event>
<event>
 4    1  0.6651744E+003  0.2108640E+02  0.7546771E-02  0.1518035E+00
          2   -1    0    0  501    0  0.00000000000E+00  0.00000000000E+00  0.13087138973E+04  0.13087138973E+04  0.00000000000E+00 0.  1.
          2   -1    0    0  502    0 -0.00000000000E+00 -0.00000000000E+00 -0.18521919053E+01  0.18521919053E+01  0.00000000000E+00 0. -1.
          2    1    1    2  501    0  0.18242926068E+02 -0.10575060798E+02  0.61289744356E+02  0.64815654171E+02  0.00000000000E+00 0. -1.
          2    1    1    2  502    0 -0.18242926068E+02  0.10575060798E+02  0.12455719610E+04  0.12457504350E+04  0.00000000000E+00 0.  1.
</event>
<event>
 4    1  0.6651744E+003  0.3446546E+02  0.7546771E-02  0.1384361E+00
          2   -1    0    0  501    0  0.00000000000E+00  0.00000000000E+00  0.60493842313E+03  0.60493842313E+03  0.00000000000E+00 0. -1.
          2   -1    0    0  502    0 -0.00000000000E+00 -0.00000000000E+00 -0.72958255403E+01  0.72958255403E+01  0.00000000000E+00 0.  1.
          2    1    1    2  501    0  0.10415187607E+02 -0.32854103170E+02  0.37121185840E+02  0.50654226538E+02  0.00000000000E+00 0.  1.
          2    1    1    2  502    0 -0.10415187607E+02  0.32854103170E+02  0.56052141175E+03  0.56158002214E+03  0.00000000000E+00 0. -1.
</event>
<event>
 4    1  0.6651744E+003  0.8328274E+02  0.7546771E-02  0.1196425E+00
          2   -1    0    0  502    0  0.00000000000E+00  0.00000000000E+00  0.14221812879E+04  0.14221812879E+04  0.00000000000E+00 0.  1.
          2   -1    0    0  501    0 -0.00000000000E+00 -0.00000000000E+00 -0.22059252252E+04  0.22059252252E+04  0.00000000000E+00 0.  1.
          2    1    1    2  501    0  0.49307296639E+02 -0.67117842981E+02  0.14201748555E+04  0.14226147176E+04  0.00000000000E+00 0.  1.
          2    1    1    2  502    0 -0.49307296639E+02  0.67117842981E+02 -0.22039187929E+04  0.22054917955E+04  0.00000000000E+00 0.  1.
</event>
<event>
 4    1  0.6651744E+003  0.2127598E+02  0.7546771E-02  0.1515361E+00
          2   -1    0    0  501    0  0.00000000000E+00  0.00000000000E+00  0.96737448744E+02  0.96737448744E+02  0.00000000000E+00 0.  1.
          2   -1    0    0  502    0 -0.00000000000E+00 -0.00000000000E+00 -0.55390291291E+02  0.55390291291E+02  0.00000000000E+00 0.  1.
          2    1    1    2  501    0 -0.20680786268E+02 -0.49972365811E+01 -0.52106492697E+02  0.56282802660E+02  0.00000000000E+00 0.  1.
          2    1    1    2  502    0  0.20680786268E+02  0.49972365811E+01  0.93453650149E+02  0.95844937375E+02  0.00000000000E+00 0.  1.
</event>
<event>
 4    1  0.6651744E+003  0.2367274E+02  0.7546771E-02  0.1484219E+00
          2   -1    0    0  501    0  0.00000000000E+00  0.00000000000E+00  0.50071889634E+03  0.50071889634E+03  0.00000000000E+00 0.  1.
          2   -1    0    0  502    0 -0.00000000000E+00 -0.00000000000E+00 -0.79151467090E+02  0.79151467090E+02  0.00000000000E+00 0. -1.
          2    1    1    2  501    0 -0.28001054307E+01 -0.23506556726E+02 -0.77094352023E+02  0.80646995687E+02  0.00000000000E+00 0. -1.
          2    1    1    2  502    0  0.28001054307E+01  0.23506556726E+02  0.49866178127E+03  0.49922336775E+03  0.00000000000E+00 0.  1.
</event>
<event>
 4    1  0.6651744E+003  0.2013355E+02  0.7546771E-02  0.1532004E+00
          2   -1    0    0  502    0  0.00000000000E+00  0.00000000000E+00  0.56485739098E+03  0.56485739098E+03  0.00000000000E+00 0. -1.
          2   -1    0    0  501    0 -0.00000000000E+00 -0.00000000000E+00 -0.41522937288E+03  0.41522937288E+03  0.00000000000E+00 0. -1.
          2    1    1    2  501    0  0.73576485715E+01  0.18740991328E+02  0.56443374212E+03  0.56479271330E+03  0.00000000000E+00 0. -1.
          2    1    1    2  502    0 -0.73576485715E+01 -0.18740991328E+02 -0.41480572403E+03  0.41529405056E+03  0.00000000000E+00 0. -1.
</event>
<event>
 4    1  0.6651744E+003  0.2139522E+02  0.7546771E-02  0.1513696E+00
          2   -1    0    0  502    0  0.00000000000E+00  0.00000000000E+00  0.23886971355E+01  0.23886971355E+01  0.00000000000E+00 0. -1.
          2   -1    0    0  501    0 -0.00000000000E+00 -0.00000000000E+00 -0.20008406593E+03  0.20008406593E+03  0.00000000000E+00 0. -1.
          2    1    1    2  501    0  0.20131394623E+02  0.72444862031E+01 -0.78043056687E+02  0.80922644092E+02  0.00000000000E+00 0. -1.
          2    1    1    2  502    0 -0.20131394623E+02 -0.72444862031E+01 -0.11965231211E+03  0.12155011897E+03  0.00000000000E+00 0. -1.
</event>
<event>
 4    1  0.6651744E+003  0.2253843E+02  0.7546771E-02  0.1498377E+00
          2   -1    0    0  501    0  0.00000000000E+00  0.00000000000E+00  0.58735571112E+03  0.58735571112E+03  0.00000000000E+00 0.  1.
          2   -1    0    0  502    0 -0.00000000000E+00 -0.00000000000E+00 -0.80936639603E+02  0.80936639603E+02  0.00000000000E+00 0.  1.
          2    1    1    2  501    0  0.22312109876E+02 -0.31860151212E+01 -0.79146559738E+02  0.82293127646E+02  0.00000000000E+00 0.  1.
          2    1    1    2  502    0 -0.22312109876E+02  0.31860151212E+01  0.58556563126E+03  0.58599922308E+03  0.00000000000E+00 0.  1.
</event>
<event>
 4    1  0.6651744E+003  0.2019457E+02  0.7546771E-02  0.1531082E+00
          2   -1    0    0  502    0  0.00000000000E+00  0.00000000000E+00  0.41620774184E+03  0.41620774184E+03  0.00000000000E+00 0.  1.
          2   -1    0    0  501    0 -0.00000000000E+00 -0.00000000000E+00 -0.45170612303E+01  0.45170612303E+01  0.00000000000E+00 0. -1.
          2    1    1    2  501    0  0.20190250526E+02 -0.41760690150E+00  0.39199862731E+03  0.39251846380E+03  0.00000000000E+00 0.  1.
          2    1    1    2  502    0 -0.20190250526E+02  0.41760690150E+00  0.19692053299E+02  0.28206339269E+02  0.00000000000E+00 0. -1.
</event>
<event>
 4    1  0.6651744E+003  0.3213688E+02  0.7546771E-02  0.1401892E+00
          2   -1    0    0  502    0  0.00000000000E+00  0.00000000000E+00  0.50685517913E+03  0.50685517913E+03  0.00000000000E+00 0.  1.
          2   -1    0    0  501    0 -0.00000000000E+00 -0.00000000000E+00 -0.26595614907E+02  0.26595614907E+02  0.00000000000E+00 0. -1.
          2    1    1    2  501    0 -0.22821709089E+02 -0.22626286465E+02  0.49643402017E+03  0.49747313055E+03  0.00000000000E+00 0.  1.
          2    1    1    2  502    0  0.22821709089E+02  0.22626286465E+02 -0.16174455940E+02  0.35977663486E+02  0.00000000000E+00 0. -1.
</event>
<event>
 4    1  0.6651744E+003  0.2513851E+02  0.7546771E-02  0.1467260E+00
          2   -1    0    0  501    0  0.00000000000E+00  0.00000000000E+00  0.43635924596E+00  0.43635924596E+00  0.00000000000E+00 0.  1.
          2   -1    0    0  502    0 -0.00000000000E+00 -0.00000000000E+00 -0.14535576628E+04  0.14535576628E+04  0.00000000000E+00 0.  1.
          2    1    1    2  501    0 -0.18847925164E+02  0.16634318771E+02 -0.68251218308E+03  0.68297498117E+03  0.00000000000E+00 0.  1.
          2    1    1    2  502    0  0.18847925164E+02 -0.16634318771E+02 -0.77060912043E+03  0.77101904083E+03  0.00000000000E+00 0.  1.
</event>
<event>
 4    1  0.6651744E+003  0.2153224E+02  0.7546771E-02  0.1511800E+00
          2   -1    0    0  501    0  0.00000000000E+00  0.00000000000E+00  0.11680566779E+01  0.11680566779E+01  0.00000000000E+00 0. -1.
          2   -1    0    0  502    0 -0.00000000000E+00 -0.00000000000E+00 -0.16485617338E+04  0.16485617338E+04  0.00000000000E+00 0. -1.
          2    1    1    2  501    0  0.21325162702E+02  0.29790901768E+01 -0.15424311483E+04  0.15425814354E+04  0.00000000000E+00 0. -1.
          2    1    1    2  502    0 -0.21325162702E+02 -0.29790901768E+01 -0.10496252877E+03  0.10714835504E+03  0.00000000000E+00 0. -1.
</event>
<event>
 4    1  0.6651744E+003  0.4242298E+02  0.7546771E-02  0.1334844E+00
          2   -1    0    0  501    0  0.00000000000E+00  0.00000000000E+00  0.15547053565E+03  0.15547053565E+03  0.00000000000E+00 0. -1.
          2   -1    0    0  502    0 -0.00000000000E+00 -0.00000000000E+00 -0.43797274151E+02  0.43797274151E+02  0.00000000000E+00 0. -1.
          2    1    1    2  501    0  0.27522592077E+02  0.32283368598E+02 -0.29621963440E+02  0.51741373007E+02  0.00000000000E+00 0. -1.
          2    1    1    2  502    0 -0.27522592077E+02 -0.32283368598E+02  0.14129522494E+03  0.14752643679E+03  0.00000000000E+00 0. -1.
</event>
<event>
 4    1  0.6651744E+003  0.2843414E+02  0.7546771E-02  0.1433710E+00
          2   -1    0    0  501    0  0.00000000000E+00  0.00000000000E+00  0.30630900395E+03  0.30630900395E+03  0.00000000000E+00 0. -1.
          2   -1    0    0  502    0 -0.00000000000E+00 -0.00000000000E+00 -0.43090717192E+01  0.43090717192E+01  0.00000000000E+00 0.  1.
          2    1    1    2  501    0  0.19363365910E+01  0.28368128631E+02  0.54326238011E+02  0.61317536299E+02  0.00000000000E+00 0.  1.
          2    1    1    2  502    0 -0.19363365910E+01 -0.28368128631E+02  0.24767369422E+03  0.24930053937E+03  0.00000000000E+00 0. -1.
</event>
<event>
 4    1  0.6651744E+003  0.2155728E+02  0.7546771E-02  0.1511455E+00
          2   -1    0    0  501    0  0.00000000000E+00  0.00000000000E+00  0.19126193494E+03  0.19126193494E+03  0.00000000000E+00 0. -1.
          2   -1    0    0  502    0 -0.00000000000E+00 -0.00000000000E+00 -0.20283818520E+02  0.20283818520E+02  0.00000000000E+00 0. -1.
          2    1    1    2  501    0  0.18624505927E+02  0.10855603024E+02 -0.13746703120E+02  0.25567326506E+02  0.00000000000E+00 0. -1.
          2    1    1    2  502    0 -0.18624505927E+02 -0.10855603024E+02  0.18472481954E+03  0.18597842696E+03  0.00000000000E+00 0. -1.
</event>
<event>
 4    1  0.6651744E+003  0.2391094E+02  0.7546771E-02  0.1481366E+00
          2   -1    0    0  501    0  0.00000000000E+00  0.00000000000E+00  0.20394605652E+02  0.20394605652E+02  0.00000000000E+00 0.  1.
          2   -1    0    0  502    0 -0.00000000000E+00 -0.00000000000E+00 -0.75573605000E+03  0.75573605000E+03  0.00000000000E+00 0.  1.
          2    1    1    2  501    0 -0.23748119159E+02 -0.27856751678E+01 -0.74847051758E+03  0.74885235450E+03  0.00000000000E+00 0.  1.
          2    1    1    2  502    0  0.23748119159E+02  0.27856751678E+01  0.13129073235E+02  0.27278301152E+02  0.00000000000E+00 0.  1.
</event>
<event>
 4    1  0.6651744E+003  0.2243421E+02  0.7546771E-02  0.1499728E+00
          2   -1    0    0  502    0  0.00000000000E+00  0.00000000000E+00  0.12722564962E+02  0.12722564962E+02  0.00000000000E+00 0.  1.
          2   -1    0    0  501    0 -0.00000000000E+00 -0.00000000000E+00 -0.43750854299E+03  0.43750854299E+03  0.00000000000E+00 0.  1.
          2    1    1    2  501    0 -0.13643716043E+02 -0.17808506375E+02  0.23040999693E+01  0.22552223027E+02  0.00000000000E+00 0.  1.
          2    1    1    2  502    0  0.13643716043E+02  0.17808506375E+02 -0.42709007800E+03  0.42767888492E+03  0.00000000000E+00 0.  1.
</event>
<event>
 4    1  0.6651744E+003  0.3073298E+02  0.7546771E-02  0.1413332E+00
          2   -1    0    0  501    0  0.00000000000E+00  0.00000000000E+00  0.24683420880E+01  0.24683420880E+01  0.00000000000E+00 0. -1.
          2   -1    0    0  502    0 -0.00000000000E+00 -0.00000000000E+00 -0.43133681160E+03  0.43133681160E+03  0.00000000000E+00 0. -1.
          2    1    1    2  501    0  0.30684467768E+02 -0.17261482369E+01 -0.14156352629E+03  0.14486113394E+03  0.00000000000E+00 0. -1.
          2    1    1    2  502    0 -0.30684467768E+02  0.17261482369E+01 -0.28730494322E+03  0.28894401975E+03  0.00000000000E+00 0. -1.
</event>
<event>
 4    1  0.6651744E+003  0.2956739E+02  0.7546771E-02  0.1423394E+00
          2   -1    0    0  502    0  0.00000000000E+00  0.00000000000E+00  0.13748706122E+02  0.13748706122E+02  0.00000000000E+00 0.  1.
          2   -1    0    0  501    0 -0.00000000000E+00 -0.00000000000E+00 -0.12036159321E+04  0.12036159321E+04  0.00000000000E+00 0. -1.
          2    1    1    2  501    0 -0.17197797328E+02 -0.24051325538E+02 -0.25476257332E+01  0.29676942058E+02  0.00000000000E+00 0.  1.
          2    1    1    2  502    0  0.17197797328E+02  0.24051325538E+02 -0.11873196003E+04  0.11876876962E+04  0.00000000000E+00 0. -1.
</event>
<event>
 4    1  0.6651744E+003  0.2081664E+02  0.7546771E-02  0.1521899E+00
          2   -1    0    0  502    0  0.00000000000E+00  0.00000000000E+00  0.13292894947E+04  0.13292894947E+04  0.00000000000E+00 0.  1.
          2   -1    0    0  501    0 -0.00000000000E+00 -0.00000000000E+00 -0.13062269537E+01  0.13062269537E+01  0.00000000000E+00 0.  1.
          2    1    1    2  501    0 -0.15875045970E+02 -0.13465338583E+02  0.12403237009E+04  0.12404983738E+04  0.00000000000E+00 0.  1.
          2    1    1    2  502    0  0.15875045970E+02  0.13465338583E+02  0.87659566869E+02  0.90097347860E+02  0.00000000000E+00 0.  1.
</event>
<event>
 4    1  0.6651744E+003  0.2118863E+02  0.7546771E-02  0.1516589E+00
          2   -1    0    0  501    0  0.00000000000E+00  0.00000000000E+00  0.12702053150E+02  0.12702053150E+02  0.00000000000E+00 0.  1.
          2   -1    0    0  502    0 -0.00000000000E+00 -0.00000000000E+00 -0.51856634060E+02  0.51856634060E+02  0.00000000000E+00 0. -1.
          2    1    1    2  501    0  0.17334547700E+02  0.12184885397E+02 -0.13629472863E+01  0.21232418642E+02  0.00000000000E+00 0.  1.
          2    1    1    2  502    0 -0.17334547700E+02 -0.12184885397E+02 -0.37791633623E+02  0.43326268568E+02  0.00000000000E+00 0. -1.
</event>
<event>
 4    1  0.6651744E+003  0.2590576E+02  0.7546771E-02  0.1458921E+00
          2   -1    0    0  501    0  0.00000000000E+00  0.00000000000E+00  0.15251453154E+04  0.15251453154E+04  0.00000000000E+00 0.  1.
          2   -1    0    0  502    0 -0.00000000000E+00 -0.00000000000E+00 -0.62184103394E+02  0.62184103394E+02  0.00000000000E+00 0.  1.
          2    1    1    2  501    0 -0.13118123745E+02 -0.22338832596E+02 -0.59371039326E+02  0.64776762214E+02  0.00000000000E+00 0.  1.
          2    1    1    2  502    0  0.13118123745E+02  0.22338832596E+02  0.15223322513E+04  0.15225526566E+04  0.00000000000E+00 0.  1.
</event>
<event>
 4    1  0.6651744E+003  0.3774490E+02  0.7546771E-02  0.1362233E+00
          2   -1    0    0  501    0  0.00000000000E+00  0.00000000000E+00  0.81086149745E+01  0.81086149745E+01  0.00000000000E+00 0. -1.
          2   -1    0    0  502    0 -0.00000000000E+00 -0.00000000000E+00 -0.25377395653E+03  0.25377395653E+03  0.00000000000E+00 0. -1.
          2    1    1    2  501    0 -0.67560362757E+01  0.37135336421E+02 -0.19546138737E+03  0.19907242700E+03  0.00000000000E+00 0. -1.
          2    1    1    2  502    0  0.67560362757E+01 -0.37135336421E+02 -0.50203954178E+02  0.62810144502E+02  0.00000000000E+00 0. -1.
</event>
<event>
 4    1  0.6651744E+003  0.2752376E+02  0.7546771E-02  0.1442417E+00
          2   -1    0    0  502    0  0.00000000000E+00  0.00000000000E+00  0.48040366991E+03  0.48040366991E+03  0.00000000000E+00 0. -1.
          2   -1    0    0  501    0 -0.00000000000E+00 -0.00000000000E+00 -0.16388589130E+01  0.16388589130E+01  0.00000000000E+00 0.  1.
          2    1    1    2  501    0 -0.15115317829E+02 -0.23001841676E+02  0.19252580717E+03  0.19448327429E+03  0.00000000000E+00 0.  1.
          2    1    1    2  502    0  0.15115317829E+02  0.23001841676E+02  0.28623900382E+03  0.28755925453E+03  0.00000000000E+00 0. -1.
</event>
<event>
 4    1  0.6651744E+003  0.5122550E+02  0.7546771E-02  0.1292945E+00
          2   -1    0    0  501    0  0.00000000000E+00  0.00000000000E+00  0.23054978397E+02  0.23054978397E+02  0.00000000000E+00 0. -1.
          2   -1    0    0  502    0 -0.00000000000E+00 -0.00000000000E+00 -0.21301894157E+03  0.21301894157E+03  0.00000000000E+00 0.  1.
          2    1    1    2  501    0  0.49496755236E+02 -0.13195564954E+02 -0.17553256371E+03  0.18285440283E+03  0.00000000000E+00 0.  1.
          2    1    1    2  502    0 -0.49496755236E+02  0.13195564954E+02 -0.14431399464E+02  0.53219517133E+02  0.00000000000E+00 0. -1.
</event>
<event>
 4    1  0.6651744E+003  0.2026334E+02  0.7546771E-02  0.1530047E+00
          2   -1    0    0  502    0  0.00000000000E+00  0.00000000000E+00  0.33836921020E+03  0.33836921020E+03  0.00000000000E+00 0.  1.
          2   -1    0    0  501    0 -0.00000000000E+00 -0.00000000000E+00 -0.21512090367E+01  0.21512090367E+01  0.00000000000E+00 0.  1.
          2    1    1    2  501    0 -0.18749856562E+02  0.76841240590E+01  0.28052069321E+03  0.28125159947E+03  0.00000000000E+00 0.  1.
          2    1    1    2  502    0  0.18749856562E+02 -0.76841240590E+01  0.55697307953E+02  0.59268819769E+02  0.00000000000E+00 0.  1.
</event>
<event>
 4    1  0.6651744E+003  0.2116314E+02  0.7546771E-02  0.1516948E+00
          2   -1    0    0  501    0  0.00000000000E+00  0.00000000000E+00  0.97898963917E+00  0.97898963917E+00  0.00000000000E+00 0. -1.
          2   -1    0    0  502    0 -0.00000000000E+00 -0.00000000000E+00 -0.13715060201E+04  0.13715060201E+04  0.00000000000E+00 0.  1.
          2    1    1    2  501    0  0.13383022203E+02  0.16394309406E+02 -0.12454794922E+04  0.12456592809E+04  0.00000000000E+00 0.  1.
          2    1    1    2  502    0 -0.13383022203E+02 -0.16394309406E+02 -0.12504753828E+03  0.12682572883E+03  0.00000000000E+00 0. -1.
</event>
<event>
 4    1  0.6651744E+003  0.2469137E+02  0.7546771E-02  0.1472286E+00
          2   -1    0    0  501    0  0.00000000000E+00  0.00000000000E+00  0.47375426424E+02  0.47375426424E+02  0.00000000000E+00 0. -1.
          2   -1    0    0  502    0 -0.00000000000E+00 -0.00000000000E+00 -0.11878645229E+03  0.11878645229E+03  0.00000000000E+00 0.  1.
          2    1    1    2  501    0  0.23545281890E+02 -0.74352775879E+01 -0.11415717859E+03  0.11679693950E+03  0.00000000000E+00 0.  1.
          2    1    1    2  502    0 -0.23545281890E+02  0.74352775879E+01  0.42746152720E+02  0.49364939222E+02  0.00000000000E+00 0. -1.
</event>
<event>
 4    1  0.6651744E+003  0.2371418E+02  0.7546771E-02  0.1483720E+00
          2   -1    0    0  501    0  0.00000000000E+00  0.00000000000E+00  0.12370249210E+04  0.12370249210E+04  0.00000000000E+00 0.  1.
          2   -1    0    0  502    0 -0.00000000000E+00 -0.00000000000E+00 -0.17887126076E+01  0.17887126076E+01  0.00000000000E+00 0. -1.
          2    1    1    2  501    0 -0.19621013651E+02 -0.13318347795E+02  0.82683751306E+02  0.86017238358E+02  0.00000000000E+00 0. -1.
          2    1    1    2  502    0  0.19621013651E+02  0.13318347795E+02  0.11525524571E+04  0.11527963953E+04  0.00000000000E+00 0.  1.
</event>
<event>
 4    1  0.6651744E+003  0.2219817E+02  0.7546771E-02  0.1502820E+00
          2   -1    0    0  501    0  0.00000000000E+00  0.00000000000E+00  0.97746071717E+01  0.97746071717E+01  0.00000000000E+00 0. -1.
          2   -1    0    0  502    0 -0.00000000000E+00 -0.00000000000E+00 -0.57084865031E+02  0.57084865031E+02  0.00000000000E+00 0. -1.
          2    1    1    2  501    0  0.28205750663E+01 -0.22018242994E+02 -0.35084563058E+02  0.41517288365E+02  0.00000000000E+00 0. -1.
          2    1    1    2  502    0 -0.28205750663E+01  0.22018242994E+02 -0.12225694801E+02  0.25342183837E+02  0.00000000000E+00 0. -1.
</event>
<event>
 4    1  0.6651744E+003  0.4624499E+02  0.7546771E-02  0.1315329E+00
          2   -1    0    0  501    0  0.00000000000E+00  0.00000000000E+00  0.32309974149E+03  0.32309974149E+03  0.00000000000E+00 0.  1.
          2   -1    0    0  502    0 -0.00000000000E+00 -0.00000000000E+00 -0.13866771081E+02  0.13866771081E+02  0.00000000000E+00 0.  1.
          2    1    1    2  501    0 -0.36565647276E+02  0.28311702984E+02  0.32809797812E+02  0.56701692382E+02  0.00000000000E+00 0.  1.
          2    1    1    2  502    0  0.36565647276E+02 -0.28311702984E+02  0.27642317260E+03  0.28026482019E+03  0.00000000000E+00 0.  1.
</event>
<event>
 4    1  0.6651744E+003  0.3103725E+02  0.7546771E-02  0.1410792E+00
          2   -1    0    0  501    0  0.00000000000E+00  0.00000000000E+00  0.52563140588E+02  0.52563140588E+02  0.00000000000E+00 0. -1.
          2   -1    0    0  502    0 -0.00000000000E+00 -0.00000000000E+00 -0.10872461312E+03  0.10872461312E+03  0.00000000000E+00 0.  1.
          2    1    1    2  501    0  0.26016639974E+02  0.16924688698E+02 -0.10161446445E+03  0.10624881189E+03  0.00000000000E+00 0.  1.
          2    1    1    2  502    0 -0.26016639974E+02 -0.16924688698E+02  0.45452991912E+02  0.55038941821E+02  0.00000000000E+00 0. -1.
</event>
<event>
 4    1  0.7186653E+003  0.2115657E+02  0.7546771E-02  0.1517041E+00
          2   -1    0    0  502    0  0.00000000000E+00  0.00000000000E+00  0.88521010774E+03  0.88521010774E+03  0.00000000000E+00 0.  1.
          2   -1    0    0  501    0 -0.00000000000E+00 -0.00000000000E+00 -0.42776431875E+03  0.42776431875E+03  0.00000000000E+00 0. -1.
          2    1    1    2  501    0 -0.27158466812E+01  0.20981528902E+02  0.88482198937E+03  0.88507488567E+03  0.00000000000E+00 0.  1.
          2    1    1    2  502    0  0.27158466812E+01 -0.20981528902E+02 -0.42737620038E+03  0.42789954081E+03  0.00000000000E+00 0. -1.
</event>
<event>
 4    1  0.6651744E+003  0.2167360E+02  0.7546771E-02  0.1509861E+00
          2   -1    0    0  501    0  0.00000000000E+00  0.00000000000E+00  0.37186580876E+01  0.37186580876E+01  0.00000000000E+00 0. -1.
          2   -1    0    0  502    0 -0.00000000000E+00 -0.00000000000E+00 -0.40744129934E+03  0.40744129934E+03  0.00000000000E+00 0. -1.
          2    1    1    2  501    0 -0.34721387426E+01 -0.21393668534E+02 -0.37262454869E+03  0.37325433566E+03  0.00000000000E+00 0. -1.
          2    1    1    2  502    0  0.34721387426E+01  0.21393668534E+02 -0.31098092564E+02  0.37905621772E+02  0.00000000000E+00 0. -1.
</event>
<event>
 4    1  0.6651744E+003  0.2002955E+02  0.7546771E-02  0.1533584E+00
          2   -1    0    0  502    0  0.00000000000E+00  0.00000000000E+00  0.12161813390E+04  0.12161813390E+04  0.00000000000E+00 0. -1.
          2   -1    0    0  501    0 -0.00000000000E+00 -0.00000000000E+00 -0.23989422600E+01  0.23989422600E+01  0.00000000000E+00 0. -1.
          2    1    1    2  501    0  0.12015164279E+02 -0.16025565171E+02  0.11727420591E+04  0.11729130914E+04  0.00000000000E+00 0. -1.
          2    1    1    2  502    0 -0.12015164279E+02  0.16025565171E+02  0.41040337653E+02  0.45667189824E+02  0.00000000000E+00 0. -1.
</event>
<event>
 4    1  0.6651744E+003  0.2566728E+02  0.7546771E-02  0.1461475E+00
          2   -1    0    0  501    0  0.00000000000E+00  0.00000000000E+00  0.57496292257E+01  0.57496292257E+01  0.00000000000E+00 0. -1.
          2   -1    0    0  502    0 -0.00000000000E+00 -0.00000000000E+00 -0.55521500489E+03  0.55521500489E+03  0.00000000000E+00 0. -1.
          2    1    1    2  501    0 -0.91259952020E+01 -0.23990110401E+02 -0.52460202121E+03  0.52522955918E+03  0.00000000000E+00 0. -1.
          2    1    1    2  502    0  0.91259952020E+01  0.23990110401E+02 -0.24863354455E+02  0.35735074930E+02  0.00000000000E+00 0. -1.
</event>
<event>
 4    1  0.6651744E+003  0.2297088E+02  0.7546771E-02  0.1492864E+00
          2   -1    0    0  502    0  0.00000000000E+00  0.00000000000E+00  0.11978134566E+02  0.11978134566E+02  0.00000000000E+00 0. -1.
          2   -1    0    0  501    0 -0.00000000000E+00 -0.00000000000E+00 -0.35960180009E+03  0.35960180009E+03  0.00000000000E+00 0. -1.
          2    1    1    2  501    0 -0.21906803774E+02 -0.69103896738E+01  0.22663105209E+00  0.22972002496E+02  0.00000000000E+00 0. -1.
          2    1    1    2  502    0  0.21906803774E+02  0.69103896738E+01 -0.34785029657E+03  0.34860793216E+03  0.00000000000E+00 0. -1.
</event>
<event>
 4    1  0.6651744E+003  0.2198664E+02  0.7546771E-02  0.1505631E+00
          2   -1    0    0  502    0  0.00000000000E+00  0.00000000000E+00  0.14362906926E+02  0.14362906926E+02  0.00000000000E+00 0. -1.
          2   -1    0    0  501    0 -0.00000000000E+00 -0.00000000000E+00 -0.68438746787E+03  0.68438746787E+03  0.00000000000E+00 0. -1.
          2    1    1    2  501    0  0.18418005297E+02 -0.12007894584E+02  0.56637690206E+01  0.22704420957E+02  0.00000000000E+00 0. -1.
          2    1    1    2  502    0 -0.18418005297E+02  0.12007894584E+02 -0.67568832996E+03  0.67604595384E+03  0.00000000000E+00 0. -1.
</event>
<event>
 4    1  0.6651744E+003  0.2374290E+02  0.7546771E-02  0.1483374E+00
          2   -1    0    0  502    0  0.00000000000E+00  0.00000000000E+00  0.20416268977E+03  0.20416268977E+03  0.00000000000E+00 0. -1.
          2   -1    0    0  501    0 -0.00000000000E+00 -0.00000000000E+00 -0.12580291847E+02  0.12580291847E+02  0.00000000000E+00 0.  1.
          2    1    1    2  501    0  0.13944461422E+02  0.19216591234E+02  0.19153403467E+03  0.19300003062E+03  0.00000000000E+00 0. -1.
          2    1    1    2  502    0 -0.13944461422E+02 -0.19216591234E+02  0.48363255387E-01  0.23742950997E+02  0.00000000000E+00 0.  1.
</event>
<event>
 4    1  0.6651744E+003  0.2849532E+02  0.7546771E-02  0.1433139E+00
          2   -1    0    0  501    0  0.00000000000E+00  0.00000000000E+00  0.98620071634E+03  0.98620071634E+03  0.00000000000E+00 0.  1.
          2   -1    0    0  502    0 -0.00000000000E+00 -0.00000000000E+00 -0.13955135818E+03  0.13955135818E+03  0.00000000000E+00 0.  1.
          2    1    1    2  501    0 -0.71318061009E+00 -0.28486398532E+02 -0.13788843340E+03  0.14080200139E+03  0.00000000000E+00 0.  1.
          2    1    1    2  502    0  0.71318061009E+00  0.28486398532E+02  0.98453779157E+03  0.98495007313E+03  0.00000000000E+00 0.  1.
</event>
<event>
 4    1  0.6651744E+003  0.2381185E+02  0.7546771E-02  0.1482548E+00
          2   -1    0    0  502    0  0.00000000000E+00  0.00000000000E+00  0.48196687687E+02  0.48196687687E+02  0.00000000000E+00 0.  1.
          2   -1    0    0  501    0 -0.00000000000E+00 -0.00000000000E+00 -0.71786646854E+03  0.71786646854E+03  0.00000000000E+00 0.  1.
          2    1    1    2  501    0  0.46016886933E+01  0.23362979711E+02  0.45045164838E+02  0.50951655862E+02  0.00000000000E+00 0.  1.
          2    1    1    2  502    0 -0.46016886933E+01 -0.23362979711E+02 -0.71471494569E+03  0.71511150036E+03  0.00000000000E+00 0.  1.
</event>
<event>
 4    1  0.6651744E+003  0.3927109E+02  0.7546771E-02  0.1352811E+00
          2   -1    0    0  501    0  0.00000000000E+00  0.00000000000E+00  0.34935423702E+04  0.34935423702E+04  0.00000000000E+00 0.  1.
          2   -1    0    0  502    0 -0.00000000000E+00 -0.00000000000E+00 -0.67920633104E+00  0.67920633104E+00  0.00000000000E+00 0. -1.
          2    1    1    2  501    0  0.25378027078E+02  0.29969550194E+02  0.71274895315E+03  0.71383001367E+03  0.00000000000E+00 0. -1.
          2    1    1    2  502    0 -0.25378027078E+02 -0.29969550194E+02  0.27801142108E+04  0.27803915629E+04  0.00000000000E+00 0.  1.
</event>
<event>
 4    1  0.6651744E+003  0.2215882E+02  0.7546771E-02  0.1503340E+00
          2   -1    0    0  501    0  0.00000000000E+00  0.00000000000E+00  0.42192023303E+00  0.42192023303E+00  0.00000000000E+00 0. -1.
          2   -1    0    0  502    0 -0.00000000000E+00 -0.00000000000E+00 -0.19524206270E+04  0.19524206270E+04  0.00000000000E+00 0. -1.
          2    1    1    2  501    0  0.15971990117E+02 -0.15359326641E+02 -0.15965767458E+04  0.15967305090E+04  0.00000000000E+00 0. -1.
          2    1    1    2  502    0 -0.15971990117E+02  0.15359326641E+02 -0.35542196099E+03  0.35611203818E+03  0.00000000000E+00 0. -1.
</event>
<event>
 4    1  0.6651744E+003  0.3402982E+02  0.7546771E-02  0.1387515E+00
          2   -1    0    0  501    0  0.00000000000E+00  0.00000000000E+00  0.89817572603E+03  0.89817572603E+03  0.00000000000E+00 0. -1.
          2   -1    0    0  502    0 -0.00000000000E+00 -0.00000000000E+00 -0.97942198285E+02  0.97942198285E+02  0.00000000000E+00 0. -1.
          2    1    1    2  501    0 -0.27985907464E+02  0.19360205741E+02 -0.94653112104E+02  0.10058449291E+03  0.00000000000E+00 0. -1.
          2    1    1    2  502    0  0.27985907464E+02 -0.19360205741E+02  0.89488663985E+03  0.89553343141E+03  0.00000000000E+00 0. -1.
</event>
<event>
 4    1  0.6917563E+003  0.3107531E+02  0.7546771E-02  0.1410476E+00
          2   -1    0    0  501    0  0.00000000000E+00  0.00000000000E+00  0.35612214598E+03  0.35612214598E+03  0.00000000000E+00 0. -1.
          2   -1    0    0  502    0 -0.00000000000E+00 -0.00000000000E+00 -0.78328190980E+03  0.78328190980E+03  0.00000000000E+00 0.  1.
          2    1    1    2  501    0  0.20121198311E+02 -0.23681473331E+02 -0.78229493072E+03  0.78291189378E+03  0.00000000000E+00 0.  1.
          2    1    1    2  502    0 -0.20121198311E+02  0.23681473331E+02  0.35513516690E+03  0.35649216200E+03  0.00000000000E+00 0. -1.
</event>
<event>
 4    1  0.6651744E+003  0.3782097E+02  0.7546771E-02  0.1361751E+00
          2   -1    0    0  501    0  0.00000000000E+00  0.00000000000E+00  0.41694544150E+01  0.41694544150E+01  0.00000000000E+00 0.  1.
          2   -1    0    0  502    0 -0.00000000000E+00 -0.00000000000E+00 -0.77336955124E+03  0.77336955124E+03  0.00000000000E+00 0.  1.
          2    1    1    2  501    0  0.22035709307E+01  0.37756721337E+02 -0.67458987964E+03  0.67564926659E+03  0.00000000000E+00 0.  1.
          2    1    1    2  502    0 -0.22035709307E+01 -0.37756721337E+02 -0.94610217188E+02  0.10188973907E+03  0.00000000000E+00 0.  1.
</event>
<event>
 4    1  0.6651744E+003  0.2265610E+02  0.7546771E-02  0.1496862E+00
          2   -1    0    0  501    0  0.00000000000E+00  0.00000000000E+00  0.65756765703E+03  0.65756765703E+03  0.00000000000E+00 0. -1.
          2   -1    0    0  502    0 -0.00000000000E+00 -0.00000000000E+00 -0.13500331921E+01  0.13500331921E+01  0.00000000000E+00 0. -1.
          2    1    1    2  501    0 -0.21049868796E+02  0.83786626219E+01  0.11414053931E+03  0.11636735658E+03  0.00000000000E+00 0. -1.
          2    1    1    2  502    0  0.21049868796E+02 -0.83786626219E+01  0.54207708453E+03  0.54255033364E+03  0.00000000000E+00 0. -1.
</event>
<event>
 4    1  0.6651744E+003  0.2189838E+02  0.7546771E-02  0.1506815E+00
          2   -1    0    0  501    0  0.00000000000E+00  0.00000000000E+00  0.22904302214E+02  0.22904302214E+02  0.00000000000E+00 0.  1.
          2   -1    0    0  502    0 -0.00000000000E+00 -0.00000000000E+00 -0.15612892807E+03  0.15612892807E+03  0.00000000000E+00 0.  1.
          2    1    1    2  501    0 -0.21891279520E+02  0.55746722384E+00 -0.14991095835E+03  0.15150192844E+03  0.00000000000E+00 0.  1.
          2    1    1    2  502    0  0.21891279520E+02 -0.55746722384E+00  0.16686332496E+02  0.27531301839E+02  0.00000000000E+00 0.  1.
</event>
<event>
 4    1  0.6651744E+003  0.2610636E+02  0.7546771E-02  0.1456797E+00
          2   -1    0    0  502    0  0.00000000000E+00  0.00000000000E+00  0.17248333192E+03  0.17248333192E+03  0.00000000000E+00 0. -1.
          2   -1    0    0  501    0 -0.00000000000E+00 -0.00000000000E+00 -0.24948808897E+03  0.24948808897E+03  0.00000000000E+00 0.  1.
          2    1    1    2  501    0 -0.85275745478E+01 -0.24674332228E+02  0.17080588525E+03  0.17278944596E+03  0.00000000000E+00 0. -1.
          2    1    1    2  502    0  0.85275745478E+01  0.24674332228E+02 -0.24781064229E+03  0.24918197494E+03  0.00000000000E+00 0.  1.
</event>
<event>
 4    1  0.6651744E+003  0.2918911E+02  0.7546771E-02  0.1426776E+00
          2   -1    0    0  501    0  0.00000000000E+00  0.00000000000E+00  0.87081661898E+01  0.87081661898E+01  0.00000000000E+00 0. -1.
          2   -1    0    0  502    0 -0.00000000000E+00 -0.00000000000E+00 -0.10430490545E+04  0.10430490545E+04  0.00000000000E+00 0. -1.
          2    1    1    2  501    0  0.20795417365E+02 -0.20483038567E+02 -0.10177777096E+04  0.10181961847E+04  0.00000000000E+00 0. -1.
          2    1    1    2  502    0 -0.20795417365E+02  0.20483038567E+02 -0.16563178722E+02  0.33561036064E+02  0.00000000000E+00 0. -1.
</event>
<event>
 4    1  0.6651744E+003  0.2997603E+02  0.7546771E-02  0.1419805E+00
          2   -1    0    0  501    0  0.00000000000E+00  0.00000000000E+00  0.95873114417E+00  0.95873114417E+00  0.00000000000E+00 0. -1.
          2   -1    0    0  502    0 -0.00000000000E+00 -0.00000000000E+00 -0.16635779834E+04  0.16635779834E+04  0.00000000000E+00 0. -1.
          2    1    1    2  501    0 -0.10543253994E+02  0.28060689752E+02 -0.13812438683E+04  0.13815691029E+04  0.00000000000E+00 0. -1.
          2    1    1    2  502    0  0.10543253994E+02 -0.28060689752E+02 -0.28137538398E+03  0.28296761161E+03  0.00000000000E+00 0. -1.
</event>
<event>
 4    1  0.6651744E+003  0.2389144E+02  0.7546771E-02  0.1481598E+00
          2   -1    0    0  501    0  0.00000000000E+00  0.00000000000E+00  0.51885632516E+03  0.51885632516E+03  0.00000000000E+00 0.  1.
          2   -1    0    0  502    0 -0.00000000000E+00 -0.00000000000E+00 -0.14943997008E+01  0.14943997008E+01  0.00000000000E+00 0.  1.
          2    1    1    2  501    0  0.67312054560E+01  0.22923609419E+02  0.39232156197E+03  0.39304835451E+03  0.00000000000E+00 0.  1.
          2    1    1    2  502    0 -0.67312054560E+01 -0.22923609419E+02  0.12504036349E+03  0.12730237035E+03  0.00000000000E+00 0.  1.
</event>
<event>
 4    1  0.6651744E+003  0.2887102E+02  0.7546771E-02  0.1429668E+00
          2   -1    0    0  501    0  0.00000000000E+00  0.00000000000E+00  0.32072064012E+02  0.32072064012E+02  0.00000000000E+00 0. -1.
          2   -1    0    0  502    0 -0.00000000000E+00 -0.00000000000E+00 -0.75979427821E+02  0.75979427821E+02  0.00000000000E+00 0.  1.
          2    1    1    2  501    0 -0.96584331116E+01  0.27207543331E+02 -0.65775881726E+02  0.71833156419E+02  0.00000000000E+00 0.  1.
          2    1    1    2  502    0  0.96584331116E+01 -0.27207543331E+02  0.21868517916E+02  0.36218335414E+02  0.00000000000E+00 0. -1.
</event>
<event>
 4    1  0.6651744E+003  0.2121456E+02  0.7546771E-02  0.1516223E+00
          2   -1    0    0  502    0  0.00000000000E+00  0.00000000000E+00  0.80909852454E+03  0.80909852454E+03  0.00000000000E+00 0. -1.
          2   -1    0    0  501    0 -0.00000000000E+00 -0.00000000000E+00 -0.97847531402E+00  0.97847531402E+00  0.00000000000E+00 0.  1.
          2    1    1    2  501    0  0.98837510981E+01  0.18771496853E+02  0.67012988373E+03  0.67046559844E+03  0.00000000000E+00 0. -1.
          2    1    1    2  502    0 -0.98837510981E+01 -0.18771496853E+02  0.13799016550E+03  0.13961140141E+03  0.00000000000E+00 0.  1.
</event>
<event>
 4    1  0.6651744E+003  0.2629199E+02  0.7546771E-02  0.1454853E+00
          2   -1    0    0  502    0  0.00000000000E+00  0.00000000000E+00  0.66981566937E+02  0.66981566937E+02  0.00000000000E+00 0. -1.
          2   -1    0    0  501    0 -0.00000000000E+00 -0.00000000000E+00 -0.14900841147E+03  0.14900841147E+03  0.00000000000E+00 0. -1.
          2    1    1    2  501    0  0.24492638423E+02  0.95592447637E+01  0.63174616295E+02  0.68427338406E+02  0.00000000000E+00 0. -1.
          2    1    1    2  502    0 -0.24492638423E+02 -0.95592447637E+01 -0.14520146083E+03  0.14756264000E+03  0.00000000000E+00 0. -1.
</event>
<event>
 4    1  0.6651744E+003  0.2147120E+02  0.7546771E-02  0.1512642E+00
          2   -1    0    0  502    0  0.00000000000E+00  0.00000000000E+00  0.15445762221E+01  0.15445762221E+01  0.00000000000E+00 0.  1.
          2   -1    0    0  501    0 -0.00000000000E+00 -0.00000000000E+00 -0.48790607309E+03  0.48790607309E+03  0.00000000000E+00 0. -1.
          2    1    1    2  501    0  0.15728405821E+02  0.14616079845E+02 -0.90691224293E+02  0.93198233371E+02  0.00000000000E+00 0.  1.
          2    1    1    2  502    0 -0.15728405821E+02 -0.14616079845E+02 -0.39567027258E+03  0.39625241594E+03  0.00000000000E+00 0. -1.
</event>
<event>
 4    1  0.6651744E+003  0.2591082E+02  0.7546771E-02  0.1458867E+00
          2   -1    0    0  502    0  0.00000000000E+00  0.00000000000E+00  0.18729604980E+02  0.18729604980E+02  0.00000000000E+00 0.  1.
          2   -1    0    0  501    0 -0.00000000000E+00 -0.00000000000E+00 -0.48390740450E+02  0.48390740450E+02  0.00000000000E+00 0.  1.
          2    1    1    2  501    0  0.25776705097E+02 -0.26328957475E+01  0.22571409928E+01  0.26008947521E+02  0.00000000000E+00 0.  1.
          2    1    1    2  502    0 -0.25776705097E+02  0.26328957475E+01 -0.31918276463E+02  0.41111397909E+02  0.00000000000E+00 0.  1.
</event>
<event>
 4    1  0.6651744E+003  0.2211932E+02  0.7546771E-02  0.1503863E+00
          2   -1    0    0  502    0  0.00000000000E+00  0.00000000000E+00  0.36402642385E+03  0.36402642385E+03  0.00000000000E+00 0.  1.
          2   -1    0    0  501    0 -0.00000000000E+00 -0.00000000000E+00 -0.29610558111E+01  0.29610558111E+01  0.00000000000E+00 0.  1.
          2    1    1    2  501    0  0.10030278479E+02 -0.19714402605E+02  0.31613146850E+03  0.31690435391E+03  0.00000000000E+00 0.  1.
          2    1    1    2  502    0 -0.10030278479E+02  0.19714402605E+02  0.44933899544E+02  0.50083125748E+02  0.00000000000E+00 0.  1.
</event>
<event>
 4    1  0.6651744E+003  0.2201617E+02  0.7546771E-02  0.1505236E+00
          2   -1    0    0  502    0  0.00000000000E+00  0.00000000000E+00  0.15679025040E+01  0.15679025040E+01  0.00000000000E+00 0. -1.
          2   -1    0    0  501    0 -0.00000000000E+00 -0.00000000000E+00 -0.49468612606E+03  0.49468612606E+03  0.00000000000E+00 0. -1.
          2    1    1    2  501    0 -0.97650517342E+01 -0.19732091302E+02 -0.94599752036E+02  0.97127878324E+02  0.00000000000E+00 0. -1.
          2    1    1    2  502    0  0.97650517342E+01  0.19732091302E+02 -0.39851847152E+03  0.39912615024E+03  0.00000000000E+00 0. -1.
</event>
<event>
 4    1  0.6651744E+003  0.2217564E+02  0.7546771E-02  0.1503117E+00
          2   -1    0    0  502    0  0.00000000000E+00  0.00000000000E+00  0.98231362093E+00  0.98231362093E+00  0.00000000000E+00 0.  1.
          2   -1    0    0  501    0 -0.00000000000E+00 -0.00000000000E+00 -0.76517252046E+03  0.76517252046E+03  0.00000000000E+00 0.  1.
          2    1    1    2  501    0 -0.15191571652E+02 -0.16154721534E+02 -0.15684311058E+03  0.15840303095E+03  0.00000000000E+00 0.  1.
          2    1    1    2  502    0  0.15191571652E+02  0.16154721534E+02 -0.60734709626E+03  0.60775180313E+03  0.00000000000E+00 0.  1.
</event>
<event>
 4    1  0.6651744E+003  0.2907955E+02  0.7546771E-02  0.1427767E+00
          2   -1    0    0  501    0  0.00000000000E+00  0.00000000000E+00  0.19897860263E+02  0.19897860263E+02  0.00000000000E+00 0. -1.
          2   -1    0    0  502    0 -0.00000000000E+00 -0.00000000000E+00 -0.47781897204E+03  0.47781897204E+03  0.00000000000E+00 0. -1.
          2    1    1    2  501    0 -0.16794222616E+02 -0.23739725469E+02 -0.46649434829E+03  0.46739982613E+03  0.00000000000E+00 0. -1.
          2    1    1    2  502    0  0.16794222616E+02  0.23739725469E+02  0.85732365183E+01  0.30317006168E+02  0.00000000000E+00 0. -1.
</event>
<event>
 4    1  0.6651744E+003  0.2267059E+02  0.7546771E-02  0.1496676E+00
          2   -1    0    0  501    0  0.00000000000E+00  0.00000000000E+00  0.74989315332E+02  0.74989315332E+02  0.00000000000E+00 0.  1.
          2   -1    0    0  502    0 -0.00000000000E+00 -0.00000000000E+00 -0.18707384575E+02  0.18707384575E+02  0.00000000000E+00 0. -1.
          2    1    1    2  501    0  0.14263303061E+02 -0.17621405669E+02 -0.91508979085E+01  0.24447795084E+02  0.00000000000E+00 0. -1.
          2    1    1    2  502    0 -0.14263303061E+02  0.17621405669E+02  0.65432828666E+02  0.69248904823E+02  0.00000000000E+00 0.  1.
</event>
<event>
 4    1  0.6651744E+003  0.2799710E+02  0.7546771E-02  0.1437841E+00
          2   -1    0    0  501    0  0.00000000000E+00  0.00000000000E+00  0.85381280602E+02  0.85381280602E+02  0.00000000000E+00 0. -1.
          2   -1    0    0  502    0 -0.00000000000E+00 -0.00000000000E+00 -0.18491304110E+03  0.18491304110E+03  0.00000000000E+00 0.  1.
          2    1    1    2  501    0  0.88722586815E+01 -0.26554109179E+02 -0.18151548626E+03  0.18366194336E+03  0.00000000000E+00 0.  1.
          2    1    1    2  502    0 -0.88722586815E+01  0.26554109179E+02  0.81983725757E+02  0.86632378343E+02  0.00000000000E+00 0. -1.
</event>
<event>
 4    1  0.6651744E+003  0.2085574E+02  0.7546771E-02  0.1521335E+00
          2   -1    0    0  502    0  0.00000000000E+00  0.00000000000E+00  0.65361717917E+02  0.65361717917E+02  0.00000000000E+00 0.  1.
          2   -1    0    0  501    0 -0.00000000000E+00 -0.00000000000E+00 -0.85347791247E+03  0.85347791247E+03  0.00000000000E+00 0.  1.
          2    1    1    2  501    0 -0.17492766367E+02  0.11356274923E+02  0.63567132208E+02  0.66900987679E+02  0.00000000000E+00 0.  1.
          2    1    1    2  502    0  0.17492766367E+02 -0.11356274923E+02 -0.85168332676E+03  0.85193864271E+03  0.00000000000E+00 0.  1.
</event>
<event>
 4    1  0.6651744E+003  0.2077642E+02  0.7546771E-02  0.1522481E+00
          2   -1    0    0  502    0  0.00000000000E+00  0.00000000000E+00  0.20208613224E+04  0.20208613224E+04  0.00000000000E+00 0. -1.
          2   -1    0    0  501    0 -0.00000000000E+00 -0.00000000000E+00 -0.22827776060E+00  0.22827776060E+00  0.00000000000E+00 0.  1.
          2    1    1    2  501    0  0.14438743092E+02 -0.14939282532E+02  0.12665454427E+04  0.12667158394E+04  0.00000000000E+00 0. -1.
          2    1    1    2  502    0 -0.14438743092E+02  0.14939282532E+02  0.75408760196E+03  0.75437376074E+03  0.00000000000E+00 0.  1.
</event>
<event>
 4    1  0.6651744E+003  0.3117085E+02  0.7546771E-02  0.1409687E+00
          2   -1    0    0  501    0  0.00000000000E+00  0.00000000000E+00  0.89011693016E+03  0.89011693016E+03  0.00000000000E+00 0.  1.
          2   -1    0    0  502    0 -0.00000000000E+00 -0.00000000000E+00 -0.21583159494E+03  0.21583159494E+03  0.00000000000E+00 0.  1.
          2    1    1    2  501    0  0.15473259651E+02  0.27059195690E+02 -0.21443149105E+03  0.21668522375E+03  0.00000000000E+00 0.  1.
          2    1    1    2  502    0 -0.15473259651E+02 -0.27059195690E+02  0.88871682628E+03  0.88926330136E+03  0.00000000000E+00 0.  1.
</event>
<event>
 4    1  0.6651744E+003  0.5036047E+02  0.7546771E-02  0.1296617E+00
          2   -1    0    0  502    0  0.00000000000E+00  0.00000000000E+00  0.81523956086E+03  0.81523956086E+03  0.00000000000E+00 0. -1.
          2   -1    0    0  501    0 -0.00000000000E+00 -0.00000000000E+00 -0.23469448629E+02  0.23469448629E+02  0.00000000000E+00 0.  1.
          2    1    1    2  501    0  0.50360292523E+02  0.13403819763E+00  0.78645844000E+03  0.78806919422E+03  0.00000000000E+00 0. -1.
          2    1    1    2  502    0 -0.50360292523E+02 -0.13403819763E+00  0.53116722375E+01  0.50639815276E+02  0.00000000000E+00 0.  1.
</event>
<event>
 4    1  0.6651744E+003  0.2323540E+02  0.7546771E-02  0.1489563E+00
          2   -1    0    0  502    0  0.00000000000E+00  0.00000000000E+00  0.34981271416E+03  0.34981271416E+03  0.00000000000E+00 0.  1.
          2   -1    0    0  501    0 -0.00000000000E+00 -0.00000000000E+00 -0.77801469229E+01  0.77801469229E+01  0.00000000000E+00 0. -1.
          2    1    1    2  501    0 -0.22443562680E+02 -0.60141650767E+01  0.33109947118E+03  0.33191375914E+03  0.00000000000E+00 0.  1.
          2    1    1    2  502    0  0.22443562680E+02  0.60141650767E+01  0.10933096053E+02  0.25679101944E+02  0.00000000000E+00 0. -1.
</event>
<event>
 4    1  0.6651744E+003  0.3600034E+02  0.7546771E-02  0.1373664E+00
          2   -1    0    0  501    0  0.00000000000E+00  0.00000000000E+00  0.17283734904E+02  0.17283734904E+02  0.00000000000E+00 0.  1.
          2   -1    0    0  502    0 -0.00000000000E+00 -0.00000000000E+00 -0.26113015784E+03  0.26113015784E+03  0.00000000000E+00 0.  1.
          2    1    1    2  501    0 -0.28904894236E+02  0.21460006588E+02 -0.23945571788E+03  0.24214678528E+03  0.00000000000E+00 0.  1.
          2    1    1    2  502    0  0.28904894236E+02 -0.21460006588E+02 -0.43907050598E+01  0.36267107473E+02  0.00000000000E+00 0.  1.
</event>
<event>
 4    1  0.6651744E+003  0.4572616E+02  0.7546771E-02  0.1317848E+00
          2   -1    0    0  501    0  0.00000000000E+00  0.00000000000E+00  0.69636827826E+03  0.69636827826E+03  0.00000000000E+00 0.  1.
          2   -1    0    0  502    0 -0.00000000000E+00 -0.00000000000E+00 -0.89742349783E+01  0.89742349783E+01  0.00000000000E+00 0.  1.
          2    1    1    2  501    0  0.44984980553E+02  0.81995875105E+01  0.56010356260E+02  0.72305198424E+02  0.00000000000E+00 0.  1.
          2    1    1    2  502    0 -0.44984980553E+02 -0.81995875105E+01  0.63138368702E+03  0.63303731481E+03  0.00000000000E+00 0.  1.
</event>
<event>
 4    1  0.6651744E+003  0.2466937E+02  0.7546771E-02  0.1472536E+00
          2   -1    0    0  502    0  0.00000000000E+00  0.00000000000E+00  0.72580374022E+03  0.72580374022E+03  0.00000000000E+00 0.  1.
          2   -1    0    0  501    0 -0.00000000000E+00 -0.00000000000E+00 -0.26429898171E+01  0.26429898171E+01  0.00000000000E+00 0.  1.
          2    1    1    2  501    0 -0.20163104091E+02 -0.14213628604E+02  0.66253337269E+03  0.66299249463E+03  0.00000000000E+00 0.  1.
          2    1    1    2  502    0  0.20163104091E+02  0.14213628604E+02  0.60627377711E+02  0.65454235407E+02  0.00000000000E+00 0.  1.
</event>
<event>
 4    1  0.6651744E+003  0.3801023E+02  0.7546771E-02  0.1360557E+00
          2   -1    0    0  501    0  0.00000000000E+00  0.00000000000E+00  0.18673066615E+03  0.18673066615E+03  0.00000000000E+00 0. -1.
          2   -1    0    0  502    0 -0.00000000000E+00 -0.00000000000E+00 -0.95067165743E+01  0.95067165743E+01  0.00000000000E+00 0. -1.
          2    1    1    2  501    0 -0.36587730435E+02 -0.10301243346E+02  0.46280789902E+02  0.59888973499E+02  0.00000000000E+00 0. -1.
          2    1    1    2  502    0  0.36587730435E+02  0.10301243346E+02  0.13094315968E+03  0.13634840923E+03  0.00000000000E+00 0. -1.
</event>
<event>
 4    1  0.6651744E+003  0.2885288E+02  0.7546771E-02  0.1429834E+00
          2   -1    0    0  501    0  0.00000000000E+00  0.00000000000E+00  0.10198459569E+03  0.10198459569E+03  0.00000000000E+00 0.  1.
          2   -1    0    0  502    0 -0.00000000000E+00 -0.00000000000E+00 -0.17019824601E+02  0.17019824601E+02  0.00000000000E+00 0. -1.
          2    1    1    2  501    0  0.27557786517E+02  0.85473495550E+01 -0.44133289447E+00  0.28856256806E+02  0.00000000000E+00 0. -1.
          2    1    1    2  502    0 -0.27557786517E+02 -0.85473495550E+01  0.85406103979E+02  0.90148163481E+02  0.00000000000E+00 0.  1.
</event>
<event>
 4    1  0.6651744E+003  0.2495220E+02  0.7546771E-02  0.1469339E+00
          2   -1    0    0  501    0  0.00000000000E+00  0.00000000000E+00  0.32179940102E+03  0.32179940102E+03  0.00000000000E+00 0. -1.
          2   -1    0    0  502    0 -0.00000000000E+00 -0.00000000000E+00 -0.42692021601E+01  0.42692021601E+01  0.00000000000E+00 0.  1.
          2    1    1    2  501    0 -0.18737925484E+02 -0.16477335479E+02  0.38207407818E+02  0.45633523293E+02  0.00000000000E+00 0.  1.
          2    1    1    2  502    0  0.18737925484E+02  0.16477335479E+02  0.27932279104E+03  0.28043507988E+03  0.00000000000E+00 0. -1.
</event>
<event>
 4    1  0.6651744E+003  0.3710622E+02  0.7546771E-02  0.1366332E+00
          2   -1    0    0  502    0  0.00000000000E+00  0.00000000000E+00  0.50010735725E+00  0.50010735725E+00  0.00000000000E+00 0. -1.
          2   -1    0    0  501    0 -0.00000000000E+00 -0.00000000000E+00 -0.27879444693E+04  0.27879444693E+04  0.00000000000E+00 0.  1.
          2    1    1    2  501    0 -0.19488949456E+02 -0.31576135930E+02 -0.12379702883E+04  0.12385262638E+04  0.00000000000E+00 0.  1.
          2    1    1    2  502    0  0.19488949456E+02  0.31576135930E+02 -0.15494740737E+04  0.15499183129E+04  0.00000000000E+00 0. -1.
</event>
<event>
 4    1  0.6651744E+003  0.4949935E+02  0.7546771E-02  0.1300358E+00
          2   -1    0    0  501    0  0.00000000000E+00  0.00000000000E+00  0.63591143952E+03  0.63591143952E+03  0.00000000000E+00 0.  1.
          2   -1    0    0  502    0 -0.00000000000E+00 -0.00000000000E+00 -0.78900230213E+01  0.78900230213E+01  0.00000000000E+00 0.  1.
          2    1    1    2  501    0 -0.49348519176E+02  0.38612041868E+01  0.83754218743E+02  0.97287997204E+02  0.00000000000E+00 0.  1.
          2    1    1    2  502    0  0.49348519176E+02 -0.38612041868E+01  0.54426719776E+03  0.54651346534E+03  0.00000000000E+00 0.  1.
</event>
<event>
 4    1  0.2096076E+004  0.2836833E+02  0.7546771E-02  0.1434327E+00
          2   -1    0    0  502    0  0.00000000000E+00  0.00000000000E+00  0.14539347724E+04  0.14539347724E+04  0.00000000000E+00 0. -1.
          2   -1    0    0  501    0 -0.00000000000E+00 -0.00000000000E+00 -0.18012581839E+04  0.18012581839E+04  0.00000000000E+00 0. -1.
          2    1    1    2  501    0  0.29468557400E+01 -0.28214857171E+02  0.14536846822E+04  0.14539614566E+04  0.00000000000E+00 0. -1.
          2    1    1    2  502    0 -0.29468557400E+01  0.28214857171E+02 -0.18010080937E+04  0.18012314997E+04  0.00000000000E+00 0. -1.
</event>
<event>
 4    1  0.6651744E+003  0.4069089E+02  0.7546771E-02  0.1344484E+00
          2   -1    0    0  502    0  0.00000000000E+00  0.00000000000E+00  0.34414162863E+03  0.34414162863E+03  0.00000000000E+00 0. -1.
          2   -1    0    0  501    0 -0.00000000000E+00 -0.00000000000E+00 -0.11534925464E+02  0.11534925464E+02  0.00000000000E+00 0.  1.
          2    1    1    2  501    0 -0.40544398196E+02 -0.34496833715E+01  0.30207887530E+03  0.30480714468E+03  0.00000000000E+00 0. -1.
          2    1    1    2  502    0  0.40544398196E+02  0.34496833715E+01  0.30527827858E+02  0.50869409414E+02  0.00000000000E+00 0.  1.
</event>
<event>
 4    1  0.6651744E+003  0.2330149E+02  0.7546771E-02  0.1488747E+00
          2   -1    0    0  502    0  0.00000000000E+00  0.00000000000E+00  0.40907472972E+03  0.40907472972E+03  0.00000000000E+00 0.  1.
          2   -1    0    0  501    0 -0.00000000000E+00 -0.00000000000E+00 -0.31951734049E+01  0.31951734049E+01  0.00000000000E+00 0.  1.
          2    1    1    2  501    0 -0.22721264598E+02  0.51675447009E+01  0.36054830260E+03  0.36130048144E+03  0.00000000000E+00 0.  1.
          2    1    1    2  502    0  0.22721264598E+02 -0.51675447009E+01  0.45331253712E+02  0.50969421679E+02  0.00000000000E+00 0.  1.
</event>
<event>
 4    1  0.6651744E+003  0.3173962E+02  0.7546771E-02  0.1405058E+00
          2   -1    0    0  502    0  0.00000000000E+00  0.00000000000E+00  0.57710546263E+01  0.57710546263E+01  0.00000000000E+00 0.  1.
          2   -1    0    0  501    0 -0.00000000000E+00 -0.00000000000E+00 -0.51771142596E+03  0.51771142596E+03  0.00000000000E+00 0. -1.
          2    1    1    2  501    0 -0.30974109076E+02  0.69288017811E+01 -0.42876657284E+02  0.53346147630E+02  0.00000000000E+00 0.  1.
          2    1    1    2  502    0  0.30974109076E+02 -0.69288017811E+01 -0.46906371405E+03  0.47013633295E+03  0.00000000000E+00 0. -1.
</event>
<event>
 4    1  0.6651744E+003  0.2658733E+02  0.7546771E-02  0.1451798E+00
          2   -1    0    0  502    0  0.00000000000E+00  0.00000000000E+00  0.34759024952E+02  0.34759024952E+02  0.00000000000E+00 0. -1.
          2   -1    0    0  501    0 -0.00000000000E+00 -0.00000000000E+00 -0.27225971809E+02  0.27225971809E+02  0.00000000000E+00 0.  1.
          2    1    1    2  501    0 -0.19698090807E+02  0.17856968485E+02  0.19356648743E+02  0.32887170074E+02  0.00000000000E+00 0. -1.
          2    1    1    2  502    0  0.19698090807E+02 -0.17856968485E+02 -0.11823595600E+02  0.29097826686E+02  0.00000000000E+00 0.  1.
</event>
<event>
 4    1  0.6651744E+003  0.2330482E+02  0.7546771E-02  0.1488706E+00
          2   -1    0    0  502    0  0.00000000000E+00  0.00000000000E+00  0.17896518705E+03  0.17896518705E+03  0.00000000000E+00 0. -1.
          2   -1    0    0  501    0 -0.00000000000E+00 -0.00000000000E+00 -0.28365230256E+02  0.28365230256E+02  0.00000000000E+00 0. -1.
          2    1    1    2  501    0  0.19544693533E+02 -0.12693286247E+02  0.17326286719E+03  0.17482315552E+03  0.00000000000E+00 0. -1.
          2    1    1    2  502    0 -0.19544693533E+02  0.12693286247E+02 -0.22662910394E+02  0.32507261783E+02  0.00000000000E+00 0. -1.
</event>
<event>
 4    1  0.6651744E+003  0.4367059E+02  0.7546771E-02  0.1328222E+00
          2   -1    0    0  502    0  0.00000000000E+00  0.00000000000E+00  0.12833077926E+03  0.12833077926E+03  0.00000000000E+00 0. -1.
          2   -1    0    0  501    0 -0.00000000000E+00 -0.00000000000E+00 -0.36846661199E+03  0.36846661199E+03  0.00000000000E+00 0. -1.
          2    1    1    2  501    0 -0.42757084622E+02  0.88855182815E+01  0.12327002479E+03  0.13077698472E+03  0.00000000000E+00 0. -1.
          2    1    1    2  502    0  0.42757084622E+02 -0.88855182815E+01 -0.36340585752E+03  0.36602040653E+03  0.00000000000E+00 0. -1.
</event>
<event>
 4    1  0.6651744E+003  0.2059416E+02  0.7546771E-02  0.1525139E+00
          2   -1    0    0  502    0  0.00000000000E+00  0.00000000000E+00  0.12737111845E+02  0.12737111845E+02  0.00000000000E+00 0.  1.
          2   -1    0    0  501    0 -0.00000000000E+00 -0.00000000000E+00 -0.43389667646E+02  0.43389667646E+02  0.00000000000E+00 0. -1.
          2    1    1    2  501    0  0.66643497567E+01 -0.19486046028E+02 -0.17921651026E+01  0.20671995628E+02  0.00000000000E+00 0. -1.
          2    1    1    2  502    0 -0.66643497567E+01  0.19486046028E+02 -0.28860390699E+02  0.35454783863E+02  0.00000000000E+00 0.  1.
</event>
<event>
 4    1  0.6651744E+003  0.2388779E+02  0.7546771E-02  0.1481641E+00
          2   -1    0    0  501    0  0.00000000000E+00  0.00000000000E+00  0.82016979241E+03  0.82016979241E+03  0.00000000000E+00 0. -1.
          2   -1    0    0  502    0 -0.00000000000E+00 -0.00000000000E+00 -0.38984813628E+01  0.38984813628E+01  0.00000000000E+00 0. -1.
          2    1    1    2  501    0  0.23017880090E+02 -0.63877757035E+01  0.34673780252E+02  0.42105789617E+02  0.00000000000E+00 0. -1.
          2    1    1    2  502    0 -0.23017880090E+02  0.63877757035E+01  0.78159753079E+03  0.78196248415E+03  0.00000000000E+00 0. -1.
</event>
<event>
 4    1  0.6651744E+003  0.2374067E+02  0.7546771E-02  0.1483401E+00
          2   -1    0    0  501    0  0.00000000000E+00  0.00000000000E+00  0.64238525777E+03  0.64238525777E+03  0.00000000000E+00 0.  1.
          2   -1    0    0  502    0 -0.00000000000E+00 -0.00000000000E+00 -0.30504635470E+01  0.30504635470E+01  0.00000000000E+00 0. -1.
          2    1    1    2  501    0 -0.21155913947E+02 -0.10772509120E+02  0.47285824474E+02  0.52910952022E+02  0.00000000000E+00 0. -1.
          2    1    1    2  502    0  0.21155913947E+02  0.10772509120E+02  0.59204896974E+03  0.59252476929E+03  0.00000000000E+00 0.  1.
</event>
<event>
 4    1  0.6651744E+003  0.2088640E+02  0.7546771E-02  0.1520893E+00
          2   -1    0    0  502    0  0.00000000000E+00  0.00000000000E+00  0.93815881156E+01  0.93815881156E+01  0.00000000000E+00 0. -1.
          2   -1    0    0  501    0 -0.00000000000E+00 -0.00000000000E+00 -0.13797951121E+03  0.13797951121E+03  0.00000000000E+00 0. -1.
          2    1    1    2  501    0  0.12772359303E+02  0.16525994437E+02 -0.43049325578E+01  0.21325433140E+02  0.00000000000E+00 0. -1.
          2    1    1    2  502    0 -0.12772359303E+02 -0.16525994437E+02 -0.12429299053E+03  0.12603566618E+03  0.00000000000E+00 0. -1.
</event>
<event>
 4    1  0.6651744E+003  0.2616522E+02  0.7546771E-02  0.1456179E+00
          2   -1    0    0  502    0  0.00000000000E+00  0.00000000000E+00  0.15890925656E+03  0.15890925656E+03  0.00000000000E+00 0.  1.
          2   -1    0    0  501    0 -0.00000000000E+00 -0.00000000000E+00 -0.86290824668E+02  0.86290824668E+02  0.00000000000E+00 0. -1.
          2    1    1    2  501    0 -0.85420126209E+01 -0.24731613995E+02  0.15580954904E+03  0.15799124748E+03  0.00000000000E+00 0.  1.
          2    1    1    2  502    0  0.85420126209E+01  0.24731613995E+02 -0.83191117147E+02  0.87208833742E+02  0.00000000000E+00 0. -1.
</event>
<event>
 4    1  0.6651744E+003  0.8466652E+02  0.7546771E-02  0.1193409E+00
          2   -1    0    0  501    0  0.00000000000E+00  0.00000000000E+00  0.12096796169E+03  0.12096796169E+03  0.00000000000E+00 0.  1.
          2   -1    0    0  502    0 -0.00000000000E+00 -0.00000000000E+00 -0.29724586257E+04  0.29724586257E+04  0.00000000000E+00 0.  1.
          2    1    1    2  501    0  0.42340201996E+01 -0.84560590530E+02 -0.29569633970E+04  0.29581752739E+04  0.00000000000E+00 0.  1.
          2    1    1    2  502    0 -0.42340201996E+01  0.84560590530E+02  0.10547273294E+03  0.13525131346E+03  0.00000000000E+00 0.  1.
</event>
<event>
 4    1  0.6651744E+003  0.2036572E+02  0.7546771E-02  0.1528517E+00
          2   -1    0    0  502    0  0.00000000000E+00  0.00000000000E+00  0.46062914048E+00  0.46062914048E+00  0.00000000000E+00 0. -1.
          2   -1    0    0  501    0 -0.00000000000E+00 -0.00000000000E+00 -0.94433665768E+03  0.94433665768E+03  0.00000000000E+00 0. -1.
          2    1    1    2  501    0 -0.17349943297E+02  0.10664987665E+02 -0.37007189526E+03  0.37063185259E+03  0.00000000000E+00 0. -1.
          2    1    1    2  502    0  0.17349943297E+02 -0.10664987665E+02 -0.57380413328E+03  0.57416543423E+03  0.00000000000E+00 0. -1.
</event>
<event>
 4    1  0.6651744E+003  0.4263997E+02  0.7546771E-02  0.1333673E+00
          2   -1    0    0  502    0  0.00000000000E+00  0.00000000000E+00  0.68775984405E+03  0.68775984405E+03  0.00000000000E+00 0. -1.
          2   -1    0    0  501    0 -0.00000000000E+00 -0.00000000000E+00 -0.39364324928E+01  0.39364324928E+01  0.00000000000E+00 0. -1.
          2    1    1    2  501    0  0.22045804558E+02 -0.36498618163E+02  0.54011187414E+03  0.54179239863E+03  0.00000000000E+00 0. -1.
          2    1    1    2  502    0 -0.22045804558E+02  0.36498618163E+02  0.14371153741E+03  0.14990387791E+03  0.00000000000E+00 0. -1.
</event>
<event>
 4    1  0.6651744E+003  0.2022975E+02  0.7546771E-02  0.1530552E+00
          2   -1    0    0  502    0  0.00000000000E+00  0.00000000000E+00  0.72236697515E+02  0.72236697515E+02  0.00000000000E+00 0.  1.
          2   -1    0    0  501    0 -0.00000000000E+00 -0.00000000000E+00 -0.40189644815E+02  0.40189644815E+02  0.00000000000E+00 0.  1.
          2    1    1    2  501    0 -0.81551404590E+01  0.18513139287E+02  0.68124245474E+02  0.71064445847E+02  0.00000000000E+00 0.  1.
          2    1    1    2  502    0  0.81551404590E+01 -0.18513139287E+02 -0.36077192774E+02  0.41361896483E+02  0.00000000000E+00 0.  1.
</event>
<event>
 4    1  0.6651744E+003  0.2232833E+02  0.7546771E-02  0.1501109E+00
          2   -1    0    0  502    0  0.00000000000E+00  0.00000000000E+00  0.11797247981E+01  0.11797247981E+01  0.00000000000E+00 0. -1.
          2   -1    0    0  501    0 -0.00000000000E+00 -0.00000000000E+00 -0.10711694735E+04  0.10711694735E+04  0.00000000000E+00 0. -1.
          2    1    1    2  501    0  0.16870204156E+02  0.14627051215E+02 -0.11778495724E+03  0.11988265332E+03  0.00000000000E+00 0. -1.
          2    1    1    2  502    0 -0.16870204156E+02 -0.14627051215E+02 -0.95220479147E+03  0.95246654499E+03  0.00000000000E+00 0. -1.
</event>
<event>
 4    1  0.6651744E+003  0.2860116E+02  0.7546771E-02  0.1432155E+00
          2   -1    0    0  501    0  0.00000000000E+00  0.00000000000E+00  0.39983646474E+02  0.39983646474E+02  0.00000000000E+00 0.  1.
          2   -1    0    0  502    0 -0.00000000000E+00 -0.00000000000E+00 -0.21330595338E+02  0.21330595338E+02  0.00000000000E+00 0. -1.
          2    1    1    2  501    0  0.78168606764E+01  0.27512229320E+02  0.31295001328E+01  0.28771858544E+02  0.00000000000E+00 0. -1.
          2    1    1    2  502    0 -0.78168606764E+01 -0.27512229320E+02  0.15523551003E+02  0.32542383268E+02  0.00000000000E+00 0.  1.
</event>
<event>
 4    1  0.6651744E+003  0.7632095E+02  0.7546771E-02  0.1212656E+00
          2   -1    0    0  501    0  0.00000000000E+00  0.00000000000E+00  0.15930888288E+03  0.15930888288E+03  0.00000000000E+00 0.  1.
          2   -1    0    0  502    0 -0.00000000000E+00 -0.00000000000E+00 -0.40897361427E+03  0.40897361427E+03  0.00000000000E+00 0. -1.
          2    1    1    2  501    0 -0.67892242283E+02  0.34864468624E+02 -0.39597473269E+03  0.40326278859E+03  0.00000000000E+00 0. -1.
          2    1    1    2  502    0  0.67892242283E+02 -0.34864468624E+02  0.14631000130E+03  0.16501970857E+03  0.00000000000E+00 0.  1.
</event>
<event>
 4    1  0.6651744E+003  0.2064056E+02  0.7546771E-02  0.1524459E+00
          2   -1    0    0  502    0  0.00000000000E+00  0.00000000000E+00  0.17028466166E+03  0.17028466166E+03  0.00000000000E+00 0. -1.
          2   -1    0    0  501    0 -0.00000000000E+00 -0.00000000000E+00 -0.81202960848E+01  0.81202960848E+01  0.00000000000E+00 0. -1.
          2    1    1    2  501    0 -0.15083665951E+02 -0.14089564222E+02  0.15528112452E+03  0.15664692921E+03  0.00000000000E+00 0. -1.
          2    1    1    2  502    0  0.15083665951E+02  0.14089564222E+02  0.68832410613E+01  0.21758028542E+02  0.00000000000E+00 0. -1.
</event>
<event>
 4    1  0.6651744E+003  0.4179840E+02  0.7546771E-02  0.1338258E+00
          2   -1    0    0  501    0  0.00000000000E+00  0.00000000000E+00  0.34595115897E+02  0.34595115897E+02  0.00000000000E+00 0.  1.
          2   -1    0    0  502    0 -0.00000000000E+00 -0.00000000000E+00 -0.11948306109E+03  0.11948306109E+03  0.00000000000E+00 0. -1.
          2    1    1    2  501    0  0.25883434257E+02  0.32820028224E+02 -0.10098015127E+03  0.10928905422E+03  0.00000000000E+00 0. -1.
          2    1    1    2  502    0 -0.25883434257E+02 -0.32820028224E+02  0.16092206081E+02  0.44789122765E+02  0.00000000000E+00 0.  1.
</event>
<event>
 4    1  0.6651744E+003  0.2018445E+02  0.7546771E-02  0.1531235E+00
          2   -1    0    0  502    0  0.00000000000E+00  0.00000000000E+00  0.11357744496E+04  0.11357744496E+04  0.00000000000E+00 0. -1.
          2   -1    0    0  501    0 -0.00000000000E+00 -0.00000000000E+00 -0.12231495286E+01  0.12231495286E+01  0.00000000000E+00 0. -1.
          2    1    1    2  501    0  0.16922253291E+02 -0.11002248010E+02  0.10451980920E+04  0.10453929709E+04  0.00000000000E+00 0. -1.
          2    1    1    2  502    0 -0.16922253291E+02  0.11002248010E+02  0.89353208112E+02  0.91604628254E+02  0.00000000000E+00 0. -1.
</event>
<event>
 4    1  0.6651744E+003  0.3235148E+02  0.7546771E-02  0.1400205E+00
          2   -1    0    0  502    0  0.00000000000E+00  0.00000000000E+00  0.20030159660E+03  0.20030159660E+03  0.00000000000E+00 0. -1.
          2   -1    0    0  501    0 -0.00000000000E+00 -0.00000000000E+00 -0.27177398738E+03  0.27177398738E+03  0.00000000000E+00 0. -1.
          2    1    1    2  501    0 -0.15196902591E+02  0.28559973820E+02  0.19802151645E+03  0.20064680144E+03  0.00000000000E+00 0. -1.
          2    1    1    2  502    0  0.15196902591E+02 -0.28559973820E+02 -0.26949390724E+03  0.27142878254E+03  0.00000000000E+00 0. -1.
</event>
<event>
 4    1  0.6651744E+003  0.2669967E+02  0.7546771E-02  0.1450649E+00
          2   -1    0    0  502    0  0.00000000000E+00  0.00000000000E+00  0.54510799789E+00  0.54510799789E+00  0.00000000000E+00 0.  1.
          2   -1    0    0  501    0 -0.00000000000E+00 -0.00000000000E+00 -0.21912792905E+04  0.21912792905E+04  0.00000000000E+00 0.  1.
          2    1    1    2  501    0  0.26346307058E+02 -0.43294765742E+01 -0.39948751834E+03  0.40037875764E+03  0.00000000000E+00 0.  1.
          2    1    1    2  502    0 -0.26346307058E+02  0.43294765742E+01 -0.17912466641E+04  0.17914456408E+04  0.00000000000E+00 0.  1.
</event>
<event>
 4    1  0.6651744E+003  0.2433109E+02  0.7546771E-02  0.1476427E+00
          2   -1    0    0  501    0  0.00000000000E+00  0.00000000000E+00  0.46863069424E+03  0.46863069424E+03  0.00000000000E+00 0.  1.
          2   -1    0    0  502    0 -0.00000000000E+00 -0.00000000000E+00 -0.13213371744E+03  0.13213371744E+03  0.00000000000E+00 0.  1.
          2    1    1    2  501    0 -0.22674684023E+02  0.88238778950E+01 -0.13069437266E+03  0.13293991561E+03  0.00000000000E+00 0.  1.
          2    1    1    2  502    0  0.22674684023E+02 -0.88238778950E+01  0.46719134946E+03  0.46782449607E+03  0.00000000000E+00 0.  1.
</event>
<event>
 4    1  0.6651744E+003  0.6268416E+02  0.7546771E-02  0.1250976E+00
          2   -1    0    0  502    0  0.00000000000E+00  0.00000000000E+00  0.29006951394E+03  0.29006951394E+03  0.00000000000E+00 0. -1.
          2   -1    0    0  501    0 -0.00000000000E+00 -0.00000000000E+00 -0.61257021399E+03  0.61257021399E+03  0.00000000000E+00 0.  1.
          2    1    1    2  501    0  0.12045859418E+02  0.61515861924E+02  0.28505148431E+03  0.29186238658E+03  0.00000000000E+00 0. -1.
          2    1    1    2  502    0 -0.12045859418E+02 -0.61515861924E+02 -0.60755218435E+03  0.61077734135E+03  0.00000000000E+00 0.  1.
</event>
<event>
 4    1  0.6651744E+003  0.2100335E+02  0.7546771E-02  0.1519217E+00
          2   -1    0    0  502    0  0.00000000000E+00  0.00000000000E+00  0.59582357633E+01  0.59582357633E+01  0.00000000000E+00 0. -1.
          2   -1    0    0  501    0 -0.00000000000E+00 -0.00000000000E+00 -0.80363369683E+02  0.80363369683E+02  0.00000000000E+00 0.  1.
          2    1    1    2  501    0 -0.20166700081E+02  0.58689867618E+01 -0.25094496342E+02  0.32724219539E+02  0.00000000000E+00 0. -1.
          2    1    1    2  502    0  0.20166700081E+02 -0.58689867618E+01 -0.49310637578E+02  0.53597385907E+02  0.00000000000E+00 0.  1.
</event>
<event>
 4    1  0.6651744E+003  0.3277328E+02  0.7546771E-02  0.1396932E+00
          2   -1    0    0  501    0  0.00000000000E+00  0.00000000000E+00  0.10967064893E+02  0.10967064893E+02  0.00000000000E+00 0.  1.
          2   -1    0    0  502    0 -0.00000000000E+00 -0.00000000000E+00 -0.38146314864E+03  0.38146314864E+03  0.00000000000E+00 0.  1.
          2    1    1    2  501    0  0.32699650593E+02 -0.21955612125E+01 -0.35440983206E+03  0.35592192500E+03  0.00000000000E+00 0.  1.
          2    1    1    2  502    0 -0.32699650593E+02  0.21955612125E+01 -0.16086251685E+02  0.36508288528E+02  0.00000000000E+00 0.  1.
</event>
<event>
 4    1  0.6651744E+003  0.2813451E+02  0.7546771E-02  0.1436533E+00
          2   -1    0    0  501    0  0.00000000000E+00  0.00000000000E+00  0.54033404389E+03  0.54033404389E+03  0.00000000000E+00 0.  1.
          2   -1    0    0  502    0 -0.00000000000E+00 -0.00000000000E+00 -0.40423943631E+02  0.40423943631E+02  0.00000000000E+00 0. -1.
          2    1    1    2  501    0  0.24652128840E+02  0.13558138038E+02 -0.35113851733E+02  0.44994812445E+02  0.00000000000E+00 0. -1.
          2    1    1    2  502    0 -0.24652128840E+02 -0.13558138038E+02  0.53502395199E+03  0.53576317508E+03  0.00000000000E+00 0.  1.
</event>
<event>
 4    1  0.6651744E+003  0.2258396E+02  0.7546771E-02  0.1497789E+00
          2   -1    0    0  502    0  0.00000000000E+00  0.00000000000E+00  0.33257838156E+02  0.33257838156E+02  0.00000000000E+00 0.  1.
          2   -1    0    0  501    0 -0.00000000000E+00 -0.00000000000E+00 -0.11736757891E+03  0.11736757891E+03  0.00000000000E+00 0.  1.
          2    1    1    2  501    0  0.20416310274E+01  0.22491489429E+02  0.28165309225E+02  0.36101523482E+02  0.00000000000E+00 0.  1.
          2    1    1    2  502    0 -0.20416310274E+01 -0.22491489429E+02 -0.11227504998E+03  0.11452389359E+03  0.00000000000E+00 0.  1.
</event>
<event>
 4    1  0.6651744E+003  0.2470690E+02  0.7546771E-02  0.1472109E+00
          2   -1    0    0  501    0  0.00000000000E+00  0.00000000000E+00  0.15598474963E+03  0.15598474963E+03  0.00000000000E+00 0.  1.
          2   -1    0    0  502    0 -0.00000000000E+00 -0.00000000000E+00 -0.10796717896E+04  0.10796717896E+04  0.00000000000E+00 0. -1.
          2    1    1    2  501    0 -0.23393537956E+02  0.79481608656E+01 -0.10785510765E+04  0.10788340260E+04  0.00000000000E+00 0. -1.
          2    1    1    2  502    0  0.23393537956E+02 -0.79481608656E+01  0.15486403652E+03  0.15682251332E+03  0.00000000000E+00 0.  1.
</event>
<event>
 4    1  0.6651744E+003  0.2058075E+02  0.7546771E-02  0.1525336E+00
          2   -1    0    0  501    0  0.00000000000E+00  0.00000000000E+00  0.36132963541E+02  0.36132963541E+02  0.00000000000E+00 0. -1.
          2   -1    0    0  502    0 -0.00000000000E+00 -0.00000000000E+00 -0.95853519418E+03  0.95853519418E+03  0.00000000000E+00 0. -1.
          2    1    1    2  501    0 -0.20072926091E+02 -0.45436853809E+01 -0.95548474999E+03  0.95570637483E+03  0.00000000000E+00 0. -1.
          2    1    1    2  502    0  0.20072926091E+02  0.45436853809E+01  0.33082519353E+02  0.38961782883E+02  0.00000000000E+00 0. -1.
</event>
<event>
 4    1  0.6651744E+003  0.2228523E+02  0.7546771E-02  0.1501674E+00
          2   -1    0    0  501    0  0.00000000000E+00  0.00000000000E+00  0.12736082117E+03  0.12736082117E+03  0.00000000000E+00 0. -1.
          2   -1    0    0  502    0 -0.00000000000E+00 -0.00000000000E+00 -0.21390549532E+03  0.21390549532E+03  0.00000000000E+00 0. -1.
          2    1    1    2  501    0 -0.16682646097E+02 -0.14775677743E+02 -0.21234305774E+03  0.21350926328E+03  0.00000000000E+00 0. -1.
          2    1    1    2  502    0  0.16682646097E+02  0.14775677743E+02  0.12579838359E+03  0.12775705322E+03  0.00000000000E+00 0. -1.
</event>
<event>
 4    1  0.6651744E+003  0.2416550E+02  0.7546771E-02  0.1478359E+00
          2   -1    0    0  502    0  0.00000000000E+00  0.00000000000E+00  0.36746596860E+01  0.36746596860E+01  0.00000000000E+00 0.  1.
          2   -1    0    0  501    0 -0.00000000000E+00 -0.00000000000E+00 -0.61676625575E+03  0.61676625575E+03  0.00000000000E+00 0.  1.
          2    1    1    2  501    0 -0.12279067159E+02 -0.20813360597E+02 -0.39263209595E+02  0.46103916291E+02  0.00000000000E+00 0.  1.
          2    1    1    2  502    0  0.12279067159E+02  0.20813360597E+02 -0.57382838647E+03  0.57433699915E+03  0.00000000000E+00 0.  1.
</event>
<event>
 4    1  0.6651744E+003  0.2551749E+02  0.7546771E-02  0.1463097E+00
          2   -1    0    0  502    0  0.00000000000E+00  0.00000000000E+00  0.79030978394E+02  0.79030978394E+02  0.00000000000E+00 0.  1.
          2   -1    0    0  501    0 -0.00000000000E+00 -0.00000000000E+00 -0.66702287094E+02  0.66702287094E+02  0.00000000000E+00 0. -1.
          2    1    1    2  501    0  0.25511334463E+02  0.56052253392E+00  0.74382452730E+02  0.78637724063E+02  0.00000000000E+00 0.  1.
          2    1    1    2  502    0 -0.25511334463E+02 -0.56052253392E+00 -0.62053761430E+02  0.67095541426E+02  0.00000000000E+00 0. -1.
</event>
<event>
 4    1  0.6651744E+003  0.3250039E+02  0.7546771E-02  0.1399043E+00
          2   -1    0    0  501    0  0.00000000000E+00  0.00000000000E+00  0.33102563773E+03  0.33102563773E+03  0.00000000000E+00 0.  1.
          2   -1    0    0  502    0 -0.00000000000E+00 -0.00000000000E+00 -0.26703197998E+03  0.26703197998E+03  0.00000000000E+00 0. -1.
          2    1    1    2  501    0 -0.16150384811E+02  0.28203555716E+02 -0.26523997757E+03  0.26722372871E+03  0.00000000000E+00 0. -1.
          2    1    1    2  502    0  0.16150384811E+02 -0.28203555716E+02  0.32923363532E+03  0.33083388900E+03  0.00000000000E+00 0.  1.
</event>
<event>
 4    1  0.6651744E+003  0.2744735E+02  0.7546771E-02  0.1443165E+00
          2   -1    0    0  502    0  0.00000000000E+00  0.00000000000E+00  0.13461287046E+04  0.13461287046E+04  0.00000000000E+00 0.  1.
          2   -1    0    0  501    0 -0.00000000000E+00 -0.00000000000E+00 -0.47720716306E+02  0.47720716306E+02  0.00000000000E+00 0. -1.
          2    1    1    2  501    0 -0.20481716180E+02 -0.18271737842E+02  0.13420300422E+04  0.13423106910E+04  0.00000000000E+00 0.  1.
          2    1    1    2  502    0  0.20481716180E+02  0.18271737842E+02 -0.43622053845E+02  0.51538729933E+02  0.00000000000E+00 0. -1.
</event>
<event>
 4    1  0.6651744E+003  0.3032258E+02  0.7546771E-02  0.1416814E+00
          2   -1    0    0  502    0  0.00000000000E+00  0.00000000000E+00  0.20791572826E+02  0.20791572826E+02  0.00000000000E+00 0.  1.
          2   -1    0    0  501    0 -0.00000000000E+00 -0.00000000000E+00 -0.13093377554E+03  0.13093377554E+03  0.00000000000E+00 0. -1.
          2    1    1    2  501    0 -0.19600075867E+02 -0.23136457480E+02  0.66650697444E+01  0.31046445745E+02  0.00000000000E+00 0.  1.
          2    1    1    2  502    0  0.19600075867E+02  0.23136457480E+02 -0.11680727246E+03  0.12067890262E+03  0.00000000000E+00 0. -1.
</event>
<event>
 4    1  0.6651744E+003  0.2029159E+02  0.7546771E-02  0.1529624E+00
          2   -1    0    0  501    0  0.00000000000E+00  0.00000000000E+00  0.25793073775E+01  0.25793073775E+01  0.00000000000E+00 0. -1.
          2   -1    0    0  502    0 -0.00000000000E+00 -0.00000000000E+00 -0.29707194389E+03  0.29707194389E+03  0.00000000000E+00 0.  1.
          2    1    1    2  501    0 -0.12419023932E+02  0.16047323281E+02 -0.24915387957E+03  0.24997880799E+03  0.00000000000E+00 0.  1.
          2    1    1    2  502    0  0.12419023932E+02 -0.16047323281E+02 -0.45338756939E+02  0.49672443273E+02  0.00000000000E+00 0. -1.
</event>
<event>
 4    1  0.6651744E+003  0.2221469E+02  0.7546771E-02  0.1502602E+00
          2   -1    0    0  502    0  0.00000000000E+00  0.00000000000E+00  0.88176374695E+01  0.88176374695E+01  0.00000000000E+00 0. -1.
          2   -1    0    0  501    0 -0.00000000000E+00 -0.00000000000E+00 -0.27004036940E+03  0.27004036940E+03  0.00000000000E+00 0. -1.
          2    1    1    2  501    0  0.16126965571E+02  0.15277880590E+02 -0.64688433230E+01  0.23137385068E+02  0.00000000000E+00 0. -1.
          2    1    1    2  502    0 -0.16126965571E+02 -0.15277880590E+02 -0.25475388861E+03  0.25572062180E+03  0.00000000000E+00 0. -1.
</event>
<event>
 4    1  0.6651744E+003  0.2119869E+02  0.7546771E-02  0.1516447E+00
          2   -1    0    0  501    0  0.00000000000E+00  0.00000000000E+00  0.17487028387E+04  0.17487028387E+04  0.00000000000E+00 0.  1.
          2   -1    0    0  502    0 -0.00000000000E+00 -0.00000000000E+00 -0.25835985852E+00  0.25835985852E+00  0.00000000000E+00 0. -1.
          2    1    1    2  501    0  0.24707157733E+01  0.21054215364E+02  0.81035091496E+03  0.81062814520E+03  0.00000000000E+00 0. -1.
          2    1    1    2  502    0 -0.24707157733E+01 -0.21054215364E+02  0.93809356392E+03  0.93833305339E+03  0.00000000000E+00 0.  1.
</event>
<event>
 4    1  0.6651744E+003  0.2488287E+02  0.7546771E-02  0.1470118E+00
          2   -1    0    0  502    0  0.00000000000E+00  0.00000000000E+00  0.11784324373E+02  0.11784324373E+02  0.00000000000E+00 0. -1.
          2   -1    0    0  501    0 -0.00000000000E+00 -0.00000000000E+00 -0.21848378292E+03  0.21848378292E+03  0.00000000000E+00 0.  1.
          2    1    1    2  501    0 -0.24184563303E+02 -0.58535709575E+01 -0.30098239808E+01  0.25064246159E+02  0.00000000000E+00 0. -1.
          2    1    1    2  502    0  0.24184563303E+02  0.58535709575E+01 -0.20368963456E+03  0.20520386113E+03  0.00000000000E+00 0.  1.
</event>
<event>
 4    1  0.6651744E+003  0.4963740E+02  0.7546771E-02  0.1299752E+00
          2   -1    0    0  501    0  0.00000000000E+00  0.00000000000E+00  0.16600137257E+04  0.16600137257E+04  0.00000000000E+00 0. -1.
          2   -1    0    0  502    0 -0.00000000000E+00 -0.00000000000E+00 -0.28773541142E+01  0.28773541142E+01  0.00000000000E+00 0.  1.
          2    1    1    2  501    0 -0.32746050151E+02 -0.37303717670E+02  0.25003358945E+03  0.25491305774E+03  0.00000000000E+00 0.  1.
          2    1    1    2  502    0  0.32746050151E+02  0.37303717670E+02  0.14071027821E+04  0.14079780220E+04  0.00000000000E+00 0. -1.
</event>
<event>
 4    1  0.6651744E+003  0.5431540E+02  0.7546771E-02  0.1280474E+00
          2   -1    0    0  501    0  0.00000000000E+00  0.00000000000E+00  0.22177617414E+01  0.22177617414E+01  0.00000000000E+00 0. -1.
          2   -1    0    0  502    0 -0.00000000000E+00 -0.00000000000E+00 -0.15477076298E+04  0.15477076298E+04  0.00000000000E+00 0. -1.
          2    1    1    2  501    0 -0.54274508531E+02  0.21073325250E+01 -0.10632342460E+04  0.10646206953E+04  0.00000000000E+00 0. -1.
          2    1    1    2  502    0  0.54274508531E+02 -0.21073325250E+01 -0.48225562213E+03  0.48530469625E+03  0.00000000000E+00 0. -1.
</event>
<event>
 4    1  0.6651744E+003  0.2119050E+02  0.7546771E-02  0.1516562E+00
          2   -1    0    0  501    0  0.00000000000E+00  0.00000000000E+00  0.19395364309E+02  0.19395364309E+02  0.00000000000E+00 0.  1.
          2   -1    0    0  502    0 -0.00000000000E+00 -0.00000000000E+00 -0.10053784004E+04  0.10053784004E+04  0.00000000000E+00 0.  1.
          2    1    1    2  501    0 -0.17102708269E+02  0.12511373435E+02 -0.99944443742E+03  0.99966905553E+03  0.00000000000E+00 0.  1.
          2    1    1    2  502    0  0.17102708269E+02 -0.12511373435E+02  0.13461401352E+02  0.25104709155E+02  0.00000000000E+00 0.  1.
</event>
<event>
 4    1  0.6651744E+003  0.2103199E+02  0.7546771E-02  0.1518809E+00
          2   -1    0    0  501    0  0.00000000000E+00  0.00000000000E+00  0.12226333709E+02  0.12226333709E+02  0.00000000000E+00 0.  1.
          2   -1    0    0  502    0 -0.00000000000E+00 -0.00000000000E+00 -0.41759837967E+02  0.41759837967E+02  0.00000000000E+00 0.  1.
          2    1    1    2  501    0  0.10410346971E+02 -0.18274822994E+02 -0.24634033921E+02  0.32391049794E+02  0.00000000000E+00 0.  1.
          2    1    1    2  502    0 -0.10410346971E+02  0.18274822994E+02 -0.48994703378E+01  0.21595121882E+02  0.00000000000E+00 0.  1.
</event>
<event>
 4    1  0.6651744E+003  0.5053085E+02  0.7546771E-02  0.1295887E+00
          2   -1    0    0  502    0  0.00000000000E+00  0.00000000000E+00  0.29602024056E+01  0.29602024056E+01  0.00000000000E+00 0. -1.
          2   -1    0    0  501    0 -0.00000000000E+00 -0.00000000000E+00 -0.15533883959E+04  0.15533883959E+04  0.00000000000E+00 0. -1.
          2    1    1    2  501    0  0.49817495678E+02  0.84607035878E+01 -0.25627016485E+03  0.26120444823E+03  0.00000000000E+00 0. -1.
          2    1    1    2  502    0 -0.49817495678E+02 -0.84607035878E+01 -0.12941580287E+04  0.12951441501E+04  0.00000000000E+00 0. -1.
</event>
<event>
 4    1  0.6651744E+003  0.2623550E+02  0.7546771E-02  0.1455443E+00
          2   -1    0    0  502    0  0.00000000000E+00  0.00000000000E+00  0.22437180331E+02  0.22437180331E+02  0.00000000000E+00 0.  1.
          2   -1    0    0  501    0 -0.00000000000E+00 -0.00000000000E+00 -0.67885202487E+03  0.67885202487E+03  0.00000000000E+00 0. -1.
          2    1    1    2  501    0 -0.14467992069E+01  0.26195576951E+02  0.14422907438E+02  0.29938632879E+02  0.00000000000E+00 0.  1.
          2    1    1    2  502    0  0.14467992069E+01 -0.26195576951E+02 -0.67083775198E+03  0.67135057232E+03  0.00000000000E+00 0. -1.
</event>
<event>
 4    1  0.6669359E+003  0.4715057E+02  0.7546771E-02  0.1311023E+00
          2   -1    0    0  501    0  0.00000000000E+00  0.00000000000E+00  0.81814473711E+03  0.81814473711E+03  0.00000000000E+00 0.  1.
          2   -1    0    0  502    0 -0.00000000000E+00 -0.00000000000E+00 -0.13043159994E+04  0.13043159994E+04  0.00000000000E+00 0. -1.
          2    1    1    2  501    0 -0.45023687435E+02 -0.14001571286E+02 -0.13032099691E+04  0.13040626519E+04  0.00000000000E+00 0. -1.
          2    1    1    2  502    0  0.45023687435E+02  0.14001571286E+02  0.81703870684E+03  0.81839808462E+03  0.00000000000E+00 0.  1.
</event>
<event>
 4    1  0.6651744E+003  0.2693591E+02  0.7546771E-02  0.1448253E+00
          2   -1    0    0  501    0  0.00000000000E+00  0.00000000000E+00  0.12976973389E+02  0.12976973389E+02  0.00000000000E+00 0.  1.
          2   -1    0    0  502    0 -0.00000000000E+00 -0.00000000000E+00 -0.26146715688E+03  0.26146715688E+03  0.00000000000E+00 0.  1.
          2    1    1    2  501    0  0.26901874752E+02 -0.13536880988E+01 -0.24591456236E+03  0.24738535792E+03  0.00000000000E+00 0.  1.
          2    1    1    2  502    0 -0.26901874752E+02  0.13536880988E+01 -0.25756211365E+01  0.27058772346E+02  0.00000000000E+00 0.  1.
</event>
<event>
 4    1  0.6651744E+003  0.2353028E+02  0.7546771E-02  0.1485945E+00
          2   -1    0    0  502    0  0.00000000000E+00  0.00000000000E+00  0.66472634619E+02  0.66472634619E+02  0.00000000000E+00 0.  1.
          2   -1    0    0  501    0 -0.00000000000E+00 -0.00000000000E+00 -0.65526879691E+02  0.65526879691E+02  0.00000000000E+00 0.  1.
          2    1    1    2  501    0 -0.38704200645E+01  0.23209776570E+02  0.62135391526E+02  0.66441558982E+02  0.00000000000E+00 0.  1.
          2    1    1    2  502    0  0.38704200645E+01 -0.23209776570E+02 -0.61189636598E+02  0.65557955329E+02  0.00000000000E+00 0.  1.
</event>
<event>
 4    1  0.6651744E+003  0.2502815E+02  0.7546771E-02  0.1468489E+00
          2   -1    0    0  502    0  0.00000000000E+00  0.00000000000E+00  0.33683302097E+01  0.33683302097E+01  0.00000000000E+00 0.  1.
          2   -1    0    0  501    0 -0.00000000000E+00 -0.00000000000E+00 -0.89157121392E+03  0.89157121392E+03  0.00000000000E+00 0.  1.
          2    1    1    2  501    0  0.23383668379E+02  0.89225743722E+01 -0.46026031479E+02  0.52390875675E+02  0.00000000000E+00 0.  1.
          2    1    1    2  502    0 -0.23383668379E+02 -0.89225743722E+01 -0.84217685223E+03  0.84254866845E+03  0.00000000000E+00 0.  1.
</event>
<event>
 4    1  0.6651744E+003  0.2261017E+02  0.7546771E-02  0.1497452E+00
          2   -1    0    0  501    0  0.00000000000E+00  0.00000000000E+00  0.43252620072E+03  0.43252620072E+03  0.00000000000E+00 0. -1.
          2   -1    0    0  502    0 -0.00000000000E+00 -0.00000000000E+00 -0.14793452540E+03  0.14793452540E+03  0.00000000000E+00 0.  1.
          2    1    1    2  501    0  0.14022860578E+02  0.17736382177E+02 -0.14677278609E+03  0.14850410974E+03  0.00000000000E+00 0.  1.
          2    1    1    2  502    0 -0.14022860578E+02 -0.17736382177E+02  0.43136446141E+03  0.43195661639E+03  0.00000000000E+00 0. -1.
</event>
<event>
 4    1  0.6651744E+003  0.2102809E+02  0.7546771E-02  0.1518864E+00
          2   -1    0    0  502    0  0.00000000000E+00  0.00000000000E+00  0.13412336126E+03  0.13412336126E+03  0.00000000000E+00 0. -1.
          2   -1    0    0  501    0 -0.00000000000E+00 -0.00000000000E+00 -0.34086827920E+02  0.34086827920E+02  0.00000000000E+00 0.  1.
          2    1    1    2  501    0 -0.10310183405E+02 -0.18327045177E+02  0.12995270280E+03  0.13164302272E+03  0.00000000000E+00 0. -1.
          2    1    1    2  502    0  0.10310183405E+02  0.18327045177E+02 -0.29916169465E+02  0.36567166451E+02  0.00000000000E+00 0.  1.
</event>
<event>
 4    1  0.6651744E+003  0.2867110E+02  0.7546771E-02  0.1431507E+00
          2   -1    0    0  502    0  0.00000000000E+00  0.00000000000E+00  0.52148681170E+02  0.52148681170E+02  0.00000000000E+00 0. -1.
          2   -1    0    0  501    0 -0.00000000000E+00 -0.00000000000E+00 -0.74736811456E+03  0.74736811456E+03  0.00000000000E+00 0. -1.
          2    1    1    2  501    0  0.17701256854E+02 -0.22554323087E+02  0.47910429452E+02  0.55834050850E+02  0.00000000000E+00 0. -1.
          2    1    1    2  502    0 -0.17701256854E+02  0.22554323087E+02 -0.74312986284E+03  0.74368274488E+03  0.00000000000E+00 0. -1.
</event>
<event>
 4    1  0.6651744E+003  0.2529590E+02  0.7546771E-02  0.1465520E+00
          2   -1    0    0  502    0  0.00000000000E+00  0.00000000000E+00  0.69926047071E+01  0.69926047071E+01  0.00000000000E+00 0.  1.
          2   -1    0    0  501    0 -0.00000000000E+00 -0.00000000000E+00 -0.48826091370E+03  0.48826091370E+03  0.00000000000E+00 0.  1.
          2    1    1    2  501    0 -0.21151869864E+02  0.13873758449E+02 -0.17415039179E+02  0.30711013689E+02  0.00000000000E+00 0.  1.
          2    1    1    2  502    0  0.21151869864E+02 -0.13873758449E+02 -0.46385326982E+03  0.46454250472E+03  0.00000000000E+00 0.  1.
</event>
<event>
 4    1  0.6651744E+003  0.2385027E+02  0.7546771E-02  0.1482089E+00
          2   -1    0    0  501    0  0.00000000000E+00  0.00000000000E+00  0.12460275719E+04  0.12460275719E+04  0.00000000000E+00 0.  1.
          2   -1    0    0  502    0 -0.00000000000E+00 -0.00000000000E+00 -0.75336453803E+00  0.75336453803E+00  0.00000000000E+00 0.  1.
          2    1    1    2  501    0  0.12526843570E+02  0.20295648258E+02  0.23132534371E+03  0.23255160673E+03  0.00000000000E+00 0.  1.
          2    1    1    2  502    0 -0.12526843570E+02 -0.20295648258E+02  0.10139488637E+04  0.10142293297E+04  0.00000000000E+00 0.  1.
</event>
<event>
 4    1  0.6651744E+003  0.2453436E+02  0.7546771E-02  0.1474080E+00
          2   -1    0    0  502    0  0.00000000000E+00  0.00000000000E+00  0.18309850390E+02  0.18309850390E+02  0.00000000000E+00 0.  1.
          2   -1    0    0  501    0 -0.00000000000E+00 -0.00000000000E+00 -0.15302888448E+03  0.15302888448E+03  0.00000000000E+00 0.  1.
          2    1    1    2  501    0  0.22788679157E+02 -0.90890443907E+01  0.85520453757E+01  0.25982149752E+02  0.00000000000E+00 0.  1.
          2    1    1    2  502    0 -0.22788679157E+02  0.90890443907E+01 -0.14327107947E+03  0.14535658512E+03  0.00000000000E+00 0.  1.
</event>
<event>
 4    1  0.6651744E+003  0.2818674E+02  0.7546771E-02  0.1436038E+00
          2   -1    0    0  501    0  0.00000000000E+00  0.00000000000E+00  0.85874960259E+00  0.85874960259E+00  0.00000000000E+00 0.  1.
          2   -1    0    0  502    0 -0.00000000000E+00 -0.00000000000E+00 -0.10162963081E+04  0.10162963081E+04  0.00000000000E+00 0.  1.
          2    1    1    2  501    0 -0.23372335099E+02  0.15755203023E+02 -0.66000488370E+03  0.66060649329E+03  0.00000000000E+00 0.  1.
          2    1    1    2  502    0  0.23372335099E+02 -0.15755203023E+02 -0.35543267475E+03  0.35654856437E+03  0.00000000000E+00 0.  1.
</event>
<event>
 4    1  0.6651744E+003  0.2208847E+02  0.7546771E-02  0.1504273E+00
          2   -1    0    0  502    0  0.00000000000E+00  0.00000000000E+00  0.14691944842E+04  0.14691944842E+04  0.00000000000E+00 0. -1.
          2   -1    0    0  501    0 -0.00000000000E+00 -0.00000000000E+00 -0.22670718049E+02  0.22670718049E+02  0.00000000000E+00 0. -1.
          2    1    1    2  501    0 -0.21937850443E+02 -0.25751348462E+01  0.14637110125E+04  0.14638776687E+04  0.00000000000E+00 0. -1.
          2    1    1    2  502    0  0.21937850443E+02  0.25751348462E+01 -0.17187246342E+02  0.27987533624E+02  0.00000000000E+00 0. -1.
</event>
<event>
 4    1  0.6651744E+003  0.3358608E+02  0.7546771E-02  0.1390785E+00
          2   -1    0    0  501    0  0.00000000000E+00  0.00000000000E+00  0.11860187216E+02  0.11860187216E+02  0.00000000000E+00 0. -1.
          2   -1    0    0  502    0 -0.00000000000E+00 -0.00000000000E+00 -0.15541115755E+04  0.15541115755E+04  0.00000000000E+00 0.  1.
          2    1    1    2  501    0 -0.23038267518E+02  0.24438959519E+02 -0.15297743407E+04  0.15301429861E+04  0.00000000000E+00 0.  1.
          2    1    1    2  502    0  0.23038267518E+02 -0.24438959519E+02 -0.12477047513E+02  0.35828776525E+02  0.00000000000E+00 0. -1.
</event>
<event>
 4    1  0.6651744E+003  0.2238876E+02  0.7546771E-02  0.1500320E+00
          2   -1    0    0  502    0  0.00000000000E+00  0.00000000000E+00  0.54801112649E+02  0.54801112649E+02  0.00000000000E+00 0. -1.
          2   -1    0    0  501    0 -0.00000000000E+00 -0.00000000000E+00 -0.52967652923E+02  0.52967652923E+02  0.00000000000E+00 0.  1.
          2    1    1    2  501    0  0.21536620510E+02  0.61180484449E+01  0.49928208552E+02  0.54718210396E+02  0.00000000000E+00 0. -1.
          2    1    1    2  502    0 -0.21536620510E+02 -0.61180484449E+01 -0.48094748827E+02  0.53050555176E+02  0.00000000000E+00 0.  1.
</event>
<event>
 4    1  0.6651744E+003  0.2273813E+02  0.7546771E-02  0.1495813E+00
          2   -1    0    0  501    0  0.00000000000E+00  0.00000000000E+00  0.22078222222E+02  0.22078222222E+02  0.00000000000E+00 0.  1.
          2   -1    0    0  502    0 -0.00000000000E+00 -0.00000000000E+00 -0.91791494435E+03  0.91791494435E+03  0.00000000000E+00 0. -1.
          2    1    1    2  501    0  0.20214347426E+02  0.10411652091E+02 -0.91188095868E+03  0.91216440686E+03  0.00000000000E+00 0. -1.
          2    1    1    2  502    0 -0.20214347426E+02 -0.10411652091E+02  0.16044236545E+02  0.27828759718E+02  0.00000000000E+00 0.  1.
</event>
<event>
 4    1  0.8685271E+003  0.2266425E+02  0.7546771E-02  0.1496758E+00
          2   -1    0    0  501    0  0.00000000000E+00  0.00000000000E+00  0.31402902539E+03  0.31402902539E+03  0.00000000000E+00 0.  1.
          2   -1    0    0  502    0 -0.00000000000E+00 -0.00000000000E+00 -0.13866840053E+04  0.13866840053E+04  0.00000000000E+00 0. -1.
          2    1    1    2  501    0  0.21862302457E+02  0.59756023758E+01 -0.13861823164E+04  0.13863675856E+04  0.00000000000E+00 0. -1.
          2    1    1    2  502    0 -0.21862302457E+02 -0.59756023758E+01  0.31352733652E+03  0.31434544507E+03  0.00000000000E+00 0.  1.
</event>
<event>
 4    1  0.6651744E+003  0.2026483E+02  0.7546771E-02  0.1530025E+00
          2   -1    0    0  502    0  0.00000000000E+00  0.00000000000E+00  0.86611275502E+02  0.86611275502E+02  0.00000000000E+00 0. -1.
          2   -1    0    0  501    0 -0.00000000000E+00 -0.00000000000E+00 -0.65940404825E+01  0.65940404825E+01  0.00000000000E+00 0.  1.
          2    1    1    2  501    0  0.90142827651E+01  0.18149542802E+02  0.64710177041E+02  0.67809071741E+02  0.00000000000E+00 0. -1.
          2    1    1    2  502    0 -0.90142827651E+01 -0.18149542802E+02  0.15307057978E+02  0.25396244243E+02  0.00000000000E+00 0.  1.
</event>
<event>
 4    1  0.6651744E+003  0.2006566E+02  0.7546771E-02  0.1533034E+00
          2   -1    0    0  501    0  0.00000000000E+00  0.00000000000E+00  0.11834496144E+04  0.11834496144E+04  0.00000000000E+00 0.  1.
          2   -1    0    0  502    0 -0.00000000000E+00 -0.00000000000E+00 -0.37169021325E+00  0.37169021325E+00  0.00000000000E+00 0. -1.
          2    1    1    2  501    0  0.16912123938E+02  0.10798652437E+02  0.41930078820E+03  0.41978063535E+03  0.00000000000E+00 0. -1.
          2    1    1    2  502    0 -0.16912123938E+02 -0.10798652437E+02  0.76377713594E+03  0.76404066922E+03  0.00000000000E+00 0.  1.
</event>
<event>
 4    1  0.6651744E+003  0.2033510E+02  0.7546771E-02  0.1528973E+00
          2   -1    0    0  501    0  0.00000000000E+00  0.00000000000E+00  0.43352061034E+02  0.43352061034E+02  0.00000000000E+00 0. -1.
          2   -1    0    0  502    0 -0.00000000000E+00 -0.00000000000E+00 -0.10021384125E+04  0.10021384125E+04  0.00000000000E+00 0.  1.
          2    1    1    2  501    0 -0.20298337863E+02 -0.12221312609E+01 -0.99964466655E+03  0.99985147671E+03  0.00000000000E+00 0.  1.
          2    1    1    2  502    0  0.20298337863E+02  0.12221312609E+01  0.40858315051E+02  0.45638996852E+02  0.00000000000E+00 0. -1.
</event>
<event>
 4    1  0.6651744E+003  0.2098402E+02  0.7546771E-02  0.1519493E+00
          2   -1    0    0  502    0  0.00000000000E+00  0.00000000000E+00  0.14825158653E+01  0.14825158653E+01  0.00000000000E+00 0. -1.
          2   -1    0    0  501    0 -0.00000000000E+00 -0.00000000000E+00 -0.57824381022E+03  0.57824381022E+03  0.00000000000E+00 0. -1.
          2    1    1    2  501    0  0.18125113794E+02 -0.10573990709E+02 -0.86233482486E+02  0.88749887499E+02  0.00000000000E+00 0. -1.
          2    1    1    2  502    0 -0.18125113794E+02  0.10573990709E+02 -0.49052781187E+03  0.49097643858E+03  0.00000000000E+00 0. -1.
</event>
<event>
 4    1  0.6651744E+003  0.2993629E+02  0.7546771E-02  0.1420151E+00
          2   -1    0    0  501    0  0.00000000000E+00  0.00000000000E+00  0.90587269448E+03  0.90587269448E+03  0.00000000000E+00 0.  1.
          2   -1    0    0  502    0 -0.00000000000E+00 -0.00000000000E+00 -0.26727581741E+01  0.26727581741E+01  0.00000000000E+00 0.  1.
          2    1    1    2  501    0 -0.24854457241E+02 -0.16686448001E+02  0.91073006563E+02  0.95866960503E+02  0.00000000000E+00 0.  1.
          2    1    1    2  502    0  0.24854457241E+02  0.16686448001E+02  0.81212692975E+03  0.81267849216E+03  0.00000000000E+00 0.  1.
</event>
<event>
 4    1  0.6651744E+003  0.2180081E+02  0.7546771E-02  0.1508132E+00
          2   -1    0    0  502    0  0.00000000000E+00  0.00000000000E+00  0.20476525630E+03  0.20476525630E+03  0.00000000000E+00 0.  1.
          2   -1    0    0  501    0 -0.00000000000E+00 -0.00000000000E+00 -0.13891241285E+03  0.13891241285E+03  0.00000000000E+00 0. -1.
          2    1    1    2  501    0  0.12596256009E+02  0.17793524141E+02  0.20332359002E+03  0.20448901541E+03  0.00000000000E+00 0.  1.
          2    1    1    2  502    0 -0.12596256009E+02 -0.17793524141E+02 -0.13747074657E+03  0.13918865374E+03  0.00000000000E+00 0. -1.
</event>
<event>
 4    1  0.6882433E+003  0.3406236E+02  0.7546771E-02  0.1387278E+00
          2   -1    0    0  501    0  0.00000000000E+00  0.00000000000E+00  0.24219863496E+04  0.24219863496E+04  0.00000000000E+00 0. -1.
          2   -1    0    0  502    0 -0.00000000000E+00 -0.00000000000E+00 -0.53410285603E+03  0.53410285603E+03  0.00000000000E+00 0. -1.
          2    1    1    2  501    0  0.26802147695E+02  0.21021161680E+02 -0.53343986473E+03  0.53452627030E+03  0.00000000000E+00 0. -1.
          2    1    1    2  502    0 -0.26802147695E+02 -0.21021161680E+02  0.24213233583E+04  0.24215629354E+04  0.00000000000E+00 0. -1.
</event>
<event>
 4    1  0.6651744E+003  0.2624736E+02  0.7546771E-02  0.1455319E+00
          2   -1    0    0  502    0  0.00000000000E+00  0.00000000000E+00  0.58407385475E+02  0.58407385475E+02  0.00000000000E+00 0. -1.
          2   -1    0    0  501    0 -0.00000000000E+00 -0.00000000000E+00 -0.72971615865E+02  0.72971615865E+02  0.00000000000E+00 0.  1.
          2    1    1    2  501    0 -0.26207032989E+02  0.14543417246E+01  0.52864498670E+02  0.59021851103E+02  0.00000000000E+00 0. -1.
          2    1    1    2  502    0  0.26207032989E+02 -0.14543417246E+01 -0.67428729059E+02  0.72357150237E+02  0.00000000000E+00 0.  1.
</event>
<event>
 4    1  0.6651744E+003  0.2342795E+02  0.7546771E-02  0.1487193E+00
          2   -1    0    0  502    0  0.00000000000E+00  0.00000000000E+00  0.38076453435E+02  0.38076453435E+02  0.00000000000E+00 0. -1.
          2   -1    0    0  501    0 -0.00000000000E+00 -0.00000000000E+00 -0.41368028588E+02  0.41368028588E+02  0.00000000000E+00 0.  1.
          2    1    1    2  501    0 -0.14520279442E+02 -0.18385606018E+02  0.30417331029E+02  0.38393789219E+02  0.00000000000E+00 0. -1.
          2    1    1    2  502    0  0.14520279442E+02  0.18385606018E+02 -0.33708906181E+02  0.41050692804E+02  0.00000000000E+00 0.  1.
</event>
<event>
 4    1  0.6651744E+003  0.2874585E+02  0.7546771E-02  0.1430817E+00
          2   -1    0    0  502    0  0.00000000000E+00  0.00000000000E+00  0.11455317697E+04  0.11455317697E+04  0.00000000000E+00 0.  1.
          2   -1    0    0  501    0 -0.00000000000E+00 -0.00000000000E+00 -0.89415474393E+01  0.89415474393E+01  0.00000000000E+00 0. -1.
          2    1    1    2  501    0 -0.15006460293E+02 -0.24517956841E+02  0.11217583852E+04  0.11221266411E+04  0.00000000000E+00 0.  1.
          2    1    1    2  502    0  0.15006460293E+02  0.24517956841E+02  0.14831837134E+02  0.32346676042E+02  0.00000000000E+00 0. -1.
</event>
<event>
 4    1  0.6651744E+003  0.3085799E+02  0.7546771E-02  0.1412284E+00
          2   -1    0    0  502    0  0.00000000000E+00  0.00000000000E+00  0.96377813322E+01  0.96377813322E+01  0.00000000000E+00 0.  1.
          2   -1    0    0  501    0 -0.00000000000E+00 -0.00000000000E+00 -0.15249692549E+03  0.15249692549E+03  0.00000000000E+00 0.  1.
          2    1    1    2  501    0  0.15955083501E+02  0.26413084877E+02 -0.23324715447E+02  0.38681495485E+02  0.00000000000E+00 0.  1.
          2    1    1    2  502    0 -0.15955083501E+02 -0.26413084877E+02 -0.11953442871E+03  0.12345321134E+03  0.00000000000E+00 0.  1.
</event>
<event>
 4    1  0.6651744E+003  0.3610982E+02  0.7546771E-02  0.1372924E+00
          2   -1    0    0  501    0  0.00000000000E+00  0.00000000000E+00  0.90309892381E+01  0.90309892381E+01  0.00000000000E+00 0. -1.
          2   -1    0    0  502    0 -0.00000000000E+00 -0.00000000000E+00 -0.51969689856E+03  0.51969689856E+03  0.00000000000E+00 0. -1.
          2    1    1    2  501    0  0.35977025433E+02  0.30939698457E+01 -0.47999237370E+03  0.48134872786E+03  0.00000000000E+00 0. -1.
          2    1    1    2  502    0 -0.35977025433E+02 -0.30939698457E+01 -0.30673535625E+02  0.47379159935E+02  0.00000000000E+00 0. -1.
</event>
<event>
 4    1  0.6651744E+003  0.3408709E+02  0.7546771E-02  0.1387097E+00
          2   -1    0    0  501    0  0.00000000000E+00  0.00000000000E+00  0.51635678524E+01  0.51635678524E+01  0.00000000000E+00 0.  1.
          2   -1    0    0  502    0 -0.00000000000E+00 -0.00000000000E+00 -0.47292220684E+03  0.47292220684E+03  0.00000000000E+00 0.  1.
          2    1    1    2  501    0 -0.26891380728E+02 -0.20947163602E+02 -0.40694744914E+03  0.40837257056E+03  0.00000000000E+00 0.  1.
          2    1    1    2  502    0  0.26891380728E+02  0.20947163602E+02 -0.60811189849E+02  0.69713204139E+02  0.00000000000E+00 0.  1.
</event>
<event>
 4    1  0.6651744E+003  0.3399006E+02  0.7546771E-02  0.1387806E+00
          2   -1    0    0  502    0  0.00000000000E+00  0.00000000000E+00  0.21107862627E+03  0.21107862627E+03  0.00000000000E+00 0. -1.
          2   -1    0    0  501    0 -0.00000000000E+00 -0.00000000000E+00 -0.12053240104E+03  0.12053240104E+03  0.00000000000E+00 0. -1.
          2    1    1    2  501    0 -0.96208602525E+01  0.32600054158E+02  0.20727023638E+03  0.21003874731E+03  0.00000000000E+00 0. -1.
          2    1    1    2  502    0  0.96208602525E+01 -0.32600054158E+02 -0.11672401116E+03  0.12157228000E+03  0.00000000000E+00 0. -1.
</event>
<event>
 4    1  0.6651744E+003  0.2179994E+02  0.7546771E-02  0.1508143E+00
          2   -1    0    0  501    0  0.00000000000E+00  0.00000000000E+00  0.60503468433E+01  0.60503468433E+01  0.00000000000E+00 0.  1.
          2   -1    0    0  502    0 -0.00000000000E+00 -0.00000000000E+00 -0.17641931224E+03  0.17641931224E+03  0.00000000000E+00 0.  1.
          2    1    1    2  501    0 -0.12255319469E+02  0.18028991457E+02 -0.15313882845E+03  0.15468270158E+03  0.00000000000E+00 0.  1.
          2    1    1    2  502    0  0.12255319469E+02 -0.18028991457E+02 -0.17230136947E+02  0.27786957506E+02  0.00000000000E+00 0.  1.
</event>
<event>
 4    1  0.6651744E+003  0.5841770E+02  0.7546771E-02  0.1265306E+00
          2   -1    0    0  502    0  0.00000000000E+00  0.00000000000E+00  0.18040007779E+03  0.18040007779E+03  0.00000000000E+00 0.  1.
          2   -1    0    0  501    0 -0.00000000000E+00 -0.00000000000E+00 -0.35362256692E+03  0.35362256692E+03  0.00000000000E+00 0. -1.
          2    1    1    2  501    0 -0.14649740162E+02 -0.56550978953E+02  0.17316005073E+03  0.18274854657E+03  0.00000000000E+00 0.  1.
          2    1    1    2  502    0  0.14649740162E+02  0.56550978953E+02 -0.34638253985E+03  0.35127409814E+03  0.00000000000E+00 0. -1.
</event>
<event>
 4    1  0.6651744E+003  0.2338895E+02  0.7546771E-02  0.1487671E+00
          2   -1    0    0  501    0  0.00000000000E+00  0.00000000000E+00  0.85554895772E+02  0.85554895772E+02  0.00000000000E+00 0. -1.
          2   -1    0    0  502    0 -0.00000000000E+00 -0.00000000000E+00 -0.10401019368E+03  0.10401019368E+03  0.00000000000E+00 0. -1.
          2    1    1    2  501    0 -0.87469422043E+01 -0.21691798790E+02 -0.10105059303E+03  0.10372205881E+03  0.00000000000E+00 0. -1.
          2    1    1    2  502    0  0.87469422043E+01  0.21691798790E+02  0.82595295123E+02  0.85843030638E+02  0.00000000000E+00 0. -1.
</event>
<event>
 4    1  0.6651744E+003  0.4405624E+02  0.7546771E-02  0.1326226E+00
          2   -1    0    0  502    0  0.00000000000E+00  0.00000000000E+00  0.48603127862E+02  0.48603127862E+02  0.00000000000E+00 0. -1.
          2   -1    0    0  501    0 -0.00000000000E+00 -0.00000000000E+00 -0.85408757885E+02  0.85408757885E+02  0.00000000000E+00 0. -1.
          2    1    1    2  501    0  0.43550032824E+02 -0.66593440524E+01  0.30489869941E+02  0.53577834887E+02  0.00000000000E+00 0. -1.
          2    1    1    2  502    0 -0.43550032824E+02  0.66593440524E+01 -0.67295499964E+02  0.80434050859E+02  0.00000000000E+00 0. -1.
</event>
<event>
 4    1  0.6651744E+003  0.2693852E+02  0.7546771E-02  0.1448227E+00
          2   -1    0    0  502    0  0.00000000000E+00  0.00000000000E+00  0.67888068216E+03  0.67888068216E+03  0.00000000000E+00 0.  1.
          2   -1    0    0  501    0 -0.00000000000E+00 -0.00000000000E+00 -0.14732627603E+01  0.14732627603E+01  0.00000000000E+00 0. -1.
          2    1    1    2  501    0  0.15724926508E+02 -0.21872602909E+02  0.51691196916E+03  0.51761343485E+03  0.00000000000E+00 0.  1.
          2    1    1    2  502    0 -0.15724926508E+02  0.21872602909E+02  0.16049545023E+03  0.16274051007E+03  0.00000000000E+00 0. -1.
</event>
<event>
 4    1  0.6651744E+003  0.2706155E+02  0.7546771E-02  0.1446991E+00
          2   -1    0    0  501    0  0.00000000000E+00  0.00000000000E+00  0.78026716035E+01  0.78026716035E+01  0.00000000000E+00 0.  1.
          2   -1    0    0  502    0 -0.00000000000E+00 -0.00000000000E+00 -0.13639894863E+04  0.13639894863E+04  0.00000000000E+00 0.  1.
          2    1    1    2  501    0  0.91343208706E-01 -0.27061391003E+02 -0.13399707260E+04  0.13402439605E+04  0.00000000000E+00 0.  1.
          2    1    1    2  502    0 -0.91343208706E-01  0.27061391003E+02 -0.16216088773E+02  0.31548197440E+02  0.00000000000E+00 0.  1.
</event>
<event>
 4    1  0.6651744E+003  0.4290086E+02  0.7546771E-02  0.1332277E+00
          2   -1    0    0  502    0  0.00000000000E+00  0.00000000000E+00  0.36833636098E+03  0.36833636098E+03  0.00000000000E+00 0.  1.
          2   -1    0    0  501    0 -0.00000000000E+00 -0.00000000000E+00 -0.53142866658E+01  0.53142866658E+01  0.00000000000E+00 0.  1.
          2    1    1    2  501    0  0.42788510476E+02 -0.31027215587E+01  0.13584299152E+03  0.14245631560E+03  0.00000000000E+00 0.  1.
          2    1    1    2  502    0 -0.42788510476E+02  0.31027215587E+01  0.22717908279E+03  0.23119433204E+03  0.00000000000E+00 0.  1.
</event>
<event>
 4    1  0.6651744E+003  0.4022773E+02  0.7546771E-02  0.1347156E+00
          2   -1    0    0  502    0  0.00000000000E+00  0.00000000000E+00  0.31618579541E+03  0.31618579541E+03  0.00000000000E+00 0. -1.
          2   -1    0    0  501    0 -0.00000000000E+00 -0.00000000000E+00 -0.27569935840E+02  0.27569935840E+02  0.00000000000E+00 0. -1.
          2    1    1    2  501    0  0.39501409988E+02  0.76097832717E+01  0.29941372097E+03  0.30210403257E+03  0.00000000000E+00 0. -1.
          2    1    1    2  502    0 -0.39501409988E+02 -0.76097832717E+01 -0.10797861394E+02  0.41651698682E+02  0.00000000000E+00 0. -1.
</event>
<event>
 4    1  0.6651744E+003  0.3072654E+02  0.7546771E-02  0.1413386E+00
          2   -1    0    0  502    0  0.00000000000E+00  0.00000000000E+00  0.78470381549E+01  0.78470381549E+01  0.00000000000E+00 0.  1.
          2   -1    0    0  501    0 -0.00000000000E+00 -0.00000000000E+00 -0.25448828868E+03  0.25448828868E+03  0.00000000000E+00 0.  1.
          2    1    1    2  501    0  0.28363111013E+02 -0.11817547836E+02 -0.28079379631E+02  0.41624176432E+02  0.00000000000E+00 0.  1.
          2    1    1    2  502    0 -0.28363111013E+02  0.11817547836E+02 -0.21856187089E+03  0.22071115040E+03  0.00000000000E+00 0.  1.
</event>
<event>
 4    1  0.6651744E+003  0.2934414E+02  0.7546771E-02  0.1425383E+00
          2   -1    0    0  501    0  0.00000000000E+00  0.00000000000E+00  0.26704194550E+01  0.26704194550E+01  0.00000000000E+00 0.  1.
          2   -1    0    0  502    0 -0.00000000000E+00 -0.00000000000E+00 -0.10147049590E+04  0.10147049590E+04  0.00000000000E+00 0. -1.
          2    1    1    2  501    0 -0.25419987847E+02 -0.14659565059E+02 -0.92617673661E+03  0.92664147655E+03  0.00000000000E+00 0. -1.
          2    1    1    2  502    0  0.25419987847E+02  0.14659565059E+02 -0.85857802958E+02  0.90733901926E+02  0.00000000000E+00 0.  1.
</event>
<event>
 4    1  0.6651744E+003  0.2880105E+02  0.7546771E-02  0.1430309E+00
          2   -1    0    0  502    0  0.00000000000E+00  0.00000000000E+00  0.14144773819E+03  0.14144773819E+03  0.00000000000E+00 0.  1.
          2   -1    0    0  501    0 -0.00000000000E+00 -0.00000000000E+00 -0.24742056436E+03  0.24742056436E+03  0.00000000000E+00 0.  1.
          2    1    1    2  501    0  0.24581737160E+02 -0.15007949978E+02  0.13912968219E+03  0.14207944549E+03  0.00000000000E+00 0.  1.
          2    1    1    2  502    0 -0.24581737160E+02  0.15007949978E+02 -0.24510250836E+03  0.24678885706E+03  0.00000000000E+00 0.  1.
</event>
<event>
 4    1  0.6651744E+003  0.2285962E+02  0.7546771E-02  0.1494268E+00
          2   -1    0    0  502    0  0.00000000000E+00  0.00000000000E+00  0.19206935815E+01  0.19206935815E+01  0.00000000000E+00 0. -1.
          2   -1    0    0  501    0 -0.00000000000E+00 -0.00000000000E+00 -0.15583082766E+04  0.15583082766E+04  0.00000000000E+00 0. -1.
          2    1    1    2  501    0 -0.21768712281E+02  0.69774864464E+01 -0.69444803862E+02  0.73110484439E+02  0.00000000000E+00 0. -1.
          2    1    1    2  502    0  0.21768712281E+02 -0.69774864464E+01 -0.14869427791E+04  0.14871184857E+04  0.00000000000E+00 0. -1.
</event>
<event>
 4    1  0.6651744E+003  0.3214456E+02  0.7546771E-02  0.1401832E+00
          2   -1    0    0  502    0  0.00000000000E+00  0.00000000000E+00  0.29860111360E+02  0.29860111360E+02  0.00000000000E+00 0.  1.
          2   -1    0    0  501    0 -0.00000000000E+00 -0.00000000000E+00 -0.12265521480E+03  0.12265521480E+03  0.00000000000E+00 0. -1.
          2    1    1    2  501    0 -0.32097657604E+02  0.17357828387E+01  0.18213783376E+02  0.36946102238E+02  0.00000000000E+00 0.  1.
          2    1    1    2  502    0  0.32097657604E+02 -0.17357828387E+01 -0.11100888681E+03  0.11556922392E+03  0.00000000000E+00 0. -1.
</event>
<event>
 4    1  0.6651744E+003  0.3452903E+02  0.7546771E-02  0.1383905E+00
          2   -1    0    0  501    0  0.00000000000E+00  0.00000000000E+00  0.68538063981E+03  0.68538063981E+03  0.00000000000E+00 0. -1.
          2   -1    0    0  502    0 -0.00000000000E+00 -0.00000000000E+00 -0.15971492435E+03  0.15971492435E+03  0.00000000000E+00 0.  1.
          2    1    1    2  501    0  0.84302833715E+01 -0.33484085078E+02 -0.15740751551E+03  0.16115017708E+03  0.00000000000E+00 0.  1.
          2    1    1    2  502    0 -0.84302833715E+01  0.33484085078E+02  0.68307323098E+03  0.68394538708E+03  0.00000000000E+00 0. -1.
</event>
<event>
 4    1  0.6651744E+003  0.2107071E+02  0.7546771E-02  0.1518258E+00
          2   -1    0    0  502    0  0.00000000000E+00  0.00000000000E+00  0.15997439736E+02  0.15997439736E+02  0.00000000000E+00 0.  1.
          2   -1    0    0  501    0 -0.00000000000E+00 -0.00000000000E+00 -0.90988597036E+03  0.90988597036E+03  0.00000000000E+00 0. -1.
          2    1    1    2  501    0  0.17961214169E+02 -0.11016786014E+02  0.88825633612E+01  0.22866454040E+02  0.00000000000E+00 0.  1.
          2    1    1    2  502    0 -0.17961214169E+02  0.11016786014E+02 -0.90277109399E+03  0.90301695606E+03  0.00000000000E+00 0. -1.
</event>
<event>
 4    1  0.6651744E+003  0.2679314E+02  0.7546771E-02  0.1449697E+00
          2   -1    0    0  502    0  0.00000000000E+00  0.00000000000E+00  0.71612948121E+02  0.71612948121E+02  0.00000000000E+00 0.  1.
          2   -1    0    0  501    0 -0.00000000000E+00 -0.00000000000E+00 -0.90359815198E+03  0.90359815198E+03  0.00000000000E+00 0.  1.
          2    1    1    2  501    0 -0.59172818298E+00 -0.26786605411E+02  0.68900705520E+02  0.73926852989E+02  0.00000000000E+00 0.  1.
          2    1    1    2  502    0  0.59172818298E+00  0.26786605411E+02 -0.90088590938E+03  0.90128424711E+03  0.00000000000E+00 0.  1.
</event>
<event>
 4    1  0.6651744E+003  0.2941108E+02  0.7546771E-02  0.1424784E+00
          2   -1    0    0  502    0  0.00000000000E+00  0.00000000000E+00  0.44530326515E+02  0.44530326515E+02  0.00000000000E+00 0. -1.
          2   -1    0    0  501    0 -0.00000000000E+00 -0.00000000000E+00 -0.10877845893E+04  0.10877845893E+04  0.00000000000E+00 0. -1.
          2    1    1    2  501    0  0.21186652134E+02 -0.20399441360E+02  0.39452448272E+02  0.49208811316E+02  0.00000000000E+00 0. -1.
          2    1    1    2  502    0 -0.21186652134E+02  0.20399441360E+02 -0.10827067111E+04  0.10831061045E+04  0.00000000000E+00 0. -1.
</event>
<event>
 4    1  0.6651744E+003  0.2539013E+02  0.7546771E-02  0.1464486E+00
          2   -1    0    0  502    0  0.00000000000E+00  0.00000000000E+00  0.66688294851E+01  0.66688294851E+01  0.00000000000E+00 0.  1.
          2   -1    0    0  501    0 -0.00000000000E+00 -0.00000000000E+00 -0.15182948469E+04  0.15182948469E+04  0.00000000000E+00 0.  1.
          2    1    1    2  501    0 -0.24899782935E+02 -0.49658277823E+01 -0.18003345211E+02  0.31125216056E+02  0.00000000000E+00 0.  1.
          2    1    1    2  502    0  0.24899782935E+02  0.49658277823E+01 -0.14936226722E+04  0.14938384604E+04  0.00000000000E+00 0.  1.
</event>
<event>
 4    1  0.6651744E+003  0.2265461E+02  0.7546771E-02  0.1496881E+00
          2   -1    0    0  501    0  0.00000000000E+00  0.00000000000E+00  0.62611405722E+02  0.62611405722E+02  0.00000000000E+00 0. -1.
          2   -1    0    0  502    0 -0.00000000000E+00 -0.00000000000E+00 -0.15245564439E+02  0.15245564439E+02  0.00000000000E+00 0.  1.
          2    1    1    2  501    0  0.21906586157E+02 -0.57734595316E+01 -0.27864309012E+01  0.22825326924E+02  0.00000000000E+00 0.  1.
          2    1    1    2  502    0 -0.21906586157E+02  0.57734595316E+01  0.50152272184E+02  0.55031643236E+02  0.00000000000E+00 0. -1.
</event>
<event>
 4    1  0.6651744E+003  0.3142412E+02  0.7546771E-02  0.1407612E+00
          2   -1    0    0  501    0  0.00000000000E+00  0.00000000000E+00  0.87703267056E+01  0.87703267056E+01  0.00000000000E+00 0. -1.
          2   -1    0    0  502    0 -0.00000000000E+00 -0.00000000000E+00 -0.31123570136E+03  0.31123570136E+03  0.00000000000E+00 0. -1.
          2    1    1    2  501    0  0.11471294931E+02 -0.29255508433E+02 -0.27905892803E+03  0.28082264990E+03  0.00000000000E+00 0. -1.
          2    1    1    2  502    0 -0.11471294931E+02  0.29255508433E+02 -0.23406446620E+02  0.39183378166E+02  0.00000000000E+00 0. -1.
</event>
<event>
 4    1  0.6651744E+003  0.2508139E+02  0.7546771E-02  0.1467895E+00
          2   -1    0    0  501    0  0.00000000000E+00  0.00000000000E+00  0.53074308654E+02  0.53074308654E+02  0.00000000000E+00 0. -1.
          2   -1    0    0  502    0 -0.00000000000E+00 -0.00000000000E+00 -0.18839199762E+03  0.18839199762E+03  0.00000000000E+00 0.  1.
          2    1    1    2  501    0  0.28305758016E+01  0.24921150260E+02 -0.18453232230E+03  0.18622903603E+03  0.00000000000E+00 0.  1.
          2    1    1    2  502    0 -0.28305758016E+01 -0.24921150260E+02  0.49214633331E+02  0.55237270240E+02  0.00000000000E+00 0. -1.
</event>
<event>
 4    1  0.6651744E+003  0.3522344E+02  0.7546771E-02  0.1378999E+00
          2   -1    0    0  501    0  0.00000000000E+00  0.00000000000E+00  0.35711299298E+03  0.35711299298E+03  0.00000000000E+00 0. -1.
          2   -1    0    0  502    0 -0.00000000000E+00 -0.00000000000E+00 -0.41032764935E+01  0.41032764935E+01  0.00000000000E+00 0. -1.
          2    1    1    2  501    0  0.28431192345E+02 -0.20793221611E+02  0.24722044283E+03  0.24971711618E+03  0.00000000000E+00 0. -1.
          2    1    1    2  502    0 -0.28431192345E+02  0.20793221611E+02  0.10578927366E+03  0.11149915329E+03  0.00000000000E+00 0. -1.
</event>
<event>
 4    1  0.6651744E+003  0.2228184E+02  0.7546771E-02  0.1501719E+00
          2   -1    0    0  502    0  0.00000000000E+00  0.00000000000E+00  0.13147159553E+01  0.13147159553E+01  0.00000000000E+00 0. -1.
          2   -1    0    0  501    0 -0.00000000000E+00 -0.00000000000E+00 -0.16208270442E+04  0.16208270442E+04  0.00000000000E+00 0.  1.
          2    1    1    2  501    0  0.17915561838E+02 -0.13248129663E+02 -0.99426567402E+02  0.10189270141E+03  0.00000000000E+00 0. -1.
          2    1    1    2  502    0 -0.17915561838E+02  0.13248129663E+02 -0.15200857608E+04  0.15202490587E+04  0.00000000000E+00 0.  1.
</event>
<event>
 4    1  0.6651744E+003  0.2889088E+02  0.7546771E-02  0.1429486E+00
          2   -1    0    0  502    0  0.00000000000E+00  0.00000000000E+00  0.75805241606E+03  0.75805241606E+03  0.00000000000E+00 0. -1.
          2   -1    0    0  501    0 -0.00000000000E+00 -0.00000000000E+00 -0.56879392806E+01  0.56879392806E+01  0.00000000000E+00 0.  1.
          2    1    1    2  501    0  0.79103765298E+01 -0.27786846945E+02  0.71910441037E+03  0.71968453918E+03  0.00000000000E+00 0. -1.
          2    1    1    2  502    0 -0.79103765298E+01  0.27786846945E+02  0.33260066404E+02  0.44055816156E+02  0.00000000000E+00 0.  1.
</event>
<event>
 4    1  0.6651744E+003  0.2502567E+02  0.7546771E-02  0.1468516E+00
          2   -1    0    0  502    0  0.00000000000E+00  0.00000000000E+00  0.61652914345E+02  0.61652914345E+02  0.00000000000E+00 0. -1.
          2   -1    0    0  501    0 -0.00000000000E+00 -0.00000000000E+00 -0.10188328434E+03  0.10188328434E+03  0.00000000000E+00 0.  1.
          2    1    1    2  501    0 -0.19822601630E+02  0.15275745489E+02  0.57469579206E+02  0.62682026688E+02  0.00000000000E+00 0. -1.
          2    1    1    2  502    0  0.19822601630E+02 -0.15275745489E+02 -0.97699949204E+02  0.10085417200E+03  0.00000000000E+00 0.  1.
</event>
<event>
 4    1  0.6651744E+003  0.2097397E+02  0.7546771E-02  0.1519637E+00
          2   -1    0    0  501    0  0.00000000000E+00  0.00000000000E+00  0.11409673648E+04  0.11409673648E+04  0.00000000000E+00 0. -1.
          2   -1    0    0  502    0 -0.00000000000E+00 -0.00000000000E+00 -0.24052507610E+02  0.24052507610E+02  0.00000000000E+00 0. -1.
          2    1    1    2  501    0  0.16428920887E+02 -0.13038323357E+02 -0.19364892856E+02  0.28546565341E+02  0.00000000000E+00 0. -1.
          2    1    1    2  502    0 -0.16428920887E+02  0.13038323357E+02  0.11362797501E+04  0.11364733071E+04  0.00000000000E+00 0. -1.
</event>
<event>
 4    1  0.6651744E+003  0.3625442E+02  0.7546771E-02  0.1371952E+00
          2   -1    0    0  502    0  0.00000000000E+00  0.00000000000E+00  0.10006671678E+01  0.10006671678E+01  0.00000000000E+00 0.  1.
          2   -1    0    0  501    0 -0.00000000000E+00 -0.00000000000E+00 -0.16902634322E+04  0.16902634322E+04  0.00000000000E+00 0. -1.
          2    1    1    2  501    0 -0.35009425278E+02  0.94192949570E+01 -0.44539071038E+03  0.44686381355E+03  0.00000000000E+00 0.  1.
          2    1    1    2  502    0  0.35009425278E+02 -0.94192949570E+01 -0.12438720546E+04  0.12444002858E+04  0.00000000000E+00 0. -1.
</event>
<event>
 4    1  0.6651744E+003  0.7183430E+02  0.7546771E-02  0.1224189E+00
          2   -1    0    0  502    0  0.00000000000E+00  0.00000000000E+00  0.66052816163E+02  0.66052816163E+02  0.00000000000E+00 0.  1.
          2   -1    0    0  501    0 -0.00000000000E+00 -0.00000000000E+00 -0.41712494580E+03  0.41712494580E+03  0.00000000000E+00 0.  1.
          2    1    1    2  501    0  0.49182877112E+02 -0.52356571888E+02  0.42257836176E+02  0.83342010650E+02  0.00000000000E+00 0.  1.
          2    1    1    2  502    0 -0.49182877112E+02  0.52356571888E+02 -0.39332996581E+03  0.39983575131E+03  0.00000000000E+00 0.  1.
</event>
<event>
 4    1  0.6651744E+003  0.2484191E+02  0.7546771E-02  0.1470580E+00
          2   -1    0    0  501    0  0.00000000000E+00  0.00000000000E+00  0.12848453287E+04  0.12848453287E+04  0.00000000000E+00 0.  1.
          2   -1    0    0  502    0 -0.00000000000E+00 -0.00000000000E+00 -0.51618180860E+00  0.51618180860E+00  0.00000000000E+00 0.  1.
          2    1    1    2  501    0  0.40373730194E+01 -0.24511630772E+02  0.47273558654E+03  0.47338784860E+03  0.00000000000E+00 0.  1.
          2    1    1    2  502    0 -0.40373730194E+01  0.24511630772E+02  0.81159356034E+03  0.81197366189E+03  0.00000000000E+00 0.  1.
</event>
<event>
 4    1  0.6651744E+003  0.2647258E+02  0.7546771E-02  0.1452979E+00
          2   -1    0    0  502    0  0.00000000000E+00  0.00000000000E+00  0.11320633257E+04  0.11320633257E+04  0.00000000000E+00 0. -1.
          2   -1    0    0  501    0 -0.00000000000E+00 -0.00000000000E+00 -0.45770774363E+02  0.45770774363E+02  0.00000000000E+00 0. -1.
          2    1    1    2  501    0 -0.24536880368E+02  0.99367625762E+01  0.11280672492E+04  0.11283778252E+04  0.00000000000E+00 0. -1.
          2    1    1    2  502    0  0.24536880368E+02 -0.99367625762E+01 -0.41774697810E+02  0.49456274888E+02  0.00000000000E+00 0. -1.
</event>
<event>
 4    1  0.6651744E+003  0.2201296E+02  0.7546771E-02  0.1505279E+00
          2   -1    0    0  502    0  0.00000000000E+00  0.00000000000E+00  0.18727307330E+02  0.18727307330E+02  0.00000000000E+00 0.  1.
          2   -1    0    0  501    0 -0.00000000000E+00 -0.00000000000E+00 -0.12380107615E+04  0.12380107615E+04  0.00000000000E+00 0.  1.
          2    1    1    2  501    0 -0.49256735737E+01 -0.21454788047E+02  0.12126015156E+02  0.25131860931E+02  0.00000000000E+00 0.  1.
          2    1    1    2  502    0  0.49256735737E+01  0.21454788047E+02 -0.12314094693E+04  0.12316062079E+04  0.00000000000E+00 0.  1.
</event>
<event>
 4    1  0.6651744E+003  0.3750280E+02  0.7546771E-02  0.1363775E+00
          2   -1    0    0  502    0  0.00000000000E+00  0.00000000000E+00  0.84465064422E+02  0.84465064422E+02  0.00000000000E+00 0. -1.
          2   -1    0    0  501    0 -0.00000000000E+00 -0.00000000000E+00 -0.71238257211E+03  0.71238257211E+03  0.00000000000E+00 0.  1.
          2    1    1    2  501    0  0.92357725951E+01 -0.36347770393E+02  0.79781110529E+02  0.88156029318E+02  0.00000000000E+00 0. -1.
          2    1    1    2  502    0 -0.92357725951E+01  0.36347770393E+02 -0.70769861822E+03  0.70869160722E+03  0.00000000000E+00 0.  1.
</event>
<event>
 4    1  0.6651744E+003  0.2578475E+02  0.7546771E-02  0.1460213E+00
          2   -1    0    0  501    0  0.00000000000E+00  0.00000000000E+00  0.41390701369E+02  0.41390701369E+02  0.00000000000E+00 0.  1.
          2   -1    0    0  502    0 -0.00000000000E+00 -0.00000000000E+00 -0.34347971779E+02  0.34347971779E+02  0.00000000000E+00 0.  1.
          2    1    1    2  501    0 -0.39709862039E+01 -0.25477134435E+02 -0.24108956695E+02  0.35300069452E+02  0.00000000000E+00 0.  1.
          2    1    1    2  502    0  0.39709862039E+01  0.25477134435E+02  0.31151686285E+02  0.40438603695E+02  0.00000000000E+00 0.  1.
</event>
<event>
 4    1  0.6651744E+003  0.2478429E+02  0.7546771E-02  0.1471231E+00
          2   -1    0    0  502    0  0.00000000000E+00  0.00000000000E+00  0.62744221406E+01  0.62744221406E+01  0.00000000000E+00 0.  1.
          2   -1    0    0  501    0 -0.00000000000E+00 -0.00000000000E+00 -0.36396887463E+03  0.36396887463E+03  0.00000000000E+00 0.  1.
          2    1    1    2  501    0 -0.72559035888E+01  0.23698377233E+02 -0.20568431545E+02  0.32207477340E+02  0.00000000000E+00 0.  1.
          2    1    1    2  502    0  0.72559035888E+01 -0.23698377233E+02 -0.33712602094E+03  0.33803581943E+03  0.00000000000E+00 0.  1.
</event>
<event>
 4    1  0.6651744E+003  0.2461180E+02  0.7546771E-02  0.1473193E+00
          2   -1    0    0  502    0  0.00000000000E+00  0.00000000000E+00  0.11892679617E+01  0.11892679617E+01  0.00000000000E+00 0. -1.
          2   -1    0    0  501    0 -0.00000000000E+00 -0.00000000000E+00 -0.73306487320E+03  0.73306487320E+03  0.00000000000E+00 0.  1.
          2    1    1    2  501    0 -0.22221507564E+02 -0.10580410055E+02 -0.16312126026E+03  0.16496753021E+03  0.00000000000E+00 0. -1.
          2    1    1    2  502    0  0.22221507564E+02  0.10580410055E+02 -0.56875434498E+03  0.56928661095E+03  0.00000000000E+00 0.  1.
</event>
<event>
 4    1  0.6651744E+003  0.2765222E+02  0.7546771E-02  0.1441164E+00
          2   -1    0    0  501    0  0.00000000000E+00  0.00000000000E+00  0.52656599974E+03  0.52656599974E+03  0.00000000000E+00 0. -1.
          2   -1    0    0  502    0 -0.00000000000E+00 -0.00000000000E+00 -0.10881290641E+03  0.10881290641E+03  0.00000000000E+00 0. -1.
          2    1    1    2  501    0  0.22368439536E+02 -0.16257246395E+02 -0.10668596385E+03  0.11021134257E+03  0.00000000000E+00 0. -1.
          2    1    1    2  502    0 -0.22368439536E+02  0.16257246395E+02  0.52443905718E+03  0.52516756358E+03  0.00000000000E+00 0. -1.
</event>
<event>
 4    1  0.6651744E+003  0.3332876E+02  0.7546771E-02  0.1392709E+00
          2   -1    0    0  502    0  0.00000000000E+00  0.00000000000E+00  0.16558382254E+03  0.16558382254E+03  0.00000000000E+00 0. -1.
          2   -1    0    0  501    0 -0.00000000000E+00 -0.00000000000E+00 -0.25095183598E+02  0.25095183598E+02  0.00000000000E+00 0.  1.
          2    1    1    2  501    0  0.32957282942E+02  0.49622325378E+01  0.15185186410E+03  0.15546637862E+03  0.00000000000E+00 0. -1.
          2    1    1    2  502    0 -0.32957282942E+02 -0.49622325378E+01 -0.11363225158E+02  0.35212627517E+02  0.00000000000E+00 0.  1.
</event>
<event>
 4    1  0.6651744E+003  0.2240660E+02  0.7546771E-02  0.1500087E+00
          2   -1    0    0  501    0  0.00000000000E+00  0.00000000000E+00  0.41163814366E+02  0.41163814366E+02  0.00000000000E+00 0.  1.
          2   -1    0    0  502    0 -0.00000000000E+00 -0.00000000000E+00 -0.11884625267E+04  0.11884625267E+04  0.00000000000E+00 0.  1.
          2    1    1    2  501    0  0.63501105451E+00  0.22397602738E+02 -0.11852996473E+04  0.11855114128E+04  0.00000000000E+00 0.  1.
          2    1    1    2  502    0 -0.63501105451E+00 -0.22397602738E+02  0.38000934938E+02  0.44114928353E+02  0.00000000000E+00 0.  1.
</event>
<event>
 4    1  0.6651744E+003  0.2214114E+02  0.7546771E-02  0.1503574E+00
          2   -1    0    0  501    0  0.00000000000E+00  0.00000000000E+00  0.38127213206E+01  0.38127213206E+01  0.00000000000E+00 0.  1.
          2   -1    0    0  502    0 -0.00000000000E+00 -0.00000000000E+00 -0.87007073099E+03  0.87007073099E+03  0.00000000000E+00 0.  1.
          2    1    1    2  501    0  0.21685825541E+02  0.44671286866E+01 -0.83649550658E+03  0.83678848152E+03  0.00000000000E+00 0.  1.
          2    1    1    2  502    0 -0.21685825541E+02 -0.44671286866E+01 -0.29762503087E+02  0.37094970793E+02  0.00000000000E+00 0.  1.
</event>
<event>
 4    1  0.6651744E+003  0.2324640E+02  0.7546771E-02  0.1489427E+00
          2   -1    0    0  502    0  0.00000000000E+00  0.00000000000E+00  0.40418802265E+02  0.40418802265E+02  0.00000000000E+00 0. -1.
          2   -1    0    0  501    0 -0.00000000000E+00 -0.00000000000E+00 -0.65785457742E+02  0.65785457742E+02  0.00000000000E+00 0. -1.
          2    1    1    2  501    0  0.53272118350E+01  0.22627768658E+02  0.34716539129E+02  0.41780775357E+02  0.00000000000E+00 0. -1.
          2    1    1    2  502    0 -0.53272118350E+01 -0.22627768658E+02 -0.60083194606E+02  0.64423484650E+02  0.00000000000E+00 0. -1.
</event>
<event>
 4    1  0.6651744E+003  0.2299433E+02  0.7546771E-02  0.1492569E+00
          2   -1    0    0  502    0  0.00000000000E+00  0.00000000000E+00  0.50616387380E+03  0.50616387380E+03  0.00000000000E+00 0.  1.
          2   -1    0    0  501    0 -0.00000000000E+00 -0.00000000000E+00 -0.90538412182E+01  0.90538412182E+01  0.00000000000E+00 0. -1.
          2    1    1    2  501    0  0.64072991141E+01 -0.22083606825E+02  0.49084754394E+03  0.49138584693E+03  0.00000000000E+00 0.  1.
          2    1    1    2  502    0 -0.64072991141E+01  0.22083606825E+02  0.62624886359E+01  0.23831868081E+02  0.00000000000E+00 0. -1.
</event>
<event>
 4    1  0.6651744E+003  0.2367994E+02  0.7546771E-02  0.1484132E+00
          2   -1    0    0  501    0  0.00000000000E+00  0.00000000000E+00  0.58065759609E+00  0.58065759609E+00  0.00000000000E+00 0. -1.
          2   -1    0    0  502    0 -0.00000000000E+00 -0.00000000000E+00 -0.11590320484E+04  0.11590320484E+04  0.00000000000E+00 0.  1.
          2    1    1    2  501    0  0.20379182017E+02  0.12059367649E+02 -0.81603040299E+03  0.81637390821E+03  0.00000000000E+00 0.  1.
          2    1    1    2  502    0 -0.20379182017E+02 -0.12059367649E+02 -0.34242098782E+03  0.34323879779E+03  0.00000000000E+00 0. -1.
</event>
<event>
 4    1  0.6651744E+003  0.2461010E+02  0.7546771E-02  0.1473213E+00
          2   -1    0    0  501    0  0.00000000000E+00  0.00000000000E+00  0.95315141535E+03  0.95315141535E+03  0.00000000000E+00 0. -1.
          2   -1    0    0  502    0 -0.00000000000E+00 -0.00000000000E+00 -0.48418347708E+01  0.48418347708E+01  0.00000000000E+00 0. -1.
          2    1    1    2  501    0  0.60301500567E+01  0.23859893079E+02  0.27694119666E+02  0.37048906482E+02  0.00000000000E+00 0. -1.
          2    1    1    2  502    0 -0.60301500567E+01 -0.23859893079E+02  0.92061546091E+03  0.92094434364E+03  0.00000000000E+00 0. -1.
</event>
<event>
 4    1  0.6651744E+003  0.2051143E+02  0.7546771E-02  0.1526356E+00
          2   -1    0    0  501    0  0.00000000000E+00  0.00000000000E+00  0.97183660411E+02  0.97183660411E+02  0.00000000000E+00 0. -1.
          2   -1    0    0  502    0 -0.00000000000E+00 -0.00000000000E+00 -0.73775078214E+03  0.73775078214E+03  0.00000000000E+00 0. -1.
          2    1    1    2  501    0 -0.16769004430E+02  0.11811825223E+02 -0.73652413455E+03  0.73680969015E+03  0.00000000000E+00 0. -1.
          2    1    1    2  502    0  0.16769004430E+02 -0.11811825223E+02  0.95957012820E+02  0.98124752402E+02  0.00000000000E+00 0. -1.
</event>
<event>
 4    1  0.6651744E+003  0.2018792E+02  0.7546771E-02  0.1531182E+00
          2   -1    0    0  501    0  0.00000000000E+00  0.00000000000E+00  0.56204232500E+03  0.56204232500E+03  0.00000000000E+00 0. -1.
          2   -1    0    0  502    0 -0.00000000000E+00 -0.00000000000E+00 -0.98402210987E+00  0.98402210987E+00  0.00000000000E+00 0.  1.
          2    1    1    2  501    0  0.61047322852E+00  0.20178691132E+02  0.13613222907E+03  0.13762098693E+03  0.00000000000E+00 0.  1.
          2    1    1    2  502    0 -0.61047322852E+00 -0.20178691132E+02  0.42492607383E+03  0.42540536018E+03  0.00000000000E+00 0. -1.
</event>
<event>
 4    1  0.6651744E+003  0.2781456E+02  0.7546771E-02  0.1439593E+00
          2   -1    0    0  502    0  0.00000000000E+00  0.00000000000E+00  0.15741705684E+04  0.15741705684E+04  0.00000000000E+00 0.  1.
          2   -1    0    0  501    0 -0.00000000000E+00 -0.00000000000E+00 -0.14372766239E+01  0.14372766239E+01  0.00000000000E+00 0.  1.
          2    1    1    2  501    0 -0.24782499347E+02 -0.12628448170E+02  0.14254393176E+04  0.14257106643E+04  0.00000000000E+00 0.  1.
          2    1    1    2  502    0  0.24782499347E+02  0.12628448170E+02  0.14729397412E+03  0.14989718072E+03  0.00000000000E+00 0.  1.
</event>
<event>
 4    1  0.6651744E+003  0.3868071E+02  0.7546771E-02  0.1356395E+00
          2   -1    0    0  502    0  0.00000000000E+00  0.00000000000E+00  0.49388141360E+01  0.49388141360E+01  0.00000000000E+00 0.  1.
          2   -1    0    0  501    0 -0.00000000000E+00 -0.00000000000E+00 -0.63594386693E+03  0.63594386693E+03  0.00000000000E+00 0. -1.
          2    1    1    2  501    0  0.34748932014E+02 -0.16991451180E+02 -0.83624612151E+02  0.92137253305E+02  0.00000000000E+00 0.  1.
          2    1    1    2  502    0 -0.34748932014E+02  0.16991451180E+02 -0.54738044064E+03  0.54874542776E+03  0.00000000000E+00 0. -1.
</event>
<event>
 4    1  0.6651744E+003  0.4342833E+02  0.7546771E-02  0.1329488E+00
          2   -1    0    0  502    0  0.00000000000E+00  0.00000000000E+00  0.42101724113E+02  0.42101724113E+02  0.00000000000E+00 0.  1.
          2   -1    0    0  501    0 -0.00000000000E+00 -0.00000000000E+00 -0.75355454313E+02  0.75355454313E+02  0.00000000000E+00 0.  1.
          2    1    1    2  501    0 -0.14911419876E+02  0.40788103372E+02  0.20772117666E+02  0.48140426792E+02  0.00000000000E+00 0.  1.
          2    1    1    2  502    0  0.14911419876E+02 -0.40788103372E+02 -0.54025847867E+02  0.69316751634E+02  0.00000000000E+00 0.  1.
</event>
<event>
 4    1  0.6651744E+003  0.4670202E+02  0.7546771E-02  0.1313141E+00
          2   -1    0    0  501    0  0.00000000000E+00  0.00000000000E+00  0.72966216907E+01  0.72966216907E+01  0.00000000000E+00 0.  1.
          2   -1    0    0  502    0 -0.00000000000E+00 -0.00000000000E+00 -0.45809703253E+03  0.45809703253E+03  0.00000000000E+00 0.  1.
          2    1    1    2  501    0 -0.27088133968E+02  0.38043554701E+02 -0.36256952707E+03  0.36556496142E+03  0.00000000000E+00 0.  1.
          2    1    1    2  502    0  0.27088133968E+02 -0.38043554701E+02 -0.88230883768E+02  0.99828692803E+02  0.00000000000E+00 0.  1.
</event>
<event>
 4    1  0.8766090E+003  0.2751523E+02  0.7546771E-02  0.1442500E+00
          2   -1    0    0  502    0  0.00000000000E+00  0.00000000000E+00  0.38859153008E+03  0.38859153008E+03  0.00000000000E+00 0. -1.
          2   -1    0    0  501    0 -0.00000000000E+00 -0.00000000000E+00 -0.19810446862E+04  0.19810446862E+04  0.00000000000E+00 0.  1.
          2    1    1    2  501    0  0.15617183304E+01 -0.27470875037E+02  0.38800877344E+03  0.38898315671E+03  0.00000000000E+00 0. -1.
          2    1    1    2  502    0 -0.15617183304E+01  0.27470875037E+02 -0.19804619296E+04  0.19806530596E+04  0.00000000000E+00 0.  1.
</event>
<event>
 4    1  0.6651744E+003  0.2236464E+02  0.7546771E-02  0.1500634E+00
          2   -1    0    0  502    0  0.00000000000E+00  0.00000000000E+00  0.13085193384E+02  0.13085193384E+02  0.00000000000E+00 0. -1.
          2   -1    0    0  501    0 -0.00000000000E+00 -0.00000000000E+00 -0.63180202632E+03  0.63180202632E+03  0.00000000000E+00 0.  1.
          2    1    1    2  501    0 -0.22350590963E+02  0.79263859893E+00  0.31789368944E+01  0.22589440722E+02  0.00000000000E+00 0. -1.
          2    1    1    2  502    0  0.22350590963E+02 -0.79263859893E+00 -0.62189576984E+03  0.62229777899E+03  0.00000000000E+00 0.  1.
</event>
<event>
 4    1  0.6651744E+003  0.2461793E+02  0.7546771E-02  0.1473123E+00
          2   -1    0    0  501    0  0.00000000000E+00  0.00000000000E+00  0.14386862639E+04  0.14386862639E+04  0.00000000000E+00 0.  1.
          2   -1    0    0  502    0 -0.00000000000E+00 -0.00000000000E+00 -0.30027652387E+02  0.30027652387E+02  0.00000000000E+00 0.  1.
          2    1    1    2  501    0 -0.18178923649E+02  0.16600281980E+02 -0.24858442928E+02  0.34985494304E+02  0.00000000000E+00 0.  1.
          2    1    1    2  502    0  0.18178923649E+02 -0.16600281980E+02  0.14335170544E+04  0.14337284220E+04  0.00000000000E+00 0.  1.
</event>
<event>
 4    1  0.6651744E+003  0.9255358E+02  0.7546771E-02  0.1177377E+00
          2   -1    0    0  501    0  0.00000000000E+00  0.00000000000E+00  0.35757926887E+02  0.35757926887E+02  0.00000000000E+00 0.  1.
          2   -1    0    0  502    0 -0.00000000000E+00 -0.00000000000E+00 -0.17876093884E+04  0.17876093884E+04  0.00000000000E+00 0. -1.
          2    1    1    2  501    0  0.63614700106E+02 -0.67225998577E+02 -0.17243249854E+04  0.17268071172E+04  0.00000000000E+00 0. -1.
          2    1    1    2  502    0 -0.63614700106E+02  0.67225998577E+02 -0.27526476107E+02  0.96560198017E+02  0.00000000000E+00 0.  1.
</event>
<event>
 4    1  0.6651744E+003  0.2829870E+02  0.7546771E-02  0.1434981E+00
          2   -1    0    0  502    0  0.00000000000E+00  0.00000000000E+00  0.13535626140E+03  0.13535626140E+03  0.00000000000E+00 0.  1.
          2   -1    0    0  501    0 -0.00000000000E+00 -0.00000000000E+00 -0.32594277560E+03  0.32594277560E+03  0.00000000000E+00 0.  1.
          2    1    1    2  501    0 -0.54313164854E+01  0.27772598195E+02  0.13325335405E+03  0.13622508129E+03  0.00000000000E+00 0.  1.
          2    1    1    2  502    0  0.54313164854E+01 -0.27772598195E+02 -0.32383986825E+03  0.32507395571E+03  0.00000000000E+00 0.  1.
</event>
<event>
 4    1  0.6651744E+003  0.2125388E+02  0.7546771E-02  0.1515671E+00
          2   -1    0    0  501    0  0.00000000000E+00  0.00000000000E+00  0.14687859327E+03  0.14687859327E+03  0.00000000000E+00 0.  1.
          2   -1    0    0  502    0 -0.00000000000E+00 -0.00000000000E+00 -0.10548665472E+03  0.10548665472E+03  0.00000000000E+00 0.  1.
          2    1    1    2  501    0  0.13729946371E+02  0.16223934582E+02 -0.10363358933E+03  0.10579058710E+03  0.00000000000E+00 0.  1.
          2    1    1    2  502    0 -0.13729946371E+02 -0.16223934582E+02  0.14502552788E+03  0.14657466090E+03  0.00000000000E+00 0.  1.
</event>
<event>
 4    1  0.6651744E+003  0.2008002E+02  0.7546771E-02  0.1532816E+00
          2   -1    0    0  502    0  0.00000000000E+00  0.00000000000E+00  0.64111190362E+01  0.64111190362E+01  0.00000000000E+00 0.  1.
          2   -1    0    0  501    0 -0.00000000000E+00 -0.00000000000E+00 -0.99358913352E+03  0.99358913352E+03  0.00000000000E+00 0.  1.
          2    1    1    2  501    0  0.20065327638E+02  0.76792038888E+00 -0.96719585372E+01  0.22287975612E+02  0.00000000000E+00 0.  1.
          2    1    1    2  502    0 -0.20065327638E+02 -0.76792038888E+00 -0.97750605594E+03  0.97771227694E+03  0.00000000000E+00 0.  1.
</event>
<event>
 4    1  0.6651744E+003  0.2597037E+02  0.7546771E-02  0.1458234E+00
          2   -1    0    0  502    0  0.00000000000E+00  0.00000000000E+00  0.20834392848E+02  0.20834392848E+02  0.00000000000E+00 0.  1.
          2   -1    0    0  501    0 -0.00000000000E+00 -0.00000000000E+00 -0.11000175000E+04  0.11000175000E+04  0.00000000000E+00 0.  1.
          2    1    1    2  501    0 -0.85172465254E+01  0.24533984210E+02  0.12526421818E+02  0.28833506778E+02  0.00000000000E+00 0.  1.
          2    1    1    2  502    0  0.85172465254E+01 -0.24533984210E+02 -0.10917095289E+04  0.10920183860E+04  0.00000000000E+00 0.  1.
</event>
<event>
 4    1  0.6651744E+003  0.3407234E+02  0.7546771E-02  0.1387205E+00
          2   -1    0    0  501    0  0.00000000000E+00  0.00000000000E+00  0.33061718964E+02  0.33061718964E+02  0.00000000000E+00 0.  1.
          2   -1    0    0  502    0 -0.00000000000E+00 -0.00000000000E+00 -0.43802872834E+02  0.43802872834E+02  0.00000000000E+00 0.  1.
          2    1    1    2  501    0 -0.11662190930E+02 -0.32014334835E+02 -0.22487686554E+02  0.40824262134E+02  0.00000000000E+00 0.  1.
          2    1    1    2  502    0  0.11662190930E+02  0.32014334835E+02  0.11746532684E+02  0.36040329664E+02  0.00000000000E+00 0.  1.
</event>
<event>
 4    1  0.6651744E+003  0.3161219E+02  0.7546771E-02  0.1406085E+00
          2   -1    0    0  502    0  0.00000000000E+00  0.00000000000E+00  0.37210069478E+01  0.37210069478E+01  0.00000000000E+00 0. -1.
          2   -1    0    0  501    0 -0.00000000000E+00 -0.00000000000E+00 -0.47366388266E+03  0.47366388266E+03  0.00000000000E+00 0. -1.
          2    1    1    2  501    0 -0.30971229298E+02 -0.63335067433E+01 -0.77904159172E+02  0.84073707948E+02  0.00000000000E+00 0. -1.
          2    1    1    2  502    0  0.30971229298E+02  0.63335067433E+01 -0.39203871654E+03  0.39331118166E+03  0.00000000000E+00 0. -1.
</event>
<event>
 4    1  0.6651744E+003  0.2561973E+02  0.7546771E-02  0.1461988E+00
          2   -1    0    0  502    0  0.00000000000E+00  0.00000000000E+00  0.79329124871E+01  0.79329124871E+01  0.00000000000E+00 0.  1.
          2   -1    0    0  501    0 -0.00000000000E+00 -0.00000000000E+00 -0.85757067908E+02  0.85757067908E+02  0.00000000000E+00 0. -1.
          2    1    1    2  501    0 -0.19978900494E+02 -0.16037897921E+02 -0.30125747365E+02  0.39546571140E+02  0.00000000000E+00 0.  1.
          2    1    1    2  502    0  0.19978900494E+02  0.16037897921E+02 -0.47698408056E+02  0.54143409255E+02  0.00000000000E+00 0. -1.
</event>
<event>
 4    1  0.6651744E+003  0.2393955E+02  0.7546771E-02  0.1481026E+00
          2   -1    0    0  501    0  0.00000000000E+00  0.00000000000E+00  0.19042027163E+02  0.19042027163E+02  0.00000000000E+00 0.  1.
          2   -1    0    0  502    0 -0.00000000000E+00 -0.00000000000E+00 -0.76714077024E+03  0.76714077024E+03  0.00000000000E+00 0.  1.
          2    1    1    2  501    0  0.12889674953E+02  0.20173205451E+02 -0.75935268243E+03  0.75972995087E+03  0.00000000000E+00 0.  1.
          2    1    1    2  502    0 -0.12889674953E+02 -0.20173205451E+02  0.11253939354E+02  0.26452846530E+02  0.00000000000E+00 0.  1.
</event>
<event>
 4    1  0.6651744E+003  0.3589506E+02  0.7546771E-02  0.1374378E+00
          2   -1    0    0  502    0  0.00000000000E+00  0.00000000000E+00  0.40748932540E+03  0.40748932540E+03  0.00000000000E+00 0.  1.
          2   -1    0    0  501    0 -0.00000000000E+00 -0.00000000000E+00 -0.22743945926E+03  0.22743945926E+03  0.00000000000E+00 0. -1.
          2    1    1    2  501    0 -0.31947181795E+02 -0.16365597575E+02  0.40527485614E+03  0.40686135750E+03  0.00000000000E+00 0.  1.
          2    1    1    2  502    0  0.31947181795E+02  0.16365597575E+02 -0.22522499000E+03  0.22806742716E+03  0.00000000000E+00 0. -1.
</event>
<event>
 4    1  0.6651744E+003  0.2476689E+02  0.7546771E-02  0.1471428E+00
          2   -1    0    0  502    0  0.00000000000E+00  0.00000000000E+00  0.98074315259E+01  0.98074315259E+01  0.00000000000E+00 0.  1.
          2   -1    0    0  501    0 -0.00000000000E+00 -0.00000000000E+00 -0.33059692301E+03  0.33059692301E+03  0.00000000000E+00 0.  1.
          2    1    1    2  501    0 -0.76861800456E+01 -0.23544027865E+02 -0.71358240578E+01  0.25774378689E+02  0.00000000000E+00 0.  1.
          2    1    1    2  502    0  0.76861800456E+01  0.23544027865E+02 -0.31365366743E+03  0.31462997585E+03  0.00000000000E+00 0.  1.
</event>
<event>
 4    1  0.6651744E+003  0.2807448E+02  0.7546771E-02  0.1437103E+00
          2   -1    0    0  501    0  0.00000000000E+00  0.00000000000E+00  0.49169747675E+02  0.49169747675E+02  0.00000000000E+00 0.  1.
          2   -1    0    0  502    0 -0.00000000000E+00 -0.00000000000E+00 -0.27981926280E+02  0.27981926280E+02  0.00000000000E+00 0.  1.
          2    1    1    2  501    0  0.12866201425E+02 -0.24952704647E+02 -0.14617714643E+02  0.31652080338E+02  0.00000000000E+00 0.  1.
          2    1    1    2  502    0 -0.12866201425E+02  0.24952704647E+02  0.35805536039E+02  0.45499593617E+02  0.00000000000E+00 0.  1.
</event>
<event>
 4    1  0.6651744E+003  0.3280285E+02  0.7546771E-02  0.1396705E+00
          2   -1    0    0  501    0  0.00000000000E+00  0.00000000000E+00  0.20818515530E+01  0.20818515530E+01  0.00000000000E+00 0.  1.
          2   -1    0    0  502    0 -0.00000000000E+00 -0.00000000000E+00 -0.80010169998E+03  0.80010169998E+03  0.00000000000E+00 0. -1.
          2    1    1    2  501    0 -0.31054805479E+02 -0.10565321026E+02 -0.63765327052E+03  0.63849645289E+03  0.00000000000E+00 0. -1.
          2    1    1    2  502    0  0.31054805479E+02  0.10565321026E+02 -0.16036657791E+03  0.16368709864E+03  0.00000000000E+00 0.  1.
</event>
<event>
 4    1  0.6651744E+003  0.2282759E+02  0.7546771E-02  0.1494675E+00
          2   -1    0    0  501    0  0.00000000000E+00  0.00000000000E+00  0.18797056047E+01  0.18797056047E+01  0.00000000000E+00 0.  1.
          2   -1    0    0  502    0 -0.00000000000E+00 -0.00000000000E+00 -0.69138755782E+03  0.69138755782E+03  0.00000000000E+00 0.  1.
          2    1    1    2  501    0  0.19659585978E+02 -0.11601699397E+02 -0.61303872737E+03  0.61346359305E+03  0.00000000000E+00 0.  1.
          2    1    1    2  502    0 -0.19659585978E+02  0.11601699397E+02 -0.76469124846E+02  0.79803670370E+02  0.00000000000E+00 0.  1.
</event>
<event>
 4    1  0.6651744E+003  0.2011827E+02  0.7546771E-02  0.1532235E+00
          2   -1    0    0  502    0  0.00000000000E+00  0.00000000000E+00  0.16486321376E+01  0.16486321376E+01  0.00000000000E+00 0.  1.
          2   -1    0    0  501    0 -0.00000000000E+00 -0.00000000000E+00 -0.25346354650E+03  0.25346354650E+03  0.00000000000E+00 0.  1.
          2    1    1    2  501    0  0.20006265598E+02 -0.21198920293E+01 -0.14851259254E+03  0.14986905867E+03  0.00000000000E+00 0.  1.
          2    1    1    2  502    0 -0.20006265598E+02  0.21198920293E+01 -0.10330232182E+03  0.10524311996E+03  0.00000000000E+00 0.  1.
</event>
<event>
 4    1  0.6651744E+003  0.2644835E+02  0.7546771E-02  0.1453230E+00
          2   -1    0    0  502    0  0.00000000000E+00  0.00000000000E+00  0.12215458798E+03  0.12215458798E+03  0.00000000000E+00 0. -1.
          2   -1    0    0  501    0 -0.00000000000E+00 -0.00000000000E+00 -0.46635794581E+02  0.46635794581E+02  0.00000000000E+00 0.  1.
          2    1    1    2  501    0  0.12801365466E+02  0.23143901321E+02  0.11680343912E+03  0.11976042133E+03  0.00000000000E+00 0. -1.
          2    1    1    2  502    0 -0.12801365466E+02 -0.23143901321E+02 -0.41284645722E+02  0.49029961234E+02  0.00000000000E+00 0.  1.
</event>
<event>
 4    1  0.6651744E+003  0.2012741E+02  0.7546771E-02  0.1532097E+00
          2   -1    0    0  502    0  0.00000000000E+00  0.00000000000E+00  0.64741743732E+02  0.64741743732E+02  0.00000000000E+00 0.  1.
          2   -1    0    0  501    0 -0.00000000000E+00 -0.00000000000E+00 -0.76010758326E+02  0.76010758326E+02  0.00000000000E+00 0.  1.
          2    1    1    2  501    0 -0.15750798928E+02  0.12530967119E+02  0.61782778094E+02  0.64978646284E+02  0.00000000000E+00 0.  1.
          2    1    1    2  502    0  0.15750798928E+02 -0.12530967119E+02 -0.73051792689E+02  0.75773855774E+02  0.00000000000E+00 0.  1.
</event>
<event>
 4    1  0.6651744E+003  0.2084987E+02  0.7546771E-02  0.1521419E+00
          2   -1    0    0  502    0  0.00000000000E+00  0.00000000000E+00  0.42151285118E+01  0.42151285118E+01  0.00000000000E+00 0. -1.
          2   -1    0    0  501    0 -0.00000000000E+00 -0.00000000000E+00 -0.79740173213E+03  0.79740173213E+03  0.00000000000E+00 0. -1.
          2    1    1    2  501    0  0.15369917571E+02  0.14088382774E+02 -0.22601391388E+02  0.30749630697E+02  0.00000000000E+00 0. -1.
          2    1    1    2  502    0 -0.15369917571E+02 -0.14088382774E+02 -0.77058521223E+03  0.77086722994E+03  0.00000000000E+00 0. -1.
</event>
<event>
 4    1  0.6651744E+003  0.2266135E+02  0.7546771E-02  0.1496795E+00
          2   -1    0    0  502    0  0.00000000000E+00  0.00000000000E+00  0.60928618711E+03  0.60928618711E+03  0.00000000000E+00 0. -1.
          2   -1    0    0  501    0 -0.00000000000E+00 -0.00000000000E+00 -0.98537974047E+00  0.98537974047E+00  0.00000000000E+00 0. -1.
          2    1    1    2  501    0  0.20948360872E+01 -0.22564315025E+02  0.42020025902E+03  0.42081087716E+03  0.00000000000E+00 0. -1.
          2    1    1    2  502    0 -0.20948360872E+01  0.22564315025E+02  0.18810054834E+03  0.18946068969E+03  0.00000000000E+00 0. -1.
</event>
<event>
 4    1  0.6651744E+003  0.3772918E+02  0.7546771E-02  0.1362332E+00
          2   -1    0    0  502    0  0.00000000000E+00  0.00000000000E+00  0.94689254279E+02  0.94689254279E+02  0.00000000000E+00 0.  1.
          2   -1    0    0  501    0 -0.00000000000E+00 -0.00000000000E+00 -0.84059914468E+03  0.84059914468E+03  0.00000000000E+00 0. -1.
          2    1    1    2  501    0 -0.73350567769E+00 -0.37722053736E+02  0.90488709290E+02  0.98039267019E+02  0.00000000000E+00 0.  1.
          2    1    1    2  502    0  0.73350567769E+00  0.37722053736E+02 -0.83639859969E+03  0.83724913194E+03  0.00000000000E+00 0. -1.
</event>
<event>
 4    1  0.6651744E+003  0.3590331E+02  0.7546771E-02  0.1374322E+00
          2   -1    0    0  502    0  0.00000000000E+00  0.00000000000E+00  0.25874329791E+02  0.25874329791E+02  0.00000000000E+00 0.  1.
          2   -1    0    0  501    0 -0.00000000000E+00 -0.00000000000E+00 -0.64220270099E+02  0.64220270099E+02  0.00000000000E+00 0. -1.
          2    1    1    2  501    0 -0.21293767792E+00  0.35902675622E+02  0.21586975771E+01  0.35968144719E+02  0.00000000000E+00 0.  1.
          2    1    1    2  502    0  0.21293767792E+00 -0.35902675622E+02 -0.40504637885E+02  0.54126455172E+02  0.00000000000E+00 0. -1.
</event>
<event>
 4    1  0.6651744E+003  0.2825224E+02  0.7546771E-02  0.1435419E+00
          2   -1    0    0  502    0  0.00000000000E+00  0.00000000000E+00  0.28622032951E+03  0.28622032951E+03  0.00000000000E+00 0. -1.
          2   -1    0    0  501    0 -0.00000000000E+00 -0.00000000000E+00 -0.61042986545E+03  0.61042986545E+03  0.00000000000E+00 0. -1.
          2    1    1    2  501    0  0.71136872358E+01  0.27341990898E+02  0.28519508036E+03  0.28659103768E+03  0.00000000000E+00 0. -1.
          2    1    1    2  502    0 -0.71136872358E+01 -0.27341990898E+02 -0.60940461630E+03  0.61005915728E+03  0.00000000000E+00 0. -1.
</event>
<event>
 4    1  0.6651744E+003  0.2790377E+02  0.7546771E-02  0.1438735E+00
          2   -1    0    0  502    0  0.00000000000E+00  0.00000000000E+00  0.13255296554E+04  0.13255296554E+04  0.00000000000E+00 0.  1.
          2   -1    0    0  501    0 -0.00000000000E+00 -0.00000000000E+00 -0.13974374428E+03  0.13974374428E+03  0.00000000000E+00 0. -1.
          2    1    1    2  501    0 -0.24909532610E+02 -0.12575199847E+02  0.13239882398E+04  0.13242822507E+04  0.00000000000E+00 0.  1.
          2    1    1    2  502    0  0.24909532610E+02  0.12575199847E+02 -0.13820232862E+03  0.14099114902E+03  0.00000000000E+00 0. -1.
</event>
<event>
 4    1  0.6651744E+003  0.4110759E+02  0.7546771E-02  0.1342115E+00
          2   -1    0    0  502    0  0.00000000000E+00  0.00000000000E+00  0.32149297295E+01  0.32149297295E+01  0.00000000000E+00 0. -1.
          2   -1    0    0  501    0 -0.00000000000E+00 -0.00000000000E+00 -0.11683417512E+04  0.11683417512E+04  0.00000000000E+00 0. -1.
          2    1    1    2  501    0 -0.18342891644E+02 -0.36788210384E+02 -0.14809363211E+03  0.15369306416E+03  0.00000000000E+00 0. -1.
          2    1    1    2  502    0  0.18342891644E+02  0.36788210384E+02 -0.10170331893E+04  0.10178636167E+04  0.00000000000E+00 0. -1.
</event>
<event>
 4    1  0.6651744E+003  0.5038894E+02  0.7546771E-02  0.1296495E+00
          2   -1    0    0  501    0  0.00000000000E+00  0.00000000000E+00  0.10219566598E+04  0.10219566598E+04  0.00000000000E+00 0.  1.
          2   -1    0    0  502    0 -0.00000000000E+00 -0.00000000000E+00 -0.32219123142E+03  0.32219123142E+03  0.00000000000E+00 0. -1.
          2    1    1    2  501    0  0.33111297953E+01  0.50280033546E+02 -0.31959495460E+03  0.32354285707E+03  0.00000000000E+00 0. -1.
          2    1    1    2  502    0 -0.33111297953E+01 -0.50280033546E+02  0.10193603830E+04  0.10206050342E+04  0.00000000000E+00 0.  1.
</event>
<event>
 4    1  0.6651744E+003  0.7253978E+02  0.7546771E-02  0.1222313E+00
          2   -1    0    0  501    0  0.00000000000E+00  0.00000000000E+00  0.13461719992E+04  0.13461719992E+04  0.00000000000E+00 0. -1.
          2   -1    0    0  502    0 -0.00000000000E+00 -0.00000000000E+00 -0.65855066043E+01  0.65855066043E+01  0.00000000000E+00 0. -1.
          2    1    1    2  501    0  0.58340232415E+02 -0.43109591305E+02  0.23858250366E+03  0.24936645851E+03  0.00000000000E+00 0. -1.
          2    1    1    2  502    0 -0.58340232415E+02  0.43109591305E+02  0.11010039890E+04  0.11033910473E+04  0.00000000000E+00 0. -1.
</event>
<event>
 4    1  0.6651744E+003  0.4044818E+02  0.7546771E-02  0.1345879E+00
          2   -1    0    0  501    0  0.00000000000E+00  0.00000000000E+00  0.21473525673E+02  0.21473525673E+02  0.00000000000E+00 0. -1.
          2   -1    0    0  502    0 -0.00000000000E+00 -0.00000000000E+00 -0.50123789663E+03  0.50123789663E+03  0.00000000000E+00 0.  1.
          2    1    1    2  501    0 -0.25706806380E+02  0.31228435925E+02 -0.48055624640E+03  0.48225549355E+03  0.00000000000E+00 0.  1.
          2    1    1    2  502    0  0.25706806380E+02 -0.31228435925E+02  0.79187544406E+00  0.40455928753E+02  0.00000000000E+00 0. -1.
</event>
<event>
 4    1  0.6651744E+003  0.3250940E+02  0.7546771E-02  0.1398973E+00
          2   -1    0    0  502    0  0.00000000000E+00  0.00000000000E+00  0.33626348913E+01  0.33626348913E+01  0.00000000000E+00 0.  1.
          2   -1    0    0  501    0 -0.00000000000E+00 -0.00000000000E+00 -0.16525504064E+04  0.16525504064E+04  0.00000000000E+00 0. -1.
          2    1    1    2  501    0 -0.30829274041E+02 -0.10315859120E+02 -0.79519571410E+02  0.85908226174E+02  0.00000000000E+00 0.  1.
          2    1    1    2  502    0  0.30829274041E+02  0.10315859120E+02 -0.15696682001E+04  0.15700048151E+04  0.00000000000E+00 0. -1.
</event>
<event>
 4    1  0.6651744E+003  0.4584494E+02  0.7546771E-02  0.1317268E+00
          2   -1    0    0  501    0  0.00000000000E+00  0.00000000000E+00  0.57368814786E+02  0.57368814786E+02  0.00000000000E+00 0. -1.
          2   -1    0    0  502    0 -0.00000000000E+00 -0.00000000000E+00 -0.17722174556E+03  0.17722174556E+03  0.00000000000E+00 0.  1.
          2    1    1    2  501    0 -0.44130646135E+02 -0.12419539914E+02 -0.16439675792E+03  0.17066942584E+03  0.00000000000E+00 0.  1.
          2    1    1    2  502    0  0.44130646135E+02  0.12419539914E+02  0.44543827148E+02  0.63921134510E+02  0.00000000000E+00 0. -1.
</event>
<event>
 4    1  0.6651744E+003  0.2604823E+02  0.7546771E-02  0.1457410E+00
          2   -1    0    0  501    0  0.00000000000E+00  0.00000000000E+00  0.66468671442E+03  0.66468671442E+03  0.00000000000E+00 0.  1.
          2   -1    0    0  502    0 -0.00000000000E+00 -0.00000000000E+00 -0.32183872190E+03  0.32183872190E+03  0.00000000000E+00 0. -1.
          2    1    1    2  501    0 -0.17343534952E+02 -0.19434812506E+02 -0.32105584383E+03  0.32211079616E+03  0.00000000000E+00 0. -1.
          2    1    1    2  502    0  0.17343534952E+02  0.19434812506E+02  0.66390383635E+03  0.66441464016E+03  0.00000000000E+00 0.  1.
</event>
<event>
 4    1  0.6651744E+003  0.3693959E+02  0.7546771E-02  0.1367417E+00
          2   -1    0    0  501    0  0.00000000000E+00  0.00000000000E+00  0.23244803697E+04  0.23244803697E+04  0.00000000000E+00 0. -1.
          2   -1    0    0  502    0 -0.00000000000E+00 -0.00000000000E+00 -0.14014988196E+02  0.14014988196E+02  0.00000000000E+00 0.  1.
          2    1    1    2  501    0 -0.80667348120E+01  0.36048038952E+02  0.10734308797E+02  0.38467631954E+02  0.00000000000E+00 0.  1.
          2    1    1    2  502    0  0.80667348120E+01 -0.36048038952E+02  0.22997310727E+04  0.23000277259E+04  0.00000000000E+00 0. -1.
</event>
<event>
 4    1  0.6651744E+003  0.4305967E+02  0.7546771E-02  0.1331432E+00
          2   -1    0    0  502    0  0.00000000000E+00  0.00000000000E+00  0.49227657231E+02  0.49227657231E+02  0.00000000000E+00 0.  1.
          2   -1    0    0  501    0 -0.00000000000E+00 -0.00000000000E+00 -0.14939247788E+04  0.14939247788E+04  0.00000000000E+00 0.  1.
          2    1    1    2  501    0  0.40151115482E+02 -0.15557101837E+02  0.39439160747E+02  0.58391633754E+02  0.00000000000E+00 0.  1.
          2    1    1    2  502    0 -0.40151115482E+02  0.15557101837E+02 -0.14841362823E+04  0.14847608023E+04  0.00000000000E+00 0.  1.
</event>
<event>
 4    1  0.6651744E+003  0.2622568E+02  0.7546771E-02  0.1455545E+00
          2   -1    0    0  502    0  0.00000000000E+00  0.00000000000E+00  0.37929745827E+03  0.37929745827E+03  0.00000000000E+00 0. -1.
          2   -1    0    0  501    0 -0.00000000000E+00 -0.00000000000E+00 -0.60874907572E+02  0.60874907572E+02  0.00000000000E+00 0. -1.
          2    1    1    2  501    0  0.24412918393E+02 -0.95810009937E+01  0.37599476035E+03  0.37690827263E+03  0.00000000000E+00 0. -1.
          2    1    1    2  502    0 -0.24412918393E+02  0.95810009937E+01 -0.57572209658E+02  0.63264093208E+02  0.00000000000E+00 0. -1.
</event>
<event>
 4    1  0.6651744E+003  0.2374942E+02  0.7546771E-02  0.1483296E+00
          2   -1    0    0  502    0  0.00000000000E+00  0.00000000000E+00  0.97917330846E+03  0.97917330846E+03  0.00000000000E+00 0. -1.
          2   -1    0    0  501    0 -0.00000000000E+00 -0.00000000000E+00 -0.62321064274E+00  0.62321064274E+00  0.00000000000E+00 0. -1.
          2    1    1    2  501    0  0.22122505332E+02 -0.86388419602E+01  0.62406661607E+03  0.62451835531E+03  0.00000000000E+00 0. -1.
          2    1    1    2  502    0 -0.22122505332E+02  0.86388419602E+01  0.35448348176E+03  0.35527816380E+03  0.00000000000E+00 0. -1.
</event>
<event>
 4    1  0.6651744E+003  0.3033813E+02  0.7546771E-02  0.1416680E+00
          2   -1    0    0  502    0  0.00000000000E+00  0.00000000000E+00  0.64829777889E+01  0.64829777889E+01  0.00000000000E+00 0.  1.
          2   -1    0    0  501    0 -0.00000000000E+00 -0.00000000000E+00 -0.82584460860E+03  0.82584460860E+03  0.00000000000E+00 0.  1.
          2    1    1    2  501    0  0.12447899206E+02  0.27666801431E+02 -0.30974374904E+02  0.43356821802E+02  0.00000000000E+00 0.  1.
          2    1    1    2  502    0 -0.12447899206E+02 -0.27666801431E+02 -0.78838725590E+03  0.78897076458E+03  0.00000000000E+00 0.  1.
</event>
<event>
 4    1  0.6651744E+003  0.3580356E+02  0.7546771E-02  0.1375000E+00
          2   -1    0    0  502    0  0.00000000000E+00  0.00000000000E+00  0.54103708941E+02  0.54103708941E+02  0.00000000000E+00 0. -1.
          2   -1    0    0  501    0 -0.00000000000E+00 -0.00000000000E+00 -0.44782441104E+02  0.44782441104E+02  0.00000000000E+00 0. -1.
          2    1    1    2  501    0 -0.33602347171E+02  0.12360307343E+02  0.38590420497E+02  0.52641385688E+02  0.00000000000E+00 0. -1.
          2    1    1    2  502    0  0.33602347171E+02 -0.12360307343E+02 -0.29269152660E+02  0.46244764357E+02  0.00000000000E+00 0. -1.
</event>
<event>
 4    1  0.6651744E+003  0.2871427E+02  0.7546771E-02  0.1431108E+00
          2   -1    0    0  501    0  0.00000000000E+00  0.00000000000E+00  0.60915582629E+01  0.60915582629E+01  0.00000000000E+00 0.  1.
          2   -1    0    0  502    0 -0.00000000000E+00 -0.00000000000E+00 -0.47914175560E+03  0.47914175560E+03  0.00000000000E+00 0. -1.
          2    1    1    2  501    0  0.19018505708E+02 -0.21512922500E+02 -0.44203586193E+03  0.44296750742E+03  0.00000000000E+00 0. -1.
          2    1    1    2  502    0 -0.19018505708E+02  0.21512922500E+02 -0.31014335405E+02  0.42265806445E+02  0.00000000000E+00 0.  1.
</event>
<event>
 4    1  0.6651744E+003  0.2947513E+02  0.7546771E-02  0.1424213E+00
          2   -1    0    0  502    0  0.00000000000E+00  0.00000000000E+00  0.51173878931E+01  0.51173878931E+01  0.00000000000E+00 0. -1.
          2   -1    0    0  501    0 -0.00000000000E+00 -0.00000000000E+00 -0.27955173203E+03  0.27955173203E+03  0.00000000000E+00 0.  1.
          2    1    1    2  501    0  0.14096501730E+02  0.25885742889E+02 -0.48021717629E+02  0.56345970663E+02  0.00000000000E+00 0. -1.
          2    1    1    2  502    0 -0.14096501730E+02 -0.25885742889E+02 -0.22641262651E+03  0.22832314926E+03  0.00000000000E+00 0.  1.
</event>
<event>
 4    1  0.6651744E+003  0.8214274E+02  0.7546771E-02  0.1198959E+00
          2   -1    0    0  501    0  0.00000000000E+00  0.00000000000E+00  0.93104542898E+02  0.93104542898E+02  0.00000000000E+00 0.  1.
          2   -1    0    0  502    0 -0.00000000000E+00 -0.00000000000E+00 -0.35061719303E+03  0.35061719303E+03  0.00000000000E+00 0.  1.
          2    1    1    2  501    0  0.73809206769E+02  0.36050400523E+02 -0.32636237434E+03  0.33654097784E+03  0.00000000000E+00 0.  1.
          2    1    1    2  502    0 -0.73809206769E+02 -0.36050400523E+02  0.68849724204E+02  0.10718075809E+03  0.00000000000E+00 0.  1.
</event>
<event>
 4    1  0.6651744E+003  0.3963564E+02  0.7546771E-02  0.1350634E+00
          2   -1    0    0  501    0  0.00000000000E+00  0.00000000000E+00  0.11048241170E+04  0.11048241170E+04  0.00000000000E+00 0. -1.
          2   -1    0    0  502    0 -0.00000000000E+00 -0.00000000000E+00 -0.14382084972E+01  0.14382084972E+01  0.00000000000E+00 0.  1.
          2    1    1    2  501    0  0.11509667321E+02 -0.37927717261E+02  0.61053730469E+03  0.61182251070E+03  0.00000000000E+00 0. -1.
          2    1    1    2  502    0 -0.11509667321E+02  0.37927717261E+02  0.49284860377E+03  0.49443981475E+03  0.00000000000E+00 0.  1.
</event>
<event>
 4    1  0.6651744E+003  0.7484068E+02  0.7546771E-02  0.1216360E+00
          2   -1    0    0  501    0  0.00000000000E+00  0.00000000000E+00  0.69449640992E+02  0.69449640992E+02  0.00000000000E+00 0.  1.
          2   -1    0    0  502    0 -0.00000000000E+00 -0.00000000000E+00 -0.16189114508E+04  0.16189114508E+04  0.00000000000E+00 0. -1.
          2    1    1    2  501    0  0.44404645923E+02  0.60244127346E+02 -0.15976153297E+04  0.15993673340E+04  0.00000000000E+00 0. -1.
          2    1    1    2  502    0 -0.44404645923E+02 -0.60244127346E+02  0.48153519834E+02  0.88993757824E+02  0.00000000000E+00 0.  1.
</event>
<event>
 4    1  0.6651744E+003  0.2189648E+02  0.7546771E-02  0.1506840E+00
          2   -1    0    0  501    0  0.00000000000E+00  0.00000000000E+00  0.49714995013E+03  0.49714995013E+03  0.00000000000E+00 0. -1.
          2   -1    0    0  502    0 -0.00000000000E+00 -0.00000000000E+00 -0.17956302815E+02  0.17956302815E+02  0.00000000000E+00 0. -1.
          2    1    1    2  501    0 -0.39196518956E+01 -0.21542802035E+02 -0.10944435576E+02  0.24479310869E+02  0.00000000000E+00 0. -1.
          2    1    1    2  502    0  0.39196518956E+01  0.21542802035E+02  0.49013808289E+03  0.49062694207E+03  0.00000000000E+00 0. -1.
</event>
<event>
 4    1  0.6651744E+003  0.2009118E+02  0.7546771E-02  0.1532646E+00
          2   -1    0    0  502    0  0.00000000000E+00  0.00000000000E+00  0.80127155496E+03  0.80127155496E+03  0.00000000000E+00 0. -1.
          2   -1    0    0  501    0 -0.00000000000E+00 -0.00000000000E+00 -0.14423594854E+02  0.14423594854E+02  0.00000000000E+00 0.  1.
          2    1    1    2  501    0  0.10510883739E+02  0.17122404974E+02  0.79408586925E+03  0.79433999217E+03  0.00000000000E+00 0. -1.
          2    1    1    2  502    0 -0.10510883739E+02 -0.17122404974E+02 -0.72379091416E+01  0.21355157639E+02  0.00000000000E+00 0.  1.
</event>
<event>
 4    1  0.6651744E+003  0.3425961E+02  0.7546771E-02  0.1385844E+00
          2   -1    0    0  502    0  0.00000000000E+00  0.00000000000E+00  0.48119717873E+01  0.48119717873E+01  0.00000000000E+00 0. -1.
          2   -1    0    0  501    0 -0.00000000000E+00 -0.00000000000E+00 -0.41353513575E+03  0.41353513575E+03  0.00000000000E+00 0. -1.
          2    1    1    2  501    0  0.15121704241E+02  0.30741740318E+02 -0.70397915400E+02  0.78291679185E+02  0.00000000000E+00 0. -1.
          2    1    1    2  502    0 -0.15121704241E+02 -0.30741740318E+02 -0.33832524856E+03  0.34005542835E+03  0.00000000000E+00 0. -1.
</event>
<event>
 4    1  0.6651744E+003  0.3809452E+02  0.7546771E-02  0.1360029E+00
          2   -1    0    0  502    0  0.00000000000E+00  0.00000000000E+00  0.10578289216E+03  0.10578289216E+03  0.00000000000E+00 0.  1.
          2   -1    0    0  501    0 -0.00000000000E+00 -0.00000000000E+00 -0.27333981249E+03  0.27333981249E+03  0.00000000000E+00 0. -1.
          2    1    1    2  501    0  0.37822365455E+02 -0.45454350754E+01  0.10096473309E+03  0.10791232384E+03  0.00000000000E+00 0.  1.
          2    1    1    2  502    0 -0.37822365455E+02  0.45454350754E+01 -0.26852165341E+03  0.27121038081E+03  0.00000000000E+00 0. -1.
</event>
<event>
 4    1  0.6651744E+003  0.2420918E+02  0.7546771E-02  0.1477848E+00
          2   -1    0    0  502    0  0.00000000000E+00  0.00000000000E+00  0.29223300603E+02  0.29223300603E+02  0.00000000000E+00 0. -1.
          2   -1    0    0  501    0 -0.00000000000E+00 -0.00000000000E+00 -0.46571527905E+02  0.46571527905E+02  0.00000000000E+00 0. -1.
          2    1    1    2  501    0 -0.17372976726E+02 -0.16860129156E+02  0.19921840145E+02  0.31352256541E+02  0.00000000000E+00 0. -1.
          2    1    1    2  502    0  0.17372976726E+02  0.16860129156E+02 -0.37270067447E+02  0.44442571967E+02  0.00000000000E+00 0. -1.
</event>
<event>
 4    1  0.6651744E+003  0.2670651E+02  0.7546771E-02  0.1450579E+00
          2   -1    0    0  502    0  0.00000000000E+00  0.00000000000E+00  0.10712071210E+04  0.10712071210E+04  0.00000000000E+00 0. -1.
          2   -1    0    0  501    0 -0.00000000000E+00 -0.00000000000E+00 -0.42806865803E+01  0.42806865803E+01  0.00000000000E+00 0. -1.
          2    1    1    2  501    0  0.14435475192E+02  0.22468970891E+02  0.10276197641E+04  0.10279667393E+04  0.00000000000E+00 0. -1.
          2    1    1    2  502    0 -0.14435475192E+02 -0.22468970891E+02  0.39306670365E+02  0.47521068297E+02  0.00000000000E+00 0. -1.
</event>
<event>
 4    1  0.6651744E+003  0.3604597E+02  0.7546771E-02  0.1373355E+00
          2   -1    0    0  502    0  0.00000000000E+00  0.00000000000E+00  0.21452150677E+01  0.21452150677E+01  0.00000000000E+00 0.  1.
          2   -1    0    0  501    0 -0.00000000000E+00 -0.00000000000E+00 -0.80155302035E+03  0.80155302035E+03  0.00000000000E+00 0. -1.
          2    1    1    2  501    0  0.18182091144E+02 -0.31124320768E+02 -0.20105540863E+03  0.20426108077E+03  0.00000000000E+00 0.  1.
          2    1    1    2  502    0 -0.18182091144E+02  0.31124320768E+02 -0.59835239666E+03  0.59943715464E+03  0.00000000000E+00 0. -1.
</event>
<event>
 4    1  0.9356275E+003  0.2779886E+02  0.7546771E-02  0.1439744E+00
          2   -1    0    0  501    0  0.00000000000E+00  0.00000000000E+00  0.39287195071E+03  0.39287195071E+03  0.00000000000E+00 0. -1.
          2   -1    0    0  502    0 -0.00000000000E+00 -0.00000000000E+00 -0.11697627360E+04  0.11697627360E+04  0.00000000000E+00 0.  1.
          2    1    1    2  501    0 -0.27231007016E+02  0.55900545187E+01 -0.11691055547E+04  0.11694360070E+04  0.00000000000E+00 0.  1.
          2    1    1    2  502    0  0.27231007016E+02 -0.55900545187E+01  0.39221476936E+03  0.39319867975E+03  0.00000000000E+00 0. -1.
</event>
<event>
 4    1  0.6651744E+003  0.3285070E+02  0.7546771E-02  0.1396338E+00
          2   -1    0    0  501    0  0.00000000000E+00  0.00000000000E+00  0.13024141606E+03  0.13024141606E+03  0.00000000000E+00 0. -1.
          2   -1    0    0  502    0 -0.00000000000E+00 -0.00000000000E+00 -0.28559435732E+02  0.28559435732E+02  0.00000000000E+00 0. -1.
          2    1    1    2  501    0 -0.23511876194E+02 -0.22942535288E+02 -0.16056942220E+02  0.36564923644E+02  0.00000000000E+00 0. -1.
          2    1    1    2  502    0  0.23511876194E+02  0.22942535288E+02  0.11773892255E+03  0.12223592815E+03  0.00000000000E+00 0. -1.
</event>
<event>
 4    1  0.6651744E+003  0.2534126E+02  0.7546771E-02  0.1465022E+00
          2   -1    0    0  502    0  0.00000000000E+00  0.00000000000E+00  0.10905483641E+04  0.10905483641E+04  0.00000000000E+00 0. -1.
          2   -1    0    0  501    0 -0.00000000000E+00 -0.00000000000E+00 -0.14888912091E+02  0.14888912091E+02  0.00000000000E+00 0.  1.
          2    1    1    2  501    0 -0.15372602714E+02 -0.20146034579E+02  0.10795080362E+04  0.10798054362E+04  0.00000000000E+00 0. -1.
          2    1    1    2  502    0  0.15372602714E+02  0.20146034579E+02 -0.38485842330E+01  0.25631840044E+02  0.00000000000E+00 0.  1.
</event>
<event>
 4    1  0.6651744E+003  0.5831888E+02  0.7546771E-02  0.1265654E+00
          2   -1    0    0  502    0  0.00000000000E+00  0.00000000000E+00  0.27028930444E+02  0.27028930444E+02  0.00000000000E+00 0.  1.
          2   -1    0    0  501    0 -0.00000000000E+00 -0.00000000000E+00 -0.49853844489E+03  0.49853844489E+03  0.00000000000E+00 0.  1.
          2    1    1    2  501    0 -0.50032887272E+02 -0.29963338246E+02 -0.85419510031E+01  0.58941126343E+02  0.00000000000E+00 0.  1.
          2    1    1    2  502    0  0.50032887272E+02  0.29963338246E+02 -0.46296756344E+03  0.46662624899E+03  0.00000000000E+00 0.  1.
</event>
<event>
 4    1  0.6651744E+003  0.2575299E+02  0.7546771E-02  0.1460553E+00
          2   -1    0    0  501    0  0.00000000000E+00  0.00000000000E+00  0.52861470962E+03  0.52861470962E+03  0.00000000000E+00 0. -1.
          2   -1    0    0  502    0 -0.00000000000E+00 -0.00000000000E+00 -0.15935828584E+02  0.15935828584E+02  0.00000000000E+00 0.  1.
          2    1    1    2  501    0  0.13971202503E+01  0.25715062051E+02 -0.49979883794E+01  0.26233494794E+02  0.00000000000E+00 0.  1.
          2    1    1    2  502    0 -0.13971202503E+01 -0.25715062051E+02  0.51767686941E+03  0.51831704341E+03  0.00000000000E+00 0. -1.
</event>
<event>
 4    1  0.6651744E+003  0.2467595E+02  0.7546771E-02  0.1472461E+00
          2   -1    0    0  501    0  0.00000000000E+00  0.00000000000E+00  0.50128521460E+03  0.50128521460E+03  0.00000000000E+00 0. -1.
          2   -1    0    0  502    0 -0.00000000000E+00 -0.00000000000E+00 -0.49974030992E+01  0.49974030992E+01  0.00000000000E+00 0. -1.
          2    1    1    2  501    0 -0.55393567379E+01  0.24046167323E+02  0.27905561689E+02  0.37250812195E+02  0.00000000000E+00 0. -1.
          2    1    1    2  502    0  0.55393567379E+01 -0.24046167323E+02  0.46838224981E+03  0.46903180550E+03  0.00000000000E+00 0. -1.
</event>
<event>
 4    1  0.6651744E+003  0.2362568E+02  0.7546771E-02  0.1484787E+00
          2   -1    0    0  501    0  0.00000000000E+00  0.00000000000E+00  0.11631103625E+02  0.11631103625E+02  0.00000000000E+00 0. -1.
          2   -1    0    0  502    0 -0.00000000000E+00 -0.00000000000E+00 -0.14636596958E+03  0.14636596958E+03  0.00000000000E+00 0.  1.
          2    1    1    2  501    0  0.17012747938E+02 -0.16393264450E+02 -0.13213301192E+03  0.13422855713E+03  0.00000000000E+00 0.  1.
          2    1    1    2  502    0 -0.17012747938E+02  0.16393264450E+02 -0.26018540358E+01  0.23768516070E+02  0.00000000000E+00 0. -1.
</event>
<event>
 4    1  0.6651744E+003  0.2432530E+02  0.7546771E-02  0.1476495E+00
          2   -1    0    0  501    0  0.00000000000E+00  0.00000000000E+00  0.17172666578E+03  0.17172666578E+03  0.00000000000E+00 0.  1.
          2   -1    0    0  502    0 -0.00000000000E+00 -0.00000000000E+00 -0.12405693843E+03  0.12405693843E+03  0.00000000000E+00 0.  1.
          2    1    1    2  501    0  0.26356131517E+01 -0.24182098615E+02 -0.12198861060E+03  0.12439027883E+03  0.00000000000E+00 0.  1.
          2    1    1    2  502    0 -0.26356131517E+01  0.24182098615E+02  0.16965833795E+03  0.17139332538E+03  0.00000000000E+00 0.  1.
</event>
<event>
 4    1  0.6651744E+003  0.3440020E+02  0.7546771E-02  0.1384830E+00
          2   -1    0    0  502    0  0.00000000000E+00  0.00000000000E+00  0.10071735094E+04  0.10071735094E+04  0.00000000000E+00 0. -1.
          2   -1    0    0  501    0 -0.00000000000E+00 -0.00000000000E+00 -0.17271638586E+03  0.17271638586E+03  0.00000000000E+00 0.  1.
          2    1    1    2  501    0 -0.94421866243E+01 -0.33078975614E+02  0.10051634634E+04  0.10057519385E+04  0.00000000000E+00 0. -1.
          2    1    1    2  502    0  0.94421866243E+01  0.33078975614E+02 -0.17070633989E+03  0.17413795679E+03  0.00000000000E+00 0.  1.
</event>
<event>
 4    1  0.6651744E+003  0.7224626E+02  0.7546771E-02  0.1223091E+00
          2   -1    0    0  501    0  0.00000000000E+00  0.00000000000E+00  0.25070819206E+02  0.25070819206E+02  0.00000000000E+00 0. -1.
          2   -1    0    0  502    0 -0.00000000000E+00 -0.00000000000E+00 -0.16456156265E+04  0.16456156265E+04  0.00000000000E+00 0.  1.
          2    1    1    2  501    0  0.14587819350E+02  0.70758165726E+02 -0.15909887476E+04  0.15926282421E+04  0.00000000000E+00 0.  1.
          2    1    1    2  502    0 -0.14587819350E+02 -0.70758165726E+02 -0.29556059715E+02  0.78058203644E+02  0.00000000000E+00 0. -1.
</event>
<event>
 4    1  0.6651744E+003  0.4517064E+02  0.7546771E-02  0.1320588E+00
          2   -1    0    0  502    0  0.00000000000E+00  0.00000000000E+00  0.20889962907E+02  0.20889962907E+02  0.00000000000E+00 0. -1.
          2   -1    0    0  501    0 -0.00000000000E+00 -0.00000000000E+00 -0.10080434628E+04  0.10080434628E+04  0.00000000000E+00 0.  1.
          2    1    1    2  501    0  0.45163502160E+02  0.80315724149E+00 -0.46692360232E+01  0.45411328476E+02  0.00000000000E+00 0. -1.
          2    1    1    2  502    0 -0.45163502160E+02 -0.80315724149E+00 -0.98248426391E+03  0.98352209727E+03  0.00000000000E+00 0.  1.
</event>
<event>
 4    1  0.6651744E+003  0.2282199E+02  0.7546771E-02  0.1494746E+00
          2   -1    0    0  501    0  0.00000000000E+00  0.00000000000E+00  0.30449248289E+03  0.30449248289E+03  0.00000000000E+00 0.  1.
          2   -1    0    0  502    0 -0.00000000000E+00 -0.00000000000E+00 -0.96270140888E+02  0.96270140888E+02  0.00000000000E+00 0. -1.
          2    1    1    2  501    0 -0.13448995853E+02 -0.18438209738E+02 -0.94481974018E+02  0.97199210296E+02  0.00000000000E+00 0. -1.
          2    1    1    2  502    0  0.13448995853E+02  0.18438209738E+02  0.30270431602E+03  0.30356341349E+03  0.00000000000E+00 0.  1.
</event>
<event>
 4    1  0.6651744E+003  0.3076367E+02  0.7546771E-02  0.1413074E+00
          2   -1    0    0  501    0  0.00000000000E+00  0.00000000000E+00  0.10519384041E+01  0.10519384041E+01  0.00000000000E+00 0.  1.
          2   -1    0    0  502    0 -0.00000000000E+00 -0.00000000000E+00 -0.12717727168E+04  0.12717727168E+04  0.00000000000E+00 0.  1.
          2    1    1    2  501    0 -0.12216165267E+02  0.28234178281E+02 -0.97960081634E+03  0.98008375300E+03  0.00000000000E+00 0.  1.
          2    1    1    2  502    0  0.12216165267E+02 -0.28234178281E+02 -0.29111996208E+03  0.29274090223E+03  0.00000000000E+00 0.  1.
</event>
<event>
 4    1  0.6651744E+003  0.6718363E+02  0.7546771E-02  0.1237202E+00
          2   -1    0    0  501    0  0.00000000000E+00  0.00000000000E+00  0.55769359447E+02  0.55769359447E+02  0.00000000000E+00 0.  1.
          2   -1    0    0  502    0 -0.00000000000E+00 -0.00000000000E+00 -0.11852813180E+04  0.11852813180E+04  0.00000000000E+00 0. -1.
          2    1    1    2  501    0  0.66130629610E+02  0.11848200155E+02 -0.11637212359E+04  0.11656589360E+04  0.00000000000E+00 0. -1.
          2    1    1    2  502    0 -0.66130629610E+02 -0.11848200155E+02  0.34209277409E+02  0.75391741460E+02  0.00000000000E+00 0.  1.
</event>
<event>
 4    1  0.6651744E+003  0.2196360E+02  0.7546771E-02  0.1505939E+00
          2   -1    0    0  502    0  0.00000000000E+00  0.00000000000E+00  0.10173388735E+02  0.10173388735E+02  0.00000000000E+00 0. -1.
          2   -1    0    0  501    0 -0.00000000000E+00 -0.00000000000E+00 -0.14925457688E+04  0.14925457688E+04  0.00000000000E+00 0.  1.
          2    1    1    2  501    0 -0.19367623310E+02 -0.10358321059E+02 -0.18581925009E+01  0.22042062680E+02  0.00000000000E+00 0. -1.
          2    1    1    2  502    0  0.19367623310E+02  0.10358321059E+02 -0.14805141876E+04  0.14806770949E+04  0.00000000000E+00 0.  1.
</event>
<event>
 4    1  0.6651744E+003  0.2064819E+02  0.7546771E-02  0.1524348E+00
          2   -1    0    0  501    0  0.00000000000E+00  0.00000000000E+00  0.30042463399E+03  0.30042463399E+03  0.00000000000E+00 0.  1.
          2   -1    0    0  502    0 -0.00000000000E+00 -0.00000000000E+00 -0.73158695335E+01  0.73158695335E+01  0.00000000000E+00 0. -1.
          2    1    1    2  501    0 -0.18060787885E+02 -0.10007780255E+02  0.84120094162E+01  0.22295955397E+02  0.00000000000E+00 0. -1.
          2    1    1    2  502    0  0.18060787885E+02  0.10007780255E+02  0.28469675504E+03  0.28544454812E+03  0.00000000000E+00 0.  1.
</event>
<event>
 4    1  0.6651744E+003  0.4255868E+02  0.7546771E-02  0.1334111E+00
          2   -1    0    0  501    0  0.00000000000E+00  0.00000000000E+00  0.70437447156E+01  0.70437447156E+01  0.00000000000E+00 0.  1.
          2   -1    0    0  502    0 -0.00000000000E+00 -0.00000000000E+00 -0.40979780097E+03  0.40979780097E+03  0.00000000000E+00 0. -1.
          2    1    1    2  501    0  0.21950869108E+02  0.36460942424E+02 -0.32858466206E+03  0.33132932426E+03  0.00000000000E+00 0. -1.
          2    1    1    2  502    0 -0.21950869108E+02 -0.36460942424E+02 -0.74169394194E+02  0.85512221419E+02  0.00000000000E+00 0.  1.
</event>
<event>
 4    1  0.6651744E+003  0.2041073E+02  0.7546771E-02  0.1527847E+00
          2   -1    0    0  502    0  0.00000000000E+00  0.00000000000E+00  0.89968619808E+00  0.89968619808E+00  0.00000000000E+00 0.  1.
          2   -1    0    0  501    0 -0.00000000000E+00 -0.00000000000E+00 -0.63034086471E+03  0.63034086471E+03  0.00000000000E+00 0.  1.
          2    1    1    2  501    0  0.16596495645E+02 -0.11880826777E+02 -0.15212223910E+03  0.15348541736E+03  0.00000000000E+00 0.  1.
          2    1    1    2  502    0 -0.16596495645E+02  0.11880826777E+02 -0.47731893942E+03  0.47775513355E+03  0.00000000000E+00 0.  1.
</event>
<event>
 4    1  0.6651744E+003  0.2952554E+02  0.7546771E-02  0.1423765E+00
          2   -1    0    0  502    0  0.00000000000E+00  0.00000000000E+00  0.10277776503E+02  0.10277776503E+02  0.00000000000E+00 0. -1.
          2   -1    0    0  501    0 -0.00000000000E+00 -0.00000000000E+00 -0.18989178527E+04  0.18989178527E+04  0.00000000000E+00 0.  1.
          2    1    1    2  501    0 -0.28985914955E+02  0.56191083597E+01 -0.11285456051E+02  0.31608846274E+02  0.00000000000E+00 0. -1.
          2    1    1    2  502    0  0.28985914955E+02 -0.56191083597E+01 -0.18773546202E+04  0.18775867830E+04  0.00000000000E+00 0.  1.
</event>
<event>
 4    1  0.6651744E+003  0.2744402E+02  0.7546771E-02  0.1443198E+00
          2   -1    0    0  502    0  0.00000000000E+00  0.00000000000E+00  0.12521349047E+01  0.12521349047E+01  0.00000000000E+00 0. -1.
          2   -1    0    0  501    0 -0.00000000000E+00 -0.00000000000E+00 -0.16540457670E+04  0.16540457670E+04  0.00000000000E+00 0. -1.
          2    1    1    2  501    0 -0.25270724118E+02 -0.10703479968E+02 -0.16617410751E+03  0.16842508123E+03  0.00000000000E+00 0. -1.
          2    1    1    2  502    0  0.25270724118E+02  0.10703479968E+02 -0.14866195246E+04  0.14868728207E+04  0.00000000000E+00 0. -1.
</event>
<event>
 4    1  0.6651744E+003  0.5925161E+02  0.7546771E-02  0.1262397E+00
          2   -1    0    0  502    0  0.00000000000E+00  0.00000000000E+00  0.42541475259E+02  0.42541475259E+02  0.00000000000E+00 0.  1.
          2   -1    0    0  501    0 -0.00000000000E+00 -0.00000000000E+00 -0.11008745572E+04  0.11008745572E+04  0.00000000000E+00 0.  1.
          2    1    1    2  501    0  0.40660064335E+02  0.43098867253E+02  0.20695467279E+02  0.62761895734E+02  0.00000000000E+00 0.  1.
          2    1    1    2  502    0 -0.40660064335E+02 -0.43098867253E+02 -0.10790285492E+04  0.10806541367E+04  0.00000000000E+00 0.  1.
</event>
<event>
 4    1  0.6651744E+003  0.2230047E+02  0.7546771E-02  0.1501474E+00
          2   -1    0    0  502    0  0.00000000000E+00  0.00000000000E+00  0.19819024069E+00  0.19819024069E+00  0.00000000000E+00 0. -1.
          2   -1    0    0  501    0 -0.00000000000E+00 -0.00000000000E+00 -0.25236333710E+04  0.25236333710E+04  0.00000000000E+00 0. -1.
          2    1    1    2  501    0 -0.21177606934E+02  0.69871287408E+01 -0.11664852736E+04  0.11666984206E+04  0.00000000000E+00 0. -1.
          2    1    1    2  502    0  0.21177606934E+02 -0.69871287408E+01 -0.13569499071E+04  0.13571331406E+04  0.00000000000E+00 0. -1.
</event>
<event>
 4    1  0.6651744E+003  0.3597506E+02  0.7546771E-02  0.1373835E+00
          2   -1    0    0  501    0  0.00000000000E+00  0.00000000000E+00  0.18571656904E+03  0.18571656904E+03  0.00000000000E+00 0.  1.
          2   -1    0    0  502    0 -0.00000000000E+00 -0.00000000000E+00 -0.81251790500E+02  0.81251790500E+02  0.00000000000E+00 0.  1.
          2    1    1    2  501    0  0.34584355366E+02 -0.99059210618E+01 -0.75399230232E+02  0.83541898636E+02  0.00000000000E+00 0.  1.
          2    1    1    2  502    0 -0.34584355366E+02  0.99059210618E+01  0.17986400877E+03  0.18342646091E+03  0.00000000000E+00 0.  1.
</event>
<event>
 4    1  0.6651744E+003  0.3919578E+02  0.7546771E-02  0.1353264E+00
          2   -1    0    0  502    0  0.00000000000E+00  0.00000000000E+00  0.54060643584E+03  0.54060643584E+03  0.00000000000E+00 0. -1.
          2   -1    0    0  501    0 -0.00000000000E+00 -0.00000000000E+00 -0.83178557623E+01  0.83178557623E+01  0.00000000000E+00 0. -1.
          2    1    1    2  501    0  0.11154330567E+02  0.37575126725E+02  0.48883888453E+03  0.49040775307E+03  0.00000000000E+00 0. -1.
          2    1    1    2  502    0 -0.11154330567E+02 -0.37575126725E+02  0.43449695540E+02  0.58516538528E+02  0.00000000000E+00 0. -1.
</event>
<event>
 4    1  0.6651744E+003  0.2040751E+02  0.7546771E-02  0.1527895E+00
          2   -1    0    0  502    0  0.00000000000E+00  0.00000000000E+00  0.19422470895E+02  0.19422470895E+02  0.00000000000E+00 0. -1.
          2   -1    0    0  501    0 -0.00000000000E+00 -0.00000000000E+00 -0.29359493802E+03  0.29359493802E+03  0.00000000000E+00 0. -1.
          2    1    1    2  501    0  0.12987654861E+02  0.15741262941E+02  0.13598869987E+02  0.24523372579E+02  0.00000000000E+00 0. -1.
          2    1    1    2  502    0 -0.12987654861E+02 -0.15741262941E+02 -0.28777133711E+03  0.28849403633E+03  0.00000000000E+00 0. -1.
</event>
<event>
 4    1  0.6651744E+003  0.2159995E+02  0.7546771E-02  0.1510869E+00
          2   -1    0    0  501    0  0.00000000000E+00  0.00000000000E+00  0.14800540806E+02  0.14800540806E+02  0.00000000000E+00 0. -1.
          2   -1    0    0  502    0 -0.00000000000E+00 -0.00000000000E+00 -0.20562862519E+03  0.20562862519E+03  0.00000000000E+00 0.  1.
          2    1    1    2  501    0  0.49228522058E+01 -0.21031484730E+02 -0.19682938095E+03  0.19801101744E+03  0.00000000000E+00 0.  1.
          2    1    1    2  502    0 -0.49228522058E+01  0.21031484730E+02  0.60012965710E+01  0.22418148548E+02  0.00000000000E+00 0. -1.
</event>
<event>
 4    1  0.6651744E+003  0.5571127E+02  0.7546771E-02  0.1275144E+00
          2   -1    0    0  501    0  0.00000000000E+00  0.00000000000E+00  0.62756854414E+01  0.62756854414E+01  0.00000000000E+00 0.  1.
          2   -1    0    0  502    0 -0.00000000000E+00 -0.00000000000E+00 -0.57604517217E+03  0.57604517217E+03  0.00000000000E+00 0.  1.
          2    1    1    2  501    0 -0.70060796394E+01  0.55268984131E+02 -0.39438754038E+03  0.39830299743E+03  0.00000000000E+00 0.  1.
          2    1    1    2  502    0  0.70060796394E+01 -0.55268984131E+02 -0.17538194634E+03  0.18401786017E+03  0.00000000000E+00 0.  1.
</event>
<event>
 4    1  0.6651744E+003  0.2989705E+02  0.7546771E-02  0.1420493E+00
          2   -1    0    0  502    0  0.00000000000E+00  0.00000000000E+00  0.37974393820E+01  0.37974393820E+01  0.00000000000E+00 0.  1.
          2   -1    0    0  501    0 -0.00000000000E+00 -0.00000000000E+00 -0.52889151523E+03  0.52889151523E+03  0.00000000000E+00 0. -1.
          2    1    1    2  501    0  0.57402929471E+01  0.29340803373E+02 -0.64132063986E+02  0.70758429440E+02  0.00000000000E+00 0.  1.
          2    1    1    2  502    0 -0.57402929471E+01 -0.29340803373E+02 -0.46096201186E+03  0.46193052517E+03  0.00000000000E+00 0. -1.
</event>
<event>
 4    1  0.6651744E+003  0.2273041E+02  0.7546771E-02  0.1495911E+00
          2   -1    0    0  502    0  0.00000000000E+00  0.00000000000E+00  0.19002872104E+03  0.19002872104E+03  0.00000000000E+00 0. -1.
          2   -1    0    0  501    0 -0.00000000000E+00 -0.00000000000E+00 -0.78091296176E+01  0.78091296176E+01  0.00000000000E+00 0.  1.
          2    1    1    2  501    0  0.21421229763E+02  0.76027965179E+01  0.17097290182E+03  0.17247725866E+03  0.00000000000E+00 0. -1.
          2    1    1    2  502    0 -0.21421229763E+02 -0.76027965179E+01  0.11246689609E+02  0.25360592000E+02  0.00000000000E+00 0.  1.
</event>
<event>
 4    1  0.6651744E+003  0.2074060E+02  0.7546771E-02  0.1523001E+00
          2   -1    0    0  501    0  0.00000000000E+00  0.00000000000E+00  0.40147845838E+03  0.40147845838E+03  0.00000000000E+00 0. -1.
          2   -1    0    0  502    0 -0.00000000000E+00 -0.00000000000E+00 -0.22072042390E+01  0.22072042390E+01  0.00000000000E+00 0. -1.
          2    1    1    2  501    0  0.20018191780E+02  0.54262844633E+01  0.54848410940E+02  0.58638901319E+02  0.00000000000E+00 0. -1.
          2    1    1    2  502    0 -0.20018191780E+02 -0.54262844633E+01  0.34442284320E+03  0.34504676130E+03  0.00000000000E+00 0. -1.
</event>
<event>
 4    1  0.6651744E+003  0.3034103E+02  0.7546771E-02  0.1416656E+00
          2   -1    0    0  501    0  0.00000000000E+00  0.00000000000E+00  0.89741797222E+02  0.89741797222E+02  0.00000000000E+00 0.  1.
          2   -1    0    0  502    0 -0.00000000000E+00 -0.00000000000E+00 -0.40919005636E+03  0.40919005636E+03  0.00000000000E+00 0. -1.
          2    1    1    2  501    0 -0.29682522712E+02 -0.62869493768E+01 -0.40604325195E+03  0.40717526981E+03  0.00000000000E+00 0. -1.
          2    1    1    2  502    0  0.29682522712E+02  0.62869493768E+01  0.86594992810E+02  0.91756583779E+02  0.00000000000E+00 0.  1.
</event>
<event>
 4    1  0.6651744E+003  0.2155943E+02  0.7546771E-02  0.1511426E+00
          2   -1    0    0  501    0  0.00000000000E+00  0.00000000000E+00  0.61210219129E+01  0.61210219129E+01  0.00000000000E+00 0. -1.
          2   -1    0    0  502    0 -0.00000000000E+00 -0.00000000000E+00 -0.39992189597E+03  0.39992189597E+03  0.00000000000E+00 0.  1.
          2    1    1    2  501    0  0.16701966174E+02 -0.13632796567E+02 -0.37963348074E+03  0.38024516896E+03  0.00000000000E+00 0.  1.
          2    1    1    2  502    0 -0.16701966174E+02  0.13632796567E+02 -0.14167393320E+02  0.25797748929E+02  0.00000000000E+00 0. -1.
</event>
<event>
 4    1  0.6651744E+003  0.2318307E+02  0.7546771E-02  0.1490212E+00
          2   -1    0    0  501    0  0.00000000000E+00  0.00000000000E+00  0.17113533235E+02  0.17113533235E+02  0.00000000000E+00 0. -1.
          2   -1    0    0  502    0 -0.00000000000E+00 -0.00000000000E+00 -0.40138411477E+03  0.40138411477E+03  0.00000000000E+00 0.  1.
          2    1    1    2  501    0 -0.12714992391E+02 -0.19385143335E+02 -0.39303133829E+03  0.39371447483E+03  0.00000000000E+00 0.  1.
          2    1    1    2  502    0  0.12714992391E+02  0.19385143335E+02  0.87607567549E+01  0.24783173173E+02  0.00000000000E+00 0. -1.
</event>
<event>
 4    1  0.6651744E+003  0.2166788E+02  0.7546771E-02  0.1509939E+00
          2   -1    0    0  502    0  0.00000000000E+00  0.00000000000E+00  0.86958542650E+03  0.86958542650E+03  0.00000000000E+00 0.  1.
          2   -1    0    0  501    0 -0.00000000000E+00 -0.00000000000E+00 -0.18739285355E+02  0.18739285355E+02  0.00000000000E+00 0.  1.
          2    1    1    2  501    0 -0.10892315033E+02  0.18731109209E+02  0.86314014622E+03  0.86341207370E+03  0.00000000000E+00 0.  1.
          2    1    1    2  502    0  0.10892315033E+02 -0.18731109209E+02 -0.12294005082E+02  0.24912638157E+02  0.00000000000E+00 0.  1.
</event>
<event>
 4    1  0.6651744E+003  0.3182526E+02  0.7546771E-02  0.1404371E+00
          2   -1    0    0  501    0  0.00000000000E+00  0.00000000000E+00  0.34111559281E+02  0.34111559281E+02  0.00000000000E+00 0. -1.
          2   -1    0    0  502    0 -0.00000000000E+00 -0.00000000000E+00 -0.94374707984E+02  0.94374707984E+02  0.00000000000E+00 0.  1.
          2    1    1    2  501    0  0.17370385994E+01  0.31777816134E+02 -0.83316966412E+02  0.89188361312E+02  0.00000000000E+00 0.  1.
          2    1    1    2  502    0 -0.17370385994E+01 -0.31777816134E+02  0.23053817710E+02  0.39297905953E+02  0.00000000000E+00 0. -1.
</event>
<event>
 4    1  0.6651744E+003  0.2395969E+02  0.7546771E-02  0.1480787E+00
          2   -1    0    0  502    0  0.00000000000E+00  0.00000000000E+00  0.59788990149E+03  0.59788990149E+03  0.00000000000E+00 0. -1.
          2   -1    0    0  501    0 -0.00000000000E+00 -0.00000000000E+00 -0.96085928972E+00  0.96085928972E+00  0.00000000000E+00 0. -1.
          2    1    1    2  501    0  0.21161660853E+02  0.11236135793E+02  0.29035472314E+03  0.29134160686E+03  0.00000000000E+00 0. -1.
          2    1    1    2  502    0 -0.21161660853E+02 -0.11236135793E+02  0.30657431907E+03  0.30750915393E+03  0.00000000000E+00 0. -1.
</event>
<event>
 4    1  0.6651744E+003  0.5259818E+02  0.7546771E-02  0.1287284E+00
          2   -1    0    0  502    0  0.00000000000E+00  0.00000000000E+00  0.14445888570E+01  0.14445888570E+01  0.00000000000E+00 0. -1.
          2   -1    0    0  501    0 -0.00000000000E+00 -0.00000000000E+00 -0.19313751386E+04  0.19313751386E+04  0.00000000000E+00 0. -1.
          2    1    1    2  501    0 -0.26524526750E+02  0.45420453524E+02 -0.10536109711E+04  0.10549230524E+04  0.00000000000E+00 0. -1.
          2    1    1    2  502    0  0.26524526750E+02 -0.45420453524E+02 -0.87631957869E+03  0.87789667508E+03  0.00000000000E+00 0. -1.
</event>
<event>
 4    1  0.6651744E+003  0.2289228E+02  0.7546771E-02  0.1493855E+00
          2   -1    0    0  502    0  0.00000000000E+00  0.00000000000E+00  0.11540801360E+03  0.11540801360E+03  0.00000000000E+00 0. -1.
          2   -1    0    0  501    0 -0.00000000000E+00 -0.00000000000E+00 -0.14587727860E+02  0.14587727860E+02  0.00000000000E+00 0. -1.
          2    1    1    2  501    0 -0.47102892904E+01 -0.22402452686E+02  0.10435123029E+03  0.10683274767E+03  0.00000000000E+00 0. -1.
          2    1    1    2  502    0  0.47102892904E+01  0.22402452686E+02 -0.35309445571E+01  0.23162993784E+02  0.00000000000E+00 0. -1.
</event>
<event>
 4    1  0.6651744E+003  0.4646260E+02  0.7546771E-02  0.1314284E+00
          2   -1    0    0  501    0  0.00000000000E+00  0.00000000000E+00  0.19756695864E+01  0.19756695864E+01  0.00000000000E+00 0.  1.
          2   -1    0    0  502    0 -0.00000000000E+00 -0.00000000000E+00 -0.23343943780E+04  0.23343943780E+04  0.00000000000E+00 0.  1.
          2    1    1    2  501    0 -0.36925517115E+02  0.28200696131E+02 -0.20182013478E+04  0.20187361030E+04  0.00000000000E+00 0.  1.
          2    1    1    2  502    0  0.36925517115E+02 -0.28200696131E+02 -0.31421736058E+03  0.31763394461E+03  0.00000000000E+00 0.  1.
</event>
<event>
 4    1  0.6651744E+003  0.3419979E+02  0.7546771E-02  0.1386278E+00
          2   -1    0    0  502    0  0.00000000000E+00  0.00000000000E+00  0.39691823425E+01  0.39691823425E+01  0.00000000000E+00 0.  1.
          2   -1    0    0  501    0 -0.00000000000E+00 -0.00000000000E+00 -0.63797161603E+03  0.63797161603E+03  0.00000000000E+00 0.  1.
          2    1    1    2  501    0  0.44938901317E+01  0.33903252957E+02 -0.81551603810E+02  0.88432401831E+02  0.00000000000E+00 0.  1.
          2    1    1    2  502    0 -0.44938901317E+01 -0.33903252957E+02 -0.55245082988E+03  0.55350839654E+03  0.00000000000E+00 0.  1.
</event>
<event>
 4    1  0.6651744E+003  0.4018873E+02  0.7546771E-02  0.1347383E+00
          2   -1    0    0  502    0  0.00000000000E+00  0.00000000000E+00  0.78893893083E+02  0.78893893083E+02  0.00000000000E+00 0. -1.
          2   -1    0    0  501    0 -0.00000000000E+00 -0.00000000000E+00 -0.17469667505E+04  0.17469667505E+04  0.00000000000E+00 0.  1.
          2    1    1    2  501    0  0.25847528420E+02 -0.30774006989E+02  0.73528936588E+02  0.83795219120E+02  0.00000000000E+00 0. -1.
          2    1    1    2  502    0 -0.25847528420E+02  0.30774006989E+02 -0.17416017940E+04  0.17420654245E+04  0.00000000000E+00 0.  1.
</event>
<event>
 4    1  0.6651744E+003  0.2440528E+02  0.7546771E-02  0.1475568E+00
          2   -1    0    0  502    0  0.00000000000E+00  0.00000000000E+00  0.23288880970E+01  0.23288880970E+01  0.00000000000E+00 0.  1.
          2   -1    0    0  501    0 -0.00000000000E+00 -0.00000000000E+00 -0.54035209204E+03  0.54035209204E+03  0.00000000000E+00 0. -1.
          2    1    1    2  501    0 -0.35857702732E+01  0.24140419312E+02 -0.72089814788E+02  0.76108862750E+02  0.00000000000E+00 0.  1.
          2    1    1    2  502    0  0.35857702732E+01 -0.24140419312E+02 -0.46593338915E+03  0.46657211738E+03  0.00000000000E+00 0. -1.
</event>
<event>
 4    1  0.6651744E+003  0.2004670E+02  0.7546771E-02  0.1533323E+00
          2   -1    0    0  501    0  0.00000000000E+00  0.00000000000E+00  0.13187213270E+01  0.13187213270E+01  0.00000000000E+00 0. -1.
          2   -1    0    0  502    0 -0.00000000000E+00 -0.00000000000E+00 -0.10812913007E+04  0.10812913007E+04  0.00000000000E+00 0.  1.
          2    1    1    2  501    0 -0.12118731758E+02  0.15968919469E+02 -0.99871418605E+03  0.99891535951E+03  0.00000000000E+00 0.  1.
          2    1    1    2  502    0  0.12118731758E+02 -0.15968919469E+02 -0.81258393338E+02  0.83694662532E+02  0.00000000000E+00 0. -1.
</event>
<event>
 4    1  0.6651744E+003  0.3946254E+02  0.7546771E-02  0.1351664E+00
          2   -1    0    0  501    0  0.00000000000E+00  0.00000000000E+00  0.54570089186E+03  0.54570089186E+03  0.00000000000E+00 0. -1.
          2   -1    0    0  502    0 -0.00000000000E+00 -0.00000000000E+00 -0.11943284964E+02  0.11943284964E+02  0.00000000000E+00 0.  1.
          2    1    1    2  501    0  0.14929451101E+02 -0.36529491005E+02  0.23638136773E+02  0.46000584054E+02  0.00000000000E+00 0.  1.
          2    1    1    2  502    0 -0.14929451101E+02  0.36529491005E+02  0.51011947013E+03  0.51164359277E+03  0.00000000000E+00 0. -1.
</event>
<event>
 4    1  0.6651744E+003  0.2535590E+02  0.7546771E-02  0.1464861E+00
          2   -1    0    0  501    0  0.00000000000E+00  0.00000000000E+00  0.28606791868E+01  0.28606791868E+01  0.00000000000E+00 0. -1.
          2   -1    0    0  502    0 -0.00000000000E+00 -0.00000000000E+00 -0.98936449189E+03  0.98936449189E+03  0.00000000000E+00 0.  1.
          2    1    1    2  501    0 -0.16224187304E+01 -0.25303938893E+02 -0.92939092666E+03  0.92973674560E+03  0.00000000000E+00 0.  1.
          2    1    1    2  502    0  0.16224187304E+01  0.25303938893E+02 -0.57112886046E+02  0.62488425477E+02  0.00000000000E+00 0. -1.
</event>
<event>
 4    1  0.6651744E+003  0.2288547E+02  0.7546771E-02  0.1493941E+00
          2   -1    0    0  501    0  0.00000000000E+00  0.00000000000E+00  0.28829415307E+03  0.28829415307E+03  0.00000000000E+00 0. -1.
          2   -1    0    0  502    0 -0.00000000000E+00 -0.00000000000E+00 -0.33843397974E+03  0.33843397974E+03  0.00000000000E+00 0.  1.
          2    1    1    2  501    0  0.19848949814E+02 -0.11391388326E+02 -0.33759178427E+03  0.33836660199E+03  0.00000000000E+00 0.  1.
          2    1    1    2  502    0 -0.19848949814E+02  0.11391388326E+02  0.28745195760E+03  0.28836153083E+03  0.00000000000E+00 0. -1.
</event>
<event>
 4    1  0.6651744E+003  0.2056125E+02  0.7546771E-02  0.1525622E+00
          2   -1    0    0  501    0  0.00000000000E+00  0.00000000000E+00  0.94650452185E+01  0.94650452185E+01  0.00000000000E+00 0. -1.
          2   -1    0    0  502    0 -0.00000000000E+00 -0.00000000000E+00 -0.94087259795E+03  0.94087259795E+03  0.00000000000E+00 0.  1.
          2    1    1    2  501    0  0.15443181834E+02  0.13574723962E+02 -0.92945664929E+03  0.92968404736E+03  0.00000000000E+00 0.  1.
          2    1    1    2  502    0 -0.15443181834E+02 -0.13574723962E+02 -0.19509034409E+01  0.20653595814E+02  0.00000000000E+00 0. -1.
</event>
<event>
 4    1  0.6651744E+003  0.2395233E+02  0.7546771E-02  0.1480874E+00
          2   -1    0    0  502    0  0.00000000000E+00  0.00000000000E+00  0.44220616041E+03  0.44220616041E+03  0.00000000000E+00 0.  1.
          2   -1    0    0  501    0 -0.00000000000E+00 -0.00000000000E+00 -0.38779891375E+01  0.38779891375E+01  0.00000000000E+00 0.  1.
          2    1    1    2  501    0 -0.92488470711E+01  0.22094639828E+02  0.40111058076E+03  0.40182510161E+03  0.00000000000E+00 0.  1.
          2    1    1    2  502    0  0.92488470711E+01 -0.22094639828E+02  0.37217590510E+02  0.44259047941E+02  0.00000000000E+00 0.  1.
</event>
<event>
 4    1  0.6651744E+003  0.2068378E+02  0.7546771E-02  0.1523828E+00
          2   -1    0    0  502    0  0.00000000000E+00  0.00000000000E+00  0.20035265671E+01  0.20035265671E+01  0.00000000000E+00 0.  1.
          2   -1    0    0  501    0 -0.00000000000E+00 -0.00000000000E+00 -0.11786629590E+04  0.11786629590E+04  0.00000000000E+00 0. -1.
          2    1    1    2  501    0 -0.76359226029E+01  0.19222684371E+02 -0.54140231114E+02  0.57956738465E+02  0.00000000000E+00 0.  1.
          2    1    1    2  502    0  0.76359226029E+01 -0.19222684371E+02 -0.11225192013E+04  0.11227097471E+04  0.00000000000E+00 0. -1.
</event>
<event>
 4    1  0.8679874E+003  0.2545205E+02  0.7546771E-02  0.1463809E+00
          2   -1    0    0  501    0  0.00000000000E+00  0.00000000000E+00  0.36262758414E+03  0.36262758414E+03  0.00000000000E+00 0.  1.
          2   -1    0    0  502    0 -0.00000000000E+00 -0.00000000000E+00 -0.99635730478E+03  0.99635730478E+03  0.00000000000E+00 0.  1.
          2    1    1    2  501    0 -0.21587533852E+02 -0.13482769856E+02 -0.99574788167E+03  0.99607311506E+03  0.00000000000E+00 0.  1.
          2    1    1    2  502    0  0.21587533852E+02  0.13482769856E+02  0.36201816102E+03  0.36291177387E+03  0.00000000000E+00 0.  1.
</event>
<event>
 4    1  0.6651744E+003  0.2516918E+02  0.7546771E-02  0.1466920E+00
          2   -1    0    0  501    0  0.00000000000E+00  0.00000000000E+00  0.20008826878E+03  0.20008826878E+03  0.00000000000E+00 0.  1.
          2   -1    0    0  502    0 -0.00000000000E+00 -0.00000000000E+00 -0.51605333344E+01  0.51605333344E+01  0.00000000000E+00 0.  1.
          2    1    1    2  501    0 -0.20873691288E+02 -0.14063316518E+02  0.33664052600E+02  0.42032800250E+02  0.00000000000E+00 0.  1.
          2    1    1    2  502    0  0.20873691288E+02  0.14063316518E+02  0.16126368284E+03  0.16321600186E+03  0.00000000000E+00 0.  1.
</event>
<event>
 4    1  0.6651744E+003  0.2218290E+02  0.7546771E-02  0.1503022E+00
          2   -1    0    0  502    0  0.00000000000E+00  0.00000000000E+00  0.41394497768E+03  0.41394497768E+03  0.00000000000E+00 0.  1.
          2   -1    0    0  501    0 -0.00000000000E+00 -0.00000000000E+00 -0.14480096850E+01  0.14480096850E+01  0.00000000000E+00 0.  1.
          2    1    1    2  501    0  0.67184973040E+01 -0.21141023194E+02  0.29413108097E+03  0.29496639446E+03  0.00000000000E+00 0.  1.
          2    1    1    2  502    0 -0.67184973040E+01  0.21141023194E+02  0.11836588703E+03  0.12042659291E+03  0.00000000000E+00 0.  1.
</event>
<event>
 4    1  0.6651744E+003  0.2405562E+02  0.7546771E-02  0.1479652E+00
          2   -1    0    0  502    0  0.00000000000E+00  0.00000000000E+00  0.18037681028E+04  0.18037681028E+04  0.00000000000E+00 0. -1.
          2   -1    0    0  501    0 -0.00000000000E+00 -0.00000000000E+00 -0.56417444886E+00  0.56417444886E+00  0.00000000000E+00 0.  1.
          2    1    1    2  501    0 -0.13326254520E+02 -0.20027082471E+02  0.14941250742E+04  0.14943187111E+04  0.00000000000E+00 0. -1.
          2    1    1    2  502    0  0.13326254520E+02  0.20027082471E+02  0.30907885412E+03  0.31001356609E+03  0.00000000000E+00 0.  1.
</event>
<event>
 4    1  0.6651744E+003  0.2149971E+02  0.7546771E-02  0.1512249E+00
          2   -1    0    0  502    0  0.00000000000E+00  0.00000000000E+00  0.40815000637E+02  0.40815000637E+02  0.00000000000E+00 0. -1.
          2   -1    0    0  501    0 -0.00000000000E+00 -0.00000000000E+00 -0.69399323121E+03  0.69399323121E+03  0.00000000000E+00 0. -1.
          2    1    1    2  501    0 -0.27481825896E+01 -0.21323342547E+02  0.37804859602E+02  0.43490744469E+02  0.00000000000E+00 0. -1.
          2    1    1    2  502    0  0.27481825896E+01  0.21323342547E+02 -0.69098309018E+03  0.69131748738E+03  0.00000000000E+00 0. -1.
</event>
<event>
 4    1  0.6651744E+003  0.4138706E+02  0.7546771E-02  0.1340544E+00
          2   -1    0    0  502    0  0.00000000000E+00  0.00000000000E+00  0.45703660259E+03  0.45703660259E+03  0.00000000000E+00 0. -1.
          2   -1    0    0  501    0 -0.00000000000E+00 -0.00000000000E+00 -0.25915947507E+03  0.25915947507E+03  0.00000000000E+00 0. -1.
          2    1    1    2  501    0  0.36914895184E+01  0.41222102320E+02  0.45443786901E+03  0.45631860098E+03  0.00000000000E+00 0. -1.
          2    1    1    2  502    0 -0.36914895184E+01 -0.41222102320E+02 -0.25656074149E+03  0.25987747668E+03  0.00000000000E+00 0. -1.
</event>
<event>
 4    1  0.6651744E+003  0.3083446E+02  0.7546771E-02  0.1412481E+00
          2   -1    0    0  501    0  0.00000000000E+00  0.00000000000E+00  0.14041285604E+04  0.14041285604E+04  0.00000000000E+00 0.  1.
          2   -1    0    0  502    0 -0.00000000000E+00 -0.00000000000E+00 -0.10464282096E+01  0.10464282096E+01  0.00000000000E+00 0.  1.
          2    1    1    2  501    0 -0.26440958674E+01 -0.30720884100E+02  0.28415303039E+03  0.28582111301E+03  0.00000000000E+00 0.  1.
          2    1    1    2  502    0  0.26440958674E+01  0.30720884100E+02  0.11189291018E+04  0.11193538756E+04  0.00000000000E+00 0.  1.
</event>
<event>
 4    1  0.6651744E+003  0.2131087E+02  0.7546771E-02  0.1514872E+00
          2   -1    0    0  501    0  0.00000000000E+00  0.00000000000E+00  0.20957844906E+01  0.20957844906E+01  0.00000000000E+00 0. -1.
          2   -1    0    0  502    0 -0.00000000000E+00 -0.00000000000E+00 -0.22200054003E+03  0.22200054003E+03  0.00000000000E+00 0. -1.
          2    1    1    2  501    0 -0.21309026744E+02 -0.28028647771E+00 -0.12726857912E+03  0.12904047587E+03  0.00000000000E+00 0. -1.
          2    1    1    2  502    0  0.21309026744E+02  0.28028647771E+00 -0.92636176421E+02  0.95055848654E+02  0.00000000000E+00 0. -1.
</event>
<event>
 4    1  0.6651744E+003  0.2361933E+02  0.7546771E-02  0.1484864E+00
          2   -1    0    0  502    0  0.00000000000E+00  0.00000000000E+00  0.33827240895E+02  0.33827240895E+02  0.00000000000E+00 0.  1.
          2   -1    0    0  501    0 -0.00000000000E+00 -0.00000000000E+00 -0.27558674388E+03  0.27558674388E+03  0.00000000000E+00 0.  1.
          2    1    1    2  501    0  0.19897275085E+02 -0.12726784739E+02  0.29126803646E+02  0.37499910616E+02  0.00000000000E+00 0.  1.
          2    1    1    2  502    0 -0.19897275085E+02  0.12726784739E+02 -0.27088630663E+03  0.27191407416E+03  0.00000000000E+00 0.  1.
</event>
<event>
 4    1  0.6651744E+003  0.2056732E+02  0.7546771E-02  0.1525533E+00
          2   -1    0    0  502    0  0.00000000000E+00  0.00000000000E+00  0.90456945802E+01  0.90456945802E+01  0.00000000000E+00 0.  1.
          2   -1    0    0  501    0 -0.00000000000E+00 -0.00000000000E+00 -0.46472853318E+03  0.46472853318E+03  0.00000000000E+00 0.  1.
          2    1    1    2  501    0  0.92570820194E+01 -0.18366305948E+02 -0.31888581905E+01  0.20813062683E+02  0.00000000000E+00 0.  1.
          2    1    1    2  502    0 -0.92570820194E+01  0.18366305948E+02 -0.45249398041E+03  0.45296116508E+03  0.00000000000E+00 0.  1.
</event>
<event>
 4    1  0.6651744E+003  0.2809160E+02  0.7546771E-02  0.1436941E+00
          2   -1    0    0  501    0  0.00000000000E+00  0.00000000000E+00  0.88853106083E+01  0.88853106083E+01  0.00000000000E+00 0.  1.
          2   -1    0    0  502    0 -0.00000000000E+00 -0.00000000000E+00 -0.32657913846E+03  0.32657913846E+03  0.00000000000E+00 0. -1.
          2    1    1    2  501    0  0.15667885291E+01 -0.28047868500E+02 -0.30196568709E+03  0.30326954007E+03  0.00000000000E+00 0. -1.
          2    1    1    2  502    0 -0.15667885291E+01  0.28047868500E+02 -0.15728140763E+02  0.32194909001E+02  0.00000000000E+00 0.  1.
</event>
<event>
 4    1  0.6651744E+003  0.8079777E+02  0.7546771E-02  0.1202008E+00
          2   -1    0    0  502    0  0.00000000000E+00  0.00000000000E+00  0.12606492462E+03  0.12606492462E+03  0.00000000000E+00 0. -1.
          2   -1    0    0  501    0 -0.00000000000E+00 -0.00000000000E+00 -0.35843410220E+03  0.35843410220E+03  0.00000000000E+00 0. -1.
          2    1    1    2  501    0 -0.15356518798E+02 -0.79325008409E+02  0.10788300925E+03  0.13478510049E+03  0.00000000000E+00 0. -1.
          2    1    1    2  502    0  0.15356518798E+02  0.79325008409E+02 -0.34025218683E+03  0.34971392633E+03  0.00000000000E+00 0. -1.
</event>
<event>
 4    1  0.6651744E+003  0.2545704E+02  0.7546771E-02  0.1463755E+00
          2   -1    0    0  501    0  0.00000000000E+00  0.00000000000E+00  0.52155077992E+03  0.52155077992E+03  0.00000000000E+00 0.  1.
          2   -1    0    0  502    0 -0.00000000000E+00 -0.00000000000E+00 -0.17614517777E+02  0.17614517777E+02  0.00000000000E+00 0.  1.
          2    1    1    2  501    0 -0.11805931122E+02  0.22553959826E+02 -0.79321740853E+01  0.26664217581E+02  0.00000000000E+00 0.  1.
          2    1    1    2  502    0  0.11805931122E+02 -0.22553959826E+02  0.51186843623E+03  0.51250108012E+03  0.00000000000E+00 0.  1.
</event>
<event>
 4    1  0.6651744E+003  0.2307252E+02  0.7546771E-02  0.1491589E+00
          2   -1    0    0  501    0  0.00000000000E+00  0.00000000000E+00  0.64057844199E+03  0.64057844199E+03  0.00000000000E+00 0. -1.
          2   -1    0    0  502    0 -0.00000000000E+00 -0.00000000000E+00 -0.31822366099E+01  0.31822366099E+01  0.00000000000E+00 0.  1.
          2    1    1    2  501    0  0.13759806494E+02 -0.18520505742E+02  0.42020886985E+02  0.47938464209E+02  0.00000000000E+00 0.  1.
          2    1    1    2  502    0 -0.13759806494E+02  0.18520505742E+02  0.59537531839E+03  0.59582221439E+03  0.00000000000E+00 0. -1.
</event>
<event>
 4    1  0.6651744E+003  0.2117475E+02  0.7546771E-02  0.1516784E+00
          2   -1    0    0  501    0  0.00000000000E+00  0.00000000000E+00  0.51762409056E+02  0.51762409056E+02  0.00000000000E+00 0. -1.
          2   -1    0    0  502    0 -0.00000000000E+00 -0.00000000000E+00 -0.24131031528E+03  0.24131031528E+03  0.00000000000E+00 0. -1.
          2    1    1    2  501    0 -0.15235968720E+01 -0.21119861707E+02 -0.23865624517E+03  0.23959376717E+03  0.00000000000E+00 0. -1.
          2    1    1    2  502    0  0.15235968720E+01  0.21119861707E+02  0.49108338946E+02  0.53478957170E+02  0.00000000000E+00 0. -1.
</event>
<event>
 4    1  0.6651744E+003  0.2933261E+02  0.7546771E-02  0.1425486E+00
          2   -1    0    0  501    0  0.00000000000E+00  0.00000000000E+00  0.25876234865E+04  0.25876234865E+04  0.00000000000E+00 0. -1.
          2   -1    0    0  502    0 -0.00000000000E+00 -0.00000000000E+00 -0.37768796431E+00  0.37768796431E+00  0.00000000000E+00 0. -1.
          2    1    1    2  501    0  0.91937824865E+01 -0.27854557774E+02  0.84606696953E+03  0.84657528842E+03  0.00000000000E+00 0. -1.
          2    1    1    2  502    0 -0.91937824865E+01  0.27854557774E+02  0.17411788290E+04  0.17414258860E+04  0.00000000000E+00 0. -1.
</event>
<event>
 4    1  0.6651744E+003  0.2153912E+02  0.7546771E-02  0.1511705E+00
          2   -1    0    0  502    0  0.00000000000E+00  0.00000000000E+00  0.10146153428E+04  0.10146153428E+04  0.00000000000E+00 0.  1.
          2   -1    0    0  501    0 -0.00000000000E+00 -0.00000000000E+00 -0.13050178142E+01  0.13050178142E+01  0.00000000000E+00 0. -1.
          2    1    1    2  501    0  0.17007210329E+02 -0.13216971739E+02  0.91606638143E+03  0.91631956693E+03  0.00000000000E+00 0.  1.
          2    1    1    2  502    0 -0.17007210329E+02  0.13216971739E+02  0.97243943573E+02  0.99600793705E+02  0.00000000000E+00 0. -1.
</event>
<event>
 4    1  0.6651744E+003  0.2229128E+02  0.7546771E-02  0.1501595E+00
          2   -1    0    0  502    0  0.00000000000E+00  0.00000000000E+00  0.52280789139E+03  0.52280789139E+03  0.00000000000E+00 0.  1.
          2   -1    0    0  501    0 -0.00000000000E+00 -0.00000000000E+00 -0.34806738133E+01  0.34806738133E+01  0.00000000000E+00 0.  1.
          2    1    1    2  501    0 -0.88729328219E+00  0.22273609292E+02  0.48402185701E+03  0.48453488937E+03  0.00000000000E+00 0.  1.
          2    1    1    2  502    0  0.88729328219E+00 -0.22273609292E+02  0.35305360569E+02  0.41753675828E+02  0.00000000000E+00 0.  1.
</event>
<event>
 4    1  0.6651744E+003  0.4644145E+02  0.7546771E-02  0.1314385E+00
          2   -1    0    0  502    0  0.00000000000E+00  0.00000000000E+00  0.93447028850E+01  0.93447028850E+01  0.00000000000E+00 0.  1.
          2   -1    0    0  501    0 -0.00000000000E+00 -0.00000000000E+00 -0.27380677100E+03  0.27380677100E+03  0.00000000000E+00 0.  1.
          2    1    1    2  501    0  0.16818737119E+01  0.46410980889E+02 -0.76125214272E+02  0.89173180353E+02  0.00000000000E+00 0.  1.
          2    1    1    2  502    0 -0.16818737119E+01 -0.46410980889E+02 -0.18833685384E+03  0.19397829353E+03  0.00000000000E+00 0.  1.
</event>
<event>
 4    1  0.6651744E+003  0.5028980E+02  0.7546771E-02  0.1296921E+00
          2   -1    0    0  501    0  0.00000000000E+00  0.00000000000E+00  0.12984340639E+02  0.12984340639E+02  0.00000000000E+00 0.  1.
          2   -1    0    0  502    0 -0.00000000000E+00 -0.00000000000E+00 -0.60069753132E+03  0.60069753132E+03  0.00000000000E+00 0.  1.
          2    1    1    2  501    0 -0.27706925519E+02 -0.41968917326E+02 -0.54609159945E+03  0.54840231467E+03  0.00000000000E+00 0.  1.
          2    1    1    2  502    0  0.27706925519E+02  0.41968917326E+02 -0.41621591226E+02  0.65279557286E+02  0.00000000000E+00 0.  1.
</event>
<event>
 4    1  0.6651744E+003  0.2130611E+02  0.7546771E-02  0.1514939E+00
          2   -1    0    0  502    0  0.00000000000E+00  0.00000000000E+00  0.34732923368E+02  0.34732923368E+02  0.00000000000E+00 0. -1.
          2   -1    0    0  501    0 -0.00000000000E+00 -0.00000000000E+00 -0.32545497231E+03  0.32545497231E+03  0.00000000000E+00 0.  1.
          2    1    1    2  501    0 -0.20575897779E+02 -0.55301761523E+01  0.31079730511E+02  0.37681561358E+02  0.00000000000E+00 0. -1.
          2    1    1    2  502    0  0.20575897779E+02  0.55301761523E+01 -0.32180177946E+03  0.32250633432E+03  0.00000000000E+00 0.  1.
</event>
<event>
 4    1  0.6651744E+003  0.2167238E+02  0.7546771E-02  0.1509878E+00
          2   -1    0    0  501    0  0.00000000000E+00  0.00000000000E+00  0.74816591973E+02  0.74816591973E+02  0.00000000000E+00 0. -1.
          2   -1    0    0  502    0 -0.00000000000E+00 -0.00000000000E+00 -0.10490692001E+02  0.10490692001E+02  0.00000000000E+00 0.  1.
          2    1    1    2  501    0 -0.21216160341E+02 -0.44234162093E+01  0.51334271436E+01  0.22272048509E+02  0.00000000000E+00 0.  1.
          2    1    1    2  502    0  0.21216160341E+02  0.44234162093E+01  0.59192472828E+02  0.63035235464E+02  0.00000000000E+00 0. -1.
</event>
<event>
 4    1  0.6651744E+003  0.3784049E+02  0.7546771E-02  0.1361627E+00
          2   -1    0    0  501    0  0.00000000000E+00  0.00000000000E+00  0.92114550494E+03  0.92114550494E+03  0.00000000000E+00 0.  1.
          2   -1    0    0  502    0 -0.00000000000E+00 -0.00000000000E+00 -0.51293651651E+01  0.51293651651E+01  0.00000000000E+00 0.  1.
          2    1    1    2  501    0 -0.30479282845E+02 -0.22425787581E+02  0.71366005714E+02  0.80777530310E+02  0.00000000000E+00 0.  1.
          2    1    1    2  502    0  0.30479282845E+02  0.22425787581E+02  0.84465013406E+03  0.84549733979E+03  0.00000000000E+00 0.  1.
</event>
<event>
 4    1  0.6651744E+003  0.2045254E+02  0.7546771E-02  0.1527227E+00
          2   -1    0    0  502    0  0.00000000000E+00  0.00000000000E+00  0.56493592122E+02  0.56493592122E+02  0.00000000000E+00 0.  1.
          2   -1    0    0  501    0 -0.00000000000E+00 -0.00000000000E+00 -0.38136528178E+02  0.38136528178E+02  0.00000000000E+00 0.  1.
          2    1    1    2  501    0  0.72346802686E+01 -0.19130234507E+02  0.51652660070E+02  0.55554511637E+02  0.00000000000E+00 0.  1.
          2    1    1    2  502    0 -0.72346802686E+01  0.19130234507E+02 -0.33295596127E+02  0.39075608663E+02  0.00000000000E+00 0.  1.
</event>
<event>
 4    1  0.6651744E+003  0.2626766E+02  0.7546771E-02  0.1455107E+00
          2   -1    0    0  501    0  0.00000000000E+00  0.00000000000E+00  0.15248904892E+04  0.15248904892E+04  0.00000000000E+00 0. -1.
          2   -1    0    0  502    0 -0.00000000000E+00 -0.00000000000E+00 -0.11167759488E+02  0.11167759488E+02  0.00000000000E+00 0. -1.
          2    1    1    2  501    0  0.23326838259E+02 -0.12076774411E+02  0.45522630985E+01  0.26659200337E+02  0.00000000000E+00 0. -1.
          2    1    1    2  502    0 -0.23326838259E+02  0.12076774411E+02  0.15091704667E+04  0.15093990484E+04  0.00000000000E+00 0. -1.
</event>
<event>
 4    1  0.6651744E+003  0.4180250E+02  0.7546771E-02  0.1338235E+00
          2   -1    0    0  501    0  0.00000000000E+00  0.00000000000E+00  0.36583451024E+01  0.36583451024E+01  0.00000000000E+00 0.  1.
          2   -1    0    0  502    0 -0.00000000000E+00 -0.00000000000E+00 -0.86615974591E+03  0.86615974591E+03  0.00000000000E+00 0. -1.
          2    1    1    2  501    0  0.39510975320E+02  0.13650349053E+02 -0.72251964942E+03  0.72372791365E+03  0.00000000000E+00 0. -1.
          2    1    1    2  502    0 -0.39510975320E+02 -0.13650349053E+02 -0.13998175140E+03  0.14609017737E+03  0.00000000000E+00 0.  1.
</event>
<event>
 4    1  0.6651744E+003  0.2158594E+02  0.7546771E-02  0.1511061E+00
          2   -1    0    0  502    0  0.00000000000E+00  0.00000000000E+00  0.21919696654E+03  0.21919696654E+03  0.00000000000E+00 0.  1.
          2   -1    0    0  501    0 -0.00000000000E+00 -0.00000000000E+00 -0.19839581244E+02  0.19839581244E+02  0.00000000000E+00 0.  1.
          2    1    1    2  501    0 -0.93418480657E+01  0.19459767401E+02  0.21261266606E+03  0.21370563503E+03  0.00000000000E+00 0.  1.
          2    1    1    2  502    0  0.93418480657E+01 -0.19459767401E+02 -0.13255280770E+02  0.25330912753E+02  0.00000000000E+00 0.  1.
</event>
<event>
 4    1  0.6651744E+003  0.3062294E+02  0.7546771E-02  0.1414259E+00
          2   -1    0    0  501    0  0.00000000000E+00  0.00000000000E+00  0.96793416075E+03  0.96793416075E+03  0.00000000000E+00 0. -1.
          2   -1    0    0  502    0 -0.00000000000E+00 -0.00000000000E+00 -0.20604910942E+01  0.20604910942E+01  0.00000000000E+00 0. -1.
          2    1    1    2  501    0  0.30569901275E+02 -0.18015669421E+01  0.12991813267E+03  0.13347840913E+03  0.00000000000E+00 0. -1.
          2    1    1    2  502    0 -0.30569901275E+02  0.18015669421E+01  0.83595553698E+03  0.83651624271E+03  0.00000000000E+00 0. -1.
</event>
<event>
 4    1  0.6651744E+003  0.2097140E+02  0.7546771E-02  0.1519673E+00
          2   -1    0    0  501    0  0.00000000000E+00  0.00000000000E+00  0.70948703414E+02  0.70948703414E+02  0.00000000000E+00 0.  1.
          2   -1    0    0  502    0 -0.00000000000E+00 -0.00000000000E+00 -0.41069756709E+03  0.41069756709E+03  0.00000000000E+00 0. -1.
          2    1    1    2  501    0  0.17666082380E+02 -0.11300847936E+02 -0.40887323213E+03  0.40941069794E+03  0.00000000000E+00 0. -1.
          2    1    1    2  502    0 -0.17666082380E+02  0.11300847936E+02  0.69124368452E+02  0.72235572571E+02  0.00000000000E+00 0.  1.
</event>
<event>
 4    1  0.9907291E+003  0.2257993E+02  0.7546771E-02  0.1497841E+00
          2   -1    0    0  502    0  0.00000000000E+00  0.00000000000E+00  0.52103683744E+03  0.52103683744E+03  0.00000000000E+00 0. -1.
          2   -1    0    0  501    0 -0.00000000000E+00 -0.00000000000E+00 -0.14685534404E+04  0.14685534404E+04  0.00000000000E+00 0. -1.
          2    1    1    2  501    0  0.21807420498E+02  0.58557254765E+01  0.52070535318E+03  0.52119470252E+03  0.00000000000E+00 0. -1.
          2    1    1    2  502    0 -0.21807420498E+02 -0.58557254765E+01 -0.14682219562E+04  0.14683955753E+04  0.00000000000E+00 0. -1.
</event>
<event>
 4    1  0.6651744E+003  0.3406991E+02  0.7546771E-02  0.1387223E+00
          2   -1    0    0  502    0  0.00000000000E+00  0.00000000000E+00  0.20287679736E+04  0.20287679736E+04  0.00000000000E+00 0. -1.
          2   -1    0    0  501    0 -0.00000000000E+00 -0.00000000000E+00 -0.18877496085E+02  0.18877496085E+02  0.00000000000E+00 0.  1.
          2    1    1    2  501    0  0.20838204013E+02  0.26954178940E+02  0.20131333067E+04  0.20134215826E+04  0.00000000000E+00 0. -1.
          2    1    1    2  502    0 -0.20838204013E+02 -0.26954178940E+02 -0.32428291997E+01  0.34223887127E+02  0.00000000000E+00 0.  1.
</event>
<event>
 4    1  0.6651744E+003  0.2338925E+02  0.7546771E-02  0.1487667E+00
          2   -1    0    0  502    0  0.00000000000E+00  0.00000000000E+00  0.54841365791E+02  0.54841365791E+02  0.00000000000E+00 0.  1.
          2   -1    0    0  501    0 -0.00000000000E+00 -0.00000000000E+00 -0.13819815112E+04  0.13819815112E+04  0.00000000000E+00 0. -1.
          2    1    1    2  501    0  0.15916484092E+02 -0.17138333637E+02  0.52243892397E+02  0.57240555889E+02  0.00000000000E+00 0.  1.
          2    1    1    2  502    0 -0.15916484092E+02  0.17138333637E+02 -0.13793840379E+04  0.13795823212E+04  0.00000000000E+00 0. -1.
</event>
<event>
 4    1  0.6651744E+003  0.3445729E+02  0.7546771E-02  0.1384419E+00
          2   -1    0    0  502    0  0.00000000000E+00  0.00000000000E+00  0.31198461617E+03  0.31198461617E+03  0.00000000000E+00 0. -1.
          2   -1    0    0  501    0 -0.00000000000E+00 -0.00000000000E+00 -0.19766618882E+02  0.19766618882E+02  0.00000000000E+00 0.  1.
          2    1    1    2  501    0  0.33610685021E+02  0.75912337461E+01  0.29516379386E+03  0.29716825232E+03  0.00000000000E+00 0. -1.
          2    1    1    2  502    0 -0.33610685021E+02 -0.75912337461E+01 -0.29457965750E+01  0.34582982734E+02  0.00000000000E+00 0.  1.
</event>
<event>
 4    1  0.6651744E+003  0.2084625E+02  0.7546771E-02  0.1521471E+00
          2   -1    0    0  501    0  0.00000000000E+00  0.00000000000E+00  0.73238224804E+02  0.73238224804E+02  0.00000000000E+00 0. -1.
          2   -1    0    0  502    0 -0.00000000000E+00 -0.00000000000E+00 -0.16371655380E+02  0.16371655380E+02  0.00000000000E+00 0. -1.
          2    1    1    2  501    0  0.13798378415E+02  0.15625966512E+02 -0.73425252090E+01  0.22101555438E+02  0.00000000000E+00 0. -1.
          2    1    1    2  502    0 -0.13798378415E+02 -0.15625966512E+02  0.64209094633E+02  0.67508324746E+02  0.00000000000E+00 0. -1.
</event>
<event>
 4    1  0.6651744E+003  0.2721702E+02  0.7546771E-02  0.1445440E+00
          2   -1    0    0  502    0  0.00000000000E+00  0.00000000000E+00  0.71085563597E+03  0.71085563597E+03  0.00000000000E+00 0. -1.
          2   -1    0    0  501    0 -0.00000000000E+00 -0.00000000000E+00 -0.11978591891E+01  0.11978591891E+01  0.00000000000E+00 0.  1.
          2    1    1    2  501    0 -0.10697791581E+02  0.25026454942E+02  0.48322115707E+03  0.48398703787E+03  0.00000000000E+00 0. -1.
          2    1    1    2  502    0  0.10697791581E+02 -0.25026454942E+02  0.22643661971E+03  0.22806645729E+03  0.00000000000E+00 0.  1.
</event>
<event>
 4    1  0.6651744E+003  0.2395300E+02  0.7546771E-02  0.1480866E+00
          2   -1    0    0  501    0  0.00000000000E+00  0.00000000000E+00  0.23188706492E+01  0.23188706492E+01  0.00000000000E+00 0. -1.
          2   -1    0    0  502    0 -0.00000000000E+00 -0.00000000000E+00 -0.55127619316E+03  0.55127619316E+03  0.00000000000E+00 0. -1.
          2    1    1    2  501    0  0.23465638518E+02  0.48073003872E+01 -0.47997691802E+03  0.48057422753E+03  0.00000000000E+00 0. -1.
          2    1    1    2  502    0 -0.23465638518E+02 -0.48073003872E+01 -0.68980404486E+02  0.73020836281E+02  0.00000000000E+00 0. -1.
</event>
<event>
 4    1  0.6651744E+003  0.2428121E+02  0.7546771E-02  0.1477007E+00
          2   -1    0    0  502    0  0.00000000000E+00  0.00000000000E+00  0.16990375060E+02  0.16990375060E+02  0.00000000000E+00 0.  1.
          2   -1    0    0  501    0 -0.00000000000E+00 -0.00000000000E+00 -0.80630664649E+02  0.80630664649E+02  0.00000000000E+00 0.  1.
          2    1    1    2  501    0 -0.24212197664E+02 -0.18294063004E+01  0.50191708484E+01  0.24794542124E+02  0.00000000000E+00 0.  1.
          2    1    1    2  502    0  0.24212197664E+02  0.18294063004E+01 -0.68659460437E+02  0.72826497586E+02  0.00000000000E+00 0.  1.
</event>
<event>
 4    1  0.6651744E+003  0.2070462E+02  0.7546771E-02  0.1523524E+00
          2   -1    0    0  501    0  0.00000000000E+00  0.00000000000E+00  0.49448675563E+03  0.49448675563E+03  0.00000000000E+00 0. -1.
          2   -1    0    0  502    0 -0.00000000000E+00 -0.00000000000E+00 -0.56052001993E+01  0.56052001993E+01  0.00000000000E+00 0.  1.
          2    1    1    2  501    0 -0.61072295826E+01  0.19783405636E+02  0.14543096005E+02  0.25301838533E+02  0.00000000000E+00 0.  1.
          2    1    1    2  502    0  0.61072295826E+01 -0.19783405636E+02  0.47433845942E+03  0.47479011729E+03  0.00000000000E+00 0. -1.
</event>
<event>
 4    1  0.6651744E+003  0.3783287E+02  0.7546771E-02  0.1361675E+00
          2   -1    0    0  502    0  0.00000000000E+00  0.00000000000E+00  0.99095902094E+03  0.99095902094E+03  0.00000000000E+00 0.  1.
          2   -1    0    0  501    0 -0.00000000000E+00 -0.00000000000E+00 -0.42739289003E+03  0.42739289003E+03  0.00000000000E+00 0.  1.
          2    1    1    2  501    0 -0.30259885012E+02  0.22708265576E+02  0.98975966812E+03  0.99048247163E+03  0.00000000000E+00 0.  1.
          2    1    1    2  502    0  0.30259885012E+02 -0.22708265576E+02 -0.42619353721E+03  0.42786943934E+03  0.00000000000E+00 0.  1.
</event>
<event>
 4    1  0.6651744E+003  0.2864350E+02  0.7546771E-02  0.1431762E+00
          2   -1    0    0  501    0  0.00000000000E+00  0.00000000000E+00  0.34028620280E+03  0.34028620280E+03  0.00000000000E+00 0.  1.
          2   -1    0    0  502    0 -0.00000000000E+00 -0.00000000000E+00 -0.26004667533E+01  0.26004667533E+01  0.00000000000E+00 0.  1.
          2    1    1    2  501    0  0.28073982380E+02  0.56834448908E+01  0.12257344366E+03  0.12587572889E+03  0.00000000000E+00 0.  1.
          2    1    1    2  502    0 -0.28073982380E+02 -0.56834448908E+01  0.21511229239E+03  0.21701094067E+03  0.00000000000E+00 0.  1.
</event>
<event>
 4    1  0.6651744E+003  0.2214074E+02  0.7546771E-02  0.1503579E+00
          2   -1    0    0  502    0  0.00000000000E+00  0.00000000000E+00  0.68044640186E+01  0.68044640186E+01  0.00000000000E+00 0.  1.
          2   -1    0    0  501    0 -0.00000000000E+00 -0.00000000000E+00 -0.11248418812E+03  0.11248418812E+03  0.00000000000E+00 0. -1.
          2    1    1    2  501    0 -0.22024267337E+02  0.22680621143E+01 -0.17076645855E+02  0.27961121063E+02  0.00000000000E+00 0.  1.
          2    1    1    2  502    0  0.22024267337E+02 -0.22680621143E+01 -0.88603078244E+02  0.91327531072E+02  0.00000000000E+00 0. -1.
</event>
<event>
 4    1  0.6651744E+003  0.6623128E+02  0.7546771E-02  0.1240014E+00
          2   -1    0    0  501    0  0.00000000000E+00  0.00000000000E+00  0.72776828616E+03  0.72776828616E+03  0.00000000000E+00 0.  1.
          2   -1    0    0  502    0 -0.00000000000E+00 -0.00000000000E+00 -0.25994046424E+02  0.25994046424E+02  0.00000000000E+00 0.  1.
          2    1    1    2  501    0  0.27449159108E+02 -0.60275421024E+02  0.20578754027E+02  0.69354652566E+02  0.00000000000E+00 0.  1.
          2    1    1    2  502    0 -0.27449159108E+02  0.60275421024E+02  0.68119548571E+03  0.68440768002E+03  0.00000000000E+00 0.  1.
</event>
<event>
 4    1  0.6651744E+003  0.2554124E+02  0.7546771E-02  0.1462839E+00
          2   -1    0    0  501    0  0.00000000000E+00  0.00000000000E+00  0.51460471929E+02  0.51460471929E+02  0.00000000000E+00 0. -1.
          2   -1    0    0  502    0 -0.00000000000E+00 -0.00000000000E+00 -0.56977710188E+03  0.56977710188E+03  0.00000000000E+00 0.  1.
          2    1    1    2  501    0  0.17404807449E+02 -0.18692979027E+02 -0.56630222955E+03  0.56687791453E+03  0.00000000000E+00 0.  1.
          2    1    1    2  502    0 -0.17404807449E+02  0.18692979027E+02  0.47985599604E+02  0.54359659276E+02  0.00000000000E+00 0. -1.
</event>
<event>
 4    1  0.6651744E+003  0.2131250E+02  0.7546771E-02  0.1514850E+00
          2   -1    0    0  502    0  0.00000000000E+00  0.00000000000E+00  0.74410957419E+03  0.74410957419E+03  0.00000000000E+00 0. -1.
          2   -1    0    0  501    0 -0.00000000000E+00 -0.00000000000E+00 -0.22016890274E+01  0.22016890274E+01  0.00000000000E+00 0.  1.
          2    1    1    2  501    0 -0.30996055936E+01 -0.21085897421E+02  0.68819049284E+03  0.68852042603E+03  0.00000000000E+00 0. -1.
          2    1    1    2  502    0  0.30996055936E+01  0.21085897421E+02  0.53717392323E+02  0.57790837188E+02  0.00000000000E+00 0.  1.
</event>
<event>
 4    1  0.6651744E+003  0.2508782E+02  0.7546771E-02  0.1467823E+00
          2   -1    0    0  501    0  0.00000000000E+00  0.00000000000E+00  0.49284568783E+03  0.49284568783E+03  0.00000000000E+00 0.  1.
          2   -1    0    0  502    0 -0.00000000000E+00 -0.00000000000E+00 -0.23799093847E+01  0.23799093847E+01  0.00000000000E+00 0. -1.
          2    1    1    2  501    0 -0.47456860645E+01 -0.24634878189E+02  0.76675077326E+02  0.80675065805E+02  0.00000000000E+00 0. -1.
          2    1    1    2  502    0  0.47456860645E+01  0.24634878189E+02  0.41379070112E+03  0.41455053141E+03  0.00000000000E+00 0.  1.
</event>
<event>
 4    1  0.6651744E+003  0.2161648E+02  0.7546771E-02  0.1510642E+00
          2   -1    0    0  501    0  0.00000000000E+00  0.00000000000E+00  0.72384254321E+02  0.72384254321E+02  0.00000000000E+00 0.  1.
          2   -1    0    0  502    0 -0.00000000000E+00 -0.00000000000E+00 -0.67720102497E+02  0.67720102497E+02  0.00000000000E+00 0.  1.
          2    1    1    2  501    0  0.47129719254E+01  0.21096451146E+02 -0.64297623999E+02  0.67834038706E+02  0.00000000000E+00 0.  1.
          2    1    1    2  502    0 -0.47129719254E+01 -0.21096451146E+02  0.68961775823E+02  0.72270318112E+02  0.00000000000E+00 0.  1.
</event>
<event>
 4    1  0.6651744E+003  0.2202777E+02  0.7546771E-02  0.1505081E+00
          2   -1    0    0  502    0  0.00000000000E+00  0.00000000000E+00  0.12181251041E+02  0.12181251041E+02  0.00000000000E+00 0.  1.
          2   -1    0    0  501    0 -0.00000000000E+00 -0.00000000000E+00 -0.54760182271E+03  0.54760182271E+03  0.00000000000E+00 0. -1.
          2    1    1    2  501    0 -0.17016342862E+02 -0.13988097234E+02  0.18091529971E+01  0.22101941616E+02  0.00000000000E+00 0.  1.
          2    1    1    2  502    0  0.17016342862E+02  0.13988097234E+02 -0.53722972466E+03  0.53768113213E+03  0.00000000000E+00 0. -1.
</event>
<event>
 4    1  0.6651744E+003  0.2747016E+02  0.7546771E-02  0.1442942E+00
          2   -1    0    0  502    0  0.00000000000E+00  0.00000000000E+00  0.32638537118E+02  0.32638537118E+02  0.00000000000E+00 0.  1.
          2   -1    0    0  501    0 -0.00000000000E+00 -0.00000000000E+00 -0.94598655194E+03  0.94598655194E+03  0.00000000000E+00 0.  1.
          2    1    1    2  501    0 -0.11727687105E+02  0.24840920052E+02  0.26622071128E+02  0.38253687731E+02  0.00000000000E+00 0.  1.
          2    1    1    2  502    0  0.11727687105E+02 -0.24840920052E+02 -0.93997008595E+03  0.94037140133E+03  0.00000000000E+00 0.  1.
</event>
<event>
 4    1  0.6651744E+003  0.2115089E+02  0.7546771E-02  0.1517121E+00
          2   -1    0    0  502    0  0.00000000000E+00  0.00000000000E+00  0.61176314309E+02  0.61176314309E+02  0.00000000000E+00 0.  1.
          2   -1    0    0  501    0 -0.00000000000E+00 -0.00000000000E+00 -0.12325977049E+03  0.12325977049E+03  0.00000000000E+00 0. -1.
          2    1    1    2  501    0 -0.46835178487E+01 -0.20625824744E+02  0.58398981373E+02  0.62111198759E+02  0.00000000000E+00 0.  1.
          2    1    1    2  502    0  0.46835178487E+01  0.20625824744E+02 -0.12048243756E+03  0.12232488604E+03  0.00000000000E+00 0. -1.
</event>
<event>
 4    1  0.6651744E+003  0.2058417E+02  0.7546771E-02  0.1525285E+00
          2   -1    0    0  501    0  0.00000000000E+00  0.00000000000E+00  0.12268970611E+04  0.12268970611E+04  0.00000000000E+00 0.  1.
          2   -1    0    0  502    0 -0.00000000000E+00 -0.00000000000E+00 -0.89343733845E+01  0.89343733845E+01  0.00000000000E+00 0.  1.
          2    1    1    2  501    0 -0.20568345403E+02  0.80700331055E+00  0.31257778681E+01  0.20820148276E+02  0.00000000000E+00 0.  1.
          2    1    1    2  502    0  0.20568345403E+02 -0.80700331055E+00  0.12148369098E+04  0.12150112862E+04  0.00000000000E+00 0.  1.
</event>
<event>
 4    1  0.6651744E+003  0.2611937E+02  0.7546771E-02  0.1456660E+00
          2   -1    0    0  501    0  0.00000000000E+00  0.00000000000E+00  0.35822130802E+02  0.35822130802E+02  0.00000000000E+00 0. -1.
          2   -1    0    0  502    0 -0.00000000000E+00 -0.00000000000E+00 -0.10205530659E+04  0.10205530659E+04  0.00000000000E+00 0.  1.
          2    1    1    2  501    0 -0.26098403441E+02 -0.10463596324E+01 -0.10156015628E+04  0.10159373779E+04  0.00000000000E+00 0.  1.
          2    1    1    2  502    0  0.26098403441E+02  0.10463596324E+01  0.30870627709E+02  0.40437818757E+02  0.00000000000E+00 0. -1.
</event>
<event>
 4    1  0.6651744E+003  0.3103889E+02  0.7546771E-02  0.1410778E+00
          2   -1    0    0  502    0  0.00000000000E+00  0.00000000000E+00  0.16520180883E+03  0.16520180883E+03  0.00000000000E+00 0. -1.
          2   -1    0    0  501    0 -0.00000000000E+00 -0.00000000000E+00 -0.11083878516E+02  0.11083878516E+02  0.00000000000E+00 0. -1.
          2    1    1    2  501    0  0.29361308671E+02  0.10066082068E+02  0.13773394638E+03  0.14118800388E+03  0.00000000000E+00 0. -1.
          2    1    1    2  502    0 -0.29361308671E+02 -0.10066082068E+02  0.16383983939E+02  0.35097683467E+02  0.00000000000E+00 0. -1.
</event>
<event>
 4    1  0.6651744E+003  0.2212271E+02  0.7546771E-02  0.1503818E+00
          2   -1    0    0  501    0  0.00000000000E+00  0.00000000000E+00  0.80173190627E+01  0.80173190627E+01  0.00000000000E+00 0.  1.
          2   -1    0    0  502    0 -0.00000000000E+00 -0.00000000000E+00 -0.23898824696E+03  0.23898824696E+03  0.00000000000E+00 0. -1.
          2    1    1    2  501    0  0.22035524861E+02 -0.19621051004E+01 -0.22205416909E+03  0.22315346339E+03  0.00000000000E+00 0. -1.
          2    1    1    2  502    0 -0.22035524861E+02  0.19621051004E+01 -0.89167588047E+01  0.23852102631E+02  0.00000000000E+00 0.  1.
</event>
<event>
 4    1  0.6651744E+003  0.2772254E+02  0.7546771E-02  0.1440482E+00
          2   -1    0    0  501    0  0.00000000000E+00  0.00000000000E+00  0.57979997487E+03  0.57979997487E+03  0.00000000000E+00 0. -1.
          2   -1    0    0  502    0 -0.00000000000E+00 -0.00000000000E+00 -0.23749360800E+03  0.23749360800E+03  0.00000000000E+00 0. -1.
          2    1    1    2  501    0  0.20913974735E+02 -0.18197380954E+02 -0.23635162102E+03  0.23797190543E+03  0.00000000000E+00 0. -1.
          2    1    1    2  502    0 -0.20913974735E+02  0.18197380954E+02  0.57865798789E+03  0.57932167745E+03  0.00000000000E+00 0. -1.
</event>
<event>
 4    1  0.6651744E+003  0.2920892E+02  0.7546771E-02  0.1426598E+00
          2   -1    0    0  501    0  0.00000000000E+00  0.00000000000E+00  0.12101289963E+01  0.12101289963E+01  0.00000000000E+00 0.  1.
          2   -1    0    0  502    0 -0.00000000000E+00 -0.00000000000E+00 -0.13310941520E+04  0.13310941520E+04  0.00000000000E+00 0. -1.
          2    1    1    2  501    0 -0.24058201651E+02  0.16563941244E+02 -0.11218019248E+04  0.11221821241E+04  0.00000000000E+00 0. -1.
          2    1    1    2  502    0  0.24058201651E+02 -0.16563941244E+02 -0.20808209820E+03  0.21012215687E+03  0.00000000000E+00 0.  1.
</event>
<event>
 4    1  0.6651744E+003  0.4311488E+02  0.7546771E-02  0.1331140E+00
          2   -1    0    0  502    0  0.00000000000E+00  0.00000000000E+00  0.11422593271E+04  0.11422593271E+04  0.00000000000E+00 0.  1.
          2   -1    0    0  501    0 -0.00000000000E+00 -0.00000000000E+00 -0.10986981605E+02  0.10986981605E+02  0.00000000000E+00 0. -1.
          2    1    1    2  501    0 -0.43035295864E+02 -0.26185095649E+01  0.10978442891E+04  0.10986905736E+04  0.00000000000E+00 0.  1.
          2    1    1    2  502    0  0.43035295864E+02  0.26185095649E+01  0.33428056343E+02  0.54555735109E+02  0.00000000000E+00 0. -1.
</event>
<event>
 4    1  0.6651744E+003  0.3781980E+02  0.7546771E-02  0.1361758E+00
          2   -1    0    0  501    0  0.00000000000E+00  0.00000000000E+00  0.14099134360E+03  0.14099134360E+03  0.00000000000E+00 0. -1.
          2   -1    0    0  502    0 -0.00000000000E+00 -0.00000000000E+00 -0.10651373691E+02  0.10651373691E+02  0.00000000000E+00 0. -1.
          2    1    1    2  501    0 -0.32135407411E+02  0.19941231454E+02  0.48635703701E+02  0.61609810874E+02  0.00000000000E+00 0. -1.
          2    1    1    2  502    0  0.32135407411E+02 -0.19941231454E+02  0.81704266208E+02  0.90032906418E+02  0.00000000000E+00 0. -1.
</event>
<event>
 4    1  0.6651744E+003  0.4395031E+02  0.7546771E-02  0.1326772E+00
          2   -1    0    0  501    0  0.00000000000E+00  0.00000000000E+00  0.16029017483E+03  0.16029017483E+03  0.00000000000E+00 0. -1.
          2   -1    0    0  502    0 -0.00000000000E+00 -0.00000000000E+00 -0.32774953067E+02  0.32774953067E+02  0.00000000000E+00 0. -1.
          2    1    1    2  501    0 -0.85976491433E+01 -0.43101160687E+02 -0.13003435287E+02  0.45833600695E+02  0.00000000000E+00 0. -1.
          2    1    1    2  502    0  0.85976491433E+01  0.43101160687E+02  0.14051865705E+03  0.14723152720E+03  0.00000000000E+00 0. -1.
</event>
<event>
 4    1  0.6651744E+003  0.2844416E+02  0.7546771E-02  0.1433617E+00
          2   -1    0    0  501    0  0.00000000000E+00  0.00000000000E+00  0.93712898287E+03  0.93712898287E+03  0.00000000000E+00 0. -1.
          2   -1    0    0  502    0 -0.00000000000E+00 -0.00000000000E+00 -0.17842430871E+01  0.17842430871E+01  0.00000000000E+00 0.  1.
          2    1    1    2  501    0 -0.26726336176E+02 -0.97351502361E+01  0.13040596421E+03  0.13347204088E+03  0.00000000000E+00 0.  1.
          2    1    1    2  502    0  0.26726336176E+02  0.97351502361E+01  0.80493877557E+03  0.80544118508E+03  0.00000000000E+00 0. -1.
</event>
<event>
 4    1  0.6651744E+003  0.2667512E+02  0.7546771E-02  0.1450899E+00
          2   -1    0    0  502    0  0.00000000000E+00  0.00000000000E+00  0.28765214855E+03  0.28765214855E+03  0.00000000000E+00 0.  1.
          2   -1    0    0  501    0 -0.00000000000E+00 -0.00000000000E+00 -0.10470012109E+02  0.10470012109E+02  0.00000000000E+00 0. -1.
          2    1    1    2  501    0 -0.26173857090E+02  0.51469385998E+01  0.26885850178E+03  0.27017856272E+03  0.00000000000E+00 0.  1.
          2    1    1    2  502    0  0.26173857090E+02 -0.51469385998E+01  0.83236346582E+01  0.27943597940E+02  0.00000000000E+00 0. -1.
</event>
<event>
 4    1  0.6651744E+003  0.2112364E+02  0.7546771E-02  0.1517507E+00
          2   -1    0    0  502    0  0.00000000000E+00  0.00000000000E+00  0.25905617852E+02  0.25905617852E+02  0.00000000000E+00 0.  1.
          2   -1    0    0  501    0 -0.00000000000E+00 -0.00000000000E+00 -0.27960504825E+03  0.27960504825E+03  0.00000000000E+00 0.  1.
          2    1    1    2  501    0  0.18844277362E+02  0.95447094027E+01  0.21125776673E+02  0.29874850743E+02  0.00000000000E+00 0.  1.
          2    1    1    2  502    0 -0.18844277362E+02 -0.95447094027E+01 -0.27482520707E+03  0.27563581536E+03  0.00000000000E+00 0.  1.
</event>
<event>
 4    1  0.6651744E+003  0.2051813E+02  0.7546771E-02  0.1526257E+00
          2   -1    0    0  502    0  0.00000000000E+00  0.00000000000E+00  0.75835855615E+03  0.75835855615E+03  0.00000000000E+00 0. -1.
          2   -1    0    0  501    0 -0.00000000000E+00 -0.00000000000E+00 -0.60817437475E+02  0.60817437475E+02  0.00000000000E+00 0. -1.
          2    1    1    2  501    0  0.12787849769E+02 -0.16045697712E+02  0.75648492375E+03  0.75676312898E+03  0.00000000000E+00 0. -1.
          2    1    1    2  502    0 -0.12787849769E+02  0.16045697712E+02 -0.58943805075E+02  0.62412864648E+02  0.00000000000E+00 0. -1.
</event>
<event>
 4    1  0.6651744E+003  0.2594678E+02  0.7546771E-02  0.1458485E+00
          2   -1    0    0  501    0  0.00000000000E+00  0.00000000000E+00  0.97836530691E+00  0.97836530691E+00  0.00000000000E+00 0.  1.
          2   -1    0    0  502    0 -0.00000000000E+00 -0.00000000000E+00 -0.12386355518E+04  0.12386355518E+04  0.00000000000E+00 0.  1.
          2    1    1    2  501    0  0.12767534674E+02  0.22588171006E+02 -0.20562090424E+03  0.20725151790E+03  0.00000000000E+00 0.  1.
          2    1    1    2  502    0 -0.12767534674E+02 -0.22588171006E+02 -0.10320362822E+04  0.10323623992E+04  0.00000000000E+00 0.  1.
</event>
<event>
 4    1  0.6651744E+003  0.2907031E+02  0.7546771E-02  0.1427851E+00
          2   -1    0    0  502    0  0.00000000000E+00  0.00000000000E+00  0.50982901981E+03  0.50982901981E+03  0.00000000000E+00 0. -1.
          2   -1    0    0  501    0 -0.00000000000E+00 -0.00000000000E+00 -0.11934384345E+02  0.11934384345E+02  0.00000000000E+00 0.  1.
          2    1    1    2  501    0  0.12385920216E+02 -0.26299659461E+02  0.49103496152E+03  0.49189472099E+03  0.00000000000E+00 0. -1.
          2    1    1    2  502    0 -0.12385920216E+02  0.26299659461E+02  0.68596739496E+01  0.29868683165E+02  0.00000000000E+00 0.  1.
</event>
<event>
 4    1  0.6651744E+003  0.2031873E+02  0.7546771E-02  0.1529218E+00
          2   -1    0    0  501    0  0.00000000000E+00  0.00000000000E+00  0.13045923204E+03  0.13045923204E+03  0.00000000000E+00 0.  1.
          2   -1    0    0  502    0 -0.00000000000E+00 -0.00000000000E+00 -0.38362392556E+01  0.38362392556E+01  0.00000000000E+00 0.  1.
          2    1    1    2  501    0  0.12671203713E+02  0.15883689207E+02  0.35215314416E+02  0.40656725837E+02  0.00000000000E+00 0.  1.
          2    1    1    2  502    0 -0.12671203713E+02 -0.15883689207E+02  0.91407678371E+02  0.93638745461E+02  0.00000000000E+00 0.  1.
</event>
<event>
 4    1  0.6651744E+003  0.2115802E+02  0.7546771E-02  0.1517021E+00
          2   -1    0    0  501    0  0.00000000000E+00  0.00000000000E+00  0.31973761097E+02  0.31973761097E+02  0.00000000000E+00 0. -1.
          2   -1    0    0  502    0 -0.00000000000E+00 -0.00000000000E+00 -0.10040990483E+03  0.10040990483E+03  0.00000000000E+00 0. -1.
          2    1    1    2  501    0  0.81872042011E+01 -0.19509775029E+02 -0.95621923783E+02  0.97934743285E+02  0.00000000000E+00 0. -1.
          2    1    1    2  502    0 -0.81872042011E+01  0.19509775029E+02  0.27185780050E+02  0.34448922643E+02  0.00000000000E+00 0. -1.
</event>
<event>
 4    1  0.6651744E+003  0.2488169E+02  0.7546771E-02  0.1470131E+00
          2   -1    0    0  501    0  0.00000000000E+00  0.00000000000E+00  0.21808272077E+01  0.21808272077E+01  0.00000000000E+00 0.  1.
          2   -1    0    0  502    0 -0.00000000000E+00 -0.00000000000E+00 -0.69149674867E+03  0.69149674867E+03  0.00000000000E+00 0. -1.
          2    1    1    2  501    0 -0.24850033748E+02  0.12547175962E+01 -0.61094946599E+03  0.61145592522E+03  0.00000000000E+00 0. -1.
          2    1    1    2  502    0  0.24850033748E+02 -0.12547175962E+01 -0.78366455475E+02  0.82221650660E+02  0.00000000000E+00 0.  1.
</event>
<event>
 4    1  0.6651744E+003  0.3816980E+02  0.7546771E-02  0.1359558E+00
          2   -1    0    0  502    0  0.00000000000E+00  0.00000000000E+00  0.21646902425E+03  0.21646902425E+03  0.00000000000E+00 0. -1.
          2   -1    0    0  501    0 -0.00000000000E+00 -0.00000000000E+00 -0.24087595588E+02  0.24087595588E+02  0.00000000000E+00 0. -1.
          2    1    1    2  501    0  0.38047111380E+02 -0.30579046586E+01  0.19829166181E+03  0.20193196034E+03  0.00000000000E+00 0. -1.
          2    1    1    2  502    0 -0.38047111380E+02  0.30579046586E+01 -0.59102331453E+01  0.38624659495E+02  0.00000000000E+00 0. -1.
</event>
<event>
 4    1  0.6651744E+003  0.3394686E+02  0.7546771E-02  0.1388122E+00
          2   -1    0    0  502    0  0.00000000000E+00  0.00000000000E+00  0.41966989605E+01  0.41966989605E+01  0.00000000000E+00 0.  1.
          2   -1    0    0  501    0 -0.00000000000E+00 -0.00000000000E+00 -0.25330646941E+04  0.25330646941E+04  0.00000000000E+00 0. -1.
          2    1    1    2  501    0 -0.45937471875E+01  0.33634611100E+02 -0.66537551325E+02  0.74696956520E+02  0.00000000000E+00 0.  1.
          2    1    1    2  502    0  0.45937471875E+01 -0.33634611100E+02 -0.24623304438E+04  0.24625644366E+04  0.00000000000E+00 0. -1.
</event>
<event>
 4    1  0.6651744E+003  0.3285623E+02  0.7546771E-02  0.1396295E+00
          2   -1    0    0  502    0  0.00000000000E+00  0.00000000000E+00  0.40732278558E+02  0.40732278558E+02  0.00000000000E+00 0.  1.
          2   -1    0    0  501    0 -0.00000000000E+00 -0.00000000000E+00 -0.17470042063E+03  0.17470042063E+03  0.00000000000E+00 0.  1.
          2    1    1    2  501    0 -0.32794637903E+02 -0.20109004534E+01  0.32225784069E+02  0.46022094202E+02  0.00000000000E+00 0.  1.
          2    1    1    2  502    0  0.32794637903E+02  0.20109004534E+01 -0.16619392615E+03  0.16941060499E+03  0.00000000000E+00 0.  1.
</event>
<event>
 4    1  0.6651744E+003  0.2061581E+02  0.7546771E-02  0.1524821E+00
          2   -1    0    0  502    0  0.00000000000E+00  0.00000000000E+00  0.17818510008E+03  0.17818510008E+03  0.00000000000E+00 0. -1.
          2   -1    0    0  501    0 -0.00000000000E+00 -0.00000000000E+00 -0.29224432642E+03  0.29224432642E+03  0.00000000000E+00 0. -1.
          2    1    1    2  501    0 -0.17853419928E+02  0.10308584369E+02  0.17722325177E+03  0.17841830759E+03  0.00000000000E+00 0. -1.
          2    1    1    2  502    0  0.17853419928E+02 -0.10308584369E+02 -0.29128247811E+03  0.29201111891E+03  0.00000000000E+00 0. -1.
</event>
<event>
 4    1  0.6651744E+003  0.2093614E+02  0.7546771E-02  0.1520179E+00
          2   -1    0    0  502    0  0.00000000000E+00  0.00000000000E+00  0.27111340914E+03  0.27111340914E+03  0.00000000000E+00 0.  1.
          2   -1    0    0  501    0 -0.00000000000E+00 -0.00000000000E+00 -0.28526067502E+02  0.28526067502E+02  0.00000000000E+00 0. -1.
          2    1    1    2  501    0 -0.19906480983E+02 -0.64848941831E+01  0.26680588383E+03  0.26762604784E+03  0.00000000000E+00 0.  1.
          2    1    1    2  502    0  0.19906480983E+02  0.64848941831E+01 -0.24218542191E+02  0.32013428800E+02  0.00000000000E+00 0. -1.
</event>
<event>
 4    1  0.6651744E+003  0.2282018E+02  0.7546771E-02  0.1494769E+00
          2   -1    0    0  501    0  0.00000000000E+00  0.00000000000E+00  0.23176341115E+02  0.23176341115E+02  0.00000000000E+00 0. -1.
          2   -1    0    0  502    0 -0.00000000000E+00 -0.00000000000E+00 -0.27969306307E+03  0.27969306307E+03  0.00000000000E+00 0.  1.
          2    1    1    2  501    0  0.22809185924E+02 -0.70839567090E+00 -0.27348287613E+03  0.27443331489E+03  0.00000000000E+00 0.  1.
          2    1    1    2  502    0 -0.22809185924E+02  0.70839567090E+00  0.16966154172E+02  0.28436089294E+02  0.00000000000E+00 0. -1.
</event>
<event>
 4    1  0.6651744E+003  0.6247839E+02  0.7546771E-02  0.1251637E+00
          2   -1    0    0  501    0  0.00000000000E+00  0.00000000000E+00  0.13201955823E+03  0.13201955823E+03  0.00000000000E+00 0. -1.
          2   -1    0    0  502    0 -0.00000000000E+00 -0.00000000000E+00 -0.20296379445E+03  0.20296379445E+03  0.00000000000E+00 0.  1.
          2    1    1    2  501    0 -0.33068907637E+02 -0.53009399974E+02 -0.19028363691E+03  0.20027833535E+03  0.00000000000E+00 0.  1.
          2    1    1    2  502    0  0.33068907637E+02  0.53009399974E+02  0.11933940068E+03  0.13470501733E+03  0.00000000000E+00 0. -1.
</event>
<event>
 4    1  0.6651744E+003  0.2594925E+02  0.7546771E-02  0.1458458E+00
          2   -1    0    0  501    0  0.00000000000E+00  0.00000000000E+00  0.15775348858E+01  0.15775348858E+01  0.00000000000E+00 0. -1.
          2   -1    0    0  502    0 -0.00000000000E+00 -0.00000000000E+00 -0.49047041483E+03  0.49047041483E+03  0.00000000000E+00 0. -1.
          2    1    1    2  501    0  0.26586813061E+01  0.25812692337E+02 -0.33305682413E+03  0.33406617873E+03  0.00000000000E+00 0. -1.
          2    1    1    2  502    0 -0.26586813061E+01 -0.25812692337E+02 -0.15583605582E+03  0.15798177099E+03  0.00000000000E+00 0. -1.
</event>
<event>
 4    1  0.6651744E+003  0.4816898E+02  0.7546771E-02  0.1306312E+00
          2   -1    0    0  502    0  0.00000000000E+00  0.00000000000E+00  0.11748924684E+01  0.11748924684E+01  0.00000000000E+00 0. -1.
          2   -1    0    0  501    0 -0.00000000000E+00 -0.00000000000E+00 -0.27019919938E+04  0.27019919938E+04  0.00000000000E+00 0. -1.
          2    1    1    2  501    0 -0.48162403961E+02  0.79605394803E+00 -0.64926527946E+03  0.65104965554E+03  0.00000000000E+00 0. -1.
          2    1    1    2  502    0  0.48162403961E+02 -0.79605394803E+00 -0.20515518219E+04  0.20521172308E+04  0.00000000000E+00 0. -1.
</event>
<event>
 4    1  0.6651744E+003  0.2141664E+02  0.7546771E-02  0.1513399E+00
          2   -1    0    0  501    0  0.00000000000E+00  0.00000000000E+00  0.74534397290E+02  0.74534397290E+02  0.00000000000E+00 0.  1.
          2   -1    0    0  502    0 -0.00000000000E+00 -0.00000000000E+00 -0.26021834436E+03  0.26021834436E+03  0.00000000000E+00 0.  1.
          2    1    1    2  501    0  0.20627027157E+02  0.57618074926E+01 -0.25822738190E+03  0.25911397770E+03  0.00000000000E+00 0.  1.
          2    1    1    2  502    0 -0.20627027157E+02 -0.57618074926E+01  0.72543434832E+02  0.75638763951E+02  0.00000000000E+00 0.  1.
</event>
<event>
 4    1  0.6651744E+003  0.2051032E+02  0.7546771E-02  0.1526372E+00
          2   -1    0    0  502    0  0.00000000000E+00  0.00000000000E+00  0.10203896157E+04  0.10203896157E+04  0.00000000000E+00 0.  1.
          2   -1    0    0  501    0 -0.00000000000E+00 -0.00000000000E+00 -0.67613157573E+02  0.67613157573E+02  0.00000000000E+00 0. -1.
          2    1    1    2  501    0  0.19647612150E+02  0.58859629063E+01  0.10187285716E+04  0.10189350204E+04  0.00000000000E+00 0.  1.
          2    1    1    2  502    0 -0.19647612150E+02 -0.58859629063E+01 -0.65952113442E+02  0.69067752895E+02  0.00000000000E+00 0. -1.
</event>
<event>
 4    1  0.6651744E+003  0.2366761E+02  0.7546771E-02  0.1484281E+00
          2   -1    0    0  502    0  0.00000000000E+00  0.00000000000E+00  0.16904780168E+04  0.16904780168E+04  0.00000000000E+00 0. -1.
          2   -1    0    0  501    0 -0.00000000000E+00 -0.00000000000E+00 -0.11068218166E+01  0.11068218166E+01  0.00000000000E+00 0. -1.
          2    1    1    2  501    0  0.14063390108E+02 -0.19036199864E+02  0.15526400201E+04  0.15528203978E+04  0.00000000000E+00 0. -1.
          2    1    1    2  502    0 -0.14063390108E+02  0.19036199864E+02  0.13673117486E+03  0.13876444078E+03  0.00000000000E+00 0. -1.
</event>
<event>
 4    1  0.6651744E+003  0.3937211E+02  0.7546771E-02  0.1352205E+00
          2   -1    0    0  501    0  0.00000000000E+00  0.00000000000E+00  0.28401168809E+02  0.28401168809E+02  0.00000000000E+00 0.  1.
          2   -1    0    0  502    0 -0.00000000000E+00 -0.00000000000E+00 -0.15404480893E+04  0.15404480893E+04  0.00000000000E+00 0.  1.
          2    1    1    2  501    0  0.39369000037E+02 -0.49492263545E+00 -0.15264259443E+04  0.15269336353E+04  0.00000000000E+00 0.  1.
          2    1    1    2  502    0 -0.39369000037E+02  0.49492263545E+00  0.14379023802E+02  0.41915622837E+02  0.00000000000E+00 0.  1.
</event>
<event>
 4    1  0.6651744E+003  0.3793439E+02  0.7546771E-02  0.1361035E+00
          2   -1    0    0  501    0  0.00000000000E+00  0.00000000000E+00  0.13925307324E+04  0.13925307324E+04  0.00000000000E+00 0.  1.
          2   -1    0    0  502    0 -0.00000000000E+00 -0.00000000000E+00 -0.23902986647E+01  0.23902986647E+01  0.00000000000E+00 0. -1.
          2    1    1    2  501    0  0.13613436026E+01  0.37909959144E+02  0.16957363827E+03  0.17376489016E+03  0.00000000000E+00 0. -1.
          2    1    1    2  502    0 -0.13613436026E+01 -0.37909959144E+02  0.12205667955E+04  0.12211561409E+04  0.00000000000E+00 0.  1.
</event>
<event>
 4    1  0.6651744E+003  0.3896993E+02  0.7546771E-02  0.1354630E+00
          2   -1    0    0  502    0  0.00000000000E+00  0.00000000000E+00  0.74275984811E+02  0.74275984811E+02  0.00000000000E+00 0.  1.
          2   -1    0    0  501    0 -0.00000000000E+00 -0.00000000000E+00 -0.25548245933E+03  0.25548245933E+03  0.00000000000E+00 0. -1.
          2    1    1    2  501    0  0.26090867275E+02 -0.28946881422E+02  0.67540827710E+02  0.77977039614E+02  0.00000000000E+00 0.  1.
          2    1    1    2  502    0 -0.26090867275E+02  0.28946881422E+02 -0.24874730223E+03  0.25178140453E+03  0.00000000000E+00 0. -1.
</event>
<event>
 4    1  0.6651744E+003  0.2536921E+02  0.7546771E-02  0.1464715E+00
          2   -1    0    0  502    0  0.00000000000E+00  0.00000000000E+00  0.69627290299E+03  0.69627290299E+03  0.00000000000E+00 0. -1.
          2   -1    0    0  501    0 -0.00000000000E+00 -0.00000000000E+00 -0.21628066436E+02  0.21628066436E+02  0.00000000000E+00 0. -1.
          2    1    1    2  501    0 -0.18226970684E+02  0.17645799048E+02  0.68851869246E+03  0.68898591172E+03  0.00000000000E+00 0. -1.
          2    1    1    2  502    0  0.18226970684E+02 -0.17645799048E+02 -0.13873855906E+02  0.28915057705E+02  0.00000000000E+00 0. -1.
</event>
<event>
 4    1  0.6651744E+003  0.2175610E+02  0.7546771E-02  0.1508738E+00
          2   -1    0    0  502    0  0.00000000000E+00  0.00000000000E+00  0.13092611907E+04  0.13092611907E+04  0.00000000000E+00 0.  1.
          2   -1    0    0  501    0 -0.00000000000E+00 -0.00000000000E+00 -0.16022733167E+01  0.16022733167E+01  0.00000000000E+00 0. -1.
          2    1    1    2  501    0 -0.16710336644E+02 -0.13931702249E+02  0.12305977922E+04  0.12307900933E+04  0.00000000000E+00 0.  1.
          2    1    1    2  502    0  0.16710336644E+02  0.13931702249E+02  0.77061125202E+02  0.80073370703E+02  0.00000000000E+00 0. -1.
</event>
<event>
 4    1  0.6651744E+003  0.3644681E+02  0.7546771E-02  0.1370667E+00
          2   -1    0    0  501    0  0.00000000000E+00  0.00000000000E+00  0.25041144426E+02  0.25041144426E+02  0.00000000000E+00 0. -1.
          2   -1    0    0  502    0 -0.00000000000E+00 -0.00000000000E+00 -0.38739843274E+03  0.38739843274E+03  0.00000000000E+00 0. -1.
          2    1    1    2  501    0  0.31403851472E+02  0.18497779830E+02 -0.37275975475E+03  0.37453732058E+03  0.00000000000E+00 0. -1.
          2    1    1    2  502    0 -0.31403851472E+02 -0.18497779830E+02  0.10402466440E+02  0.37902256581E+02  0.00000000000E+00 0. -1.
</event>
<event>
 4    1  0.6651744E+003  0.3743857E+02  0.7546771E-02  0.1364187E+00
          2   -1    0    0  501    0  0.00000000000E+00  0.00000000000E+00  0.17245708557E+01  0.17245708557E+01  0.00000000000E+00 0. -1.
          2   -1    0    0  502    0 -0.00000000000E+00 -0.00000000000E+00 -0.17060900688E+04  0.17060900688E+04  0.00000000000E+00 0. -1.
          2    1    1    2  501    0 -0.72473735354E+01  0.36730399568E+02 -0.14700823637E+04  0.14705590103E+04  0.00000000000E+00 0. -1.
          2    1    1    2  502    0  0.72473735354E+01 -0.36730399568E+02 -0.23428313423E+03  0.23725562936E+03  0.00000000000E+00 0. -1.
</event>
<event>
 4    1  0.6651744E+003  0.2637617E+02  0.7546771E-02  0.1453977E+00
          2   -1    0    0  501    0  0.00000000000E+00  0.00000000000E+00  0.44589792250E+03  0.44589792250E+03  0.00000000000E+00 0.  1.
          2   -1    0    0  502    0 -0.00000000000E+00 -0.00000000000E+00 -0.30017915146E+02  0.30017915146E+02  0.00000000000E+00 0. -1.
          2    1    1    2  501    0 -0.23414096247E+02 -0.12144228950E+02 -0.23751283997E+02  0.35494023319E+02  0.00000000000E+00 0. -1.
          2    1    1    2  502    0  0.23414096247E+02  0.12144228950E+02  0.43963129135E+03  0.44042181433E+03  0.00000000000E+00 0.  1.
</event>
<event>
 4    1  0.6651744E+003  0.3601944E+02  0.7546771E-02  0.1373534E+00
          2   -1    0    0  502    0  0.00000000000E+00  0.00000000000E+00  0.80847993811E+03  0.80847993811E+03  0.00000000000E+00 0.  1.
          2   -1    0    0  501    0 -0.00000000000E+00 -0.00000000000E+00 -0.19744750175E+02  0.19744750175E+02  0.00000000000E+00 0.  1.
          2    1    1    2  501    0  0.22122339518E+02  0.28425381639E+02  0.79129502753E+03  0.79211439882E+03  0.00000000000E+00 0.  1.
          2    1    1    2  502    0 -0.22122339518E+02 -0.28425381639E+02 -0.25598395860E+01  0.36110289473E+02  0.00000000000E+00 0.  1.
</event>
<event>
 4    1  0.6651744E+003  0.2107026E+02  0.7546771E-02  0.1518264E+00
          2   -1    0    0  501    0  0.00000000000E+00  0.00000000000E+00  0.17864616837E+01  0.17864616837E+01  0.00000000000E+00 0.  1.
          2   -1    0    0  502    0 -0.00000000000E+00 -0.00000000000E+00 -0.11805797827E+04  0.11805797827E+04  0.00000000000E+00 0. -1.
          2    1    1    2  501    0 -0.20706604785E+02 -0.38977628118E+01 -0.11146855941E+04  0.11148847159E+04  0.00000000000E+00 0. -1.
          2    1    1    2  502    0  0.20706604785E+02  0.38977628118E+01 -0.64107726848E+02  0.67481528423E+02  0.00000000000E+00 0.  1.
</event>
<event>
 4    1  0.6651744E+003  0.2265842E+02  0.7546771E-02  0.1496832E+00
          2   -1    0    0  501    0  0.00000000000E+00  0.00000000000E+00  0.13289229768E+03  0.13289229768E+03  0.00000000000E+00 0.  1.
          2   -1    0    0  502    0 -0.00000000000E+00 -0.00000000000E+00 -0.91885336549E+01  0.91885336549E+01  0.00000000000E+00 0.  1.
          2    1    1    2  501    0 -0.11084369754E+02 -0.19762109403E+02  0.77700629394E+01  0.23953665669E+02  0.00000000000E+00 0.  1.
          2    1    1    2  502    0  0.11084369754E+02  0.19762109403E+02  0.11593370108E+03  0.11812716566E+03  0.00000000000E+00 0.  1.
</event>
<event>
 4    1  0.6651744E+003  0.2286952E+02  0.7546771E-02  0.1494143E+00
          2   -1    0    0  502    0  0.00000000000E+00  0.00000000000E+00  0.61583521086E+02  0.61583521086E+02  0.00000000000E+00 0.  1.
          2   -1    0    0  501    0 -0.00000000000E+00 -0.00000000000E+00 -0.49828549146E+02  0.49828549146E+02  0.00000000000E+00 0. -1.
          2    1    1    2  501    0 -0.22256526644E+02  0.52594765558E+01  0.56614646461E+02  0.61059260279E+02  0.00000000000E+00 0.  1.
          2    1    1    2  502    0  0.22256526644E+02 -0.52594765558E+01 -0.44859674522E+02  0.50352809952E+02  0.00000000000E+00 0. -1.
</event>
<event>
 4    1  0.6651744E+003  0.2325304E+02  0.7546771E-02  0.1489345E+00
          2   -1    0    0  502    0  0.00000000000E+00  0.00000000000E+00  0.19361775358E+02  0.19361775358E+02  0.00000000000E+00 0. -1.
          2   -1    0    0  501    0 -0.00000000000E+00 -0.00000000000E+00 -0.66212107858E+02  0.66212107858E+02  0.00000000000E+00 0. -1.
          2    1    1    2  501    0 -0.22354044895E+02 -0.64031847314E+01  0.91106007717E+01  0.24974129500E+02  0.00000000000E+00 0. -1.
          2    1    1    2  502    0  0.22354044895E+02  0.64031847314E+01 -0.55960933271E+02  0.60599753716E+02  0.00000000000E+00 0. -1.
</event>
<event>
 4    1  0.6651744E+003  0.3454244E+02  0.7546771E-02  0.1383809E+00
          2   -1    0    0  501    0  0.00000000000E+00  0.00000000000E+00  0.52810101406E+01  0.52810101406E+01  0.00000000000E+00 0. -1.
          2   -1    0    0  502    0 -0.00000000000E+00 -0.00000000000E+00 -0.14640963737E+04  0.14640963737E+04  0.00000000000E+00 0.  1.
          2    1    1    2  501    0  0.34339815766E+02  0.37359550860E+01 -0.14050341283E+04  0.14054586732E+04  0.00000000000E+00 0.  1.
          2    1    1    2  502    0 -0.34339815766E+02 -0.37359550860E+01 -0.53781235246E+02  0.63918710655E+02  0.00000000000E+00 0. -1.
</event>
<event>
 4    1  0.6651744E+003  0.3485639E+02  0.7546771E-02  0.1381576E+00
          2   -1    0    0  501    0  0.00000000000E+00  0.00000000000E+00  0.34216790872E+02  0.34216790872E+02  0.00000000000E+00 0.  1.
          2   -1    0    0  502    0 -0.00000000000E+00 -0.00000000000E+00 -0.55136651307E+02  0.55136651307E+02  0.00000000000E+00 0.  1.
          2    1    1    2  501    0 -0.24975012676E+02  0.24314951110E+02 -0.37116660644E+02  0.50917723860E+02  0.00000000000E+00 0.  1.
          2    1    1    2  502    0  0.24975012676E+02 -0.24314951110E+02  0.16196800209E+02  0.38435718319E+02  0.00000000000E+00 0.  1.
</event>
<event>
 4    1  0.6651744E+003  0.2561621E+02  0.7546771E-02  0.1462027E+00
          2   -1    0    0  501    0  0.00000000000E+00  0.00000000000E+00  0.40670961572E+02  0.40670961572E+02  0.00000000000E+00 0. -1.
          2   -1    0    0  502    0 -0.00000000000E+00 -0.00000000000E+00 -0.10135550245E+04  0.10135550245E+04  0.00000000000E+00 0. -1.
          2    1    1    2  501    0  0.99648756305E+01 -0.23598545878E+02 -0.10093428111E+04  0.10096678169E+04  0.00000000000E+00 0. -1.
          2    1    1    2  502    0 -0.99648756305E+01  0.23598545878E+02  0.36458748234E+02  0.44558169135E+02  0.00000000000E+00 0. -1.
</event>
<event>
 4    1  0.6651744E+003  0.2270793E+02  0.7546771E-02  0.1496199E+00
          2   -1    0    0  502    0  0.00000000000E+00  0.00000000000E+00  0.28464595805E+01  0.28464595805E+01  0.00000000000E+00 0.  1.
          2   -1    0    0  501    0 -0.00000000000E+00 -0.00000000000E+00 -0.30952112573E+03  0.30952112573E+03  0.00000000000E+00 0.  1.
          2    1    1    2  501    0 -0.17855982041E+02  0.14029039122E+02 -0.52756265105E+02  0.57435821063E+02  0.00000000000E+00 0.  1.
          2    1    1    2  502    0  0.17855982041E+02 -0.14029039122E+02 -0.25391840104E+03  0.25493176424E+03  0.00000000000E+00 0.  1.
</event>
<event>
 4    1  0.6651744E+003  0.2200017E+02  0.7546771E-02  0.1505450E+00
          2   -1    0    0  502    0  0.00000000000E+00  0.00000000000E+00  0.14605972159E+04  0.14605972159E+04  0.00000000000E+00 0.  1.
          2   -1    0    0  501    0 -0.00000000000E+00 -0.00000000000E+00 -0.55417626697E+02  0.55417626697E+02  0.00000000000E+00 0.  1.
          2    1    1    2  501    0 -0.18099749187E+02 -0.12506260042E+02  0.14583275193E+04  0.14584934559E+04  0.00000000000E+00 0.  1.
          2    1    1    2  502    0  0.18099749187E+02  0.12506260042E+02 -0.53147930047E+02  0.57521386711E+02  0.00000000000E+00 0.  1.
</event>
<event>
 4    1  0.6651744E+003  0.2732501E+02  0.7546771E-02  0.1444370E+00
          2   -1    0    0  502    0  0.00000000000E+00  0.00000000000E+00  0.15675042479E+04  0.15675042479E+04  0.00000000000E+00 0.  1.
          2   -1    0    0  501    0 -0.00000000000E+00 -0.00000000000E+00 -0.99485273702E+00  0.99485273702E+00  0.00000000000E+00 0. -1.
          2    1    1    2  501    0  0.53005019287E+01  0.26805984262E+02  0.13494378740E+04  0.13497145002E+04  0.00000000000E+00 0.  1.
          2    1    1    2  502    0 -0.53005019287E+01 -0.26805984262E+02  0.21707152116E+03  0.21878460049E+03  0.00000000000E+00 0. -1.
</event>
<event>
 4    1  0.6651744E+003  0.2640168E+02  0.7546771E-02  0.1453713E+00
          2   -1    0    0  502    0  0.00000000000E+00  0.00000000000E+00  0.17869333574E+04  0.17869333574E+04  0.00000000000E+00 0.  1.
          2   -1    0    0  501    0 -0.00000000000E+00 -0.00000000000E+00 -0.14978271377E+01  0.14978271377E+01  0.00000000000E+00 0. -1.
          2    1    1    2  501    0  0.14899127343E+02 -0.21795978640E+02  0.16617269392E+04  0.16619366622E+04  0.00000000000E+00 0.  1.
          2    1    1    2  502    0 -0.14899127343E+02  0.21795978640E+02  0.12370859107E+03  0.12649452235E+03  0.00000000000E+00 0. -1.
</event>
<event>
 4    1  0.6651744E+003  0.3660828E+02  0.7546771E-02  0.1369596E+00
          2   -1    0    0  501    0  0.00000000000E+00  0.00000000000E+00  0.26424987196E+01  0.26424987196E+01  0.00000000000E+00 0. -1.
          2   -1    0    0  502    0 -0.00000000000E+00 -0.00000000000E+00 -0.74374029512E+03  0.74374029512E+03  0.00000000000E+00 0.  1.
          2    1    1    2  501    0  0.36211582322E+02 -0.53746822110E+01 -0.58102924657E+03  0.58218137318E+03  0.00000000000E+00 0.  1.
          2    1    1    2  502    0 -0.36211582322E+02  0.53746822110E+01 -0.16006854982E+03  0.16420142066E+03  0.00000000000E+00 0. -1.
</event>
<event>
 4    1  0.6651744E+003  0.2079849E+02  0.7546771E-02  0.1522161E+00
          2   -1    0    0  501    0  0.00000000000E+00  0.00000000000E+00  0.13934338846E+04  0.13934338846E+04  0.00000000000E+00 0. -1.
          2   -1    0    0  502    0 -0.00000000000E+00 -0.00000000000E+00 -0.29266142161E+01  0.29266142161E+01  0.00000000000E+00 0.  1.
          2    1    1    2  501    0 -0.19639286033E+01 -0.20705556780E+02  0.35140793467E+02  0.40834451908E+02  0.00000000000E+00 0.  1.
          2    1    1    2  502    0  0.19639286033E+01  0.20705556780E+02  0.13553664769E+04  0.13555260469E+04  0.00000000000E+00 0. -1.
</event>
<event>
 4    1  0.7518804E+003  0.2744537E+02  0.7546771E-02  0.1443185E+00
          2   -1    0    0  501    0  0.00000000000E+00  0.00000000000E+00  0.57809301584E+03  0.57809301584E+03  0.00000000000E+00 0.  1.
          2   -1    0    0  502    0 -0.00000000000E+00 -0.00000000000E+00 -0.52851068431E+03  0.52851068431E+03  0.00000000000E+00 0. -1.
          2    1    1    2  501    0 -0.77477341311E+00 -0.27434427871E+02 -0.52782820953E+03  0.52854126318E+03  0.00000000000E+00 0. -1.
          2    1    1    2  502    0  0.77477341311E+00  0.27434427871E+02  0.57741054106E+03  0.57806243697E+03  0.00000000000E+00 0.  1.
</event>
<event>
 4    1  0.6651744E+003  0.5029772E+02  0.7546771E-02  0.1296887E+00
          2   -1    0    0  501    0  0.00000000000E+00  0.00000000000E+00  0.87896943936E+02  0.87896943936E+02  0.00000000000E+00 0. -1.
          2   -1    0    0  502    0 -0.00000000000E+00 -0.00000000000E+00 -0.20172766678E+04  0.20172766678E+04  0.00000000000E+00 0.  1.
          2    1    1    2  501    0 -0.47819956749E+02  0.15592068832E+02 -0.20097406349E+04  0.20103699362E+04  0.00000000000E+00 0.  1.
          2    1    1    2  502    0  0.47819956749E+02 -0.15592068832E+02  0.80360911023E+02  0.94803675532E+02  0.00000000000E+00 0. -1.
</event>
<event>
 4    1  0.6651744E+003  0.2582571E+02  0.7546771E-02  0.1459775E+00
          2   -1    0    0  501    0  0.00000000000E+00  0.00000000000E+00  0.17024413517E+02  0.17024413517E+02  0.00000000000E+00 0.  1.
          2   -1    0    0  502    0 -0.00000000000E+00 -0.00000000000E+00 -0.28413811045E+03  0.28413811045E+03  0.00000000000E+00 0. -1.
          2    1    1    2  501    0 -0.18051628299E+02  0.18469050907E+02 -0.27337213988E+03  0.27458931878E+03  0.00000000000E+00 0. -1.
          2    1    1    2  502    0  0.18051628299E+02 -0.18469050907E+02  0.62584429496E+01  0.26573205185E+02  0.00000000000E+00 0.  1.
</event>
<event>
 4    1  0.6651744E+003  0.2217256E+02  0.7546771E-02  0.1503158E+00
          2   -1    0    0  501    0  0.00000000000E+00  0.00000000000E+00  0.56117398238E+03  0.56117398238E+03  0.00000000000E+00 0. -1.
          2   -1    0    0  502    0 -0.00000000000E+00 -0.00000000000E+00 -0.18940659243E+01  0.18940659243E+01  0.00000000000E+00 0.  1.
          2    1    1    2  501    0 -0.22007780877E+02  0.26981749451E+01  0.73240615600E+02  0.76523266662E+02  0.00000000000E+00 0.  1.
          2    1    1    2  502    0  0.22007780877E+02 -0.26981749451E+01  0.48603930085E+03  0.48654478164E+03  0.00000000000E+00 0. -1.
</event>
<event>
 4    1  0.6651744E+003  0.2010029E+02  0.7546771E-02  0.1532508E+00
          2   -1    0    0  502    0  0.00000000000E+00  0.00000000000E+00  0.77581329256E+00  0.77581329256E+00  0.00000000000E+00 0. -1.
          2   -1    0    0  501    0 -0.00000000000E+00 -0.00000000000E+00 -0.10077870286E+04  0.10077870286E+04  0.00000000000E+00 0.  1.
          2    1    1    2  501    0 -0.11869900136E+02 -0.16221198553E+02 -0.15294768745E+03  0.15426281765E+03  0.00000000000E+00 0. -1.
          2    1    1    2  502    0  0.11869900136E+02  0.16221198553E+02 -0.85406352784E+03  0.85430002423E+03  0.00000000000E+00 0.  1.
</event>
<event>
 4    1  0.6651744E+003  0.2362580E+02  0.7546771E-02  0.1484786E+00
          2   -1    0    0  502    0  0.00000000000E+00  0.00000000000E+00  0.23062770437E+01  0.23062770437E+01  0.00000000000E+00 0. -1.
          2   -1    0    0  501    0 -0.00000000000E+00 -0.00000000000E+00 -0.29977016100E+03  0.29977016100E+03  0.00000000000E+00 0. -1.
          2    1    1    2  501    0  0.23314530884E+02  0.38224681565E+01 -0.82442046128E+02  0.85760536279E+02  0.00000000000E+00 0. -1.
          2    1    1    2  502    0 -0.23314530884E+02 -0.38224681565E+01 -0.21502183783E+03  0.21631590177E+03  0.00000000000E+00 0. -1.
</event>
<event>
 4    1  0.6651744E+003  0.2551372E+02  0.7546771E-02  0.1463138E+00
          2   -1    0    0  502    0  0.00000000000E+00  0.00000000000E+00  0.49551161139E+02  0.49551161139E+02  0.00000000000E+00 0. -1.
          2   -1    0    0  501    0 -0.00000000000E+00 -0.00000000000E+00 -0.13449147192E+02  0.13449147192E+02  0.00000000000E+00 0.  1.
          2    1    1    2  501    0 -0.22424730105E+02  0.12168860534E+02  0.22850551286E+02  0.34250509209E+02  0.00000000000E+00 0. -1.
          2    1    1    2  502    0  0.22424730105E+02 -0.12168860534E+02  0.13251462660E+02  0.28749799123E+02  0.00000000000E+00 0.  1.
</event>
<event>
 4    1  0.6651744E+003  0.3222176E+02  0.7546771E-02  0.1401223E+00
          2   -1    0    0  501    0  0.00000000000E+00  0.00000000000E+00  0.23870474346E+02  0.23870474346E+02  0.00000000000E+00 0. -1.
          2   -1    0    0  502    0 -0.00000000000E+00 -0.00000000000E+00 -0.46619303436E+02  0.46619303436E+02  0.00000000000E+00 0. -1.
          2    1    1    2  501    0 -0.12243449609E+02  0.29805025191E+02 -0.20498798111E+02  0.38189557591E+02  0.00000000000E+00 0. -1.
          2    1    1    2  502    0  0.12243449609E+02 -0.29805025191E+02 -0.22500309790E+01  0.32300220191E+02  0.00000000000E+00 0. -1.
</event>
<event>
 4    1  0.6651744E+003  0.5616241E+02  0.7546771E-02  0.1273460E+00
          2   -1    0    0  501    0  0.00000000000E+00  0.00000000000E+00  0.12073461011E+03  0.12073461011E+03  0.00000000000E+00 0.  1.
          2   -1    0    0  502    0 -0.00000000000E+00 -0.00000000000E+00 -0.45688612645E+03  0.45688612645E+03  0.00000000000E+00 0.  1.
          2    1    1    2  501    0  0.44638045630E+02  0.34083149562E+02 -0.44850735479E+03  0.45201002588E+03  0.00000000000E+00 0.  1.
          2    1    1    2  502    0 -0.44638045630E+02 -0.34083149562E+02  0.11235583845E+03  0.12561071067E+03  0.00000000000E+00 0.  1.
</event>
<event>
 4    1  0.6651744E+003  0.2042909E+02  0.7546771E-02  0.1527574E+00
          2   -1    0    0  501    0  0.00000000000E+00  0.00000000000E+00  0.55818031233E+03  0.55818031233E+03  0.00000000000E+00 0. -1.
          2   -1    0    0  502    0 -0.00000000000E+00 -0.00000000000E+00 -0.15938491681E+03  0.15938491681E+03  0.00000000000E+00 0. -1.
          2    1    1    2  501    0  0.20338931505E+01 -0.20327592500E+02 -0.15854238180E+03  0.15985316564E+03  0.00000000000E+00 0. -1.
          2    1    1    2  502    0 -0.20338931505E+01  0.20327592500E+02  0.55733777732E+03  0.55771206350E+03  0.00000000000E+00 0. -1.
</event>
<event>
 4    1  0.1074286E+004  0.3882623E+02  0.7546771E-02  0.1355505E+00
          2   -1    0    0  501    0  0.00000000000E+00  0.00000000000E+00  0.10681700946E+04  0.10681700946E+04  0.00000000000E+00 0. -1.
          2   -1    0    0  502    0 -0.00000000000E+00 -0.00000000000E+00 -0.18202335992E+04  0.18202335992E+04  0.00000000000E+00 0.  1.
          2    1    1    2  501    0 -0.42027119633E+01 -0.38598098547E+02 -0.18196736289E+04  0.18200877978E+04  0.00000000000E+00 0.  1.
          2    1    1    2  502    0  0.42027119633E+01  0.38598098547E+02  0.10676101243E+04  0.10683158959E+04  0.00000000000E+00 0. -1.
</event>
<event>
 4    1  0.6651744E+003  0.8967324E+02  0.7546771E-02  0.1183015E+00
          2   -1    0    0  502    0  0.00000000000E+00  0.00000000000E+00  0.24942225354E+02  0.24942225354E+02  0.00000000000E+00 0. -1.
          2   -1    0    0  501    0 -0.00000000000E+00 -0.00000000000E+00 -0.37617009059E+03  0.37617009059E+03  0.00000000000E+00 0.  1.
          2    1    1    2  501    0 -0.87329247480E+02  0.20368909030E+02 -0.25144161446E+03  0.26695350794E+03  0.00000000000E+00 0.  1.
          2    1    1    2  502    0  0.87329247480E+02 -0.20368909030E+02 -0.99786250780E+02  0.13415880800E+03  0.00000000000E+00 0. -1.
</event>
<event>
 4    1  0.6651744E+003  0.2006727E+02  0.7546771E-02  0.1533010E+00
          2   -1    0    0  502    0  0.00000000000E+00  0.00000000000E+00  0.21354823319E+03  0.21354823319E+03  0.00000000000E+00 0. -1.
          2   -1    0    0  501    0 -0.00000000000E+00 -0.00000000000E+00 -0.13094504817E+03  0.13094504817E+03  0.00000000000E+00 0.  1.
          2    1    1    2  501    0  0.13584940600E+02  0.14769726090E+02  0.21230347649E+03  0.21324976331E+03  0.00000000000E+00 0. -1.
          2    1    1    2  502    0 -0.13584940600E+02 -0.14769726090E+02 -0.12970029148E+03  0.13124351805E+03  0.00000000000E+00 0.  1.
</event>
<event>
 4    1  0.6651744E+003  0.2733582E+02  0.7546771E-02  0.1444264E+00
          2   -1    0    0  501    0  0.00000000000E+00  0.00000000000E+00  0.38491081443E+03  0.38491081443E+03  0.00000000000E+00 0.  1.
          2   -1    0    0  502    0 -0.00000000000E+00 -0.00000000000E+00 -0.59210807503E+01  0.59210807503E+01  0.00000000000E+00 0. -1.
          2    1    1    2  501    0 -0.26678724397E+02  0.59575798731E+01  0.29286096244E+02  0.40061484329E+02  0.00000000000E+00 0. -1.
          2    1    1    2  502    0  0.26678724397E+02 -0.59575798731E+01  0.34970363744E+03  0.35077041085E+03  0.00000000000E+00 0.  1.
</event>
<event>
 4    1  0.6651744E+003  0.2042212E+02  0.7546771E-02  0.1527678E+00
          2   -1    0    0  501    0  0.00000000000E+00  0.00000000000E+00  0.37425986242E+03  0.37425986242E+03  0.00000000000E+00 0.  1.
          2   -1    0    0  502    0 -0.00000000000E+00 -0.00000000000E+00 -0.44545715772E+03  0.44545715772E+03  0.00000000000E+00 0. -1.
          2    1    1    2  501    0  0.11349823137E+02 -0.16977766670E+02 -0.44494418019E+03  0.44541260257E+03  0.00000000000E+00 0. -1.
          2    1    1    2  502    0 -0.11349823137E+02  0.16977766670E+02  0.37374688489E+03  0.37430441757E+03  0.00000000000E+00 0.  1.
</event>
<event>
 4    1  0.6651744E+003  0.2837101E+02  0.7546771E-02  0.1434302E+00
          2   -1    0    0  502    0  0.00000000000E+00  0.00000000000E+00  0.25938896403E+04  0.25938896403E+04  0.00000000000E+00 0. -1.
          2   -1    0    0  501    0 -0.00000000000E+00 -0.00000000000E+00 -0.36968180032E+00  0.36968180032E+00  0.00000000000E+00 0.  1.
          2    1    1    2  501    0 -0.19940392641E+02 -0.20181553892E+02  0.18165801703E+04  0.18168017034E+04  0.00000000000E+00 0. -1.
          2    1    1    2  502    0  0.19940392641E+02  0.20181553892E+02  0.77693978819E+03  0.77745761868E+03  0.00000000000E+00 0.  1.
</event>
<event>
 4    1  0.6651744E+003  0.3358930E+02  0.7546771E-02  0.1390762E+00
          2   -1    0    0  501    0  0.00000000000E+00  0.00000000000E+00  0.81319646955E+02  0.81319646955E+02  0.00000000000E+00 0.  1.
          2   -1    0    0  502    0 -0.00000000000E+00 -0.00000000000E+00 -0.86370889639E+02  0.86370889639E+02  0.00000000000E+00 0.  1.
          2    1    1    2  501    0  0.41148102574E+01  0.33336307495E+02 -0.79342047353E+02  0.86159163987E+02  0.00000000000E+00 0.  1.
          2    1    1    2  502    0 -0.41148102574E+01 -0.33336307495E+02  0.74290804669E+02  0.81531372607E+02  0.00000000000E+00 0.  1.
</event>
<event>
 4    1  0.6651744E+003  0.3931504E+02  0.7546771E-02  0.1352547E+00
          2   -1    0    0  502    0  0.00000000000E+00  0.00000000000E+00  0.56933523699E+02  0.56933523699E+02  0.00000000000E+00 0.  1.
          2   -1    0    0  501    0 -0.00000000000E+00 -0.00000000000E+00 -0.35424944804E+03  0.35424944804E+03  0.00000000000E+00 0.  1.
          2    1    1    2  501    0  0.28686549673E+02 -0.26884081739E+02  0.48898524089E+02  0.62743427075E+02  0.00000000000E+00 0.  1.
          2    1    1    2  502    0 -0.28686549673E+02  0.26884081739E+02 -0.34621444843E+03  0.34843954466E+03  0.00000000000E+00 0.  1.
</event>
<event>
 4    1  0.6651744E+003  0.2500728E+02  0.7546771E-02  0.1468722E+00
          2   -1    0    0  502    0  0.00000000000E+00  0.00000000000E+00  0.54968037323E+03  0.54968037323E+03  0.00000000000E+00 0. -1.
          2   -1    0    0  501    0 -0.00000000000E+00 -0.00000000000E+00 -0.71702743734E+02  0.71702743734E+02  0.00000000000E+00 0.  1.
          2    1    1    2  501    0  0.23852049733E+02 -0.75129229114E+01  0.54720569022E+03  0.54777680828E+03  0.00000000000E+00 0. -1.
          2    1    1    2  502    0 -0.23852049733E+02  0.75129229114E+01 -0.69228060719E+02  0.73606308684E+02  0.00000000000E+00 0.  1.
</event>
<event>
 4    1  0.6651744E+003  0.2351770E+02  0.7546771E-02  0.1486098E+00
          2   -1    0    0  501    0  0.00000000000E+00  0.00000000000E+00  0.22101468778E+02  0.22101468778E+02  0.00000000000E+00 0.  1.
          2   -1    0    0  502    0 -0.00000000000E+00 -0.00000000000E+00 -0.70403398122E+03  0.70403398122E+03  0.00000000000E+00 0.  1.
          2    1    1    2  501    0 -0.14352407616E+02  0.18630370391E+02 -0.69752303131E+03  0.69791938039E+03  0.00000000000E+00 0.  1.
          2    1    1    2  502    0  0.14352407616E+02 -0.18630370391E+02  0.15590518876E+02  0.28216069608E+02  0.00000000000E+00 0.  1.
</event>
<event>
 4    1  0.6651744E+003  0.3407404E+02  0.7546771E-02  0.1387192E+00
          2   -1    0    0  502    0  0.00000000000E+00  0.00000000000E+00  0.13632346789E+04  0.13632346789E+04  0.00000000000E+00 0. -1.
          2   -1    0    0  501    0 -0.00000000000E+00 -0.00000000000E+00 -0.10994381981E+02  0.10994381981E+02  0.00000000000E+00 0. -1.
          2    1    1    2  501    0  0.61918855679E+01 -0.33506725870E+02  0.13360846069E+04  0.13365190297E+04  0.00000000000E+00 0. -1.
          2    1    1    2  502    0 -0.61918855679E+01  0.33506725870E+02  0.16155689986E+02  0.37710031084E+02  0.00000000000E+00 0. -1.
</event>
<event>
 4    1  0.6651744E+003  0.2676766E+02  0.7546771E-02  0.1449956E+00
          2   -1    0    0  501    0  0.00000000000E+00  0.00000000000E+00  0.54945998360E+03  0.54945998360E+03  0.00000000000E+00 0.  1.
          2   -1    0    0  502    0 -0.00000000000E+00 -0.00000000000E+00 -0.11110430915E+03  0.11110430915E+03  0.00000000000E+00 0. -1.
          2    1    1    2  501    0  0.11172357146E+02 -0.24324596091E+02 -0.10916034228E+03  0.11239434089E+03  0.00000000000E+00 0. -1.
          2    1    1    2  502    0 -0.11172357146E+02  0.24324596091E+02  0.54751601673E+03  0.54816995185E+03  0.00000000000E+00 0.  1.
</event>
<event>
 4    1  0.6651744E+003  0.2146998E+02  0.7546771E-02  0.1512659E+00
          2   -1    0    0  501    0  0.00000000000E+00  0.00000000000E+00  0.10542206561E+03  0.10542206561E+03  0.00000000000E+00 0. -1.
          2   -1    0    0  502    0 -0.00000000000E+00 -0.00000000000E+00 -0.17921652788E+03  0.17921652788E+03  0.00000000000E+00 0.  1.
          2    1    1    2  501    0  0.15779539381E+02 -0.14559053425E+02 -0.17746965660E+03  0.17876363979E+03  0.00000000000E+00 0.  1.
          2    1    1    2  502    0 -0.15779539381E+02  0.14559053425E+02  0.10367519433E+03  0.10587495369E+03  0.00000000000E+00 0. -1.
</event>
<event>
 4    1  0.6651744E+003  0.2065011E+02  0.7546771E-02  0.1524319E+00
          2   -1    0    0  502    0  0.00000000000E+00  0.00000000000E+00  0.17545433897E+04  0.17545433897E+04  0.00000000000E+00 0.  1.
          2   -1    0    0  501    0 -0.00000000000E+00 -0.00000000000E+00 -0.38606018686E+00  0.38606018686E+00  0.00000000000E+00 0.  1.
          2    1    1    2  501    0  0.35967103266E+01  0.20334471610E+02  0.14111489006E+04  0.14112999847E+04  0.00000000000E+00 0.  1.
          2    1    1    2  502    0 -0.35967103266E+01 -0.20334471610E+02  0.34300842894E+03  0.34362946525E+03  0.00000000000E+00 0.  1.
</event>
<event>
 4    1  0.6651744E+003  0.2149014E+02  0.7546771E-02  0.1512381E+00
          2   -1    0    0  502    0  0.00000000000E+00  0.00000000000E+00  0.22055804136E+02  0.22055804136E+02  0.00000000000E+00 0.  1.
          2   -1    0    0  501    0 -0.00000000000E+00 -0.00000000000E+00 -0.12368023365E+03  0.12368023365E+03  0.00000000000E+00 0.  1.
          2    1    1    2  501    0 -0.19980866445E+02 -0.79114481045E+01  0.15601725129E+02  0.26556352574E+02  0.00000000000E+00 0.  1.
          2    1    1    2  502    0  0.19980866445E+02  0.79114481045E+01 -0.11722615464E+03  0.11917968521E+03  0.00000000000E+00 0.  1.
</event>
<event>
 4    1  0.6651744E+003  0.2733284E+02  0.7546771E-02  0.1444293E+00
          2   -1    0    0  502    0  0.00000000000E+00  0.00000000000E+00  0.13859391526E+02  0.13859391526E+02  0.00000000000E+00 0.  1.
          2   -1    0    0  501    0 -0.00000000000E+00 -0.00000000000E+00 -0.99806862301E+03  0.99806862301E+03  0.00000000000E+00 0.  1.
          2    1    1    2  501    0  0.15293122407E+02  0.22654019558E+02  0.64817196759E-02  0.27332841731E+02  0.00000000000E+00 0.  1.
          2    1    1    2  502    0 -0.15293122407E+02 -0.22654019558E+02 -0.98421571321E+03  0.98459517281E+03  0.00000000000E+00 0.  1.
</event>
<event>
 4    1  0.6651744E+003  0.2172846E+02  0.7546771E-02  0.1509113E+00
          2   -1    0    0  501    0  0.00000000000E+00  0.00000000000E+00  0.86653709158E+01  0.86653709158E+01  0.00000000000E+00 0.  1.
          2   -1    0    0  502    0 -0.00000000000E+00 -0.00000000000E+00 -0.56798398571E+03  0.56798398571E+03  0.00000000000E+00 0.  1.
          2    1    1    2  501    0 -0.16469875547E+02 -0.14172837458E+02 -0.55380655399E+03  0.55423264553E+03  0.00000000000E+00 0.  1.
          2    1    1    2  502    0  0.16469875547E+02  0.14172837458E+02 -0.55120607988E+01  0.22416711097E+02  0.00000000000E+00 0.  1.
</event>
<event>
 4    1  0.6651744E+003  0.2252758E+02  0.7546771E-02  0.1498517E+00
          2   -1    0    0  502    0  0.00000000000E+00  0.00000000000E+00  0.64608312437E+01  0.64608312437E+01  0.00000000000E+00 0.  1.
          2   -1    0    0  501    0 -0.00000000000E+00 -0.00000000000E+00 -0.21193770532E+03  0.21193770532E+03  0.00000000000E+00 0.  1.
          2    1    1    2  501    0 -0.16208945668E+02  0.15644872730E+02 -0.16107081395E+02  0.27693501647E+02  0.00000000000E+00 0.  1.
          2    1    1    2  502    0  0.16208945668E+02 -0.15644872730E+02 -0.18936979268E+03  0.19070503492E+03  0.00000000000E+00 0.  1.
</event>
<event>
 4    1  0.6651744E+003  0.3162540E+02  0.7546771E-02  0.1405979E+00
          2   -1    0    0  502    0  0.00000000000E+00  0.00000000000E+00  0.10212216459E+02  0.10212216459E+02  0.00000000000E+00 0. -1.
          2   -1    0    0  501    0 -0.00000000000E+00 -0.00000000000E+00 -0.21198666186E+03  0.21198666186E+03  0.00000000000E+00 0. -1.
          2    1    1    2  501    0  0.30899573672E+02 -0.67366375127E+01 -0.19397592952E+02  0.37100303913E+02  0.00000000000E+00 0. -1.
          2    1    1    2  502    0 -0.30899573672E+02  0.67366375127E+01 -0.18237685245E+03  0.18509857441E+03  0.00000000000E+00 0. -1.
</event>
<event>
 4    1  0.6651744E+003  0.3843211E+02  0.7546771E-02  0.1357927E+00
          2   -1    0    0  501    0  0.00000000000E+00  0.00000000000E+00  0.40396942226E+03  0.40396942226E+03  0.00000000000E+00 0. -1.
          2   -1    0    0  502    0 -0.00000000000E+00 -0.00000000000E+00 -0.52368024453E+01  0.52368024453E+01  0.00000000000E+00 0.  1.
          2    1    1    2  501    0  0.36905156362E+02  0.10725497357E+02  0.86963038724E+02  0.95076795086E+02  0.00000000000E+00 0.  1.
          2    1    1    2  502    0 -0.36905156362E+02 -0.10725497357E+02  0.31176958109E+03  0.31412942962E+03  0.00000000000E+00 0. -1.
</event>
<event>
 4    1  0.6651744E+003  0.2167369E+02  0.7546771E-02  0.1509860E+00
          2   -1    0    0  502    0  0.00000000000E+00  0.00000000000E+00  0.44507966048E+02  0.44507966048E+02  0.00000000000E+00 0.  1.
          2   -1    0    0  501    0 -0.00000000000E+00 -0.00000000000E+00 -0.25244098422E+02  0.25244098422E+02  0.00000000000E+00 0. -1.
          2    1    1    2  501    0 -0.19823154358E+02 -0.87630662413E+01  0.36236464568E+02  0.42223573309E+02  0.00000000000E+00 0.  1.
          2    1    1    2  502    0  0.19823154358E+02  0.87630662413E+01 -0.16972596941E+02  0.27528491160E+02  0.00000000000E+00 0. -1.
</event>
<event>
 4    1  0.6651744E+003  0.5210582E+02  0.7546771E-02  0.1289292E+00
          2   -1    0    0  501    0  0.00000000000E+00  0.00000000000E+00  0.18135452105E+04  0.18135452105E+04  0.00000000000E+00 0.  1.
          2   -1    0    0  502    0 -0.00000000000E+00 -0.00000000000E+00 -0.83417467772E+01  0.83417467772E+01  0.00000000000E+00 0. -1.
          2    1    1    2  501    0 -0.10909931403E+02  0.50950861747E+02  0.77439810294E+02  0.93337779780E+02  0.00000000000E+00 0. -1.
          2    1    1    2  502    0  0.10909931403E+02 -0.50950861747E+02  0.17277636535E+04  0.17285491775E+04  0.00000000000E+00 0.  1.
</event>
<event>
 4    1  0.6651744E+003  0.2558545E+02  0.7546771E-02  0.1462359E+00
          2   -1    0    0  502    0  0.00000000000E+00  0.00000000000E+00  0.54728863974E+01  0.54728863974E+01  0.00000000000E+00 0. -1.
          2   -1    0    0  501    0 -0.00000000000E+00 -0.00000000000E+00 -0.11613321705E+04  0.11613321705E+04  0.00000000000E+00 0. -1.
          2    1    1    2  501    0  0.93697996949E+00 -0.25568291468E+02 -0.25386875040E+02  0.36043153086E+02  0.00000000000E+00 0. -1.
          2    1    1    2  502    0 -0.93697996949E+00  0.25568291468E+02 -0.11304724091E+04  0.11307619038E+04  0.00000000000E+00 0. -1.
</event>
<event>
 4    1  0.6651744E+003  0.3575333E+02  0.7546771E-02  0.1375343E+00
          2   -1    0    0  501    0  0.00000000000E+00  0.00000000000E+00  0.49824670673E+01  0.49824670673E+01  0.00000000000E+00 0.  1.
          2   -1    0    0  502    0 -0.00000000000E+00 -0.00000000000E+00 -0.74650387245E+03  0.74650387245E+03  0.00000000000E+00 0. -1.
          2    1    1    2  501    0 -0.17063776106E+02 -0.31418591208E+02 -0.67516330021E+03  0.67610929758E+03  0.00000000000E+00 0. -1.
          2    1    1    2  502    0  0.17063776106E+02  0.31418591208E+02 -0.66358105168E+02  0.75377041929E+02  0.00000000000E+00 0.  1.
</event>
<event>
 4    1  0.6651744E+003  0.2495349E+02  0.7546771E-02  0.1469324E+00
          2   -1    0    0  501    0  0.00000000000E+00  0.00000000000E+00  0.68868597133E+03  0.68868597133E+03  0.00000000000E+00 0.  1.
          2   -1    0    0  502    0 -0.00000000000E+00 -0.00000000000E+00 -0.37857759089E+03  0.37857759089E+03  0.00000000000E+00 0.  1.
          2    1    1    2  501    0 -0.20839277088E+02  0.13725927187E+02 -0.37793997726E+03  0.37876285847E+03  0.00000000000E+00 0.  1.
          2    1    1    2  502    0  0.20839277088E+02 -0.13725927187E+02  0.68804835770E+03  0.68850070376E+03  0.00000000000E+00 0.  1.
</event>
<event>
 4    1  0.6651744E+003  0.2924175E+02  0.7546771E-02  0.1426302E+00
          2   -1    0    0  502    0  0.00000000000E+00  0.00000000000E+00  0.12084747420E+03  0.12084747420E+03  0.00000000000E+00 0.  1.
          2   -1    0    0  501    0 -0.00000000000E+00 -0.00000000000E+00 -0.13602847941E+02  0.13602847941E+02  0.00000000000E+00 0. -1.
          2    1    1    2  501    0  0.15836138696E+02  0.24582447071E+02  0.10018936996E+03  0.10436948714E+03  0.00000000000E+00 0.  1.
          2    1    1    2  502    0 -0.15836138696E+02 -0.24582447071E+02  0.70552562948E+01  0.30080834998E+02  0.00000000000E+00 0. -1.
</event>
<event>
 4    1  0.6651744E+003  0.3144088E+02  0.7546771E-02  0.1407475E+00
          2   -1    0    0  501    0  0.00000000000E+00  0.00000000000E+00  0.13809165634E+02  0.13809165634E+02  0.00000000000E+00 0. -1.
          2   -1    0    0  502    0 -0.00000000000E+00 -0.00000000000E+00 -0.28836338243E+03  0.28836338243E+03  0.00000000000E+00 0. -1.
          2    1    1    2  501    0 -0.19381410375E+02  0.24756618004E+02 -0.26827458664E+03  0.27011068664E+03  0.00000000000E+00 0. -1.
          2    1    1    2  502    0  0.19381410375E+02 -0.24756618004E+02 -0.62796301631E+01  0.32061861426E+02  0.00000000000E+00 0. -1.
</event>
<event>
 4    1  0.6651744E+003  0.2237899E+02  0.7546771E-02  0.1500447E+00
          2   -1    0    0  501    0  0.00000000000E+00  0.00000000000E+00  0.86434648790E+01  0.86434648790E+01  0.00000000000E+00 0. -1.
          2   -1    0    0  502    0 -0.00000000000E+00 -0.00000000000E+00 -0.25669978042E+03  0.25669978042E+03  0.00000000000E+00 0. -1.
          2    1    1    2  501    0  0.24808468822E+01 -0.22241061331E+02 -0.24077022802E+03  0.24180802739E+03  0.00000000000E+00 0. -1.
          2    1    1    2  502    0 -0.24808468822E+01  0.22241061331E+02 -0.72860875154E+01  0.23535217902E+02  0.00000000000E+00 0. -1.
</event>
<event>
 4    1  0.6651744E+003  0.2510188E+02  0.7546771E-02  0.1467667E+00
          2   -1    0    0  502    0  0.00000000000E+00  0.00000000000E+00  0.27024573897E+01  0.27024573897E+01  0.00000000000E+00 0. -1.
          2   -1    0    0  501    0 -0.00000000000E+00 -0.00000000000E+00 -0.15477910136E+04  0.15477910136E+04  0.00000000000E+00 0. -1.
          2    1    1    2  501    0 -0.25118699551E+01  0.24975882927E+02 -0.58071365796E+02  0.63264427162E+02  0.00000000000E+00 0. -1.
          2    1    1    2  502    0  0.25118699551E+01 -0.24975882927E+02 -0.14870171904E+04  0.14872290438E+04  0.00000000000E+00 0. -1.
</event>
<event>
 4    1  0.6651744E+003  0.5852582E+02  0.7546771E-02  0.1264925E+00
          2   -1    0    0  501    0  0.00000000000E+00  0.00000000000E+00  0.25571408878E+01  0.25571408878E+01  0.00000000000E+00 0.  1.
          2   -1    0    0  502    0 -0.00000000000E+00 -0.00000000000E+00 -0.17114477142E+04  0.17114477142E+04  0.00000000000E+00 0. -1.
          2    1    1    2  501    0 -0.38131565247E+02 -0.44398826872E+02 -0.12539715366E+04  0.12553365631E+04  0.00000000000E+00 0. -1.
          2    1    1    2  502    0  0.38131565247E+02  0.44398826872E+02 -0.45491903666E+03  0.45866829192E+03  0.00000000000E+00 0.  1.
</event>
<event>
 4    1  0.6651744E+003  0.2076614E+02  0.7546771E-02  0.1522630E+00
          2   -1    0    0  502    0  0.00000000000E+00  0.00000000000E+00  0.21495136581E+03  0.21495136581E+03  0.00000000000E+00 0.  1.
          2   -1    0    0  501    0 -0.00000000000E+00 -0.00000000000E+00 -0.34499546328E+02  0.34499546328E+02  0.00000000000E+00 0. -1.
          2    1    1    2  501    0  0.18663076659E+02  0.91061576979E+01  0.21127059297E+03  0.21228870906E+03  0.00000000000E+00 0.  1.
          2    1    1    2  502    0 -0.18663076659E+02 -0.91061576979E+01 -0.30818773490E+02  0.37162203081E+02  0.00000000000E+00 0. -1.
</event>
<event>
 4    1  0.6651744E+003  0.2265768E+02  0.7546771E-02  0.1496842E+00
          2   -1    0    0  501    0  0.00000000000E+00  0.00000000000E+00  0.13783152240E+04  0.13783152240E+04  0.00000000000E+00 0. -1.
          2   -1    0    0  502    0 -0.00000000000E+00 -0.00000000000E+00 -0.21436592287E+02  0.21436592287E+02  0.00000000000E+00 0.  1.
          2    1    1    2  501    0 -0.20357457844E+02  0.99470819679E+01 -0.15329751922E+02  0.27356385426E+02  0.00000000000E+00 0.  1.
          2    1    1    2  502    0  0.20357457844E+02 -0.99470819679E+01  0.13722083836E+04  0.13723954308E+04  0.00000000000E+00 0. -1.
</event>
<event>
 4    1  0.6651744E+003  0.2209282E+02  0.7546771E-02  0.1504215E+00
          2   -1    0    0  502    0  0.00000000000E+00  0.00000000000E+00  0.64458764458E+02  0.64458764458E+02  0.00000000000E+00 0.  1.
          2   -1    0    0  501    0 -0.00000000000E+00 -0.00000000000E+00 -0.75939105681E+01  0.75939105681E+01  0.00000000000E+00 0.  1.
          2    1    1    2  501    0 -0.21677019586E+02 -0.42660777808E+01  0.30360138886E+02  0.37547711395E+02  0.00000000000E+00 0.  1.
          2    1    1    2  502    0  0.21677019586E+02  0.42660777808E+01  0.26504715004E+02  0.34504963632E+02  0.00000000000E+00 0.  1.
</event>
<event>
 4    1  0.6651744E+003  0.2204948E+02  0.7546771E-02  0.1504792E+00
          2   -1    0    0  501    0  0.00000000000E+00  0.00000000000E+00  0.65523117630E+02  0.65523117630E+02  0.00000000000E+00 0.  1.
          2   -1    0    0  502    0 -0.00000000000E+00 -0.00000000000E+00 -0.11678554032E+03  0.11678554032E+03  0.00000000000E+00 0. -1.
          2    1    1    2  501    0  0.14607203207E+02  0.16516940511E+02 -0.11384227684E+03  0.11595793938E+03  0.00000000000E+00 0. -1.
          2    1    1    2  502    0 -0.14607203207E+02 -0.16516940511E+02  0.62579854149E+02  0.66350718570E+02  0.00000000000E+00 0.  1.
</event>
<event>
 4    1  0.6651744E+003  0.4572396E+02  0.7546771E-02  0.1317858E+00
          2   -1    0    0  502    0  0.00000000000E+00  0.00000000000E+00  0.84416764306E+02  0.84416764306E+02  0.00000000000E+00 0.  1.
          2   -1    0    0  501    0 -0.00000000000E+00 -0.00000000000E+00 -0.11998144667E+04  0.11998144667E+04  0.00000000000E+00 0.  1.
          2    1    1    2  501    0 -0.38170434863E+02 -0.25173368990E+02  0.77755037462E+02  0.90202696494E+02  0.00000000000E+00 0.  1.
          2    1    1    2  502    0  0.38170434863E+02  0.25173368990E+02 -0.11931527398E+04  0.11940285345E+04  0.00000000000E+00 0.  1.
</event>
<event>
 4    1  0.6651744E+003  0.2507367E+02  0.7546771E-02  0.1467981E+00
          2   -1    0    0  502    0  0.00000000000E+00  0.00000000000E+00  0.57164605082E+01  0.57164605082E+01  0.00000000000E+00 0. -1.
          2   -1    0    0  501    0 -0.00000000000E+00 -0.00000000000E+00 -0.25185703221E+03  0.25185703221E+03  0.00000000000E+00 0.  1.
          2    1    1    2  501    0  0.14660816414E+02 -0.20340827833E+02 -0.26409084258E+02  0.36416047921E+02  0.00000000000E+00 0. -1.
          2    1    1    2  502    0 -0.14660816414E+02  0.20340827833E+02 -0.21973148744E+03  0.22115744480E+03  0.00000000000E+00 0.  1.
</event>
<event>
 4    1  0.6651744E+003  0.2135299E+02  0.7546771E-02  0.1514284E+00
          2   -1    0    0  502    0  0.00000000000E+00  0.00000000000E+00  0.26762130292E+03  0.26762130292E+03  0.00000000000E+00 0.  1.
          2   -1    0    0  501    0 -0.00000000000E+00 -0.00000000000E+00 -0.15276157545E+02  0.15276157545E+02  0.00000000000E+00 0.  1.
          2    1    1    2  501    0 -0.20117519658E+02  0.71578918235E+01  0.25950046683E+03  0.26037749960E+03  0.00000000000E+00 0.  1.
          2    1    1    2  502    0  0.20117519658E+02 -0.71578918235E+01 -0.71553214505E+01  0.22519960870E+02  0.00000000000E+00 0.  1.
</event>
<event>
 4    1  0.6651744E+003  0.2562829E+02  0.7546771E-02  0.1461896E+00
          2   -1    0    0  502    0  0.00000000000E+00  0.00000000000E+00  0.87054706499E+01  0.87054706499E+01  0.00000000000E+00 0. -1.
          2   -1    0    0  501    0 -0.00000000000E+00 -0.00000000000E+00 -0.44481468799E+03  0.44481468799E+03  0.00000000000E+00 0. -1.
          2    1    1    2  501    0  0.38805043811E+01  0.25332801070E+02 -0.11418608868E+02  0.28056973336E+02  0.00000000000E+00 0. -1.
          2    1    1    2  502    0 -0.38805043811E+01 -0.25332801070E+02 -0.42469060847E+03  0.42546318530E+03  0.00000000000E+00 0. -1.
</event>
<event>
 4    1  0.6651744E+003  0.3868135E+02  0.7546771E-02  0.1356391E+00
          2   -1    0    0  501    0  0.00000000000E+00  0.00000000000E+00  0.68826152117E+03  0.68826152117E+03  0.00000000000E+00 0.  1.
          2   -1    0    0  502    0 -0.00000000000E+00 -0.00000000000E+00 -0.12764516786E+02  0.12764516786E+02  0.00000000000E+00 0. -1.
          2    1    1    2  501    0 -0.13409299855E+02 -0.36282748624E+02  0.18475986087E+02  0.42867344590E+02  0.00000000000E+00 0. -1.
          2    1    1    2  502    0  0.13409299855E+02  0.36282748624E+02  0.65702101830E+03  0.65815869337E+03  0.00000000000E+00 0.  1.
</event>
<event>
 4    1  0.6651744E+003  0.3069797E+02  0.7546771E-02  0.1413626E+00
          2   -1    0    0  502    0  0.00000000000E+00  0.00000000000E+00  0.21882117554E+04  0.21882117554E+04  0.00000000000E+00 0. -1.
          2   -1    0    0  501    0 -0.00000000000E+00 -0.00000000000E+00 -0.21632302989E+01  0.21632302989E+01  0.00000000000E+00 0. -1.
          2    1    1    2  501    0 -0.10821723187E+02 -0.28727264770E+02  0.20731529326E+04  0.20733801984E+04  0.00000000000E+00 0. -1.
          2    1    1    2  502    0  0.10821723187E+02  0.28727264770E+02  0.11289559249E+03  0.11699478723E+03  0.00000000000E+00 0. -1.
</event>
<event>
 4    1  0.6651744E+003  0.2669482E+02  0.7546771E-02  0.1450698E+00
          2   -1    0    0  502    0  0.00000000000E+00  0.00000000000E+00  0.12172423478E+01  0.12172423478E+01  0.00000000000E+00 0. -1.
          2   -1    0    0  501    0 -0.00000000000E+00 -0.00000000000E+00 -0.17823278974E+04  0.17823278974E+04  0.00000000000E+00 0. -1.
          2    1    1    2  501    0  0.24650275827E+02 -0.10245833456E+02 -0.15977237096E+03  0.16198710975E+03  0.00000000000E+00 0. -1.
          2    1    1    2  502    0 -0.24650275827E+02  0.10245833456E+02 -0.16213382841E+04  0.16215580300E+04  0.00000000000E+00 0. -1.
</event>
<event>
 4    1  0.6651744E+003  0.2060911E+02  0.7546771E-02  0.1524920E+00
          2   -1    0    0  502    0  0.00000000000E+00  0.00000000000E+00  0.12762496573E+04  0.12762496573E+04  0.00000000000E+00 0.  1.
          2   -1    0    0  501    0 -0.00000000000E+00 -0.00000000000E+00 -0.66967545714E+00  0.66967545714E+00  0.00000000000E+00 0. -1.
          2    1    1    2  501    0 -0.15673548730E+02  0.13381898082E+02  0.10906210887E+04  0.10908157931E+04  0.00000000000E+00 0.  1.
          2    1    1    2  502    0  0.15673548730E+02 -0.13381898082E+02  0.18495889319E+03  0.18610353972E+03  0.00000000000E+00 0. -1.
</event>
<event>
 4    1  0.6651744E+003  0.2119114E+02  0.7546771E-02  0.1516553E+00
          2   -1    0    0  502    0  0.00000000000E+00  0.00000000000E+00  0.32870383925E+01  0.32870383925E+01  0.00000000000E+00 0.  1.
          2   -1    0    0  501    0 -0.00000000000E+00 -0.00000000000E+00 -0.45111345138E+03  0.45111345138E+03  0.00000000000E+00 0.  1.
          2    1    1    2  501    0  0.20347819177E+02  0.59186555784E+01 -0.34210288474E+02  0.40241869571E+02  0.00000000000E+00 0.  1.
          2    1    1    2  502    0 -0.20347819177E+02 -0.59186555784E+01 -0.41361612451E+03  0.41415862020E+03  0.00000000000E+00 0.  1.
</event>
<event>
 4    1  0.6651744E+003  0.2681682E+02  0.7546771E-02  0.1449457E+00
          2   -1    0    0  502    0  0.00000000000E+00  0.00000000000E+00  0.12773951867E+04  0.12773951867E+04  0.00000000000E+00 0. -1.
          2   -1    0    0  501    0 -0.00000000000E+00 -0.00000000000E+00 -0.14467091734E+02  0.14467091734E+02  0.00000000000E+00 0. -1.
          2    1    1    2  501    0 -0.47455209414E+01  0.26393595723E+02  0.12647025349E+04  0.12649868156E+04  0.00000000000E+00 0. -1.
          2    1    1    2  502    0  0.47455209414E+01 -0.26393595723E+02 -0.17744399533E+01  0.26875462812E+02  0.00000000000E+00 0. -1.
</event>
<event>
 4    1  0.6651744E+003  0.2405533E+02  0.7546771E-02  0.1479655E+00
          2   -1    0    0  501    0  0.00000000000E+00  0.00000000000E+00  0.55999871617E+03  0.55999871617E+03  0.00000000000E+00 0. -1.
          2   -1    0    0  502    0 -0.00000000000E+00 -0.00000000000E+00 -0.24657521413E+01  0.24657521413E+01  0.00000000000E+00 0. -1.
          2    1    1    2  501    0 -0.14663392626E+02  0.19069446222E+02  0.64414675317E+02  0.68759793912E+02  0.00000000000E+00 0. -1.
          2    1    1    2  502    0  0.14663392626E+02 -0.19069446222E+02  0.49311828871E+03  0.49370467440E+03  0.00000000000E+00 0. -1.
</event>
<event>
 4    1  0.6651744E+003  0.2230843E+02  0.7546771E-02  0.1501370E+00
          2   -1    0    0  501    0  0.00000000000E+00  0.00000000000E+00  0.98800033447E+01  0.98800033447E+01  0.00000000000E+00 0. -1.
          2   -1    0    0  502    0 -0.00000000000E+00 -0.00000000000E+00 -0.56532783888E+03  0.56532783888E+03  0.00000000000E+00 0. -1.
          2    1    1    2  501    0  0.20011738450E+02 -0.98588189988E+01 -0.55221612362E+03  0.55266654790E+03  0.00000000000E+00 0. -1.
          2    1    1    2  502    0 -0.20011738450E+02  0.98588189988E+01 -0.32317119193E+01  0.22541294323E+02  0.00000000000E+00 0. -1.
</event>
<event>
 4    1  0.6651744E+003  0.4807643E+02  0.7546771E-02  0.1306735E+00
          2   -1    0    0  502    0  0.00000000000E+00  0.00000000000E+00  0.27511708875E+01  0.27511708875E+01  0.00000000000E+00 0. -1.
          2   -1    0    0  501    0 -0.00000000000E+00 -0.00000000000E+00 -0.85513274024E+03  0.85513274024E+03  0.00000000000E+00 0.  1.
          2    1    1    2  501    0  0.32816689912E+02  0.35134140683E+02 -0.36937648112E+03  0.37249205063E+03  0.00000000000E+00 0. -1.
          2    1    1    2  502    0 -0.32816689912E+02 -0.35134140683E+02 -0.48300508824E+03  0.48539186050E+03  0.00000000000E+00 0.  1.
</event>
<event>
 4    1  0.6651744E+003  0.2074284E+02  0.7546771E-02  0.1522968E+00
          2   -1    0    0  502    0  0.00000000000E+00  0.00000000000E+00  0.34882851909E+03  0.34882851909E+03  0.00000000000E+00 0.  1.
          2   -1    0    0  501    0 -0.00000000000E+00 -0.00000000000E+00 -0.40194842432E+01  0.40194842432E+01  0.00000000000E+00 0.  1.
          2    1    1    2  501    0 -0.18747566000E+02  0.88765983571E+01  0.31928535038E+03  0.31995843511E+03  0.00000000000E+00 0.  1.
          2    1    1    2  502    0  0.18747566000E+02 -0.88765983571E+01  0.25523684468E+02  0.32889568227E+02  0.00000000000E+00 0.  1.
</event>
<event>
 4    1  0.6651744E+003  0.9198595E+02  0.7546771E-02  0.1178470E+00
          2   -1    0    0  502    0  0.00000000000E+00  0.00000000000E+00  0.54055838100E+03  0.54055838100E+03  0.00000000000E+00 0. -1.
          2   -1    0    0  501    0 -0.00000000000E+00 -0.00000000000E+00 -0.16396525019E+04  0.16396525019E+04  0.00000000000E+00 0.  1.
          2    1    1    2  501    0 -0.16608528869E+02 -0.90474147127E+02  0.53534250448E+03  0.54318782353E+03  0.00000000000E+00 0. -1.
          2    1    1    2  502    0  0.16608528869E+02  0.90474147127E+02 -0.16344366254E+04  0.16370230594E+04  0.00000000000E+00 0.  1.
</event>
<event>
 4    1  0.6651744E+003  0.3287134E+02  0.7546771E-02  0.1396179E+00
          2   -1    0    0  501    0  0.00000000000E+00  0.00000000000E+00  0.75786420974E+02  0.75786420974E+02  0.00000000000E+00 0.  1.
          2   -1    0    0  502    0 -0.00000000000E+00 -0.00000000000E+00 -0.23059028818E+02  0.23059028818E+02  0.00000000000E+00 0.  1.
          2    1    1    2  501    0  0.76284762436E+00  0.32862487305E+02 -0.41704094138E+01  0.33134835491E+02  0.00000000000E+00 0.  1.
          2    1    1    2  502    0 -0.76284762436E+00 -0.32862487305E+02  0.56897801570E+02  0.65710614301E+02  0.00000000000E+00 0.  1.
</event>
<event>
 4    1  0.6651744E+003  0.3641624E+02  0.7546771E-02  0.1370871E+00
          2   -1    0    0  501    0  0.00000000000E+00  0.00000000000E+00  0.91125533647E+03  0.91125533647E+03  0.00000000000E+00 0.  1.
          2   -1    0    0  502    0 -0.00000000000E+00 -0.00000000000E+00 -0.83546205661E+02  0.83546205661E+02  0.00000000000E+00 0. -1.
          2    1    1    2  501    0  0.14855425416E+02 -0.33248438749E+02 -0.79195061178E+02  0.87166507665E+02  0.00000000000E+00 0. -1.
          2    1    1    2  502    0 -0.14855425416E+02  0.33248438749E+02  0.90690419199E+03  0.90763503447E+03  0.00000000000E+00 0.  1.
</event>
<event>
 4    1  0.6651744E+003  0.2449016E+02  0.7546771E-02  0.1474588E+00
          2   -1    0    0  502    0  0.00000000000E+00  0.00000000000E+00  0.45677060659E+02  0.45677060659E+02  0.00000000000E+00 0.  1.
          2   -1    0    0  501    0 -0.00000000000E+00 -0.00000000000E+00 -0.13218263863E+02  0.13218263863E+02  0.00000000000E+00 0. -1.
          2    1    1    2  501    0  0.18803484401E+02 -0.15690667747E+02  0.18627275273E+02  0.30769196675E+02  0.00000000000E+00 0.  1.
          2    1    1    2  502    0 -0.18803484401E+02  0.15690667747E+02  0.13831521524E+02  0.28126127847E+02  0.00000000000E+00 0. -1.
</event>
<event>
 4    1  0.6651744E+003  0.2333377E+02  0.7546771E-02  0.1488349E+00
          2   -1    0    0  502    0  0.00000000000E+00  0.00000000000E+00  0.56411022172E+03  0.56411022172E+03  0.00000000000E+00 0.  1.
          2   -1    0    0  501    0 -0.00000000000E+00 -0.00000000000E+00 -0.11467422930E+02  0.11467422930E+02  0.00000000000E+00 0. -1.
          2    1    1    2  501    0  0.19312380978E+02 -0.13095676864E+02  0.55173294992E+03  0.55222614285E+03  0.00000000000E+00 0.  1.
          2    1    1    2  502    0 -0.19312380978E+02  0.13095676864E+02  0.90984886687E+00  0.23351501805E+02  0.00000000000E+00 0. -1.
</event>
<event>
 4    1  0.6651744E+003  0.4253157E+02  0.7546771E-02  0.1334257E+00
          2   -1    0    0  502    0  0.00000000000E+00  0.00000000000E+00  0.13124190925E+02  0.13124190925E+02  0.00000000000E+00 0.  1.
          2   -1    0    0  501    0 -0.00000000000E+00 -0.00000000000E+00 -0.22563875883E+03  0.22563875883E+03  0.00000000000E+00 0. -1.
          2    1    1    2  501    0 -0.54287412479E+01 -0.42183686511E+02 -0.31785142113E+02  0.53096420768E+02  0.00000000000E+00 0.  1.
          2    1    1    2  502    0  0.54287412479E+01  0.42183686511E+02 -0.18072942580E+03  0.18566652899E+03  0.00000000000E+00 0. -1.
</event>
<event>
 4    1  0.6651744E+003  0.2042974E+02  0.7546771E-02  0.1527565E+00
          2   -1    0    0  502    0  0.00000000000E+00  0.00000000000E+00  0.57431041157E+03  0.57431041157E+03  0.00000000000E+00 0.  1.
          2   -1    0    0  501    0 -0.00000000000E+00 -0.00000000000E+00 -0.32108143182E+03  0.32108143182E+03  0.00000000000E+00 0. -1.
          2    1    1    2  501    0 -0.17183524473E+02 -0.11049915853E+02  0.57380346432E+03  0.57416704000E+03  0.00000000000E+00 0.  1.
          2    1    1    2  502    0  0.17183524473E+02  0.11049915853E+02 -0.32057448457E+03  0.32122480339E+03  0.00000000000E+00 0. -1.
</event>
<event>
 4    1  0.6651744E+003  0.4503872E+02  0.7546771E-02  0.1321246E+00
          2   -1    0    0  501    0  0.00000000000E+00  0.00000000000E+00  0.33569909385E+03  0.33569909385E+03  0.00000000000E+00 0. -1.
          2   -1    0    0  502    0 -0.00000000000E+00 -0.00000000000E+00 -0.17167027999E+03  0.17167027999E+03  0.00000000000E+00 0. -1.
          2    1    1    2  501    0 -0.42202987992E+02 -0.15728752760E+02 -0.16716559878E+03  0.17312661053E+03  0.00000000000E+00 0. -1.
          2    1    1    2  502    0  0.42202987992E+02  0.15728752760E+02  0.33119441264E+03  0.33424276331E+03  0.00000000000E+00 0. -1.
</event>
<event>
 4    1  0.6651744E+003  0.2047246E+02  0.7546771E-02  0.1526932E+00
          2   -1    0    0  501    0  0.00000000000E+00  0.00000000000E+00  0.25667956736E+02  0.25667956736E+02  0.00000000000E+00 0.  1.
          2   -1    0    0  502    0 -0.00000000000E+00 -0.00000000000E+00 -0.23199415483E+03  0.23199415483E+03  0.00000000000E+00 0.  1.
          2    1    1    2  501    0  0.63039474065E+01  0.19477730251E+02 -0.22737764056E+03  0.22829742258E+03  0.00000000000E+00 0.  1.
          2    1    1    2  502    0 -0.63039474065E+01 -0.19477730251E+02  0.21051442475E+02  0.29364688980E+02  0.00000000000E+00 0.  1.
</event>
<event>
 4    1  0.6651744E+003  0.2076880E+03  0.7546771E-02  0.1049816E+00
          2   -1    0    0  502    0  0.00000000000E+00  0.00000000000E+00  0.54941400781E+03  0.54941400781E+03  0.00000000000E+00 0.  1.
          2   -1    0    0  501    0 -0.00000000000E+00 -0.00000000000E+00 -0.19111491615E+04  0.19111491615E+04  0.00000000000E+00 0. -1.
          2    1    1    2  501    0 -0.19587676083E+03 -0.69040627252E+02  0.52387914004E+03  0.56354562106E+03  0.00000000000E+00 0.  1.
          2    1    1    2  502    0  0.19587676083E+03  0.69040627252E+02 -0.18856142937E+04  0.18970175482E+04  0.00000000000E+00 0. -1.
</event>
<event>
 4    1  0.6651744E+003  0.2905252E+02  0.7546771E-02  0.1428012E+00
          2   -1    0    0  502    0  0.00000000000E+00  0.00000000000E+00  0.26760902752E+03  0.26760902752E+03  0.00000000000E+00 0. -1.
          2   -1    0    0  501    0 -0.00000000000E+00 -0.00000000000E+00 -0.55917670702E+01  0.55917670702E+01  0.00000000000E+00 0. -1.
          2    1    1    2  501    0 -0.17696813739E+02 -0.23040654775E+02  0.22120107562E+03  0.22310079526E+03  0.00000000000E+00 0. -1.
          2    1    1    2  502    0  0.17696813739E+02  0.23040654775E+02  0.40816184821E+02  0.50099999324E+02  0.00000000000E+00 0. -1.
</event>
<event>
 4    1  0.6651744E+003  0.2759849E+02  0.7546771E-02  0.1441687E+00
          2   -1    0    0  501    0  0.00000000000E+00  0.00000000000E+00  0.24861638991E+04  0.24861638991E+04  0.00000000000E+00 0. -1.
          2   -1    0    0  502    0 -0.00000000000E+00 -0.00000000000E+00 -0.33335844432E+00  0.33335844432E+00  0.00000000000E+00 0. -1.
          2    1    1    2  501    0 -0.24050037847E+02 -0.13537811282E+02  0.88914483548E+03  0.88957305215E+03  0.00000000000E+00 0. -1.
          2    1    1    2  502    0  0.24050037847E+02  0.13537811282E+02  0.15966857052E+04  0.15969242054E+04  0.00000000000E+00 0. -1.
</event>
<event>
 4    1  0.6651744E+003  0.2027230E+02  0.7546771E-02  0.1529913E+00
          2   -1    0    0  502    0  0.00000000000E+00  0.00000000000E+00  0.90136647920E+02  0.90136647920E+02  0.00000000000E+00 0. -1.
          2   -1    0    0  501    0 -0.00000000000E+00 -0.00000000000E+00 -0.47295225755E+01  0.47295225755E+01  0.00000000000E+00 0. -1.
          2    1    1    2  501    0  0.20085874349E+02  0.27429608167E+01  0.51700486709E+02  0.55532931746E+02  0.00000000000E+00 0. -1.
          2    1    1    2  502    0 -0.20085874349E+02 -0.27429608167E+01  0.33706638636E+02  0.39333238749E+02  0.00000000000E+00 0. -1.
</event>
<event>
 4    1  0.6651744E+003  0.2885433E+02  0.7546771E-02  0.1429820E+00
          2   -1    0    0  501    0  0.00000000000E+00  0.00000000000E+00  0.96010527897E+02  0.96010527897E+02  0.00000000000E+00 0. -1.
          2   -1    0    0  502    0 -0.00000000000E+00 -0.00000000000E+00 -0.13969086386E+02  0.13969086386E+02  0.00000000000E+00 0. -1.
          2    1    1    2  501    0 -0.28505250575E+02 -0.44747301200E+01  0.71573750973E+01  0.29728782993E+02  0.00000000000E+00 0. -1.
          2    1    1    2  502    0  0.28505250575E+02  0.44747301200E+01  0.74884066414E+02  0.80250831290E+02  0.00000000000E+00 0. -1.
</event>
<event>
 4    1  0.6651744E+003  0.2252639E+02  0.7546771E-02  0.1498532E+00
          2   -1    0    0  501    0  0.00000000000E+00  0.00000000000E+00  0.17564442890E+03  0.17564442890E+03  0.00000000000E+00 0.  1.
          2   -1    0    0  502    0 -0.00000000000E+00 -0.00000000000E+00 -0.43758766194E+01  0.43758766194E+01  0.00000000000E+00 0.  1.
          2    1    1    2  501    0  0.65019509847E+01  0.21567639814E+02  0.33166214701E+02  0.40092845388E+02  0.00000000000E+00 0.  1.
          2    1    1    2  502    0 -0.65019509847E+01 -0.21567639814E+02  0.13810233758E+03  0.13992746013E+03  0.00000000000E+00 0.  1.
</event>
<event>
 4    1  0.6651744E+003  0.2222118E+02  0.7546771E-02  0.1502516E+00
          2   -1    0    0  501    0  0.00000000000E+00  0.00000000000E+00  0.38044591123E+03  0.38044591123E+03  0.00000000000E+00 0.  1.
          2   -1    0    0  502    0 -0.00000000000E+00 -0.00000000000E+00 -0.68280560495E+01  0.68280560495E+01  0.00000000000E+00 0. -1.
          2    1    1    2  501    0  0.45154944872E+01  0.21757557940E+02  0.12544623844E+02  0.25517613630E+02  0.00000000000E+00 0. -1.
          2    1    1    2  502    0 -0.45154944872E+01 -0.21757557940E+02  0.36107323134E+03  0.36175635365E+03  0.00000000000E+00 0.  1.
</event>
<event>
 4    1  0.6651744E+003  0.3053006E+02  0.7546771E-02  0.1415045E+00
          2   -1    0    0  501    0  0.00000000000E+00  0.00000000000E+00  0.41072110625E+03  0.41072110625E+03  0.00000000000E+00 0.  1.
          2   -1    0    0  502    0 -0.00000000000E+00 -0.00000000000E+00 -0.12790719344E+02  0.12790719344E+02  0.00000000000E+00 0. -1.
          2    1    1    2  501    0 -0.29369574657E+02 -0.83374341654E+01  0.69111516219E+01  0.31302535692E+02  0.00000000000E+00 0. -1.
          2    1    1    2  502    0  0.29369574657E+02  0.83374341654E+01  0.39101923529E+03  0.39220928991E+03  0.00000000000E+00 0.  1.
</event>
<event>
 4    1  0.6651744E+003  0.7067942E+02  0.7546771E-02  0.1227314E+00
          2   -1    0    0  502    0  0.00000000000E+00  0.00000000000E+00  0.14037865029E+04  0.14037865029E+04  0.00000000000E+00 0.  1.
          2   -1    0    0  501    0 -0.00000000000E+00 -0.00000000000E+00 -0.18621726824E+04  0.18621726824E+04  0.00000000000E+00 0.  1.
          2    1    1    2  501    0 -0.77465450569E+01  0.70253626092E+02  0.14022254292E+04  0.14040056037E+04  0.00000000000E+00 0.  1.
          2    1    1    2  502    0  0.77465450569E+01 -0.70253626092E+02 -0.18606116088E+04  0.18619535815E+04  0.00000000000E+00 0.  1.
</event>
<event>
 4    1  0.6651744E+003  0.2848807E+02  0.7546771E-02  0.1433207E+00
          2   -1    0    0  501    0  0.00000000000E+00  0.00000000000E+00  0.77599431708E+01  0.77599431708E+01  0.00000000000E+00 0. -1.
          2   -1    0    0  502    0 -0.00000000000E+00 -0.00000000000E+00 -0.12082021480E+04  0.12082021480E+04  0.00000000000E+00 0.  1.
          2    1    1    2  501    0  0.26247493375E+02  0.11074271756E+02 -0.11812925565E+04  0.11816360160E+04  0.00000000000E+00 0.  1.
          2    1    1    2  502    0 -0.26247493375E+02 -0.11074271756E+02 -0.19149648390E+02  0.34326075174E+02  0.00000000000E+00 0. -1.
</event>
<event>
 4    1  0.6651744E+003  0.2021945E+02  0.7546771E-02  0.1530707E+00
          2   -1    0    0  502    0  0.00000000000E+00  0.00000000000E+00  0.17874311581E+02  0.17874311581E+02  0.00000000000E+00 0. -1.
          2   -1    0    0  501    0 -0.00000000000E+00 -0.00000000000E+00 -0.23143647219E+02  0.23143647219E+02  0.00000000000E+00 0. -1.
          2    1    1    2  501    0  0.25644644798E+01  0.20056164817E+02 -0.48554622758E+01  0.20794271787E+02  0.00000000000E+00 0. -1.
          2    1    1    2  502    0 -0.25644644798E+01 -0.20056164817E+02 -0.41387336212E+00  0.20223687013E+02  0.00000000000E+00 0. -1.
</event>
<event>
 4    1  0.6651744E+003  0.2043857E+02  0.7546771E-02  0.1527434E+00
          2   -1    0    0  501    0  0.00000000000E+00  0.00000000000E+00  0.52590075938E+03  0.52590075938E+03  0.00000000000E+00 0.  1.
          2   -1    0    0  502    0 -0.00000000000E+00 -0.00000000000E+00 -0.24641220906E+01  0.24641220906E+01  0.00000000000E+00 0. -1.
          2    1    1    2  501    0 -0.17631160368E+02  0.10338145802E+02  0.44245518776E+02  0.48738085788E+02  0.00000000000E+00 0. -1.
          2    1    1    2  502    0  0.17631160368E+02 -0.10338145802E+02  0.47919111851E+03  0.47962679568E+03  0.00000000000E+00 0.  1.
</event>
<event>
 4    1  0.6651744E+003  0.2287357E+02  0.7546771E-02  0.1494092E+00
          2   -1    0    0  501    0  0.00000000000E+00  0.00000000000E+00  0.74630403387E+03  0.74630403387E+03  0.00000000000E+00 0. -1.
          2   -1    0    0  502    0 -0.00000000000E+00 -0.00000000000E+00 -0.26329705280E+01  0.26329705280E+01  0.00000000000E+00 0.  1.
          2    1    1    2  501    0  0.21503071232E+02  0.77985911768E+01  0.51070975977E+02  0.55959312755E+02  0.00000000000E+00 0.  1.
          2    1    1    2  502    0 -0.21503071232E+02 -0.77985911768E+01  0.69260008736E+03  0.69297769164E+03  0.00000000000E+00 0. -1.
</event>
<event>
 4    1  0.6651744E+003  0.4122014E+02  0.7546771E-02  0.1341480E+00
          2   -1    0    0  502    0  0.00000000000E+00  0.00000000000E+00  0.16129181607E+04  0.16129181607E+04  0.00000000000E+00 0.  1.
          2   -1    0    0  501    0 -0.00000000000E+00 -0.00000000000E+00 -0.29535165918E+01  0.29535165918E+01  0.00000000000E+00 0. -1.
          2    1    1    2  501    0 -0.27776645884E+02 -0.30455833115E+02  0.14530100933E+04  0.14535946584E+04  0.00000000000E+00 0.  1.
          2    1    1    2  502    0  0.27776645884E+02  0.30455833115E+02  0.15695455088E+03  0.16227701892E+03  0.00000000000E+00 0. -1.
</event>
<event>
 4    1  0.6651744E+003  0.2391378E+02  0.7546771E-02  0.1481332E+00
          2   -1    0    0  501    0  0.00000000000E+00  0.00000000000E+00  0.28151493668E+01  0.28151493668E+01  0.00000000000E+00 0. -1.
          2   -1    0    0  502    0 -0.00000000000E+00 -0.00000000000E+00 -0.29023954153E+03  0.29023954153E+03  0.00000000000E+00 0. -1.
          2    1    1    2  501    0 -0.70866530124E+01  0.22839620265E+02 -0.22398137170E+03  0.22525435351E+03  0.00000000000E+00 0. -1.
          2    1    1    2  502    0  0.70866530124E+01 -0.22839620265E+02 -0.63443020456E+02  0.67800337384E+02  0.00000000000E+00 0. -1.
</event>
<event>
 4    1  0.6651744E+003  0.2726204E+02  0.7546771E-02  0.1444994E+00
          2   -1    0    0  502    0  0.00000000000E+00  0.00000000000E+00  0.59911720985E+02  0.59911720985E+02  0.00000000000E+00 0. -1.
          2   -1    0    0  501    0 -0.00000000000E+00 -0.00000000000E+00 -0.12518442703E+02  0.12518442703E+02  0.00000000000E+00 0. -1.
          2    1    1    2  501    0 -0.30469363230E+01 -0.27091232904E+02  0.27140618420E+02  0.38468583148E+02  0.00000000000E+00 0. -1.
          2    1    1    2  502    0  0.30469363230E+01  0.27091232904E+02  0.20252659862E+02  0.33961580539E+02  0.00000000000E+00 0. -1.
</event>
<event>
 4    1  0.6651744E+003  0.2008347E+02  0.7546771E-02  0.1532763E+00
          2   -1    0    0  502    0  0.00000000000E+00  0.00000000000E+00  0.14028322911E+01  0.14028322911E+01  0.00000000000E+00 0.  1.
          2   -1    0    0  501    0 -0.00000000000E+00 -0.00000000000E+00 -0.36237681552E+03  0.36237681552E+03  0.00000000000E+00 0. -1.
          2    1    1    2  501    0  0.13426388962E+02  0.14935794704E+02 -0.97819159938E+02  0.99859571073E+02  0.00000000000E+00 0.  1.
          2    1    1    2  502    0 -0.13426388962E+02 -0.14935794704E+02 -0.26315482329E+03  0.26392007673E+03  0.00000000000E+00 0. -1.
</event>
<event>
 4    1  0.6945682E+003  0.4718368E+02  0.7546771E-02  0.1310868E+00
          2   -1    0    0  502    0  0.00000000000E+00  0.00000000000E+00  0.64470513563E+03  0.64470513563E+03  0.00000000000E+00 0. -1.
          2   -1    0    0  501    0 -0.00000000000E+00 -0.00000000000E+00 -0.11675752201E+04  0.11675752201E+04  0.00000000000E+00 0. -1.
          2    1    1    2  501    0 -0.33400445688E+02  0.33327313459E+02  0.64336414892E+03  0.64509203042E+03  0.00000000000E+00 0. -1.
          2    1    1    2  502    0  0.33400445688E+02 -0.33327313459E+02 -0.11662342334E+04  0.11671883253E+04  0.00000000000E+00 0. -1.
</event>
<event>
 4    1  0.6651744E+003  0.2356613E+02  0.7546771E-02  0.1485509E+00
          2   -1    0    0  502    0  0.00000000000E+00  0.00000000000E+00  0.27358713605E+02  0.27358713605E+02  0.00000000000E+00 0.  1.
          2   -1    0    0  501    0 -0.00000000000E+00 -0.00000000000E+00 -0.24760473057E+02  0.24760473057E+02  0.00000000000E+00 0.  1.
          2    1    1    2  501    0  0.99237785680E+01  0.21374772331E+02  0.12360607500E+02  0.26611029500E+02  0.00000000000E+00 0.  1.
          2    1    1    2  502    0 -0.99237785680E+01 -0.21374772331E+02 -0.97623669525E+01  0.25508157162E+02  0.00000000000E+00 0.  1.
</event>
<event>
 4    1  0.6651744E+003  0.4496327E+02  0.7546771E-02  0.1321623E+00
          2   -1    0    0  501    0  0.00000000000E+00  0.00000000000E+00  0.30743092344E+04  0.30743092344E+04  0.00000000000E+00 0.  1.
          2   -1    0    0  502    0 -0.00000000000E+00 -0.00000000000E+00 -0.29769195156E+01  0.29769195156E+01  0.00000000000E+00 0.  1.
          2    1    1    2  501    0 -0.36298062509E+02 -0.26535758106E+02  0.17756000515E+03  0.18316454687E+03  0.00000000000E+00 0.  1.
          2    1    1    2  502    0  0.36298062509E+02  0.26535758106E+02  0.28937723097E+04  0.28941216071E+04  0.00000000000E+00 0.  1.
</event>
<event>
 4    1  0.6651744E+003  0.2049012E+02  0.7546771E-02  0.1526671E+00
          2   -1    0    0  502    0  0.00000000000E+00  0.00000000000E+00  0.11239038563E+03  0.11239038563E+03  0.00000000000E+00 0.  1.
          2   -1    0    0  501    0 -0.00000000000E+00 -0.00000000000E+00 -0.64923998635E+02  0.64923998635E+02  0.00000000000E+00 0. -1.
          2    1    1    2  501    0  0.12451999130E+01 -0.20452253737E+02  0.10980202293E+03  0.11169749077E+03  0.00000000000E+00 0.  1.
          2    1    1    2  502    0 -0.12451999130E+01  0.20452253737E+02 -0.62335635928E+02  0.65616893498E+02  0.00000000000E+00 0. -1.
</event>
<event>
 4    1  0.6651744E+003  0.3175813E+02  0.7546771E-02  0.1404910E+00
          2   -1    0    0  502    0  0.00000000000E+00  0.00000000000E+00  0.21707087118E+03  0.21707087118E+03  0.00000000000E+00 0. -1.
          2   -1    0    0  501    0 -0.00000000000E+00 -0.00000000000E+00 -0.88889839997E+03  0.88889839997E+03  0.00000000000E+00 0.  1.
          2    1    1    2  501    0  0.25644369329E+02  0.18733525780E+02  0.21562374031E+03  0.21794993933E+03  0.00000000000E+00 0. -1.
          2    1    1    2  502    0 -0.25644369329E+02 -0.18733525780E+02 -0.88745126910E+03  0.88801933182E+03  0.00000000000E+00 0.  1.
</event>
<event>
 4    1  0.6651744E+003  0.5873717E+02  0.7546771E-02  0.1264185E+00
          2   -1    0    0  502    0  0.00000000000E+00  0.00000000000E+00  0.57555075530E+02  0.57555075530E+02  0.00000000000E+00 0. -1.
          2   -1    0    0  501    0 -0.00000000000E+00 -0.00000000000E+00 -0.13658077250E+04  0.13658077250E+04  0.00000000000E+00 0. -1.
          2    1    1    2  501    0 -0.16780462895E+02  0.56289173323E+02  0.41762462524E+02  0.72070508840E+02  0.00000000000E+00 0. -1.
          2    1    1    2  502    0  0.16780462895E+02 -0.56289173323E+02 -0.13500151120E+04  0.13512922917E+04  0.00000000000E+00 0. -1.
</event>
<event>
 4    1  0.6651744E+003  0.2326659E+02  0.7546771E-02  0.1489177E+00
          2   -1    0    0  501    0  0.00000000000E+00  0.00000000000E+00  0.18232313771E+01  0.18232313771E+01  0.00000000000E+00 0.  1.
          2   -1    0    0  502    0 -0.00000000000E+00 -0.00000000000E+00 -0.15290266286E+04  0.15290266286E+04  0.00000000000E+00 0.  1.
          2    1    1    2  501    0 -0.11929734564E+02 -0.19975379535E+02 -0.14507035381E+04  0.14508901026E+04  0.00000000000E+00 0.  1.
          2    1    1    2  502    0  0.11929734564E+02  0.19975379535E+02 -0.76499859074E+02  0.79959757333E+02  0.00000000000E+00 0.  1.
</event>
<event>
 4    1  0.6651744E+003  0.2745063E+02  0.7546771E-02  0.1443133E+00
          2   -1    0    0  502    0  0.00000000000E+00  0.00000000000E+00  0.14020096663E+04  0.14020096663E+04  0.00000000000E+00 0. -1.
          2   -1    0    0  501    0 -0.00000000000E+00 -0.00000000000E+00 -0.37673349901E+01  0.37673349901E+01  0.00000000000E+00 0.  1.
          2    1    1    2  501    0  0.20549846157E+02 -0.18200027220E+02  0.13499421532E+04  0.13502212241E+04  0.00000000000E+00 0. -1.
          2    1    1    2  502    0 -0.20549846157E+02  0.18200027220E+02  0.48300178114E+02  0.55555777141E+02  0.00000000000E+00 0.  1.
</event>
<event>
 4    1  0.6651744E+003  0.2561472E+02  0.7546771E-02  0.1462043E+00
          2   -1    0    0  502    0  0.00000000000E+00  0.00000000000E+00  0.99353910234E+03  0.99353910234E+03  0.00000000000E+00 0.  1.
          2   -1    0    0  501    0 -0.00000000000E+00 -0.00000000000E+00 -0.28129003525E+02  0.28129003525E+02  0.00000000000E+00 0. -1.
          2    1    1    2  501    0 -0.12763589215E+02 -0.22208217368E+02  0.98750709823E+03  0.98783924967E+03  0.00000000000E+00 0.  1.
          2    1    1    2  502    0  0.12763589215E+02  0.22208217368E+02 -0.22096999416E+02  0.33828856196E+02  0.00000000000E+00 0. -1.
</event>
<event>
 4    1  0.6651744E+003  0.2404250E+02  0.7546771E-02  0.1479806E+00
          2   -1    0    0  501    0  0.00000000000E+00  0.00000000000E+00  0.16756287456E+02  0.16756287456E+02  0.00000000000E+00 0.  1.
          2   -1    0    0  502    0 -0.00000000000E+00 -0.00000000000E+00 -0.18978453927E+03  0.18978453927E+03  0.00000000000E+00 0. -1.
          2    1    1    2  501    0 -0.13089847943E+02 -0.20166749327E+02 -0.17992851623E+03  0.18152771924E+03  0.00000000000E+00 0. -1.
          2    1    1    2  502    0  0.13089847943E+02  0.20166749327E+02  0.69002644130E+01  0.25013107495E+02  0.00000000000E+00 0.  1.
</event>
<event>
 4    1  0.6651744E+003  0.3820935E+02  0.7546771E-02  0.1359311E+00
          2   -1    0    0  502    0  0.00000000000E+00  0.00000000000E+00  0.93046466771E+03  0.93046466771E+03  0.00000000000E+00 0. -1.
          2   -1    0    0  501    0 -0.00000000000E+00 -0.00000000000E+00 -0.47043890132E+01  0.47043890132E+01  0.00000000000E+00 0.  1.
          2    1    1    2  501    0  0.33121398366E+02  0.19050654981E+02  0.84460470534E+03  0.84546854629E+03  0.00000000000E+00 0. -1.
          2    1    1    2  502    0 -0.33121398366E+02 -0.19050654981E+02  0.81155573356E+02  0.89700510431E+02  0.00000000000E+00 0.  1.
</event>
<event>
 4    1  0.6651744E+003  0.2567401E+02  0.7546771E-02  0.1461403E+00
          2   -1    0    0  502    0  0.00000000000E+00  0.00000000000E+00  0.77804200907E+03  0.77804200907E+03  0.00000000000E+00 0.  1.
          2   -1    0    0  501    0 -0.00000000000E+00 -0.00000000000E+00 -0.16963871275E+01  0.16963871275E+01  0.00000000000E+00 0. -1.
          2    1    1    2  501    0  0.24801552758E+02 -0.66360793421E+01  0.66401392839E+03  0.66451008394E+03  0.00000000000E+00 0.  1.
          2    1    1    2  502    0 -0.24801552758E+02  0.66360793421E+01  0.11233169355E+03  0.11522831225E+03  0.00000000000E+00 0. -1.
</event>
<event>
 4    1  0.6651744E+003  0.2389414E+02  0.7546771E-02  0.1481566E+00
          2   -1    0    0  501    0  0.00000000000E+00  0.00000000000E+00  0.41155477096E+00  0.41155477096E+00  0.00000000000E+00 0. -1.
          2   -1    0    0  502    0 -0.00000000000E+00 -0.00000000000E+00 -0.19216156742E+04  0.19216156742E+04  0.00000000000E+00 0. -1.
          2    1    1    2  501    0 -0.14483323518E+02 -0.19004293427E+02 -0.14673769445E+04  0.14675714726E+04  0.00000000000E+00 0. -1.
          2    1    1    2  502    0  0.14483323518E+02  0.19004293427E+02 -0.45382717491E+03  0.45445575639E+03  0.00000000000E+00 0. -1.
</event>
<event>
 4    1  0.6651744E+003  0.2583807E+02  0.7546771E-02  0.1459642E+00
          2   -1    0    0  501    0  0.00000000000E+00  0.00000000000E+00  0.84617071790E+02  0.84617071790E+02  0.00000000000E+00 0. -1.
          2   -1    0    0  502    0 -0.00000000000E+00 -0.00000000000E+00 -0.96365052365E+03  0.96365052365E+03  0.00000000000E+00 0.  1.
          2    1    1    2  501    0  0.18528529108E+02 -0.18008317379E+02 -0.96150048413E+03  0.96184759025E+03  0.00000000000E+00 0.  1.
          2    1    1    2  502    0 -0.18528529108E+02  0.18008317379E+02  0.82467032270E+02  0.86420005191E+02  0.00000000000E+00 0. -1.
</event>
<event>
 4    1  0.6651744E+003  0.2244738E+02  0.7546771E-02  0.1499556E+00
          2   -1    0    0  501    0  0.00000000000E+00  0.00000000000E+00  0.34552972009E+03  0.34552972009E+03  0.00000000000E+00 0. -1.
          2   -1    0    0  502    0 -0.00000000000E+00 -0.00000000000E+00 -0.18548409150E+01  0.18548409150E+01  0.00000000000E+00 0.  1.
          2    1    1    2  501    0  0.22297024729E+02  0.25937831024E+01  0.91526867359E+02  0.94239336113E+02  0.00000000000E+00 0.  1.
          2    1    1    2  502    0 -0.22297024729E+02 -0.25937831024E+01  0.25214801182E+03  0.25314522489E+03  0.00000000000E+00 0. -1.
</event>
<event>
 4    1  0.6651744E+003  0.4700110E+02  0.7546771E-02  0.1311726E+00
          2   -1    0    0  502    0  0.00000000000E+00  0.00000000000E+00  0.71614227288E+02  0.71614227288E+02  0.00000000000E+00 0. -1.
          2   -1    0    0  501    0 -0.00000000000E+00 -0.00000000000E+00 -0.38922259927E+03  0.38922259927E+03  0.00000000000E+00 0. -1.
          2    1    1    2  501    0 -0.21293813499E+01  0.46952836557E+02  0.62295034888E+02  0.78037007230E+02  0.00000000000E+00 0. -1.
          2    1    1    2  502    0  0.21293813499E+01 -0.46952836557E+02 -0.37990340687E+03  0.38279981933E+03  0.00000000000E+00 0. -1.
</event>
<event>
 4    1  0.6651744E+003  0.2938218E+02  0.7546771E-02  0.1425042E+00
          2   -1    0    0  501    0  0.00000000000E+00  0.00000000000E+00  0.42337491204E+03  0.42337491204E+03  0.00000000000E+00 0.  1.
          2   -1    0    0  502    0 -0.00000000000E+00 -0.00000000000E+00 -0.43995382871E+03  0.43995382871E+03  0.00000000000E+00 0.  1.
          2    1    1    2  501    0 -0.18290726463E-01  0.29382172260E+02 -0.43895231694E+03  0.43993459620E+03  0.00000000000E+00 0.  1.
          2    1    1    2  502    0  0.18290726463E-01 -0.29382172260E+02  0.42237340028E+03  0.42339414455E+03  0.00000000000E+00 0.  1.
</event>
<event>
 4    1  0.6651744E+003  0.2491579E+02  0.7546771E-02  0.1469748E+00
          2   -1    0    0  501    0  0.00000000000E+00  0.00000000000E+00  0.13596844913E+04  0.13596844913E+04  0.00000000000E+00 0.  1.
          2   -1    0    0  502    0 -0.00000000000E+00 -0.00000000000E+00 -0.15381274493E+01  0.15381274493E+01  0.00000000000E+00 0.  1.
          2    1    1    2  501    0  0.14474453859E+02  0.20280207699E+02  0.10834806512E+03  0.11117598596E+03  0.00000000000E+00 0.  1.
          2    1    1    2  502    0 -0.14474453859E+02 -0.20280207699E+02  0.12497982987E+04  0.12500466328E+04  0.00000000000E+00 0.  1.
</event>
<event>
 4    1  0.6651744E+003  0.2133821E+02  0.7546771E-02  0.1514491E+00
          2   -1    0    0  501    0  0.00000000000E+00  0.00000000000E+00  0.63251064312E+03  0.63251064312E+03  0.00000000000E+00 0.  1.
          2   -1    0    0  502    0 -0.00000000000E+00 -0.00000000000E+00 -0.86682626546E+00  0.86682626546E+00  0.00000000000E+00 0. -1.
          2    1    1    2  501    0  0.20044766615E+02  0.73161764084E+01  0.18542255854E+03  0.18664630808E+03  0.00000000000E+00 0. -1.
          2    1    1    2  502    0 -0.20044766615E+02 -0.73161764084E+01  0.44622125832E+03  0.44673116130E+03  0.00000000000E+00 0.  1.
</event>
<event>
 4    1  0.6651744E+003  0.2158739E+02  0.7546771E-02  0.1511041E+00
          2   -1    0    0  502    0  0.00000000000E+00  0.00000000000E+00  0.54227885743E+03  0.54227885743E+03  0.00000000000E+00 0. -1.
          2   -1    0    0  501    0 -0.00000000000E+00 -0.00000000000E+00 -0.14543006883E+01  0.14543006883E+01  0.00000000000E+00 0.  1.
          2    1    1    2  501    0  0.15029181244E+02  0.15496427959E+02  0.44429789607E+03  0.44482202736E+03  0.00000000000E+00 0. -1.
          2    1    1    2  502    0 -0.15029181244E+02 -0.15496427959E+02  0.96526660669E+02  0.98911130760E+02  0.00000000000E+00 0.  1.
</event>
<event>
 4    1  0.6651744E+003  0.2352172E+02  0.7546771E-02  0.1486049E+00
          2   -1    0    0  502    0  0.00000000000E+00  0.00000000000E+00  0.28407784230E+01  0.28407784230E+01  0.00000000000E+00 0. -1.
          2   -1    0    0  501    0 -0.00000000000E+00 -0.00000000000E+00 -0.83643433583E+03  0.83643433583E+03  0.00000000000E+00 0.  1.
          2    1    1    2  501    0  0.14890431770E+02  0.18208413212E+02 -0.49247471712E+02  0.54576411938E+02  0.00000000000E+00 0. -1.
          2    1    1    2  502    0 -0.14890431770E+02 -0.18208413212E+02 -0.78434608569E+03  0.78469870231E+03  0.00000000000E+00 0.  1.
</event>
<event>
 4    1  0.6651744E+003  0.2131447E+02  0.7546771E-02  0.1514822E+00
          2   -1    0    0  502    0  0.00000000000E+00  0.00000000000E+00  0.18920919708E+04  0.18920919708E+04  0.00000000000E+00 0.  1.
          2   -1    0    0  501    0 -0.00000000000E+00 -0.00000000000E+00 -0.38574818507E+00  0.38574818507E+00  0.00000000000E+00 0. -1.
          2    1    1    2  501    0  0.17088482345E+02 -0.12739324067E+02  0.15272722145E+04  0.15274209386E+04  0.00000000000E+00 0.  1.
          2    1    1    2  502    0 -0.17088482345E+02  0.12739324067E+02  0.36443400810E+03  0.36505678033E+03  0.00000000000E+00 0. -1.
</event>
<event>
 4    1  0.6651744E+003  0.1789684E+03  0.7546771E-02  0.1071141E+00
          2   -1    0    0  502    0  0.00000000000E+00  0.00000000000E+00  0.69462649664E+03  0.69462649664E+03  0.00000000000E+00 0. -1.
          2   -1    0    0  501    0 -0.00000000000E+00 -0.00000000000E+00 -0.18849491570E+03  0.18849491570E+03  0.00000000000E+00 0.  1.
          2    1    1    2  501    0 -0.11837023182E+03 -0.13423186671E+03  0.63683624865E+03  0.66150594360E+03  0.00000000000E+00 0. -1.
          2    1    1    2  502    0  0.11837023182E+03  0.13423186671E+03 -0.13070466771E+03  0.22161546874E+03  0.00000000000E+00 0.  1.
</event>
<event>
 4    1  0.6651744E+003  0.2351172E+02  0.7546771E-02  0.1486171E+00
          2   -1    0    0  501    0  0.00000000000E+00  0.00000000000E+00  0.12713900021E+01  0.12713900021E+01  0.00000000000E+00 0.  1.
          2   -1    0    0  502    0 -0.00000000000E+00 -0.00000000000E+00 -0.48900782129E+03  0.48900782129E+03  0.00000000000E+00 0. -1.
          2    1    1    2  501    0  0.10523285792E+02 -0.21025255063E+02 -0.16225041006E+03  0.16394510197E+03  0.00000000000E+00 0.  1.
          2    1    1    2  502    0 -0.10523285792E+02  0.21025255063E+02 -0.32548602122E+03  0.32633410932E+03  0.00000000000E+00 0. -1.
</event>
<event>
 4    1  0.6651744E+003  0.2350487E+02  0.7546771E-02  0.1486254E+00
          2   -1    0    0  501    0  0.00000000000E+00  0.00000000000E+00  0.11538252995E+01  0.11538252995E+01  0.00000000000E+00 0.  1.
          2   -1    0    0  502    0 -0.00000000000E+00 -0.00000000000E+00 -0.67655818643E+03  0.67655818643E+03  0.00000000000E+00 0.  1.
          2    1    1    2  501    0  0.23357107087E+02  0.26314140679E+01 -0.52089309195E+03  0.52142314106E+03  0.00000000000E+00 0.  1.
          2    1    1    2  502    0 -0.23357107087E+02 -0.26314140679E+01 -0.15451126918E+03  0.15628887067E+03  0.00000000000E+00 0.  1.
</event>
<event>
 4    1  0.6651744E+003  0.2333281E+02  0.7546771E-02  0.1488361E+00
          2   -1    0    0  501    0  0.00000000000E+00  0.00000000000E+00  0.93350811988E+02  0.93350811988E+02  0.00000000000E+00 0. -1.
          2   -1    0    0  502    0 -0.00000000000E+00 -0.00000000000E+00 -0.38435575427E+02  0.38435575427E+02  0.00000000000E+00 0.  1.
          2    1    1    2  501    0  0.18934516728E+02 -0.13634670395E+02 -0.33230909868E+02  0.40604353599E+02  0.00000000000E+00 0.  1.
          2    1    1    2  502    0 -0.18934516728E+02  0.13634670395E+02  0.88146146429E+02  0.91182033816E+02  0.00000000000E+00 0. -1.
</event>
<event>
 4    1  0.6651744E+003  0.3039880E+02  0.7546771E-02  0.1416162E+00
          2   -1    0    0  501    0  0.00000000000E+00  0.00000000000E+00  0.38430620077E+03  0.38430620077E+03  0.00000000000E+00 0. -1.
          2   -1    0    0  502    0 -0.00000000000E+00 -0.00000000000E+00 -0.38803985654E+02  0.38803985654E+02  0.00000000000E+00 0.  1.
          2    1    1    2  501    0  0.29278818475E+01  0.30257468033E+02 -0.32144472644E+02  0.44241993461E+02  0.00000000000E+00 0.  1.
          2    1    1    2  502    0 -0.29278818475E+01 -0.30257468033E+02  0.37764668776E+03  0.37886819297E+03  0.00000000000E+00 0. -1.
</event>
<event>
 4    1  0.6651744E+003  0.4481663E+02  0.7546771E-02  0.1322359E+00
          2   -1    0    0  501    0  0.00000000000E+00  0.00000000000E+00  0.28533812849E+02  0.28533812849E+02  0.00000000000E+00 0. -1.
          2   -1    0    0  502    0 -0.00000000000E+00 -0.00000000000E+00 -0.70434118802E+02  0.70434118802E+02  0.00000000000E+00 0. -1.
          2    1    1    2  501    0 -0.37540179439E+02  0.24479901175E+02 -0.19729295669E+02  0.48967088349E+02  0.00000000000E+00 0. -1.
          2    1    1    2  502    0  0.37540179439E+02 -0.24479901175E+02 -0.22171010284E+02  0.50000843301E+02  0.00000000000E+00 0. -1.
</event>
<event>
 4    1  0.6651744E+003  0.3145773E+02  0.7546771E-02  0.1407338E+00
          2   -1    0    0  502    0  0.00000000000E+00  0.00000000000E+00  0.25568043200E+01  0.25568043200E+01  0.00000000000E+00 0.  1.
          2   -1    0    0  501    0 -0.00000000000E+00 -0.00000000000E+00 -0.98455610182E+03  0.98455610182E+03  0.00000000000E+00 0.  1.
          2    1    1    2  501    0  0.14581665601E+02 -0.27874066161E+02 -0.10650439627E+03  0.11105302770E+03  0.00000000000E+00 0.  1.
          2    1    1    2  502    0 -0.14581665601E+02  0.27874066161E+02 -0.87549490123E+03  0.87605987845E+03  0.00000000000E+00 0.  1.
</event>
<event>
 4    1  0.6651744E+003  0.2182868E+02  0.7546771E-02  0.1507755E+00
          2   -1    0    0  502    0  0.00000000000E+00  0.00000000000E+00  0.11233970434E+02  0.11233970434E+02  0.00000000000E+00 0.  1.
          2   -1    0    0  501    0 -0.00000000000E+00 -0.00000000000E+00 -0.12471653355E+03  0.12471653355E+03  0.00000000000E+00 0.  1.
          2    1    1    2  501    0 -0.81789091778E+00 -0.21813350276E+02 -0.15218127126E+01  0.21881661495E+02  0.00000000000E+00 0.  1.
          2    1    1    2  502    0  0.81789091778E+00  0.21813350276E+02 -0.11196075040E+03  0.11406884248E+03  0.00000000000E+00 0.  1.
</event>
<event>
 4    1  0.6651744E+003  0.3204243E+02  0.7546771E-02  0.1402640E+00
          2   -1    0    0  501    0  0.00000000000E+00  0.00000000000E+00  0.10022258878E+04  0.10022258878E+04  0.00000000000E+00 0.  1.
          2   -1    0    0  502    0 -0.00000000000E+00 -0.00000000000E+00 -0.89693825468E+01  0.89693825468E+01  0.00000000000E+00 0. -1.
          2    1    1    2  501    0  0.85853229136E+00  0.32030924704E+02  0.20779182839E+02  0.38190203646E+02  0.00000000000E+00 0. -1.
          2    1    1    2  502    0 -0.85853229136E+00 -0.32030924704E+02  0.97247732240E+03  0.97300506668E+03  0.00000000000E+00 0.  1.
</event>
<event>
 4    1  0.6651744E+003  0.3177569E+02  0.7546771E-02  0.1404769E+00
          2   -1    0    0  502    0  0.00000000000E+00  0.00000000000E+00  0.57208244555E+01  0.57208244555E+01  0.00000000000E+00 0. -1.
          2   -1    0    0  501    0 -0.00000000000E+00 -0.00000000000E+00 -0.61926215485E+03  0.61926215485E+03  0.00000000000E+00 0. -1.
          2    1    1    2  501    0  0.14829720706E+02 -0.28102913620E+02 -0.42536579040E+02  0.53094773063E+02  0.00000000000E+00 0. -1.
          2    1    1    2  502    0 -0.14829720706E+02  0.28102913620E+02 -0.57100475135E+03  0.57188820624E+03  0.00000000000E+00 0. -1.
</event>
<event>
 4    1  0.6651744E+003  0.2155232E+02  0.7546771E-02  0.1511523E+00
          2   -1    0    0  502    0  0.00000000000E+00  0.00000000000E+00  0.22238033611E+03  0.22238033611E+03  0.00000000000E+00 0. -1.
          2   -1    0    0  501    0 -0.00000000000E+00 -0.00000000000E+00 -0.91461256199E+01  0.91461256199E+01  0.00000000000E+00 0.  1.
          2    1    1    2  501    0  0.94259016738E+01 -0.19381813457E+02  0.20830585996E+03  0.20941784453E+03  0.00000000000E+00 0. -1.
          2    1    1    2  502    0 -0.94259016738E+01  0.19381813457E+02  0.49283505254E+01  0.22108617192E+02  0.00000000000E+00 0.  1.
</event>
<event>
 4    1  0.6651744E+003  0.4013001E+02  0.7546771E-02  0.1347726E+00
          2   -1    0    0  501    0  0.00000000000E+00  0.00000000000E+00  0.83394273864E+02  0.83394273864E+02  0.00000000000E+00 0.  1.
          2   -1    0    0  502    0 -0.00000000000E+00 -0.00000000000E+00 -0.42074735983E+02  0.42074735983E+02  0.00000000000E+00 0. -1.
          2    1    1    2  501    0  0.27464343182E+02  0.29259658012E+02 -0.25484586604E+02  0.47538215025E+02  0.00000000000E+00 0. -1.
          2    1    1    2  502    0 -0.27464343182E+02 -0.29259658012E+02  0.66804124485E+02  0.77930794822E+02  0.00000000000E+00 0.  1.
</event>
<event>
 4    1  0.6651744E+003  0.2068898E+02  0.7546771E-02  0.1523752E+00
          2   -1    0    0  502    0  0.00000000000E+00  0.00000000000E+00  0.16490049345E+02  0.16490049345E+02  0.00000000000E+00 0.  1.
          2   -1    0    0  501    0 -0.00000000000E+00 -0.00000000000E+00 -0.62979805006E+03  0.62979805006E+03  0.00000000000E+00 0. -1.
          2    1    1    2  501    0  0.12317346058E+02 -0.16622784155E+02  0.97607974944E+01  0.22875907297E+02  0.00000000000E+00 0.  1.
          2    1    1    2  502    0 -0.12317346058E+02  0.16622784155E+02 -0.62306879821E+03  0.62341219211E+03  0.00000000000E+00 0. -1.
</event>
<event>
 4    1  0.6651744E+003  0.2397550E+02  0.7546771E-02  0.1480599E+00
          2   -1    0    0  502    0  0.00000000000E+00  0.00000000000E+00  0.52914726427E+03  0.52914726427E+03  0.00000000000E+00 0.  1.
          2   -1    0    0  501    0 -0.00000000000E+00 -0.00000000000E+00 -0.11108038168E+01  0.11108038168E+01  0.00000000000E+00 0.  1.
          2    1    1    2  501    0 -0.22764860728E+02 -0.75223539130E+01  0.30337813998E+03  0.30432403866E+03  0.00000000000E+00 0.  1.
          2    1    1    2  502    0  0.22764860728E+02  0.75223539130E+01  0.22465832047E+03  0.22593402942E+03  0.00000000000E+00 0.  1.
</event>
<event>
 4    1  0.6651744E+003  0.2309587E+02  0.7546771E-02  0.1491298E+00
          2   -1    0    0  501    0  0.00000000000E+00  0.00000000000E+00  0.11350119489E+04  0.11350119489E+04  0.00000000000E+00 0. -1.
          2   -1    0    0  502    0 -0.00000000000E+00 -0.00000000000E+00 -0.59158123581E+01  0.59158123581E+01  0.00000000000E+00 0.  1.
          2    1    1    2  501    0  0.85392436808E+01 -0.21459277570E+02  0.17212627832E+02  0.28804406492E+02  0.00000000000E+00 0.  1.
          2    1    1    2  502    0 -0.85392436808E+01  0.21459277570E+02  0.11118835087E+04  0.11121233548E+04  0.00000000000E+00 0. -1.
</event>
<event>
 4    1  0.6651744E+003  0.2068338E+02  0.7546771E-02  0.1523834E+00
          2   -1    0    0  502    0  0.00000000000E+00  0.00000000000E+00  0.64841214793E+03  0.64841214793E+03  0.00000000000E+00 0.  1.
          2   -1    0    0  501    0 -0.00000000000E+00 -0.00000000000E+00 -0.29428582631E+02  0.29428582631E+02  0.00000000000E+00 0. -1.
          2    1    1    2  501    0 -0.85452969885E+01 -0.18835609384E+02  0.64459142848E+03  0.64492318299E+03  0.00000000000E+00 0.  1.
          2    1    1    2  502    0  0.85452969885E+01  0.18835609384E+02 -0.25607863183E+02  0.32917547574E+02  0.00000000000E+00 0. -1.
</event>
<event>
 4    1  0.6651744E+003  0.2822544E+02  0.7546771E-02  0.1435672E+00
          2   -1    0    0  502    0  0.00000000000E+00  0.00000000000E+00  0.18785703096E+02  0.18785703096E+02  0.00000000000E+00 0.  1.
          2   -1    0    0  501    0 -0.00000000000E+00 -0.00000000000E+00 -0.18334292339E+03  0.18334292339E+03  0.00000000000E+00 0. -1.
          2    1    1    2  501    0 -0.27415350856E+02 -0.67137224317E+01  0.63296333075E+01  0.28926454834E+02  0.00000000000E+00 0.  1.
          2    1    1    2  502    0  0.27415350856E+02  0.67137224317E+01 -0.17088685360E+03  0.17320217165E+03  0.00000000000E+00 0. -1.
</event>
<event>
 4    1  0.6651744E+003  0.2105685E+02  0.7546771E-02  0.1518455E+00
          2   -1    0    0  502    0  0.00000000000E+00  0.00000000000E+00  0.12954846964E+02  0.12954846964E+02  0.00000000000E+00 0. -1.
          2   -1    0    0  501    0 -0.00000000000E+00 -0.00000000000E+00 -0.42817776966E+02  0.42817776966E+02  0.00000000000E+00 0. -1.
          2    1    1    2  501    0 -0.21051126622E+02  0.49072434729E+00 -0.27423239327E+02  0.34574915728E+02  0.00000000000E+00 0. -1.
          2    1    1    2  502    0  0.21051126622E+02 -0.49072434729E+00 -0.24396906739E+01  0.21197708202E+02  0.00000000000E+00 0. -1.
</event>
<event>
 4    1  0.6651744E+003  0.2305644E+02  0.7546771E-02  0.1491791E+00
          2   -1    0    0  502    0  0.00000000000E+00  0.00000000000E+00  0.73261206407E+01  0.73261206407E+01  0.00000000000E+00 0. -1.
          2   -1    0    0  501    0 -0.00000000000E+00 -0.00000000000E+00 -0.33075945329E+03  0.33075945329E+03  0.00000000000E+00 0.  1.
          2    1    1    2  501    0  0.23056317284E+02 -0.75097858959E-01 -0.12362850336E+02  0.26161794182E+02  0.00000000000E+00 0. -1.
          2    1    1    2  502    0 -0.23056317284E+02  0.75097858959E-01 -0.31107048231E+03  0.31192377975E+03  0.00000000000E+00 0.  1.
</event>
<event>
 4    1  0.6651744E+003  0.2258654E+02  0.7546771E-02  0.1497756E+00
          2   -1    0    0  502    0  0.00000000000E+00  0.00000000000E+00  0.93248946853E+00  0.93248946853E+00  0.00000000000E+00 0. -1.
          2   -1    0    0  501    0 -0.00000000000E+00 -0.00000000000E+00 -0.15611738475E+04  0.15611738475E+04  0.00000000000E+00 0. -1.
          2    1    1    2  501    0 -0.22510618249E+02 -0.18503255944E+01 -0.15062490108E+03  0.15230893757E+03  0.00000000000E+00 0. -1.
          2    1    1    2  502    0  0.22510618249E+02  0.18503255944E+01 -0.14096164570E+04  0.14097973994E+04  0.00000000000E+00 0. -1.
</event>
<event>
 4    1  0.6651744E+003  0.2388926E+02  0.7546771E-02  0.1481624E+00
          2   -1    0    0  502    0  0.00000000000E+00  0.00000000000E+00  0.77517728865E+02  0.77517728865E+02  0.00000000000E+00 0.  1.
          2   -1    0    0  501    0 -0.00000000000E+00 -0.00000000000E+00 -0.99366911871E+01  0.99366911871E+01  0.00000000000E+00 0. -1.
          2    1    1    2  501    0  0.17019224469E+02  0.16764333699E+02  0.56048259541E+02  0.60927040659E+02  0.00000000000E+00 0.  1.
          2    1    1    2  502    0 -0.17019224469E+02 -0.16764333699E+02  0.11532778137E+02  0.26527379393E+02  0.00000000000E+00 0. -1.
</event>
<event>
 4    1  0.6651744E+003  0.2689863E+02  0.7546771E-02  0.1448629E+00
          2   -1    0    0  501    0  0.00000000000E+00  0.00000000000E+00  0.17936418695E+04  0.17936418695E+04  0.00000000000E+00 0. -1.
          2   -1    0    0  502    0 -0.00000000000E+00 -0.00000000000E+00 -0.52828251631E+00  0.52828251631E+00  0.00000000000E+00 0.  1.
          2    1    1    2  501    0  0.26730536457E+02  0.30024844096E+01  0.46037312470E+03  0.46115827048E+03  0.00000000000E+00 0.  1.
          2    1    1    2  502    0 -0.26730536457E+02 -0.30024844096E+01  0.13327404623E+04  0.13330118815E+04  0.00000000000E+00 0. -1.
</event>
<event>
 4    1  0.6651744E+003  0.3235399E+02  0.7546771E-02  0.1400185E+00
          2   -1    0    0  501    0  0.00000000000E+00  0.00000000000E+00  0.21102917491E+04  0.21102917491E+04  0.00000000000E+00 0. -1.
          2   -1    0    0  502    0 -0.00000000000E+00 -0.00000000000E+00 -0.40696013313E+01  0.40696013313E+01  0.00000000000E+00 0.  1.
          2    1    1    2  501    0 -0.28637365951E+02 -0.15055955845E+02  0.62452164434E+02  0.70335292546E+02  0.00000000000E+00 0.  1.
          2    1    1    2  502    0  0.28637365951E+02  0.15055955845E+02  0.20437699834E+04  0.20440260579E+04  0.00000000000E+00 0. -1.
</event>
<event>
 4    1  0.6651744E+003  0.2869390E+02  0.7546771E-02  0.1431296E+00
          2   -1    0    0  501    0  0.00000000000E+00  0.00000000000E+00  0.21301873372E+04  0.21301873372E+04  0.00000000000E+00 0.  1.
          2   -1    0    0  502    0 -0.00000000000E+00 -0.00000000000E+00 -0.65172865524E+00  0.65172865524E+00  0.00000000000E+00 0.  1.
          2    1    1    2  501    0 -0.50179756085E+01 -0.28251722581E+02  0.38511232972E+03  0.38617981098E+03  0.00000000000E+00 0.  1.
          2    1    1    2  502    0  0.50179756085E+01  0.28251722581E+02  0.17444232788E+04  0.17446592548E+04  0.00000000000E+00 0.  1.
</event>
<event>
 4    1  0.6651744E+003  0.2204406E+02  0.7546771E-02  0.1504864E+00
          2   -1    0    0  501    0  0.00000000000E+00  0.00000000000E+00  0.16158868968E+02  0.16158868968E+02  0.00000000000E+00 0.  1.
          2   -1    0    0  502    0 -0.00000000000E+00 -0.00000000000E+00 -0.41960031373E+03  0.41960031373E+03  0.00000000000E+00 0.  1.
          2    1    1    2  501    0  0.22042083725E+02  0.29529354972E+00 -0.41164747169E+03  0.41223728798E+03  0.00000000000E+00 0.  1.
          2    1    1    2  502    0 -0.22042083725E+02 -0.29529354972E+00  0.82060269272E+01  0.23521894718E+02  0.00000000000E+00 0.  1.
</event>
<event>
 4    1  0.6651744E+003  0.2299962E+02  0.7546771E-02  0.1492503E+00
          2   -1    0    0  502    0  0.00000000000E+00  0.00000000000E+00  0.28201483330E+01  0.28201483330E+01  0.00000000000E+00 0. -1.
          2   -1    0    0  501    0 -0.00000000000E+00 -0.00000000000E+00 -0.54656048802E+03  0.54656048802E+03  0.00000000000E+00 0. -1.
          2    1    1    2  501    0  0.40351591340E+01 -0.22642877219E+02 -0.49250175215E+02  0.54355884287E+02  0.00000000000E+00 0. -1.
          2    1    1    2  502    0 -0.40351591340E+01  0.22642877219E+02 -0.49449016447E+03  0.49502475207E+03  0.00000000000E+00 0. -1.
</event>
<event>
 4    1  0.6651744E+003  0.2387151E+02  0.7546771E-02  0.1481835E+00
          2   -1    0    0  501    0  0.00000000000E+00  0.00000000000E+00  0.69571941150E+00  0.69571941150E+00  0.00000000000E+00 0. -1.
          2   -1    0    0  502    0 -0.00000000000E+00 -0.00000000000E+00 -0.16048566086E+04  0.16048566086E+04  0.00000000000E+00 0.  1.
          2    1    1    2  501    0  0.72376733976E+01 -0.22747860863E+02 -0.13638086146E+04  0.13640175168E+04  0.00000000000E+00 0.  1.
          2    1    1    2  502    0 -0.72376733976E+01  0.22747860863E+02 -0.24035227465E+03  0.24153481119E+03  0.00000000000E+00 0. -1.
</event>
<event>
 4    1  0.6651744E+003  0.3686509E+02  0.7546771E-02  0.1367905E+00
          2   -1    0    0  502    0  0.00000000000E+00  0.00000000000E+00  0.17349420888E+03  0.17349420888E+03  0.00000000000E+00 0. -1.
          2   -1    0    0  501    0 -0.00000000000E+00 -0.00000000000E+00 -0.78385573543E+01  0.78385573543E+01  0.00000000000E+00 0. -1.
          2    1    1    2  501    0  0.17568360055E+02 -0.32409678504E+02  0.85172874238E+02  0.92808690551E+02  0.00000000000E+00 0. -1.
          2    1    1    2  502    0 -0.17568360055E+02  0.32409678504E+02  0.80482777289E+02  0.88524075685E+02  0.00000000000E+00 0. -1.
</event>
<event>
 4    1  0.6651744E+003  0.2207150E+02  0.7546771E-02  0.1504498E+00
          2   -1    0    0  502    0  0.00000000000E+00  0.00000000000E+00  0.27307508161E+03  0.27307508161E+03  0.00000000000E+00 0. -1.
          2   -1    0    0  501    0 -0.00000000000E+00 -0.00000000000E+00 -0.18622967846E+01  0.18622967846E+01  0.00000000000E+00 0.  1.
          2    1    1    2  501    0  0.18531423688E+02  0.11989061217E+02  0.16380323496E+03  0.16528354739E+03  0.00000000000E+00 0. -1.
          2    1    1    2  502    0 -0.18531423688E+02 -0.11989061217E+02  0.10740954986E+03  0.10965383100E+03  0.00000000000E+00 0.  1.
</event>
<event>
 4    1  0.6651744E+003  0.2872109E+02  0.7546771E-02  0.1431045E+00
          2   -1    0    0  501    0  0.00000000000E+00  0.00000000000E+00  0.23681991097E+03  0.23681991097E+03  0.00000000000E+00 0. -1.
          2   -1    0    0  502    0 -0.00000000000E+00 -0.00000000000E+00 -0.10681607627E+02  0.10681607627E+02  0.00000000000E+00 0. -1.
          2    1    1    2  501    0  0.28653605355E+02 -0.19677297969E+01  0.11480191997E+02  0.30930500621E+02  0.00000000000E+00 0. -1.
          2    1    1    2  502    0 -0.28653605355E+02  0.19677297969E+01  0.21465811135E+03  0.21657101798E+03  0.00000000000E+00 0. -1.
</event>
<event>
 4    1  0.6651744E+003  0.4707000E+02  0.7546771E-02  0.1311401E+00
          2   -1    0    0  502    0  0.00000000000E+00  0.00000000000E+00  0.17137735839E+03  0.17137735839E+03  0.00000000000E+00 0. -1.
          2   -1    0    0  501    0 -0.00000000000E+00 -0.00000000000E+00 -0.36417952988E+02  0.36417952988E+02  0.00000000000E+00 0.  1.
          2    1    1    2  501    0  0.25090117338E+02 -0.39825504454E+02  0.15092234911E+03  0.15809218910E+03  0.00000000000E+00 0. -1.
          2    1    1    2  502    0 -0.25090117338E+02  0.39825504454E+02 -0.15962943704E+02  0.49703122284E+02  0.00000000000E+00 0.  1.
</event>
<event>
 4    1  0.6651744E+003  0.5157260E+02  0.7546771E-02  0.1291494E+00
          2   -1    0    0  502    0  0.00000000000E+00  0.00000000000E+00  0.10769770479E+02  0.10769770479E+02  0.00000000000E+00 0. -1.
          2   -1    0    0  501    0 -0.00000000000E+00 -0.00000000000E+00 -0.67362915881E+03  0.67362915881E+03  0.00000000000E+00 0.  1.
          2    1    1    2  501    0  0.50357851918E+02  0.11127436038E+02 -0.59088668782E+02  0.78429610869E+02  0.00000000000E+00 0. -1.
          2    1    1    2  502    0 -0.50357851918E+02 -0.11127436038E+02 -0.60377071955E+03  0.60596931842E+03  0.00000000000E+00 0.  1.
</event>
<event>
 4    1  0.6651744E+003  0.4416051E+02  0.7546771E-02  0.1325691E+00
          2   -1    0    0  502    0  0.00000000000E+00  0.00000000000E+00  0.15079564264E+03  0.15079564264E+03  0.00000000000E+00 0. -1.
          2   -1    0    0  501    0 -0.00000000000E+00 -0.00000000000E+00 -0.71136073454E+02  0.71136073454E+02  0.00000000000E+00 0.  1.
          2    1    1    2  501    0 -0.25832762227E+02  0.35816468974E+02  0.14020340565E+03  0.14699369378E+03  0.00000000000E+00 0. -1.
          2    1    1    2  502    0  0.25832762227E+02 -0.35816468974E+02 -0.60543836469E+02  0.74938022314E+02  0.00000000000E+00 0.  1.
</event>
<event>
 4    1  0.6651744E+003  0.2252388E+02  0.7546771E-02  0.1498565E+00
          2   -1    0    0  501    0  0.00000000000E+00  0.00000000000E+00  0.92169132869E+01  0.92169132869E+01  0.00000000000E+00 0. -1.
          2   -1    0    0  502    0 -0.00000000000E+00 -0.00000000000E+00 -0.82624252061E+03  0.82624252061E+03  0.00000000000E+00 0.  1.
          2    1    1    2  501    0  0.13353761559E+02  0.18138420838E+02 -0.81208851072E+03  0.81240080902E+03  0.00000000000E+00 0.  1.
          2    1    1    2  502    0 -0.13353761559E+02 -0.18138420838E+02 -0.49370966050E+01  0.23058624876E+02  0.00000000000E+00 0. -1.
</event>
<event>
 4    1  0.6651744E+003  0.2402205E+02  0.7546771E-02  0.1480048E+00
          2   -1    0    0  501    0  0.00000000000E+00  0.00000000000E+00  0.31224308370E+03  0.31224308370E+03  0.00000000000E+00 0. -1.
          2   -1    0    0  502    0 -0.00000000000E+00 -0.00000000000E+00 -0.54531598059E+01  0.54531598059E+01  0.00000000000E+00 0.  1.
          2    1    1    2  501    0 -0.44064881362E+01 -0.23614439213E+02  0.24239213962E+02  0.34126212367E+02  0.00000000000E+00 0.  1.
          2    1    1    2  502    0  0.44064881362E+01  0.23614439213E+02  0.28255070993E+03  0.28357003114E+03  0.00000000000E+00 0. -1.
</event>
<event>
 4    1  0.6651744E+003  0.2244673E+02  0.7546771E-02  0.1499565E+00
          2   -1    0    0  501    0  0.00000000000E+00  0.00000000000E+00  0.42653031035E+01  0.42653031035E+01  0.00000000000E+00 0. -1.
          2   -1    0    0  502    0 -0.00000000000E+00 -0.00000000000E+00 -0.27506120892E+03  0.27506120892E+03  0.00000000000E+00 0. -1.
          2    1    1    2  501    0 -0.16125769871E+02  0.15614588765E+02 -0.24089093831E+03  0.24193449526E+03  0.00000000000E+00 0. -1.
          2    1    1    2  502    0  0.16125769871E+02 -0.15614588765E+02 -0.29904967509E+02  0.37392016767E+02  0.00000000000E+00 0. -1.
</event>
<event>
 4    1  0.6651744E+003  0.2402221E+02  0.7546771E-02  0.1480046E+00
          2   -1    0    0  501    0  0.00000000000E+00  0.00000000000E+00  0.80166052611E+03  0.80166052611E+03  0.00000000000E+00 0.  1.
          2   -1    0    0  502    0 -0.00000000000E+00 -0.00000000000E+00 -0.39257347899E+01  0.39257347899E+01  0.00000000000E+00 0.  1.
          2    1    1    2  501    0 -0.87629713496E+01  0.22366868450E+02  0.34871672556E+02  0.42345011725E+02  0.00000000000E+00 0.  1.
          2    1    1    2  502    0  0.87629713496E+01 -0.22366868450E+02  0.76286311876E+03  0.76324124917E+03  0.00000000000E+00 0.  1.
</event>
<event>
 4    1  0.6651744E+003  0.2627240E+02  0.7546771E-02  0.1455057E+00
          2   -1    0    0  502    0  0.00000000000E+00  0.00000000000E+00  0.99142698914E+02  0.99142698914E+02  0.00000000000E+00 0. -1.
          2   -1    0    0  501    0 -0.00000000000E+00 -0.00000000000E+00 -0.24609282804E+02  0.24609282804E+02  0.00000000000E+00 0. -1.
          2    1    1    2  501    0  0.10770672454E+02  0.23963125067E+02  0.89664225085E+02  0.93433998138E+02  0.00000000000E+00 0. -1.
          2    1    1    2  502    0 -0.10770672454E+02 -0.23963125067E+02 -0.15130808974E+02  0.30317983580E+02  0.00000000000E+00 0. -1.
</event>
<event>
 4    1  0.6651744E+003  0.2522645E+02  0.7546771E-02  0.1466286E+00
          2   -1    0    0  502    0  0.00000000000E+00  0.00000000000E+00  0.46858212338E+01  0.46858212338E+01  0.00000000000E+00 0.  1.
          2   -1    0    0  501    0 -0.00000000000E+00 -0.00000000000E+00 -0.12976116024E+04  0.12976116024E+04  0.00000000000E+00 0. -1.
          2    1    1    2  501    0 -0.10047901075E+01 -0.25206434691E+02 -0.30330405002E+02  0.39450062365E+02  0.00000000000E+00 0.  1.
          2    1    1    2  502    0  0.10047901075E+01  0.25206434691E+02 -0.12625953762E+04  0.12628473613E+04  0.00000000000E+00 0. -1.
</event>
<event>
 4    1  0.6651744E+003  0.2447104E+02  0.7546771E-02  0.1474809E+00
          2   -1    0    0  501    0  0.00000000000E+00  0.00000000000E+00  0.91771419078E+03  0.91771419078E+03  0.00000000000E+00 0.  1.
          2   -1    0    0  502    0 -0.00000000000E+00 -0.00000000000E+00 -0.87858446928E+02  0.87858446928E+02  0.00000000000E+00 0. -1.
          2    1    1    2  501    0 -0.24340091459E+02 -0.25282066043E+01 -0.85987868022E+02  0.89402155051E+02  0.00000000000E+00 0. -1.
          2    1    1    2  502    0  0.24340091459E+02  0.25282066043E+01  0.91584361187E+03  0.91617048265E+03  0.00000000000E+00 0.  1.
</event>
<event>
 4    1  0.6651744E+003  0.2165813E+02  0.7546771E-02  0.1510072E+00
          2   -1    0    0  501    0  0.00000000000E+00  0.00000000000E+00  0.70491870836E+03  0.70491870836E+03  0.00000000000E+00 0. -1.
          2   -1    0    0  502    0 -0.00000000000E+00 -0.00000000000E+00 -0.40058877267E+01  0.40058877267E+01  0.00000000000E+00 0. -1.
          2    1    1    2  501    0  0.89784628252E+01  0.19709433885E+02  0.26770642642E+02  0.34434603036E+02  0.00000000000E+00 0. -1.
          2    1    1    2  502    0 -0.89784628252E+01 -0.19709433885E+02  0.67414217800E+03  0.67448999306E+03  0.00000000000E+00 0. -1.
</event>
<event>
 4    1  0.6651744E+003  0.3419925E+02  0.7546771E-02  0.1386282E+00
          2   -1    0    0  501    0  0.00000000000E+00  0.00000000000E+00  0.62960422093E+02  0.62960422093E+02  0.00000000000E+00 0. -1.
          2   -1    0    0  502    0 -0.00000000000E+00 -0.00000000000E+00 -0.65304607976E+03  0.65304607976E+03  0.00000000000E+00 0. -1.
          2    1    1    2  501    0 -0.27388681068E+02  0.20480458055E+02 -0.64791745691E+03  0.64881940475E+03  0.00000000000E+00 0. -1.
          2    1    1    2  502    0  0.27388681068E+02 -0.20480458055E+02  0.57831799245E+02  0.67187097100E+02  0.00000000000E+00 0. -1.
</event>
<event>
 4    1  0.6651744E+003  0.3059283E+02  0.7546771E-02  0.1414513E+00
          2   -1    0    0  502    0  0.00000000000E+00  0.00000000000E+00  0.97895313589E+02  0.97895313589E+02  0.00000000000E+00 0. -1.
          2   -1    0    0  501    0 -0.00000000000E+00 -0.00000000000E+00 -0.13742429218E+03  0.13742429218E+03  0.00000000000E+00 0.  1.
          2    1    1    2  501    0 -0.29440445646E+02  0.83175179315E+01  0.93728824635E+02  0.98595200248E+02  0.00000000000E+00 0. -1.
          2    1    1    2  502    0  0.29440445646E+02 -0.83175179315E+01 -0.13325780323E+03  0.13672440553E+03  0.00000000000E+00 0.  1.
</event>
<event>
 4    1  0.6651744E+003  0.5064888E+02  0.7546771E-02  0.1295383E+00
          2   -1    0    0  501    0  0.00000000000E+00  0.00000000000E+00  0.95522576236E+01  0.95522576236E+01  0.00000000000E+00 0.  1.
          2   -1    0    0  502    0 -0.00000000000E+00 -0.00000000000E+00 -0.12252227448E+04  0.12252227448E+04  0.00000000000E+00 0. -1.
          2    1    1    2  501    0 -0.40205660757E+02  0.30802819696E+02 -0.11533805438E+04  0.11544920907E+04  0.00000000000E+00 0. -1.
          2    1    1    2  502    0  0.40205660757E+02 -0.30802819696E+02 -0.62289943433E+02  0.80282911700E+02  0.00000000000E+00 0.  1.
</event>
<event>
 4    1  0.6651744E+003  0.2276986E+02  0.7546771E-02  0.1495408E+00
          2   -1    0    0  501    0  0.00000000000E+00  0.00000000000E+00  0.14753317045E+02  0.14753317045E+02  0.00000000000E+00 0. -1.
          2   -1    0    0  502    0 -0.00000000000E+00 -0.00000000000E+00 -0.51921607491E+02  0.51921607491E+02  0.00000000000E+00 0. -1.
          2    1    1    2  501    0  0.15239878829E+02 -0.16917816664E+02 -0.37535692340E+02  0.43902102762E+02  0.00000000000E+00 0. -1.
          2    1    1    2  502    0 -0.15239878829E+02  0.16917816664E+02  0.36740189523E+00  0.22772821774E+02  0.00000000000E+00 0. -1.
</event>
<event>
 4    1  0.6651744E+003  0.2060028E+02  0.7546771E-02  0.1525049E+00
          2   -1    0    0  502    0  0.00000000000E+00  0.00000000000E+00  0.19596233146E+03  0.19596233146E+03  0.00000000000E+00 0. -1.
          2   -1    0    0  501    0 -0.00000000000E+00 -0.00000000000E+00 -0.52750743501E+02  0.52750743501E+02  0.00000000000E+00 0.  1.
          2    1    1    2  501    0 -0.19661313089E+02  0.61485063508E+01  0.19338297709E+03  0.19447711226E+03  0.00000000000E+00 0. -1.
          2    1    1    2  502    0  0.19661313089E+02 -0.61485063508E+01 -0.50171389134E+02  0.54235962703E+02  0.00000000000E+00 0.  1.
</event>
<event>
 4    1  0.6651744E+003  0.2535357E+02  0.7546771E-02  0.1464887E+00
          2   -1    0    0  502    0  0.00000000000E+00  0.00000000000E+00  0.63355310694E+03  0.63355310694E+03  0.00000000000E+00 0. -1.
          2   -1    0    0  501    0 -0.00000000000E+00 -0.00000000000E+00 -0.39480943165E+03  0.39480943165E+03  0.00000000000E+00 0. -1.
          2    1    1    2  501    0  0.25196202165E+02 -0.28204713115E+01  0.63289199753E+03  0.63339962440E+03  0.00000000000E+00 0. -1.
          2    1    1    2  502    0 -0.25196202165E+02  0.28204713115E+01 -0.39414832223E+03  0.39496291418E+03  0.00000000000E+00 0. -1.
</event>
<event>
 4    1  0.6651744E+003  0.3301726E+02  0.7546771E-02  0.1395065E+00
          2   -1    0    0  502    0  0.00000000000E+00  0.00000000000E+00  0.15217815594E+02  0.15217815594E+02  0.00000000000E+00 0.  1.
          2   -1    0    0  501    0 -0.00000000000E+00 -0.00000000000E+00 -0.92465128423E+03  0.92465128423E+03  0.00000000000E+00 0.  1.
          2    1    1    2  501    0 -0.54238970270E+01 -0.32568707008E+02 -0.33527917431E+01  0.33187053915E+02  0.00000000000E+00 0.  1.
          2    1    1    2  502    0  0.54238970270E+01  0.32568707008E+02 -0.90608067689E+03  0.90668204591E+03  0.00000000000E+00 0.  1.
</event>
<event>
 4    1  0.6651744E+003  0.2327166E+02  0.7546771E-02  0.1489115E+00
          2   -1    0    0  501    0  0.00000000000E+00  0.00000000000E+00  0.26325010237E+03  0.26325010237E+03  0.00000000000E+00 0. -1.
          2   -1    0    0  502    0 -0.00000000000E+00 -0.00000000000E+00 -0.11428875122E+02  0.11428875122E+02  0.00000000000E+00 0.  1.
          2    1    1    2  501    0 -0.17837606850E+02  0.14946233308E+02  0.15447359388E+01  0.23322871121E+02  0.00000000000E+00 0.  1.
          2    1    1    2  502    0  0.17837606850E+02 -0.14946233308E+02  0.25027649131E+03  0.25135610637E+03  0.00000000000E+00 0. -1.
</event>
<event>
 4    1  0.6651744E+003  0.4981077E+02  0.7546771E-02  0.1298995E+00
          2   -1    0    0  501    0  0.00000000000E+00  0.00000000000E+00  0.76007764620E+01  0.76007764620E+01  0.00000000000E+00 0.  1.
          2   -1    0    0  502    0 -0.00000000000E+00 -0.00000000000E+00 -0.32208615346E+04  0.32208615346E+04  0.00000000000E+00 0. -1.
          2    1    1    2  501    0  0.40307013578E+02  0.29265291264E+02 -0.31368769875E+04  0.31372724376E+04  0.00000000000E+00 0. -1.
          2    1    1    2  502    0 -0.40307013578E+02 -0.29265291264E+02 -0.76383770623E+02  0.91189873511E+02  0.00000000000E+00 0.  1.
</event>
<event>
 4    1  0.6651744E+003  0.4180386E+02  0.7546771E-02  0.1338228E+00
          2   -1    0    0  501    0  0.00000000000E+00  0.00000000000E+00  0.23263774481E+04  0.23263774481E+04  0.00000000000E+00 0. -1.
          2   -1    0    0  502    0 -0.00000000000E+00 -0.00000000000E+00 -0.29192295421E+03  0.29192295421E+03  0.00000000000E+00 0. -1.
          2    1    1    2  501    0 -0.34920908364E+02 -0.22980267988E+02 -0.29023747482E+03  0.29323259428E+03  0.00000000000E+00 0. -1.
          2    1    1    2  502    0  0.34920908364E+02  0.22980267988E+02  0.23246919688E+04  0.23250678081E+04  0.00000000000E+00 0. -1.
</event>
<event>
 4    1  0.6651744E+003  0.3241715E+02  0.7546771E-02  0.1399691E+00
          2   -1    0    0  502    0  0.00000000000E+00  0.00000000000E+00  0.16176640336E+03  0.16176640336E+03  0.00000000000E+00 0.  1.
          2   -1    0    0  501    0 -0.00000000000E+00 -0.00000000000E+00 -0.96456741548E+02  0.96456741548E+02  0.00000000000E+00 0.  1.
          2    1    1    2  501    0  0.19772958975E+02  0.25688547897E+02  0.15734288309E+03  0.16064760894E+03  0.00000000000E+00 0.  1.
          2    1    1    2  502    0 -0.19772958975E+02 -0.25688547897E+02 -0.92033221279E+02  0.97575535964E+02  0.00000000000E+00 0.  1.
</event>
<event>
 4    1  0.6651744E+003  0.2145235E+02  0.7546771E-02  0.1512903E+00
          2   -1    0    0  502    0  0.00000000000E+00  0.00000000000E+00  0.48816900623E+01  0.48816900623E+01  0.00000000000E+00 0. -1.
          2   -1    0    0  501    0 -0.00000000000E+00 -0.00000000000E+00 -0.12121860381E+04  0.12121860381E+04  0.00000000000E+00 0.  1.
          2    1    1    2  501    0  0.13830136381E+02 -0.16399103933E+02 -0.19259917487E+02  0.28829632390E+02  0.00000000000E+00 0. -1.
          2    1    1    2  502    0 -0.13830136381E+02  0.16399103933E+02 -0.11880444305E+04  0.11882380957E+04  0.00000000000E+00 0.  1.
</event>
<event>
 4    1  0.6651744E+003  0.2385959E+02  0.7546771E-02  0.1481977E+00
          2   -1    0    0  501    0  0.00000000000E+00  0.00000000000E+00  0.97273266023E+03  0.97273266023E+03  0.00000000000E+00 0. -1.
          2   -1    0    0  502    0 -0.00000000000E+00 -0.00000000000E+00 -0.98717032194E+01  0.98717032194E+01  0.00000000000E+00 0. -1.
          2    1    1    2  501    0 -0.22743432288E+02 -0.72122281893E+01  0.49140590374E+01  0.24360376104E+02  0.00000000000E+00 0. -1.
          2    1    1    2  502    0  0.22743432288E+02  0.72122281893E+01  0.95794689798E+03  0.95824398735E+03  0.00000000000E+00 0. -1.
</event>
<event>
 4    1  0.6651744E+003  0.3714593E+02  0.7546771E-02  0.1366074E+00
          2   -1    0    0  502    0  0.00000000000E+00  0.00000000000E+00  0.22737853762E+02  0.22737853762E+02  0.00000000000E+00 0. -1.
          2   -1    0    0  501    0 -0.00000000000E+00 -0.00000000000E+00 -0.44896215214E+03  0.44896215214E+03  0.00000000000E+00 0. -1.
          2    1    1    2  501    0  0.84359421801E+00 -0.37136354074E+02  0.62201457944E+01  0.37663120672E+02  0.00000000000E+00 0. -1.
          2    1    1    2  502    0 -0.84359421801E+00  0.37136354074E+02 -0.43244444417E+03  0.43403688523E+03  0.00000000000E+00 0. -1.
</event>
<event>
 4    1  0.6651744E+003  0.2366602E+02  0.7546771E-02  0.1484300E+00
          2   -1    0    0  501    0  0.00000000000E+00  0.00000000000E+00  0.48898756749E+02  0.48898756749E+02  0.00000000000E+00 0. -1.
          2   -1    0    0  502    0 -0.00000000000E+00 -0.00000000000E+00 -0.11733836439E+03  0.11733836439E+03  0.00000000000E+00 0.  1.
          2    1    1    2  501    0  0.16068457016E+02 -0.17374841415E+02 -0.11317744479E+03  0.11562531918E+03  0.00000000000E+00 0.  1.
          2    1    1    2  502    0 -0.16068457016E+02  0.17374841415E+02  0.44737837150E+02  0.50611801963E+02  0.00000000000E+00 0. -1.
</event>
<event>
 4    1  0.6651744E+003  0.2953002E+02  0.7546771E-02  0.1423725E+00
          2   -1    0    0  502    0  0.00000000000E+00  0.00000000000E+00  0.12982111265E+01  0.12982111265E+01  0.00000000000E+00 0. -1.
          2   -1    0    0  501    0 -0.00000000000E+00 -0.00000000000E+00 -0.19766889808E+04  0.19766889808E+04  0.00000000000E+00 0. -1.
          2    1    1    2  501    0 -0.42114798509E+01  0.29228167876E+02 -0.18412126090E+03  0.18647429065E+03  0.00000000000E+00 0. -1.
          2    1    1    2  502    0  0.42114798509E+01 -0.29228167876E+02 -0.17912695087E+04  0.17915129012E+04  0.00000000000E+00 0. -1.
</event>
<event>
 4    1  0.6651744E+003  0.2818054E+02  0.7546771E-02  0.1436097E+00
          2   -1    0    0  502    0  0.00000000000E+00  0.00000000000E+00  0.19518710867E+01  0.19518710867E+01  0.00000000000E+00 0. -1.
          2   -1    0    0  501    0 -0.00000000000E+00 -0.00000000000E+00 -0.59575235866E+03  0.59575235866E+03  0.00000000000E+00 0. -1.
          2    1    1    2  501    0 -0.28180395315E+02 -0.90551520531E-01 -0.12862201649E+03  0.13167295093E+03  0.00000000000E+00 0. -1.
          2    1    1    2  502    0  0.28180395315E+02  0.90551520531E-01 -0.46517847108E+03  0.46603127882E+03  0.00000000000E+00 0. -1.
</event>
<event>
 4    1  0.6651744E+003  0.2216984E+02  0.7546771E-02  0.1503194E+00
          2   -1    0    0  502    0  0.00000000000E+00  0.00000000000E+00  0.16523682730E+01  0.16523682730E+01  0.00000000000E+00 0. -1.
          2   -1    0    0  501    0 -0.00000000000E+00 -0.00000000000E+00 -0.37712224983E+03  0.37712224983E+03  0.00000000000E+00 0. -1.
          2    1    1    2  501    0 -0.19016076234E+02  0.11396958820E+02 -0.10068764544E+03  0.10309948482E+03  0.00000000000E+00 0. -1.
          2    1    1    2  502    0  0.19016076234E+02 -0.11396958820E+02 -0.27478223611E+03  0.27567513328E+03  0.00000000000E+00 0. -1.
</event>
<event>
 4    1  0.6651744E+003  0.2531629E+02  0.7546771E-02  0.1465296E+00
          2   -1    0    0  502    0  0.00000000000E+00  0.00000000000E+00  0.55737299463E+01  0.55737299463E+01  0.00000000000E+00 0.  1.
          2   -1    0    0  501    0 -0.00000000000E+00 -0.00000000000E+00 -0.11500958722E+03  0.11500958722E+03  0.00000000000E+00 0.  1.
          2    1    1    2  501    0 -0.65219492136E+01  0.24461783641E+02 -0.55534897265E+02  0.61033101631E+02  0.00000000000E+00 0.  1.
          2    1    1    2  502    0  0.65219492136E+01 -0.24461783641E+02 -0.53900960007E+02  0.59550215534E+02  0.00000000000E+00 0.  1.
</event>
<event>
 4    1  0.6651744E+003  0.2349045E+02  0.7546771E-02  0.1486430E+00
          2   -1    0    0  501    0  0.00000000000E+00  0.00000000000E+00  0.59116726846E+03  0.59116726846E+03  0.00000000000E+00 0.  1.
          2   -1    0    0  502    0 -0.00000000000E+00 -0.00000000000E+00 -0.39525668635E+01  0.39525668635E+01  0.00000000000E+00 0.  1.
          2    1    1    2  501    0 -0.19414656554E+02 -0.13223929737E+02  0.33544879945E+02  0.40951925197E+02  0.00000000000E+00 0.  1.
          2    1    1    2  502    0  0.19414656554E+02  0.13223929737E+02  0.55366982165E+03  0.55416791013E+03  0.00000000000E+00 0.  1.
</event>
<event>
 4    1  0.6651744E+003  0.2377939E+02  0.7546771E-02  0.1482937E+00
          2   -1    0    0  501    0  0.00000000000E+00  0.00000000000E+00  0.12724693377E+02  0.12724693377E+02  0.00000000000E+00 0. -1.
          2   -1    0    0  502    0 -0.00000000000E+00 -0.00000000000E+00 -0.54138402932E+03  0.54138402932E+03  0.00000000000E+00 0. -1.
          2    1    1    2  501    0 -0.23575519531E+02 -0.31071191594E+01 -0.52976999555E+03  0.53030341079E+03  0.00000000000E+00 0. -1.
          2    1    1    2  502    0  0.23575519531E+02  0.31071191594E+01  0.11106595997E+01  0.23805311915E+02  0.00000000000E+00 0. -1.
</event>
<event>
 4    1  0.6651744E+003  0.2731961E+02  0.7546771E-02  0.1444424E+00
          2   -1    0    0  502    0  0.00000000000E+00  0.00000000000E+00  0.79811276094E+02  0.79811276094E+02  0.00000000000E+00 0. -1.
          2   -1    0    0  501    0 -0.00000000000E+00 -0.00000000000E+00 -0.12185690945E+04  0.12185690945E+04  0.00000000000E+00 0. -1.
          2    1    1    2  501    0 -0.24683235892E+02  0.11708937363E+02  0.77315461596E+02  0.82000255793E+02  0.00000000000E+00 0. -1.
          2    1    1    2  502    0  0.24683235892E+02 -0.11708937363E+02 -0.12160732800E+04  0.12163801148E+04  0.00000000000E+00 0. -1.
</event>
<event>
 4    1  0.6651744E+003  0.2001984E+02  0.7546771E-02  0.1533733E+00
          2   -1    0    0  501    0  0.00000000000E+00  0.00000000000E+00  0.81949384986E+03  0.81949384986E+03  0.00000000000E+00 0.  1.
          2   -1    0    0  502    0 -0.00000000000E+00 -0.00000000000E+00 -0.20445069459E+01  0.20445069459E+01  0.00000000000E+00 0.  1.
          2    1    1    2  501    0 -0.11418537518E+02 -0.16444177051E+02  0.50439313015E+02  0.54267101040E+02  0.00000000000E+00 0.  1.
          2    1    1    2  502    0  0.11418537518E+02  0.16444177051E+02  0.76701002990E+03  0.76727125576E+03  0.00000000000E+00 0.  1.
</event>
<event>
 4    1  0.6651744E+003  0.2367282E+02  0.7546771E-02  0.1484218E+00
          2   -1    0    0  501    0  0.00000000000E+00  0.00000000000E+00  0.19417090209E+04  0.19417090209E+04  0.00000000000E+00 0. -1.
          2   -1    0    0  502    0 -0.00000000000E+00 -0.00000000000E+00 -0.58316156514E+00  0.58316156514E+00  0.00000000000E+00 0. -1.
          2    1    1    2  501    0  0.25585879870E+01  0.23534146344E+02  0.28037303805E+03  0.28137065036E+03  0.00000000000E+00 0. -1.
          2    1    1    2  502    0 -0.25585879870E+01 -0.23534146344E+02  0.16607528213E+04  0.16609215321E+04  0.00000000000E+00 0. -1.
</event>
<event>
 4    1  0.6651744E+003  0.3078901E+02  0.7546771E-02  0.1412861E+00
          2   -1    0    0  502    0  0.00000000000E+00  0.00000000000E+00  0.48075594561E+02  0.48075594561E+02  0.00000000000E+00 0. -1.
          2   -1    0    0  501    0 -0.00000000000E+00 -0.00000000000E+00 -0.95199789985E+02  0.95199789985E+02  0.00000000000E+00 0. -1.
          2    1    1    2  501    0  0.30424223011E+02 -0.47254454586E+01  0.40226664087E+02  0.50657158272E+02  0.00000000000E+00 0. -1.
          2    1    1    2  502    0 -0.30424223011E+02  0.47254454586E+01 -0.87350859512E+02  0.92618226274E+02  0.00000000000E+00 0. -1.
</event>
<event>
 4    1  0.6651744E+003  0.2729232E+02  0.7546771E-02  0.1444694E+00
          2   -1    0    0  501    0  0.00000000000E+00  0.00000000000E+00  0.39324308414E+03  0.39324308414E+03  0.00000000000E+00 0. -1.
          2   -1    0    0  502    0 -0.00000000000E+00 -0.00000000000E+00 -0.75480878032E+01  0.75480878032E+01  0.00000000000E+00 0. -1.
          2    1    1    2  501    0  0.27078726120E+02 -0.34078483384E+01  0.19409492956E+02  0.33490285985E+02  0.00000000000E+00 0. -1.
          2    1    1    2  502    0 -0.27078726120E+02  0.34078483384E+01  0.36628550338E+03  0.36730088596E+03  0.00000000000E+00 0. -1.
</event>
<event>
 4    1  0.6651744E+003  0.3422129E+02  0.7546771E-02  0.1386122E+00
          2   -1    0    0  502    0  0.00000000000E+00  0.00000000000E+00  0.21713399364E+02  0.21713399364E+02  0.00000000000E+00 0.  1.
          2   -1    0    0  501    0 -0.00000000000E+00 -0.00000000000E+00 -0.99093687701E+03  0.99093687701E+03  0.00000000000E+00 0.  1.
          2    1    1    2  501    0  0.33880285590E+02 -0.48190532274E+01  0.77415994738E+01  0.35086028389E+02  0.00000000000E+00 0.  1.
          2    1    1    2  502    0 -0.33880285590E+02  0.48190532274E+01 -0.97696507712E+03  0.97756424799E+03  0.00000000000E+00 0.  1.
</event>
<event>
 4    1  0.6651744E+003  0.2506498E+02  0.7546771E-02  0.1468078E+00
          2   -1    0    0  502    0  0.00000000000E+00  0.00000000000E+00  0.94892111014E+00  0.94892111014E+00  0.00000000000E+00 0.  1.
          2   -1    0    0  501    0 -0.00000000000E+00 -0.00000000000E+00 -0.77031427077E+03  0.77031427077E+03  0.00000000000E+00 0.  1.
          2    1    1    2  501    0  0.14399886515E+02 -0.20515761165E+02 -0.24012571441E+03  0.24143034588E+03  0.00000000000E+00 0.  1.
          2    1    1    2  502    0 -0.14399886515E+02  0.20515761165E+02 -0.52923963524E+03  0.52983284600E+03  0.00000000000E+00 0.  1.
</event>
<event>
 4    1  0.6651744E+003  0.3489715E+02  0.7546771E-02  0.1381288E+00
          2   -1    0    0  502    0  0.00000000000E+00  0.00000000000E+00  0.31379381065E+01  0.31379381065E+01  0.00000000000E+00 0. -1.
          2   -1    0    0  501    0 -0.00000000000E+00 -0.00000000000E+00 -0.43384135125E+03  0.43384135125E+03  0.00000000000E+00 0. -1.
          2    1    1    2  501    0  0.32740112702E+02 -0.12078735736E+02 -0.14440134918E+03  0.14855827302E+03  0.00000000000E+00 0. -1.
          2    1    1    2  502    0 -0.32740112702E+02  0.12078735736E+02 -0.28630206396E+03  0.28842101634E+03  0.00000000000E+00 0. -1.
</event>
<event>
 4    1  0.6651744E+003  0.5804834E+02  0.7546771E-02  0.1266612E+00
          2   -1    0    0  501    0  0.00000000000E+00  0.00000000000E+00  0.60192969483E+03  0.60192969483E+03  0.00000000000E+00 0. -1.
          2   -1    0    0  502    0 -0.00000000000E+00 -0.00000000000E+00 -0.27155133951E+02  0.27155133951E+02  0.00000000000E+00 0. -1.
          2    1    1    2  501    0  0.55698272934E+02 -0.16349668217E+02  0.71353342111E+01  0.58485231067E+02  0.00000000000E+00 0. -1.
          2    1    1    2  502    0 -0.55698272934E+02  0.16349668217E+02  0.56763922667E+03  0.57059959772E+03  0.00000000000E+00 0. -1.
</event>
<event>
 4    1  0.6651744E+003  0.2070095E+02  0.7546771E-02  0.1523578E+00
          2   -1    0    0  501    0  0.00000000000E+00  0.00000000000E+00  0.12859656823E+04  0.12859656823E+04  0.00000000000E+00 0.  1.
          2   -1    0    0  502    0 -0.00000000000E+00 -0.00000000000E+00 -0.33657788572E+00  0.33657788572E+00  0.00000000000E+00 0.  1.
          2    1    1    2  501    0  0.14228695080E+02 -0.15035744398E+02  0.70690609796E+03  0.70720913506E+03  0.00000000000E+00 0.  1.
          2    1    1    2  502    0 -0.14228695080E+02  0.15035744398E+02  0.57872300643E+03  0.57909312510E+03  0.00000000000E+00 0.  1.
</event>
<event>
 4    1  0.6651744E+003  0.2239216E+02  0.7546771E-02  0.1500275E+00
          2   -1    0    0  502    0  0.00000000000E+00  0.00000000000E+00  0.27173320562E+00  0.27173320562E+00  0.00000000000E+00 0.  1.
          2   -1    0    0  501    0 -0.00000000000E+00 -0.00000000000E+00 -0.19362713862E+04  0.19362713862E+04  0.00000000000E+00 0. -1.
          2    1    1    2  501    0 -0.11214778007E+02  0.19381367907E+02 -0.75803454169E+03  0.75836519901E+03  0.00000000000E+00 0.  1.
          2    1    1    2  502    0  0.11214778007E+02 -0.19381367907E+02 -0.11779651114E+04  0.11781779204E+04  0.00000000000E+00 0. -1.
</event>
<event>
 4    1  0.6651744E+003  0.2255140E+02  0.7546771E-02  0.1498209E+00
          2   -1    0    0  502    0  0.00000000000E+00  0.00000000000E+00  0.36990360537E+02  0.36990360537E+02  0.00000000000E+00 0.  1.
          2   -1    0    0  501    0 -0.00000000000E+00 -0.00000000000E+00 -0.10369705037E+04  0.10369705037E+04  0.00000000000E+00 0. -1.
          2    1    1    2  501    0  0.15005156901E+02  0.16834808291E+02  0.33418725120E+02  0.40315960766E+02  0.00000000000E+00 0.  1.
          2    1    1    2  502    0 -0.15005156901E+02 -0.16834808291E+02 -0.10333988683E+04  0.10336449035E+04  0.00000000000E+00 0. -1.
</event>
<event>
 4    1  0.6651744E+003  0.2143627E+02  0.7546771E-02  0.1513126E+00
          2   -1    0    0  502    0  0.00000000000E+00  0.00000000000E+00  0.69332903125E+01  0.69332903125E+01  0.00000000000E+00 0. -1.
          2   -1    0    0  501    0 -0.00000000000E+00 -0.00000000000E+00 -0.13689683829E+03  0.13689683829E+03  0.00000000000E+00 0. -1.
          2    1    1    2  501    0 -0.17374874711E+02 -0.12554978823E+02 -0.13329640955E+02  0.25242683939E+02  0.00000000000E+00 0. -1.
          2    1    1    2  502    0  0.17374874711E+02  0.12554978823E+02 -0.11663390702E+03  0.11858744466E+03  0.00000000000E+00 0. -1.
</event>
<event>
 4    1  0.6651744E+003  0.2598211E+02  0.7546771E-02  0.1458110E+00
          2   -1    0    0  502    0  0.00000000000E+00  0.00000000000E+00  0.56330737409E+02  0.56330737409E+02  0.00000000000E+00 0.  1.
          2   -1    0    0  501    0 -0.00000000000E+00 -0.00000000000E+00 -0.28452952242E+02  0.28452952242E+02  0.00000000000E+00 0. -1.
          2    1    1    2  501    0  0.20509411968E+02 -0.15950983631E+02  0.46190480032E+02  0.52996512184E+02  0.00000000000E+00 0.  1.
          2    1    1    2  502    0 -0.20509411968E+02  0.15950983631E+02 -0.18312694865E+02  0.31787177467E+02  0.00000000000E+00 0. -1.
</event>
<event>
 4    1  0.6651744E+003  0.2176723E+02  0.7546771E-02  0.1508587E+00
          2   -1    0    0  502    0  0.00000000000E+00  0.00000000000E+00  0.45616145458E+01  0.45616145458E+01  0.00000000000E+00 0. -1.
          2   -1    0    0  501    0 -0.00000000000E+00 -0.00000000000E+00 -0.13459834878E+03  0.13459834878E+03  0.00000000000E+00 0.  1.
          2    1    1    2  501    0 -0.93948285814E+00 -0.21746949097E+02 -0.31772482196E+02  0.38513673520E+02  0.00000000000E+00 0. -1.
          2    1    1    2  502    0  0.93948285814E+00  0.21746949097E+02 -0.98264252034E+02  0.10064628980E+03  0.00000000000E+00 0.  1.
</event>
<event>
 4    1  0.6651744E+003  0.3662917E+02  0.7546771E-02  0.1369458E+00
          2   -1    0    0  502    0  0.00000000000E+00  0.00000000000E+00  0.13029998130E+03  0.13029998130E+03  0.00000000000E+00 0.  1.
          2   -1    0    0  501    0 -0.00000000000E+00 -0.00000000000E+00 -0.38652340376E+03  0.38652340376E+03  0.00000000000E+00 0. -1.
          2    1    1    2  501    0  0.36600867732E+02  0.14397092584E+01  0.12683470424E+03  0.13201794758E+03  0.00000000000E+00 0.  1.
          2    1    1    2  502    0 -0.36600867732E+02 -0.14397092584E+01 -0.38305812670E+03  0.38480543748E+03  0.00000000000E+00 0. -1.
</event>
<event>
 4    1  0.6651744E+003  0.2135755E+02  0.7546771E-02  0.1514221E+00
          2   -1    0    0  501    0  0.00000000000E+00  0.00000000000E+00  0.45499433925E+01  0.45499433925E+01  0.00000000000E+00 0.  1.
          2   -1    0    0  502    0 -0.00000000000E+00 -0.00000000000E+00 -0.17347839925E+03  0.17347839925E+03  0.00000000000E+00 0.  1.
          2    1    1    2  501    0 -0.21000374746E+00  0.21356512984E+02 -0.14229617279E+03  0.14389004670E+03  0.00000000000E+00 0.  1.
          2    1    1    2  502    0  0.21000374746E+00 -0.21356512984E+02 -0.26632283058E+02  0.34138295934E+02  0.00000000000E+00 0.  1.
</event>
<event>
 4    1  0.6651744E+003  0.3004279E+02  0.7546771E-02  0.1419225E+00
          2   -1    0    0  502    0  0.00000000000E+00  0.00000000000E+00  0.77435127684E+03  0.77435127684E+03  0.00000000000E+00 0. -1.
          2   -1    0    0  501    0 -0.00000000000E+00 -0.00000000000E+00 -0.11658970698E+01  0.11658970698E+01  0.00000000000E+00 0. -1.
          2    1    1    2  501    0  0.30027351409E+02  0.96287770063E+00  0.38020603879E+03  0.38139113898E+03  0.00000000000E+00 0. -1.
          2    1    1    2  502    0 -0.30027351409E+02 -0.96287770063E+00  0.39297934098E+03  0.39412603493E+03  0.00000000000E+00 0. -1.
</event>
<event>
 4    1  0.6651744E+003  0.3004070E+02  0.7546771E-02  0.1419243E+00
          2   -1    0    0  502    0  0.00000000000E+00  0.00000000000E+00  0.52034775822E+02  0.52034775822E+02  0.00000000000E+00 0.  1.
          2   -1    0    0  501    0 -0.00000000000E+00 -0.00000000000E+00 -0.11423039856E+03  0.11423039856E+03  0.00000000000E+00 0.  1.
          2    1    1    2  501    0  0.13101240418E+02  0.27033329703E+02  0.45464302003E+02  0.54492624932E+02  0.00000000000E+00 0.  1.
          2    1    1    2  502    0 -0.13101240418E+02 -0.27033329703E+02 -0.10765992475E+03  0.11177254945E+03  0.00000000000E+00 0.  1.
</event>
<event>
 4    1  0.6651744E+003  0.2501094E+02  0.7546771E-02  0.1468681E+00
          2   -1    0    0  501    0  0.00000000000E+00  0.00000000000E+00  0.11370723647E+03  0.11370723647E+03  0.00000000000E+00 0.  1.
          2   -1    0    0  502    0 -0.00000000000E+00 -0.00000000000E+00 -0.93634496028E+01  0.93634496028E+01  0.00000000000E+00 0.  1.
          2    1    1    2  501    0 -0.36872380125E+01 -0.24737654745E+02  0.12651937311E+02  0.28028892310E+02  0.00000000000E+00 0.  1.
          2    1    1    2  502    0  0.36872380125E+01  0.24737654745E+02  0.91691849553E+02  0.95041793758E+02  0.00000000000E+00 0.  1.
</event>
<event>
 4    1  0.6651744E+003  0.4347072E+02  0.7546771E-02  0.1329266E+00
          2   -1    0    0  502    0  0.00000000000E+00  0.00000000000E+00  0.22593096364E+04  0.22593096364E+04  0.00000000000E+00 0.  1.
          2   -1    0    0  501    0 -0.00000000000E+00 -0.00000000000E+00 -0.10994045527E+01  0.10994045527E+01  0.00000000000E+00 0. -1.
          2    1    1    2  501    0  0.45255187149E+01  0.43234512566E+02  0.16818869496E+04  0.16824486365E+04  0.00000000000E+00 0.  1.
          2    1    1    2  502    0 -0.45255187149E+01 -0.43234512566E+02  0.57632328232E+03  0.57796040448E+03  0.00000000000E+00 0. -1.
</event>
<event>
 4    1  0.6651744E+003  0.2397318E+02  0.7546771E-02  0.1480626E+00
          2   -1    0    0  501    0  0.00000000000E+00  0.00000000000E+00  0.42756612027E+00  0.42756612027E+00  0.00000000000E+00 0.  1.
          2   -1    0    0  502    0 -0.00000000000E+00 -0.00000000000E+00 -0.18424295055E+04  0.18424295055E+04  0.00000000000E+00 0.  1.
          2    1    1    2  501    0 -0.16521671306E+02 -0.17370894398E+02 -0.14001847666E+04  0.14003899793E+04  0.00000000000E+00 0.  1.
          2    1    1    2  502    0  0.16521671306E+02  0.17370894398E+02 -0.44181717280E+03  0.44246709231E+03  0.00000000000E+00 0.  1.
</event>
<event>
 4    1  0.6651744E+003  0.5077366E+02  0.7546771E-02  0.1294853E+00
          2   -1    0    0  501    0  0.00000000000E+00  0.00000000000E+00  0.63752297327E+02  0.63752297327E+02  0.00000000000E+00 0. -1.
          2   -1    0    0  502    0 -0.00000000000E+00 -0.00000000000E+00 -0.16442814596E+03  0.16442814596E+03  0.00000000000E+00 0.  1.
          2    1    1    2  501    0 -0.40271073792E+02  0.30922571589E+02 -0.14941092548E+03  0.15780237473E+03  0.00000000000E+00 0.  1.
          2    1    1    2  502    0  0.40271073792E+02 -0.30922571589E+02  0.48735076848E+02  0.70378068555E+02  0.00000000000E+00 0. -1.
</event>
<event>
 4    1  0.6651744E+003  0.2272301E+02  0.7546771E-02  0.1496006E+00
          2   -1    0    0  501    0  0.00000000000E+00  0.00000000000E+00  0.14847781637E+02  0.14847781637E+02  0.00000000000E+00 0. -1.
          2   -1    0    0  502    0 -0.00000000000E+00 -0.00000000000E+00 -0.59746881264E+03  0.59746881264E+03  0.00000000000E+00 0.  1.
          2    1    1    2  501    0  0.12868482854E+02 -0.18727979534E+02 -0.58842538921E+03  0.58886396879E+03  0.00000000000E+00 0.  1.
          2    1    1    2  502    0 -0.12868482854E+02  0.18727979534E+02  0.58043582044E+01  0.23452625494E+02  0.00000000000E+00 0. -1.
</event>
<event>
 4    1  0.6651744E+003  0.2697858E+02  0.7546771E-02  0.1447823E+00
          2   -1    0    0  501    0  0.00000000000E+00  0.00000000000E+00  0.39654355428E+01  0.39654355428E+01  0.00000000000E+00 0.  1.
          2   -1    0    0  502    0 -0.00000000000E+00 -0.00000000000E+00 -0.19888993007E+04  0.19888993007E+04  0.00000000000E+00 0. -1.
          2    1    1    2  501    0 -0.25886646840E+02 -0.75977107690E+01 -0.19418083188E+04  0.19419957236E+04  0.00000000000E+00 0. -1.
          2    1    1    2  502    0  0.25886646840E+02  0.75977107690E+01 -0.43125546323E+02  0.50869012564E+02  0.00000000000E+00 0.  1.
</event>
<event>
 4    1  0.6651744E+003  0.2074789E+02  0.7546771E-02  0.1522895E+00
          2   -1    0    0  501    0  0.00000000000E+00  0.00000000000E+00  0.55965001643E+01  0.55965001643E+01  0.00000000000E+00 0.  1.
          2   -1    0    0  502    0 -0.00000000000E+00 -0.00000000000E+00 -0.97220233668E+03  0.97220233668E+03  0.00000000000E+00 0. -1.
          2    1    1    2  501    0  0.93099907265E-02  0.20747889939E+02 -0.95246352059E+03  0.95268947358E+03  0.00000000000E+00 0. -1.
          2    1    1    2  502    0 -0.93099907265E-02 -0.20747889939E+02 -0.14142315927E+02  0.25109363261E+02  0.00000000000E+00 0.  1.
</event>
<event>
 4    1  0.6651744E+003  0.2390296E+02  0.7546771E-02  0.1481461E+00
          2   -1    0    0  502    0  0.00000000000E+00  0.00000000000E+00  0.56293888805E+03  0.56293888805E+03  0.00000000000E+00 0.  1.
          2   -1    0    0  501    0 -0.00000000000E+00 -0.00000000000E+00 -0.27806737473E+02  0.27806737473E+02  0.00000000000E+00 0.  1.
          2    1    1    2  501    0 -0.15155564029E+02  0.18484060762E+02  0.55749823538E+03  0.55801042470E+03  0.00000000000E+00 0.  1.
          2    1    1    2  502    0  0.15155564029E+02 -0.18484060762E+02 -0.22366084805E+02  0.32735200821E+02  0.00000000000E+00 0.  1.
</event>
<event>
 4    1  0.6651744E+003  0.2730743E+02  0.7546771E-02  0.1444544E+00
          2   -1    0    0  502    0  0.00000000000E+00  0.00000000000E+00  0.69126912908E+02  0.69126912908E+02  0.00000000000E+00 0. -1.
          2   -1    0    0  501    0 -0.00000000000E+00 -0.00000000000E+00 -0.86047762166E+02  0.86047762166E+02  0.00000000000E+00 0.  1.
          2    1    1    2  501    0  0.12933080325E+02  0.24050597972E+02  0.64100761068E+02  0.69674984026E+02  0.00000000000E+00 0. -1.
          2    1    1    2  502    0 -0.12933080325E+02 -0.24050597972E+02 -0.81021610326E+02  0.85499691048E+02  0.00000000000E+00 0.  1.
</event>
<event>
 4    1  0.6651744E+003  0.3570669E+02  0.7546771E-02  0.1375662E+00
          2   -1    0    0  502    0  0.00000000000E+00  0.00000000000E+00  0.32661601488E+03  0.32661601488E+03  0.00000000000E+00 0. -1.
          2   -1    0    0  501    0 -0.00000000000E+00 -0.00000000000E+00 -0.76230641874E+01  0.76230641874E+01  0.00000000000E+00 0. -1.
          2    1    1    2  501    0 -0.35521907607E+02  0.36278763546E+01  0.27623241287E+03  0.27853063265E+03  0.00000000000E+00 0. -1.
          2    1    1    2  502    0  0.35521907607E+02 -0.36278763546E+01  0.42760537824E+02  0.55708446415E+02  0.00000000000E+00 0. -1.
</event>
<event>
 4    1  0.6651744E+003  0.4156256E+02  0.7546771E-02  0.1339565E+00
          2   -1    0    0  501    0  0.00000000000E+00  0.00000000000E+00  0.22995904168E+01  0.22995904168E+01  0.00000000000E+00 0. -1.
          2   -1    0    0  502    0 -0.00000000000E+00 -0.00000000000E+00 -0.21940988839E+04  0.21940988839E+04  0.00000000000E+00 0.  1.
          2    1    1    2  501    0  0.78275104700E+01  0.40818828172E+02 -0.19864764093E+04  0.19869111634E+04  0.00000000000E+00 0.  1.
          2    1    1    2  502    0 -0.78275104700E+01 -0.40818828172E+02 -0.20532288416E+03  0.20948731087E+03  0.00000000000E+00 0. -1.
</event>
<event>
 4    1  0.6651744E+003  0.2609461E+02  0.7546771E-02  0.1456921E+00
          2   -1    0    0  502    0  0.00000000000E+00  0.00000000000E+00  0.69095502810E+03  0.69095502810E+03  0.00000000000E+00 0.  1.
          2   -1    0    0  501    0 -0.00000000000E+00 -0.00000000000E+00 -0.13836355504E+03  0.13836355504E+03  0.00000000000E+00 0.  1.
          2    1    1    2  501    0 -0.23313258986E+02  0.11722659456E+02  0.68947569153E+03  0.68996931671E+03  0.00000000000E+00 0.  1.
          2    1    1    2  502    0  0.23313258986E+02 -0.11722659456E+02 -0.13688421847E+03  0.13934926643E+03  0.00000000000E+00 0.  1.
</event>
<event>
 4    1  0.6651744E+003  0.2321977E+02  0.7546771E-02  0.1489757E+00
          2   -1    0    0  502    0  0.00000000000E+00  0.00000000000E+00  0.60418630293E+02  0.60418630293E+02  0.00000000000E+00 0.  1.
          2   -1    0    0  501    0 -0.00000000000E+00 -0.00000000000E+00 -0.27543168747E+02  0.27543168747E+02  0.00000000000E+00 0.  1.
          2    1    1    2  501    0 -0.22378197565E+02  0.61946607337E+01  0.52598764263E+02  0.57495978554E+02  0.00000000000E+00 0.  1.
          2    1    1    2  502    0  0.22378197565E+02 -0.61946607337E+01 -0.19723302717E+02  0.30465820487E+02  0.00000000000E+00 0.  1.
</event>
<event>
 4    1  0.6651744E+003  0.4737863E+02  0.7546771E-02  0.1309956E+00
          2   -1    0    0  501    0  0.00000000000E+00  0.00000000000E+00  0.11943930659E+03  0.11943930659E+03  0.00000000000E+00 0. -1.
          2   -1    0    0  502    0 -0.00000000000E+00 -0.00000000000E+00 -0.14453244173E+03  0.14453244173E+03  0.00000000000E+00 0.  1.
          2    1    1    2  501    0 -0.44885526866E+02 -0.15166550302E+02 -0.13565248514E+03  0.14368831370E+03  0.00000000000E+00 0.  1.
          2    1    1    2  502    0  0.44885526866E+02  0.15166550302E+02  0.11055935001E+03  0.12028343462E+03  0.00000000000E+00 0. -1.
</event>
<event>
 4    1  0.6651744E+003  0.2124240E+02  0.7546771E-02  0.1515832E+00
          2   -1    0    0  502    0  0.00000000000E+00  0.00000000000E+00  0.35539439040E+02  0.35539439040E+02  0.00000000000E+00 0.  1.
          2   -1    0    0  501    0 -0.00000000000E+00 -0.00000000000E+00 -0.43644598709E+03  0.43644598709E+03  0.00000000000E+00 0.  1.
          2    1    1    2  501    0 -0.11079075889E+02 -0.18124398164E+02  0.32081411463E+02  0.38476703248E+02  0.00000000000E+00 0.  1.
          2    1    1    2  502    0  0.11079075889E+02  0.18124398164E+02 -0.43298795951E+03  0.43350872288E+03  0.00000000000E+00 0.  1.
</event>
<event>
 4    1  0.6651744E+003  0.2482391E+02  0.7546771E-02  0.1470783E+00
          2   -1    0    0  502    0  0.00000000000E+00  0.00000000000E+00  0.52513955030E+02  0.52513955030E+02  0.00000000000E+00 0.  1.
          2   -1    0    0  501    0 -0.00000000000E+00 -0.00000000000E+00 -0.67617923438E+03  0.67617923438E+03  0.00000000000E+00 0. -1.
          2    1    1    2  501    0 -0.11263569853E+02 -0.22121448615E+02  0.49338652456E+02  0.55231595314E+02  0.00000000000E+00 0.  1.
          2    1    1    2  502    0  0.11263569853E+02  0.22121448615E+02 -0.67300393180E+03  0.67346159409E+03  0.00000000000E+00 0. -1.
</event>
<event>
 4    1  0.6651744E+003  0.3172118E+02  0.7546771E-02  0.1405206E+00
          2   -1    0    0  501    0  0.00000000000E+00  0.00000000000E+00  0.79040993841E+02  0.79040993841E+02  0.00000000000E+00 0.  1.
          2   -1    0    0  502    0 -0.00000000000E+00 -0.00000000000E+00 -0.13902307302E+04  0.13902307302E+04  0.00000000000E+00 0.  1.
          2    1    1    2  501    0  0.27677195773E+02  0.15498590609E+02 -0.13868594157E+04  0.13872221424E+04  0.00000000000E+00 0.  1.
          2    1    1    2  502    0 -0.27677195773E+02 -0.15498590609E+02  0.75669679333E+02  0.82049581638E+02  0.00000000000E+00 0.  1.
</event>
<event>
 4    1  0.6651744E+003  0.2739424E+02  0.7546771E-02  0.1443688E+00
          2   -1    0    0  501    0  0.00000000000E+00  0.00000000000E+00  0.69355937037E+00  0.69355937037E+00  0.00000000000E+00 0. -1.
          2   -1    0    0  502    0 -0.00000000000E+00 -0.00000000000E+00 -0.20376750871E+04  0.20376750871E+04  0.00000000000E+00 0. -1.
          2    1    1    2  501    0 -0.15877593833E+02  0.22323677756E+02 -0.17164595973E+04  0.17166781859E+04  0.00000000000E+00 0. -1.
          2    1    1    2  502    0  0.15877593833E+02 -0.22323677756E+02 -0.32052193044E+03  0.32169046064E+03  0.00000000000E+00 0. -1.
</event>
<event>
 4    1  0.6651744E+003  0.2506013E+02  0.7546771E-02  0.1468132E+00
          2   -1    0    0  501    0  0.00000000000E+00  0.00000000000E+00  0.17106358936E+03  0.17106358936E+03  0.00000000000E+00 0. -1.
          2   -1    0    0  502    0 -0.00000000000E+00 -0.00000000000E+00 -0.34966157071E+02  0.34966157071E+02  0.00000000000E+00 0. -1.
          2    1    1    2  501    0  0.15979047155E+02 -0.19304919714E+02 -0.29408300076E+02  0.38637520450E+02  0.00000000000E+00 0. -1.
          2    1    1    2  502    0 -0.15979047155E+02  0.19304919714E+02  0.16550573237E+03  0.16739222599E+03  0.00000000000E+00 0. -1.
</event>
<event>
 4    1  0.6651744E+003  0.2571026E+02  0.7546771E-02  0.1461012E+00
          2   -1    0    0  502    0  0.00000000000E+00  0.00000000000E+00  0.26436817928E+03  0.26436817928E+03  0.00000000000E+00 0.  1.
          2   -1    0    0  501    0 -0.00000000000E+00 -0.00000000000E+00 -0.94292859383E+02  0.94292859383E+02  0.00000000000E+00 0. -1.
          2    1    1    2  501    0  0.24085205054E+02 -0.89955606914E+01  0.26197454882E+03  0.26323313136E+03  0.00000000000E+00 0.  1.
          2    1    1    2  502    0 -0.24085205054E+02  0.89955606914E+01 -0.91899228927E+02  0.95427907302E+02  0.00000000000E+00 0. -1.
</event>
<event>
 4    1  0.6651744E+003  0.8979555E+02  0.7546771E-02  0.1182771E+00
          2   -1    0    0  501    0  0.00000000000E+00  0.00000000000E+00  0.58159627326E+03  0.58159627326E+03  0.00000000000E+00 0. -1.
          2   -1    0    0  502    0 -0.00000000000E+00 -0.00000000000E+00 -0.60397569588E+03  0.60397569588E+03  0.00000000000E+00 0.  1.
          2    1    1    2  501    0 -0.61999612328E+02  0.64956054708E+02 -0.59713263378E+03  0.60384652297E+03  0.00000000000E+00 0.  1.
          2    1    1    2  502    0  0.61999612328E+02 -0.64956054708E+02  0.57475321117E+03  0.58172544617E+03  0.00000000000E+00 0. -1.
</event>
<event>
 4    1  0.6651744E+003  0.2096585E+02  0.7546771E-02  0.1519753E+00
          2   -1    0    0  502    0  0.00000000000E+00  0.00000000000E+00  0.21990200187E+01  0.21990200187E+01  0.00000000000E+00 0. -1.
          2   -1    0    0  501    0 -0.00000000000E+00 -0.00000000000E+00 -0.73177119242E+03  0.73177119242E+03  0.00000000000E+00 0. -1.
          2    1    1    2  501    0  0.20939291738E+02  0.10549476973E+01 -0.51913709423E+02  0.55987499312E+02  0.00000000000E+00 0. -1.
          2    1    1    2  502    0 -0.20939291738E+02 -0.10549476973E+01 -0.67765846298E+03  0.67798271313E+03  0.00000000000E+00 0. -1.
</event>
<event>
 4    1  0.6651744E+003  0.2602039E+02  0.7546771E-02  0.1457705E+00
          2   -1    0    0  501    0  0.00000000000E+00  0.00000000000E+00  0.12934390494E+04  0.12934390494E+04  0.00000000000E+00 0.  1.
          2   -1    0    0  502    0 -0.00000000000E+00 -0.00000000000E+00 -0.29732974661E+02  0.29732974661E+02  0.00000000000E+00 0. -1.
          2    1    1    2  501    0 -0.21653299592E+02 -0.14428981817E+02 -0.23883404709E+02  0.35319653452E+02  0.00000000000E+00 0. -1.
          2    1    1    2  502    0  0.21653299592E+02  0.14428981817E+02  0.12875894794E+04  0.12878523706E+04  0.00000000000E+00 0.  1.
</event>
<event>
 4    1  0.6651744E+003  0.5910154E+02  0.7546771E-02  0.1262916E+00
          2   -1    0    0  501    0  0.00000000000E+00  0.00000000000E+00  0.41356940879E+02  0.41356940879E+02  0.00000000000E+00 0.  1.
          2   -1    0    0  502    0 -0.00000000000E+00 -0.00000000000E+00 -0.26548291302E+04  0.26548291302E+04  0.00000000000E+00 0. -1.
          2    1    1    2  501    0  0.28093729160E+02  0.51997441846E+02 -0.26332119773E+04  0.26338751506E+04  0.00000000000E+00 0. -1.
          2    1    1    2  502    0 -0.28093729160E+02 -0.51997441846E+02  0.19739788005E+02  0.62310920448E+02  0.00000000000E+00 0.  1.
</event>
<event>
 4    1  0.6651744E+003  0.2241740E+02  0.7546771E-02  0.1499946E+00
          2   -1    0    0  501    0  0.00000000000E+00  0.00000000000E+00  0.39481875000E+02  0.39481875000E+02  0.00000000000E+00 0.  1.
          2   -1    0    0  502    0 -0.00000000000E+00 -0.00000000000E+00 -0.22413761331E+02  0.22413761331E+02  0.00000000000E+00 0. -1.
          2    1    1    2  501    0  0.22303972204E+02  0.22522102178E+01 -0.11809712075E+02  0.25337895063E+02  0.00000000000E+00 0. -1.
          2    1    1    2  502    0 -0.22303972204E+02 -0.22522102178E+01  0.28877825744E+02  0.36557741268E+02  0.00000000000E+00 0.  1.
</event>
<event>
 4    1  0.6651744E+003  0.4070144E+02  0.7546771E-02  0.1344424E+00
          2   -1    0    0  502    0  0.00000000000E+00  0.00000000000E+00  0.23155422287E+03  0.23155422287E+03  0.00000000000E+00 0.  1.
          2   -1    0    0  501    0 -0.00000000000E+00 -0.00000000000E+00 -0.11069287562E+02  0.11069287562E+02  0.00000000000E+00 0.  1.
          2    1    1    2  501    0 -0.17632981937E+02  0.36683582569E+02  0.18238784462E+03  0.18687411043E+03  0.00000000000E+00 0.  1.
          2    1    1    2  502    0  0.17632981937E+02 -0.36683582569E+02  0.38097090685E+02  0.55749400004E+02  0.00000000000E+00 0.  1.
</event>
<event>
 4    1  0.6651744E+003  0.2059520E+02  0.7546771E-02  0.1525124E+00
          2   -1    0    0  502    0  0.00000000000E+00  0.00000000000E+00  0.33849320018E+03  0.33849320018E+03  0.00000000000E+00 0.  1.
          2   -1    0    0  501    0 -0.00000000000E+00 -0.00000000000E+00 -0.66326447969E+01  0.66326447969E+01  0.00000000000E+00 0.  1.
          2    1    1    2  501    0  0.65643228013E+01  0.19521065072E+02  0.32133968371E+03  0.32199899789E+03  0.00000000000E+00 0.  1.
          2    1    1    2  502    0 -0.65643228013E+01 -0.19521065072E+02  0.10520871672E+02  0.23126847086E+02  0.00000000000E+00 0.  1.
</event>
<event>
 4    1  0.6651744E+003  0.2088173E+02  0.7546771E-02  0.1520960E+00
          2   -1    0    0  501    0  0.00000000000E+00  0.00000000000E+00  0.11099882452E+01  0.11099882452E+01  0.00000000000E+00 0.  1.
          2   -1    0    0  502    0 -0.00000000000E+00 -0.00000000000E+00 -0.43458970217E+03  0.43458970217E+03  0.00000000000E+00 0.  1.
          2    1    1    2  501    0  0.20313391839E+02  0.48386805410E+01 -0.28426246687E+03  0.28502841400E+03  0.00000000000E+00 0.  1.
          2    1    1    2  502    0 -0.20313391839E+02 -0.48386805410E+01 -0.14921724705E+03  0.15067127641E+03  0.00000000000E+00 0.  1.
</event>
<event>
 4    1  0.6651744E+003  0.2040222E+02  0.7546771E-02  0.1527973E+00
          2   -1    0    0  502    0  0.00000000000E+00  0.00000000000E+00  0.42630384539E+03  0.42630384539E+03  0.00000000000E+00 0. -1.
          2   -1    0    0  501    0 -0.00000000000E+00 -0.00000000000E+00 -0.44084622373E+01  0.44084622373E+01  0.00000000000E+00 0.  1.
          2    1    1    2  501    0 -0.20351340624E+02  0.14400073123E+01  0.40096369152E+03  0.40148241880E+03  0.00000000000E+00 0. -1.
          2    1    1    2  502    0  0.20351340624E+02 -0.14400073123E+01  0.20931691625E+02  0.29229888822E+02  0.00000000000E+00 0.  1.
</event>
<event>
 4    1  0.6651744E+003  0.3118351E+02  0.7546771E-02  0.1409583E+00
          2   -1    0    0  501    0  0.00000000000E+00  0.00000000000E+00  0.20294253154E+01  0.20294253154E+01  0.00000000000E+00 0.  1.
          2   -1    0    0  502    0 -0.00000000000E+00 -0.00000000000E+00 -0.14949570058E+04  0.14949570058E+04  0.00000000000E+00 0. -1.
          2    1    1    2  501    0 -0.60456086318E+01  0.30591859766E+02 -0.13634533869E+04  0.13638099389E+04  0.00000000000E+00 0. -1.
          2    1    1    2  502    0  0.60456086318E+01 -0.30591859766E+02 -0.12947419366E+03  0.13317649226E+03  0.00000000000E+00 0.  1.
</event>
<event>
 4    1  0.6651744E+003  0.2198506E+02  0.7546771E-02  0.1505652E+00
          2   -1    0    0  501    0  0.00000000000E+00  0.00000000000E+00  0.47836598645E+03  0.47836598645E+03  0.00000000000E+00 0. -1.
          2   -1    0    0  502    0 -0.00000000000E+00 -0.00000000000E+00 -0.46928913769E+01  0.46928913769E+01  0.00000000000E+00 0. -1.
          2    1    1    2  501    0 -0.20215172006E+02 -0.86423273405E+01  0.22882531341E+02  0.31732526556E+02  0.00000000000E+00 0. -1.
          2    1    1    2  502    0  0.20215172006E+02  0.86423273405E+01  0.45079056374E+03  0.45132635127E+03  0.00000000000E+00 0. -1.
</event>
<event>
 4    1  0.6651744E+003  0.5406597E+02  0.7546771E-02  0.1281445E+00
          2   -1    0    0  501    0  0.00000000000E+00  0.00000000000E+00  0.49415859526E+03  0.49415859526E+03  0.00000000000E+00 0.  1.
          2   -1    0    0  502    0 -0.00000000000E+00 -0.00000000000E+00 -0.78813657325E+01  0.78813657325E+01  0.00000000000E+00 0.  1.
          2    1    1    2  501    0 -0.19916145788E+02  0.50264061580E+02  0.11776696998E+03  0.12958467490E+03  0.00000000000E+00 0.  1.
          2    1    1    2  502    0  0.19916145788E+02 -0.50264061580E+02  0.36851025955E+03  0.37245528610E+03  0.00000000000E+00 0.  1.
</event>
<event>
 4    1  0.6651744E+003  0.5530330E+02  0.7546771E-02  0.1276683E+00
          2   -1    0    0  501    0  0.00000000000E+00  0.00000000000E+00  0.43492250172E+03  0.43492250172E+03  0.00000000000E+00 0.  1.
          2   -1    0    0  502    0 -0.00000000000E+00 -0.00000000000E+00 -0.96900863882E+01  0.96900863882E+01  0.00000000000E+00 0. -1.
          2    1    1    2  501    0 -0.55303294795E+02  0.74430206322E-02  0.32904424016E+03  0.33365935691E+03  0.00000000000E+00 0.  1.
          2    1    1    2  502    0  0.55303294795E+02 -0.74430206322E-02  0.96188175168E+02  0.11095323120E+03  0.00000000000E+00 0. -1.
</event>
<event>
 4    1  0.6651744E+003  0.2135605E+02  0.7546771E-02  0.1514242E+00
          2   -1    0    0  502    0  0.00000000000E+00  0.00000000000E+00  0.44699153920E+03  0.44699153920E+03  0.00000000000E+00 0. -1.
          2   -1    0    0  501    0 -0.00000000000E+00 -0.00000000000E+00 -0.29843531761E+02  0.29843531761E+02  0.00000000000E+00 0.  1.
          2    1    1    2  501    0 -0.20781992761E+02  0.49183014982E+01  0.44288040960E+03  0.44339501364E+03  0.00000000000E+00 0. -1.
          2    1    1    2  502    0  0.20781992761E+02 -0.49183014982E+01 -0.25732402161E+02  0.33440057323E+02  0.00000000000E+00 0.  1.
</event>
<event>
 4    1  0.6651744E+003  0.3552761E+02  0.7546771E-02  0.1376891E+00
          2   -1    0    0  501    0  0.00000000000E+00  0.00000000000E+00  0.17279701737E+04  0.17279701737E+04  0.00000000000E+00 0.  1.
          2   -1    0    0  502    0 -0.00000000000E+00 -0.00000000000E+00 -0.40519638065E+02  0.40519638065E+02  0.00000000000E+00 0. -1.
          2    1    1    2  501    0 -0.26993156142E+02 -0.23099363896E+02 -0.32513125006E+02  0.48159260673E+02  0.00000000000E+00 0. -1.
          2    1    1    2  502    0  0.26993156142E+02  0.23099363896E+02  0.17199636607E+04  0.17203305511E+04  0.00000000000E+00 0.  1.
</event>
<event>
 4    1  0.6651744E+003  0.2205201E+02  0.7546771E-02  0.1504758E+00
          2   -1    0    0  501    0  0.00000000000E+00  0.00000000000E+00  0.11201096022E+04  0.11201096022E+04  0.00000000000E+00 0.  1.
          2   -1    0    0  502    0 -0.00000000000E+00 -0.00000000000E+00 -0.16153537062E+01  0.16153537062E+01  0.00000000000E+00 0.  1.
          2    1    1    2  501    0 -0.96698436062E+01 -0.19818806146E+02  0.79639883880E+02  0.82636566100E+02  0.00000000000E+00 0.  1.
          2    1    1    2  502    0  0.96698436062E+01  0.19818806146E+02  0.10388543646E+04  0.10390883898E+04  0.00000000000E+00 0.  1.
</event>
<event>
 4    1  0.8520218E+003  0.3136943E+02  0.7546771E-02  0.1408058E+00
          2   -1    0    0  501    0  0.00000000000E+00  0.00000000000E+00  0.52615332881E+03  0.52615332881E+03  0.00000000000E+00 0.  1.
          2   -1    0    0  502    0 -0.00000000000E+00 -0.00000000000E+00 -0.75152154486E+03  0.75152154486E+03  0.00000000000E+00 0. -1.
          2    1    1    2  501    0  0.27379075403E+02 -0.15311014429E+02 -0.75072613637E+03  0.75138124329E+03  0.00000000000E+00 0. -1.
          2    1    1    2  502    0 -0.27379075403E+02  0.15311014429E+02  0.52535792032E+03  0.52629363038E+03  0.00000000000E+00 0.  1.
</event>
<event>
 4    1  0.6651744E+003  0.2138013E+02  0.7546771E-02  0.1513906E+00
          2   -1    0    0  501    0  0.00000000000E+00  0.00000000000E+00  0.25544884230E+02  0.25544884230E+02  0.00000000000E+00 0. -1.
          2   -1    0    0  502    0 -0.00000000000E+00 -0.00000000000E+00 -0.91607926267E+03  0.91607926267E+03  0.00000000000E+00 0. -1.
          2    1    1    2  501    0 -0.20671681698E+02 -0.54581546269E+01 -0.91145824366E+03  0.91170896661E+03  0.00000000000E+00 0. -1.
          2    1    1    2  502    0  0.20671681698E+02  0.54581546269E+01  0.20923865214E+02  0.29915180287E+02  0.00000000000E+00 0. -1.
</event>
<event>
 4    1  0.6651744E+003  0.2653877E+02  0.7546771E-02  0.1452297E+00
          2   -1    0    0  501    0  0.00000000000E+00  0.00000000000E+00  0.11517488059E+02  0.11517488059E+02  0.00000000000E+00 0. -1.
          2   -1    0    0  502    0 -0.00000000000E+00 -0.00000000000E+00 -0.97542792218E+02  0.97542792218E+02  0.00000000000E+00 0.  1.
          2    1    1    2  501    0  0.26446093820E+02  0.22158909752E+01 -0.76320047449E+02  0.80802572321E+02  0.00000000000E+00 0.  1.
          2    1    1    2  502    0 -0.26446093820E+02 -0.22158909752E+01 -0.97052567098E+01  0.28257707956E+02  0.00000000000E+00 0. -1.
</event>
<event>
 4    1  0.6651744E+003  0.2421210E+02  0.7546771E-02  0.1477814E+00
          2   -1    0    0  501    0  0.00000000000E+00  0.00000000000E+00  0.59114323723E+01  0.59114323723E+01  0.00000000000E+00 0.  1.
          2   -1    0    0  502    0 -0.00000000000E+00 -0.00000000000E+00 -0.11546402582E+04  0.11546402582E+04  0.00000000000E+00 0.  1.
          2    1    1    2  501    0  0.24194865040E+02 -0.91333640324E+00 -0.11291619574E+04  0.11294215120E+04  0.00000000000E+00 0.  1.
          2    1    1    2  502    0 -0.24194865040E+02  0.91333640324E+00 -0.19566868358E+02  0.31130178525E+02  0.00000000000E+00 0.  1.
</event>
<event>
 4    1  0.6651744E+003  0.3976874E+02  0.7546771E-02  0.1349846E+00
          2   -1    0    0  502    0  0.00000000000E+00  0.00000000000E+00  0.56139430632E+03  0.56139430632E+03  0.00000000000E+00 0. -1.
          2   -1    0    0  501    0 -0.00000000000E+00 -0.00000000000E+00 -0.10312197922E+02  0.10312197922E+02  0.00000000000E+00 0. -1.
          2    1    1    2  501    0 -0.36153180106E+02  0.16568049375E+02  0.51924000261E+03  0.52076072529E+03  0.00000000000E+00 0. -1.
          2    1    1    2  502    0  0.36153180106E+02 -0.16568049375E+02  0.31842105781E+02  0.50945778946E+02  0.00000000000E+00 0. -1.
</event>
<event>
 4    1  0.6651744E+003  0.2009124E+02  0.7546771E-02  0.1532645E+00
          2   -1    0    0  501    0  0.00000000000E+00  0.00000000000E+00  0.38195667880E+03  0.38195667880E+03  0.00000000000E+00 0. -1.
          2   -1    0    0  502    0 -0.00000000000E+00 -0.00000000000E+00 -0.37570128957E+01  0.37570128957E+01  0.00000000000E+00 0. -1.
          2    1    1    2  501    0  0.16754048437E+02  0.11088729375E+02  0.25602223727E+02  0.32544306998E+02  0.00000000000E+00 0. -1.
          2    1    1    2  502    0 -0.16754048437E+02 -0.11088729375E+02  0.35259744217E+03  0.35316938469E+03  0.00000000000E+00 0. -1.
</event>
<event>
 4    1  0.6651744E+003  0.2583529E+02  0.7546771E-02  0.1459672E+00
          2   -1    0    0  501    0  0.00000000000E+00  0.00000000000E+00  0.20100480391E+03  0.20100480391E+03  0.00000000000E+00 0. -1.
          2   -1    0    0  502    0 -0.00000000000E+00 -0.00000000000E+00 -0.81089515314E+01  0.81089515314E+01  0.00000000000E+00 0. -1.
          2    1    1    2  501    0 -0.25473935830E+02 -0.43059192544E+01  0.16102351938E+02  0.30442537431E+02  0.00000000000E+00 0. -1.
          2    1    1    2  502    0  0.25473935830E+02  0.43059192544E+01  0.17679350044E+03  0.17867121801E+03  0.00000000000E+00 0. -1.
</event>
<event>
 4    1  0.6651744E+003  0.2349062E+02  0.7546771E-02  0.1486428E+00
          2   -1    0    0  501    0  0.00000000000E+00  0.00000000000E+00  0.16224161434E+02  0.16224161434E+02  0.00000000000E+00 0. -1.
          2   -1    0    0  502    0 -0.00000000000E+00 -0.00000000000E+00 -0.26342186988E+03  0.26342186988E+03  0.00000000000E+00 0.  1.
          2    1    1    2  501    0 -0.22988331916E+02 -0.48317336267E+01 -0.25408344127E+03  0.25516701233E+03  0.00000000000E+00 0.  1.
          2    1    1    2  502    0  0.22988331916E+02  0.48317336267E+01  0.68857328195E+01  0.24479018988E+02  0.00000000000E+00 0. -1.
</event>
<event>
 4    1  0.6651744E+003  0.2155053E+02  0.7546771E-02  0.1511548E+00
          2   -1    0    0  501    0  0.00000000000E+00  0.00000000000E+00  0.13329249095E+04  0.13329249095E+04  0.00000000000E+00 0. -1.
          2   -1    0    0  502    0 -0.00000000000E+00 -0.00000000000E+00 -0.37834343174E+01  0.37834343174E+01  0.00000000000E+00 0.  1.
          2    1    1    2  501    0  0.12859226714E+01 -0.21512132452E+02  0.27734933175E+02  0.35123381927E+02  0.00000000000E+00 0.  1.
          2    1    1    2  502    0 -0.12859226714E+01  0.21512132452E+02  0.13014065420E+04  0.13015849619E+04  0.00000000000E+00 0. -1.
</event>
<event>
 4    1  0.6651744E+003  0.2209903E+02  0.7546771E-02  0.1504132E+00
          2   -1    0    0  501    0  0.00000000000E+00  0.00000000000E+00  0.57339221957E+02  0.57339221957E+02  0.00000000000E+00 0. -1.
          2   -1    0    0  502    0 -0.00000000000E+00 -0.00000000000E+00 -0.65339531168E+03  0.65339531168E+03  0.00000000000E+00 0. -1.
          2    1    1    2  501    0 -0.16247825190E+02 -0.14979165579E+02 -0.65107156716E+03  0.65144650800E+03  0.00000000000E+00 0. -1.
          2    1    1    2  502    0  0.16247825190E+02  0.14979165579E+02  0.55015477442E+02  0.59288025630E+02  0.00000000000E+00 0. -1.
</event>
<event>
 4    1  0.6651744E+003  0.2176317E+02  0.7546771E-02  0.1508642E+00
          2   -1    0    0  501    0  0.00000000000E+00  0.00000000000E+00  0.25347698548E+02  0.25347698548E+02  0.00000000000E+00 0. -1.
          2   -1    0    0  502    0 -0.00000000000E+00 -0.00000000000E+00 -0.25706629859E+03  0.25706629859E+03  0.00000000000E+00 0. -1.
          2    1    1    2  501    0 -0.17514026356E+02  0.12918757289E+02 -0.25183748798E+03  0.25277609808E+03  0.00000000000E+00 0. -1.
          2    1    1    2  502    0  0.17514026356E+02 -0.12918757289E+02  0.20118887934E+02  0.29637899061E+02  0.00000000000E+00 0. -1.
</event>
<event>
 4    1  0.6651744E+003  0.2213738E+02  0.7546771E-02  0.1503624E+00
          2   -1    0    0  501    0  0.00000000000E+00  0.00000000000E+00  0.43844913290E+01  0.43844913290E+01  0.00000000000E+00 0.  1.
          2   -1    0    0  502    0 -0.00000000000E+00 -0.00000000000E+00 -0.17583061797E+03  0.17583061797E+03  0.00000000000E+00 0.  1.
          2    1    1    2  501    0 -0.20498011756E+02 -0.83603184904E+01 -0.14011101452E+03  0.14184907402E+03  0.00000000000E+00 0.  1.
          2    1    1    2  502    0  0.20498011756E+02  0.83603184904E+01 -0.31335112120E+02  0.38366035276E+02  0.00000000000E+00 0.  1.
</event>
<event>
 4    1  0.6651744E+003  0.2988865E+02  0.7546771E-02  0.1420567E+00
          2   -1    0    0  501    0  0.00000000000E+00  0.00000000000E+00  0.10731658191E+03  0.10731658191E+03  0.00000000000E+00 0.  1.
          2   -1    0    0  502    0 -0.00000000000E+00 -0.00000000000E+00 -0.18545384698E+03  0.18545384698E+03  0.00000000000E+00 0.  1.
          2    1    1    2  501    0 -0.12401577709E+02  0.27194339392E+02 -0.18213081428E+03  0.18456696545E+03  0.00000000000E+00 0.  1.
          2    1    1    2  502    0  0.12401577709E+02 -0.27194339392E+02  0.10399354921E+03  0.10820346345E+03  0.00000000000E+00 0.  1.
</event>
<event>
 4    1  0.6651744E+003  0.2329991E+02  0.7546771E-02  0.1488766E+00
          2   -1    0    0  502    0  0.00000000000E+00  0.00000000000E+00  0.31067223986E+01  0.31067223986E+01  0.00000000000E+00 0. -1.
          2   -1    0    0  501    0 -0.00000000000E+00 -0.00000000000E+00 -0.11896499094E+04  0.11896499094E+04  0.00000000000E+00 0.  1.
          2    1    1    2  501    0 -0.17171564491E+02  0.15748751398E+02 -0.42432413181E+02  0.48408630285E+02  0.00000000000E+00 0. -1.
          2    1    1    2  502    0  0.17171564491E+02 -0.15748751398E+02 -0.11441107738E+04  0.11443480015E+04  0.00000000000E+00 0.  1.
</event>
<event>
 4    1  0.6651744E+003  0.4183193E+02  0.7546771E-02  0.1338073E+00
          2   -1    0    0  501    0  0.00000000000E+00  0.00000000000E+00  0.21178308664E+04  0.21178308664E+04  0.00000000000E+00 0. -1.
          2   -1    0    0  502    0 -0.00000000000E+00 -0.00000000000E+00 -0.33312442907E+02  0.33312442907E+02  0.00000000000E+00 0. -1.
          2    1    1    2  501    0 -0.40373639159E+02 -0.10948967798E+02 -0.19889556799E+02  0.46319597412E+02  0.00000000000E+00 0. -1.
          2    1    1    2  502    0  0.40373639159E+02  0.10948967798E+02  0.21044079803E+04  0.21048237119E+04  0.00000000000E+00 0. -1.
</event>
<event>
 4    1  0.6651744E+003  0.2599889E+02  0.7546771E-02  0.1457932E+00
          2   -1    0    0  502    0  0.00000000000E+00  0.00000000000E+00  0.18939297388E+02  0.18939297388E+02  0.00000000000E+00 0.  1.
          2   -1    0    0  501    0 -0.00000000000E+00 -0.00000000000E+00 -0.60532064641E+02  0.60532064641E+02  0.00000000000E+00 0.  1.
          2    1    1    2  501    0 -0.24040004216E+02  0.99005316183E+01  0.46591562483E+01  0.26413066198E+02  0.00000000000E+00 0.  1.
          2    1    1    2  502    0  0.24040004216E+02 -0.99005316183E+01 -0.46251923501E+02  0.53058295832E+02  0.00000000000E+00 0.  1.
</event>
<event>
 4    1  0.6651744E+003  0.4255344E+02  0.7546771E-02  0.1334139E+00
          2   -1    0    0  501    0  0.00000000000E+00  0.00000000000E+00  0.66409775571E+03  0.66409775571E+03  0.00000000000E+00 0.  1.
          2   -1    0    0  502    0 -0.00000000000E+00 -0.00000000000E+00 -0.29021816272E+01  0.29021816272E+01  0.00000000000E+00 0.  1.
          2    1    1    2  501    0  0.14868181934E+02 -0.39871447165E+02  0.24859101172E+03  0.25220683227E+03  0.00000000000E+00 0.  1.
          2    1    1    2  502    0 -0.14868181934E+02  0.39871447165E+02  0.41260456236E+03  0.41479310507E+03  0.00000000000E+00 0.  1.
</event>
<event>
 4    1  0.6651744E+003  0.2618315E+02  0.7546771E-02  0.1455991E+00
          2   -1    0    0  502    0  0.00000000000E+00  0.00000000000E+00  0.41409382431E+01  0.41409382431E+01  0.00000000000E+00 0.  1.
          2   -1    0    0  501    0 -0.00000000000E+00 -0.00000000000E+00 -0.57804295310E+03  0.57804295310E+03  0.00000000000E+00 0. -1.
          2    1    1    2  501    0  0.44855508498E+01 -0.25796066989E+02 -0.41052873408E+02  0.48691843809E+02  0.00000000000E+00 0.  1.
          2    1    1    2  502    0 -0.44855508498E+01  0.25796066989E+02 -0.53284914145E+03  0.53349204753E+03  0.00000000000E+00 0. -1.
</event>
<event>
 4    1  0.6651744E+003  0.2230556E+02  0.7546771E-02  0.1501407E+00
          2   -1    0    0  502    0  0.00000000000E+00  0.00000000000E+00  0.29727254480E+03  0.29727254480E+03  0.00000000000E+00 0. -1.
          2   -1    0    0  501    0 -0.00000000000E+00 -0.00000000000E+00 -0.22078578771E+03  0.22078578771E+03  0.00000000000E+00 0. -1.
          2    1    1    2  501    0  0.22058941900E+02  0.33077587571E+01  0.29628888579E+03  0.29712731620E+03  0.00000000000E+00 0. -1.
          2    1    1    2  502    0 -0.22058941900E+02 -0.33077587571E+01 -0.21980212871E+03  0.22093101632E+03  0.00000000000E+00 0. -1.
</event>
<event>
 4    1  0.6651744E+003  0.3222239E+02  0.7546771E-02  0.1401218E+00
          2   -1    0    0  502    0  0.00000000000E+00  0.00000000000E+00  0.76965987503E+01  0.76965987503E+01  0.00000000000E+00 0. -1.
          2   -1    0    0  501    0 -0.00000000000E+00 -0.00000000000E+00 -0.37921208294E+03  0.37921208294E+03  0.00000000000E+00 0.  1.
          2    1    1    2  501    0  0.19738364234E+02 -0.25469184145E+02 -0.30480225589E+02  0.44354554621E+02  0.00000000000E+00 0. -1.
          2    1    1    2  502    0 -0.19738364234E+02  0.25469184145E+02 -0.34103525860E+03  0.34255412707E+03  0.00000000000E+00 0.  1.
</event>
<event>
 4    1  0.6651744E+003  0.3606147E+02  0.7546771E-02  0.1373250E+00
          2   -1    0    0  501    0  0.00000000000E+00  0.00000000000E+00  0.30461343899E+02  0.30461343899E+02  0.00000000000E+00 0. -1.
          2   -1    0    0  502    0 -0.00000000000E+00 -0.00000000000E+00 -0.15393555682E+03  0.15393555682E+03  0.00000000000E+00 0. -1.
          2    1    1    2  501    0  0.31406944599E+02  0.17720998890E+02 -0.14011493545E+03  0.14468111524E+03  0.00000000000E+00 0. -1.
          2    1    1    2  502    0 -0.31406944599E+02 -0.17720998890E+02  0.16640722523E+02  0.39715785486E+02  0.00000000000E+00 0. -1.
</event>
<event>
 4    1  0.6651744E+003  0.2357988E+02  0.7546771E-02  0.1485342E+00
          2   -1    0    0  502    0  0.00000000000E+00  0.00000000000E+00  0.47405692563E+02  0.47405692563E+02  0.00000000000E+00 0.  1.
          2   -1    0    0  501    0 -0.00000000000E+00 -0.00000000000E+00 -0.25861003895E+03  0.25861003895E+03  0.00000000000E+00 0. -1.
          2    1    1    2  501    0  0.67559563562E+01  0.22591317530E+02  0.43895741899E+02  0.49828172061E+02  0.00000000000E+00 0.  1.
          2    1    1    2  502    0 -0.67559563562E+01 -0.22591317530E+02 -0.25510008828E+03  0.25618755945E+03  0.00000000000E+00 0. -1.
</event>
<event>
 4    1  0.6651744E+003  0.2447027E+02  0.7546771E-02  0.1474818E+00
          2   -1    0    0  502    0  0.00000000000E+00  0.00000000000E+00  0.31714469814E+01  0.31714469814E+01  0.00000000000E+00 0.  1.
          2   -1    0    0  501    0 -0.00000000000E+00 -0.00000000000E+00 -0.22278522877E+03  0.22278522877E+03  0.00000000000E+00 0. -1.
          2    1    1    2  501    0 -0.66968480372E+01  0.23536062274E+02 -0.65685713648E+02  0.70095698715E+02  0.00000000000E+00 0.  1.
          2    1    1    2  502    0  0.66968480372E+01 -0.23536062274E+02 -0.15392806815E+03  0.15586097704E+03  0.00000000000E+00 0. -1.
</event>
<event>
 4    1  0.6651744E+003  0.2755682E+02  0.7546771E-02  0.1442094E+00
          2   -1    0    0  502    0  0.00000000000E+00  0.00000000000E+00  0.23377538404E+03  0.23377538404E+03  0.00000000000E+00 0.  1.
          2   -1    0    0  501    0 -0.00000000000E+00 -0.00000000000E+00 -0.86395579962E+03  0.86395579962E+03  0.00000000000E+00 0.  1.
          2    1    1    2  501    0 -0.26677215878E+02 -0.69068275187E+01  0.23274259273E+03  0.23436828408E+03  0.00000000000E+00 0.  1.
          2    1    1    2  502    0  0.26677215878E+02  0.69068275187E+01 -0.86292300831E+03  0.86336289958E+03  0.00000000000E+00 0.  1.
</event>
<event>
 4    1  0.6651744E+003  0.2155803E+02  0.7546771E-02  0.1511445E+00
          2   -1    0    0  501    0  0.00000000000E+00  0.00000000000E+00  0.35015159262E+02  0.35015159262E+02  0.00000000000E+00 0. -1.
          2   -1    0    0  502    0 -0.00000000000E+00 -0.00000000000E+00 -0.25415306241E+03  0.25415306241E+03  0.00000000000E+00 0.  1.
          2    1    1    2  501    0 -0.11105311059E+01 -0.21529411741E+02 -0.25032708917E+03  0.25125365753E+03  0.00000000000E+00 0.  1.
          2    1    1    2  502    0  0.11105311059E+01  0.21529411741E+02  0.31189186023E+02  0.37914564142E+02  0.00000000000E+00 0. -1.
</event>
<event>
 4    1  0.6651744E+003  0.5849549E+02  0.7546771E-02  0.1265032E+00
          2   -1    0    0  501    0  0.00000000000E+00  0.00000000000E+00  0.81475256161E+03  0.81475256161E+03  0.00000000000E+00 0.  1.
          2   -1    0    0  502    0 -0.00000000000E+00 -0.00000000000E+00 -0.34626222057E+02  0.34626222057E+02  0.00000000000E+00 0.  1.
          2    1    1    2  501    0 -0.13201669730E+02 -0.56986297814E+02 -0.80393833638E+01  0.59045354661E+02  0.00000000000E+00 0.  1.
          2    1    1    2  502    0  0.13201669730E+02  0.56986297814E+02  0.78816572292E+03  0.79033342900E+03  0.00000000000E+00 0.  1.
</event>
<event>
 4    1  0.6651744E+003  0.5749240E+02  0.7546771E-02  0.1268599E+00
          2   -1    0    0  501    0  0.00000000000E+00  0.00000000000E+00  0.37236048950E+01  0.37236048950E+01  0.00000000000E+00 0.  1.
          2   -1    0    0  502    0 -0.00000000000E+00 -0.00000000000E+00 -0.32983610117E+04  0.32983610117E+04  0.00000000000E+00 0. -1.
          2    1    1    2  501    0 -0.71194678170E+01 -0.57049882419E+02 -0.30588120294E+04  0.30593522855E+04  0.00000000000E+00 0. -1.
          2    1    1    2  502    0  0.71194678170E+01  0.57049882419E+02 -0.23582537743E+03  0.24273233107E+03  0.00000000000E+00 0.  1.
</event>
<event>
 4    1  0.6651744E+003  0.3516306E+02  0.7546771E-02  0.1379420E+00
          2   -1    0    0  502    0  0.00000000000E+00  0.00000000000E+00  0.23935274467E+02  0.23935274467E+02  0.00000000000E+00 0.  1.
          2   -1    0    0  501    0 -0.00000000000E+00 -0.00000000000E+00 -0.55173086327E+02  0.55173086327E+02  0.00000000000E+00 0.  1.
          2    1    1    2  501    0 -0.30084575684E+02  0.18203279561E+02 -0.56346510430E+01  0.35611660636E+02  0.00000000000E+00 0.  1.
          2    1    1    2  502    0  0.30084575684E+02 -0.18203279561E+02 -0.25603160816E+02  0.43496700158E+02  0.00000000000E+00 0.  1.
</event>
<event>
 4    1  0.6651744E+003  0.8708198E+02  0.7546771E-02  0.1188297E+00
          2   -1    0    0  502    0  0.00000000000E+00  0.00000000000E+00  0.19746493989E+04  0.19746493989E+04  0.00000000000E+00 0.  1.
          2   -1    0    0  501    0 -0.00000000000E+00 -0.00000000000E+00 -0.59988898976E+01  0.59988898976E+01  0.00000000000E+00 0. -1.
          2    1    1    2  501    0 -0.54681147492E+02 -0.67773474008E+02  0.39027157713E+03  0.39986894801E+03  0.00000000000E+00 0. -1.
          2    1    1    2  502    0  0.54681147492E+02  0.67773474008E+02  0.15783789319E+04  0.15807793408E+04  0.00000000000E+00 0.  1.
</event>
<event>
 4    1  0.6651744E+003  0.4102861E+02  0.7546771E-02  0.1342561E+00
          2   -1    0    0  502    0  0.00000000000E+00  0.00000000000E+00  0.63672947194E+02  0.63672947194E+02  0.00000000000E+00 0.  1.
          2   -1    0    0  501    0 -0.00000000000E+00 -0.00000000000E+00 -0.81750380739E+02  0.81750380739E+02  0.00000000000E+00 0. -1.
          2    1    1    2  501    0  0.36235258022E+01 -0.40868284508E+02  0.50771139250E+02  0.65276758487E+02  0.00000000000E+00 0.  1.
          2    1    1    2  502    0 -0.36235258022E+01  0.40868284508E+02 -0.68848572795E+02  0.80146569445E+02  0.00000000000E+00 0. -1.
</event>
<event>
 4    1  0.6651744E+003  0.2288351E+02  0.7546771E-02  0.1493966E+00
          2   -1    0    0  502    0  0.00000000000E+00  0.00000000000E+00  0.59712419150E+03  0.59712419150E+03  0.00000000000E+00 0. -1.
          2   -1    0    0  501    0 -0.00000000000E+00 -0.00000000000E+00 -0.15090700681E+01  0.15090700681E+01  0.00000000000E+00 0.  1.
          2    1    1    2  501    0  0.20299388146E+02  0.10563611340E+02  0.49152642611E+03  0.49205882027E+03  0.00000000000E+00 0. -1.
          2    1    1    2  502    0 -0.20299388146E+02 -0.10563611340E+02  0.10408869533E+03  0.10657444130E+03  0.00000000000E+00 0.  1.
</event>
<event>
 4    1  0.6651744E+003  0.2525963E+02  0.7546771E-02  0.1465920E+00
          2   -1    0    0  502    0  0.00000000000E+00  0.00000000000E+00  0.46461227472E+03  0.46461227472E+03  0.00000000000E+00 0.  1.
          2   -1    0    0  501    0 -0.00000000000E+00 -0.00000000000E+00 -0.35951485438E+01  0.35951485438E+01  0.00000000000E+00 0. -1.
          2    1    1    2  501    0  0.25254559206E+02 -0.50617853041E+00  0.41454666644E+03  0.41531552780E+03  0.00000000000E+00 0.  1.
          2    1    1    2  502    0 -0.25254559206E+02  0.50617853041E+00  0.46470459735E+02  0.52891895460E+02  0.00000000000E+00 0. -1.
</event>
<event>
 4    1  0.6651744E+003  0.2226120E+02  0.7546771E-02  0.1501990E+00
          2   -1    0    0  501    0  0.00000000000E+00  0.00000000000E+00  0.37278662878E+02  0.37278662878E+02  0.00000000000E+00 0. -1.
          2   -1    0    0  502    0 -0.00000000000E+00 -0.00000000000E+00 -0.25875204960E+03  0.25875204960E+03  0.00000000000E+00 0.  1.
          2    1    1    2  501    0 -0.90591676986E+00  0.22242760569E+02 -0.25489976405E+03  0.25586998807E+03  0.00000000000E+00 0.  1.
          2    1    1    2  502    0  0.90591676986E+00 -0.22242760569E+02  0.33426377332E+02  0.40160724402E+02  0.00000000000E+00 0. -1.
</event>
<event>
 4    1  0.6651744E+003  0.2083443E+02  0.7546771E-02  0.1521642E+00
          2   -1    0    0  501    0  0.00000000000E+00  0.00000000000E+00  0.33968001426E+01  0.33968001426E+01  0.00000000000E+00 0.  1.
          2   -1    0    0  502    0 -0.00000000000E+00 -0.00000000000E+00 -0.37270639231E+03  0.37270639231E+03  0.00000000000E+00 0.  1.
          2    1    1    2  501    0 -0.16374441454E+01  0.20769980718E+02 -0.33709640145E+03  0.33773962929E+03  0.00000000000E+00 0.  1.
          2    1    1    2  502    0  0.16374441454E+01 -0.20769980718E+02 -0.32213190719E+02  0.38363563165E+02  0.00000000000E+00 0.  1.
</event>
<event>
 4    1  0.6651744E+003  0.2149959E+02  0.7546771E-02  0.1512250E+00
          2   -1    0    0  501    0  0.00000000000E+00  0.00000000000E+00  0.50465532194E+02  0.50465532194E+02  0.00000000000E+00 0. -1.
          2   -1    0    0  502    0 -0.00000000000E+00 -0.00000000000E+00 -0.10017586378E+02  0.10017586378E+02  0.00000000000E+00 0. -1.
          2    1    1    2  501    0  0.11382642282E+02  0.18239189570E+02  0.11372398378E+02  0.24322089268E+02  0.00000000000E+00 0. -1.
          2    1    1    2  502    0 -0.11382642282E+02 -0.18239189570E+02  0.29075547438E+02  0.36161029304E+02  0.00000000000E+00 0. -1.
</event>
<event>
 4    1  0.6651744E+003  0.4143953E+02  0.7546771E-02  0.1340251E+00
          2   -1    0    0  501    0  0.00000000000E+00  0.00000000000E+00  0.95864931702E+01  0.95864931702E+01  0.00000000000E+00 0.  1.
          2   -1    0    0  502    0 -0.00000000000E+00 -0.00000000000E+00 -0.47682281123E+03  0.47682281123E+03  0.00000000000E+00 0. -1.
          2    1    1    2  501    0 -0.40223902043E+02  0.99635679730E+01 -0.42578437940E+03  0.42779618129E+03  0.00000000000E+00 0. -1.
          2    1    1    2  502    0  0.40223902043E+02 -0.99635679730E+01 -0.41451938654E+02  0.58613123108E+02  0.00000000000E+00 0.  1.
</event>
<event>
 4    1  0.6651744E+003  0.2574662E+02  0.7546771E-02  0.1460622E+00
          2   -1    0    0  502    0  0.00000000000E+00  0.00000000000E+00  0.71813804122E+02  0.71813804122E+02  0.00000000000E+00 0. -1.
          2   -1    0    0  501    0 -0.00000000000E+00 -0.00000000000E+00 -0.24774642364E+02  0.24774642364E+02  0.00000000000E+00 0.  1.
          2    1    1    2  501    0 -0.43943869043E+01  0.25368834698E+02  0.61773216206E+02  0.66923976649E+02  0.00000000000E+00 0. -1.
          2    1    1    2  502    0  0.43943869043E+01 -0.25368834698E+02 -0.14734054448E+02  0.29664469836E+02  0.00000000000E+00 0.  1.
</event>
<event>
 4    1  0.6651744E+003  0.7499841E+02  0.7546771E-02  0.1215961E+00
          2   -1    0    0  501    0  0.00000000000E+00  0.00000000000E+00  0.52758685518E+02  0.52758685518E+02  0.00000000000E+00 0. -1.
          2   -1    0    0  502    0 -0.00000000000E+00 -0.00000000000E+00 -0.76976565888E+03  0.76976565888E+03  0.00000000000E+00 0. -1.
          2    1    1    2  501    0 -0.41595823015E+02 -0.62406320120E+02 -0.74022466817E+03  0.74401432825E+03  0.00000000000E+00 0. -1.
          2    1    1    2  502    0  0.41595823015E+02  0.62406320120E+02  0.23217694804E+02  0.78510016146E+02  0.00000000000E+00 0. -1.
</event>
<event>
 4    1  0.6651744E+003  0.2760830E+02  0.7546771E-02  0.1441592E+00
          2   -1    0    0  502    0  0.00000000000E+00  0.00000000000E+00  0.20575812560E+03  0.20575812560E+03  0.00000000000E+00 0.  1.
          2   -1    0    0  501    0 -0.00000000000E+00 -0.00000000000E+00 -0.25985621870E+03  0.25985621870E+03  0.00000000000E+00 0.  1.
          2    1    1    2  501    0 -0.25950904424E+02  0.94217060512E+01  0.20409275237E+03  0.20595161946E+03  0.00000000000E+00 0.  1.
          2    1    1    2  502    0  0.25950904424E+02 -0.94217060512E+01 -0.25819084547E+03  0.25966272484E+03  0.00000000000E+00 0.  1.
</event>
<event>
 4    1  0.6651744E+003  0.4621144E+02  0.7546771E-02  0.1315491E+00
          2   -1    0    0  501    0  0.00000000000E+00  0.00000000000E+00  0.41809068063E+01  0.41809068063E+01  0.00000000000E+00 0. -1.
          2   -1    0    0  502    0 -0.00000000000E+00 -0.00000000000E+00 -0.15562071779E+04  0.15562071779E+04  0.00000000000E+00 0. -1.
          2    1    1    2  501    0  0.25105903961E+02 -0.38796786707E+02 -0.14154786560E+04  0.14162327925E+04  0.00000000000E+00 0. -1.
          2    1    1    2  502    0 -0.25105903961E+02  0.38796786707E+02 -0.13654761514E+03  0.14415529221E+03  0.00000000000E+00 0. -1.
</event>
<event>
 4    1  0.6651744E+003  0.2109686E+02  0.7546771E-02  0.1517886E+00
          2   -1    0    0  502    0  0.00000000000E+00  0.00000000000E+00  0.20389666765E+02  0.20389666765E+02  0.00000000000E+00 0.  1.
          2   -1    0    0  501    0 -0.00000000000E+00 -0.00000000000E+00 -0.14622392713E+04  0.14622392713E+04  0.00000000000E+00 0. -1.
          2    1    1    2  501    0 -0.81609523110E+01  0.19454470352E+02  0.14835619589E+02  0.25790951279E+02  0.00000000000E+00 0.  1.
          2    1    1    2  502    0  0.81609523110E+01 -0.19454470352E+02 -0.14566852241E+04  0.14568379868E+04  0.00000000000E+00 0. -1.
</event>
<event>
 4    1  0.6651744E+003  0.2591435E+02  0.7546771E-02  0.1458829E+00
          2   -1    0    0  502    0  0.00000000000E+00  0.00000000000E+00  0.59500358402E+03  0.59500358402E+03  0.00000000000E+00 0. -1.
          2   -1    0    0  501    0 -0.00000000000E+00 -0.00000000000E+00 -0.40728310914E+02  0.40728310914E+02  0.00000000000E+00 0. -1.
          2    1    1    2  501    0 -0.21774651900E+02 -0.14050553333E+02  0.59056832302E+03  0.59113661506E+03  0.00000000000E+00 0. -1.
          2    1    1    2  502    0  0.21774651900E+02  0.14050553333E+02 -0.36293049916E+02  0.44595279868E+02  0.00000000000E+00 0. -1.
</event>
<event>
 4    1  0.6651744E+003  0.2140720E+02  0.7546771E-02  0.1513530E+00
          2   -1    0    0  501    0  0.00000000000E+00  0.00000000000E+00  0.74170955896E+02  0.74170955896E+02  0.00000000000E+00 0. -1.
          2   -1    0    0  502    0 -0.00000000000E+00 -0.00000000000E+00 -0.99101356943E+03  0.99101356943E+03  0.00000000000E+00 0.  1.
          2    1    1    2  501    0  0.26432046409E+01 -0.21243393613E+02 -0.98935073236E+03  0.98958230579E+03  0.00000000000E+00 0.  1.
          2    1    1    2  502    0 -0.26432046409E+01  0.21243393613E+02  0.72508118829E+02  0.75602219538E+02  0.00000000000E+00 0. -1.
</event>
<event>
 4    1  0.6651744E+003  0.3747855E+02  0.7546771E-02  0.1363930E+00
          2   -1    0    0  501    0  0.00000000000E+00  0.00000000000E+00  0.37506782058E+01  0.37506782058E+01  0.00000000000E+00 0. -1.
          2   -1    0    0  502    0 -0.00000000000E+00 -0.00000000000E+00 -0.81314702603E+03  0.81314702603E+03  0.00000000000E+00 0.  1.
          2    1    1    2  501    0  0.13110446532E+02 -0.35110650604E+02 -0.70468975829E+03  0.70568569281E+03  0.00000000000E+00 0.  1.
          2    1    1    2  502    0 -0.13110446532E+02  0.35110650604E+02 -0.10470658953E+03  0.11121201143E+03  0.00000000000E+00 0. -1.
</event>
<event>
 4    1  0.6651744E+003  0.3626595E+02  0.7546771E-02  0.1371875E+00
          2   -1    0    0  501    0  0.00000000000E+00  0.00000000000E+00  0.14668057632E+03  0.14668057632E+03  0.00000000000E+00 0.  1.
          2   -1    0    0  502    0 -0.00000000000E+00 -0.00000000000E+00 -0.23924643059E+02  0.23924643059E+02  0.00000000000E+00 0. -1.
          2    1    1    2  501    0 -0.34973746914E+02 -0.95946028030E+01 -0.60713625808E+01  0.36770651609E+02  0.00000000000E+00 0. -1.
          2    1    1    2  502    0  0.34973746914E+02  0.95946028030E+01  0.12882729584E+03  0.13383456777E+03  0.00000000000E+00 0.  1.
</event>
<event>
 4    1  0.6651744E+003  0.4956882E+02  0.7546771E-02  0.1300053E+00
          2   -1    0    0  502    0  0.00000000000E+00  0.00000000000E+00  0.50383274270E+02  0.50383274270E+02  0.00000000000E+00 0. -1.
          2   -1    0    0  501    0 -0.00000000000E+00 -0.00000000000E+00 -0.12896424424E+04  0.12896424424E+04  0.00000000000E+00 0. -1.
          2    1    1    2  501    0  0.39194382301E+02  0.30345816427E+02  0.37593001512E+02  0.62211750829E+02  0.00000000000E+00 0. -1.
          2    1    1    2  502    0 -0.39194382301E+02 -0.30345816427E+02 -0.12768521696E+04  0.12778139658E+04  0.00000000000E+00 0. -1.
</event>
<event>
 4    1  0.6651744E+003  0.2166521E+02  0.7546771E-02  0.1509976E+00
          2   -1    0    0  502    0  0.00000000000E+00  0.00000000000E+00  0.25810681665E+02  0.25810681665E+02  0.00000000000E+00 0. -1.
          2   -1    0    0  501    0 -0.00000000000E+00 -0.00000000000E+00 -0.36965356268E+03  0.36965356268E+03  0.00000000000E+00 0. -1.
          2    1    1    2  501    0  0.15993136050E+02  0.14615097576E+02  0.20885508055E+02  0.30092954734E+02  0.00000000000E+00 0. -1.
          2    1    1    2  502    0 -0.15993136050E+02 -0.14615097576E+02 -0.36472838907E+03  0.36537128961E+03  0.00000000000E+00 0. -1.
</event>
<event>
 4    1  0.6651744E+003  0.2955800E+02  0.7546771E-02  0.1423477E+00
          2   -1    0    0  501    0  0.00000000000E+00  0.00000000000E+00  0.17666318981E+03  0.17666318981E+03  0.00000000000E+00 0. -1.
          2   -1    0    0  502    0 -0.00000000000E+00 -0.00000000000E+00 -0.59570787146E+02  0.59570787146E+02  0.00000000000E+00 0.  1.
          2    1    1    2  501    0 -0.28581931099E+02 -0.75331459448E+01 -0.54561675229E+02  0.62053617758E+02  0.00000000000E+00 0.  1.
          2    1    1    2  502    0  0.28581931099E+02  0.75331459448E+01  0.17165407789E+03  0.17418035919E+03  0.00000000000E+00 0. -1.
</event>
<event>
 4    1  0.6651744E+003  0.2290456E+02  0.7546771E-02  0.1493700E+00
          2   -1    0    0  502    0  0.00000000000E+00  0.00000000000E+00  0.86247606257E+02  0.86247606257E+02  0.00000000000E+00 0. -1.
          2   -1    0    0  501    0 -0.00000000000E+00 -0.00000000000E+00 -0.18263754069E+02  0.18263754069E+02  0.00000000000E+00 0.  1.
          2    1    1    2  501    0 -0.21853874337E+02  0.68576310572E+01  0.76667639360E+02  0.80015909995E+02  0.00000000000E+00 0. -1.
          2    1    1    2  502    0  0.21853874337E+02 -0.68576310572E+01 -0.86837871719E+01  0.24495450331E+02  0.00000000000E+00 0.  1.
</event>
<event>
 4    1  0.6651744E+003  0.3079633E+02  0.7546771E-02  0.1412800E+00
          2   -1    0    0  501    0  0.00000000000E+00  0.00000000000E+00  0.19963558747E+04  0.19963558747E+04  0.00000000000E+00 0. -1.
          2   -1    0    0  502    0 -0.00000000000E+00 -0.00000000000E+00 -0.15858521170E+01  0.15858521170E+01  0.00000000000E+00 0. -1.
          2    1    1    2  501    0 -0.26283821834E+02  0.16049123965E+02  0.16132887330E+03  0.16424195271E+03  0.00000000000E+00 0. -1.
          2    1    1    2  502    0  0.26283821834E+02 -0.16049123965E+02  0.18334411493E+04  0.18336997741E+04  0.00000000000E+00 0. -1.
</event>
<event>
 4    1  0.6651744E+003  0.2338384E+02  0.7546771E-02  0.1487734E+00
          2   -1    0    0  501    0  0.00000000000E+00  0.00000000000E+00  0.36835589048E+03  0.36835589048E+03  0.00000000000E+00 0.  1.
          2   -1    0    0  502    0 -0.00000000000E+00 -0.00000000000E+00 -0.23891538780E+01  0.23891538780E+01  0.00000000000E+00 0.  1.
          2    1    1    2  501    0  0.14678334494E+02 -0.18203036239E+02  0.68911713391E+02  0.72771067563E+02  0.00000000000E+00 0.  1.
          2    1    1    2  502    0 -0.14678334494E+02  0.18203036239E+02  0.29705502321E+03  0.29797397679E+03  0.00000000000E+00 0.  1.
</event>
<event>
 4    1  0.6651744E+003  0.2029265E+02  0.7546771E-02  0.1529608E+00
          2   -1    0    0  502    0  0.00000000000E+00  0.00000000000E+00  0.25753891793E+03  0.25753891793E+03  0.00000000000E+00 0. -1.
          2   -1    0    0  501    0 -0.00000000000E+00 -0.00000000000E+00 -0.25552199293E+02  0.25552199293E+02  0.00000000000E+00 0.  1.
          2    1    1    2  501    0 -0.16018151865E+02  0.12458346524E+02  0.25303871748E+03  0.25385110623E+03  0.00000000000E+00 0. -1.
          2    1    1    2  502    0  0.16018151865E+02 -0.12458346524E+02 -0.21051998849E+02  0.29240010992E+02  0.00000000000E+00 0.  1.
</event>
<event>
 4    1  0.6651744E+003  0.3148602E+02  0.7546771E-02  0.1407108E+00
          2   -1    0    0  501    0  0.00000000000E+00  0.00000000000E+00  0.20366923913E+01  0.20366923913E+01  0.00000000000E+00 0. -1.
          2   -1    0    0  502    0 -0.00000000000E+00 -0.00000000000E+00 -0.13665037424E+04  0.13665037424E+04  0.00000000000E+00 0. -1.
          2    1    1    2  501    0  0.31478411016E+02  0.69220264846E+00 -0.12312705561E+04  0.12316730702E+04  0.00000000000E+00 0. -1.
          2    1    1    2  502    0 -0.31478411016E+02 -0.69220264846E+00 -0.13319649396E+03  0.13686736465E+03  0.00000000000E+00 0. -1.
</event>
<event>
 4    1  0.6651744E+003  0.2348145E+02  0.7546771E-02  0.1486539E+00
          2   -1    0    0  502    0  0.00000000000E+00  0.00000000000E+00  0.73991977854E+01  0.73991977854E+01  0.00000000000E+00 0.  1.
          2   -1    0    0  501    0 -0.00000000000E+00 -0.00000000000E+00 -0.11631575345E+04  0.11631575345E+04  0.00000000000E+00 0.  1.
          2    1    1    2  501    0 -0.35574289067E+01 -0.23210409608E+02 -0.11659281528E+02  0.26216736264E+02  0.00000000000E+00 0.  1.
          2    1    1    2  502    0  0.35574289067E+01  0.23210409608E+02 -0.11440990552E+04  0.11443399960E+04  0.00000000000E+00 0.  1.
</event>
<event>
 4    1  0.6651744E+003  0.2215458E+02  0.7546771E-02  0.1503396E+00
          2   -1    0    0  502    0  0.00000000000E+00  0.00000000000E+00  0.12221572983E+04  0.12221572983E+04  0.00000000000E+00 0.  1.
          2   -1    0    0  501    0 -0.00000000000E+00 -0.00000000000E+00 -0.17382259082E+01  0.17382259082E+01  0.00000000000E+00 0. -1.
          2    1    1    2  501    0 -0.16052116036E+02  0.15269417281E+02  0.11468275246E+04  0.11470414973E+04  0.00000000000E+00 0.  1.
          2    1    1    2  502    0  0.16052116036E+02 -0.15269417281E+02  0.73591547811E+02  0.76854026847E+02  0.00000000000E+00 0. -1.
</event>
<event>
 4    1  0.6651744E+003  0.2564995E+02  0.7546771E-02  0.1461662E+00
          2   -1    0    0  502    0  0.00000000000E+00  0.00000000000E+00  0.30787243313E+02  0.30787243313E+02  0.00000000000E+00 0.  1.
          2   -1    0    0  501    0 -0.00000000000E+00 -0.00000000000E+00 -0.39893111756E+02  0.39893111756E+02  0.00000000000E+00 0.  1.
          2    1    1    2  501    0 -0.70980475973E+01 -0.24648281406E+02  0.19528259585E+02  0.32237757031E+02  0.00000000000E+00 0.  1.
          2    1    1    2  502    0  0.70980475973E+01  0.24648281406E+02 -0.28634128028E+02  0.38442598038E+02  0.00000000000E+00 0.  1.
</event>
<event>
 4    1  0.6651744E+003  0.2680778E+02  0.7546771E-02  0.1449549E+00
          2   -1    0    0  501    0  0.00000000000E+00  0.00000000000E+00  0.21561196955E+01  0.21561196955E+01  0.00000000000E+00 0.  1.
          2   -1    0    0  502    0 -0.00000000000E+00 -0.00000000000E+00 -0.91911802609E+03  0.91911802609E+03  0.00000000000E+00 0. -1.
          2    1    1    2  501    0  0.23937576104E+01  0.26700688323E+02 -0.82622936483E+03  0.82666415197E+03  0.00000000000E+00 0. -1.
          2    1    1    2  502    0 -0.23937576104E+01 -0.26700688323E+02 -0.90732541556E+02  0.94609993815E+02  0.00000000000E+00 0.  1.
</event>
<event>
 4    1  0.6651744E+003  0.2969875E+02  0.7546771E-02  0.1422233E+00
          2   -1    0    0  502    0  0.00000000000E+00  0.00000000000E+00  0.73386672315E+01  0.73386672315E+01  0.00000000000E+00 0.  1.
          2   -1    0    0  501    0 -0.00000000000E+00 -0.00000000000E+00 -0.47939783146E+03  0.47939783146E+03  0.00000000000E+00 0. -1.
          2    1    1    2  501    0 -0.31579174407E+01 -0.29530376778E+02 -0.25365578307E+02  0.39056729997E+02  0.00000000000E+00 0.  1.
          2    1    1    2  502    0  0.31579174407E+01  0.29530376778E+02 -0.44669358592E+03  0.44767976869E+03  0.00000000000E+00 0. -1.
</event>
<event>
 4    1  0.6651744E+003  0.2987622E+02  0.7546771E-02  0.1420675E+00
          2   -1    0    0  501    0  0.00000000000E+00  0.00000000000E+00  0.26822903421E+02  0.26822903421E+02  0.00000000000E+00 0.  1.
          2   -1    0    0  502    0 -0.00000000000E+00 -0.00000000000E+00 -0.23674038611E+03  0.23674038611E+03  0.00000000000E+00 0. -1.
          2    1    1    2  501    0 -0.23810101091E+02 -0.18046259867E+02 -0.22712795437E+03  0.22908447365E+03  0.00000000000E+00 0. -1.
          2    1    1    2  502    0  0.23810101091E+02  0.18046259867E+02  0.17210471682E+02  0.34478815883E+02  0.00000000000E+00 0.  1.
</event>
<event>
 4    1  0.6651744E+003  0.2427290E+02  0.7546771E-02  0.1477104E+00
          2   -1    0    0  502    0  0.00000000000E+00  0.00000000000E+00  0.13869430103E+03  0.13869430103E+03  0.00000000000E+00 0.  1.
          2   -1    0    0  501    0 -0.00000000000E+00 -0.00000000000E+00 -0.51821641806E+01  0.51821641806E+01  0.00000000000E+00 0. -1.
          2    1    1    2  501    0  0.98249256354E+01 -0.22195595784E+02  0.36212809474E+02  0.43595197051E+02  0.00000000000E+00 0. -1.
          2    1    1    2  502    0 -0.98249256354E+01  0.22195595784E+02  0.97299327380E+02  0.10028126816E+03  0.00000000000E+00 0.  1.
</event>
<event>
 4    1  0.6651744E+003  0.2055029E+02  0.7546771E-02  0.1525783E+00
          2   -1    0    0  501    0  0.00000000000E+00  0.00000000000E+00  0.11188635094E+04  0.11188635094E+04  0.00000000000E+00 0.  1.
          2   -1    0    0  502    0 -0.00000000000E+00 -0.00000000000E+00 -0.35470959946E+02  0.35470959946E+02  0.00000000000E+00 0. -1.
          2    1    1    2  501    0 -0.13861217270E+02 -0.15171726051E+02 -0.32391903064E+02  0.38360787266E+02  0.00000000000E+00 0. -1.
          2    1    1    2  502    0  0.13861217270E+02  0.15171726051E+02  0.11157844525E+04  0.11159736821E+04  0.00000000000E+00 0.  1.
</event>
<event>
 4    1  0.6651744E+003  0.2182873E+02  0.7546771E-02  0.1507754E+00
          2   -1    0    0  501    0  0.00000000000E+00  0.00000000000E+00  0.65786328841E+03  0.65786328841E+03  0.00000000000E+00 0. -1.
          2   -1    0    0  502    0 -0.00000000000E+00 -0.00000000000E+00 -0.87793233836E+00  0.87793233836E+00  0.00000000000E+00 0.  1.
          2    1    1    2  501    0  0.12834460040E+02 -0.17657009610E+02  0.19071170293E+03  0.19195688836E+03  0.00000000000E+00 0.  1.
          2    1    1    2  502    0 -0.12834460040E+02  0.17657009610E+02  0.46627365313E+03  0.46678433238E+03  0.00000000000E+00 0. -1.
</event>
<event>
 4    1  0.6651744E+003  0.2336702E+02  0.7546771E-02  0.1487940E+00
          2   -1    0    0  502    0  0.00000000000E+00  0.00000000000E+00  0.67700580986E+03  0.67700580986E+03  0.00000000000E+00 0.  1.
          2   -1    0    0  501    0 -0.00000000000E+00 -0.00000000000E+00 -0.24082507255E+02  0.24082507255E+02  0.00000000000E+00 0.  1.
          2    1    1    2  501    0 -0.23362398618E+02  0.46457080803E+00  0.67108599883E+03  0.67149269194E+03  0.00000000000E+00 0.  1.
          2    1    1    2  502    0  0.23362398618E+02 -0.46457080803E+00 -0.18162696230E+02  0.29595625176E+02  0.00000000000E+00 0.  1.
</event>
<event>
 4    1  0.6651744E+003  0.7500191E+02  0.7546771E-02  0.1215952E+00
          2   -1    0    0  501    0  0.00000000000E+00  0.00000000000E+00  0.72822822406E+03  0.72822822406E+03  0.00000000000E+00 0. -1.
          2   -1    0    0  502    0 -0.00000000000E+00 -0.00000000000E+00 -0.38954556737E+02  0.38954556737E+02  0.00000000000E+00 0. -1.
          2    1    1    2  501    0 -0.71499365423E+02 -0.22652297519E+02  0.11775385879E+01  0.75011148744E+02  0.00000000000E+00 0. -1.
          2    1    1    2  502    0  0.71499365423E+02  0.22652297519E+02  0.68809612873E+03  0.69217163205E+03  0.00000000000E+00 0. -1.
</event>
<event>
 4    1  0.6651744E+003  0.2328922E+02  0.7546771E-02  0.1488898E+00
          2   -1    0    0  502    0  0.00000000000E+00  0.00000000000E+00  0.87326756408E+01  0.87326756408E+01  0.00000000000E+00 0. -1.
          2   -1    0    0  501    0 -0.00000000000E+00 -0.00000000000E+00 -0.70741030915E+02  0.70741030915E+02  0.00000000000E+00 0. -1.
          2    1    1    2  501    0  0.13678980958E+02 -0.18848697587E+02 -0.17124321098E+02  0.28907270605E+02  0.00000000000E+00 0. -1.
          2    1    1    2  502    0 -0.13678980958E+02  0.18848697587E+02 -0.44884034177E+02  0.50566435951E+02  0.00000000000E+00 0. -1.
</event>
<event>
 4    1  0.6651744E+003  0.4519185E+02  0.7546771E-02  0.1320483E+00
          2   -1    0    0  502    0  0.00000000000E+00  0.00000000000E+00  0.22732944267E+02  0.22732944267E+02  0.00000000000E+00 0. -1.
          2   -1    0    0  501    0 -0.00000000000E+00 -0.00000000000E+00 -0.12339543155E+03  0.12339543155E+03  0.00000000000E+00 0. -1.
          2    1    1    2  501    0 -0.63813793854E+01  0.44739035978E+02 -0.12229629689E+02  0.46817381232E+02  0.00000000000E+00 0. -1.
          2    1    1    2  502    0  0.63813793854E+01 -0.44739035978E+02 -0.88432857592E+02  0.99310994583E+02  0.00000000000E+00 0. -1.
</event>
<event>
 4    1  0.6651744E+003  0.2511023E+02  0.7546771E-02  0.1467574E+00
          2   -1    0    0  502    0  0.00000000000E+00  0.00000000000E+00  0.39974270465E+02  0.39974270465E+02  0.00000000000E+00 0. -1.
          2   -1    0    0  501    0 -0.00000000000E+00 -0.00000000000E+00 -0.30701792712E+03  0.30701792712E+03  0.00000000000E+00 0. -1.
          2    1    1    2  501    0  0.10633820919E+02  0.22747432572E+02  0.35458772771E+02  0.43449377469E+02  0.00000000000E+00 0. -1.
          2    1    1    2  502    0 -0.10633820919E+02 -0.22747432572E+02 -0.30250242943E+03  0.30354282012E+03  0.00000000000E+00 0. -1.
</event>
<event>
 4    1  0.6651744E+003  0.2408533E+02  0.7546771E-02  0.1479301E+00
          2   -1    0    0  502    0  0.00000000000E+00  0.00000000000E+00  0.15684648933E+02  0.15684648933E+02  0.00000000000E+00 0.  1.
          2   -1    0    0  501    0 -0.00000000000E+00 -0.00000000000E+00 -0.27989400975E+03  0.27989400975E+03  0.00000000000E+00 0. -1.
          2    1    1    2  501    0 -0.17949490643E+02 -0.16059858927E+02  0.55743235133E+01  0.24721981428E+02  0.00000000000E+00 0.  1.
          2    1    1    2  502    0  0.17949490643E+02  0.16059858927E+02 -0.26978368433E+03  0.27085667726E+03  0.00000000000E+00 0. -1.
</event>
<event>
 4    1  0.6651744E+003  0.2095852E+02  0.7546771E-02  0.1519858E+00
          2   -1    0    0  502    0  0.00000000000E+00  0.00000000000E+00  0.15268844770E+04  0.15268844770E+04  0.00000000000E+00 0. -1.
          2   -1    0    0  501    0 -0.00000000000E+00 -0.00000000000E+00 -0.22878040319E+01  0.22878040319E+01  0.00000000000E+00 0.  1.
          2    1    1    2  501    0 -0.11944974432E+02 -0.17221410733E+02  0.14771980117E+04  0.14773466841E+04  0.00000000000E+00 0. -1.
          2    1    1    2  502    0  0.11944974432E+02  0.17221410733E+02  0.47398661244E+02  0.51825596857E+02  0.00000000000E+00 0.  1.
</event>
<event>
 4    1  0.6651744E+003  0.2361267E+02  0.7546771E-02  0.1484945E+00
          2   -1    0    0  501    0  0.00000000000E+00  0.00000000000E+00  0.23134731545E+01  0.23134731545E+01  0.00000000000E+00 0.  1.
          2   -1    0    0  502    0 -0.00000000000E+00 -0.00000000000E+00 -0.15775653983E+04  0.15775653983E+04  0.00000000000E+00 0. -1.
          2    1    1    2  501    0  0.16048906106E+02  0.17320239273E+02 -0.15147264580E+04  0.15149104926E+04  0.00000000000E+00 0. -1.
          2    1    1    2  502    0 -0.16048906106E+02 -0.17320239273E+02 -0.60525467156E+02  0.64968378848E+02  0.00000000000E+00 0.  1.
</event>
<event>
 4    1  0.6651744E+003  0.4743875E+02  0.7546771E-02  0.1309676E+00
          2   -1    0    0  502    0  0.00000000000E+00  0.00000000000E+00  0.14463388646E+04  0.14463388646E+04  0.00000000000E+00 0. -1.
          2   -1    0    0  501    0 -0.00000000000E+00 -0.00000000000E+00 -0.24496583504E+01  0.24496583504E+01  0.00000000000E+00 0. -1.
          2    1    1    2  501    0  0.46204249454E+02 -0.10751837909E+02  0.11594863773E+04  0.11604564162E+04  0.00000000000E+00 0. -1.
          2    1    1    2  502    0 -0.46204249454E+02  0.10751837909E+02  0.28440282898E+03  0.28833210681E+03  0.00000000000E+00 0. -1.
</event>
<event>
 4    1  0.6651744E+003  0.4837640E+02  0.7546771E-02  0.1305370E+00
          2   -1    0    0  501    0  0.00000000000E+00  0.00000000000E+00  0.45592102821E+03  0.45592102821E+03  0.00000000000E+00 0.  1.
          2   -1    0    0  502    0 -0.00000000000E+00 -0.00000000000E+00 -0.22853283598E+02  0.22853283598E+02  0.00000000000E+00 0.  1.
          2    1    1    2  501    0 -0.26019360867E+02 -0.40783198876E+02  0.57385517483E+01  0.48715576838E+02  0.00000000000E+00 0.  1.
          2    1    1    2  502    0  0.26019360867E+02  0.40783198876E+02  0.42732919287E+03  0.43005873497E+03  0.00000000000E+00 0.  1.
</event>
<event>
 4    1  0.6651744E+003  0.2004118E+02  0.7546771E-02  0.1533407E+00
          2   -1    0    0  502    0  0.00000000000E+00  0.00000000000E+00  0.13004483612E+04  0.13004483612E+04  0.00000000000E+00 0.  1.
          2   -1    0    0  501    0 -0.00000000000E+00 -0.00000000000E+00 -0.26381453616E+01  0.26381453616E+01  0.00000000000E+00 0.  1.
          2    1    1    2  501    0 -0.19795105467E+02  0.31309286909E+01  0.12611226683E+04  0.12612819008E+04  0.00000000000E+00 0.  1.
          2    1    1    2  502    0  0.19795105467E+02 -0.31309286909E+01  0.36687547608E+02  0.41804605780E+02  0.00000000000E+00 0.  1.
</event>
<event>
 4    1  0.6651744E+003  0.2126474E+02  0.7546771E-02  0.1515518E+00
          2   -1    0    0  502    0  0.00000000000E+00  0.00000000000E+00  0.22805270155E+02  0.22805270155E+02  0.00000000000E+00 0.  1.
          2   -1    0    0  501    0 -0.00000000000E+00 -0.00000000000E+00 -0.32252281276E+03  0.32252281276E+03  0.00000000000E+00 0. -1.
          2    1    1    2  501    0 -0.19283195731E+02  0.89636785896E+01  0.17413507919E+02  0.27484894569E+02  0.00000000000E+00 0.  1.
          2    1    1    2  502    0  0.19283195731E+02 -0.89636785896E+01 -0.31713105052E+03  0.31784318834E+03  0.00000000000E+00 0. -1.
</event>
<event>
 4    1  0.6651744E+003  0.2212842E+02  0.7546771E-02  0.1503743E+00
          2   -1    0    0  502    0  0.00000000000E+00  0.00000000000E+00  0.32998071558E+03  0.32998071558E+03  0.00000000000E+00 0.  1.
          2   -1    0    0  501    0 -0.00000000000E+00 -0.00000000000E+00 -0.67005547051E+02  0.67005547051E+02  0.00000000000E+00 0. -1.
          2    1    1    2  501    0 -0.20935014604E+02 -0.71688220793E+01  0.32777046459E+03  0.32851658147E+03  0.00000000000E+00 0.  1.
          2    1    1    2  502    0  0.20935014604E+02  0.71688220793E+01 -0.64795296059E+02  0.68469681158E+02  0.00000000000E+00 0. -1.
</event>
<event>
 4    1  0.6651744E+003  0.2829473E+02  0.7546771E-02  0.1435019E+00
          2   -1    0    0  502    0  0.00000000000E+00  0.00000000000E+00  0.17916848770E+01  0.17916848770E+01  0.00000000000E+00 0. -1.
          2   -1    0    0  501    0 -0.00000000000E+00 -0.00000000000E+00 -0.93973422036E+03  0.93973422036E+03  0.00000000000E+00 0.  1.
          2    1    1    2  501    0 -0.14390099121E+02  0.24362194557E+02 -0.12803135322E+03  0.13112062722E+03  0.00000000000E+00 0. -1.
          2    1    1    2  502    0  0.14390099121E+02 -0.24362194557E+02 -0.80991118226E+03  0.81040527801E+03  0.00000000000E+00 0.  1.
</event>
<event>
 4    1  0.6651744E+003  0.3363963E+02  0.7546771E-02  0.1390388E+00
          2   -1    0    0  502    0  0.00000000000E+00  0.00000000000E+00  0.12521439468E+04  0.12521439468E+04  0.00000000000E+00 0. -1.
          2   -1    0    0  501    0 -0.00000000000E+00 -0.00000000000E+00 -0.39180471758E+01  0.39180471758E+01  0.00000000000E+00 0. -1.
          2    1    1    2  501    0 -0.12198218079E+02 -0.31350089887E+02  0.11749705007E+04  0.11754519566E+04  0.00000000000E+00 0. -1.
          2    1    1    2  502    0  0.12198218079E+02  0.31350089887E+02  0.73255398871E+02  0.80610037364E+02  0.00000000000E+00 0. -1.
</event>
<event>
 4    1  0.6651744E+003  0.2812227E+02  0.7546771E-02  0.1436649E+00
          2   -1    0    0  502    0  0.00000000000E+00  0.00000000000E+00  0.34088456855E+02  0.34088456855E+02  0.00000000000E+00 0.  1.
          2   -1    0    0  501    0 -0.00000000000E+00 -0.00000000000E+00 -0.22251199144E+03  0.22251199144E+03  0.00000000000E+00 0.  1.
          2    1    1    2  501    0  0.16646083067E+02  0.22666492949E+02  0.27215747422E+02  0.39135136282E+02  0.00000000000E+00 0.  1.
          2    1    1    2  502    0 -0.16646083067E+02 -0.22666492949E+02 -0.21563928201E+03  0.21746531201E+03  0.00000000000E+00 0.  1.
</event>
<event>
 4    1  0.6651744E+003  0.5185723E+02  0.7546771E-02  0.1290315E+00
          2   -1    0    0  502    0  0.00000000000E+00  0.00000000000E+00  0.14826508216E+04  0.14826508216E+04  0.00000000000E+00 0. -1.
          2   -1    0    0  501    0 -0.00000000000E+00 -0.00000000000E+00 -0.29308256192E+02  0.29308256192E+02  0.00000000000E+00 0. -1.
          2    1    1    2  501    0 -0.50538988372E+02 -0.11618197390E+02  0.14588851327E+04  0.14598064948E+04  0.00000000000E+00 0. -1.
          2    1    1    2  502    0  0.50538988372E+02  0.11618197390E+02 -0.55425673262E+01  0.52152582955E+02  0.00000000000E+00 0. -1.
</event>
<event>
 4    1  0.6651744E+003  0.3704625E+02  0.7546771E-02  0.1366722E+00
          2   -1    0    0  501    0  0.00000000000E+00  0.00000000000E+00  0.84845556028E+02  0.84845556028E+02  0.00000000000E+00 0.  1.
          2   -1    0    0  502    0 -0.00000000000E+00 -0.00000000000E+00 -0.27032054564E+02  0.27032054564E+02  0.00000000000E+00 0.  1.
          2    1    1    2  501    0 -0.65772500913E+01  0.36457708975E+02 -0.65434239110E+01  0.37619691107E+02  0.00000000000E+00 0.  1.
          2    1    1    2  502    0  0.65772500913E+01 -0.36457708975E+02  0.64356925375E+02  0.74257919485E+02  0.00000000000E+00 0.  1.
</event>
<event>
 4    1  0.6651744E+003  0.2577817E+02  0.7546771E-02  0.1460283E+00
          2   -1    0    0  502    0  0.00000000000E+00  0.00000000000E+00  0.86268760957E+01  0.86268760957E+01  0.00000000000E+00 0.  1.
          2   -1    0    0  501    0 -0.00000000000E+00 -0.00000000000E+00 -0.22377387710E+03  0.22377387710E+03  0.00000000000E+00 0.  1.
          2    1    1    2  501    0  0.11363733170E+02  0.23138272397E+02 -0.13474443757E+02  0.29087363505E+02  0.00000000000E+00 0.  1.
          2    1    1    2  502    0 -0.11363733170E+02 -0.23138272397E+02 -0.20167255725E+03  0.20331338969E+03  0.00000000000E+00 0.  1.
</event>
<event>
 4    1  0.6651744E+003  0.2334690E+02  0.7546771E-02  0.1488187E+00
          2   -1    0    0  501    0  0.00000000000E+00  0.00000000000E+00  0.10137602592E+04  0.10137602592E+04  0.00000000000E+00 0.  1.
          2   -1    0    0  502    0 -0.00000000000E+00 -0.00000000000E+00 -0.43586571872E+01  0.43586571872E+01  0.00000000000E+00 0. -1.
          2    1    1    2  501    0 -0.20287508343E+02  0.11553988652E+02  0.28072933356E+02  0.36512562712E+02  0.00000000000E+00 0. -1.
          2    1    1    2  502    0  0.20287508343E+02 -0.11553988652E+02  0.98132866862E+03  0.98160635364E+03  0.00000000000E+00 0.  1.
</event>
<event>
 4    1  0.6651744E+003  0.4451586E+02  0.7546771E-02  0.1323878E+00
          2   -1    0    0  502    0  0.00000000000E+00  0.00000000000E+00  0.44501486632E+03  0.44501486632E+03  0.00000000000E+00 0. -1.
          2   -1    0    0  501    0 -0.00000000000E+00 -0.00000000000E+00 -0.54732010108E+02  0.54732010108E+02  0.00000000000E+00 0. -1.
          2    1    1    2  501    0 -0.22446225690E+02  0.38442533016E+02  0.43463433416E+03  0.43690807480E+03  0.00000000000E+00 0. -1.
          2    1    1    2  502    0  0.22446225690E+02 -0.38442533016E+02 -0.44351477956E+02  0.62838801622E+02  0.00000000000E+00 0. -1.
</event>
<event>
 4    1  0.6651744E+003  0.3164905E+02  0.7546771E-02  0.1405788E+00
          2   -1    0    0  502    0  0.00000000000E+00  0.00000000000E+00  0.98407773192E+03  0.98407773192E+03  0.00000000000E+00 0.  1.
          2   -1    0    0  501    0 -0.00000000000E+00 -0.00000000000E+00 -0.25172852578E+02  0.25172852578E+02  0.00000000000E+00 0.  1.
          2    1    1    2  501    0 -0.28427729456E+02 -0.13911388127E+02  0.97377014734E+03  0.97428433343E+03  0.00000000000E+00 0.  1.
          2    1    1    2  502    0  0.28427729456E+02  0.13911388127E+02 -0.14865267991E+02  0.34966251073E+02  0.00000000000E+00 0.  1.
</event>
<event>
 4    1  0.6651744E+003  0.2275468E+02  0.7546771E-02  0.1495602E+00
          2   -1    0    0  502    0  0.00000000000E+00  0.00000000000E+00  0.24313782801E+02  0.24313782801E+02  0.00000000000E+00 0.  1.
          2   -1    0    0  501    0 -0.00000000000E+00 -0.00000000000E+00 -0.36160070650E+03  0.36160070650E+03  0.00000000000E+00 0.  1.
          2    1    1    2  501    0 -0.19682426630E+02 -0.11418295269E+02  0.18545708099E+02  0.29355045117E+02  0.00000000000E+00 0.  1.
          2    1    1    2  502    0  0.19682426630E+02  0.11418295269E+02 -0.35583263180E+03  0.35655944418E+03  0.00000000000E+00 0.  1.
</event>
<event>
 4    1  0.6651744E+003  0.2174789E+02  0.7546771E-02  0.1508849E+00
          2   -1    0    0  502    0  0.00000000000E+00  0.00000000000E+00  0.11359932430E+04  0.11359932430E+04  0.00000000000E+00 0. -1.
          2   -1    0    0  501    0 -0.00000000000E+00 -0.00000000000E+00 -0.25748448601E+02  0.25748448601E+02  0.00000000000E+00 0.  1.
          2    1    1    2  501    0 -0.10969579136E+02  0.18778689334E+02  0.11312777891E+04  0.11314868125E+04  0.00000000000E+00 0. -1.
          2    1    1    2  502    0  0.10969579136E+02 -0.18778689334E+02 -0.21032994715E+02  0.30254879047E+02  0.00000000000E+00 0.  1.
</event>
<event>
 4    1  0.6651744E+003  0.2235406E+02  0.7546771E-02  0.1500772E+00
          2   -1    0    0  501    0  0.00000000000E+00  0.00000000000E+00  0.51233190560E+03  0.51233190560E+03  0.00000000000E+00 0.  1.
          2   -1    0    0  502    0 -0.00000000000E+00 -0.00000000000E+00 -0.66207949165E+02  0.66207949165E+02  0.00000000000E+00 0.  1.
          2    1    1    2  501    0  0.16169181396E+02  0.15435728552E+02 -0.64069331840E+02  0.67857080879E+02  0.00000000000E+00 0.  1.
          2    1    1    2  502    0 -0.16169181396E+02 -0.15435728552E+02  0.51019328827E+03  0.51068277388E+03  0.00000000000E+00 0.  1.
</event>
<event>
 4    1  0.6651744E+003  0.2603943E+02  0.7546771E-02  0.1457503E+00
          2   -1    0    0  501    0  0.00000000000E+00  0.00000000000E+00  0.14326334217E+01  0.14326334217E+01  0.00000000000E+00 0. -1.
          2   -1    0    0  502    0 -0.00000000000E+00 -0.00000000000E+00 -0.18618227296E+04  0.18618227296E+04  0.00000000000E+00 0.  1.
          2    1    1    2  501    0 -0.19187192575E+02  0.17604077355E+02 -0.17347416237E+04  0.17349370458E+04  0.00000000000E+00 0.  1.
          2    1    1    2  502    0  0.19187192575E+02 -0.17604077355E+02 -0.12564847256E+03  0.12831831730E+03  0.00000000000E+00 0. -1.
</event>
<event>
 4    1  0.6651744E+003  0.2277389E+02  0.7546771E-02  0.1495357E+00
          2   -1    0    0  501    0  0.00000000000E+00  0.00000000000E+00  0.83917846424E+03  0.83917846424E+03  0.00000000000E+00 0. -1.
          2   -1    0    0  502    0 -0.00000000000E+00 -0.00000000000E+00 -0.12302577581E+03  0.12302577581E+03  0.00000000000E+00 0.  1.
          2    1    1    2  501    0 -0.67803537447E+01  0.21741137506E+02 -0.12181579661E+03  0.12392634329E+03  0.00000000000E+00 0.  1.
          2    1    1    2  502    0  0.67803537447E+01 -0.21741137506E+02  0.83796848504E+03  0.83827789675E+03  0.00000000000E+00 0. -1.
</event>
<event>
 4    1  0.6651744E+003  0.2320205E+02  0.7546771E-02  0.1489976E+00
          2   -1    0    0  501    0  0.00000000000E+00  0.00000000000E+00  0.58632656201E+02  0.58632656201E+02  0.00000000000E+00 0. -1.
          2   -1    0    0  502    0 -0.00000000000E+00 -0.00000000000E+00 -0.34155501202E+03  0.34155501202E+03  0.00000000000E+00 0. -1.
          2    1    1    2  501    0  0.98187986190E+01 -0.21022046587E+02 -0.33884728562E+03  0.33964071932E+03  0.00000000000E+00 0. -1.
          2    1    1    2  502    0 -0.98187986190E+01  0.21022046587E+02  0.55924929796E+02  0.60546948905E+02  0.00000000000E+00 0. -1.
</event>
<event>
 4    1  0.6651744E+003  0.2011179E+02  0.7546771E-02  0.1532334E+00
          2   -1    0    0  501    0  0.00000000000E+00  0.00000000000E+00  0.17326680577E+01  0.17326680577E+01  0.00000000000E+00 0. -1.
          2   -1    0    0  502    0 -0.00000000000E+00 -0.00000000000E+00 -0.10995043886E+04  0.10995043886E+04  0.00000000000E+00 0. -1.
          2    1    1    2  501    0  0.12497925504E+02 -0.15757092380E+02 -0.10375674422E+04  0.10377623433E+04  0.00000000000E+00 0. -1.
          2    1    1    2  502    0 -0.12497925504E+02  0.15757092380E+02 -0.60204278304E+02  0.63474713298E+02  0.00000000000E+00 0. -1.
</event>
<event>
 4    1  0.6651744E+003  0.2121803E+02  0.7546771E-02  0.1516175E+00
          2   -1    0    0  502    0  0.00000000000E+00  0.00000000000E+00  0.34883788116E+03  0.34883788116E+03  0.00000000000E+00 0. -1.
          2   -1    0    0  501    0 -0.00000000000E+00 -0.00000000000E+00 -0.18393815086E+03  0.18393815086E+03  0.00000000000E+00 0.  1.
          2    1    1    2  501    0 -0.20611723773E+02 -0.50360311290E+01  0.34790169303E+03  0.34854812118E+03  0.00000000000E+00 0. -1.
          2    1    1    2  502    0  0.20611723773E+02  0.50360311290E+01 -0.18300196273E+03  0.18422791083E+03  0.00000000000E+00 0.  1.
</event>
<event>
 4    1  0.6651744E+003  0.2801559E+02  0.7546771E-02  0.1437665E+00
          2   -1    0    0  501    0  0.00000000000E+00  0.00000000000E+00  0.18132274496E+03  0.18132274496E+03  0.00000000000E+00 0.  1.
          2   -1    0    0  502    0 -0.00000000000E+00 -0.00000000000E+00 -0.11497052703E+02  0.11497052703E+02  0.00000000000E+00 0.  1.
          2    1    1    2  501    0 -0.18018498645E+01  0.27957590511E+02  0.87854289562E+01  0.29360812183E+02  0.00000000000E+00 0.  1.
          2    1    1    2  502    0  0.18018498645E+01 -0.27957590511E+02  0.16104026330E+03  0.16345898548E+03  0.00000000000E+00 0.  1.
</event>
<event>
 4    1  0.6651744E+003  0.4184521E+02  0.7546771E-02  0.1337999E+00
          2   -1    0    0  502    0  0.00000000000E+00  0.00000000000E+00  0.34865884147E+03  0.34865884147E+03  0.00000000000E+00 0.  1.
          2   -1    0    0  501    0 -0.00000000000E+00 -0.00000000000E+00 -0.11234644534E+02  0.11234644534E+02  0.00000000000E+00 0.  1.
          2    1    1    2  501    0 -0.60333473606E+01 -0.41407970486E+02  0.30252466523E+03  0.30540496783E+03  0.00000000000E+00 0.  1.
          2    1    1    2  502    0  0.60333473606E+01  0.41407970486E+02  0.34899531708E+02  0.54488518181E+02  0.00000000000E+00 0.  1.
</event>
<event>
 4    1  0.6651744E+003  0.2533696E+02  0.7546771E-02  0.1465069E+00
          2   -1    0    0  501    0  0.00000000000E+00  0.00000000000E+00  0.20273413759E+03  0.20273413759E+03  0.00000000000E+00 0.  1.
          2   -1    0    0  502    0 -0.00000000000E+00 -0.00000000000E+00 -0.24137283593E+02  0.24137283593E+02  0.00000000000E+00 0.  1.
          2    1    1    2  501    0 -0.22386678221E+02  0.11865842806E+02 -0.16435101955E+02  0.30200565616E+02  0.00000000000E+00 0.  1.
          2    1    1    2  502    0  0.22386678221E+02 -0.11865842806E+02  0.19503195595E+03  0.19667085557E+03  0.00000000000E+00 0.  1.
</event>
<event>
 4    1  0.6651744E+003  0.2565974E+02  0.7546771E-02  0.1461556E+00
          2   -1    0    0  502    0  0.00000000000E+00  0.00000000000E+00  0.52069576353E+02  0.52069576353E+02  0.00000000000E+00 0. -1.
          2   -1    0    0  501    0 -0.00000000000E+00 -0.00000000000E+00 -0.69646379273E+03  0.69646379273E+03  0.00000000000E+00 0.  1.
          2    1    1    2  501    0 -0.17463543829E+02  0.18800187373E+02  0.48656405573E+02  0.55007892266E+02  0.00000000000E+00 0. -1.
          2    1    1    2  502    0  0.17463543829E+02 -0.18800187373E+02 -0.69305062195E+03  0.69352547681E+03  0.00000000000E+00 0.  1.
</event>
<event>
 4    1  0.6651744E+003  0.2242003E+02  0.7546771E-02  0.1499912E+00
          2   -1    0    0  502    0  0.00000000000E+00  0.00000000000E+00  0.10662101372E+04  0.10662101372E+04  0.00000000000E+00 0.  1.
          2   -1    0    0  501    0 -0.00000000000E+00 -0.00000000000E+00 -0.74184748940E+00  0.74184748940E+00  0.00000000000E+00 0.  1.
          2    1    1    2  501    0 -0.85154461062E+01 -0.20739940747E+02  0.85481433724E+03  0.85510830256E+03  0.00000000000E+00 0.  1.
          2    1    1    2  502    0  0.85154461062E+01  0.20739940747E+02  0.21065395248E+03  0.21184368213E+03  0.00000000000E+00 0.  1.
</event>
<event>
 4    1  0.6651744E+003  0.3440063E+02  0.7546771E-02  0.1384827E+00
          2   -1    0    0  501    0  0.00000000000E+00  0.00000000000E+00  0.50607486958E+03  0.50607486958E+03  0.00000000000E+00 0.  1.
          2   -1    0    0  502    0 -0.00000000000E+00 -0.00000000000E+00 -0.27981816785E+01  0.27981816785E+01  0.00000000000E+00 0.  1.
          2    1    1    2  501    0  0.27292767804E+02  0.20940590201E+02  0.14850023051E+03  0.15243268007E+03  0.00000000000E+00 0.  1.
          2    1    1    2  502    0 -0.27292767804E+02 -0.20940590201E+02  0.35477645739E+03  0.35644037119E+03  0.00000000000E+00 0.  1.
</event>
<event>
 4    1  0.6651744E+003  0.2323300E+02  0.7546771E-02  0.1489593E+00
          2   -1    0    0  501    0  0.00000000000E+00  0.00000000000E+00  0.14802149395E+04  0.14802149395E+04  0.00000000000E+00 0.  1.
          2   -1    0    0  502    0 -0.00000000000E+00 -0.00000000000E+00 -0.12788708470E+01  0.12788708470E+01  0.00000000000E+00 0. -1.
          2    1    1    2  501    0 -0.19386242401E+02  0.12804126998E+02  0.11317124238E+03  0.11553139039E+03  0.00000000000E+00 0. -1.
          2    1    1    2  502    0  0.19386242401E+02 -0.12804126998E+02  0.13657648262E+04  0.13659624199E+04  0.00000000000E+00 0.  1.
</event>
<event>
 4    1  0.6651744E+003  0.3384247E+02  0.7546771E-02  0.1388889E+00
          2   -1    0    0  502    0  0.00000000000E+00  0.00000000000E+00  0.12611548505E+04  0.12611548505E+04  0.00000000000E+00 0. -1.
          2   -1    0    0  501    0 -0.00000000000E+00 -0.00000000000E+00 -0.14047256335E+02  0.14047256335E+02  0.00000000000E+00 0. -1.
          2    1    1    2  501    0 -0.30102770669E+02  0.15464018443E+02  0.12402002714E+04  0.12406619306E+04  0.00000000000E+00 0. -1.
          2    1    1    2  502    0  0.30102770669E+02 -0.15464018443E+02  0.69073227022E+01  0.34540176248E+02  0.00000000000E+00 0. -1.
</event>
<event>
 4    1  0.6651744E+003  0.2079718E+02  0.7546771E-02  0.1522180E+00
          2   -1    0    0  502    0  0.00000000000E+00  0.00000000000E+00  0.21208105662E+01  0.21208105662E+01  0.00000000000E+00 0. -1.
          2   -1    0    0  501    0 -0.00000000000E+00 -0.00000000000E+00 -0.85345847159E+03  0.85345847159E+03  0.00000000000E+00 0. -1.
          2    1    1    2  501    0 -0.66106525525E+01 -0.19718569930E+02 -0.52475312427E+02  0.56446267738E+02  0.00000000000E+00 0. -1.
          2    1    1    2  502    0  0.66106525525E+01  0.19718569930E+02 -0.79886234859E+03  0.79913301441E+03  0.00000000000E+00 0. -1.
</event>
<event>
 4    1  0.6651744E+003  0.3315449E+02  0.7546771E-02  0.1394023E+00
          2   -1    0    0  502    0  0.00000000000E+00  0.00000000000E+00  0.11249942865E+04  0.11249942865E+04  0.00000000000E+00 0. -1.
          2   -1    0    0  501    0 -0.00000000000E+00 -0.00000000000E+00 -0.59619868619E+01  0.59619868619E+01  0.00000000000E+00 0.  1.
          2    1    1    2  501    0 -0.24737218908E+02  0.22074645931E+02  0.10765850599E+04  0.10770954513E+04  0.00000000000E+00 0. -1.
          2    1    1    2  502    0  0.24737218908E+02 -0.22074645931E+02  0.42447239719E+02  0.53860822051E+02  0.00000000000E+00 0.  1.
</event>
<event>
 4    1  0.6651744E+003  0.3074604E+02  0.7546771E-02  0.1413222E+00
          2   -1    0    0  501    0  0.00000000000E+00  0.00000000000E+00  0.38041109181E+03  0.38041109181E+03  0.00000000000E+00 0. -1.
          2   -1    0    0  502    0 -0.00000000000E+00 -0.00000000000E+00 -0.94261766595E+01  0.94261766595E+01  0.00000000000E+00 0. -1.
          2    1    1    2  501    0 -0.29400786630E+02  0.89951569414E+01  0.18228517242E+02  0.35743502119E+02  0.00000000000E+00 0. -1.
          2    1    1    2  502    0  0.29400786630E+02 -0.89951569414E+01  0.35275639791E+03  0.35409376635E+03  0.00000000000E+00 0. -1.
</event>
<event>
 4    1  0.6651744E+003  0.2888781E+02  0.7546771E-02  0.1429514E+00
          2   -1    0    0  502    0  0.00000000000E+00  0.00000000000E+00  0.17358107645E+03  0.17358107645E+03  0.00000000000E+00 0. -1.
          2   -1    0    0  501    0 -0.00000000000E+00 -0.00000000000E+00 -0.16630743936E+03  0.16630743936E+03  0.00000000000E+00 0.  1.
          2    1    1    2  501    0 -0.26156676521E+02 -0.12261059079E+02  0.17110670584E+03  0.17352812475E+03  0.00000000000E+00 0. -1.
          2    1    1    2  502    0  0.26156676521E+02  0.12261059079E+02 -0.16383306875E+03  0.16636039105E+03  0.00000000000E+00 0.  1.
</event>
<event>
 4    1  0.6651744E+003  0.2507124E+02  0.7546771E-02  0.1468008E+00
          2   -1    0    0  501    0  0.00000000000E+00  0.00000000000E+00  0.14316754857E+04  0.14316754857E+04  0.00000000000E+00 0. -1.
          2   -1    0    0  502    0 -0.00000000000E+00 -0.00000000000E+00 -0.13046990451E+02  0.13046990451E+02  0.00000000000E+00 0. -1.
          2    1    1    2  501    0  0.12552882819E+01 -0.25039793784E+02 -0.78893214871E+00  0.25083648765E+02  0.00000000000E+00 0. -1.
          2    1    1    2  502    0 -0.12552882819E+01  0.25039793784E+02  0.14194174274E+04  0.14196388274E+04  0.00000000000E+00 0. -1.
</event>
<event>
 4    1  0.6651744E+003  0.6363036E+02  0.7546771E-02  0.1247973E+00
          2   -1    0    0  501    0  0.00000000000E+00  0.00000000000E+00  0.32521473146E+03  0.32521473146E+03  0.00000000000E+00 0.  1.
          2   -1    0    0  502    0 -0.00000000000E+00 -0.00000000000E+00 -0.59087439239E+03  0.59087439239E+03  0.00000000000E+00 0.  1.
          2    1    1    2  501    0  0.35377837877E+02  0.52888862121E+02 -0.58602321568E+03  0.58946758389E+03  0.00000000000E+00 0.  1.
          2    1    1    2  502    0 -0.35377837877E+02 -0.52888862121E+02  0.32036355475E+03  0.32662153995E+03  0.00000000000E+00 0.  1.
</event>
<event>
 4    1  0.6651744E+003  0.2380427E+02  0.7546771E-02  0.1482638E+00
          2   -1    0    0  501    0  0.00000000000E+00  0.00000000000E+00  0.76921747922E+03  0.76921747922E+03  0.00000000000E+00 0. -1.
          2   -1    0    0  502    0 -0.00000000000E+00 -0.00000000000E+00 -0.17283675172E+01  0.17283675172E+01  0.00000000000E+00 0. -1.
          2    1    1    2  501    0 -0.18907930806E+02 -0.14461449134E+02  0.91753182686E+02  0.94790769020E+02  0.00000000000E+00 0. -1.
          2    1    1    2  502    0  0.18907930806E+02  0.14461449134E+02  0.67573592902E+03  0.67615507772E+03  0.00000000000E+00 0. -1.
</event>
<event>
 4    1  0.6651744E+003  0.2530729E+02  0.7546771E-02  0.1465395E+00
          2   -1    0    0  502    0  0.00000000000E+00  0.00000000000E+00  0.78180147164E+03  0.78180147164E+03  0.00000000000E+00 0.  1.
          2   -1    0    0  501    0 -0.00000000000E+00 -0.00000000000E+00 -0.22826364792E+03  0.22826364792E+03  0.00000000000E+00 0. -1.
          2    1    1    2  501    0 -0.11246312613E+02  0.22671116903E+02  0.78089440808E+03  0.78130438093E+03  0.00000000000E+00 0.  1.
          2    1    1    2  502    0  0.11246312613E+02 -0.22671116903E+02 -0.22735658436E+03  0.22876073863E+03  0.00000000000E+00 0. -1.
</event>
<event>
 4    1  0.6651744E+003  0.2229852E+02  0.7546771E-02  0.1501500E+00
          2   -1    0    0  501    0  0.00000000000E+00  0.00000000000E+00  0.14775316385E+03  0.14775316385E+03  0.00000000000E+00 0. -1.
          2   -1    0    0  502    0 -0.00000000000E+00 -0.00000000000E+00 -0.50641561709E+01  0.50641561709E+01  0.00000000000E+00 0. -1.
          2    1    1    2  501    0 -0.21725358747E+02 -0.50232098225E+01  0.27088124089E+02  0.35085471584E+02  0.00000000000E+00 0. -1.
          2    1    1    2  502    0  0.21725358747E+02  0.50232098225E+01  0.11560088359E+03  0.11773184843E+03  0.00000000000E+00 0. -1.
</event>
<event>
 4    1  0.6651744E+003  0.2982114E+02  0.7546771E-02  0.1421157E+00
          2   -1    0    0  501    0  0.00000000000E+00  0.00000000000E+00  0.64279234096E+03  0.64279234096E+03  0.00000000000E+00 0.  1.
          2   -1    0    0  502    0 -0.00000000000E+00 -0.00000000000E+00 -0.93183875959E+02  0.93183875959E+02  0.00000000000E+00 0. -1.
          2    1    1    2  501    0 -0.11393028411E+02  0.27559016729E+02 -0.90441911021E+02  0.95231506176E+02  0.00000000000E+00 0. -1.
          2    1    1    2  502    0  0.11393028411E+02 -0.27559016729E+02  0.64005037602E+03  0.64074471074E+03  0.00000000000E+00 0.  1.
</event>
<event>
 4    1  0.6651744E+003  0.2111259E+02  0.7546771E-02  0.1517663E+00
          2   -1    0    0  501    0  0.00000000000E+00  0.00000000000E+00  0.11744379927E+03  0.11744379927E+03  0.00000000000E+00 0.  1.
          2   -1    0    0  502    0 -0.00000000000E+00 -0.00000000000E+00 -0.75152320283E+02  0.75152320283E+02  0.00000000000E+00 0.  1.
          2    1    1    2  501    0 -0.17796432256E+02  0.11359077054E+02 -0.72689184670E+02  0.75693191243E+02  0.00000000000E+00 0.  1.
          2    1    1    2  502    0  0.17796432256E+02 -0.11359077054E+02  0.11498066366E+03  0.11690292831E+03  0.00000000000E+00 0.  1.
</event>
<event>
 4    1  0.6651744E+003  0.2418961E+02  0.7546771E-02  0.1478077E+00
          2   -1    0    0  501    0  0.00000000000E+00  0.00000000000E+00  0.24072157235E+03  0.24072157235E+03  0.00000000000E+00 0.  1.
          2   -1    0    0  502    0 -0.00000000000E+00 -0.00000000000E+00 -0.47774186332E+02  0.47774186332E+02  0.00000000000E+00 0. -1.
          2    1    1    2  501    0 -0.53533899795E+01 -0.23589794470E+02 -0.44056595643E+02  0.50260529316E+02  0.00000000000E+00 0. -1.
          2    1    1    2  502    0  0.53533899795E+01  0.23589794470E+02  0.23700398166E+03  0.23823522936E+03  0.00000000000E+00 0.  1.
</event>
<event>
 4    1  0.6651744E+003  0.2614522E+02  0.7546771E-02  0.1456389E+00
          2   -1    0    0  501    0  0.00000000000E+00  0.00000000000E+00  0.13769917547E+02  0.13769917547E+02  0.00000000000E+00 0.  1.
          2   -1    0    0  502    0 -0.00000000000E+00 -0.00000000000E+00 -0.17608692260E+03  0.17608692260E+03  0.00000000000E+00 0.  1.
          2    1    1    2  501    0  0.15398177568E+01 -0.26099838705E+02 -0.16160045511E+03  0.16370180119E+03  0.00000000000E+00 0.  1.
          2    1    1    2  502    0 -0.15398177568E+01  0.26099838705E+02 -0.71654993904E+00  0.26155038960E+02  0.00000000000E+00 0.  1.
</event>
<event>
 4    1  0.6651744E+003  0.2717228E+02  0.7546771E-02  0.1445885E+00
          2   -1    0    0  501    0  0.00000000000E+00  0.00000000000E+00  0.75360294450E+00  0.75360294450E+00  0.00000000000E+00 0.  1.
          2   -1    0    0  502    0 -0.00000000000E+00 -0.00000000000E+00 -0.22285400978E+04  0.22285400978E+04  0.00000000000E+00 0. -1.
          2    1    1    2  501    0 -0.25817522733E+02  0.84727880328E+01 -0.19482928084E+04  0.19484822811E+04  0.00000000000E+00 0. -1.
          2    1    1    2  502    0  0.25817522733E+02 -0.84727880328E+01 -0.27949368649E+03  0.28081141965E+03  0.00000000000E+00 0.  1.
</event>
<event>
 4    1  0.6651744E+003  0.2272878E+02  0.7546771E-02  0.1495932E+00
          2   -1    0    0  501    0  0.00000000000E+00  0.00000000000E+00  0.59654488896E+02  0.59654488896E+02  0.00000000000E+00 0. -1.
          2   -1    0    0  502    0 -0.00000000000E+00 -0.00000000000E+00 -0.11236935029E+03  0.11236935029E+03  0.00000000000E+00 0.  1.
          2    1    1    2  501    0 -0.19994454092E+02 -0.10808302300E+02 -0.10898862369E+03  0.11133336286E+03  0.00000000000E+00 0.  1.
          2    1    1    2  502    0  0.19994454092E+02  0.10808302300E+02  0.56273762296E+02  0.60690476321E+02  0.00000000000E+00 0. -1.
</event>
<event>
 4    1  0.6651744E+003  0.2012053E+02  0.7546771E-02  0.1532201E+00
          2   -1    0    0  502    0  0.00000000000E+00  0.00000000000E+00  0.11839525159E+01  0.11839525159E+01  0.00000000000E+00 0. -1.
          2   -1    0    0  501    0 -0.00000000000E+00 -0.00000000000E+00 -0.45078188394E+03  0.45078188394E+03  0.00000000000E+00 0. -1.
          2    1    1    2  501    0 -0.12585472888E+02 -0.15698456794E+02 -0.11375398838E+03  0.11551971930E+03  0.00000000000E+00 0. -1.
          2    1    1    2  502    0  0.12585472888E+02  0.15698456794E+02 -0.33584394305E+03  0.33644611716E+03  0.00000000000E+00 0. -1.
</event>
<event>
 4    1  0.6651744E+003  0.2227649E+02  0.7546771E-02  0.1501789E+00
          2   -1    0    0  502    0  0.00000000000E+00  0.00000000000E+00  0.54696931213E+03  0.54696931213E+03  0.00000000000E+00 0.  1.
          2   -1    0    0  501    0 -0.00000000000E+00 -0.00000000000E+00 -0.32658313598E+03  0.32658313598E+03  0.00000000000E+00 0. -1.
          2    1    1    2  501    0  0.18699458602E+02 -0.12106707240E+02  0.54636220151E+03  0.54681614584E+03  0.00000000000E+00 0.  1.
          2    1    1    2  502    0 -0.18699458602E+02  0.12106707240E+02 -0.32597602536E+03  0.32673630227E+03  0.00000000000E+00 0. -1.
</event>
<event>
 4    1  0.6651744E+003  0.2249545E+02  0.7546771E-02  0.1498933E+00
          2   -1    0    0  501    0  0.00000000000E+00  0.00000000000E+00  0.41946632342E+03  0.41946632342E+03  0.00000000000E+00 0. -1.
          2   -1    0    0  502    0 -0.00000000000E+00 -0.00000000000E+00 -0.29884611011E+01  0.29884611011E+01  0.00000000000E+00 0.  1.
          2    1    1    2  501    0 -0.21319113969E+02  0.71791861059E+01  0.45126375704E+02  0.50422565561E+02  0.00000000000E+00 0.  1.
          2    1    1    2  502    0  0.21319113969E+02 -0.71791861059E+01  0.37135148661E+03  0.37203221896E+03  0.00000000000E+00 0. -1.
</event>
<event>
 4    1  0.6651744E+003  0.3438826E+02  0.7546771E-02  0.1384916E+00
          2   -1    0    0  501    0  0.00000000000E+00  0.00000000000E+00  0.27333634940E+03  0.27333634940E+03  0.00000000000E+00 0. -1.
          2   -1    0    0  502    0 -0.00000000000E+00 -0.00000000000E+00 -0.49493468514E+02  0.49493468514E+02  0.00000000000E+00 0.  1.
          2    1    1    2  501    0 -0.33946523060E+02 -0.54941593840E+01 -0.42277301812E+02  0.54496994997E+02  0.00000000000E+00 0.  1.
          2    1    1    2  502    0  0.33946523060E+02  0.54941593840E+01  0.26612018270E+03  0.26833282292E+03  0.00000000000E+00 0. -1.
</event>
<event>
 4    1  0.6651744E+003  0.2932960E+02  0.7546771E-02  0.1425513E+00
          2   -1    0    0  501    0  0.00000000000E+00  0.00000000000E+00  0.10314318493E+03  0.10314318493E+03  0.00000000000E+00 0.  1.
          2   -1    0    0  502    0 -0.00000000000E+00 -0.00000000000E+00 -0.28210579586E+02  0.28210579586E+02  0.00000000000E+00 0. -1.
          2    1    1    2  501    0 -0.20005160900E+02  0.21448054818E+02 -0.17653872373E+02  0.34232801928E+02  0.00000000000E+00 0. -1.
          2    1    1    2  502    0  0.20005160900E+02 -0.21448054818E+02  0.92586477715E+02  0.97120962586E+02  0.00000000000E+00 0.  1.
</event>
<event>
 4    1  0.6651744E+003  0.2472048E+02  0.7546771E-02  0.1471955E+00
          2   -1    0    0  501    0  0.00000000000E+00  0.00000000000E+00  0.98903796134E+02  0.98903796134E+02  0.00000000000E+00 0.  1.
          2   -1    0    0  502    0 -0.00000000000E+00 -0.00000000000E+00 -0.95429022700E+01  0.95429022700E+01  0.00000000000E+00 0. -1.
          2    1    1    2  501    0 -0.22066761701E+02  0.11142720092E+02  0.12485798034E+02  0.27694716745E+02  0.00000000000E+00 0. -1.
          2    1    1    2  502    0  0.22066761701E+02 -0.11142720092E+02  0.76875095829E+02  0.80751981659E+02  0.00000000000E+00 0.  1.
</event>
<event>
 4    1  0.6651744E+003  0.2028744E+02  0.7546771E-02  0.1529686E+00
          2   -1    0    0  501    0  0.00000000000E+00  0.00000000000E+00  0.82160809180E+03  0.82160809180E+03  0.00000000000E+00 0.  1.
          2   -1    0    0  502    0 -0.00000000000E+00 -0.00000000000E+00 -0.20612918106E+01  0.20612918106E+01  0.00000000000E+00 0.  1.
          2    1    1    2  501    0  0.83078194953E+01  0.18508381348E+02  0.51459357498E+02  0.55314062579E+02  0.00000000000E+00 0.  1.
          2    1    1    2  502    0 -0.83078194953E+01 -0.18508381348E+02  0.76808744249E+03  0.76835532103E+03  0.00000000000E+00 0.  1.
</event>
<event>
 4    1  0.6651744E+003  0.2126117E+02  0.7546771E-02  0.1515568E+00
          2   -1    0    0  502    0  0.00000000000E+00  0.00000000000E+00  0.12762243678E+04  0.12762243678E+04  0.00000000000E+00 0.  1.
          2   -1    0    0  501    0 -0.00000000000E+00 -0.00000000000E+00 -0.21812392476E+01  0.21812392476E+01  0.00000000000E+00 0. -1.
          2    1    1    2  501    0 -0.19619173989E+02 -0.81930168880E+01  0.12220285681E+04  0.12222135078E+04  0.00000000000E+00 0.  1.
          2    1    1    2  502    0  0.19619173989E+02  0.81930168880E+01  0.52014560493E+02  0.56192099240E+02  0.00000000000E+00 0. -1.
</event>
<event>
 4    1  0.6651744E+003  0.2898494E+02  0.7546771E-02  0.1428627E+00
          2   -1    0    0  501    0  0.00000000000E+00  0.00000000000E+00  0.40218492981E+01  0.40218492981E+01  0.00000000000E+00 0. -1.
          2   -1    0    0  502    0 -0.00000000000E+00 -0.00000000000E+00 -0.21466839745E+04  0.21466839745E+04  0.00000000000E+00 0.  1.
          2    1    1    2  501    0  0.17340607731E+02  0.23225638922E+02 -0.20930246762E+04  0.20932253634E+04  0.00000000000E+00 0.  1.
          2    1    1    2  502    0 -0.17340607731E+02 -0.23225638922E+02 -0.49637449042E+02  0.57480460395E+02  0.00000000000E+00 0. -1.
</event>
<event>
 4    1  0.6651744E+003  0.3109196E+02  0.7546771E-02  0.1410339E+00
          2   -1    0    0  502    0  0.00000000000E+00  0.00000000000E+00  0.97092721014E+03  0.97092721014E+03  0.00000000000E+00 0. -1.
          2   -1    0    0  501    0 -0.00000000000E+00 -0.00000000000E+00 -0.84648082477E+01  0.84648082477E+01  0.00000000000E+00 0. -1.
          2    1    1    2  501    0  0.16434669617E+02  0.26393398785E+02  0.94122676923E+03  0.94174016639E+03  0.00000000000E+00 0. -1.
          2    1    1    2  502    0 -0.16434669617E+02 -0.26393398785E+02  0.21235632663E+02  0.37651852005E+02  0.00000000000E+00 0. -1.
</event>
<event>
 4    1  0.6651744E+003  0.2802340E+02  0.7546771E-02  0.1437590E+00
          2   -1    0    0  501    0  0.00000000000E+00  0.00000000000E+00  0.10384890616E+04  0.10384890616E+04  0.00000000000E+00 0.  1.
          2   -1    0    0  502    0 -0.00000000000E+00 -0.00000000000E+00 -0.24591161952E+03  0.24591161952E+03  0.00000000000E+00 0.  1.
          2    1    1    2  501    0 -0.23160513435E+02  0.15776611091E+02 -0.24492344099E+03  0.24652140432E+03  0.00000000000E+00 0.  1.
          2    1    1    2  502    0  0.23160513435E+02 -0.15776611091E+02  0.10375008830E+04  0.10378792768E+04  0.00000000000E+00 0.  1.
</event>
<event>
 4    1  0.6651744E+003  0.3245408E+02  0.7546771E-02  0.1399403E+00
          2   -1    0    0  501    0  0.00000000000E+00  0.00000000000E+00  0.17323192495E+02  0.17323192495E+02  0.00000000000E+00 0.  1.
          2   -1    0    0  502    0 -0.00000000000E+00 -0.00000000000E+00 -0.18324044771E+04  0.18324044771E+04  0.00000000000E+00 0. -1.
          2    1    1    2  501    0 -0.29966749195E+02 -0.12460395710E+02 -0.18169310872E+04  0.18172209120E+04  0.00000000000E+00 0. -1.
          2    1    1    2  502    0  0.29966749195E+02  0.12460395710E+02  0.18498025741E+01  0.32506757576E+02  0.00000000000E+00 0.  1.
</event>
<event>
 4    1  0.6651744E+003  0.2299263E+02  0.7546771E-02  0.1492591E+00
          2   -1    0    0  501    0  0.00000000000E+00  0.00000000000E+00  0.82149544113E+03  0.82149544113E+03  0.00000000000E+00 0.  1.
          2   -1    0    0  502    0 -0.00000000000E+00 -0.00000000000E+00 -0.56509127435E+02  0.56509127435E+02  0.00000000000E+00 0. -1.
          2    1    1    2  501    0  0.15069256942E+02 -0.17366010968E+02 -0.54002256728E+02  0.58693309443E+02  0.00000000000E+00 0. -1.
          2    1    1    2  502    0 -0.15069256942E+02  0.17366010968E+02  0.81898857042E+03  0.81931125912E+03  0.00000000000E+00 0.  1.
</event>
<event>
 4    1  0.6651744E+003  0.2385563E+02  0.7546771E-02  0.1482025E+00
          2   -1    0    0  501    0  0.00000000000E+00  0.00000000000E+00  0.11301254421E+02  0.11301254421E+02  0.00000000000E+00 0.  1.
          2   -1    0    0  502    0 -0.00000000000E+00 -0.00000000000E+00 -0.12153605584E+04  0.12153605584E+04  0.00000000000E+00 0.  1.
          2    1    1    2  501    0  0.18777179599E+02  0.14714224756E+02 -0.12025199735E+04  0.12027565745E+04  0.00000000000E+00 0.  1.
          2    1    1    2  502    0 -0.18777179599E+02 -0.14714224756E+02 -0.15393305664E+01  0.23905238389E+02  0.00000000000E+00 0.  1.
</event>
<event>
 4    1  0.6651744E+003  0.2131807E+02  0.7546771E-02  0.1514772E+00
          2   -1    0    0  502    0  0.00000000000E+00  0.00000000000E+00  0.70957573765E+02  0.70957573765E+02  0.00000000000E+00 0. -1.
          2   -1    0    0  501    0 -0.00000000000E+00 -0.00000000000E+00 -0.11835230449E+02  0.11835230449E+02  0.00000000000E+00 0.  1.
          2    1    1    2  501    0 -0.13814214807E+02 -0.16236609079E+02  0.57602363773E+02  0.61420618015E+02  0.00000000000E+00 0. -1.
          2    1    1    2  502    0  0.13814214807E+02  0.16236609079E+02  0.15199795427E+01  0.21372186199E+02  0.00000000000E+00 0.  1.
</event>
<event>
 4    1  0.6651744E+003  0.3931723E+02  0.7546771E-02  0.1352534E+00
          2   -1    0    0  501    0  0.00000000000E+00  0.00000000000E+00  0.13720793511E+01  0.13720793511E+01  0.00000000000E+00 0. -1.
          2   -1    0    0  502    0 -0.00000000000E+00 -0.00000000000E+00 -0.11483520474E+04  0.11483520474E+04  0.00000000000E+00 0. -1.
          2    1    1    2  501    0  0.10023759776E+02  0.38018008199E+02 -0.65252843277E+03  0.65371186334E+03  0.00000000000E+00 0. -1.
          2    1    1    2  502    0 -0.10023759776E+02 -0.38018008199E+02 -0.49445153526E+03  0.49601226338E+03  0.00000000000E+00 0. -1.
</event>
<event>
 4    1  0.6651744E+003  0.2233856E+02  0.7546771E-02  0.1500975E+00
          2   -1    0    0  501    0  0.00000000000E+00  0.00000000000E+00  0.19036007189E+03  0.19036007189E+03  0.00000000000E+00 0.  1.
          2   -1    0    0  502    0 -0.00000000000E+00 -0.00000000000E+00 -0.10437149699E+02  0.10437149699E+02  0.00000000000E+00 0.  1.
          2    1    1    2  501    0  0.91090086926E+01 -0.20396990233E+02  0.30810493551E+01  0.22550035811E+02  0.00000000000E+00 0.  1.
          2    1    1    2  502    0 -0.91090086926E+01  0.20396990233E+02  0.17684187284E+03  0.17824718578E+03  0.00000000000E+00 0.  1.
</event>
<event>
 4    1  0.6651744E+003  0.2114073E+02  0.7546771E-02  0.1517265E+00
          2   -1    0    0  502    0  0.00000000000E+00  0.00000000000E+00  0.15467271620E+04  0.15467271620E+04  0.00000000000E+00 0. -1.
          2   -1    0    0  501    0 -0.00000000000E+00 -0.00000000000E+00 -0.12209748556E+02  0.12209748556E+02  0.00000000000E+00 0. -1.
          2    1    1    2  501    0  0.23220886578E+00 -0.21139458156E+02  0.15374485973E+04  0.15375939386E+04  0.00000000000E+00 0. -1.
          2    1    1    2  502    0 -0.23220886578E+00  0.21139458156E+02 -0.29311838966E+01  0.21342971938E+02  0.00000000000E+00 0. -1.
</event>
<event>
 4    1  0.6651744E+003  0.2745365E+02  0.7546771E-02  0.1443104E+00
          2   -1    0    0  502    0  0.00000000000E+00  0.00000000000E+00  0.57662834949E+03  0.57662834949E+03  0.00000000000E+00 0.  1.
          2   -1    0    0  501    0 -0.00000000000E+00 -0.00000000000E+00 -0.18708958394E+01  0.18708958394E+01  0.00000000000E+00 0. -1.
          2    1    1    2  501    0 -0.21487329237E+02 -0.17087939212E+02  0.44616546498E+03  0.44700931212E+03  0.00000000000E+00 0.  1.
          2    1    1    2  502    0  0.21487329237E+02  0.17087939212E+02  0.12859198867E+03  0.13148993321E+03  0.00000000000E+00 0. -1.
</event>
<event>
 4    1  0.6651744E+003  0.2013068E+02  0.7546771E-02  0.1532047E+00
          2   -1    0    0  502    0  0.00000000000E+00  0.00000000000E+00  0.52273904756E+00  0.52273904756E+00  0.00000000000E+00 0.  1.
          2   -1    0    0  501    0 -0.00000000000E+00 -0.00000000000E+00 -0.11722098283E+04  0.11722098283E+04  0.00000000000E+00 0.  1.
          2    1    1    2  501    0 -0.16199796609E+02  0.11950354986E+02 -0.24461208560E+03  0.24543902871E+03  0.00000000000E+00 0.  1.
          2    1    1    2  502    0  0.16199796609E+02 -0.11950354986E+02 -0.92707500363E+03  0.92729353861E+03  0.00000000000E+00 0.  1.
</event>
<event>
 4    1  0.6651744E+003  0.3288863E+02  0.7546771E-02  0.1396047E+00
          2   -1    0    0  502    0  0.00000000000E+00  0.00000000000E+00  0.19593248307E+03  0.19593248307E+03  0.00000000000E+00 0. -1.
          2   -1    0    0  501    0 -0.00000000000E+00 -0.00000000000E+00 -0.91550721163E+03  0.91550721163E+03  0.00000000000E+00 0.  1.
          2    1    1    2  501    0  0.65945983585E+00 -0.32882021195E+02  0.19425443055E+03  0.19701889755E+03  0.00000000000E+00 0. -1.
          2    1    1    2  502    0 -0.65945983585E+00  0.32882021195E+02 -0.91382915911E+03  0.91442079714E+03  0.00000000000E+00 0.  1.
</event>
<event>
 4    1  0.6651744E+003  0.4891270E+02  0.7546771E-02  0.1302957E+00
          2   -1    0    0  502    0  0.00000000000E+00  0.00000000000E+00  0.30744663469E+02  0.30744663469E+02  0.00000000000E+00 0. -1.
          2   -1    0    0  501    0 -0.00000000000E+00 -0.00000000000E+00 -0.24835407919E+03  0.24835407919E+03  0.00000000000E+00 0.  1.
          2    1    1    2  501    0  0.47573053198E+02 -0.11369117321E+02  0.68336360865E+01  0.49387759631E+02  0.00000000000E+00 0. -1.
          2    1    1    2  502    0 -0.47573053198E+02  0.11369117321E+02 -0.22444305180E+03  0.22971098302E+03  0.00000000000E+00 0.  1.
</event>
<event>
 4    1  0.6651744E+003  0.2326544E+02  0.7546771E-02  0.1489192E+00
          2   -1    0    0  502    0  0.00000000000E+00  0.00000000000E+00  0.99823478353E+03  0.99823478353E+03  0.00000000000E+00 0.  1.
          2   -1    0    0  501    0 -0.00000000000E+00 -0.00000000000E+00 -0.55982181559E+00  0.55982181559E+00  0.00000000000E+00 0.  1.
          2    1    1    2  501    0  0.14883923534E+02 -0.17881542180E+02  0.41033017815E+03  0.41098921620E+03  0.00000000000E+00 0.  1.
          2    1    1    2  502    0 -0.14883923534E+02  0.17881542180E+02  0.58734478357E+03  0.58780538915E+03  0.00000000000E+00 0.  1.
</event>
<event>
 4    1  0.6651744E+003  0.5806528E+02  0.7546771E-02  0.1266552E+00
          2   -1    0    0  501    0  0.00000000000E+00  0.00000000000E+00  0.19279976873E+01  0.19279976873E+01  0.00000000000E+00 0. -1.
          2   -1    0    0  502    0 -0.00000000000E+00 -0.00000000000E+00 -0.22972269716E+04  0.22972269716E+04  0.00000000000E+00 0. -1.
          2    1    1    2  501    0  0.54569487131E+02  0.19843072379E+02 -0.17093663314E+04  0.17103522536E+04  0.00000000000E+00 0. -1.
          2    1    1    2  502    0 -0.54569487131E+02 -0.19843072379E+02 -0.58593264257E+03  0.58880271575E+03  0.00000000000E+00 0. -1.
</event>
<event>
 4    1  0.6651744E+003  0.2682263E+02  0.7546771E-02  0.1449398E+00
          2   -1    0    0  501    0  0.00000000000E+00  0.00000000000E+00  0.51792642394E+02  0.51792642394E+02  0.00000000000E+00 0.  1.
          2   -1    0    0  502    0 -0.00000000000E+00 -0.00000000000E+00 -0.52294757378E+02  0.52294757378E+02  0.00000000000E+00 0. -1.
          2    1    1    2  501    0  0.26219025803E+02 -0.56582953455E+01 -0.44850119533E+02  0.52258844633E+02  0.00000000000E+00 0. -1.
          2    1    1    2  502    0 -0.26219025803E+02  0.56582953455E+01  0.44348004549E+02  0.51828555138E+02  0.00000000000E+00 0.  1.
</event>
<event>
 4    1  0.6651744E+003  0.2379028E+02  0.7546771E-02  0.1482806E+00
          2   -1    0    0  501    0  0.00000000000E+00  0.00000000000E+00  0.51336254600E+01  0.51336254600E+01  0.00000000000E+00 0.  1.
          2   -1    0    0  502    0 -0.00000000000E+00 -0.00000000000E+00 -0.52903434808E+03  0.52903434808E+03  0.00000000000E+00 0.  1.
          2    1    1    2  501    0 -0.50496580636E+01  0.23248194945E+02 -0.49958054299E+03  0.50014667503E+03  0.00000000000E+00 0.  1.
          2    1    1    2  502    0  0.50496580636E+01 -0.23248194945E+02 -0.24320179633E+02  0.34021298508E+02  0.00000000000E+00 0.  1.
</event>
<event>
 4    1  0.6651744E+003  0.2872200E+02  0.7546771E-02  0.1431037E+00
          2   -1    0    0  502    0  0.00000000000E+00  0.00000000000E+00  0.12981534567E+03  0.12981534567E+03  0.00000000000E+00 0.  1.
          2   -1    0    0  501    0 -0.00000000000E+00 -0.00000000000E+00 -0.15221537905E+03  0.15221537905E+03  0.00000000000E+00 0.  1.
          2    1    1    2  501    0 -0.20853868804E+02 -0.19750180893E+02  0.12684034674E+03  0.13005163225E+03  0.00000000000E+00 0.  1.
          2    1    1    2  502    0  0.20853868804E+02  0.19750180893E+02 -0.14924038012E+03  0.15197909247E+03  0.00000000000E+00 0.  1.
</event>
<event>
 4    1  0.6651744E+003  0.2841651E+02  0.7546771E-02  0.1433875E+00
          2   -1    0    0  502    0  0.00000000000E+00  0.00000000000E+00  0.32766788689E+03  0.32766788689E+03  0.00000000000E+00 0.  1.
          2   -1    0    0  501    0 -0.00000000000E+00 -0.00000000000E+00 -0.27806308119E+03  0.27806308119E+03  0.00000000000E+00 0. -1.
          2    1    1    2  501    0  0.19225777468E+02  0.20925278690E+02  0.32632280294E+03  0.32755773464E+03  0.00000000000E+00 0.  1.
          2    1    1    2  502    0 -0.19225777468E+02 -0.20925278690E+02 -0.27671799723E+03  0.27817323344E+03  0.00000000000E+00 0. -1.
</event>
<event>
 4    1  0.6651744E+003  0.2042288E+02  0.7546771E-02  0.1527666E+00
          2   -1    0    0  501    0  0.00000000000E+00  0.00000000000E+00  0.14322296488E+01  0.14322296488E+01  0.00000000000E+00 0.  1.
          2   -1    0    0  502    0 -0.00000000000E+00 -0.00000000000E+00 -0.58600303991E+03  0.58600303991E+03  0.00000000000E+00 0. -1.
          2    1    1    2  501    0 -0.13682198746E+02 -0.15162176158E+02 -0.50060552466E+03  0.50102194111E+03  0.00000000000E+00 0. -1.
          2    1    1    2  502    0  0.13682198746E+02  0.15162176158E+02 -0.83965285602E+02  0.86413328454E+02  0.00000000000E+00 0.  1.
</event>
<event>
 4    1  0.6651744E+003  0.3432241E+02  0.7546771E-02  0.1385390E+00
          2   -1    0    0  501    0  0.00000000000E+00  0.00000000000E+00  0.53863574033E+02  0.53863574033E+02  0.00000000000E+00 0.  1.
          2   -1    0    0  502    0 -0.00000000000E+00 -0.00000000000E+00 -0.12481893976E+04  0.12481893976E+04  0.00000000000E+00 0. -1.
          2    1    1    2  501    0 -0.29183039110E+02  0.18065931613E+02 -0.12424605994E+04  0.12429345794E+04  0.00000000000E+00 0. -1.
          2    1    1    2  502    0  0.29183039110E+02 -0.18065931613E+02  0.48134775818E+02  0.59118392229E+02  0.00000000000E+00 0.  1.
</event>
<event>
 4    1  0.6651744E+003  0.2448650E+02  0.7546771E-02  0.1474631E+00
          2   -1    0    0  502    0  0.00000000000E+00  0.00000000000E+00  0.89045124686E+03  0.89045124686E+03  0.00000000000E+00 0.  1.
          2   -1    0    0  501    0 -0.00000000000E+00 -0.00000000000E+00 -0.25727891135E+02  0.25727891135E+02  0.00000000000E+00 0. -1.
          2    1    1    2  501    0 -0.21706127435E+02 -0.11332825153E+02  0.88441690990E+03  0.88475581909E+03  0.00000000000E+00 0.  1.
          2    1    1    2  502    0  0.21706127435E+02  0.11332825153E+02 -0.19693554184E+02  0.31423318898E+02  0.00000000000E+00 0. -1.
</event>
<event>
 4    1  0.6651744E+003  0.3168562E+02  0.7546771E-02  0.1405493E+00
          2   -1    0    0  502    0  0.00000000000E+00  0.00000000000E+00  0.18620620290E+04  0.18620620290E+04  0.00000000000E+00 0.  1.
          2   -1    0    0  501    0 -0.00000000000E+00 -0.00000000000E+00 -0.16199271055E+03  0.16199271055E+03  0.00000000000E+00 0.  1.
          2    1    1    2  501    0  0.48021839836E+01 -0.31319608045E+02  0.18603764116E+04  0.18606462242E+04  0.00000000000E+00 0.  1.
          2    1    1    2  502    0 -0.48021839836E+01  0.31319608045E+02 -0.16030709308E+03  0.16340851542E+03  0.00000000000E+00 0.  1.
</event>
<event>
 4    1  0.6651744E+003  0.3074881E+02  0.7546771E-02  0.1413199E+00
          2   -1    0    0  501    0  0.00000000000E+00  0.00000000000E+00  0.13362274614E+04  0.13362274614E+04  0.00000000000E+00 0. -1.
          2   -1    0    0  502    0 -0.00000000000E+00 -0.00000000000E+00 -0.16707774577E+02  0.16707774577E+02  0.00000000000E+00 0. -1.
          2    1    1    2  501    0 -0.15070533398E+02  0.26802398065E+02 -0.22284712558E+01  0.30829459987E+02  0.00000000000E+00 0. -1.
          2    1    1    2  502    0  0.15070533398E+02 -0.26802398065E+02  0.13217481581E+04  0.13221057760E+04  0.00000000000E+00 0. -1.
</event>
<event>
 4    1  0.6651744E+003  0.2686162E+02  0.7546771E-02  0.1449003E+00
          2   -1    0    0  502    0  0.00000000000E+00  0.00000000000E+00  0.38534685287E+01  0.38534685287E+01  0.00000000000E+00 0. -1.
          2   -1    0    0  501    0 -0.00000000000E+00 -0.00000000000E+00 -0.49820400647E+03  0.49820400647E+03  0.00000000000E+00 0.  1.
          2    1    1    2  501    0  0.65794010469E+01  0.26043390540E+02 -0.48853366361E+02  0.55751216254E+02  0.00000000000E+00 0. -1.
          2    1    1    2  502    0 -0.65794010469E+01 -0.26043390540E+02 -0.44549717158E+03  0.44630625874E+03  0.00000000000E+00 0.  1.
</event>
<event>
 4    1  0.6651744E+003  0.2226558E+02  0.7546771E-02  0.1501932E+00
          2   -1    0    0  502    0  0.00000000000E+00  0.00000000000E+00  0.20098532369E+01  0.20098532369E+01  0.00000000000E+00 0.  1.
          2   -1    0    0  501    0 -0.00000000000E+00 -0.00000000000E+00 -0.14219317770E+04  0.14219317770E+04  0.00000000000E+00 0.  1.
          2    1    1    2  501    0 -0.12207782184E+02  0.18620588384E+02 -0.62682096860E+02  0.66519181627E+02  0.00000000000E+00 0.  1.
          2    1    1    2  502    0  0.12207782184E+02 -0.18620588384E+02 -0.13572398269E+04  0.13574224486E+04  0.00000000000E+00 0.  1.
</event>
<event>
 4    1  0.6651744E+003  0.2049847E+02  0.7546771E-02  0.1526547E+00
          2   -1    0    0  501    0  0.00000000000E+00  0.00000000000E+00  0.52674847964E+03  0.52674847964E+03  0.00000000000E+00 0. -1.
          2   -1    0    0  502    0 -0.00000000000E+00 -0.00000000000E+00 -0.14347949864E+02  0.14347949864E+02  0.00000000000E+00 0.  1.
          2    1    1    2  501    0  0.20189905774E+02 -0.35433137420E+01 -0.67195972560E+01  0.21571748995E+02  0.00000000000E+00 0.  1.
          2    1    1    2  502    0 -0.20189905774E+02  0.35433137420E+01  0.51912012703E+03  0.51952468051E+03  0.00000000000E+00 0. -1.
</event>
<event>
 4    1  0.6651744E+003  0.3377179E+02  0.7546771E-02  0.1389410E+00
          2   -1    0    0  501    0  0.00000000000E+00  0.00000000000E+00  0.27909344852E+01  0.27909344852E+01  0.00000000000E+00 0.  1.
          2   -1    0    0  502    0 -0.00000000000E+00 -0.00000000000E+00 -0.15072902895E+04  0.15072902895E+04  0.00000000000E+00 0.  1.
          2    1    1    2  501    0  0.27861929017E+02  0.19085249436E+02 -0.13968615721E+04  0.13972697611E+04  0.00000000000E+00 0.  1.
          2    1    1    2  502    0 -0.27861929017E+02 -0.19085249436E+02 -0.10763778291E+03  0.11281146283E+03  0.00000000000E+00 0.  1.
</event>
<event>
 4    1  0.6651744E+003  0.2079465E+02  0.7546771E-02  0.1522217E+00
          2   -1    0    0  502    0  0.00000000000E+00  0.00000000000E+00  0.35988379567E+01  0.35988379567E+01  0.00000000000E+00 0.  1.
          2   -1    0    0  501    0 -0.00000000000E+00 -0.00000000000E+00 -0.12874112851E+03  0.12874112851E+03  0.00000000000E+00 0.  1.
          2    1    1    2  501    0  0.14687869951E+02  0.14720184786E+02 -0.45482479155E+02  0.50010731587E+02  0.00000000000E+00 0.  1.
          2    1    1    2  502    0 -0.14687869951E+02 -0.14720184786E+02 -0.79659811399E+02  0.82329234880E+02  0.00000000000E+00 0.  1.
</event>
<event>
 4    1  0.6651744E+003  0.2763665E+02  0.7546771E-02  0.1441316E+00
          2   -1    0    0  502    0  0.00000000000E+00  0.00000000000E+00  0.79303433053E+02  0.79303433053E+02  0.00000000000E+00 0.  1.
          2   -1    0    0  501    0 -0.00000000000E+00 -0.00000000000E+00 -0.15691006740E+02  0.15691006740E+02  0.00000000000E+00 0. -1.
          2    1    1    2  501    0  0.25993340163E+02 -0.93877865470E+01  0.61323301024E+02  0.67263151261E+02  0.00000000000E+00 0.  1.
          2    1    1    2  502    0 -0.25993340163E+02  0.93877865470E+01  0.22891252880E+01  0.27731288532E+02  0.00000000000E+00 0. -1.
</event>
<event>
 4    1  0.6651744E+003  0.2150316E+02  0.7546771E-02  0.1512201E+00
          2   -1    0    0  501    0  0.00000000000E+00  0.00000000000E+00  0.29036462040E+03  0.29036462040E+03  0.00000000000E+00 0.  1.
          2   -1    0    0  502    0 -0.00000000000E+00 -0.00000000000E+00 -0.93595141946E+01  0.93595141946E+01  0.00000000000E+00 0.  1.
          2    1    1    2  501    0 -0.19096193825E+02  0.98854134989E+01  0.39832678081E+01  0.21868983540E+02  0.00000000000E+00 0.  1.
          2    1    1    2  502    0  0.19096193825E+02 -0.98854134989E+01  0.27702183840E+03  0.27785515105E+03  0.00000000000E+00 0.  1.
</event>
<event>
 4    1  0.6651744E+003  0.2707193E+02  0.7546771E-02  0.1446887E+00
          2   -1    0    0  501    0  0.00000000000E+00  0.00000000000E+00  0.11202815197E+03  0.11202815197E+03  0.00000000000E+00 0.  1.
          2   -1    0    0  502    0 -0.00000000000E+00 -0.00000000000E+00 -0.98391788692E+01  0.98391788692E+01  0.00000000000E+00 0. -1.
          2    1    1    2  501    0  0.26397996519E+02  0.60029369973E+01  0.15821002036E+02  0.31355917755E+02  0.00000000000E+00 0. -1.
          2    1    1    2  502    0 -0.26397996519E+02 -0.60029369973E+01  0.86367971069E+02  0.90511413089E+02  0.00000000000E+00 0.  1.
</event>
<event>
 4    1  0.6651744E+003  0.2308353E+02  0.7546771E-02  0.1491452E+00
          2   -1    0    0  501    0  0.00000000000E+00  0.00000000000E+00  0.98612575752E+02  0.98612575752E+02  0.00000000000E+00 0.  1.
          2   -1    0    0  502    0 -0.00000000000E+00 -0.00000000000E+00 -0.13778846673E+04  0.13778846673E+04  0.00000000000E+00 0. -1.
          2    1    1    2  501    0  0.91134389425E+01 -0.21208361525E+02 -0.13764357008E+04  0.13766292485E+04  0.00000000000E+00 0. -1.
          2    1    1    2  502    0 -0.91134389425E+01  0.21208361525E+02  0.97163609268E+02  0.99867994543E+02  0.00000000000E+00 0.  1.
</event>
<event>
 4    1  0.6651744E+003  0.2640912E+02  0.7546771E-02  0.1453636E+00
          2   -1    0    0  502    0  0.00000000000E+00  0.00000000000E+00  0.82599743109E+03  0.82599743109E+03  0.00000000000E+00 0.  1.
          2   -1    0    0  501    0 -0.00000000000E+00 -0.00000000000E+00 -0.98715574347E+01  0.98715574347E+01  0.00000000000E+00 0. -1.
          2    1    1    2  501    0  0.22962892655E+02 -0.13044052421E+02  0.80772394082E+03  0.80815555824E+03  0.00000000000E+00 0.  1.
          2    1    1    2  502    0 -0.22962892655E+02  0.13044052421E+02  0.84019328343E+01  0.27713430282E+02  0.00000000000E+00 0. -1.
</event>
<event>
 4    1  0.6651744E+003  0.4716177E+02  0.7546771E-02  0.1310970E+00
          2   -1    0    0  502    0  0.00000000000E+00  0.00000000000E+00  0.69476742273E+03  0.69476742273E+03  0.00000000000E+00 0. -1.
          2   -1    0    0  501    0 -0.00000000000E+00 -0.00000000000E+00 -0.21355056611E+03  0.21355056611E+03  0.00000000000E+00 0. -1.
          2    1    1    2  501    0 -0.31377854249E+02 -0.35208848445E+02  0.69135034490E+03  0.69295709257E+03  0.00000000000E+00 0. -1.
          2    1    1    2  502    0  0.31377854249E+02  0.35208848445E+02 -0.21013348828E+03  0.21536089627E+03  0.00000000000E+00 0. -1.
</event>
<event>
 4    1  0.6651744E+003  0.2269410E+02  0.7546771E-02  0.1496376E+00
          2   -1    0    0  502    0  0.00000000000E+00  0.00000000000E+00  0.14632210443E+04  0.14632210443E+04  0.00000000000E+00 0.  1.
          2   -1    0    0  501    0 -0.00000000000E+00 -0.00000000000E+00 -0.33923673743E+01  0.33923673743E+01  0.00000000000E+00 0.  1.
          2    1    1    2  501    0  0.13368331851E+02  0.18338751896E+02  0.14241370158E+04  0.14243178234E+04  0.00000000000E+00 0.  1.
          2    1    1    2  502    0 -0.13368331851E+02 -0.18338751896E+02  0.35691661058E+02  0.42295588265E+02  0.00000000000E+00 0.  1.
</event>
<event>
 4    1  0.6651744E+003  0.3748602E+02  0.7546771E-02  0.1363883E+00
          2   -1    0    0  502    0  0.00000000000E+00  0.00000000000E+00  0.11881500319E+02  0.11881500319E+02  0.00000000000E+00 0. -1.
          2   -1    0    0  501    0 -0.00000000000E+00 -0.00000000000E+00 -0.12609647197E+04  0.12609647197E+04  0.00000000000E+00 0.  1.
          2    1    1    2  501    0 -0.31301069663E+02 -0.20626308914E+02 -0.18698798272E+02  0.41890889681E+02  0.00000000000E+00 0. -1.
          2    1    1    2  502    0  0.31301069663E+02  0.20626308914E+02 -0.12303844211E+04  0.12309553304E+04  0.00000000000E+00 0.  1.
</event>
<event>
 4    1  0.6651744E+003  0.2294440E+02  0.7546771E-02  0.1493197E+00
          2   -1    0    0  501    0  0.00000000000E+00  0.00000000000E+00  0.25513105903E+03  0.25513105903E+03  0.00000000000E+00 0.  1.
          2   -1    0    0  502    0 -0.00000000000E+00 -0.00000000000E+00 -0.34553162076E+02  0.34553162076E+02  0.00000000000E+00 0.  1.
          2    1    1    2  501    0 -0.22882770913E+02  0.16806178571E+01 -0.30161779679E+02  0.37896947561E+02  0.00000000000E+00 0.  1.
          2    1    1    2  502    0  0.22882770913E+02 -0.16806178571E+01  0.25073967663E+03  0.25178727354E+03  0.00000000000E+00 0.  1.
</event>
<event>
 4    1  0.6651744E+003  0.4201211E+02  0.7546771E-02  0.1337082E+00
          2   -1    0    0  501    0  0.00000000000E+00  0.00000000000E+00  0.15944882983E+01  0.15944882983E+01  0.00000000000E+00 0.  1.
          2   -1    0    0  502    0 -0.00000000000E+00 -0.00000000000E+00 -0.14327147413E+04  0.14327147413E+04  0.00000000000E+00 0.  1.
          2    1    1    2  501    0  0.38585342267E+02 -0.16618935055E+02 -0.10575281240E+04  0.10583622965E+04  0.00000000000E+00 0.  1.
          2    1    1    2  502    0 -0.38585342267E+02  0.16618935055E+02 -0.37359212897E+03  0.37594693305E+03  0.00000000000E+00 0.  1.
</event>
<event>
 4    1  0.6651744E+003  0.2018437E+02  0.7546771E-02  0.1531236E+00
          2   -1    0    0  502    0  0.00000000000E+00  0.00000000000E+00  0.47813929069E+00  0.47813929069E+00  0.00000000000E+00 0.  1.
          2   -1    0    0  501    0 -0.00000000000E+00 -0.00000000000E+00 -0.15984163826E+04  0.15984163826E+04  0.00000000000E+00 0.  1.
          2    1    1    2  501    0 -0.12167603453E+02  0.16104607161E+02 -0.25269001940E+03  0.25349488131E+03  0.00000000000E+00 0.  1.
          2    1    1    2  502    0  0.12167603453E+02 -0.16104607161E+02 -0.13452482239E+04  0.13453996405E+04  0.00000000000E+00 0.  1.
</event>
<event>
 4    1  0.6651744E+003  0.3209529E+02  0.7546771E-02  0.1402221E+00
          2   -1    0    0  501    0  0.00000000000E+00  0.00000000000E+00  0.15283233238E+04  0.15283233238E+04  0.00000000000E+00 0. -1.
          2   -1    0    0  502    0 -0.00000000000E+00 -0.00000000000E+00 -0.13155318592E+02  0.13155318592E+02  0.00000000000E+00 0.  1.
          2    1    1    2  501    0 -0.61014683951E+01  0.31509995411E+02  0.68486581561E+01  0.32817858643E+02  0.00000000000E+00 0.  1.
          2    1    1    2  502    0  0.61014683951E+01 -0.31509995411E+02  0.15083193471E+04  0.15086607838E+04  0.00000000000E+00 0. -1.
</event>
<event>
 4    1  0.6651744E+003  0.2040182E+02  0.7546771E-02  0.1527979E+00
          2   -1    0    0  501    0  0.00000000000E+00  0.00000000000E+00  0.25967996600E+03  0.25967996600E+03  0.00000000000E+00 0.  1.
          2   -1    0    0  502    0 -0.00000000000E+00 -0.00000000000E+00 -0.16813432160E+01  0.16813432160E+01  0.00000000000E+00 0.  1.
          2    1    1    2  501    0  0.44712556754E+01  0.19905833108E+02  0.10076792519E+03  0.10281249470E+03  0.00000000000E+00 0.  1.
          2    1    1    2  502    0 -0.44712556754E+01 -0.19905833108E+02  0.15723069759E+03  0.15854881451E+03  0.00000000000E+00 0.  1.
</event>
<event>
 4    1  0.6651744E+003  0.2430543E+02  0.7546771E-02  0.1476726E+00
          2   -1    0    0  501    0  0.00000000000E+00  0.00000000000E+00  0.85854248292E+02  0.85854248292E+02  0.00000000000E+00 0. -1.
          2   -1    0    0  502    0 -0.00000000000E+00 -0.00000000000E+00 -0.32413159860E+02  0.32413159860E+02  0.00000000000E+00 0.  1.
          2    1    1    2  501    0 -0.55098374976E+01  0.23672674659E+02 -0.25762508916E+02  0.35418366710E+02  0.00000000000E+00 0.  1.
          2    1    1    2  502    0  0.55098374976E+01 -0.23672674659E+02  0.79203597349E+02  0.82849041441E+02  0.00000000000E+00 0. -1.
</event>
<event>
 4    1  0.1303691E+004  0.2176903E+02  0.7546771E-02  0.1508562E+00
          2   -1    0    0  501    0  0.00000000000E+00  0.00000000000E+00  0.59376044949E+03  0.59376044949E+03  0.00000000000E+00 0.  1.
          2   -1    0    0  502    0 -0.00000000000E+00 -0.00000000000E+00 -0.14595158216E+04  0.14595158216E+04  0.00000000000E+00 0.  1.
          2    1    1    2  501    0 -0.16632134758E+02  0.14045025956E+02 -0.14592350813E+04  0.14593974486E+04  0.00000000000E+00 0.  1.
          2    1    1    2  502    0  0.16632134758E+02 -0.14045025956E+02  0.59347970913E+03  0.59387882249E+03  0.00000000000E+00 0.  1.
</event>
<event>
 4    1  0.6651744E+003  0.3247590E+02  0.7546771E-02  0.1399233E+00
          2   -1    0    0  501    0  0.00000000000E+00  0.00000000000E+00  0.15793055083E+04  0.15793055083E+04  0.00000000000E+00 0. -1.
          2   -1    0    0  502    0 -0.00000000000E+00 -0.00000000000E+00 -0.19448972812E+01  0.19448972812E+01  0.00000000000E+00 0.  1.
          2    1    1    2  501    0 -0.28576059554E+02 -0.15430258587E+02  0.14801420771E+03  0.15153511060E+03  0.00000000000E+00 0.  1.
          2    1    1    2  502    0  0.28576059554E+02  0.15430258587E+02  0.14293464033E+04  0.14297152950E+04  0.00000000000E+00 0. -1.
</event>
<event>
 4    1  0.6651744E+003  0.2939912E+02  0.7546771E-02  0.1424891E+00
          2   -1    0    0  502    0  0.00000000000E+00  0.00000000000E+00  0.60780132852E+00  0.60780132852E+00  0.00000000000E+00 0. -1.
          2   -1    0    0  501    0 -0.00000000000E+00 -0.00000000000E+00 -0.21290847731E+04  0.21290847731E+04  0.00000000000E+00 0. -1.
          2    1    1    2  501    0 -0.24274102611E+02 -0.16585417303E+02 -0.45059123705E+03  0.45154930078E+03  0.00000000000E+00 0. -1.
          2    1    1    2  502    0  0.24274102611E+02  0.16585417303E+02 -0.16778857347E+04  0.16781432737E+04  0.00000000000E+00 0. -1.
</event>
<event>
 4    1  0.6651744E+003  0.2673086E+02  0.7546771E-02  0.1450331E+00
          2   -1    0    0  501    0  0.00000000000E+00  0.00000000000E+00  0.11263628422E+04  0.11263628422E+04  0.00000000000E+00 0.  1.
          2   -1    0    0  502    0 -0.00000000000E+00 -0.00000000000E+00 -0.98011677065E+02  0.98011677065E+02  0.00000000000E+00 0. -1.
          2    1    1    2  501    0  0.20345550046E+02 -0.17337749724E+02 -0.96027280219E+02  0.99678370364E+02  0.00000000000E+00 0. -1.
          2    1    1    2  502    0 -0.20345550046E+02  0.17337749724E+02  0.11243784454E+04  0.11246961489E+04  0.00000000000E+00 0.  1.
</event>
<event>
 4    1  0.6651744E+003  0.2173603E+02  0.7546771E-02  0.1509010E+00
          2   -1    0    0  502    0  0.00000000000E+00  0.00000000000E+00  0.14561778785E+03  0.14561778785E+03  0.00000000000E+00 0. -1.
          2   -1    0    0  501    0 -0.00000000000E+00 -0.00000000000E+00 -0.16045052218E+03  0.16045052218E+03  0.00000000000E+00 0.  1.
          2    1    1    2  501    0 -0.21527502265E+02 -0.30036382174E+01  0.14406262541E+03  0.14569315439E+03  0.00000000000E+00 0. -1.
          2    1    1    2  502    0  0.21527502265E+02  0.30036382174E+01 -0.15889535974E+03  0.16037515563E+03  0.00000000000E+00 0.  1.
</event>
<event>
 4    1  0.6651744E+003  0.1073865E+03  0.7546771E-02  0.1151589E+00
          2   -1    0    0  502    0  0.00000000000E+00  0.00000000000E+00  0.25706668030E+02  0.25706668030E+02  0.00000000000E+00 0.  1.
          2   -1    0    0  501    0 -0.00000000000E+00 -0.00000000000E+00 -0.15177962881E+04  0.15177962881E+04  0.00000000000E+00 0.  1.
          2    1    1    2  501    0  0.24553598646E+02 -0.10454172768E+03 -0.98304826337E+02  0.14558739957E+03  0.00000000000E+00 0.  1.
          2    1    1    2  502    0 -0.24553598646E+02  0.10454172768E+03 -0.13937847937E+04  0.13979155566E+04  0.00000000000E+00 0.  1.
</event>
<event>
 4    1  0.6651744E+003  0.3615073E+02  0.7546771E-02  0.1372649E+00
          2   -1    0    0  502    0  0.00000000000E+00  0.00000000000E+00  0.23371183883E+04  0.23371183883E+04  0.00000000000E+00 0. -1.
          2   -1    0    0  501    0 -0.00000000000E+00 -0.00000000000E+00 -0.13326889947E+02  0.13326889947E+02  0.00000000000E+00 0.  1.
          2    1    1    2  501    0  0.84661435289E+00 -0.36140819835E+02  0.23121986246E+04  0.23124812118E+04  0.00000000000E+00 0. -1.
          2    1    1    2  502    0 -0.84661435289E+00  0.36140819835E+02  0.11592873746E+02  0.37964066377E+02  0.00000000000E+00 0.  1.
</event>
<event>
 4    1  0.6651744E+003  0.2438180E+02  0.7546771E-02  0.1475839E+00
          2   -1    0    0  501    0  0.00000000000E+00  0.00000000000E+00  0.30668773764E+02  0.30668773764E+02  0.00000000000E+00 0. -1.
          2   -1    0    0  502    0 -0.00000000000E+00 -0.00000000000E+00 -0.24448932498E+03  0.24448932498E+03  0.00000000000E+00 0. -1.
          2    1    1    2  501    0 -0.14783443404E+02  0.19388703237E+02 -0.23892294093E+03  0.24016378519E+03  0.00000000000E+00 0. -1.
          2    1    1    2  502    0  0.14783443404E+02 -0.19388703237E+02  0.25102389714E+02  0.34994313559E+02  0.00000000000E+00 0. -1.
</event>
<event>
 4    1  0.6651744E+003  0.5105454E+02  0.7546771E-02  0.1293664E+00
          2   -1    0    0  502    0  0.00000000000E+00  0.00000000000E+00  0.47015568005E+01  0.47015568005E+01  0.00000000000E+00 0.  1.
          2   -1    0    0  501    0 -0.00000000000E+00 -0.00000000000E+00 -0.93134316905E+03  0.93134316905E+03  0.00000000000E+00 0.  1.
          2    1    1    2  501    0  0.50248748955E+02 -0.90348740703E+01 -0.16557414237E+03  0.17326673756E+03  0.00000000000E+00 0.  1.
          2    1    1    2  502    0 -0.50248748955E+02  0.90348740703E+01 -0.76106746988E+03  0.76277798830E+03  0.00000000000E+00 0.  1.
</event>
<event>
 4    1  0.6651744E+003  0.2708237E+02  0.7546771E-02  0.1446782E+00
          2   -1    0    0  501    0  0.00000000000E+00  0.00000000000E+00  0.22233558684E+01  0.22233558684E+01  0.00000000000E+00 0. -1.
          2   -1    0    0  502    0 -0.00000000000E+00 -0.00000000000E+00 -0.33621003056E+03  0.33621003056E+03  0.00000000000E+00 0. -1.
          2    1    1    2  501    0  0.19941507609E+02 -0.18324600844E+02 -0.19020056711E+03  0.19211900076E+03  0.00000000000E+00 0. -1.
          2    1    1    2  502    0 -0.19941507609E+02  0.18324600844E+02 -0.14378610758E+03  0.14631438567E+03  0.00000000000E+00 0. -1.
</event>
<event>
 4    1  0.6651744E+003  0.2683569E+02  0.7546771E-02  0.1449266E+00
          2   -1    0    0  501    0  0.00000000000E+00  0.00000000000E+00  0.12777049247E+04  0.12777049247E+04  0.00000000000E+00 0.  1.
          2   -1    0    0  502    0 -0.00000000000E+00 -0.00000000000E+00 -0.12219316031E+02  0.12219316031E+02  0.00000000000E+00 0. -1.
          2    1    1    2  501    0  0.26565738183E+02 -0.37968030023E+01  0.28311250541E+01  0.26984614641E+02  0.00000000000E+00 0. -1.
          2    1    1    2  502    0 -0.26565738183E+02  0.37968030023E+01  0.12626544836E+04  0.12629396261E+04  0.00000000000E+00 0.  1.
</event>
<event>
 4    1  0.6651744E+003  0.2055609E+02  0.7546771E-02  0.1525698E+00
          2   -1    0    0  501    0  0.00000000000E+00  0.00000000000E+00  0.30812516267E+02  0.30812516267E+02  0.00000000000E+00 0.  1.
          2   -1    0    0  502    0 -0.00000000000E+00 -0.00000000000E+00 -0.18169042497E+02  0.18169042497E+02  0.00000000000E+00 0. -1.
          2    1    1    2  501    0  0.87837139417E+00  0.20537309811E+02 -0.58059694909E+01  0.21360288207E+02  0.00000000000E+00 0. -1.
          2    1    1    2  502    0 -0.87837139417E+00 -0.20537309811E+02  0.18449443260E+02  0.27621270557E+02  0.00000000000E+00 0.  1.
</event>
<event>
 4    1  0.6651744E+003  0.4897408E+02  0.7546771E-02  0.1302683E+00
          2   -1    0    0  502    0  0.00000000000E+00  0.00000000000E+00  0.12606658010E+01  0.12606658010E+01  0.00000000000E+00 0. -1.
          2   -1    0    0  501    0 -0.00000000000E+00 -0.00000000000E+00 -0.22299311388E+04  0.22299311388E+04  0.00000000000E+00 0. -1.
          2    1    1    2  501    0  0.46462913668E+02 -0.15480901882E+02 -0.68687272348E+03  0.68861643818E+03  0.00000000000E+00 0. -1.
          2    1    1    2  502    0 -0.46462913668E+02  0.15480901882E+02 -0.15417977495E+04  0.15425753664E+04  0.00000000000E+00 0. -1.
</event>
<event>
 4    1  0.6651744E+003  0.2442584E+02  0.7546771E-02  0.1475330E+00
          2   -1    0    0  501    0  0.00000000000E+00  0.00000000000E+00  0.60514512802E+03  0.60514512802E+03  0.00000000000E+00 0.  1.
          2   -1    0    0  502    0 -0.00000000000E+00 -0.00000000000E+00 -0.60134099044E+01  0.60134099044E+01  0.00000000000E+00 0. -1.
          2    1    1    2  501    0  0.12274868243E+02  0.21117515433E+02  0.20157567826E+02  0.31669376203E+02  0.00000000000E+00 0. -1.
          2    1    1    2  502    0 -0.12274868243E+02 -0.21117515433E+02  0.57897415029E+03  0.57948916172E+03  0.00000000000E+00 0.  1.
</event>
<event>
 4    1  0.6651744E+003  0.2458843E+02  0.7546771E-02  0.1473461E+00
          2   -1    0    0  501    0  0.00000000000E+00  0.00000000000E+00  0.10854875436E+04  0.10854875436E+04  0.00000000000E+00 0. -1.
          2   -1    0    0  502    0 -0.00000000000E+00 -0.00000000000E+00 -0.15484132917E+02  0.15484132917E+02  0.00000000000E+00 0. -1.
          2    1    1    2  501    0 -0.24568811138E+02  0.98198360389E+00 -0.54927599402E+01  0.25194467335E+02  0.00000000000E+00 0. -1.
          2    1    1    2  502    0  0.24568811138E+02 -0.98198360389E+00  0.10754961706E+04  0.10757772092E+04  0.00000000000E+00 0. -1.
</event>
<event>
 4    1  0.6651744E+003  0.2078573E+02  0.7546771E-02  0.1522346E+00
          2   -1    0    0  501    0  0.00000000000E+00  0.00000000000E+00  0.10109236741E+02  0.10109236741E+02  0.00000000000E+00 0.  1.
          2   -1    0    0  502    0 -0.00000000000E+00 -0.00000000000E+00 -0.96550822335E+03  0.96550822335E+03  0.00000000000E+00 0.  1.
          2    1    1    2  501    0 -0.15346217890E+02  0.14019277187E+02 -0.95458970983E+03  0.95481598261E+03  0.00000000000E+00 0.  1.
          2    1    1    2  502    0  0.15346217890E+02 -0.14019277187E+02 -0.80927677696E+00  0.20801477479E+02  0.00000000000E+00 0.  1.
</event>
<event>
 4    1  0.6651744E+003  0.2417401E+02  0.7546771E-02  0.1478260E+00
          2   -1    0    0  501    0  0.00000000000E+00  0.00000000000E+00  0.11551624723E+04  0.11551624723E+04  0.00000000000E+00 0.  1.
          2   -1    0    0  502    0 -0.00000000000E+00 -0.00000000000E+00 -0.16221119891E+01  0.16221119891E+01  0.00000000000E+00 0.  1.
          2    1    1    2  501    0 -0.23674526802E+02 -0.48886953641E+01  0.96972878455E+02  0.99940590941E+02  0.00000000000E+00 0.  1.
          2    1    1    2  502    0  0.23674526802E+02  0.48886953641E+01  0.10565674818E+04  0.10568439933E+04  0.00000000000E+00 0.  1.
</event>
<event>
 4    1  0.6651744E+003  0.2677142E+02  0.7546771E-02  0.1449918E+00
          2   -1    0    0  502    0  0.00000000000E+00  0.00000000000E+00  0.18564696237E+03  0.18564696237E+03  0.00000000000E+00 0.  1.
          2   -1    0    0  501    0 -0.00000000000E+00 -0.00000000000E+00 -0.21363266657E+02  0.21363266657E+02  0.00000000000E+00 0. -1.
          2    1    1    2  501    0 -0.41464364760E+01  0.26448368663E+02  0.17582900447E+03  0.17785541305E+03  0.00000000000E+00 0.  1.
          2    1    1    2  502    0  0.41464364760E+01 -0.26448368663E+02 -0.11545308753E+02  0.29154815976E+02  0.00000000000E+00 0. -1.
</event>
<event>
 4    1  0.6651744E+003  0.5792520E+02  0.7546771E-02  0.1267050E+00
          2   -1    0    0  501    0  0.00000000000E+00  0.00000000000E+00  0.12564057135E+03  0.12564057135E+03  0.00000000000E+00 0. -1.
          2   -1    0    0  502    0 -0.00000000000E+00 -0.00000000000E+00 -0.32831108703E+02  0.32831108703E+02  0.00000000000E+00 0. -1.
          2    1    1    2  501    0  0.57602209760E+02 -0.61085121455E+01  0.12179699189E+02  0.59191836956E+02  0.00000000000E+00 0. -1.
          2    1    1    2  502    0 -0.57602209760E+02  0.61085121455E+01  0.80629763458E+02  0.99279843096E+02  0.00000000000E+00 0. -1.
</event>
<event>
 4    1  0.6651744E+003  0.2246085E+02  0.7546771E-02  0.1499382E+00
          2   -1    0    0  501    0  0.00000000000E+00  0.00000000000E+00  0.14303680967E+04  0.14303680967E+04  0.00000000000E+00 0. -1.
          2   -1    0    0  502    0 -0.00000000000E+00 -0.00000000000E+00 -0.17239155529E+01  0.17239155529E+01  0.00000000000E+00 0. -1.
          2    1    1    2  501    0 -0.10163807133E+02 -0.20029644984E+02  0.75711777062E+02  0.78973177975E+02  0.00000000000E+00 0. -1.
          2    1    1    2  502    0  0.10163807133E+02  0.20029644984E+02  0.13529324041E+04  0.13531188343E+04  0.00000000000E+00 0. -1.
</event>
<event>
 4    1  0.6651744E+003  0.2245703E+02  0.7546771E-02  0.1499431E+00
          2   -1    0    0  501    0  0.00000000000E+00  0.00000000000E+00  0.15217010130E+04  0.15217010130E+04  0.00000000000E+00 0. -1.
          2   -1    0    0  502    0 -0.00000000000E+00 -0.00000000000E+00 -0.23432103079E+01  0.23432103079E+01  0.00000000000E+00 0. -1.
          2    1    1    2  501    0 -0.16150125421E+01 -0.22398880057E+02  0.53599434134E+02  0.58113831682E+02  0.00000000000E+00 0. -1.
          2    1    1    2  502    0  0.16150125421E+01  0.22398880057E+02  0.14657583686E+04  0.14659303916E+04  0.00000000000E+00 0. -1.
</event>
<event>
 4    1  0.6651744E+003  0.2260687E+02  0.7546771E-02  0.1497495E+00
          2   -1    0    0  501    0  0.00000000000E+00  0.00000000000E+00  0.10096041664E+04  0.10096041664E+04  0.00000000000E+00 0. -1.
          2   -1    0    0  502    0 -0.00000000000E+00 -0.00000000000E+00 -0.12983780614E+03  0.12983780614E+03  0.00000000000E+00 0. -1.
          2    1    1    2  501    0  0.17117001390E+02  0.14767494472E+02 -0.12872611341E+03  0.13069614724E+03  0.00000000000E+00 0. -1.
          2    1    1    2  502    0 -0.17117001390E+02 -0.14767494472E+02  0.10084924737E+04  0.10087458253E+04  0.00000000000E+00 0. -1.
</event>
<event>
 4    1  0.6651744E+003  0.3617006E+02  0.7546771E-02  0.1372519E+00
          2   -1    0    0  501    0  0.00000000000E+00  0.00000000000E+00  0.16741330954E+04  0.16741330954E+04  0.00000000000E+00 0. -1.
          2   -1    0    0  502    0 -0.00000000000E+00 -0.00000000000E+00 -0.68180646124E+01  0.68180646124E+01  0.00000000000E+00 0. -1.
          2    1    1    2  501    0 -0.21133180547E+02  0.29354073006E+02  0.42813551625E+02  0.56047061697E+02  0.00000000000E+00 0. -1.
          2    1    1    2  502    0  0.21133180547E+02 -0.29354073006E+02  0.16245014791E+04  0.16249040983E+04  0.00000000000E+00 0. -1.
</event>
<event>
 4    1  0.6651744E+003  0.2198959E+02  0.7546771E-02  0.1505591E+00
          2   -1    0    0  502    0  0.00000000000E+00  0.00000000000E+00  0.13797405701E+03  0.13797405701E+03  0.00000000000E+00 0.  1.
          2   -1    0    0  501    0 -0.00000000000E+00 -0.00000000000E+00 -0.15311029179E+03  0.15311029179E+03  0.00000000000E+00 0. -1.
          2    1    1    2  501    0 -0.17403004170E+02 -0.13441633638E+02  0.13629873579E+03  0.13806117285E+03  0.00000000000E+00 0.  1.
          2    1    1    2  502    0  0.17403004170E+02  0.13441633638E+02 -0.15143497057E+03  0.15302317596E+03  0.00000000000E+00 0. -1.
</event>
<event>
 4    1  0.6651744E+003  0.4325369E+02  0.7546771E-02  0.1330406E+00
          2   -1    0    0  501    0  0.00000000000E+00  0.00000000000E+00  0.23191676855E+04  0.23191676855E+04  0.00000000000E+00 0. -1.
          2   -1    0    0  502    0 -0.00000000000E+00 -0.00000000000E+00 -0.21229589488E+01  0.21229589488E+01  0.00000000000E+00 0.  1.
          2    1    1    2  501    0 -0.29693852527E+02 -0.31450869306E+02  0.24462227175E+03  0.24841686315E+03  0.00000000000E+00 0.  1.
          2    1    1    2  502    0  0.29693852527E+02  0.31450869306E+02  0.20724224548E+04  0.20728737813E+04  0.00000000000E+00 0. -1.
</event>
<event>
 4    1  0.6651744E+003  0.2161217E+02  0.7546771E-02  0.1510701E+00
          2   -1    0    0  502    0  0.00000000000E+00  0.00000000000E+00  0.32602130253E+01  0.32602130253E+01  0.00000000000E+00 0.  1.
          2   -1    0    0  501    0 -0.00000000000E+00 -0.00000000000E+00 -0.20186858189E+03  0.20186858189E+03  0.00000000000E+00 0.  1.
          2    1    1    2  501    0 -0.49515860368E+01 -0.21037287678E+02 -0.44044099012E+02  0.49060863577E+02  0.00000000000E+00 0.  1.
          2    1    1    2  502    0  0.49515860368E+01  0.21037287678E+02 -0.15456426985E+03  0.15606793134E+03  0.00000000000E+00 0.  1.
</event>
<event>
 4    1  0.6651744E+003  0.4476772E+02  0.7546771E-02  0.1322605E+00
          2   -1    0    0  501    0  0.00000000000E+00  0.00000000000E+00  0.13210315759E+03  0.13210315759E+03  0.00000000000E+00 0. -1.
          2   -1    0    0  502    0 -0.00000000000E+00 -0.00000000000E+00 -0.17102931366E+04  0.17102931366E+04  0.00000000000E+00 0. -1.
          2    1    1    2  501    0 -0.38515859272E+02 -0.22818364262E+02 -0.17061983085E+04  0.17067855217E+04  0.00000000000E+00 0. -1.
          2    1    1    2  502    0  0.38515859272E+02  0.22818364262E+02  0.12800832955E+03  0.13561077242E+03  0.00000000000E+00 0. -1.
</event>
<event>
 4    1  0.6651744E+003  0.2623656E+02  0.7546771E-02  0.1455431E+00
          2   -1    0    0  501    0  0.00000000000E+00  0.00000000000E+00  0.82749442509E+03  0.82749442509E+03  0.00000000000E+00 0.  1.
          2   -1    0    0  502    0 -0.00000000000E+00 -0.00000000000E+00 -0.17952802273E+03  0.17952802273E+03  0.00000000000E+00 0.  1.
          2    1    1    2  501    0  0.21837308358E+02  0.14542669763E+02 -0.17836013873E+03  0.18027949514E+03  0.00000000000E+00 0.  1.
          2    1    1    2  502    0 -0.21837308358E+02 -0.14542669763E+02  0.82632654109E+03  0.82674295267E+03  0.00000000000E+00 0.  1.
</event>
<event>
 4    1  0.6651744E+003  0.2614060E+02  0.7546771E-02  0.1456437E+00
          2   -1    0    0  502    0  0.00000000000E+00  0.00000000000E+00  0.10130421085E+02  0.10130421085E+02  0.00000000000E+00 0. -1.
          2   -1    0    0  501    0 -0.00000000000E+00 -0.00000000000E+00 -0.14899292436E+04  0.14899292436E+04  0.00000000000E+00 0. -1.
          2    1    1    2  501    0  0.85327827865E+01  0.24708754429E+02 -0.70442144638E+01  0.27073084142E+02  0.00000000000E+00 0. -1.
          2    1    1    2  502    0 -0.85327827865E+01 -0.24708754429E+02 -0.14727546081E+04  0.14729865805E+04  0.00000000000E+00 0. -1.
</event>
<event>
 4    1  0.6651744E+003  0.7512086E+02  0.7546771E-02  0.1215651E+00
          2   -1    0    0  502    0  0.00000000000E+00  0.00000000000E+00  0.70648063295E+01  0.70648063295E+01  0.00000000000E+00 0.  1.
          2   -1    0    0  501    0 -0.00000000000E+00 -0.00000000000E+00 -0.80395145045E+03  0.80395145045E+03  0.00000000000E+00 0.  1.
          2    1    1    2  501    0  0.27227885912E+02  0.70012760069E+02 -0.43100266393E+03  0.43750021790E+03  0.00000000000E+00 0.  1.
          2    1    1    2  502    0 -0.27227885912E+02 -0.70012760069E+02 -0.36588398018E+03  0.37351603888E+03  0.00000000000E+00 0.  1.
</event>
<event>
 4    1  0.6651744E+003  0.2389529E+02  0.7546771E-02  0.1481552E+00
          2   -1    0    0  502    0  0.00000000000E+00  0.00000000000E+00  0.41249259012E+02  0.41249259012E+02  0.00000000000E+00 0.  1.
          2   -1    0    0  501    0 -0.00000000000E+00 -0.00000000000E+00 -0.27860451213E+02  0.27860451213E+02  0.00000000000E+00 0. -1.
          2    1    1    2  501    0  0.15785767807E+02  0.17938622890E+02  0.31205366044E+02  0.39303428939E+02  0.00000000000E+00 0.  1.
          2    1    1    2  502    0 -0.15785767807E+02 -0.17938622890E+02 -0.17816558245E+02  0.29806281286E+02  0.00000000000E+00 0. -1.
</event>
<event>
 4    1  0.6651744E+003  0.2105290E+02  0.7546771E-02  0.1518511E+00
          2   -1    0    0  501    0  0.00000000000E+00  0.00000000000E+00  0.61420722447E+02  0.61420722447E+02  0.00000000000E+00 0.  1.
          2   -1    0    0  502    0 -0.00000000000E+00 -0.00000000000E+00 -0.42553763631E+02  0.42553763631E+02  0.00000000000E+00 0.  1.
          2    1    1    2  501    0  0.20916046172E+02  0.23965494709E+01 -0.37941177534E+02  0.43390752350E+02  0.00000000000E+00 0.  1.
          2    1    1    2  502    0 -0.20916046172E+02 -0.23965494709E+01  0.56808136350E+02  0.60583733728E+02  0.00000000000E+00 0.  1.
</event>
<event>
 4    1  0.6651744E+003  0.3010111E+02  0.7546771E-02  0.1418720E+00
          2   -1    0    0  501    0  0.00000000000E+00  0.00000000000E+00  0.15085104791E+03  0.15085104791E+03  0.00000000000E+00 0.  1.
          2   -1    0    0  502    0 -0.00000000000E+00 -0.00000000000E+00 -0.26212470393E+02  0.26212470393E+02  0.00000000000E+00 0. -1.
          2    1    1    2  501    0  0.16307889420E+02  0.25300778570E+02 -0.15410179681E+02  0.33816420440E+02  0.00000000000E+00 0. -1.
          2    1    1    2  502    0 -0.16307889420E+02 -0.25300778570E+02  0.14004875720E+03  0.14324709787E+03  0.00000000000E+00 0.  1.
</event>
<event>
 4    1  0.6651744E+003  0.2162425E+02  0.7546771E-02  0.1510536E+00
          2   -1    0    0  501    0  0.00000000000E+00  0.00000000000E+00  0.37218780323E+02  0.37218780323E+02  0.00000000000E+00 0.  1.
          2   -1    0    0  502    0 -0.00000000000E+00 -0.00000000000E+00 -0.42373191700E+02  0.42373191700E+02  0.00000000000E+00 0.  1.
          2    1    1    2  501    0 -0.20351413402E+02 -0.73094550269E+01 -0.35955985986E+02  0.41957610615E+02  0.00000000000E+00 0.  1.
          2    1    1    2  502    0  0.20351413402E+02  0.73094550269E+01  0.30801574609E+02  0.37634361409E+02  0.00000000000E+00 0.  1.
</event>
<event>
 4    1  0.6651744E+003  0.2317612E+02  0.7546771E-02  0.1490298E+00
          2   -1    0    0  502    0  0.00000000000E+00  0.00000000000E+00  0.17334582914E+02  0.17334582914E+02  0.00000000000E+00 0. -1.
          2   -1    0    0  501    0 -0.00000000000E+00 -0.00000000000E+00 -0.53956933057E+02  0.53956933057E+02  0.00000000000E+00 0.  1.
          2    1    1    2  501    0  0.12263858241E+02 -0.19665464206E+02  0.49467911940E+01  0.23698173865E+02  0.00000000000E+00 0. -1.
          2    1    1    2  502    0 -0.12263858241E+02  0.19665464206E+02 -0.41569141337E+02  0.47593342107E+02  0.00000000000E+00 0.  1.
</event>
<event>
 4    1  0.6651744E+003  0.2534266E+02  0.7546771E-02  0.1465006E+00
          2   -1    0    0  501    0  0.00000000000E+00  0.00000000000E+00  0.87168493588E+01  0.87168493588E+01  0.00000000000E+00 0. -1.
          2   -1    0    0  502    0 -0.00000000000E+00 -0.00000000000E+00 -0.20304039200E+03  0.20304039200E+03  0.00000000000E+00 0. -1.
          2    1    1    2  501    0  0.24384454033E+02  0.69028254897E+01 -0.18167389914E+03  0.18343297475E+03  0.00000000000E+00 0. -1.
          2    1    1    2  502    0 -0.24384454033E+02 -0.69028254897E+01 -0.12649643508E+02  0.28324266612E+02  0.00000000000E+00 0. -1.
</event>
<event>
 4    1  0.6651744E+003  0.4190100E+02  0.7546771E-02  0.1337692E+00
          2   -1    0    0  501    0  0.00000000000E+00  0.00000000000E+00  0.15794555716E+04  0.15794555716E+04  0.00000000000E+00 0. -1.
          2   -1    0    0  502    0 -0.00000000000E+00 -0.00000000000E+00 -0.16189415782E+03  0.16189415782E+03  0.00000000000E+00 0. -1.
          2    1    1    2  501    0 -0.10669396840E+02  0.40519844930E+02 -0.15889993845E+03  0.16433162904E+03  0.00000000000E+00 0. -1.
          2    1    1    2  502    0  0.10669396840E+02 -0.40519844930E+02  0.15764613522E+04  0.15770181003E+04  0.00000000000E+00 0. -1.
</event>
<event>
 4    1  0.6651744E+003  0.2235589E+02  0.7546771E-02  0.1500749E+00
          2   -1    0    0  502    0  0.00000000000E+00  0.00000000000E+00  0.11289115295E+02  0.11289115295E+02  0.00000000000E+00 0. -1.
          2   -1    0    0  501    0 -0.00000000000E+00 -0.00000000000E+00 -0.39410075485E+03  0.39410075485E+03  0.00000000000E+00 0. -1.
          2    1    1    2  501    0 -0.21281831921E+02  0.68461197039E+01 -0.43485386894E+00  0.22360116789E+02  0.00000000000E+00 0. -1.
          2    1    1    2  502    0  0.21281831921E+02 -0.68461197039E+01 -0.38237678568E+03  0.38302975336E+03  0.00000000000E+00 0. -1.
</event>
<event>
 4    1  0.6651744E+003  0.6347830E+02  0.7546771E-02  0.1248451E+00
          2   -1    0    0  502    0  0.00000000000E+00  0.00000000000E+00  0.81443087007E+02  0.81443087007E+02  0.00000000000E+00 0. -1.
          2   -1    0    0  501    0 -0.00000000000E+00 -0.00000000000E+00 -0.19403339548E+04  0.19403339548E+04  0.00000000000E+00 0.  1.
          2    1    1    2  501    0  0.59428155233E+02  0.22311192203E+02  0.68471637042E+02  0.93369481155E+02  0.00000000000E+00 0. -1.
          2    1    1    2  502    0 -0.59428155233E+02 -0.22311192203E+02 -0.19273625049E+04  0.19284075607E+04  0.00000000000E+00 0.  1.
</event>
<event>
 4    1  0.6651744E+003  0.3830560E+02  0.7546771E-02  0.1358712E+00
          2   -1    0    0  502    0  0.00000000000E+00  0.00000000000E+00  0.12933519970E+04  0.12933519970E+04  0.00000000000E+00 0. -1.
          2   -1    0    0  501    0 -0.00000000000E+00 -0.00000000000E+00 -0.12387905051E+01  0.12387905051E+01  0.00000000000E+00 0. -1.
          2    1    1    2  501    0  0.20543190942E+02  0.32331037647E+02  0.83386218762E+03  0.83474155679E+03  0.00000000000E+00 0. -1.
          2    1    1    2  502    0 -0.20543190942E+02 -0.32331037647E+02  0.45825101883E+03  0.45984923067E+03  0.00000000000E+00 0. -1.
</event>
<event>
 4    1  0.6651744E+003  0.2156870E+02  0.7546771E-02  0.1511298E+00
          2   -1    0    0  502    0  0.00000000000E+00  0.00000000000E+00  0.20173353088E+03  0.20173353088E+03  0.00000000000E+00 0. -1.
          2   -1    0    0  501    0 -0.00000000000E+00 -0.00000000000E+00 -0.77601697012E+01  0.77601697012E+01  0.00000000000E+00 0.  1.
          2    1    1    2  501    0  0.84178604561E+01  0.19858212660E+02  0.18480142152E+03  0.18605583673E+03  0.00000000000E+00 0. -1.
          2    1    1    2  502    0 -0.84178604561E+01 -0.19858212660E+02  0.91719396527E+01  0.23437863847E+02  0.00000000000E+00 0.  1.
</event>
<event>
 4    1  0.6651744E+003  0.2095558E+02  0.7546771E-02  0.1519900E+00
          2   -1    0    0  501    0  0.00000000000E+00  0.00000000000E+00  0.67453167765E+03  0.67453167765E+03  0.00000000000E+00 0. -1.
          2   -1    0    0  502    0 -0.00000000000E+00 -0.00000000000E+00 -0.12438234282E+02  0.12438234282E+02  0.00000000000E+00 0. -1.
          2    1    1    2  501    0  0.15125375589E+02  0.14503774832E+02 -0.33283291559E+01  0.21218252663E+02  0.00000000000E+00 0. -1.
          2    1    1    2  502    0 -0.15125375589E+02 -0.14503774832E+02  0.66542177252E+03  0.66575165927E+03  0.00000000000E+00 0. -1.
</event>
<event>
 4    1  0.6651744E+003  0.2134444E+02  0.7546771E-02  0.1514404E+00
          2   -1    0    0  501    0  0.00000000000E+00  0.00000000000E+00  0.11398186446E+01  0.11398186446E+01  0.00000000000E+00 0.  1.
          2   -1    0    0  502    0 -0.00000000000E+00 -0.00000000000E+00 -0.10650169544E+04  0.10650169544E+04  0.00000000000E+00 0.  1.
          2    1    1    2  501    0  0.20268489116E+02 -0.66913109833E+01 -0.95327321341E+03  0.95351214187E+03  0.00000000000E+00 0.  1.
          2    1    1    2  502    0 -0.20268489116E+02  0.66913109833E+01 -0.11060392236E+03  0.11264463119E+03  0.00000000000E+00 0.  1.
</event>
<event>
 4    1  0.6651744E+003  0.2484574E+02  0.7546771E-02  0.1470537E+00
          2   -1    0    0  502    0  0.00000000000E+00  0.00000000000E+00  0.18417283874E+03  0.18417283874E+03  0.00000000000E+00 0. -1.
          2   -1    0    0  501    0 -0.00000000000E+00 -0.00000000000E+00 -0.28024232806E+03  0.28024232806E+03  0.00000000000E+00 0. -1.
          2    1    1    2  501    0 -0.81869003546E+01  0.23458159026E+02  0.18278001795E+03  0.18446095935E+03  0.00000000000E+00 0. -1.
          2    1    1    2  502    0  0.81869003546E+01 -0.23458159026E+02 -0.27884950727E+03  0.27995420745E+03  0.00000000000E+00 0. -1.
</event>
<event>
 4    1  0.6651744E+003  0.3924685E+02  0.7546771E-02  0.1352957E+00
          2   -1    0    0  501    0  0.00000000000E+00  0.00000000000E+00  0.17407575637E+04  0.17407575637E+04  0.00000000000E+00 0. -1.
          2   -1    0    0  502    0 -0.00000000000E+00 -0.00000000000E+00 -0.11838945824E+01  0.11838945824E+01  0.00000000000E+00 0. -1.
          2    1    1    2  501    0 -0.18847487993E+02  0.34425103746E+02  0.43205068925E+03  0.43382959057E+03  0.00000000000E+00 0. -1.
          2    1    1    2  502    0  0.18847487993E+02 -0.34425103746E+02  0.13075229798E+04  0.13081118677E+04  0.00000000000E+00 0. -1.
</event>
<event>
 4    1  0.6651744E+003  0.2105124E+02  0.7546771E-02  0.1518534E+00
          2   -1    0    0  502    0  0.00000000000E+00  0.00000000000E+00  0.50282579589E+01  0.50282579589E+01  0.00000000000E+00 0.  1.
          2   -1    0    0  501    0 -0.00000000000E+00 -0.00000000000E+00 -0.75688562270E+03  0.75688562270E+03  0.00000000000E+00 0. -1.
          2    1    1    2  501    0 -0.10896555117E+02  0.18011654984E+02 -0.17837551299E+02  0.27592260962E+02  0.00000000000E+00 0.  1.
          2    1    1    2  502    0  0.10896555117E+02 -0.18011654984E+02 -0.73401981345E+03  0.73432161970E+03  0.00000000000E+00 0. -1.
</event>
<event>
 4    1  0.6651744E+003  0.2141566E+02  0.7546771E-02  0.1513412E+00
          2   -1    0    0  501    0  0.00000000000E+00  0.00000000000E+00  0.33145781885E+03  0.33145781885E+03  0.00000000000E+00 0.  1.
          2   -1    0    0  502    0 -0.00000000000E+00 -0.00000000000E+00 -0.16469718222E+01  0.16469718222E+01  0.00000000000E+00 0. -1.
          2    1    1    2  501    0 -0.21180054202E+02 -0.31679623286E+01  0.98312411735E+02  0.10061789594E+03  0.00000000000E+00 0. -1.
          2    1    1    2  502    0  0.21180054202E+02  0.31679623286E+01  0.23149843530E+03  0.23248689474E+03  0.00000000000E+00 0.  1.
</event>
<event>
 4    1  0.6651744E+003  0.3433338E+02  0.7546771E-02  0.1385311E+00
          2   -1    0    0  501    0  0.00000000000E+00  0.00000000000E+00  0.11626450059E+04  0.11626450059E+04  0.00000000000E+00 0. -1.
          2   -1    0    0  502    0 -0.00000000000E+00 -0.00000000000E+00 -0.27440183053E+02  0.27440183053E+02  0.00000000000E+00 0. -1.
          2    1    1    2  501    0 -0.29423677124E+02  0.17692612767E+02 -0.16343694292E+02  0.38024961080E+02  0.00000000000E+00 0. -1.
          2    1    1    2  502    0  0.29423677124E+02 -0.17692612767E+02  0.11515485171E+04  0.11520602279E+04  0.00000000000E+00 0. -1.
</event>
<event>
 4    1  0.6651744E+003  0.3779227E+02  0.7546771E-02  0.1361932E+00
          2   -1    0    0  502    0  0.00000000000E+00  0.00000000000E+00  0.54996912616E+02  0.54996912616E+02  0.00000000000E+00 0. -1.
          2   -1    0    0  501    0 -0.00000000000E+00 -0.00000000000E+00 -0.41882243799E+02  0.41882243799E+02  0.00000000000E+00 0. -1.
          2    1    1    2  501    0 -0.31165019429E+02 -0.21377494927E+02  0.36414913550E+02  0.52481441046E+02  0.00000000000E+00 0. -1.
          2    1    1    2  502    0  0.31165019429E+02  0.21377494927E+02 -0.23300244733E+02  0.44397715369E+02  0.00000000000E+00 0. -1.
</event>
<event>
 4    1  0.6651744E+003  0.8886376E+02  0.7546771E-02  0.1184643E+00
          2   -1    0    0  501    0  0.00000000000E+00  0.00000000000E+00  0.10357053226E+04  0.10357053226E+04  0.00000000000E+00 0. -1.
          2   -1    0    0  502    0 -0.00000000000E+00 -0.00000000000E+00 -0.57397083947E+02  0.57397083947E+02  0.00000000000E+00 0.  1.
          2    1    1    2  501    0  0.49069807827E+02  0.74087253341E+02 -0.19802655678E+02  0.91043463905E+02  0.00000000000E+00 0.  1.
          2    1    1    2  502    0 -0.49069807827E+02 -0.74087253341E+02  0.99811089436E+03  0.10020589427E+04  0.00000000000E+00 0. -1.
</event>
<event>
 4    1  0.6651744E+003  0.2055557E+02  0.7546771E-02  0.1525706E+00
          2   -1    0    0  501    0  0.00000000000E+00  0.00000000000E+00  0.10170456034E+04  0.10170456034E+04  0.00000000000E+00 0.  1.
          2   -1    0    0  502    0 -0.00000000000E+00 -0.00000000000E+00 -0.11379002859E+03  0.11379002859E+03  0.00000000000E+00 0.  1.
          2    1    1    2  501    0 -0.41941844425E+01 -0.20123129989E+02 -0.11275690818E+03  0.11461523409E+03  0.00000000000E+00 0.  1.
          2    1    1    2  502    0  0.41941844425E+01  0.20123129989E+02  0.10160124830E+04  0.10162203979E+04  0.00000000000E+00 0.  1.
</event>
<event>
 4    1  0.6651744E+003  0.2697707E+02  0.7546771E-02  0.1447839E+00
          2   -1    0    0  502    0  0.00000000000E+00  0.00000000000E+00  0.45880816925E+02  0.45880816925E+02  0.00000000000E+00 0.  1.
          2   -1    0    0  501    0 -0.00000000000E+00 -0.00000000000E+00 -0.50126702118E+02  0.50126702118E+02  0.00000000000E+00 0. -1.
          2    1    1    2  501    0  0.16502526401E+02 -0.21340781410E+02  0.37565499643E+02  0.46248557732E+02  0.00000000000E+00 0.  1.
          2    1    1    2  502    0 -0.16502526401E+02  0.21340781410E+02 -0.41811384837E+02  0.49758961311E+02  0.00000000000E+00 0. -1.
</event>
<event>
 4    1  0.6651744E+003  0.3946578E+02  0.7546771E-02  0.1351645E+00
          2   -1    0    0  501    0  0.00000000000E+00  0.00000000000E+00  0.72048291972E+02  0.72048291972E+02  0.00000000000E+00 0. -1.
          2   -1    0    0  502    0 -0.00000000000E+00 -0.00000000000E+00 -0.20654888037E+04  0.20654888037E+04  0.00000000000E+00 0.  1.
          2    1    1    2  501    0 -0.15784750692E+02 -0.36171666216E+02 -0.20598810443E+04  0.20602590771E+04  0.00000000000E+00 0.  1.
          2    1    1    2  502    0  0.15784750692E+02  0.36171666216E+02  0.66440532595E+02  0.77278018626E+02  0.00000000000E+00 0. -1.
</event>
<event>
 4    1  0.6651744E+003  0.3577637E+02  0.7546771E-02  0.1375186E+00
          2   -1    0    0  502    0  0.00000000000E+00  0.00000000000E+00  0.10812631663E+03  0.10812631663E+03  0.00000000000E+00 0. -1.
          2   -1    0    0  501    0 -0.00000000000E+00 -0.00000000000E+00 -0.13491655206E+02  0.13491655206E+02  0.00000000000E+00 0. -1.
          2    1    1    2  501    0 -0.28130933598E+02 -0.22104288211E+02  0.68609444022E+02  0.77377030128E+02  0.00000000000E+00 0. -1.
          2    1    1    2  502    0  0.28130933598E+02  0.22104288211E+02  0.26025217400E+02  0.44240941707E+02  0.00000000000E+00 0. -1.
</event>
<event>
 4    1  0.6651744E+003  0.2999143E+02  0.7546771E-02  0.1419671E+00
          2   -1    0    0  502    0  0.00000000000E+00  0.00000000000E+00  0.19199308306E+02  0.19199308306E+02  0.00000000000E+00 0.  1.
          2   -1    0    0  501    0 -0.00000000000E+00 -0.00000000000E+00 -0.58700394823E+02  0.58700394823E+02  0.00000000000E+00 0.  1.
          2    1    1    2  501    0 -0.21017768047E+02  0.21394849324E+02 -0.22499374405E+01  0.30075710627E+02  0.00000000000E+00 0.  1.
          2    1    1    2  502    0  0.21017768047E+02 -0.21394849324E+02 -0.37251149077E+02  0.47823992502E+02  0.00000000000E+00 0.  1.
</event>
<event>
 4    1  0.6651744E+003  0.2368667E+02  0.7546771E-02  0.1484051E+00
          2   -1    0    0  501    0  0.00000000000E+00  0.00000000000E+00  0.13692505752E+03  0.13692505752E+03  0.00000000000E+00 0.  1.
          2   -1    0    0  502    0 -0.00000000000E+00 -0.00000000000E+00 -0.45728205289E+02  0.45728205289E+02  0.00000000000E+00 0.  1.
          2    1    1    2  501    0 -0.21411666175E+02  0.10129106392E+02 -0.41540448514E+02  0.47819108183E+02  0.00000000000E+00 0.  1.
          2    1    1    2  502    0  0.21411666175E+02 -0.10129106392E+02  0.13273730075E+03  0.13483415463E+03  0.00000000000E+00 0.  1.
</event>
<event>
 4    1  0.6651744E+003  0.2157614E+02  0.7546771E-02  0.1511196E+00
          2   -1    0    0  502    0  0.00000000000E+00  0.00000000000E+00  0.73390670876E+01  0.73390670876E+01  0.00000000000E+00 0.  1.
          2   -1    0    0  501    0 -0.00000000000E+00 -0.00000000000E+00 -0.11384990446E+03  0.11384990446E+03  0.00000000000E+00 0.  1.
          2    1    1    2  501    0  0.34537146915E+00 -0.21573380355E+02 -0.12931739428E+02  0.25154719359E+02  0.00000000000E+00 0.  1.
          2    1    1    2  502    0 -0.34537146915E+00  0.21573380355E+02 -0.93579097947E+02  0.96034252191E+02  0.00000000000E+00 0.  1.
</event>
<event>
 4    1  0.6651744E+003  0.2268239E+02  0.7546771E-02  0.1496525E+00
          2   -1    0    0  501    0  0.00000000000E+00  0.00000000000E+00  0.33201546592E+01  0.33201546592E+01  0.00000000000E+00 0. -1.
          2   -1    0    0  502    0 -0.00000000000E+00 -0.00000000000E+00 -0.46925346400E+03  0.46925346400E+03  0.00000000000E+00 0.  1.
          2    1    1    2  501    0 -0.87464695466E+01 -0.20928208098E+02 -0.42634307738E+03  0.42694602733E+03  0.00000000000E+00 0.  1.
          2    1    1    2  502    0  0.87464695466E+01  0.20928208098E+02 -0.39590231962E+02  0.45627591330E+02  0.00000000000E+00 0. -1.
</event>
<event>
 4    1  0.6651744E+003  0.3061594E+02  0.7546771E-02  0.1414318E+00
          2   -1    0    0  501    0  0.00000000000E+00  0.00000000000E+00  0.14651034206E+04  0.14651034206E+04  0.00000000000E+00 0. -1.
          2   -1    0    0  502    0 -0.00000000000E+00 -0.00000000000E+00 -0.34513612953E+02  0.34513612953E+02  0.00000000000E+00 0. -1.
          2    1    1    2  501    0 -0.14184282291E+02  0.27131940481E+02 -0.27531550275E+02  0.41174291966E+02  0.00000000000E+00 0. -1.
          2    1    1    2  502    0  0.14184282291E+02 -0.27131940481E+02  0.14581213579E+04  0.14584427416E+04  0.00000000000E+00 0. -1.
</event>
<event>
 4    1  0.6651744E+003  0.4450189E+02  0.7546771E-02  0.1323949E+00
          2   -1    0    0  502    0  0.00000000000E+00  0.00000000000E+00  0.43414693600E+03  0.43414693600E+03  0.00000000000E+00 0. -1.
          2   -1    0    0  501    0 -0.00000000000E+00 -0.00000000000E+00 -0.71956889116E+01  0.71956889116E+01  0.00000000000E+00 0.  1.
          2    1    1    2  501    0 -0.32413807746E+02  0.30492024841E+02  0.34698822983E+03  0.34983031623E+03  0.00000000000E+00 0. -1.
          2    1    1    2  502    0  0.32413807746E+02 -0.30492024841E+02  0.79963017256E+02  0.91512308681E+02  0.00000000000E+00 0.  1.
</event>
<event>
 4    1  0.6651744E+003  0.2804291E+02  0.7546771E-02  0.1437404E+00
          2   -1    0    0  501    0  0.00000000000E+00  0.00000000000E+00  0.13201055622E+04  0.13201055622E+04  0.00000000000E+00 0. -1.
          2   -1    0    0  502    0 -0.00000000000E+00 -0.00000000000E+00 -0.53702984243E+01  0.53702984243E+01  0.00000000000E+00 0. -1.
          2    1    1    2  501    0  0.22253161074E+02  0.17064634478E+02  0.32467781373E+02  0.42901768669E+02  0.00000000000E+00 0. -1.
          2    1    1    2  502    0 -0.22253161074E+02 -0.17064634478E+02  0.12822674824E+04  0.12825740920E+04  0.00000000000E+00 0. -1.
</event>
<event>
 4    1  0.6651744E+003  0.3397791E+02  0.7546771E-02  0.1387895E+00
          2   -1    0    0  501    0  0.00000000000E+00  0.00000000000E+00  0.36760785612E+01  0.36760785612E+01  0.00000000000E+00 0. -1.
          2   -1    0    0  502    0 -0.00000000000E+00 -0.00000000000E+00 -0.17660521926E+04  0.17660521926E+04  0.00000000000E+00 0.  1.
          2    1    1    2  501    0  0.24225459536E+02 -0.23824887010E+02 -0.16835261616E+04  0.16838690077E+04  0.00000000000E+00 0.  1.
          2    1    1    2  502    0 -0.24225459536E+02  0.23824887010E+02 -0.78849952407E+02  0.85859263480E+02  0.00000000000E+00 0. -1.
</event>
<event>
 4    1  0.6651744E+003  0.2011240E+02  0.7546771E-02  0.1532324E+00
          2   -1    0    0  501    0  0.00000000000E+00  0.00000000000E+00  0.22110196950E+02  0.22110196950E+02  0.00000000000E+00 0. -1.
          2   -1    0    0  502    0 -0.00000000000E+00 -0.00000000000E+00 -0.52696926868E+02  0.52696926868E+02  0.00000000000E+00 0.  1.
          2    1    1    2  501    0  0.19122865593E+02  0.62309357320E+01 -0.45514515125E+02  0.49760221419E+02  0.00000000000E+00 0.  1.
          2    1    1    2  502    0 -0.19122865593E+02 -0.62309357320E+01  0.14927785207E+02  0.25046902399E+02  0.00000000000E+00 0. -1.
</event>
<event>
 4    1  0.6651744E+003  0.2003771E+02  0.7546771E-02  0.1533460E+00
          2   -1    0    0  501    0  0.00000000000E+00  0.00000000000E+00  0.33303770754E+03  0.33303770754E+03  0.00000000000E+00 0. -1.
          2   -1    0    0  502    0 -0.00000000000E+00 -0.00000000000E+00 -0.34630148478E+01  0.34630148478E+01  0.00000000000E+00 0.  1.
          2    1    1    2  501    0 -0.12071568218E+02 -0.15993339072E+02  0.28945150824E+02  0.35204139105E+02  0.00000000000E+00 0.  1.
          2    1    1    2  502    0  0.12071568218E+02  0.15993339072E+02  0.30062954187E+03  0.30129658328E+03  0.00000000000E+00 0. -1.
</event>
<event>
 4    1  0.6651744E+003  0.2720994E+02  0.7546771E-02  0.1445511E+00
          2   -1    0    0  502    0  0.00000000000E+00  0.00000000000E+00  0.45028070181E+03  0.45028070181E+03  0.00000000000E+00 0. -1.
          2   -1    0    0  501    0 -0.00000000000E+00 -0.00000000000E+00 -0.21566190988E+01  0.21566190988E+01  0.00000000000E+00 0. -1.
          2    1    1    2  501    0 -0.11224300865E+02 -0.24787013996E+02  0.11379984802E+03  0.11700763395E+03  0.00000000000E+00 0. -1.
          2    1    1    2  502    0  0.11224300865E+02  0.24787013996E+02  0.33432423469E+03  0.33542968696E+03  0.00000000000E+00 0. -1.
</event>
<event>
 4    1  0.6651744E+003  0.2156810E+02  0.7546771E-02  0.1511306E+00
          2   -1    0    0  501    0  0.00000000000E+00  0.00000000000E+00  0.92668774207E+03  0.92668774207E+03  0.00000000000E+00 0. -1.
          2   -1    0    0  502    0 -0.00000000000E+00 -0.00000000000E+00 -0.77566838254E+00  0.77566838254E+00  0.00000000000E+00 0.  1.
          2    1    1    2  501    0 -0.13738807515E+02  0.16626130292E+02  0.18749941244E+03  0.18873582783E+03  0.00000000000E+00 0.  1.
          2    1    1    2  502    0  0.13738807515E+02 -0.16626130292E+02  0.73841266124E+03  0.73872758262E+03  0.00000000000E+00 0. -1.
</event>
<event>
 4    1  0.6651744E+003  0.3074958E+02  0.7546771E-02  0.1413192E+00
          2   -1    0    0  501    0  0.00000000000E+00  0.00000000000E+00  0.13090448803E+01  0.13090448803E+01  0.00000000000E+00 0. -1.
          2   -1    0    0  502    0 -0.00000000000E+00 -0.00000000000E+00 -0.88153128359E+03  0.88153128359E+03  0.00000000000E+00 0.  1.
          2    1    1    2  501    0 -0.30706022958E+02 -0.16360074494E+01 -0.62771149273E+03  0.62846420302E+03  0.00000000000E+00 0.  1.
          2    1    1    2  502    0  0.30706022958E+02  0.16360074494E+01 -0.25251074597E+03  0.25437612545E+03  0.00000000000E+00 0. -1.
</event>
<event>
 4    1  0.6651744E+003  0.7782622E+02  0.7546771E-02  0.1208986E+00
          2   -1    0    0  501    0  0.00000000000E+00  0.00000000000E+00  0.60431613136E+03  0.60431613136E+03  0.00000000000E+00 0.  1.
          2   -1    0    0  502    0 -0.00000000000E+00 -0.00000000000E+00 -0.53396931547E+02  0.53396931547E+02  0.00000000000E+00 0.  1.
          2    1    1    2  501    0  0.67679618406E+02 -0.38423822021E+02 -0.20930623323E+02  0.80591636284E+02  0.00000000000E+00 0.  1.
          2    1    1    2  502    0 -0.67679618406E+02  0.38423822021E+02  0.57184982313E+03  0.57712142662E+03  0.00000000000E+00 0.  1.
</event>
<event>
 4    1  0.6651744E+003  0.6742632E+02  0.7546771E-02  0.1236494E+00
          2   -1    0    0  502    0  0.00000000000E+00  0.00000000000E+00  0.53807978537E+02  0.53807978537E+02  0.00000000000E+00 0. -1.
          2   -1    0    0  501    0 -0.00000000000E+00 -0.00000000000E+00 -0.12012252566E+04  0.12012252566E+04  0.00000000000E+00 0. -1.
          2    1    1    2  501    0  0.55006099435E+02 -0.38995354043E+02  0.31336610319E+02  0.74352483202E+02  0.00000000000E+00 0. -1.
          2    1    1    2  502    0 -0.55006099435E+02  0.38995354043E+02 -0.11787538884E+04  0.11806807519E+04  0.00000000000E+00 0. -1.
</event>
<event>
 4    1  0.6651744E+003  0.3987553E+02  0.7546771E-02  0.1349217E+00
          2   -1    0    0  502    0  0.00000000000E+00  0.00000000000E+00  0.16632494468E+02  0.16632494468E+02  0.00000000000E+00 0.  1.
          2   -1    0    0  501    0 -0.00000000000E+00 -0.00000000000E+00 -0.10659768280E+03  0.10659768280E+03  0.00000000000E+00 0. -1.
          2    1    1    2  501    0  0.36930340819E+02  0.15040215433E+02 -0.25191324135E+02  0.47166311759E+02  0.00000000000E+00 0.  1.
          2    1    1    2  502    0 -0.36930340819E+02 -0.15040215433E+02 -0.64773864201E+02  0.76063865513E+02  0.00000000000E+00 0. -1.
</event>
<event>
 4    1  0.6651744E+003  0.2188517E+02  0.7546771E-02  0.1506993E+00
          2   -1    0    0  501    0  0.00000000000E+00  0.00000000000E+00  0.24089455329E+03  0.24089455329E+03  0.00000000000E+00 0.  1.
          2   -1    0    0  502    0 -0.00000000000E+00 -0.00000000000E+00 -0.13087269707E+02  0.13087269707E+02  0.00000000000E+00 0. -1.
          2    1    1    2  501    0  0.18729335182E+02 -0.11321328437E+02 -0.30436779388E+01  0.22095801622E+02  0.00000000000E+00 0. -1.
          2    1    1    2  502    0 -0.18729335182E+02  0.11321328437E+02  0.23085096153E+03  0.23188602138E+03  0.00000000000E+00 0.  1.
</event>
<event>
 4    1  0.6651744E+003  0.3180129E+02  0.7546771E-02  0.1404563E+00
          2   -1    0    0  501    0  0.00000000000E+00  0.00000000000E+00  0.84511981063E+02  0.84511981063E+02  0.00000000000E+00 0. -1.
          2   -1    0    0  502    0 -0.00000000000E+00 -0.00000000000E+00 -0.61141668169E+03  0.61141668169E+03  0.00000000000E+00 0.  1.
          2    1    1    2  501    0  0.86556028107E+01  0.30600697378E+02 -0.60799468609E+03  0.60882580469E+03  0.00000000000E+00 0.  1.
          2    1    1    2  502    0 -0.86556028107E+01 -0.30600697378E+02  0.81089985465E+02  0.87102858063E+02  0.00000000000E+00 0. -1.
</event>
<event>
 4    1  0.6651744E+003  0.2705645E+02  0.7546771E-02  0.1447042E+00
          2   -1    0    0  502    0  0.00000000000E+00  0.00000000000E+00  0.76673678435E+02  0.76673678435E+02  0.00000000000E+00 0. -1.
          2   -1    0    0  501    0 -0.00000000000E+00 -0.00000000000E+00 -0.48091852666E+02  0.48091852666E+02  0.00000000000E+00 0. -1.
          2    1    1    2  501    0 -0.79835055577E+01  0.25851787354E+02  0.70139033501E+02  0.75176693801E+02  0.00000000000E+00 0. -1.
          2    1    1    2  502    0  0.79835055577E+01 -0.25851787354E+02 -0.41557207731E+02  0.49588837300E+02  0.00000000000E+00 0. -1.
</event>
<event>
 4    1  0.6651744E+003  0.2228926E+02  0.7546771E-02  0.1501621E+00
          2   -1    0    0  501    0  0.00000000000E+00  0.00000000000E+00  0.78606162928E+00  0.78606162928E+00  0.00000000000E+00 0. -1.
          2   -1    0    0  502    0 -0.00000000000E+00 -0.00000000000E+00 -0.86796502403E+03  0.86796502403E+03  0.00000000000E+00 0. -1.
          2    1    1    2  501    0 -0.11195608342E+02  0.19273542896E+02 -0.66006146046E+03  0.66043769024E+03  0.00000000000E+00 0. -1.
          2    1    1    2  502    0  0.11195608342E+02 -0.19273542896E+02 -0.20711750194E+03  0.20831339542E+03  0.00000000000E+00 0. -1.
</event>
<event>
 4    1  0.6651744E+003  0.1109206E+03  0.7546771E-02  0.1146121E+00
          2   -1    0    0  502    0  0.00000000000E+00  0.00000000000E+00  0.12948513387E+04  0.12948513387E+04  0.00000000000E+00 0. -1.
          2   -1    0    0  501    0 -0.00000000000E+00 -0.00000000000E+00 -0.37094083948E+02  0.37094083948E+02  0.00000000000E+00 0. -1.
          2    1    1    2  501    0 -0.10126225140E+03 -0.45269628903E+02  0.12032570947E+04  0.12083588121E+04  0.00000000000E+00 0. -1.
          2    1    1    2  502    0  0.10126225140E+03  0.45269628903E+02  0.54500160063E+02  0.12358661055E+03  0.00000000000E+00 0. -1.
</event>
<event>
 4    1  0.6651744E+003  0.2635749E+02  0.7546771E-02  0.1454171E+00
          2   -1    0    0  502    0  0.00000000000E+00  0.00000000000E+00  0.10908988951E+03  0.10908988951E+03  0.00000000000E+00 0.  1.
          2   -1    0    0  501    0 -0.00000000000E+00 -0.00000000000E+00 -0.13473494974E+02  0.13473494974E+02  0.00000000000E+00 0. -1.
          2    1    1    2  501    0 -0.13354318716E+02 -0.22723981009E+02  0.92310103842E+02  0.95999335480E+02  0.00000000000E+00 0.  1.
          2    1    1    2  502    0  0.13354318716E+02  0.22723981009E+02  0.33062906935E+01  0.26564049003E+02  0.00000000000E+00 0. -1.
</event>
<event>
 4    1  0.6651744E+003  0.5888527E+02  0.7546771E-02  0.1263668E+00
          2   -1    0    0  502    0  0.00000000000E+00  0.00000000000E+00  0.88279254166E+03  0.88279254166E+03  0.00000000000E+00 0.  1.
          2   -1    0    0  501    0 -0.00000000000E+00 -0.00000000000E+00 -0.39956980259E+01  0.39956980259E+01  0.00000000000E+00 0. -1.
          2    1    1    2  501    0 -0.44649015445E+02  0.38391932938E+02  0.49717714913E+03  0.50065216739E+03  0.00000000000E+00 0.  1.
          2    1    1    2  502    0  0.44649015445E+02 -0.38391932938E+02  0.38161969451E+03  0.38613607230E+03  0.00000000000E+00 0. -1.
</event>
<event>
 4    1  0.7773205E+003  0.5230903E+02  0.7546771E-02  0.1288460E+00
          2   -1    0    0  502    0  0.00000000000E+00  0.00000000000E+00  0.16494957472E+04  0.16494957472E+04  0.00000000000E+00 0.  1.
          2   -1    0    0  501    0 -0.00000000000E+00 -0.00000000000E+00 -0.83970758754E+03  0.83970758754E+03  0.00000000000E+00 0. -1.
          2    1    1    2  501    0 -0.20923292414E+02 -0.47942158631E+02  0.16482657925E+04  0.16490956180E+04  0.00000000000E+00 0.  1.
          2    1    1    2  502    0  0.20923292414E+02  0.47942158631E+02 -0.83847763288E+03  0.84010771665E+03  0.00000000000E+00 0. -1.
</event>
<event>
 4    1  0.6651744E+003  0.4400286E+02  0.7546771E-02  0.1326501E+00
          2   -1    0    0  501    0  0.00000000000E+00  0.00000000000E+00  0.12507900507E+02  0.12507900507E+02  0.00000000000E+00 0. -1.
          2   -1    0    0  502    0 -0.00000000000E+00 -0.00000000000E+00 -0.23482901287E+03  0.23482901287E+03  0.00000000000E+00 0. -1.
          2    1    1    2  501    0 -0.14616804634E+02 -0.41504220283E+02 -0.38966630198E+02  0.58776266877E+02  0.00000000000E+00 0. -1.
          2    1    1    2  502    0  0.14616804634E+02  0.41504220283E+02 -0.18335448217E+03  0.18856064650E+03  0.00000000000E+00 0. -1.
</event>
<event>
 4    1  0.6651744E+003  0.3086092E+02  0.7546771E-02  0.1412259E+00
          2   -1    0    0  502    0  0.00000000000E+00  0.00000000000E+00  0.49933791475E+02  0.49933791475E+02  0.00000000000E+00 0. -1.
          2   -1    0    0  501    0 -0.00000000000E+00 -0.00000000000E+00 -0.21078147202E+04  0.21078147202E+04  0.00000000000E+00 0.  1.
          2    1    1    2  501    0 -0.12216995060E+02  0.28339754772E+02  0.45041441272E+02  0.54599707881E+02  0.00000000000E+00 0. -1.
          2    1    1    2  502    0  0.12216995060E+02 -0.28339754772E+02 -0.21029223700E+04  0.21031488038E+04  0.00000000000E+00 0.  1.
</event>
<event>
 4    1  0.6651744E+003  0.2328313E+02  0.7546771E-02  0.1488973E+00
          2   -1    0    0  501    0  0.00000000000E+00  0.00000000000E+00  0.38648960269E+00  0.38648960269E+00  0.00000000000E+00 0. -1.
          2   -1    0    0  502    0 -0.00000000000E+00 -0.00000000000E+00 -0.18939444908E+04  0.18939444908E+04  0.00000000000E+00 0. -1.
          2    1    1    2  501    0  0.23088770764E+02  0.30021613263E+01 -0.14291923190E+04  0.14293819605E+04  0.00000000000E+00 0. -1.
          2    1    1    2  502    0 -0.23088770764E+02 -0.30021613263E+01 -0.46436568226E+03  0.46494901997E+03  0.00000000000E+00 0. -1.
</event>
<event>
 4    1  0.6651744E+003  0.2096369E+02  0.7546771E-02  0.1519784E+00
          2   -1    0    0  502    0  0.00000000000E+00  0.00000000000E+00  0.53884265819E+02  0.53884265819E+02  0.00000000000E+00 0.  1.
          2   -1    0    0  501    0 -0.00000000000E+00 -0.00000000000E+00 -0.24493192606E+03  0.24493192606E+03  0.00000000000E+00 0.  1.
          2    1    1    2  501    0  0.20712427025E+02  0.32360187202E+01  0.51375652386E+02  0.55488143855E+02  0.00000000000E+00 0.  1.
          2    1    1    2  502    0 -0.20712427025E+02 -0.32360187202E+01 -0.24242331263E+03  0.24332804803E+03  0.00000000000E+00 0.  1.
</event>
<event>
 4    1  0.6651744E+003  0.2463733E+02  0.7546771E-02  0.1472902E+00
          2   -1    0    0  501    0  0.00000000000E+00  0.00000000000E+00  0.17317694720E+02  0.17317694720E+02  0.00000000000E+00 0. -1.
          2   -1    0    0  502    0 -0.00000000000E+00 -0.00000000000E+00 -0.31524359886E+03  0.31524359886E+03  0.00000000000E+00 0.  1.
          2    1    1    2  501    0  0.16366008285E+02  0.18416070417E+02 -0.30572722918E+03  0.30671833421E+03  0.00000000000E+00 0.  1.
          2    1    1    2  502    0 -0.16366008285E+02 -0.18416070417E+02  0.78013250402E+01  0.25842959374E+02  0.00000000000E+00 0. -1.
</event>
<event>
 4    1  0.6651744E+003  0.2823684E+02  0.7546771E-02  0.1435564E+00
          2   -1    0    0  501    0  0.00000000000E+00  0.00000000000E+00  0.31695833880E+01  0.31695833880E+01  0.00000000000E+00 0. -1.
          2   -1    0    0  502    0 -0.00000000000E+00 -0.00000000000E+00 -0.12934874836E+04  0.12934874836E+04  0.00000000000E+00 0.  1.
          2    1    1    2  501    0  0.25309620326E+02 -0.12519672417E+02 -0.12270399401E+04  0.12273647924E+04  0.00000000000E+00 0.  1.
          2    1    1    2  502    0 -0.25309620326E+02  0.12519672417E+02 -0.63277960113E+02  0.69292274566E+02  0.00000000000E+00 0. -1.
</event>
<event>
 4    1  0.6651744E+003  0.2363343E+02  0.7546771E-02  0.1484694E+00
          2   -1    0    0  502    0  0.00000000000E+00  0.00000000000E+00  0.34170881941E+00  0.34170881941E+00  0.00000000000E+00 0.  1.
          2   -1    0    0  501    0 -0.00000000000E+00 -0.00000000000E+00 -0.16441029212E+04  0.16441029212E+04  0.00000000000E+00 0.  1.
          2    1    1    2  501    0  0.10199088553E+02  0.21319419229E+02 -0.75919519257E+03  0.75956295293E+03  0.00000000000E+00 0.  1.
          2    1    1    2  502    0 -0.10199088553E+02 -0.21319419229E+02 -0.88456601979E+03  0.88488167707E+03  0.00000000000E+00 0.  1.
</event>
<event>
 4    1  0.6651744E+003  0.2753156E+02  0.7546771E-02  0.1442340E+00
          2   -1    0    0  502    0  0.00000000000E+00  0.00000000000E+00  0.14324271360E+04  0.14324271360E+04  0.00000000000E+00 0.  1.
          2   -1    0    0  501    0 -0.00000000000E+00 -0.00000000000E+00 -0.14384148573E+01  0.14384148573E+01  0.00000000000E+00 0.  1.
          2    1    1    2  501    0 -0.16367543715E+02 -0.22137985996E+02  0.12854991984E+04  0.12857939866E+04  0.00000000000E+00 0.  1.
          2    1    1    2  502    0  0.16367543715E+02  0.22137985996E+02  0.14548952274E+03  0.14807156425E+03  0.00000000000E+00 0.  1.
</event>
<event>
 4    1  0.6651744E+003  0.2393708E+02  0.7546771E-02  0.1481055E+00
          2   -1    0    0  501    0  0.00000000000E+00  0.00000000000E+00  0.52535614006E+01  0.52535614006E+01  0.00000000000E+00 0.  1.
          2   -1    0    0  502    0 -0.00000000000E+00 -0.00000000000E+00 -0.72632106162E+03  0.72632106162E+03  0.00000000000E+00 0.  1.
          2    1    1    2  501    0 -0.23926995611E+02 -0.69489446714E+00 -0.69774084980E+03  0.69815132849E+03  0.00000000000E+00 0.  1.
          2    1    1    2  502    0  0.23926995611E+02  0.69489446714E+00 -0.23326650420E+02  0.33423294528E+02  0.00000000000E+00 0.  1.
</event>
<event>
 4    1  0.6651744E+003  0.9016813E+02  0.7546771E-02  0.1182030E+00
          2   -1    0    0  501    0  0.00000000000E+00  0.00000000000E+00  0.17904206071E+02  0.17904206071E+02  0.00000000000E+00 0. -1.
          2   -1    0    0  502    0 -0.00000000000E+00 -0.00000000000E+00 -0.76726313238E+03  0.76726313238E+03  0.00000000000E+00 0.  1.
          2    1    1    2  501    0  0.86311472861E+02 -0.26088718966E+02 -0.62548995680E+03  0.63195567698E+03  0.00000000000E+00 0.  1.
          2    1    1    2  502    0 -0.86311472861E+02  0.26088718966E+02 -0.12386896951E+03  0.15321166148E+03  0.00000000000E+00 0. -1.
</event>
<event>
 4    1  0.6651744E+003  0.2273230E+02  0.7546771E-02  0.1495887E+00
          2   -1    0    0  502    0  0.00000000000E+00  0.00000000000E+00  0.21050068156E+01  0.21050068156E+01  0.00000000000E+00 0.  1.
          2   -1    0    0  501    0 -0.00000000000E+00 -0.00000000000E+00 -0.24549164549E+03  0.24549164549E+03  0.00000000000E+00 0.  1.
          2    1    1    2  501    0 -0.54142568628E+01  0.22078120688E+02 -0.12134904340E+03  0.12345990412E+03  0.00000000000E+00 0.  1.
          2    1    1    2  502    0  0.54142568628E+01 -0.22078120688E+02 -0.12203759528E+03  0.12413674819E+03  0.00000000000E+00 0.  1.
</event>
<event>
 4    1  0.6651744E+003  0.2891536E+02  0.7546771E-02  0.1429262E+00
          2   -1    0    0  501    0  0.00000000000E+00  0.00000000000E+00  0.32066476992E+01  0.32066476992E+01  0.00000000000E+00 0.  1.
          2   -1    0    0  502    0 -0.00000000000E+00 -0.00000000000E+00 -0.44670195584E+03  0.44670195584E+03  0.00000000000E+00 0. -1.
          2    1    1    2  501    0  0.19425305474E+02  0.21418582771E+02 -0.36689148167E+03  0.36802915306E+03  0.00000000000E+00 0. -1.
          2    1    1    2  502    0 -0.19425305474E+02 -0.21418582771E+02 -0.76603826474E+02  0.81879450482E+02  0.00000000000E+00 0.  1.
</event>
<event>
 4    1  0.6651744E+003  0.3194807E+02  0.7546771E-02  0.1403390E+00
          2   -1    0    0  502    0  0.00000000000E+00  0.00000000000E+00  0.65677076302E+02  0.65677076302E+02  0.00000000000E+00 0.  1.
          2   -1    0    0  501    0 -0.00000000000E+00 -0.00000000000E+00 -0.10602055317E+03  0.10602055317E+03  0.00000000000E+00 0. -1.
          2    1    1    2  501    0  0.24011235463E+02 -0.21074621360E+02  0.59135860057E+02  0.67214053877E+02  0.00000000000E+00 0.  1.
          2    1    1    2  502    0 -0.24011235463E+02  0.21074621360E+02 -0.99479336925E+02  0.10448357559E+03  0.00000000000E+00 0. -1.
</event>
<event>
 4    1  0.7021683E+003  0.2183180E+02  0.7546771E-02  0.1507712E+00
          2   -1    0    0  501    0  0.00000000000E+00  0.00000000000E+00  0.31623875795E+03  0.31623875795E+03  0.00000000000E+00 0.  1.
          2   -1    0    0  502    0 -0.00000000000E+00 -0.00000000000E+00 -0.12658609898E+04  0.12658609898E+04  0.00000000000E+00 0. -1.
          2    1    1    2  501    0 -0.20034911808E+02 -0.86735081906E+01 -0.12653899244E+04  0.12655782427E+04  0.00000000000E+00 0. -1.
          2    1    1    2  502    0  0.20034911808E+02  0.86735081906E+01  0.31576769264E+03  0.31652150503E+03  0.00000000000E+00 0.  1.
</event>
<event>
 4    1  0.6651744E+003  0.3017010E+02  0.7546771E-02  0.1418124E+00
          2   -1    0    0  502    0  0.00000000000E+00  0.00000000000E+00  0.57976787713E+01  0.57976787713E+01  0.00000000000E+00 0. -1.
          2   -1    0    0  501    0 -0.00000000000E+00 -0.00000000000E+00 -0.59698694602E+03  0.59698694602E+03  0.00000000000E+00 0. -1.
          2    1    1    2  501    0 -0.25783154573E+02  0.15667277440E+02 -0.36850967268E+02  0.47625921836E+02  0.00000000000E+00 0. -1.
          2    1    1    2  502    0  0.25783154573E+02 -0.15667277440E+02 -0.55433829998E+03  0.55515870295E+03  0.00000000000E+00 0. -1.
</event>
<event>
 4    1  0.6651744E+003  0.8891880E+02  0.7546771E-02  0.1184532E+00
          2   -1    0    0  501    0  0.00000000000E+00  0.00000000000E+00  0.66057975804E+01  0.66057975804E+01  0.00000000000E+00 0.  1.
          2   -1    0    0  502    0 -0.00000000000E+00 -0.00000000000E+00 -0.19863255148E+04  0.19863255148E+04  0.00000000000E+00 0.  1.
          2    1    1    2  501    0  0.49685070227E+02  0.73742431687E+02 -0.16180478806E+04  0.16204892769E+04  0.00000000000E+00 0.  1.
          2    1    1    2  502    0 -0.49685070227E+02 -0.73742431687E+02 -0.36167183661E+03  0.37244203554E+03  0.00000000000E+00 0.  1.
</event>
<event>
 4    1  0.6651744E+003  0.3474096E+02  0.7546771E-02  0.1382394E+00
          2   -1    0    0  501    0  0.00000000000E+00  0.00000000000E+00  0.68921093413E+02  0.68921093413E+02  0.00000000000E+00 0.  1.
          2   -1    0    0  502    0 -0.00000000000E+00 -0.00000000000E+00 -0.37115698230E+02  0.37115698230E+02  0.00000000000E+00 0.  1.
          2    1    1    2  501    0  0.13415820616E+02  0.32046061176E+02 -0.22629047964E+02  0.41460922463E+02  0.00000000000E+00 0.  1.
          2    1    1    2  502    0 -0.13415820616E+02 -0.32046061176E+02  0.54434443147E+02  0.64575869180E+02  0.00000000000E+00 0.  1.
</event>
<event>
 4    1  0.6651744E+003  0.3765134E+02  0.7546771E-02  0.1362827E+00
          2   -1    0    0  501    0  0.00000000000E+00  0.00000000000E+00  0.23035466907E+03  0.23035466907E+03  0.00000000000E+00 0. -1.
          2   -1    0    0  502    0 -0.00000000000E+00 -0.00000000000E+00 -0.36385552964E+02  0.36385552964E+02  0.00000000000E+00 0. -1.
          2    1    1    2  501    0 -0.12316402903E+02  0.35579903204E+02 -0.24584655525E+02  0.44966972099E+02  0.00000000000E+00 0. -1.
          2    1    1    2  502    0  0.12316402903E+02 -0.35579903204E+02  0.21855377163E+03  0.22177324993E+03  0.00000000000E+00 0. -1.
</event>
<event>
 4    1  0.6651744E+003  0.3914413E+02  0.7546771E-02  0.1353575E+00
          2   -1    0    0  502    0  0.00000000000E+00  0.00000000000E+00  0.27303275096E+04  0.27303275096E+04  0.00000000000E+00 0. -1.
          2   -1    0    0  501    0 -0.00000000000E+00 -0.00000000000E+00 -0.37337365942E+01  0.37337365942E+01  0.00000000000E+00 0.  1.
          2    1    1    2  501    0 -0.34762511244E+02  0.17995298160E+02  0.26234103348E+04  0.26237023550E+04  0.00000000000E+00 0. -1.
          2    1    1    2  502    0  0.34762511244E+02 -0.17995298160E+02  0.10318343822E+03  0.11035889120E+03  0.00000000000E+00 0.  1.
</event>
<event>
 4    1  0.6651744E+003  0.2522193E+02  0.7546771E-02  0.1466336E+00
          2   -1    0    0  501    0  0.00000000000E+00  0.00000000000E+00  0.10223751248E+02  0.10223751248E+02  0.00000000000E+00 0.  1.
          2   -1    0    0  502    0 -0.00000000000E+00 -0.00000000000E+00 -0.11896349761E+04  0.11896349761E+04  0.00000000000E+00 0.  1.
          2    1    1    2  501    0  0.17126045041E+02 -0.18516059625E+02 -0.11737350031E+04  0.11740059640E+04  0.00000000000E+00 0.  1.
          2    1    1    2  502    0 -0.17126045041E+02  0.18516059625E+02 -0.56762217710E+01  0.25852763418E+02  0.00000000000E+00 0.  1.
</event>
<event>
 4    1  0.6651744E+003  0.3053109E+02  0.7546771E-02  0.1415036E+00
          2   -1    0    0  502    0  0.00000000000E+00  0.00000000000E+00  0.39107404093E+02  0.39107404093E+02  0.00000000000E+00 0.  1.
          2   -1    0    0  501    0 -0.00000000000E+00 -0.00000000000E+00 -0.55988722094E+02  0.55988722094E+02  0.00000000000E+00 0.  1.
          2    1    1    2  501    0  0.29170779157E+02  0.90118344941E+01  0.27591832018E+02  0.41151630730E+02  0.00000000000E+00 0.  1.
          2    1    1    2  502    0 -0.29170779157E+02 -0.90118344941E+01 -0.44473150019E+02  0.53944495458E+02  0.00000000000E+00 0.  1.
</event>
<event>
 4    1  0.6651744E+003  0.2075049E+02  0.7546771E-02  0.1522857E+00
          2   -1    0    0  502    0  0.00000000000E+00  0.00000000000E+00  0.32018594391E+02  0.32018594391E+02  0.00000000000E+00 0. -1.
          2   -1    0    0  501    0 -0.00000000000E+00 -0.00000000000E+00 -0.35227586007E+03  0.35227586007E+03  0.00000000000E+00 0. -1.
          2    1    1    2  501    0  0.11299128757E+02 -0.17404378748E+02  0.28315362429E+02  0.35104735574E+02  0.00000000000E+00 0. -1.
          2    1    1    2  502    0 -0.11299128757E+02  0.17404378748E+02 -0.34857262811E+03  0.34918971889E+03  0.00000000000E+00 0. -1.
</event>
<event>
 4    1  0.6651744E+003  0.2187421E+02  0.7546771E-02  0.1507140E+00
          2   -1    0    0  501    0  0.00000000000E+00  0.00000000000E+00  0.42281754381E+03  0.42281754381E+03  0.00000000000E+00 0. -1.
          2   -1    0    0  502    0 -0.00000000000E+00 -0.00000000000E+00 -0.12560930563E+01  0.12560930563E+01  0.00000000000E+00 0.  1.
          2    1    1    2  501    0  0.10451310808E+02  0.19215912606E+02  0.14404062497E+03  0.14569208227E+03  0.00000000000E+00 0.  1.
          2    1    1    2  502    0 -0.10451310808E+02 -0.19215912606E+02  0.27752082579E+03  0.27838155460E+03  0.00000000000E+00 0. -1.
</event>
<event>
 4    1  0.6651744E+003  0.2375342E+02  0.7546771E-02  0.1483248E+00
          2   -1    0    0  501    0  0.00000000000E+00  0.00000000000E+00  0.98705562298E+01  0.98705562298E+01  0.00000000000E+00 0.  1.
          2   -1    0    0  502    0 -0.00000000000E+00 -0.00000000000E+00 -0.15894063371E+04  0.15894063371E+04  0.00000000000E+00 0. -1.
          2    1    1    2  501    0  0.12159130836E+02 -0.20405406864E+02 -0.15748953133E+04  0.15750744341E+04  0.00000000000E+00 0. -1.
          2    1    1    2  502    0 -0.12159130836E+02  0.20405406864E+02 -0.46404675271E+01  0.24202459190E+02  0.00000000000E+00 0.  1.
</event>
<event>
 4    1  0.6651744E+003  0.3108074E+02  0.7546771E-02  0.1410432E+00
          2   -1    0    0  501    0  0.00000000000E+00  0.00000000000E+00  0.20852494792E+02  0.20852494792E+02  0.00000000000E+00 0.  1.
          2   -1    0    0  502    0 -0.00000000000E+00 -0.00000000000E+00 -0.13659187610E+04  0.13659187610E+04  0.00000000000E+00 0. -1.
          2    1    1    2  501    0 -0.31072109421E+02  0.73244533318E+00 -0.13540590322E+04  0.13544156952E+04  0.00000000000E+00 0. -1.
          2    1    1    2  502    0  0.31072109421E+02 -0.73244533318E+00  0.89927660792E+01  0.32355560600E+02  0.00000000000E+00 0.  1.
</event>
<event>
 4    1  0.6651744E+003  0.3288949E+02  0.7546771E-02  0.1396040E+00
          2   -1    0    0  502    0  0.00000000000E+00  0.00000000000E+00  0.12207434581E+02  0.12207434581E+02  0.00000000000E+00 0. -1.
          2   -1    0    0  501    0 -0.00000000000E+00 -0.00000000000E+00 -0.19193598386E+03  0.19193598386E+03  0.00000000000E+00 0. -1.
          2    1    1    2  501    0  0.22531613686E+02  0.23959236248E+02 -0.14973402322E+02  0.36137534420E+02  0.00000000000E+00 0. -1.
          2    1    1    2  502    0 -0.22531613686E+02 -0.23959236248E+02 -0.16475514695E+03  0.16800588402E+03  0.00000000000E+00 0. -1.
</event>
<event>
 4    1  0.6651744E+003  0.2201915E+02  0.7546771E-02  0.1505196E+00
          2   -1    0    0  501    0  0.00000000000E+00  0.00000000000E+00  0.34950149610E+01  0.34950149610E+01  0.00000000000E+00 0.  1.
          2   -1    0    0  502    0 -0.00000000000E+00 -0.00000000000E+00 -0.66919286804E+03  0.66919286804E+03  0.00000000000E+00 0.  1.
          2    1    1    2  501    0  0.74566124109E+01  0.20718150565E+02 -0.63230826712E+03  0.63269154214E+03  0.00000000000E+00 0.  1.
          2    1    1    2  502    0 -0.74566124109E+01 -0.20718150565E+02 -0.33389585957E+02  0.39996340856E+02  0.00000000000E+00 0.  1.
</event>
<event>
 4    1  0.6651744E+003  0.2018333E+02  0.7546771E-02  0.1531251E+00
          2   -1    0    0  501    0  0.00000000000E+00  0.00000000000E+00  0.90949217609E+03  0.90949217609E+03  0.00000000000E+00 0.  1.
          2   -1    0    0  502    0 -0.00000000000E+00 -0.00000000000E+00 -0.46922768619E+01  0.46922768619E+01  0.00000000000E+00 0. -1.
          2    1    1    2  501    0  0.17920443133E+02 -0.92857195656E+01  0.17670871110E+02  0.26825856104E+02  0.00000000000E+00 0. -1.
          2    1    1    2  502    0 -0.17920443133E+02  0.92857195656E+01  0.88712902812E+03  0.88735859685E+03  0.00000000000E+00 0.  1.
</event>
<event>
 4    1  0.6651744E+003  0.2334182E+02  0.7546771E-02  0.1488250E+00
          2   -1    0    0  501    0  0.00000000000E+00  0.00000000000E+00  0.30839228840E+00  0.30839228840E+00  0.00000000000E+00 0. -1.
          2   -1    0    0  502    0 -0.00000000000E+00 -0.00000000000E+00 -0.18031796530E+04  0.18031796530E+04  0.00000000000E+00 0.  1.
          2    1    1    2  501    0 -0.13679145422E+01 -0.23301702140E+02 -0.10296730185E+04  0.10299375542E+04  0.00000000000E+00 0.  1.
          2    1    1    2  502    0  0.13679145422E+01  0.23301702140E+02 -0.77319824226E+03  0.77355049115E+03  0.00000000000E+00 0. -1.
</event>
<event>
 4    1  0.6651744E+003  0.2118313E+02  0.7546771E-02  0.1516666E+00
          2   -1    0    0  502    0  0.00000000000E+00  0.00000000000E+00  0.54924671683E+02  0.54924671683E+02  0.00000000000E+00 0.  1.
          2   -1    0    0  501    0 -0.00000000000E+00 -0.00000000000E+00 -0.19941986312E+02  0.19941986312E+02  0.00000000000E+00 0.  1.
          2    1    1    2  501    0  0.20604386805E+02 -0.49177486507E+01  0.46252233228E+02  0.50872331242E+02  0.00000000000E+00 0.  1.
          2    1    1    2  502    0 -0.20604386805E+02  0.49177486507E+01 -0.11269547858E+02  0.23994326753E+02  0.00000000000E+00 0.  1.
</event>
<event>
 4    1  0.6651744E+003  0.2112540E+02  0.7546771E-02  0.1517482E+00
          2   -1    0    0  501    0  0.00000000000E+00  0.00000000000E+00  0.12177443400E+04  0.12177443400E+04  0.00000000000E+00 0. -1.
          2   -1    0    0  502    0 -0.00000000000E+00 -0.00000000000E+00 -0.26056274050E+02  0.26056274050E+02  0.00000000000E+00 0.  1.
          2    1    1    2  501    0  0.36936229029E+01  0.20799992896E+02 -0.21667255008E+02  0.30261402714E+02  0.00000000000E+00 0.  1.
          2    1    1    2  502    0 -0.36936229029E+01 -0.20799992896E+02  0.12133553209E+04  0.12135392113E+04  0.00000000000E+00 0. -1.
</event>
<event>
 4    1  0.6651744E+003  0.2229626E+02  0.7546771E-02  0.1501529E+00
          2   -1    0    0  502    0  0.00000000000E+00  0.00000000000E+00  0.11464053580E+01  0.11464053580E+01  0.00000000000E+00 0.  1.
          2   -1    0    0  501    0 -0.00000000000E+00 -0.00000000000E+00 -0.61262309600E+03  0.61262309600E+03  0.00000000000E+00 0.  1.
          2    1    1    2  501    0 -0.14729435861E+02 -0.16738188493E+02 -0.13986032234E+03  0.14162638525E+03  0.00000000000E+00 0.  1.
          2    1    1    2  502    0  0.14729435861E+02  0.16738188493E+02 -0.47161636831E+03  0.47214311611E+03  0.00000000000E+00 0.  1.
</event>
<event>
 4    1  0.6651744E+003  0.2463319E+02  0.7546771E-02  0.1472949E+00
          2   -1    0    0  502    0  0.00000000000E+00  0.00000000000E+00  0.13937607528E+04  0.13937607528E+04  0.00000000000E+00 0.  1.
          2   -1    0    0  501    0 -0.00000000000E+00 -0.00000000000E+00 -0.43819875358E+00  0.43819875358E+00  0.00000000000E+00 0.  1.
          2    1    1    2  501    0 -0.42825476252E+00 -0.24629467782E+02  0.75272362450E+03  0.75312658230E+03  0.00000000000E+00 0.  1.
          2    1    1    2  502    0  0.42825476252E+00  0.24629467782E+02  0.64059892957E+03  0.64107236928E+03  0.00000000000E+00 0.  1.
</event>
<event>
 4    1  0.6651744E+003  0.2737605E+02  0.7546771E-02  0.1443867E+00
          2   -1    0    0  502    0  0.00000000000E+00  0.00000000000E+00  0.18777285911E+04  0.18777285911E+04  0.00000000000E+00 0. -1.
          2   -1    0    0  501    0 -0.00000000000E+00 -0.00000000000E+00 -0.96038542557E+00  0.96038542557E+00  0.00000000000E+00 0.  1.
          2    1    1    2  501    0 -0.20218741484E+02  0.18456728722E+02  0.16564831302E+04  0.16567093314E+04  0.00000000000E+00 0. -1.
          2    1    1    2  502    0  0.20218741484E+02 -0.18456728722E+02  0.22028507549E+03  0.22197964507E+03  0.00000000000E+00 0.  1.
</event>
<event>
 4    1  0.6651744E+003  0.2205005E+02  0.7546771E-02  0.1504784E+00
          2   -1    0    0  502    0  0.00000000000E+00  0.00000000000E+00  0.19653443241E+03  0.19653443241E+03  0.00000000000E+00 0.  1.
          2   -1    0    0  501    0 -0.00000000000E+00 -0.00000000000E+00 -0.48812840529E+02  0.48812840529E+02  0.00000000000E+00 0.  1.
          2    1    1    2  501    0 -0.21242029252E+02 -0.59144830768E+01  0.19338539279E+03  0.19463842134E+03  0.00000000000E+00 0.  1.
          2    1    1    2  502    0  0.21242029252E+02  0.59144830768E+01 -0.45663800911E+02  0.50708851599E+02  0.00000000000E+00 0.  1.
</event>
<event>
 4    1  0.6651744E+003  0.2058350E+02  0.7546771E-02  0.1525295E+00
          2   -1    0    0  501    0  0.00000000000E+00  0.00000000000E+00  0.69713040137E+01  0.69713040137E+01  0.00000000000E+00 0.  1.
          2   -1    0    0  502    0 -0.00000000000E+00 -0.00000000000E+00 -0.69481471773E+03  0.69481471773E+03  0.00000000000E+00 0.  1.
          2    1    1    2  501    0 -0.18502708395E+02  0.90183363016E+01 -0.67911742691E+03  0.67942929002E+03  0.00000000000E+00 0.  1.
          2    1    1    2  502    0  0.18502708395E+02 -0.90183363016E+01 -0.87259868095E+01  0.22356731724E+02  0.00000000000E+00 0.  1.
</event>
<event>
 4    1  0.6651744E+003  0.3442683E+02  0.7546771E-02  0.1384638E+00
          2   -1    0    0  501    0  0.00000000000E+00  0.00000000000E+00  0.26732972803E+02  0.26732972803E+02  0.00000000000E+00 0. -1.
          2   -1    0    0  502    0 -0.00000000000E+00 -0.00000000000E+00 -0.23005060701E+03  0.23005060701E+03  0.00000000000E+00 0. -1.
          2    1    1    2  501    0 -0.26976911772E+02  0.21388149422E+02 -0.21701735611E+03  0.21973106189E+03  0.00000000000E+00 0. -1.
          2    1    1    2  502    0  0.26976911772E+02 -0.21388149422E+02  0.13699721904E+02  0.37052517927E+02  0.00000000000E+00 0. -1.
</event>
<event>
 4    1  0.6651744E+003  0.2079371E+02  0.7546771E-02  0.1522231E+00
          2   -1    0    0  502    0  0.00000000000E+00  0.00000000000E+00  0.10102536740E+04  0.10102536740E+04  0.00000000000E+00 0.  1.
          2   -1    0    0  501    0 -0.00000000000E+00 -0.00000000000E+00 -0.39543112340E+01  0.39543112340E+01  0.00000000000E+00 0. -1.
          2    1    1    2  501    0  0.20418179510E+02 -0.39339738068E+01  0.98202511472E+03  0.98224523626E+03  0.00000000000E+00 0.  1.
          2    1    1    2  502    0 -0.20418179510E+02  0.39339738068E+01  0.24274248067E+02  0.31962749000E+02  0.00000000000E+00 0. -1.
</event>
<event>
 4    1  0.6651744E+003  0.2881794E+02  0.7546771E-02  0.1430154E+00
          2   -1    0    0  501    0  0.00000000000E+00  0.00000000000E+00  0.81491459857E+01  0.81491459857E+01  0.00000000000E+00 0. -1.
          2   -1    0    0  502    0 -0.00000000000E+00 -0.00000000000E+00 -0.10489996861E+04  0.10489996861E+04  0.00000000000E+00 0.  1.
          2    1    1    2  501    0  0.27852345162E+02 -0.73973386513E+01 -0.10226685955E+04  0.10230745477E+04  0.00000000000E+00 0.  1.
          2    1    1    2  502    0 -0.27852345162E+02  0.73973386513E+01 -0.18181944543E+02  0.34074284402E+02  0.00000000000E+00 0. -1.
</event>
<event>
 4    1  0.6651744E+003  0.2614543E+02  0.7546771E-02  0.1456386E+00
          2   -1    0    0  501    0  0.00000000000E+00  0.00000000000E+00  0.48330716512E+02  0.48330716512E+02  0.00000000000E+00 0.  1.
          2   -1    0    0  502    0 -0.00000000000E+00 -0.00000000000E+00 -0.14511500466E+02  0.14511500466E+02  0.00000000000E+00 0.  1.
          2    1    1    2  501    0  0.25781555442E+02  0.43468476634E+01  0.11908488333E+02  0.28729702052E+02  0.00000000000E+00 0.  1.
          2    1    1    2  502    0 -0.25781555442E+02 -0.43468476634E+01  0.21910727713E+02  0.34112514925E+02  0.00000000000E+00 0.  1.
</event>
<event>
 4    1  0.6651744E+003  0.2275989E+02  0.7546771E-02  0.1495535E+00
          2   -1    0    0  502    0  0.00000000000E+00  0.00000000000E+00  0.17404834602E+01  0.17404834602E+01  0.00000000000E+00 0. -1.
          2   -1    0    0  501    0 -0.00000000000E+00 -0.00000000000E+00 -0.79686912655E+03  0.79686912655E+03  0.00000000000E+00 0.  1.
          2    1    1    2  501    0 -0.11693389451E+02 -0.19526318654E+02 -0.81505987818E+02  0.84624101338E+02  0.00000000000E+00 0. -1.
          2    1    1    2  502    0  0.11693389451E+02  0.19526318654E+02 -0.71362265527E+03  0.71398550867E+03  0.00000000000E+00 0.  1.
</event>
<event>
 4    1  0.6651744E+003  0.3164347E+02  0.7546771E-02  0.1405833E+00
          2   -1    0    0  501    0  0.00000000000E+00  0.00000000000E+00  0.12442940512E+02  0.12442940512E+02  0.00000000000E+00 0. -1.
          2   -1    0    0  502    0 -0.00000000000E+00 -0.00000000000E+00 -0.52830020541E+03  0.52830020541E+03  0.00000000000E+00 0. -1.
          2    1    1    2  501    0 -0.11209199522E+02  0.29591602418E+02 -0.50685811086E+03  0.50784491100E+03  0.00000000000E+00 0. -1.
          2    1    1    2  502    0  0.11209199522E+02 -0.29591602418E+02 -0.89991540420E+01  0.32898234923E+02  0.00000000000E+00 0. -1.
</event>
<event>
 4    1  0.6651744E+003  0.2308243E+02  0.7546771E-02  0.1491466E+00
          2   -1    0    0  501    0  0.00000000000E+00  0.00000000000E+00  0.15750952842E+02  0.15750952842E+02  0.00000000000E+00 0.  1.
          2   -1    0    0  502    0 -0.00000000000E+00 -0.00000000000E+00 -0.12501206672E+04  0.12501206672E+04  0.00000000000E+00 0. -1.
          2    1    1    2  501    0  0.15591543428E+02  0.17020647223E+02 -0.12414987840E+04  0.12417133443E+04  0.00000000000E+00 0. -1.
          2    1    1    2  502    0 -0.15591543428E+02 -0.17020647223E+02  0.71290695792E+01  0.24158275837E+02  0.00000000000E+00 0.  1.
</event>
<event>
 4    1  0.6651744E+003  0.3588358E+02  0.7546771E-02  0.1374456E+00
          2   -1    0    0  502    0  0.00000000000E+00  0.00000000000E+00  0.15404474617E+04  0.15404474617E+04  0.00000000000E+00 0. -1.
          2   -1    0    0  501    0 -0.00000000000E+00 -0.00000000000E+00 -0.92740695865E+00  0.92740695865E+00  0.00000000000E+00 0. -1.
          2    1    1    2  501    0 -0.14056022584E+02 -0.33016052847E+02  0.10118707859E+04  0.10125068488E+04  0.00000000000E+00 0. -1.
          2    1    1    2  502    0  0.14056022584E+02  0.33016052847E+02  0.52764926884E+03  0.52886801986E+03  0.00000000000E+00 0. -1.
</event>
<event>
 4    1  0.6651744E+003  0.2237377E+02  0.7546771E-02  0.1500515E+00
          2   -1    0    0  502    0  0.00000000000E+00  0.00000000000E+00  0.32009081492E+03  0.32009081492E+03  0.00000000000E+00 0.  1.
          2   -1    0    0  501    0 -0.00000000000E+00 -0.00000000000E+00 -0.45237505955E+03  0.45237505955E+03  0.00000000000E+00 0.  1.
          2    1    1    2  501    0  0.19715227775E+02 -0.10578051563E+02  0.31942262266E+03  0.32020524238E+03  0.00000000000E+00 0.  1.
          2    1    1    2  502    0 -0.19715227775E+02  0.10578051563E+02 -0.45170686729E+03  0.45226063209E+03  0.00000000000E+00 0.  1.
</event>
<event>
 4    1  0.6651744E+003  0.4654555E+02  0.7546771E-02  0.1313887E+00
          2   -1    0    0  502    0  0.00000000000E+00  0.00000000000E+00  0.79702729895E+03  0.79702729895E+03  0.00000000000E+00 0.  1.
          2   -1    0    0  501    0 -0.00000000000E+00 -0.00000000000E+00 -0.44425940339E+02  0.44425940339E+02  0.00000000000E+00 0. -1.
          2    1    1    2  501    0 -0.34454120382E+02 -0.31295388898E+02  0.78395303245E+03  0.78533358827E+03  0.00000000000E+00 0.  1.
          2    1    1    2  502    0  0.34454120382E+02  0.31295388898E+02 -0.31351673842E+02  0.56119651017E+02  0.00000000000E+00 0. -1.
</event>
<event>
 4    1  0.6651744E+003  0.3511967E+02  0.7546771E-02  0.1379724E+00
          2   -1    0    0  501    0  0.00000000000E+00  0.00000000000E+00  0.10131884630E+04  0.10131884630E+04  0.00000000000E+00 0. -1.
          2   -1    0    0  502    0 -0.00000000000E+00 -0.00000000000E+00 -0.34285865305E+01  0.34285865305E+01  0.00000000000E+00 0.  1.
          2    1    1    2  501    0  0.34532318242E+02  0.63960988614E+01  0.96665104030E+02  0.10284713618E+03  0.00000000000E+00 0.  1.
          2    1    1    2  502    0 -0.34532318242E+02 -0.63960988614E+01  0.91309477247E+03  0.91376991338E+03  0.00000000000E+00 0. -1.
</event>
<event>
 4    1  0.6651744E+003  0.3050188E+02  0.7546771E-02  0.1415284E+00
          2   -1    0    0  501    0  0.00000000000E+00  0.00000000000E+00  0.15765891517E+01  0.15765891517E+01  0.00000000000E+00 0. -1.
          2   -1    0    0  502    0 -0.00000000000E+00 -0.00000000000E+00 -0.10772968746E+04  0.10772968746E+04  0.00000000000E+00 0.  1.
          2    1    1    2  501    0  0.27967986857E+02  0.12171943879E+02 -0.90062033279E+03  0.90113669792E+03  0.00000000000E+00 0.  1.
          2    1    1    2  502    0 -0.27967986857E+02 -0.12171943879E+02 -0.17509995264E+03  0.17773676581E+03  0.00000000000E+00 0. -1.
</event>
<event>
 4    1  0.6651744E+003  0.2058936E+02  0.7546771E-02  0.1525209E+00
          2   -1    0    0  502    0  0.00000000000E+00  0.00000000000E+00  0.84283787149E+03  0.84283787149E+03  0.00000000000E+00 0. -1.
          2   -1    0    0  501    0 -0.00000000000E+00 -0.00000000000E+00 -0.14630574218E+01  0.14630574218E+01  0.00000000000E+00 0.  1.
          2    1    1    2  501    0 -0.65491020483E+01 -0.19520015510E+02  0.76266061990E+03  0.76293849221E+03  0.00000000000E+00 0. -1.
          2    1    1    2  502    0  0.65491020483E+01  0.19520015510E+02  0.78714194169E+02  0.81362436707E+02  0.00000000000E+00 0.  1.
</event>
<event>
 4    1  0.6651744E+003  0.2354098E+02  0.7546771E-02  0.1485815E+00
          2   -1    0    0  501    0  0.00000000000E+00  0.00000000000E+00  0.64577532908E+03  0.64577532908E+03  0.00000000000E+00 0. -1.
          2   -1    0    0  502    0 -0.00000000000E+00 -0.00000000000E+00 -0.14680674645E+02  0.14680674645E+02  0.00000000000E+00 0. -1.
          2    1    1    2  501    0  0.22463090705E+02 -0.70418199049E+01 -0.48836104722E+01  0.24042198794E+02  0.00000000000E+00 0. -1.
          2    1    1    2  502    0 -0.22463090705E+02  0.70418199049E+01  0.63597826491E+03  0.63641380493E+03  0.00000000000E+00 0. -1.
</event>
<event>
 4    1  0.6651744E+003  0.3576938E+02  0.7546771E-02  0.1375233E+00
          2   -1    0    0  501    0  0.00000000000E+00  0.00000000000E+00  0.88139428136E+03  0.88139428136E+03  0.00000000000E+00 0.  1.
          2   -1    0    0  502    0 -0.00000000000E+00 -0.00000000000E+00 -0.98241712810E+01  0.98241712810E+01  0.00000000000E+00 0. -1.
          2    1    1    2  501    0 -0.28351630695E+02  0.21809019552E+02  0.24412648851E+02  0.43306185711E+02  0.00000000000E+00 0. -1.
          2    1    1    2  502    0  0.28351630695E+02 -0.21809019552E+02  0.84715746123E+03  0.84791226693E+03  0.00000000000E+00 0.  1.
</event>
<event>
 4    1  0.6651744E+003  0.2394811E+02  0.7546771E-02  0.1480924E+00
          2   -1    0    0  502    0  0.00000000000E+00  0.00000000000E+00  0.26946004071E+03  0.26946004071E+03  0.00000000000E+00 0. -1.
          2   -1    0    0  501    0 -0.00000000000E+00 -0.00000000000E+00 -0.25677665291E+02  0.25677665291E+02  0.00000000000E+00 0.  1.
          2    1    1    2  501    0 -0.57072481639E-01  0.23948044681E+02  0.26321190841E+03  0.26429911243E+03  0.00000000000E+00 0. -1.
          2    1    1    2  502    0  0.57072481639E-01 -0.23948044681E+02 -0.19429532991E+02  0.30838593573E+02  0.00000000000E+00 0.  1.
</event>
<event>
 4    1  0.6651744E+003  0.2796642E+02  0.7546771E-02  0.1438134E+00
          2   -1    0    0  502    0  0.00000000000E+00  0.00000000000E+00  0.20394838730E+01  0.20394838730E+01  0.00000000000E+00 0. -1.
          2   -1    0    0  501    0 -0.00000000000E+00 -0.00000000000E+00 -0.85993766570E+03  0.85993766570E+03  0.00000000000E+00 0.  1.
          2    1    1    2  501    0  0.31871795555E+01  0.27784218641E+02 -0.10814489399E+03  0.11170245752E+03  0.00000000000E+00 0. -1.
          2    1    1    2  502    0 -0.31871795555E+01 -0.27784218641E+02 -0.74975328783E+03  0.75027469205E+03  0.00000000000E+00 0.  1.
</event>
<event>
 4    1  0.6651744E+003  0.2041394E+02  0.7546771E-02  0.1527799E+00
          2   -1    0    0  501    0  0.00000000000E+00  0.00000000000E+00  0.58620441816E+03  0.58620441816E+03  0.00000000000E+00 0.  1.
          2   -1    0    0  502    0 -0.00000000000E+00 -0.00000000000E+00 -0.25163880302E+02  0.25163880302E+02  0.00000000000E+00 0.  1.
          2    1    1    2  501    0 -0.18020627775E+02 -0.95909268200E+01 -0.20815073372E+02  0.29154693999E+02  0.00000000000E+00 0.  1.
          2    1    1    2  502    0  0.18020627775E+02  0.95909268200E+01  0.58185561123E+03  0.58221360446E+03  0.00000000000E+00 0.  1.
</event>
<event>
 4    1  0.6651744E+003  0.2964783E+02  0.7546771E-02  0.1422682E+00
          2   -1    0    0  502    0  0.00000000000E+00  0.00000000000E+00  0.60670236345E+01  0.60670236345E+01  0.00000000000E+00 0. -1.
          2   -1    0    0  501    0 -0.00000000000E+00 -0.00000000000E+00 -0.14950722867E+03  0.14950722867E+03  0.00000000000E+00 0.  1.
          2    1    1    2  501    0 -0.64051416629E+01 -0.28947679757E+02 -0.58036226881E+02  0.65170527339E+02  0.00000000000E+00 0. -1.
          2    1    1    2  502    0  0.64051416629E+01  0.28947679757E+02 -0.85403978151E+02  0.90403724962E+02  0.00000000000E+00 0.  1.
</event>
<event>
 4    1  0.6651744E+003  0.2529657E+02  0.7546771E-02  0.1465513E+00
          2   -1    0    0  502    0  0.00000000000E+00  0.00000000000E+00  0.22505119228E+03  0.22505119228E+03  0.00000000000E+00 0. -1.
          2   -1    0    0  501    0 -0.00000000000E+00 -0.00000000000E+00 -0.19691233924E+02  0.19691233924E+02  0.00000000000E+00 0.  1.
          2    1    1    2  501    0  0.24007344923E+02  0.79726893753E+01  0.21587165829E+03  0.21734877326E+03  0.00000000000E+00 0. -1.
          2    1    1    2  502    0 -0.24007344923E+02 -0.79726893753E+01 -0.10511699932E+02  0.27393652943E+02  0.00000000000E+00 0.  1.
</event>
<event>
 4    1  0.6651744E+003  0.3284371E+02  0.7546771E-02  0.1396391E+00
          2   -1    0    0  502    0  0.00000000000E+00  0.00000000000E+00  0.10688186371E+03  0.10688186371E+03  0.00000000000E+00 0.  1.
          2   -1    0    0  501    0 -0.00000000000E+00 -0.00000000000E+00 -0.97981212858E+02  0.97981212858E+02  0.00000000000E+00 0.  1.
          2    1    1    2  501    0 -0.24388623395E+02  0.21997830487E+02  0.10146305906E+03  0.10664643384E+03  0.00000000000E+00 0.  1.
          2    1    1    2  502    0  0.24388623395E+02 -0.21997830487E+02 -0.92562408203E+02  0.98216642732E+02  0.00000000000E+00 0.  1.
</event>
<event>
 4    1  0.6651744E+003  0.2007410E+02  0.7546771E-02  0.1532906E+00
          2   -1    0    0  501    0  0.00000000000E+00  0.00000000000E+00  0.40827943615E+03  0.40827943615E+03  0.00000000000E+00 0. -1.
          2   -1    0    0  502    0 -0.00000000000E+00 -0.00000000000E+00 -0.14800280976E+03  0.14800280976E+03  0.00000000000E+00 0. -1.
          2    1    1    2  501    0 -0.19681017641E+02  0.39530978828E+01 -0.14707383114E+03  0.14843746577E+03  0.00000000000E+00 0. -1.
          2    1    1    2  502    0  0.19681017641E+02 -0.39530978828E+01  0.40735045753E+03  0.40784478014E+03  0.00000000000E+00 0. -1.
</event>
<event>
 4    1  0.6651744E+003  0.2812538E+02  0.7546771E-02  0.1436620E+00
          2   -1    0    0  502    0  0.00000000000E+00  0.00000000000E+00  0.10437045137E+04  0.10437045137E+04  0.00000000000E+00 0. -1.
          2   -1    0    0  501    0 -0.00000000000E+00 -0.00000000000E+00 -0.20737317802E+02  0.20737317802E+02  0.00000000000E+00 0. -1.
          2    1    1    2  501    0  0.19384725643E+02  0.20378159864E+02  0.10338881129E+04  0.10342705966E+04  0.00000000000E+00 0. -1.
          2    1    1    2  502    0 -0.19384725643E+02 -0.20378159864E+02 -0.10920917000E+02  0.30171234907E+02  0.00000000000E+00 0. -1.
</event>
<event>
 4    1  0.6651744E+003  0.5529321E+02  0.7546771E-02  0.1276721E+00
          2   -1    0    0  502    0  0.00000000000E+00  0.00000000000E+00  0.15910592952E+04  0.15910592952E+04  0.00000000000E+00 0.  1.
          2   -1    0    0  501    0 -0.00000000000E+00 -0.00000000000E+00 -0.19929915071E+01  0.19929915071E+01  0.00000000000E+00 0.  1.
          2    1    1    2  501    0 -0.22963706890E+02 -0.50299177599E+02  0.94531459035E+03  0.94693031097E+03  0.00000000000E+00 0.  1.
          2    1    1    2  502    0  0.22963706890E+02  0.50299177599E+02  0.64375171337E+03  0.64612197577E+03  0.00000000000E+00 0.  1.
</event>
<event>
 4    1  0.6651744E+003  0.2042270E+02  0.7546771E-02  0.1527669E+00
          2   -1    0    0  501    0  0.00000000000E+00  0.00000000000E+00  0.25326435094E+02  0.25326435094E+02  0.00000000000E+00 0. -1.
          2   -1    0    0  502    0 -0.00000000000E+00 -0.00000000000E+00 -0.36265915059E+02  0.36265915059E+02  0.00000000000E+00 0. -1.
          2    1    1    2  501    0  0.13268949027E+02  0.15524866341E+02 -0.28223466434E+02  0.34837487578E+02  0.00000000000E+00 0. -1.
          2    1    1    2  502    0 -0.13268949027E+02 -0.15524866341E+02  0.17283986469E+02  0.26754862576E+02  0.00000000000E+00 0. -1.
</event>
<event>
 4    1  0.6651744E+003  0.2179117E+02  0.7546771E-02  0.1508262E+00
          2   -1    0    0  501    0  0.00000000000E+00  0.00000000000E+00  0.31388141116E+02  0.31388141116E+02  0.00000000000E+00 0.  1.
          2   -1    0    0  502    0 -0.00000000000E+00 -0.00000000000E+00 -0.12669343818E+04  0.12669343818E+04  0.00000000000E+00 0.  1.
          2    1    1    2  501    0  0.38985221011E+01  0.21439608549E+02 -0.12630469169E+04  0.12632348830E+04  0.00000000000E+00 0.  1.
          2    1    1    2  502    0 -0.38985221011E+01 -0.21439608549E+02  0.27500676173E+02  0.35087639978E+02  0.00000000000E+00 0.  1.
</event>
<event>
 4    1  0.6651744E+003  0.2149773E+02  0.7546771E-02  0.1512276E+00
          2   -1    0    0  502    0  0.00000000000E+00  0.00000000000E+00  0.54607932496E+03  0.54607932496E+03  0.00000000000E+00 0. -1.
          2   -1    0    0  501    0 -0.00000000000E+00 -0.00000000000E+00 -0.71785277250E+01  0.71785277250E+01  0.00000000000E+00 0.  1.
          2    1    1    2  501    0 -0.10019760692E+02  0.19019901008E+02  0.52926157504E+03  0.52969799608E+03  0.00000000000E+00 0. -1.
          2    1    1    2  502    0  0.10019760692E+02 -0.19019901008E+02  0.96392221951E+01  0.23559856604E+02  0.00000000000E+00 0.  1.
</event>
<event>
 4    1  0.6651744E+003  0.2030491E+02  0.7546771E-02  0.1529424E+00
          2   -1    0    0  501    0  0.00000000000E+00  0.00000000000E+00  0.99637506181E+00  0.99637506181E+00  0.00000000000E+00 0.  1.
          2   -1    0    0  502    0 -0.00000000000E+00 -0.00000000000E+00 -0.10496673078E+04  0.10496673078E+04  0.00000000000E+00 0.  1.
          2    1    1    2  501    0  0.10616277851E+02 -0.17308501218E+02 -0.93321437899E+03  0.93343525041E+03  0.00000000000E+00 0.  1.
          2    1    1    2  502    0 -0.10616277851E+02  0.17308501218E+02 -0.11545655377E+03  0.11722843246E+03  0.00000000000E+00 0.  1.
</event>
<event>
 4    1  0.6651744E+003  0.3144343E+02  0.7546771E-02  0.1407454E+00
          2   -1    0    0  502    0  0.00000000000E+00  0.00000000000E+00  0.35655367175E+03  0.35655367175E+03  0.00000000000E+00 0. -1.
          2   -1    0    0  501    0 -0.00000000000E+00 -0.00000000000E+00 -0.24356545122E+03  0.24356545122E+03  0.00000000000E+00 0.  1.
          2    1    1    2  501    0  0.30474984814E+02 -0.77436670231E+01  0.35484074815E+03  0.35623116880E+03  0.00000000000E+00 0. -1.
          2    1    1    2  502    0 -0.30474984814E+02  0.77436670231E+01 -0.24185252762E+03  0.24388795418E+03  0.00000000000E+00 0.  1.
</event>
<event>
 4    1  0.6651744E+003  0.2105820E+02  0.7546771E-02  0.1518435E+00
          2   -1    0    0  502    0  0.00000000000E+00  0.00000000000E+00  0.22148374603E+03  0.22148374603E+03  0.00000000000E+00 0. -1.
          2   -1    0    0  501    0 -0.00000000000E+00 -0.00000000000E+00 -0.21039682940E+03  0.21039682940E+03  0.00000000000E+00 0.  1.
          2    1    1    2  501    0 -0.18466162546E+02  0.10121685675E+02  0.22045382975E+03  0.22145730679E+03  0.00000000000E+00 0. -1.
          2    1    1    2  502    0  0.18466162546E+02 -0.10121685675E+02 -0.20936691311E+03  0.21042326864E+03  0.00000000000E+00 0.  1.
</event>
<event>
 4    1  0.6651744E+003  0.2833455E+02  0.7546771E-02  0.1434644E+00
          2   -1    0    0  501    0  0.00000000000E+00  0.00000000000E+00  0.12222839399E+03  0.12222839399E+03  0.00000000000E+00 0. -1.
          2   -1    0    0  502    0 -0.00000000000E+00 -0.00000000000E+00 -0.16962434554E+04  0.16962434554E+04  0.00000000000E+00 0.  1.
          2    1    1    2  501    0 -0.25404386557E+02  0.12548455787E+02 -0.16944813174E+04  0.16947182012E+04  0.00000000000E+00 0.  1.
          2    1    1    2  502    0  0.25404386557E+02 -0.12548455787E+02  0.12046625599E+03  0.12375364815E+03  0.00000000000E+00 0. -1.
</event>
<event>
 4    1  0.6651744E+003  0.3135577E+02  0.7546771E-02  0.1408170E+00
          2   -1    0    0  501    0  0.00000000000E+00  0.00000000000E+00  0.24406128877E+03  0.24406128877E+03  0.00000000000E+00 0.  1.
          2   -1    0    0  502    0 -0.00000000000E+00 -0.00000000000E+00 -0.11924701853E+03  0.11924701853E+03  0.00000000000E+00 0.  1.
          2    1    1    2  501    0 -0.22952765231E+02 -0.21362458983E+02 -0.11615231561E+03  0.12031020117E+03  0.00000000000E+00 0.  1.
          2    1    1    2  502    0  0.22952765231E+02  0.21362458983E+02  0.24096658584E+03  0.24299810612E+03  0.00000000000E+00 0.  1.
</event>
<event>
 4    1  0.6651744E+003  0.2290037E+02  0.7546771E-02  0.1493753E+00
          2   -1    0    0  502    0  0.00000000000E+00  0.00000000000E+00  0.91860981912E+03  0.91860981912E+03  0.00000000000E+00 0.  1.
          2   -1    0    0  501    0 -0.00000000000E+00 -0.00000000000E+00 -0.61070730899E+01  0.61070730899E+01  0.00000000000E+00 0. -1.
          2    1    1    2  501    0  0.11066445444E+02  0.20048953053E+02  0.89646896279E+03  0.89676141085E+03  0.00000000000E+00 0.  1.
          2    1    1    2  502    0 -0.11066445444E+02 -0.20048953053E+02  0.16033783234E+02  0.27955481360E+02  0.00000000000E+00 0. -1.
</event>
<event>
 4    1  0.6651744E+003  0.2702788E+02  0.7546771E-02  0.1447328E+00
          2   -1    0    0  502    0  0.00000000000E+00  0.00000000000E+00  0.16339755532E+03  0.16339755532E+03  0.00000000000E+00 0. -1.
          2   -1    0    0  501    0 -0.00000000000E+00 -0.00000000000E+00 -0.17713506818E+02  0.17713506818E+02  0.00000000000E+00 0.  1.
          2    1    1    2  501    0  0.20471895656E+02  0.17646742862E+02  0.15114031261E+03  0.15353794365E+03  0.00000000000E+00 0. -1.
          2    1    1    2  502    0 -0.20471895656E+02 -0.17646742862E+02 -0.54562641024E+01  0.27573118491E+02  0.00000000000E+00 0.  1.
</event>
<event>
 4    1  0.6651744E+003  0.3419726E+02  0.7546771E-02  0.1386296E+00
          2   -1    0    0  502    0  0.00000000000E+00  0.00000000000E+00  0.30019113810E+03  0.30019113810E+03  0.00000000000E+00 0. -1.
          2   -1    0    0  501    0 -0.00000000000E+00 -0.00000000000E+00 -0.35459366860E+03  0.35459366860E+03  0.00000000000E+00 0.  1.
          2    1    1    2  501    0  0.22251672830E+02  0.25967588988E+02  0.29838774600E+03  0.30034097221E+03  0.00000000000E+00 0. -1.
          2    1    1    2  502    0 -0.22251672830E+02 -0.25967588988E+02 -0.35279027650E+03  0.35444383450E+03  0.00000000000E+00 0.  1.
</event>
<event>
 4    1  0.6651744E+003  0.6041899E+02  0.7546771E-02  0.1258416E+00
          2   -1    0    0  502    0  0.00000000000E+00  0.00000000000E+00  0.16827255011E+03  0.16827255011E+03  0.00000000000E+00 0.  1.
          2   -1    0    0  501    0 -0.00000000000E+00 -0.00000000000E+00 -0.17952697438E+03  0.17952697438E+03  0.00000000000E+00 0. -1.
          2    1    1    2  501    0  0.25103413765E+02 -0.54957011410E+02  0.15742752230E+03  0.16862348372E+03  0.00000000000E+00 0.  1.
          2    1    1    2  502    0 -0.25103413765E+02  0.54957011410E+02 -0.16868194657E+03  0.17917604077E+03  0.00000000000E+00 0. -1.
</event>
<event>
 4    1  0.6651744E+003  0.2588936E+02  0.7546771E-02  0.1459095E+00
          2   -1    0    0  501    0  0.00000000000E+00  0.00000000000E+00  0.81324287116E+03  0.81324287116E+03  0.00000000000E+00 0.  1.
          2   -1    0    0  502    0 -0.00000000000E+00 -0.00000000000E+00 -0.14113211546E+01  0.14113211546E+01  0.00000000000E+00 0.  1.
          2    1    1    2  501    0 -0.29793639212E+01  0.25717355743E+02  0.14319076598E+03  0.14551238593E+03  0.00000000000E+00 0.  1.
          2    1    1    2  502    0  0.29793639212E+01 -0.25717355743E+02  0.66864078402E+03  0.66914180638E+03  0.00000000000E+00 0.  1.
</event>
<event>
 4    1  0.6651744E+003  0.2156144E+02  0.7546771E-02  0.1511398E+00
          2   -1    0    0  501    0  0.00000000000E+00  0.00000000000E+00  0.85476760440E+02  0.85476760440E+02  0.00000000000E+00 0. -1.
          2   -1    0    0  502    0 -0.00000000000E+00 -0.00000000000E+00 -0.84249784986E+01  0.84249784986E+01  0.00000000000E+00 0. -1.
          2    1    1    2  501    0 -0.21487339702E+02 -0.17859969640E+01  0.10573867545E+02  0.24014625283E+02  0.00000000000E+00 0. -1.
          2    1    1    2  502    0  0.21487339702E+02  0.17859969640E+01  0.66477914397E+02  0.69887113656E+02  0.00000000000E+00 0. -1.
</event>
<event>
 4    1  0.6651744E+003  0.3655153E+02  0.7546771E-02  0.1369972E+00
          2   -1    0    0  502    0  0.00000000000E+00  0.00000000000E+00  0.68636450900E+03  0.68636450900E+03  0.00000000000E+00 0.  1.
          2   -1    0    0  501    0 -0.00000000000E+00 -0.00000000000E+00 -0.26219272858E+04  0.26219272858E+04  0.00000000000E+00 0.  1.
          2    1    1    2  501    0 -0.13058140955E+02 -0.34139406292E+02  0.68575037940E+03  0.68672381418E+03  0.00000000000E+00 0.  1.
          2    1    1    2  502    0  0.13058140955E+02  0.34139406292E+02 -0.26213131562E+04  0.26215679806E+04  0.00000000000E+00 0.  1.
</event>
<event>
 4    1  0.6651744E+003  0.2284252E+02  0.7546771E-02  0.1494485E+00
          2   -1    0    0  502    0  0.00000000000E+00  0.00000000000E+00  0.14987668435E+01  0.14987668435E+01  0.00000000000E+00 0.  1.
          2   -1    0    0  501    0 -0.00000000000E+00 -0.00000000000E+00 -0.13502710950E+04  0.13502710950E+04  0.00000000000E+00 0.  1.
          2    1    1    2  501    0  0.16228726033E+00  0.22841944128E+02 -0.92115997870E+02  0.94905941923E+02  0.00000000000E+00 0.  1.
          2    1    1    2  502    0 -0.16228726033E+00 -0.22841944128E+02 -0.12566563303E+04  0.12568639200E+04  0.00000000000E+00 0.  1.
</event>
<event>
 4    1  0.6651744E+003  0.4527181E+02  0.7546771E-02  0.1320086E+00
          2   -1    0    0  501    0  0.00000000000E+00  0.00000000000E+00  0.14098146456E+04  0.14098146456E+04  0.00000000000E+00 0. -1.
          2   -1    0    0  502    0 -0.00000000000E+00 -0.00000000000E+00 -0.14239409234E+03  0.14239409234E+03  0.00000000000E+00 0. -1.
          2    1    1    2  501    0 -0.14004507138E+02 -0.43051257390E+02 -0.13842213435E+03  0.14563730381E+03  0.00000000000E+00 0. -1.
          2    1    1    2  502    0  0.14004507138E+02  0.43051257390E+02  0.14058426876E+04  0.14065714342E+04  0.00000000000E+00 0. -1.
</event>
<event>
 4    1  0.6651744E+003  0.4209866E+02  0.7546771E-02  0.1336608E+00
          2   -1    0    0  502    0  0.00000000000E+00  0.00000000000E+00  0.32269110277E+03  0.32269110277E+03  0.00000000000E+00 0.  1.
          2   -1    0    0  501    0 -0.00000000000E+00 -0.00000000000E+00 -0.13282679545E+02  0.13282679545E+02  0.00000000000E+00 0. -1.
          2    1    1    2  501    0  0.17177987363E+02  0.38434541164E+02  0.28335531255E+03  0.28646558319E+03  0.00000000000E+00 0.  1.
          2    1    1    2  502    0 -0.17177987363E+02 -0.38434541164E+02  0.26053110675E+02  0.49508199120E+02  0.00000000000E+00 0. -1.
</event>
<event>
 4    1  0.6651744E+003  0.2068144E+02  0.7546771E-02  0.1523862E+00
          2   -1    0    0  501    0  0.00000000000E+00  0.00000000000E+00  0.58529779830E+03  0.58529779830E+03  0.00000000000E+00 0. -1.
          2   -1    0    0  502    0 -0.00000000000E+00 -0.00000000000E+00 -0.27716098747E+01  0.27716098747E+01  0.00000000000E+00 0.  1.
          2    1    1    2  501    0  0.18008384968E+02 -0.10169562388E+02  0.38952023532E+02  0.44101950814E+02  0.00000000000E+00 0.  1.
          2    1    1    2  502    0 -0.18008384968E+02  0.10169562388E+02  0.54357416489E+03  0.54396745736E+03  0.00000000000E+00 0. -1.
</event>
<event>
 4    1  0.6651744E+003  0.2141122E+02  0.7546771E-02  0.1513474E+00
          2   -1    0    0  501    0  0.00000000000E+00  0.00000000000E+00  0.54670885562E+03  0.54670885562E+03  0.00000000000E+00 0.  1.
          2   -1    0    0  502    0 -0.00000000000E+00 -0.00000000000E+00 -0.16702338715E+03  0.16702338715E+03  0.00000000000E+00 0.  1.
          2    1    1    2  501    0  0.21389514747E+02 -0.96378131391E+00 -0.16612643193E+03  0.16750054209E+03  0.00000000000E+00 0.  1.
          2    1    1    2  502    0 -0.21389514747E+02  0.96378131391E+00  0.54581190039E+03  0.54623170068E+03  0.00000000000E+00 0.  1.
</event>
<event>
 4    1  0.6651744E+003  0.4156548E+02  0.7546771E-02  0.1339549E+00
          2   -1    0    0  501    0  0.00000000000E+00  0.00000000000E+00  0.10489126458E+04  0.10489126458E+04  0.00000000000E+00 0.  1.
          2   -1    0    0  502    0 -0.00000000000E+00 -0.00000000000E+00 -0.61039751142E+02  0.61039751142E+02  0.00000000000E+00 0.  1.
          2    1    1    2  501    0  0.38937317333E+02  0.14545592140E+02 -0.53500681836E+02  0.67749626483E+02  0.00000000000E+00 0.  1.
          2    1    1    2  502    0 -0.38937317333E+02 -0.14545592140E+02  0.10413735765E+04  0.10422027705E+04  0.00000000000E+00 0.  1.
</event>
<event>
 4    1  0.6651744E+003  0.2037777E+02  0.7546771E-02  0.1528337E+00
          2   -1    0    0  502    0  0.00000000000E+00  0.00000000000E+00  0.71202011838E+01  0.71202011838E+01  0.00000000000E+00 0.  1.
          2   -1    0    0  501    0 -0.00000000000E+00 -0.00000000000E+00 -0.53637631472E+03  0.53637631472E+03  0.00000000000E+00 0.  1.
          2    1    1    2  501    0 -0.13316827255E+02  0.15424519071E+02 -0.80784955335E+01  0.21920669853E+02  0.00000000000E+00 0.  1.
          2    1    1    2  502    0  0.13316827255E+02 -0.15424519071E+02 -0.52117761800E+03  0.52157584605E+03  0.00000000000E+00 0.  1.
</event>
<event>
 4    1  0.6651744E+003  0.2135448E+02  0.7546771E-02  0.1514264E+00
          2   -1    0    0  501    0  0.00000000000E+00  0.00000000000E+00  0.24880261420E+03  0.24880261420E+03  0.00000000000E+00 0.  1.
          2   -1    0    0  502    0 -0.00000000000E+00 -0.00000000000E+00 -0.61773679942E+02  0.61773679942E+02  0.00000000000E+00 0. -1.
          2    1    1    2  501    0 -0.18444097979E+02 -0.10762388791E+02 -0.59452623570E+02  0.63171419266E+02  0.00000000000E+00 0. -1.
          2    1    1    2  502    0  0.18444097979E+02  0.10762388791E+02  0.24648155783E+03  0.24740487488E+03  0.00000000000E+00 0.  1.
</event>
<event>
 4    1  0.6651744E+003  0.2850145E+02  0.7546771E-02  0.1433082E+00
          2   -1    0    0  502    0  0.00000000000E+00  0.00000000000E+00  0.58711495606E+02  0.58711495606E+02  0.00000000000E+00 0.  1.
          2   -1    0    0  501    0 -0.00000000000E+00 -0.00000000000E+00 -0.65117568921E+02  0.65117568921E+02  0.00000000000E+00 0.  1.
          2    1    1    2  501    0  0.24652529586E+02 -0.14303346079E+02  0.51741448793E+02  0.59072078407E+02  0.00000000000E+00 0.  1.
          2    1    1    2  502    0 -0.24652529586E+02  0.14303346079E+02 -0.58147522109E+02  0.64756986121E+02  0.00000000000E+00 0.  1.
</event>
<event>
 4    1  0.6651744E+003  0.3404483E+02  0.7546771E-02  0.1387405E+00
          2   -1    0    0  502    0  0.00000000000E+00  0.00000000000E+00  0.17945715626E+01  0.17945715626E+01  0.00000000000E+00 0.  1.
          2   -1    0    0  501    0 -0.00000000000E+00 -0.00000000000E+00 -0.15132295528E+04  0.15132295528E+04  0.00000000000E+00 0.  1.
          2    1    1    2  501    0  0.23405045495E+02 -0.24723557470E+02 -0.18221137687E+03  0.18536460371E+03  0.00000000000E+00 0.  1.
          2    1    1    2  502    0 -0.23405045495E+02  0.24723557470E+02 -0.13292236044E+04  0.13296595207E+04  0.00000000000E+00 0.  1.
</event>
<event>
 4    1  0.6651744E+003  0.2327096E+02  0.7546771E-02  0.1489123E+00
          2   -1    0    0  502    0  0.00000000000E+00  0.00000000000E+00  0.21646402340E+03  0.21646402340E+03  0.00000000000E+00 0. -1.
          2   -1    0    0  501    0 -0.00000000000E+00 -0.00000000000E+00 -0.81563494348E+03  0.81563494348E+03  0.00000000000E+00 0.  1.
          2    1    1    2  501    0  0.68274571327E+01 -0.22246870911E+02  0.21567199329E+03  0.21692382563E+03  0.00000000000E+00 0. -1.
          2    1    1    2  502    0 -0.68274571327E+01  0.22246870911E+02 -0.81484291337E+03  0.81517514124E+03  0.00000000000E+00 0.  1.
</event>
<event>
 4    1  0.6651744E+003  0.3204734E+02  0.7546771E-02  0.1402601E+00
          2   -1    0    0  502    0  0.00000000000E+00  0.00000000000E+00  0.23038575678E+02  0.23038575678E+02  0.00000000000E+00 0. -1.
          2   -1    0    0  501    0 -0.00000000000E+00 -0.00000000000E+00 -0.14793713003E+04  0.14793713003E+04  0.00000000000E+00 0.  1.
          2    1    1    2  501    0  0.30818141784E+02  0.87905786053E+01  0.11633741544E+02  0.34093636907E+02  0.00000000000E+00 0. -1.
          2    1    1    2  502    0 -0.30818141784E+02 -0.87905786053E+01 -0.14679664662E+04  0.14683162391E+04  0.00000000000E+00 0.  1.
</event>
<event>
 4    1  0.6651744E+003  0.2004817E+02  0.7546771E-02  0.1533301E+00
          2   -1    0    0  502    0  0.00000000000E+00  0.00000000000E+00  0.37794663670E+03  0.37794663670E+03  0.00000000000E+00 0. -1.
          2   -1    0    0  501    0 -0.00000000000E+00 -0.00000000000E+00 -0.36064184590E+03  0.36064184590E+03  0.00000000000E+00 0.  1.
          2    1    1    2  501    0  0.19887894403E+02  0.25300091185E+01  0.37740175012E+03  0.37793387026E+03  0.00000000000E+00 0. -1.
          2    1    1    2  502    0 -0.19887894403E+02 -0.25300091185E+01 -0.36009695932E+03  0.36065461234E+03  0.00000000000E+00 0.  1.
</event>
<event>
 4    1  0.6651744E+003  0.2420035E+02  0.7546771E-02  0.1477951E+00
          2   -1    0    0  502    0  0.00000000000E+00  0.00000000000E+00  0.87425884720E+03  0.87425884720E+03  0.00000000000E+00 0.  1.
          2   -1    0    0  501    0 -0.00000000000E+00 -0.00000000000E+00 -0.10087708168E+01  0.10087708168E+01  0.00000000000E+00 0.  1.
          2    1    1    2  501    0  0.23702613761E+02 -0.48829117346E+01  0.69027715677E+03  0.69070124503E+03  0.00000000000E+00 0.  1.
          2    1    1    2  502    0 -0.23702613761E+02  0.48829117346E+01  0.18297291961E+03  0.18456637299E+03  0.00000000000E+00 0.  1.
</event>
<event>
 4    1  0.6651744E+003  0.2623975E+02  0.7546771E-02  0.1455398E+00
          2   -1    0    0  502    0  0.00000000000E+00  0.00000000000E+00  0.17547697302E+02  0.17547697302E+02  0.00000000000E+00 0. -1.
          2   -1    0    0  501    0 -0.00000000000E+00 -0.00000000000E+00 -0.10552255962E+03  0.10552255962E+03  0.00000000000E+00 0. -1.
          2    1    1    2  501    0 -0.24668520533E+02 -0.89436222772E+01  0.47832621924E+01  0.26672155555E+02  0.00000000000E+00 0. -1.
          2    1    1    2  502    0  0.24668520533E+02  0.89436222772E+01 -0.92758124515E+02  0.96398101373E+02  0.00000000000E+00 0. -1.
</event>
<event>
 4    1  0.1131863E+004  0.3135055E+02  0.7546771E-02  0.1408212E+00
          2   -1    0    0  501    0  0.00000000000E+00  0.00000000000E+00  0.12149825765E+04  0.12149825765E+04  0.00000000000E+00 0. -1.
          2   -1    0    0  502    0 -0.00000000000E+00 -0.00000000000E+00 -0.66457389636E+03  0.66457389636E+03  0.00000000000E+00 0. -1.
          2    1    1    2  501    0 -0.28445133399E+02 -0.13180722800E+02 -0.66400175328E+03  0.66474144254E+03  0.00000000000E+00 0. -1.
          2    1    1    2  502    0  0.28445133399E+02  0.13180722800E+02  0.12144104334E+04  0.12148150303E+04  0.00000000000E+00 0. -1.
</event>
<event>
 4    1  0.6651744E+003  0.2020034E+02  0.7546771E-02  0.1530995E+00
          2   -1    0    0  501    0  0.00000000000E+00  0.00000000000E+00  0.11520971415E+03  0.11520971415E+03  0.00000000000E+00 0. -1.
          2   -1    0    0  502    0 -0.00000000000E+00 -0.00000000000E+00 -0.47272068855E+01  0.47272068855E+01  0.00000000000E+00 0. -1.
          2    1    1    2  501    0  0.20077698849E+02 -0.22225816254E+01  0.25211773936E+02  0.32306151196E+02  0.00000000000E+00 0. -1.
          2    1    1    2  502    0 -0.20077698849E+02  0.22225816254E+01  0.85270733327E+02  0.87630769837E+02  0.00000000000E+00 0. -1.
</event>
<event>
 4    1  0.6651744E+003  0.2057263E+02  0.7546771E-02  0.1525455E+00
          2   -1    0    0  502    0  0.00000000000E+00  0.00000000000E+00  0.59685843726E+02  0.59685843726E+02  0.00000000000E+00 0.  1.
          2   -1    0    0  501    0 -0.00000000000E+00 -0.00000000000E+00 -0.13662920159E+03  0.13662920159E+03  0.00000000000E+00 0.  1.
          2    1    1    2  501    0  0.16591991175E+02 -0.12163019346E+02  0.57104734719E+02  0.60697478844E+02  0.00000000000E+00 0.  1.
          2    1    1    2  502    0 -0.16591991175E+02  0.12163019346E+02 -0.13404809259E+03  0.13561756648E+03  0.00000000000E+00 0.  1.
</event>
<event>
 4    1  0.6651744E+003  0.2466937E+02  0.7546771E-02  0.1472536E+00
          2   -1    0    0  501    0  0.00000000000E+00  0.00000000000E+00  0.13789834824E+03  0.13789834824E+03  0.00000000000E+00 0. -1.
          2   -1    0    0  502    0 -0.00000000000E+00 -0.00000000000E+00 -0.14781033042E+03  0.14781033042E+03  0.00000000000E+00 0. -1.
          2    1    1    2  501    0 -0.21017712511E+02  0.12916399578E+02 -0.14566153929E+03  0.14773578323E+03  0.00000000000E+00 0. -1.
          2    1    1    2  502    0  0.21017712511E+02 -0.12916399578E+02  0.13574955711E+03  0.13797289543E+03  0.00000000000E+00 0. -1.
</event>
<event>
 4    1  0.6651744E+003  0.3707465E+02  0.7546771E-02  0.1366537E+00
          2   -1    0    0  502    0  0.00000000000E+00  0.00000000000E+00  0.12722187599E+04  0.12722187599E+04  0.00000000000E+00 0. -1.
          2   -1    0    0  501    0 -0.00000000000E+00 -0.00000000000E+00 -0.33522148591E+03  0.33522148591E+03  0.00000000000E+00 0. -1.
          2    1    1    2  501    0 -0.17321345303E+02 -0.32779574988E+02  0.12709225192E+04  0.12714631648E+04  0.00000000000E+00 0. -1.
          2    1    1    2  502    0  0.17321345303E+02  0.32779574988E+02 -0.33392524526E+03  0.33597708100E+03  0.00000000000E+00 0. -1.
</event>
<event>
 4    1  0.6651744E+003  0.2063569E+02  0.7546771E-02  0.1524530E+00
          2   -1    0    0  502    0  0.00000000000E+00  0.00000000000E+00  0.47714800515E+03  0.47714800515E+03  0.00000000000E+00 0. -1.
          2   -1    0    0  501    0 -0.00000000000E+00 -0.00000000000E+00 -0.21501342104E+03  0.21501342104E+03  0.00000000000E+00 0.  1.
          2    1    1    2  501    0  0.20375189046E+02  0.32685383862E+01  0.47642902312E+03  0.47687571309E+03  0.00000000000E+00 0. -1.
          2    1    1    2  502    0 -0.20375189046E+02 -0.32685383862E+01 -0.21429443901E+03  0.21528571309E+03  0.00000000000E+00 0.  1.
</event>
<event>
 4    1  0.6651744E+003  0.2346075E+02  0.7546771E-02  0.1486792E+00
          2   -1    0    0  502    0  0.00000000000E+00  0.00000000000E+00  0.49966163447E+03  0.49966163447E+03  0.00000000000E+00 0.  1.
          2   -1    0    0  501    0 -0.00000000000E+00 -0.00000000000E+00 -0.18073221906E+02  0.18073221906E+02  0.00000000000E+00 0. -1.
          2    1    1    2  501    0  0.23350657272E+02  0.22701901923E+01  0.49164865790E+03  0.49220809601E+03  0.00000000000E+00 0.  1.
          2    1    1    2  502    0 -0.23350657272E+02 -0.22701901923E+01 -0.10060245340E+02  0.25526760367E+02  0.00000000000E+00 0. -1.
</event>
<event>
 4    1  0.6651744E+003  0.2668825E+02  0.7546771E-02  0.1450765E+00
          2   -1    0    0  501    0  0.00000000000E+00  0.00000000000E+00  0.24364418353E+04  0.24364418353E+04  0.00000000000E+00 0.  1.
          2   -1    0    0  502    0 -0.00000000000E+00 -0.00000000000E+00 -0.42131049741E+00  0.42131049741E+00  0.00000000000E+00 0. -1.
          2    1    1    2  501    0 -0.18118848833E+02  0.19595156806E+02  0.54387084742E+03  0.54452526253E+03  0.00000000000E+00 0. -1.
          2    1    1    2  502    0  0.18118848833E+02 -0.19595156806E+02  0.18921496774E+04  0.18923378833E+04  0.00000000000E+00 0.  1.
</event>
<event>
 4    1  0.6651744E+003  0.2402076E+02  0.7546771E-02  0.1480063E+00
          2   -1    0    0  501    0  0.00000000000E+00  0.00000000000E+00  0.16207960888E+03  0.16207960888E+03  0.00000000000E+00 0. -1.
          2   -1    0    0  502    0 -0.00000000000E+00 -0.00000000000E+00 -0.76718097808E+01  0.76718097808E+01  0.00000000000E+00 0.  1.
          2    1    1    2  501    0  0.51093772297E+01 -0.23471068640E+02  0.15066487028E+02  0.28354820228E+02  0.00000000000E+00 0.  1.
          2    1    1    2  502    0 -0.51093772297E+01  0.23471068640E+02  0.13934131207E+03  0.14139659844E+03  0.00000000000E+00 0. -1.
</event>
<event>
 4    1  0.6651744E+003  0.2524610E+02  0.7546771E-02  0.1466069E+00
          2   -1    0    0  502    0  0.00000000000E+00  0.00000000000E+00  0.60337686877E+03  0.60337686877E+03  0.00000000000E+00 0.  1.
          2   -1    0    0  501    0 -0.00000000000E+00 -0.00000000000E+00 -0.21484782507E+01  0.21484782507E+01  0.00000000000E+00 0.  1.
          2    1    1    2  501    0  0.10155273711E+02 -0.23113549619E+02  0.51647680657E+03  0.51709347074E+03  0.00000000000E+00 0.  1.
          2    1    1    2  502    0 -0.10155273711E+02  0.23113549619E+02  0.84751583952E+02  0.88431876280E+02  0.00000000000E+00 0.  1.
</event>
<event>
 4    1  0.6651744E+003  0.2177618E+02  0.7546771E-02  0.1508465E+00
          2   -1    0    0  501    0  0.00000000000E+00  0.00000000000E+00  0.15421058162E+04  0.15421058162E+04  0.00000000000E+00 0.  1.
          2   -1    0    0  502    0 -0.00000000000E+00 -0.00000000000E+00 -0.60657930931E+00  0.60657930931E+00  0.00000000000E+00 0.  1.
          2    1    1    2  501    0 -0.17509457309E+02 -0.12946847426E+02  0.22912015240E+03  0.23015265845E+03  0.00000000000E+00 0.  1.
          2    1    1    2  502    0  0.17509457309E+02  0.12946847426E+02  0.13123790845E+04  0.13125597371E+04  0.00000000000E+00 0.  1.
</event>
<event>
 4    1  0.6651744E+003  0.2454883E+02  0.7546771E-02  0.1473914E+00
          2   -1    0    0  502    0  0.00000000000E+00  0.00000000000E+00  0.32590572908E+02  0.32590572908E+02  0.00000000000E+00 0. -1.
          2   -1    0    0  501    0 -0.00000000000E+00 -0.00000000000E+00 -0.70687867756E+03  0.70687867756E+03  0.00000000000E+00 0.  1.
          2    1    1    2  501    0 -0.41895092072E+01  0.24188698309E+02  0.27722541572E+02  0.37029507483E+02  0.00000000000E+00 0. -1.
          2    1    1    2  502    0  0.41895092072E+01 -0.24188698309E+02 -0.70201064622E+03  0.70243974298E+03  0.00000000000E+00 0.  1.
</event>
<event>
 4    1  0.6651744E+003  0.2809209E+02  0.7546771E-02  0.1436936E+00
          2   -1    0    0  501    0  0.00000000000E+00  0.00000000000E+00  0.13215280296E+01  0.13215280296E+01  0.00000000000E+00 0.  1.
          2   -1    0    0  502    0 -0.00000000000E+00 -0.00000000000E+00 -0.11638900265E+04  0.11638900265E+04  0.00000000000E+00 0. -1.
          2    1    1    2  501    0  0.72486439539E+01  0.27140791311E+02 -0.98782719353E+03  0.98822655787E+03  0.00000000000E+00 0. -1.
          2    1    1    2  502    0 -0.72486439539E+01 -0.27140791311E+02 -0.17474130496E+03  0.17698499669E+03  0.00000000000E+00 0.  1.
</event>
<event>
 4    1  0.6651744E+003  0.4275438E+02  0.7546771E-02  0.1333060E+00
          2   -1    0    0  502    0  0.00000000000E+00  0.00000000000E+00  0.53703868813E+01  0.53703868813E+01  0.00000000000E+00 0. -1.
          2   -1    0    0  501    0 -0.00000000000E+00 -0.00000000000E+00 -0.68194420139E+03  0.68194420139E+03  0.00000000000E+00 0.  1.
          2    1    1    2  501    0  0.21322382118E+02 -0.37057973670E+02 -0.95071294566E+02  0.10424245029E+03  0.00000000000E+00 0. -1.
          2    1    1    2  502    0 -0.21322382118E+02  0.37057973670E+02 -0.58150251994E+03  0.58307213798E+03  0.00000000000E+00 0.  1.
</event>
<event>
 4    1  0.6651744E+003  0.3458892E+02  0.7546771E-02  0.1383476E+00
          2   -1    0    0  502    0  0.00000000000E+00  0.00000000000E+00  0.21279227496E+03  0.21279227496E+03  0.00000000000E+00 0.  1.
          2   -1    0    0  501    0 -0.00000000000E+00 -0.00000000000E+00 -0.60106484369E+02  0.60106484369E+02  0.00000000000E+00 0.  1.
          2    1    1    2  501    0  0.34586672302E+02  0.39401247256E+00  0.20625389370E+03  0.20913407617E+03  0.00000000000E+00 0.  1.
          2    1    1    2  502    0 -0.34586672302E+02 -0.39401247256E+00 -0.53568103116E+02  0.63764683158E+02  0.00000000000E+00 0.  1.
</event>
<event>
 4    1  0.6651744E+003  0.3964347E+02  0.7546771E-02  0.1350588E+00
          2   -1    0    0  502    0  0.00000000000E+00  0.00000000000E+00  0.18081294203E+03  0.18081294203E+03  0.00000000000E+00 0.  1.
          2   -1    0    0  501    0 -0.00000000000E+00 -0.00000000000E+00 -0.88030508427E+02  0.88030508427E+02  0.00000000000E+00 0. -1.
          2    1    1    2  501    0  0.39310069254E+02 -0.51306066218E+01  0.17400429952E+03  0.17846316404E+03  0.00000000000E+00 0.  1.
          2    1    1    2  502    0 -0.39310069254E+02  0.51306066218E+01 -0.81221865917E+02  0.90380286413E+02  0.00000000000E+00 0. -1.
</event>
<event>
 4    1  0.6651744E+003  0.3512926E+02  0.7546771E-02  0.1379657E+00
          2   -1    0    0  501    0  0.00000000000E+00  0.00000000000E+00  0.40298607434E+02  0.40298607434E+02  0.00000000000E+00 0.  1.
          2   -1    0    0  502    0 -0.00000000000E+00 -0.00000000000E+00 -0.32555836924E+02  0.32555836924E+02  0.00000000000E+00 0. -1.
          2    1    1    2  501    0 -0.26961466017E+00 -0.35128227923E+02 -0.50044024342E+01  0.35483927809E+02  0.00000000000E+00 0. -1.
          2    1    1    2  502    0  0.26961466017E+00  0.35128227923E+02  0.12747172945E+02  0.37370516549E+02  0.00000000000E+00 0.  1.
</event>
<event>
 4    1  0.6651744E+003  0.2675435E+02  0.7546771E-02  0.1450091E+00
          2   -1    0    0  501    0  0.00000000000E+00  0.00000000000E+00  0.16047835457E+04  0.16047835457E+04  0.00000000000E+00 0. -1.
          2   -1    0    0  502    0 -0.00000000000E+00 -0.00000000000E+00 -0.33524123566E+01  0.33524123566E+01  0.00000000000E+00 0.  1.
          2    1    1    2  501    0  0.21460767116E+02 -0.15975937786E+02  0.52046660743E+02  0.58520509293E+02  0.00000000000E+00 0.  1.
          2    1    1    2  502    0 -0.21460767116E+02  0.15975937786E+02  0.15493844726E+04  0.15496154488E+04  0.00000000000E+00 0. -1.
</event>
<event>
 4    1  0.6651744E+003  0.2352711E+02  0.7546771E-02  0.1485983E+00
          2   -1    0    0  502    0  0.00000000000E+00  0.00000000000E+00  0.31998350582E+03  0.31998350582E+03  0.00000000000E+00 0. -1.
          2   -1    0    0  501    0 -0.00000000000E+00 -0.00000000000E+00 -0.52774834755E+01  0.52774834755E+01  0.00000000000E+00 0. -1.
          2    1    1    2  501    0  0.15090141591E+02 -0.18050281701E+02  0.29069213980E+03  0.29164266694E+03  0.00000000000E+00 0. -1.
          2    1    1    2  502    0 -0.15090141591E+02  0.18050281701E+02  0.24013882548E+02  0.33618322352E+02  0.00000000000E+00 0. -1.
</event>
<event>
 4    1  0.6651744E+003  0.2921576E+02  0.7546771E-02  0.1426536E+00
          2   -1    0    0  502    0  0.00000000000E+00  0.00000000000E+00  0.19567537760E+04  0.19567537760E+04  0.00000000000E+00 0.  1.
          2   -1    0    0  501    0 -0.00000000000E+00 -0.00000000000E+00 -0.54245760056E+01  0.54245760056E+01  0.00000000000E+00 0.  1.
          2    1    1    2  501    0  0.26621868266E+02  0.12034807204E+02  0.19164804637E+04  0.19167031403E+04  0.00000000000E+00 0.  1.
          2    1    1    2  502    0 -0.26621868266E+02 -0.12034807204E+02  0.34848736290E+02  0.45475211658E+02  0.00000000000E+00 0.  1.
</event>
<event>
 4    1  0.6651744E+003  0.2259707E+02  0.7546771E-02  0.1497621E+00
          2   -1    0    0  501    0  0.00000000000E+00  0.00000000000E+00  0.17274622697E+03  0.17274622697E+03  0.00000000000E+00 0.  1.
          2   -1    0    0  502    0 -0.00000000000E+00 -0.00000000000E+00 -0.39165709608E+01  0.39165709608E+01  0.00000000000E+00 0.  1.
          2    1    1    2  501    0 -0.92414351256E+00  0.22578165001E+02  0.40668633872E+02  0.46524889652E+02  0.00000000000E+00 0.  1.
          2    1    1    2  502    0  0.92414351256E+00 -0.22578165001E+02  0.12816102213E+03  0.13013790828E+03  0.00000000000E+00 0.  1.
</event>
<event>
 4    1  0.6651744E+003  0.2661724E+02  0.7546771E-02  0.1451491E+00
          2   -1    0    0  502    0  0.00000000000E+00  0.00000000000E+00  0.55090767960E+02  0.55090767960E+02  0.00000000000E+00 0. -1.
          2   -1    0    0  501    0 -0.00000000000E+00 -0.00000000000E+00 -0.28343789558E+03  0.28343789558E+03  0.00000000000E+00 0.  1.
          2    1    1    2  501    0  0.14354556320E+02 -0.22414815969E+02  0.51206252607E+02  0.57710983080E+02  0.00000000000E+00 0. -1.
          2    1    1    2  502    0 -0.14354556320E+02  0.22414815969E+02 -0.27955338023E+03  0.28081768046E+03  0.00000000000E+00 0.  1.
</event>
<event>
 4    1  0.6651744E+003  0.2848676E+02  0.7546771E-02  0.1433219E+00
          2   -1    0    0  502    0  0.00000000000E+00  0.00000000000E+00  0.24382911243E+01  0.24382911243E+01  0.00000000000E+00 0.  1.
          2   -1    0    0  501    0 -0.00000000000E+00 -0.00000000000E+00 -0.20212217462E+04  0.20212217462E+04  0.00000000000E+00 0. -1.
          2    1    1    2  501    0  0.26497666830E+02 -0.10457983926E+02 -0.84609800912E+02  0.89276616118E+02  0.00000000000E+00 0.  1.
          2    1    1    2  502    0 -0.26497666830E+02  0.10457983926E+02 -0.19341736541E+04  0.19343834212E+04  0.00000000000E+00 0. -1.
</event>
<event>
 4    1  0.6651744E+003  0.2116798E+02  0.7546771E-02  0.1516880E+00
          2   -1    0    0  502    0  0.00000000000E+00  0.00000000000E+00  0.15174405823E+03  0.15174405823E+03  0.00000000000E+00 0.  1.
          2   -1    0    0  501    0 -0.00000000000E+00 -0.00000000000E+00 -0.25829300663E+02  0.25829300663E+02  0.00000000000E+00 0. -1.
          2    1    1    2  501    0  0.19156610351E+02  0.90059832059E+01  0.14651487845E+03  0.14803612080E+03  0.00000000000E+00 0.  1.
          2    1    1    2  502    0 -0.19156610351E+02 -0.90059832059E+01 -0.20600120886E+02  0.29537238093E+02  0.00000000000E+00 0. -1.
</event>
<event>
 4    1  0.6651744E+003  0.2371056E+02  0.7546771E-02  0.1483763E+00
          2   -1    0    0  502    0  0.00000000000E+00  0.00000000000E+00  0.27739451690E+03  0.27739451690E+03  0.00000000000E+00 0. -1.
          2   -1    0    0  501    0 -0.00000000000E+00 -0.00000000000E+00 -0.38240373636E+01  0.38240373636E+01  0.00000000000E+00 0.  1.
          2    1    1    2  501    0 -0.23500850881E+02  0.31465133736E+01  0.23318364741E+03  0.23438601485E+03  0.00000000000E+00 0. -1.
          2    1    1    2  502    0  0.23500850881E+02 -0.31465133736E+01  0.40386832123E+02  0.46832539409E+02  0.00000000000E+00 0.  1.
</event>
<event>
 4    1  0.6651744E+003  0.2600499E+02  0.7546771E-02  0.1457868E+00
          2   -1    0    0  501    0  0.00000000000E+00  0.00000000000E+00  0.35650762939E+01  0.35650762939E+01  0.00000000000E+00 0. -1.
          2   -1    0    0  502    0 -0.00000000000E+00 -0.00000000000E+00 -0.20784940276E+03  0.20784940276E+03  0.00000000000E+00 0.  1.
          2    1    1    2  501    0 -0.12082291761E+02  0.23027761764E+02 -0.13338714220E+03  0.13589845212E+03  0.00000000000E+00 0.  1.
          2    1    1    2  502    0  0.12082291761E+02 -0.23027761764E+02 -0.70897184271E+02  0.75516026933E+02  0.00000000000E+00 0. -1.
</event>
<event>
 4    1  0.6651744E+003  0.2495028E+02  0.7546771E-02  0.1469360E+00
          2   -1    0    0  501    0  0.00000000000E+00  0.00000000000E+00  0.45091416850E+00  0.45091416850E+00  0.00000000000E+00 0.  1.
          2   -1    0    0  502    0 -0.00000000000E+00 -0.00000000000E+00 -0.15883520767E+04  0.15883520767E+04  0.00000000000E+00 0.  1.
          2    1    1    2  501    0  0.15559616928E+02 -0.19504219440E+02 -0.10812773446E+04  0.10815651678E+04  0.00000000000E+00 0.  1.
          2    1    1    2  502    0 -0.15559616928E+02  0.19504219440E+02 -0.50662381793E+03  0.50723782307E+03  0.00000000000E+00 0.  1.
</event>
<event>
 4    1  0.6651744E+003  0.2187627E+02  0.7546771E-02  0.1507112E+00
          2   -1    0    0  501    0  0.00000000000E+00  0.00000000000E+00  0.16138735543E+02  0.16138735543E+02  0.00000000000E+00 0.  1.
          2   -1    0    0  502    0 -0.00000000000E+00 -0.00000000000E+00 -0.10882738464E+03  0.10882738464E+03  0.00000000000E+00 0.  1.
          2    1    1    2  501    0  0.21707473304E+02  0.27123808771E+01 -0.99639013470E+02  0.10201227579E+03  0.00000000000E+00 0.  1.
          2    1    1    2  502    0 -0.21707473304E+02 -0.27123808771E+01  0.69503643749E+01  0.22953844389E+02  0.00000000000E+00 0.  1.
</event>
<event>
 4    1  0.6651744E+003  0.2041808E+02  0.7546771E-02  0.1527738E+00
          2   -1    0    0  501    0  0.00000000000E+00  0.00000000000E+00  0.36876972535E+03  0.36876972535E+03  0.00000000000E+00 0.  1.
          2   -1    0    0  502    0 -0.00000000000E+00 -0.00000000000E+00 -0.11348218215E+01  0.11348218215E+01  0.00000000000E+00 0.  1.
          2    1    1    2  501    0  0.20413036233E+02  0.45390988527E+00  0.19521722326E+03  0.19628209888E+03  0.00000000000E+00 0.  1.
          2    1    1    2  502    0 -0.20413036233E+02 -0.45390988527E+00  0.17241768027E+03  0.17362244829E+03  0.00000000000E+00 0.  1.
</event>
<event>
 4    1  0.6651744E+003  0.2194206E+02  0.7546771E-02  0.1506228E+00
          2   -1    0    0  502    0  0.00000000000E+00  0.00000000000E+00  0.61228961841E+03  0.61228961841E+03  0.00000000000E+00 0. -1.
          2   -1    0    0  501    0 -0.00000000000E+00 -0.00000000000E+00 -0.95621482584E+02  0.95621482584E+02  0.00000000000E+00 0.  1.
          2    1    1    2  501    0 -0.18520760090E+02  0.11765865609E+02  0.61083128479E+03  0.61122525523E+03  0.00000000000E+00 0. -1.
          2    1    1    2  502    0  0.18520760090E+02 -0.11765865609E+02 -0.94163148967E+02  0.96685845765E+02  0.00000000000E+00 0.  1.
</event>
<event>
 4    1  0.6651744E+003  0.3722022E+02  0.7546771E-02  0.1365593E+00
          2   -1    0    0  501    0  0.00000000000E+00  0.00000000000E+00  0.99239333348E+01  0.99239333348E+01  0.00000000000E+00 0.  1.
          2   -1    0    0  502    0 -0.00000000000E+00 -0.00000000000E+00 -0.90337879128E+03  0.90337879128E+03  0.00000000000E+00 0. -1.
          2    1    1    2  501    0 -0.33325124220E+02 -0.16576506181E+02 -0.86661658540E+03  0.86741550052E+03  0.00000000000E+00 0. -1.
          2    1    1    2  502    0  0.33325124220E+02  0.16576506181E+02 -0.26838272547E+02  0.45887224091E+02  0.00000000000E+00 0.  1.
</event>
<event>
 4    1  0.6651744E+003  0.3245537E+02  0.7546771E-02  0.1399393E+00
          2   -1    0    0  501    0  0.00000000000E+00  0.00000000000E+00  0.17871325731E+03  0.17871325731E+03  0.00000000000E+00 0. -1.
          2   -1    0    0  502    0 -0.00000000000E+00 -0.00000000000E+00 -0.15330656912E+03  0.15330656912E+03  0.00000000000E+00 0.  1.
          2    1    1    2  501    0 -0.17111809707E+02 -0.27577837098E+02 -0.15008405060E+03  0.15355316139E+03  0.00000000000E+00 0.  1.
          2    1    1    2  502    0  0.17111809707E+02  0.27577837098E+02  0.17549073879E+03  0.17846666504E+03  0.00000000000E+00 0. -1.
</event>
<event>
 4    1  0.6651744E+003  0.4987360E+02  0.7546771E-02  0.1298721E+00
          2   -1    0    0  501    0  0.00000000000E+00  0.00000000000E+00  0.31288563729E+01  0.31288563729E+01  0.00000000000E+00 0.  1.
          2   -1    0    0  502    0 -0.00000000000E+00 -0.00000000000E+00 -0.33119266759E+04  0.33119266759E+04  0.00000000000E+00 0. -1.
          2    1    1    2  501    0 -0.49691397302E+02 -0.42591680904E+01 -0.30993646131E+04  0.30997658589E+04  0.00000000000E+00 0. -1.
          2    1    1    2  502    0  0.49691397302E+02  0.42591680904E+01 -0.20943320648E+03  0.21528967336E+03  0.00000000000E+00 0.  1.
</event>
<event>
 4    1  0.6651744E+003  0.3306688E+02  0.7546771E-02  0.1394688E+00
          2   -1    0    0  501    0  0.00000000000E+00  0.00000000000E+00  0.50833175099E+02  0.50833175099E+02  0.00000000000E+00 0.  1.
          2   -1    0    0  502    0 -0.00000000000E+00 -0.00000000000E+00 -0.20174317862E+03  0.20174317862E+03  0.00000000000E+00 0.  1.
          2    1    1    2  501    0 -0.15026198811E+02 -0.29455593710E+02 -0.19482101940E+03  0.19760730819E+03  0.00000000000E+00 0.  1.
          2    1    1    2  502    0  0.15026198811E+02  0.29455593710E+02  0.43911015874E+02  0.54969045531E+02  0.00000000000E+00 0.  1.
</event>
<event>
 4    1  0.6651744E+003  0.2736920E+02  0.7546771E-02  0.1443934E+00
          2   -1    0    0  501    0  0.00000000000E+00  0.00000000000E+00  0.16884837446E+03  0.16884837446E+03  0.00000000000E+00 0.  1.
          2   -1    0    0  502    0 -0.00000000000E+00 -0.00000000000E+00 -0.68206797895E+01  0.68206797895E+01  0.00000000000E+00 0.  1.
          2    1    1    2  501    0 -0.18324561044E+02 -0.20329380045E+02  0.29082078043E+02  0.39935454095E+02  0.00000000000E+00 0.  1.
          2    1    1    2  502    0  0.18324561044E+02  0.20329380045E+02  0.13294561663E+03  0.13573360015E+03  0.00000000000E+00 0.  1.
</event>
<event>
 4    1  0.6651744E+003  0.3387665E+02  0.7546771E-02  0.1388637E+00
          2   -1    0    0  501    0  0.00000000000E+00  0.00000000000E+00  0.30700174640E+02  0.30700174640E+02  0.00000000000E+00 0. -1.
          2   -1    0    0  502    0 -0.00000000000E+00 -0.00000000000E+00 -0.15127004675E+04  0.15127004675E+04  0.00000000000E+00 0. -1.
          2    1    1    2  501    0 -0.34792590223E+01  0.33697514497E+02 -0.15031057055E+04  0.15034874092E+04  0.00000000000E+00 0. -1.
          2    1    1    2  502    0  0.34792590223E+01 -0.33697514497E+02  0.21105412592E+02  0.39913232985E+02  0.00000000000E+00 0. -1.
</event>
<event>
 4    1  0.6651744E+003  0.2195490E+02  0.7546771E-02  0.1506056E+00
          2   -1    0    0  502    0  0.00000000000E+00  0.00000000000E+00  0.33034483037E+03  0.33034483037E+03  0.00000000000E+00 0. -1.
          2   -1    0    0  501    0 -0.00000000000E+00 -0.00000000000E+00 -0.46520557026E+03  0.46520557026E+03  0.00000000000E+00 0. -1.
          2    1    1    2  501    0 -0.55668241642E+01  0.21237418982E+02  0.32972052218E+03  0.33045066234E+03  0.00000000000E+00 0. -1.
          2    1    1    2  502    0  0.55668241642E+01 -0.21237418982E+02 -0.46458126207E+03  0.46509973830E+03  0.00000000000E+00 0. -1.
</event>
<event>
 4    1  0.6651744E+003  0.2787680E+02  0.7546771E-02  0.1438994E+00
          2   -1    0    0  502    0  0.00000000000E+00  0.00000000000E+00  0.41474251523E+01  0.41474251523E+01  0.00000000000E+00 0.  1.
          2   -1    0    0  501    0 -0.00000000000E+00 -0.00000000000E+00 -0.12443659266E+04  0.12443659266E+04  0.00000000000E+00 0. -1.
          2    1    1    2  501    0  0.15551203639E+02  0.23136035230E+02 -0.44768477751E+02  0.52738341470E+02  0.00000000000E+00 0.  1.
          2    1    1    2  502    0 -0.15551203639E+02 -0.23136035230E+02 -0.11954500236E+04  0.11957750102E+04  0.00000000000E+00 0. -1.
</event>
<event>
 4    1  0.7700664E+003  0.2081518E+02  0.7546771E-02  0.1521920E+00
          2   -1    0    0  501    0  0.00000000000E+00  0.00000000000E+00  0.97001774505E+03  0.97001774505E+03  0.00000000000E+00 0. -1.
          2   -1    0    0  502    0 -0.00000000000E+00 -0.00000000000E+00 -0.41414838778E+03  0.41414838778E+03  0.00000000000E+00 0.  1.
          2    1    1    2  501    0  0.71561365899E+01  0.19546394602E+02 -0.41377507731E+03  0.41429830609E+03  0.00000000000E+00 0.  1.
          2    1    1    2  502    0 -0.71561365899E+01 -0.19546394602E+02  0.96964443458E+03  0.96986782674E+03  0.00000000000E+00 0. -1.
</event>
<event>
 4    1  0.6651744E+003  0.2790425E+02  0.7546771E-02  0.1438730E+00
          2   -1    0    0  501    0  0.00000000000E+00  0.00000000000E+00  0.34541821024E+03  0.34541821024E+03  0.00000000000E+00 0. -1.
          2   -1    0    0  502    0 -0.00000000000E+00 -0.00000000000E+00 -0.10703567895E+04  0.10703567895E+04  0.00000000000E+00 0. -1.
          2    1    1    2  501    0 -0.27020460978E+02 -0.69672012147E+01 -0.10696109764E+04  0.10699749006E+04  0.00000000000E+00 0. -1.
          2    1    1    2  502    0  0.27020460978E+02  0.69672012147E+01  0.34467239712E+03  0.34580009910E+03  0.00000000000E+00 0. -1.
</event>
<event>
 4    1  0.6651744E+003  0.2278654E+02  0.7546771E-02  0.1495196E+00
          2   -1    0    0  502    0  0.00000000000E+00  0.00000000000E+00  0.17702511327E+04  0.17702511327E+04  0.00000000000E+00 0.  1.
          2   -1    0    0  501    0 -0.00000000000E+00 -0.00000000000E+00 -0.10446323313E+01  0.10446323313E+01  0.00000000000E+00 0.  1.
          2    1    1    2  501    0 -0.67640426516E+01  0.21759463866E+02  0.16356958028E+04  0.16358545125E+04  0.00000000000E+00 0.  1.
          2    1    1    2  502    0  0.67640426516E+01 -0.21759463866E+02  0.13351069753E+03  0.13544125256E+03  0.00000000000E+00 0.  1.
</event>
<event>
 4    1  0.6651744E+003  0.2367300E+02  0.7546771E-02  0.1484216E+00
          2   -1    0    0  501    0  0.00000000000E+00  0.00000000000E+00  0.13171248660E+04  0.13171248660E+04  0.00000000000E+00 0. -1.
          2   -1    0    0  502    0 -0.00000000000E+00 -0.00000000000E+00 -0.63376379718E+01  0.63376379718E+01  0.00000000000E+00 0. -1.
          2    1    1    2  501    0  0.20847113093E+02 -0.11216452148E+02  0.16261073709E+02  0.28719913671E+02  0.00000000000E+00 0. -1.
          2    1    1    2  502    0 -0.20847113093E+02  0.11216452148E+02  0.12945261543E+04  0.12947425903E+04  0.00000000000E+00 0. -1.
</event>
<event>
 4    1  0.6651744E+003  0.2498697E+02  0.7546771E-02  0.1468949E+00
          2   -1    0    0  502    0  0.00000000000E+00  0.00000000000E+00  0.65462581730E+03  0.65462581730E+03  0.00000000000E+00 0.  1.
          2   -1    0    0  501    0 -0.00000000000E+00 -0.00000000000E+00 -0.37447017222E+01  0.37447017222E+01  0.00000000000E+00 0. -1.
          2    1    1    2  501    0  0.15587701583E+02  0.19528752720E+02  0.60963004985E+03  0.61014190669E+03  0.00000000000E+00 0.  1.
          2    1    1    2  502    0 -0.15587701583E+02 -0.19528752720E+02  0.41251065724E+02  0.48228612325E+02  0.00000000000E+00 0. -1.
</event>
<event>
 4    1  0.6651744E+003  0.4974471E+02  0.7546771E-02  0.1299283E+00
          2   -1    0    0  501    0  0.00000000000E+00  0.00000000000E+00  0.41740172786E+03  0.41740172786E+03  0.00000000000E+00 0.  1.
          2   -1    0    0  502    0 -0.00000000000E+00 -0.00000000000E+00 -0.44649506342E+02  0.44649506342E+02  0.00000000000E+00 0. -1.
          2    1    1    2  501    0 -0.49738010496E+02  0.81609790835E+00 -0.28766054467E+02  0.57463219484E+02  0.00000000000E+00 0. -1.
          2    1    1    2  502    0  0.49738010496E+02 -0.81609790835E+00  0.40151827599E+03  0.40458801472E+03  0.00000000000E+00 0.  1.
</event>
<event>
 4    1  0.6651744E+003  0.2157651E+02  0.7546771E-02  0.1511191E+00
          2   -1    0    0  501    0  0.00000000000E+00  0.00000000000E+00  0.15461528763E+03  0.15461528763E+03  0.00000000000E+00 0. -1.
          2   -1    0    0  502    0 -0.00000000000E+00 -0.00000000000E+00 -0.17246907643E+03  0.17246907643E+03  0.00000000000E+00 0. -1.
          2    1    1    2  501    0 -0.66542610800E+01 -0.20524782474E+02 -0.17103521678E+03  0.17239080969E+03  0.00000000000E+00 0. -1.
          2    1    1    2  502    0  0.66542610800E+01  0.20524782474E+02  0.15318142798E+03  0.15469355437E+03  0.00000000000E+00 0. -1.
</event>
<event>
 4    1  0.6651744E+003  0.4936068E+02  0.7546771E-02  0.1300968E+00
          2   -1    0    0  502    0  0.00000000000E+00  0.00000000000E+00  0.17498296525E+02  0.17498296525E+02  0.00000000000E+00 0.  1.
          2   -1    0    0  501    0 -0.00000000000E+00 -0.00000000000E+00 -0.48603373432E+03  0.48603373432E+03  0.00000000000E+00 0.  1.
          2    1    1    2  501    0  0.13451378426E+02 -0.47492499265E+02 -0.21601254624E+02  0.53880342142E+02  0.00000000000E+00 0.  1.
          2    1    1    2  502    0 -0.13451378426E+02  0.47492499265E+02 -0.44693418317E+03  0.44965168870E+03  0.00000000000E+00 0.  1.
</event>
<event>
 4    1  0.6651744E+003  0.3337370E+02  0.7546771E-02  0.1392372E+00
          2   -1    0    0  502    0  0.00000000000E+00  0.00000000000E+00  0.22882599974E+02  0.22882599974E+02  0.00000000000E+00 0.  1.
          2   -1    0    0  501    0 -0.00000000000E+00 -0.00000000000E+00 -0.17991320968E+03  0.17991320968E+03  0.00000000000E+00 0.  1.
          2    1    1    2  501    0  0.33350880098E+02  0.12338462888E+01  0.80867323621E+01  0.34339464473E+02  0.00000000000E+00 0.  1.
          2    1    1    2  502    0 -0.33350880098E+02 -0.12338462888E+01 -0.16511734207E+03  0.16845634518E+03  0.00000000000E+00 0.  1.
</event>
<event>
 4    1  0.6651744E+003  0.6748905E+02  0.7546771E-02  0.1236311E+00
          2   -1    0    0  502    0  0.00000000000E+00  0.00000000000E+00  0.52047859675E+02  0.52047859675E+02  0.00000000000E+00 0. -1.
          2   -1    0    0  501    0 -0.00000000000E+00 -0.00000000000E+00 -0.90419155861E+02  0.90419155861E+02  0.00000000000E+00 0. -1.
          2    1    1    2  501    0  0.93087000584E+00 -0.67482628376E+02 -0.64110693966E+01  0.67792871766E+02  0.00000000000E+00 0. -1.
          2    1    1    2  502    0 -0.93087000584E+00  0.67482628376E+02 -0.31960226789E+02  0.74674143771E+02  0.00000000000E+00 0. -1.
</event>
<event>
 4    1  0.6651744E+003  0.2108016E+02  0.7546771E-02  0.1518123E+00
          2   -1    0    0  502    0  0.00000000000E+00  0.00000000000E+00  0.16977598913E+03  0.16977598913E+03  0.00000000000E+00 0.  1.
          2   -1    0    0  501    0 -0.00000000000E+00 -0.00000000000E+00 -0.78096189546E+02  0.78096189546E+02  0.00000000000E+00 0. -1.
          2    1    1    2  501    0 -0.59253357902E+01 -0.20230259406E+02  0.16768141945E+03  0.16900127641E+03  0.00000000000E+00 0.  1.
          2    1    1    2  502    0  0.59253357902E+01  0.20230259406E+02 -0.76001619872E+02  0.78870902258E+02  0.00000000000E+00 0. -1.
</event>
<event>
 4    1  0.6651744E+003  0.2801465E+02  0.7546771E-02  0.1437674E+00
          2   -1    0    0  502    0  0.00000000000E+00  0.00000000000E+00  0.17679244019E+01  0.17679244019E+01  0.00000000000E+00 0.  1.
          2   -1    0    0  501    0 -0.00000000000E+00 -0.00000000000E+00 -0.51202266871E+03  0.51202266871E+03  0.00000000000E+00 0.  1.
          2    1    1    2  501    0  0.27516789757E+02 -0.52580150634E+01 -0.34881611658E+03  0.34993928563E+03  0.00000000000E+00 0.  1.
          2    1    1    2  502    0 -0.27516789757E+02  0.52580150634E+01 -0.16143862773E+03  0.16385130748E+03  0.00000000000E+00 0.  1.
</event>
<event>
 4    1  0.6651744E+003  0.3526577E+02  0.7546771E-02  0.1378704E+00
          2   -1    0    0  501    0  0.00000000000E+00  0.00000000000E+00  0.13410419332E+04  0.13410419332E+04  0.00000000000E+00 0. -1.
          2   -1    0    0  502    0 -0.00000000000E+00 -0.00000000000E+00 -0.32815475775E+01  0.32815475775E+01  0.00000000000E+00 0. -1.
          2    1    1    2  501    0  0.28806376704E+02  0.20343729596E+02  0.99566273417E+02  0.10562725725E+03  0.00000000000E+00 0. -1.
          2    1    1    2  502    0 -0.28806376704E+02 -0.20343729596E+02  0.12381941122E+04  0.12386962235E+04  0.00000000000E+00 0. -1.
</event>
<event>
 4    1  0.6651744E+003  0.2150696E+02  0.7546771E-02  0.1512148E+00
          2   -1    0    0  502    0  0.00000000000E+00  0.00000000000E+00  0.47522939057E+03  0.47522939057E+03  0.00000000000E+00 0. -1.
          2   -1    0    0  501    0 -0.00000000000E+00 -0.00000000000E+00 -0.10458520058E+02  0.10458520058E+02  0.00000000000E+00 0. -1.
          2    1    1    2  501    0 -0.21359568616E+02  0.25135728944E+01  0.46365340043E+03  0.46415194166E+03  0.00000000000E+00 0. -1.
          2    1    1    2  502    0  0.21359568616E+02 -0.25135728944E+01  0.11174700893E+01  0.21535968972E+02  0.00000000000E+00 0. -1.
</event>
<event>
 4    1  0.6651744E+003  0.2116565E+02  0.7546771E-02  0.1516913E+00
          2   -1    0    0  501    0  0.00000000000E+00  0.00000000000E+00  0.29146690876E+02  0.29146690876E+02  0.00000000000E+00 0.  1.
          2   -1    0    0  502    0 -0.00000000000E+00 -0.00000000000E+00 -0.48913142356E+02  0.48913142356E+02  0.00000000000E+00 0. -1.
          2    1    1    2  501    0  0.21123344219E+02  0.13375403023E+01 -0.42204368216E+02  0.47214334492E+02  0.00000000000E+00 0. -1.
          2    1    1    2  502    0 -0.21123344219E+02 -0.13375403023E+01  0.22437916736E+02  0.30845498740E+02  0.00000000000E+00 0.  1.
</event>
<event>
 4    1  0.6651744E+003  0.2989388E+02  0.7546771E-02  0.1420521E+00
          2   -1    0    0  502    0  0.00000000000E+00  0.00000000000E+00  0.79263768066E+03  0.79263768066E+03  0.00000000000E+00 0. -1.
          2   -1    0    0  501    0 -0.00000000000E+00 -0.00000000000E+00 -0.19277684541E+03  0.19277684541E+03  0.00000000000E+00 0.  1.
          2    1    1    2  501    0  0.26837315896E+02  0.13168237501E+02  0.79119480035E+03  0.79175934229E+03  0.00000000000E+00 0. -1.
          2    1    1    2  502    0 -0.26837315896E+02 -0.13168237501E+02 -0.19133396510E+03  0.19365518378E+03  0.00000000000E+00 0.  1.
</event>
<event>
 4    1  0.6651744E+003  0.4687168E+02  0.7546771E-02  0.1312337E+00
          2   -1    0    0  501    0  0.00000000000E+00  0.00000000000E+00  0.37934341245E+03  0.37934341245E+03  0.00000000000E+00 0.  1.
          2   -1    0    0  502    0 -0.00000000000E+00 -0.00000000000E+00 -0.76777719338E+03  0.76777719338E+03  0.00000000000E+00 0. -1.
          2    1    1    2  501    0 -0.44055406537E+02  0.16002375092E+02 -0.76560986966E+03  0.76704330215E+03  0.00000000000E+00 0. -1.
          2    1    1    2  502    0  0.44055406537E+02 -0.16002375092E+02  0.37717608873E+03  0.38007730367E+03  0.00000000000E+00 0.  1.
</event>
<event>
 4    1  0.6651744E+003  0.3056991E+02  0.7546771E-02  0.1414707E+00
          2   -1    0    0  501    0  0.00000000000E+00  0.00000000000E+00  0.10425343726E+03  0.10425343726E+03  0.00000000000E+00 0. -1.
          2   -1    0    0  502    0 -0.00000000000E+00 -0.00000000000E+00 -0.17541645900E+02  0.17541645900E+02  0.00000000000E+00 0. -1.
          2    1    1    2  501    0 -0.48615905974E+01  0.30180859869E+02  0.77147941318E+00  0.30579642673E+02  0.00000000000E+00 0. -1.
          2    1    1    2  502    0  0.48615905974E+01 -0.30180859869E+02  0.85940311950E+02  0.91215440489E+02  0.00000000000E+00 0. -1.
</event>
<event>
 4    1  0.6651744E+003  0.4020908E+02  0.7546771E-02  0.1347265E+00
          2   -1    0    0  501    0  0.00000000000E+00  0.00000000000E+00  0.55386670830E+01  0.55386670830E+01  0.00000000000E+00 0.  1.
          2   -1    0    0  502    0 -0.00000000000E+00 -0.00000000000E+00 -0.11641309326E+04  0.11641309326E+04  0.00000000000E+00 0. -1.
          2    1    1    2  501    0 -0.40189182913E+02  0.12648508124E+01 -0.10855245671E+04  0.10862690072E+04  0.00000000000E+00 0. -1.
          2    1    1    2  502    0  0.40189182913E+02 -0.12648508124E+01 -0.73067698400E+02  0.83400592446E+02  0.00000000000E+00 0.  1.
</event>
<event>
 4    1  0.6651744E+003  0.2228182E+02  0.7546771E-02  0.1501719E+00
          2   -1    0    0  502    0  0.00000000000E+00  0.00000000000E+00  0.66452712029E+00  0.66452712029E+00  0.00000000000E+00 0.  1.
          2   -1    0    0  501    0 -0.00000000000E+00 -0.00000000000E+00 -0.81231790147E+03  0.81231790147E+03  0.00000000000E+00 0. -1.
          2    1    1    2  501    0 -0.21835191416E+02 -0.44388908265E+01 -0.29066293231E+03  0.29151572780E+03  0.00000000000E+00 0.  1.
          2    1    1    2  502    0  0.21835191416E+02  0.44388908265E+01 -0.52099044204E+03  0.52146670079E+03  0.00000000000E+00 0. -1.
</event>
<event>
 4    1  0.6651744E+003  0.2115656E+02  0.7546771E-02  0.1517041E+00
          2   -1    0    0  502    0  0.00000000000E+00  0.00000000000E+00  0.30647924491E+00  0.30647924491E+00  0.00000000000E+00 0. -1.
          2   -1    0    0  501    0 -0.00000000000E+00 -0.00000000000E+00 -0.16219632493E+04  0.16219632493E+04  0.00000000000E+00 0.  1.
          2    1    1    2  501    0  0.17673671235E+02  0.11629339428E+02 -0.55487237298E+03  0.55527556266E+03  0.00000000000E+00 0. -1.
          2    1    1    2  502    0 -0.17673671235E+02 -0.11629339428E+02 -0.10667843971E+04  0.10669941659E+04  0.00000000000E+00 0.  1.
</event>
<event>
 4    1  0.6651744E+003  0.6291628E+02  0.7546771E-02  0.1250233E+00
          2   -1    0    0  501    0  0.00000000000E+00  0.00000000000E+00  0.51416084855E+03  0.51416084855E+03  0.00000000000E+00 0.  1.
          2   -1    0    0  502    0 -0.00000000000E+00 -0.00000000000E+00 -0.36750966123E+03  0.36750966123E+03  0.00000000000E+00 0.  1.
          2    1    1    2  501    0 -0.19604703608E+02 -0.59783890315E+02 -0.36286774653E+03  0.36828176634E+03  0.00000000000E+00 0.  1.
          2    1    1    2  502    0  0.19604703608E+02  0.59783890315E+02  0.50951893385E+03  0.51338874344E+03  0.00000000000E+00 0.  1.
</event>
<event>
 4    1  0.6651744E+003  0.6612323E+02  0.7546771E-02  0.1240336E+00
          2   -1    0    0  502    0  0.00000000000E+00  0.00000000000E+00  0.20529498228E+03  0.20529498228E+03  0.00000000000E+00 0.  1.
          2   -1    0    0  501    0 -0.00000000000E+00 -0.00000000000E+00 -0.79916732921E+03  0.79916732921E+03  0.00000000000E+00 0. -1.
          2    1    1    2  501    0 -0.57008639234E+02  0.33500703554E+02  0.19855764053E+03  0.20927832830E+03  0.00000000000E+00 0.  1.
          2    1    1    2  502    0  0.57008639234E+02 -0.33500703554E+02 -0.79242998746E+03  0.79518398319E+03  0.00000000000E+00 0. -1.
</event>
<event>
 4    1  0.1029408E+004  0.2400951E+02  0.7546771E-02  0.1480196E+00
          2   -1    0    0  502    0  0.00000000000E+00  0.00000000000E+00  0.54883906885E+03  0.54883906885E+03  0.00000000000E+00 0.  1.
          2   -1    0    0  501    0 -0.00000000000E+00 -0.00000000000E+00 -0.88205345984E+03  0.88205345984E+03  0.00000000000E+00 0. -1.
          2    1    1    2  501    0  0.55775869286E+01  0.23352671650E+02  0.54841297706E+03  0.54893829358E+03  0.00000000000E+00 0.  1.
          2    1    1    2  502    0 -0.55775869286E+01 -0.23352671650E+02 -0.88162736805E+03  0.88195423512E+03  0.00000000000E+00 0. -1.
</event>
<event>
 4    1  0.6651744E+003  0.2303142E+02  0.7546771E-02  0.1492104E+00
          2   -1    0    0  501    0  0.00000000000E+00  0.00000000000E+00  0.30749643059E+01  0.30749643059E+01  0.00000000000E+00 0.  1.
          2   -1    0    0  502    0 -0.00000000000E+00 -0.00000000000E+00 -0.10104818120E+04  0.10104818120E+04  0.00000000000E+00 0. -1.
          2    1    1    2  501    0  0.22988530911E+02  0.14048453114E+01 -0.96520148882E+03  0.96547623491E+03  0.00000000000E+00 0. -1.
          2    1    1    2  502    0 -0.22988530911E+02 -0.14048453114E+01 -0.42205358871E+02  0.48080541399E+02  0.00000000000E+00 0.  1.
</event>
<event>
 4    1  0.6651744E+003  0.2090414E+02  0.7546771E-02  0.1520638E+00
          2   -1    0    0  501    0  0.00000000000E+00  0.00000000000E+00  0.48742697805E+02  0.48742697805E+02  0.00000000000E+00 0. -1.
          2   -1    0    0  502    0 -0.00000000000E+00 -0.00000000000E+00 -0.27845880566E+02  0.27845880566E+02  0.00000000000E+00 0.  1.
          2    1    1    2  501    0  0.18816746994E+02 -0.91056673820E+01 -0.21084462107E+02  0.29690700366E+02  0.00000000000E+00 0.  1.
          2    1    1    2  502    0 -0.18816746994E+02  0.91056673820E+01  0.41981279346E+02  0.46897878005E+02  0.00000000000E+00 0. -1.
</event>
<event>
 4    1  0.6651744E+003  0.3317393E+02  0.7546771E-02  0.1393876E+00
          2   -1    0    0  502    0  0.00000000000E+00  0.00000000000E+00  0.23328753616E+03  0.23328753616E+03  0.00000000000E+00 0. -1.
          2   -1    0    0  501    0 -0.00000000000E+00 -0.00000000000E+00 -0.13385915691E+04  0.13385915691E+04  0.00000000000E+00 0.  1.
          2    1    1    2  501    0  0.33153102701E+02 -0.11753336503E+01  0.23190142994E+03  0.23426220958E+03  0.00000000000E+00 0. -1.
          2    1    1    2  502    0 -0.33153102701E+02  0.11753336503E+01 -0.13372054628E+04  0.13376168956E+04  0.00000000000E+00 0.  1.
</event>
<event>
 4    1  0.6651744E+003  0.2499748E+02  0.7546771E-02  0.1468832E+00
          2   -1    0    0  501    0  0.00000000000E+00  0.00000000000E+00  0.22002402455E+03  0.22002402455E+03  0.00000000000E+00 0.  1.
          2   -1    0    0  502    0 -0.00000000000E+00 -0.00000000000E+00 -0.49149619879E+01  0.49149619879E+01  0.00000000000E+00 0.  1.
          2    1    1    2  501    0 -0.22956426178E+02 -0.98932485326E+01  0.34478147683E+02  0.42586576958E+02  0.00000000000E+00 0.  1.
          2    1    1    2  502    0  0.22956426178E+02  0.98932485326E+01  0.18063091488E+03  0.18235240958E+03  0.00000000000E+00 0.  1.
</event>
<event>
 4    1  0.6651744E+003  0.2239181E+02  0.7546771E-02  0.1500280E+00
          2   -1    0    0  502    0  0.00000000000E+00  0.00000000000E+00  0.11228400872E+03  0.11228400872E+03  0.00000000000E+00 0.  1.
          2   -1    0    0  501    0 -0.00000000000E+00 -0.00000000000E+00 -0.40286368377E+02  0.40286368377E+02  0.00000000000E+00 0. -1.
          2    1    1    2  501    0 -0.10458027416E+02  0.19799568131E+02  0.10793209183E+03  0.11023034828E+03  0.00000000000E+00 0.  1.
          2    1    1    2  502    0  0.10458027416E+02 -0.19799568131E+02 -0.35934451492E+02  0.42340028810E+02  0.00000000000E+00 0. -1.
</event>
<event>
 4    1  0.6651744E+003  0.2105480E+02  0.7546771E-02  0.1518484E+00
          2   -1    0    0  501    0  0.00000000000E+00  0.00000000000E+00  0.32571498201E+01  0.32571498201E+01  0.00000000000E+00 0.  1.
          2   -1    0    0  502    0 -0.00000000000E+00 -0.00000000000E+00 -0.43518606315E+03  0.43518606315E+03  0.00000000000E+00 0.  1.
          2    1    1    2  501    0 -0.15506361243E+02 -0.14242797493E+02 -0.39770110809E+03  0.39825805189E+03  0.00000000000E+00 0.  1.
          2    1    1    2  502    0  0.15506361243E+02  0.14242797493E+02 -0.34227805238E+02  0.40185161077E+02  0.00000000000E+00 0.  1.
</event>
<event>
 4    1  0.6651744E+003  0.2835394E+02  0.7546771E-02  0.1434462E+00
          2   -1    0    0  501    0  0.00000000000E+00  0.00000000000E+00  0.85560711357E+02  0.85560711357E+02  0.00000000000E+00 0.  1.
          2   -1    0    0  502    0 -0.00000000000E+00 -0.00000000000E+00 -0.11856537060E+02  0.11856537060E+02  0.00000000000E+00 0.  1.
          2    1    1    2  501    0  0.20786681892E+02 -0.19283660033E+02  0.14663783576E+02  0.31921344538E+02  0.00000000000E+00 0.  1.
          2    1    1    2  502    0 -0.20786681892E+02  0.19283660033E+02  0.59040390721E+02  0.65495903879E+02  0.00000000000E+00 0.  1.
</event>
<event>
 4    1  0.6651744E+003  0.2465653E+02  0.7546771E-02  0.1472683E+00
          2   -1    0    0  501    0  0.00000000000E+00  0.00000000000E+00  0.25373079517E+03  0.25373079517E+03  0.00000000000E+00 0.  1.
          2   -1    0    0  502    0 -0.00000000000E+00 -0.00000000000E+00 -0.27700427543E+03  0.27700427543E+03  0.00000000000E+00 0. -1.
          2    1    1    2  501    0  0.20595989019E+02 -0.13555428649E+02 -0.27585409967E+03  0.27695383860E+03  0.00000000000E+00 0. -1.
          2    1    1    2  502    0 -0.20595989019E+02  0.13555428649E+02  0.25258061941E+03  0.25378123199E+03  0.00000000000E+00 0.  1.
</event>
<event>
 4    1  0.6651744E+003  0.2144473E+02  0.7546771E-02  0.1513009E+00
          2   -1    0    0  502    0  0.00000000000E+00  0.00000000000E+00  0.61657370696E+01  0.61657370696E+01  0.00000000000E+00 0.  1.
          2   -1    0    0  501    0 -0.00000000000E+00 -0.00000000000E+00 -0.69819278765E+03  0.69819278765E+03  0.00000000000E+00 0.  1.
          2    1    1    2  501    0 -0.20084544810E+02  0.75158230782E+01 -0.13176539061E+02  0.25169380572E+02  0.00000000000E+00 0.  1.
          2    1    1    2  502    0  0.20084544810E+02 -0.75158230782E+01 -0.67885051152E+03  0.67918914415E+03  0.00000000000E+00 0.  1.
</event>
<event>
 4    1  0.6651744E+003  0.2072832E+02  0.7546771E-02  0.1523179E+00
          2   -1    0    0  502    0  0.00000000000E+00  0.00000000000E+00  0.13440635877E+04  0.13440635877E+04  0.00000000000E+00 0.  1.
          2   -1    0    0  501    0 -0.00000000000E+00 -0.00000000000E+00 -0.16515440235E+02  0.16515440235E+02  0.00000000000E+00 0.  1.
          2    1    1    2  501    0 -0.18209086027E+02 -0.99041674305E+01  0.13374475327E+04  0.13376081512E+04  0.00000000000E+00 0.  1.
          2    1    1    2  502    0  0.18209086027E+02  0.99041674305E+01 -0.98993853102E+01  0.22970876691E+02  0.00000000000E+00 0.  1.
</event>
<event>
 4    1  0.6651744E+003  0.3029788E+02  0.7546771E-02  0.1417025E+00
          2   -1    0    0  501    0  0.00000000000E+00  0.00000000000E+00  0.38396579164E+03  0.38396579164E+03  0.00000000000E+00 0. -1.
          2   -1    0    0  502    0 -0.00000000000E+00 -0.00000000000E+00 -0.64851202785E+03  0.64851202785E+03  0.00000000000E+00 0. -1.
          2    1    1    2  501    0 -0.23538634261E+02 -0.19076009200E+02 -0.64755959270E+03  0.64826799052E+03  0.00000000000E+00 0. -1.
          2    1    1    2  502    0  0.23538634261E+02  0.19076009200E+02  0.38301335649E+03  0.38420982897E+03  0.00000000000E+00 0. -1.
</event>
<event>
 4    1  0.6651744E+003  0.3710914E+02  0.7546771E-02  0.1366313E+00
          2   -1    0    0  501    0  0.00000000000E+00  0.00000000000E+00  0.11789332927E+03  0.11789332927E+03  0.00000000000E+00 0. -1.
          2   -1    0    0  502    0 -0.00000000000E+00 -0.00000000000E+00 -0.11875493881E+02  0.11875493881E+02  0.00000000000E+00 0. -1.
          2    1    1    2  501    0  0.16764409365E+01  0.37071257118E+02  0.44701057366E+02  0.58097100514E+02  0.00000000000E+00 0. -1.
          2    1    1    2  502    0 -0.16764409365E+01 -0.37071257118E+02  0.61316778019E+02  0.71671722633E+02  0.00000000000E+00 0. -1.
</event>
<event>
 4    1  0.6651744E+003  0.3122951E+02  0.7546771E-02  0.1409205E+00
          2   -1    0    0  501    0  0.00000000000E+00  0.00000000000E+00  0.38384419029E+03  0.38384419029E+03  0.00000000000E+00 0.  1.
          2   -1    0    0  502    0 -0.00000000000E+00 -0.00000000000E+00 -0.24245591041E+03  0.24245591041E+03  0.00000000000E+00 0. -1.
          2    1    1    2  501    0 -0.24815158260E+02  0.18960229199E+02 -0.24081075315E+03  0.24282730737E+03  0.00000000000E+00 0. -1.
          2    1    1    2  502    0  0.24815158260E+02 -0.18960229199E+02  0.38219903304E+03  0.38347279333E+03  0.00000000000E+00 0.  1.
</event>
<event>
 4    1  0.6651744E+003  0.2267471E+02  0.7546771E-02  0.1496624E+00
          2   -1    0    0  501    0  0.00000000000E+00  0.00000000000E+00  0.15430832450E+02  0.15430832450E+02  0.00000000000E+00 0.  1.
          2   -1    0    0  502    0 -0.00000000000E+00 -0.00000000000E+00 -0.12012471381E+04  0.12012471381E+04  0.00000000000E+00 0. -1.
          2    1    1    2  501    0 -0.22590590799E+02  0.19513391310E+01 -0.11927510151E+04  0.11929665236E+04  0.00000000000E+00 0. -1.
          2    1    1    2  502    0  0.22590590799E+02 -0.19513391310E+01  0.69347094841E+01  0.23711446871E+02  0.00000000000E+00 0.  1.
</event>
<event>
 4    1  0.9873162E+003  0.2413294E+02  0.7546771E-02  0.1478742E+00
          2   -1    0    0  501    0  0.00000000000E+00  0.00000000000E+00  0.60193746524E+03  0.60193746524E+03  0.00000000000E+00 0.  1.
          2   -1    0    0  502    0 -0.00000000000E+00 -0.00000000000E+00 -0.96478579431E+03  0.96478579431E+03  0.00000000000E+00 0. -1.
          2    1    1    2  501    0  0.24075559954E+02 -0.16631372044E+01 -0.96439289680E+03  0.96469480045E+03  0.00000000000E+00 0. -1.
          2    1    1    2  502    0 -0.24075559954E+02  0.16631372044E+01  0.60154456772E+03  0.60202845910E+03  0.00000000000E+00 0.  1.
</event>
<event>
 4    1  0.6651744E+003  0.2400289E+02  0.7546771E-02  0.1480275E+00
          2   -1    0    0  502    0  0.00000000000E+00  0.00000000000E+00  0.50894316477E+02  0.50894316477E+02  0.00000000000E+00 0. -1.
          2   -1    0    0  501    0 -0.00000000000E+00 -0.00000000000E+00 -0.12068876987E+04  0.12068876987E+04  0.00000000000E+00 0. -1.
          2    1    1    2  501    0 -0.37902937463E+01  0.23701739732E+02  0.47937949419E+02  0.53611433366E+02  0.00000000000E+00 0. -1.
          2    1    1    2  502    0  0.37902937463E+01 -0.23701739732E+02 -0.12039313316E+04  0.12041705818E+04  0.00000000000E+00 0. -1.
</event>
<event>
 4    1  0.6651744E+003  0.2683665E+02  0.7546771E-02  0.1449256E+00
          2   -1    0    0  502    0  0.00000000000E+00  0.00000000000E+00  0.20647461812E+01  0.20647461812E+01  0.00000000000E+00 0.  1.
          2   -1    0    0  501    0 -0.00000000000E+00 -0.00000000000E+00 -0.17167038770E+04  0.17167038770E+04  0.00000000000E+00 0.  1.
          2    1    1    2  501    0 -0.11847108266E+02 -0.24080111171E+02 -0.90195148828E+02  0.94102978701E+02  0.00000000000E+00 0.  1.
          2    1    1    2  502    0  0.11847108266E+02  0.24080111171E+02 -0.16244439819E+04  0.16246656444E+04  0.00000000000E+00 0.  1.
</event>
<event>
 4    1  0.6651744E+003  0.2057836E+02  0.7546771E-02  0.1525371E+00
          2   -1    0    0  502    0  0.00000000000E+00  0.00000000000E+00  0.21785196307E+03  0.21785196307E+03  0.00000000000E+00 0. -1.
          2   -1    0    0  501    0 -0.00000000000E+00 -0.00000000000E+00 -0.58220400398E+01  0.58220400398E+01  0.00000000000E+00 0. -1.
          2    1    1    2  501    0  0.10488331992E+02 -0.17704910513E+02  0.19729233311E+03  0.19836263173E+03  0.00000000000E+00 0. -1.
          2    1    1    2  502    0 -0.10488331992E+02  0.17704910513E+02  0.14737589919E+02  0.25311371375E+02  0.00000000000E+00 0. -1.
</event>
<event>
 4    1  0.6651744E+003  0.5396872E+02  0.7546771E-02  0.1281825E+00
          2   -1    0    0  502    0  0.00000000000E+00  0.00000000000E+00  0.56830901282E+02  0.56830901282E+02  0.00000000000E+00 0. -1.
          2   -1    0    0  501    0 -0.00000000000E+00 -0.00000000000E+00 -0.17354625587E+03  0.17354625587E+03  0.00000000000E+00 0.  1.
          2    1    1    2  501    0  0.19796171912E+02 -0.50206918060E+02  0.38338019201E+02  0.66199899998E+02  0.00000000000E+00 0. -1.
          2    1    1    2  502    0 -0.19796171912E+02  0.50206918060E+02 -0.15505337379E+03  0.16417725716E+03  0.00000000000E+00 0.  1.
</event>
<event>
 4    1  0.6651744E+003  0.2533188E+02  0.7546771E-02  0.1465125E+00
          2   -1    0    0  502    0  0.00000000000E+00  0.00000000000E+00  0.66606711009E+02  0.66606711009E+02  0.00000000000E+00 0.  1.
          2   -1    0    0  501    0 -0.00000000000E+00 -0.00000000000E+00 -0.14282228861E+04  0.14282228861E+04  0.00000000000E+00 0. -1.
          2    1    1    2  501    0 -0.21505127076E+02  0.13387814417E+02  0.64081563432E+02  0.68906827218E+02  0.00000000000E+00 0.  1.
          2    1    1    2  502    0  0.21505127076E+02 -0.13387814417E+02 -0.14256977385E+04  0.14259227699E+04  0.00000000000E+00 0. -1.
</event>
<event>
 4    1  0.6651744E+003  0.4302763E+02  0.7546771E-02  0.1331602E+00
          2   -1    0    0  501    0  0.00000000000E+00  0.00000000000E+00  0.22087769543E+04  0.22087769543E+04  0.00000000000E+00 0.  1.
          2   -1    0    0  502    0 -0.00000000000E+00 -0.00000000000E+00 -0.12868692101E+02  0.12868692101E+02  0.00000000000E+00 0.  1.
          2    1    1    2  501    0 -0.70526563732E+01 -0.42445692930E+02  0.23916620899E+02  0.49227853553E+02  0.00000000000E+00 0.  1.
          2    1    1    2  502    0  0.70526563732E+01  0.42445692930E+02  0.21719916413E+04  0.21724177928E+04  0.00000000000E+00 0.  1.
</event>
<event>
 4    1  0.6651744E+003  0.3516244E+02  0.7546771E-02  0.1379425E+00
          2   -1    0    0  502    0  0.00000000000E+00  0.00000000000E+00  0.52052261126E+01  0.52052261126E+01  0.00000000000E+00 0.  1.
          2   -1    0    0  501    0 -0.00000000000E+00 -0.00000000000E+00 -0.24035571252E+03  0.24035571252E+03  0.00000000000E+00 0. -1.
          2    1    1    2  501    0  0.30928842764E+01  0.35026152440E+02 -0.10426251406E+03  0.11003212770E+03  0.00000000000E+00 0.  1.
          2    1    1    2  502    0 -0.30928842764E+01 -0.35026152440E+02 -0.13088797235E+03  0.13552881094E+03  0.00000000000E+00 0. -1.
</event>
<event>
 4    1  0.6651744E+003  0.2178132E+02  0.7546771E-02  0.1508396E+00
          2   -1    0    0  501    0  0.00000000000E+00  0.00000000000E+00  0.90829251595E+01  0.90829251595E+01  0.00000000000E+00 0.  1.
          2   -1    0    0  502    0 -0.00000000000E+00 -0.00000000000E+00 -0.61787503013E+02  0.61787503013E+02  0.00000000000E+00 0.  1.
          2    1    1    2  501    0  0.21764543993E+02 -0.85466690866E+00 -0.40286914154E+02  0.45798048898E+02  0.00000000000E+00 0.  1.
          2    1    1    2  502    0 -0.21764543993E+02  0.85466690866E+00 -0.12417663699E+02  0.25072379275E+02  0.00000000000E+00 0.  1.
</event>
<event>
 4    1  0.6651744E+003  0.2295114E+02  0.7546771E-02  0.1493113E+00
          2   -1    0    0  501    0  0.00000000000E+00  0.00000000000E+00  0.56818541613E+03  0.56818541613E+03  0.00000000000E+00 0. -1.
          2   -1    0    0  502    0 -0.00000000000E+00 -0.00000000000E+00 -0.21665412926E+02  0.21665412926E+02  0.00000000000E+00 0.  1.
          2    1    1    2  501    0  0.20517101404E+01  0.22859251821E+02 -0.15286361833E+02  0.27575854772E+02  0.00000000000E+00 0.  1.
          2    1    1    2  502    0 -0.20517101404E+01 -0.22859251821E+02  0.56180636504E+03  0.56227497428E+03  0.00000000000E+00 0. -1.
</event>
<event>
 4    1  0.6651744E+003  0.6745922E+02  0.7546771E-02  0.1236398E+00
          2   -1    0    0  502    0  0.00000000000E+00  0.00000000000E+00  0.19197005281E+04  0.19197005281E+04  0.00000000000E+00 0. -1.
          2   -1    0    0  501    0 -0.00000000000E+00 -0.00000000000E+00 -0.72463147281E+01  0.72463147281E+01  0.00000000000E+00 0. -1.
          2    1    1    2  501    0 -0.63467006267E+02  0.22862319354E+02  0.17465462517E+04  0.17478485506E+04  0.00000000000E+00 0. -1.
          2    1    1    2  502    0  0.63467006267E+02 -0.22862319354E+02  0.16590796168E+03  0.17909829223E+03  0.00000000000E+00 0. -1.
</event>
<event>
 4    1  0.6651744E+003  0.2863122E+02  0.7546771E-02  0.1431876E+00
          2   -1    0    0  501    0  0.00000000000E+00  0.00000000000E+00  0.12923683560E+02  0.12923683560E+02  0.00000000000E+00 0. -1.
          2   -1    0    0  502    0 -0.00000000000E+00 -0.00000000000E+00 -0.92093182339E+03  0.92093182339E+03  0.00000000000E+00 0.  1.
          2    1    1    2  501    0  0.27596993131E+02 -0.76257820966E+01 -0.90456499681E+03  0.90501799984E+03  0.00000000000E+00 0.  1.
          2    1    1    2  502    0 -0.27596993131E+02  0.76257820966E+01 -0.34431430211E+01  0.28837507110E+02  0.00000000000E+00 0. -1.
</event>
<event>
 4    1  0.6757989E+003  0.2274771E+02  0.7546771E-02  0.1495691E+00
          2   -1    0    0  501    0  0.00000000000E+00  0.00000000000E+00  0.42920886766E+03  0.42920886766E+03  0.00000000000E+00 0. -1.
          2   -1    0    0  502    0 -0.00000000000E+00 -0.00000000000E+00 -0.76310154774E+03  0.76310154774E+03  0.00000000000E+00 0.  1.
          2    1    1    2  501    0  0.39800173484E+01 -0.22396825828E+02 -0.76263043445E+03  0.76296961794E+03  0.00000000000E+00 0.  1.
          2    1    1    2  502    0 -0.39800173484E+01  0.22396825828E+02  0.42873775437E+03  0.42934079746E+03  0.00000000000E+00 0. -1.
</event>
<event>
 4    1  0.6651744E+003  0.2920024E+02  0.7546771E-02  0.1426676E+00
          2   -1    0    0  501    0  0.00000000000E+00  0.00000000000E+00  0.20587046009E+02  0.20587046009E+02  0.00000000000E+00 0. -1.
          2   -1    0    0  502    0 -0.00000000000E+00 -0.00000000000E+00 -0.13134212496E+03  0.13134212496E+03  0.00000000000E+00 0. -1.
          2    1    1    2  501    0 -0.23562608423E+02  0.17246959495E+02 -0.11823395718E+03  0.12178638167E+03  0.00000000000E+00 0. -1.
          2    1    1    2  502    0  0.23562608423E+02 -0.17246959495E+02  0.74788782317E+01  0.30142789305E+02  0.00000000000E+00 0. -1.
</event>
<event>
 4    1  0.6651744E+003  0.2742820E+02  0.7546771E-02  0.1443354E+00
          2   -1    0    0  501    0  0.00000000000E+00  0.00000000000E+00  0.40952152665E+01  0.40952152665E+01  0.00000000000E+00 0. -1.
          2   -1    0    0  502    0 -0.00000000000E+00 -0.00000000000E+00 -0.26672795993E+03  0.26672795993E+03  0.00000000000E+00 0. -1.
          2    1    1    2  501    0 -0.57808849353E+01 -0.26812077027E+02 -0.55768171998E+02  0.62148170634E+02  0.00000000000E+00 0. -1.
          2    1    1    2  502    0  0.57808849353E+01  0.26812077027E+02 -0.20686457267E+03  0.20867500457E+03  0.00000000000E+00 0. -1.
</event>
<event>
 4    1  0.6651744E+003  0.2976519E+02  0.7546771E-02  0.1421648E+00
          2   -1    0    0  502    0  0.00000000000E+00  0.00000000000E+00  0.66032181827E+02  0.66032181827E+02  0.00000000000E+00 0. -1.
          2   -1    0    0  501    0 -0.00000000000E+00 -0.00000000000E+00 -0.17419205752E+02  0.17419205752E+02  0.00000000000E+00 0. -1.
          2    1    1    2  501    0 -0.25132363371E+02  0.15947748599E+02  0.44306430789E+02  0.53376269852E+02  0.00000000000E+00 0. -1.
          2    1    1    2  502    0  0.25132363371E+02 -0.15947748599E+02  0.43065452852E+01  0.30075117727E+02  0.00000000000E+00 0. -1.
</event>
<event>
 4    1  0.6651744E+003  0.3902805E+02  0.7546771E-02  0.1354277E+00
          2   -1    0    0  502    0  0.00000000000E+00  0.00000000000E+00  0.11732736360E+01  0.11732736360E+01  0.00000000000E+00 0.  1.
          2   -1    0    0  501    0 -0.00000000000E+00 -0.00000000000E+00 -0.15192115743E+04  0.15192115743E+04  0.00000000000E+00 0.  1.
          2    1    1    2  501    0 -0.38619119586E+02  0.56349463476E+01 -0.46909521222E+03  0.47071595165E+03  0.00000000000E+00 0.  1.
          2    1    1    2  502    0  0.38619119586E+02 -0.56349463476E+01 -0.10489430884E+04  0.10496688962E+04  0.00000000000E+00 0.  1.
</event>
<event>
 4    1  0.6651744E+003  0.4361146E+02  0.7546771E-02  0.1328530E+00
          2   -1    0    0  501    0  0.00000000000E+00  0.00000000000E+00  0.11223810058E+03  0.11223810058E+03  0.00000000000E+00 0.  1.
          2   -1    0    0  502    0 -0.00000000000E+00 -0.00000000000E+00 -0.22200372177E+02  0.22200372177E+02  0.00000000000E+00 0. -1.
          2    1    1    2  501    0 -0.15742122954E+02  0.40671179885E+02  0.12316134535E+02  0.45317176415E+02  0.00000000000E+00 0. -1.
          2    1    1    2  502    0  0.15742122954E+02 -0.40671179885E+02  0.77721593866E+02  0.89121296340E+02  0.00000000000E+00 0.  1.
</event>
<event>
 4    1  0.6651744E+003  0.7050870E+02  0.7546771E-02  0.1227782E+00
          2   -1    0    0  502    0  0.00000000000E+00  0.00000000000E+00  0.13569004824E+04  0.13569004824E+04  0.00000000000E+00 0.  1.
          2   -1    0    0  501    0 -0.00000000000E+00 -0.00000000000E+00 -0.72019669815E+03  0.72019669815E+03  0.00000000000E+00 0. -1.
          2    1    1    2  501    0 -0.70241015496E+02  0.61380782403E+01  0.13542554166E+04  0.13560896761E+04  0.00000000000E+00 0.  1.
          2    1    1    2  502    0  0.70241015496E+02 -0.61380782403E+01 -0.71755163239E+03  0.72100750440E+03  0.00000000000E+00 0. -1.
</event>
<event>
 4    1  0.6651744E+003  0.2001337E+02  0.7546771E-02  0.1533831E+00
          2   -1    0    0  501    0  0.00000000000E+00  0.00000000000E+00  0.33688191987E+02  0.33688191987E+02  0.00000000000E+00 0. -1.
          2   -1    0    0  502    0 -0.00000000000E+00 -0.00000000000E+00 -0.20803727243E+03  0.20803727243E+03  0.00000000000E+00 0.  1.
          2    1    1    2  501    0 -0.14477413847E+02 -0.13818085119E+02 -0.20453276935E+03  0.20550958305E+03  0.00000000000E+00 0.  1.
          2    1    1    2  502    0  0.14477413847E+02  0.13818085119E+02  0.30183688900E+02  0.36215881373E+02  0.00000000000E+00 0. -1.
</event>
<event>
 4    1  0.6651744E+003  0.6388900E+02  0.7546771E-02  0.1247162E+00
          2   -1    0    0  501    0  0.00000000000E+00  0.00000000000E+00  0.56120903731E+03  0.56120903731E+03  0.00000000000E+00 0. -1.
          2   -1    0    0  502    0 -0.00000000000E+00 -0.00000000000E+00 -0.12217585830E+02  0.12217585830E+02  0.00000000000E+00 0. -1.
          2    1    1    2  501    0 -0.99768735170E+01 -0.63105198604E+02  0.92102004345E+02  0.11209185207E+03  0.00000000000E+00 0. -1.
          2    1    1    2  502    0  0.99768735170E+01  0.63105198604E+02  0.45688944714E+03  0.46133477108E+03  0.00000000000E+00 0. -1.
</event>
<event>
 4    1  0.6651744E+003  0.3928932E+02  0.7546771E-02  0.1352701E+00
          2   -1    0    0  502    0  0.00000000000E+00  0.00000000000E+00  0.47578014246E+02  0.47578014246E+02  0.00000000000E+00 0.  1.
          2   -1    0    0  501    0 -0.00000000000E+00 -0.00000000000E+00 -0.68573091173E+03  0.68573091173E+03  0.00000000000E+00 0.  1.
          2    1    1    2  501    0  0.38431772838E+02  0.81639018750E+01  0.38798983539E+02  0.55217855635E+02  0.00000000000E+00 0.  1.
          2    1    1    2  502    0 -0.38431772838E+02 -0.81639018750E+01 -0.67695188102E+03  0.67809107034E+03  0.00000000000E+00 0.  1.
</event>
<event>
 4    1  0.6651744E+003  0.2561989E+02  0.7546771E-02  0.1461987E+00
          2   -1    0    0  502    0  0.00000000000E+00  0.00000000000E+00  0.26509552654E+03  0.26509552654E+03  0.00000000000E+00 0. -1.
          2   -1    0    0  501    0 -0.00000000000E+00 -0.00000000000E+00 -0.44425577592E+03  0.44425577592E+03  0.00000000000E+00 0.  1.
          2    1    1    2  501    0 -0.25314770894E+02  0.39422139451E+01  0.26410577371E+03  0.26534550757E+03  0.00000000000E+00 0. -1.
          2    1    1    2  502    0  0.25314770894E+02 -0.39422139451E+01 -0.44326602310E+03  0.44400579490E+03  0.00000000000E+00 0.  1.
</event>
<event>
 4    1  0.6651744E+003  0.5683877E+02  0.7546771E-02  0.1270969E+00
          2   -1    0    0  501    0  0.00000000000E+00  0.00000000000E+00  0.12001504334E+04  0.12001504334E+04  0.00000000000E+00 0. -1.
          2   -1    0    0  502    0 -0.00000000000E+00 -0.00000000000E+00 -0.12660358241E+03  0.12660358241E+03  0.00000000000E+00 0. -1.
          2    1    1    2  501    0  0.49891087121E+02 -0.27230959477E+02 -0.11951327259E+03  0.13234072711E+03  0.00000000000E+00 0. -1.
          2    1    1    2  502    0 -0.49891087121E+02  0.27230959477E+02  0.11930601235E+04  0.11944132886E+04  0.00000000000E+00 0. -1.
</event>
<event>
 4    1  0.1717183E+004  0.2409770E+02  0.7546771E-02  0.1479156E+00
          2   -1    0    0  501    0  0.00000000000E+00  0.00000000000E+00  0.82803869180E+03  0.82803869180E+03  0.00000000000E+00 0.  1.
          2   -1    0    0  502    0 -0.00000000000E+00 -0.00000000000E+00 -0.14457496064E+04  0.14457496064E+04  0.00000000000E+00 0. -1.
          2    1    1    2  501    0 -0.21149751973E+02  0.11549335495E+02 -0.14454738344E+04  0.14456746886E+04  0.00000000000E+00 0. -1.
          2    1    1    2  502    0  0.21149751973E+02 -0.11549335495E+02  0.82776291979E+03  0.82811360968E+03  0.00000000000E+00 0.  1.
</event>
<event>
 4    1  0.6651744E+003  0.2406702E+02  0.7546771E-02  0.1479517E+00
          2   -1    0    0  501    0  0.00000000000E+00  0.00000000000E+00  0.40121799894E+03  0.40121799894E+03  0.00000000000E+00 0. -1.
          2   -1    0    0  502    0 -0.00000000000E+00 -0.00000000000E+00 -0.41318405358E+03  0.41318405358E+03  0.00000000000E+00 0.  1.
          2    1    1    2  501    0  0.24398964627E+01  0.23943022871E+02 -0.41247205457E+03  0.41317359214E+03  0.00000000000E+00 0.  1.
          2    1    1    2  502    0 -0.24398964627E+01 -0.23943022871E+02  0.40050599993E+03  0.40122846038E+03  0.00000000000E+00 0. -1.
</event>
<event>
 4    1  0.6651744E+003  0.2269054E+02  0.7546771E-02  0.1496421E+00
          2   -1    0    0  502    0  0.00000000000E+00  0.00000000000E+00  0.15507030880E+03  0.15507030880E+03  0.00000000000E+00 0.  1.
          2   -1    0    0  501    0 -0.00000000000E+00 -0.00000000000E+00 -0.13639848914E+02  0.13639848914E+02  0.00000000000E+00 0. -1.
          2    1    1    2  501    0 -0.98556549049E+01 -0.20438357917E+02  0.14408876849E+03  0.14586443573E+03  0.00000000000E+00 0.  1.
          2    1    1    2  502    0  0.98556549049E+01  0.20438357917E+02 -0.26583086050E+01  0.22845721976E+02  0.00000000000E+00 0. -1.
</event>
<event>
 4    1  0.6651744E+003  0.2318651E+02  0.7546771E-02  0.1490169E+00
          2   -1    0    0  502    0  0.00000000000E+00  0.00000000000E+00  0.11441989613E+03  0.11441989613E+03  0.00000000000E+00 0.  1.
          2   -1    0    0  501    0 -0.00000000000E+00 -0.00000000000E+00 -0.51700158736E+01  0.51700158736E+01  0.00000000000E+00 0. -1.
          2    1    1    2  501    0 -0.57959265040E+01 -0.22450422445E+02  0.72680753528E+02  0.76289620299E+02  0.00000000000E+00 0.  1.
          2    1    1    2  502    0  0.57959265040E+01  0.22450422445E+02  0.36569126731E+02  0.43300291707E+02  0.00000000000E+00 0. -1.
</event>
<event>
 4    1  0.6651744E+003  0.2595334E+02  0.7546771E-02  0.1458415E+00
          2   -1    0    0  502    0  0.00000000000E+00  0.00000000000E+00  0.95758870558E+03  0.95758870558E+03  0.00000000000E+00 0.  1.
          2   -1    0    0  501    0 -0.00000000000E+00 -0.00000000000E+00 -0.99893008484E+00  0.99893008484E+00  0.00000000000E+00 0.  1.
          2    1    1    2  501    0 -0.14929264401E+02 -0.21229524642E+02  0.73898777269E+03  0.73944337433E+03  0.00000000000E+00 0.  1.
          2    1    1    2  502    0  0.14929264401E+02  0.21229524642E+02  0.21760200280E+03  0.21914426134E+03  0.00000000000E+00 0.  1.
</event>
<event>
 4    1  0.1347613E+004  0.2663082E+02  0.7546771E-02  0.1451352E+00
          2   -1    0    0  501    0  0.00000000000E+00  0.00000000000E+00  0.89707445683E+03  0.89707445683E+03  0.00000000000E+00 0.  1.
          2   -1    0    0  502    0 -0.00000000000E+00 -0.00000000000E+00 -0.10808462230E+04  0.10808462230E+04  0.00000000000E+00 0.  1.
          2    1    1    2  501    0 -0.24920965534E+02 -0.93886192110E+01 -0.10804844759E+04  0.10808126125E+04  0.00000000000E+00 0.  1.
          2    1    1    2  502    0  0.24920965534E+02  0.93886192110E+01  0.89671270972E+03  0.89710806733E+03  0.00000000000E+00 0.  1.
</event>
<event>
 4    1  0.6651744E+003  0.2301627E+02  0.7546771E-02  0.1492294E+00
          2   -1    0    0  501    0  0.00000000000E+00  0.00000000000E+00  0.31443594747E+02  0.31443594747E+02  0.00000000000E+00 0. -1.
          2   -1    0    0  502    0 -0.00000000000E+00 -0.00000000000E+00 -0.24003613079E+02  0.24003613079E+02  0.00000000000E+00 0.  1.
          2    1    1    2  501    0 -0.15751479797E+02  0.16782120913E+02 -0.11417271376E+02  0.25692465507E+02  0.00000000000E+00 0.  1.
          2    1    1    2  502    0  0.15751479797E+02 -0.16782120913E+02  0.18857253044E+02  0.29754742319E+02  0.00000000000E+00 0. -1.
</event>
<event>
 4    1  0.6651744E+003  0.2482924E+02  0.7546771E-02  0.1470723E+00
          2   -1    0    0  501    0  0.00000000000E+00  0.00000000000E+00  0.22481335997E+03  0.22481335997E+03  0.00000000000E+00 0. -1.
          2   -1    0    0  502    0 -0.00000000000E+00 -0.00000000000E+00 -0.46488192788E+02  0.46488192788E+02  0.00000000000E+00 0.  1.
          2    1    1    2  501    0 -0.53548951266E+01 -0.24244924601E+02 -0.42426515084E+02  0.49157913431E+02  0.00000000000E+00 0.  1.
          2    1    1    2  502    0  0.53548951266E+01  0.24244924601E+02  0.22075168226E+03  0.22214363933E+03  0.00000000000E+00 0. -1.
</event>
<event>
 4    1  0.6651744E+003  0.3332552E+02  0.7546771E-02  0.1392733E+00
          2   -1    0    0  502    0  0.00000000000E+00  0.00000000000E+00  0.36955526741E+02  0.36955526741E+02  0.00000000000E+00 0.  1.
          2   -1    0    0  501    0 -0.00000000000E+00 -0.00000000000E+00 -0.44040724752E+02  0.44040724752E+02  0.00000000000E+00 0.  1.
          2    1    1    2  501    0  0.32275613282E+02 -0.82990881336E+01  0.19281606642E+02  0.38501564011E+02  0.00000000000E+00 0.  1.
          2    1    1    2  502    0 -0.32275613282E+02  0.82990881336E+01 -0.26366804654E+02  0.42494687482E+02  0.00000000000E+00 0.  1.
</event>
<event>
 4    1  0.6651744E+003  0.3376126E+02  0.7546771E-02  0.1389487E+00
          2   -1    0    0  502    0  0.00000000000E+00  0.00000000000E+00  0.94817773213E+02  0.94817773213E+02  0.00000000000E+00 0. -1.
          2   -1    0    0  501    0 -0.00000000000E+00 -0.00000000000E+00 -0.52367275830E+02  0.52367275830E+02  0.00000000000E+00 0. -1.
          2    1    1    2  501    0  0.29507407028E+02  0.16405360063E+02 -0.43370567355E+02  0.54962068929E+02  0.00000000000E+00 0. -1.
          2    1    1    2  502    0 -0.29507407028E+02 -0.16405360063E+02  0.85821064738E+02  0.92222980114E+02  0.00000000000E+00 0. -1.
</event>
<event>
 4    1  0.6651744E+003  0.3190938E+02  0.7546771E-02  0.1403699E+00
          2   -1    0    0  502    0  0.00000000000E+00  0.00000000000E+00  0.34396354928E+03  0.34396354928E+03  0.00000000000E+00 0. -1.
          2   -1    0    0  501    0 -0.00000000000E+00 -0.00000000000E+00 -0.23025839702E+03  0.23025839702E+03  0.00000000000E+00 0. -1.
          2    1    1    2  501    0 -0.28489372308E+02 -0.14372350371E+02  0.34211201674E+03  0.34359691615E+03  0.00000000000E+00 0. -1.
          2    1    1    2  502    0  0.28489372308E+02  0.14372350371E+02 -0.22840686448E+03  0.23062503015E+03  0.00000000000E+00 0. -1.
</event>
<event>
 4    1  0.6651744E+003  0.2228957E+02  0.7546771E-02  0.1501617E+00
          2   -1    0    0  501    0  0.00000000000E+00  0.00000000000E+00  0.24119312591E+01  0.24119312591E+01  0.00000000000E+00 0. -1.
          2   -1    0    0  502    0 -0.00000000000E+00 -0.00000000000E+00 -0.46394638691E+03  0.46394638691E+03  0.00000000000E+00 0. -1.
          2    1    1    2  501    0 -0.21473848385E+02 -0.59748608777E+01 -0.40464015879E+03  0.40525360360E+03  0.00000000000E+00 0. -1.
          2    1    1    2  502    0  0.21473848385E+02  0.59748608777E+01 -0.56894296860E+02  0.61104714566E+02  0.00000000000E+00 0. -1.
</event>
<event>
 4    1  0.6651744E+003  0.2658924E+02  0.7546771E-02  0.1451779E+00
          2   -1    0    0  501    0  0.00000000000E+00  0.00000000000E+00  0.15005053394E+04  0.15005053394E+04  0.00000000000E+00 0. -1.
          2   -1    0    0  502    0 -0.00000000000E+00 -0.00000000000E+00 -0.19270705384E+03  0.19270705384E+03  0.00000000000E+00 0. -1.
          2    1    1    2  501    0 -0.25548124305E+02  0.73675524864E+01 -0.19167144984E+03  0.19350693054E+03  0.00000000000E+00 0. -1.
          2    1    1    2  502    0  0.25548124305E+02 -0.73675524864E+01  0.14994697354E+04  0.14997054627E+04  0.00000000000E+00 0. -1.
</event>
<event>
 4    1  0.6651744E+003  0.6446993E+02  0.7546771E-02  0.1245357E+00
          2   -1    0    0  501    0  0.00000000000E+00  0.00000000000E+00  0.15188711652E+03  0.15188711652E+03  0.00000000000E+00 0.  1.
          2   -1    0    0  502    0 -0.00000000000E+00 -0.00000000000E+00 -0.44510575593E+04  0.44510575593E+04  0.00000000000E+00 0. -1.
          2    1    1    2  501    0  0.64444288670E+02 -0.18181276341E+01 -0.44439719848E+04  0.44444396018E+04  0.00000000000E+00 0. -1.
          2    1    1    2  502    0 -0.64444288670E+02  0.18181276341E+01  0.14480154202E+03  0.15850507406E+03  0.00000000000E+00 0.  1.
</event>
<event>
 4    1  0.6651744E+003  0.7599662E+02  0.7546771E-02  0.1213459E+00
          2   -1    0    0  502    0  0.00000000000E+00  0.00000000000E+00  0.57201095918E+02  0.57201095918E+02  0.00000000000E+00 0.  1.
          2   -1    0    0  501    0 -0.00000000000E+00 -0.00000000000E+00 -0.81581206639E+03  0.81581206639E+03  0.00000000000E+00 0. -1.
          2    1    1    2  501    0  0.66080571699E+02 -0.37534565608E+02  0.29297338607E+02  0.81448263461E+02  0.00000000000E+00 0.  1.
          2    1    1    2  502    0 -0.66080571699E+02  0.37534565608E+02 -0.78790830907E+03  0.79156489884E+03  0.00000000000E+00 0. -1.
</event>
<event>
 4    1  0.1258677E+004  0.2130898E+02  0.7546771E-02  0.1514899E+00
          2   -1    0    0  501    0  0.00000000000E+00  0.00000000000E+00  0.75054681772E+03  0.75054681772E+03  0.00000000000E+00 0. -1.
          2   -1    0    0  502    0 -0.00000000000E+00 -0.00000000000E+00 -0.10597341706E+04  0.10597341706E+04  0.00000000000E+00 0.  1.
          2    1    1    2  501    0 -0.14687661212E+02  0.15438434951E+02 -0.10594757669E+04  0.10596900364E+04  0.00000000000E+00 0.  1.
          2    1    1    2  502    0  0.14687661212E+02 -0.15438434951E+02  0.75028841408E+03  0.75059095183E+03  0.00000000000E+00 0. -1.
</event>
<event>
 4    1  0.6651744E+003  0.2785235E+02  0.7546771E-02  0.1439229E+00
          2   -1    0    0  502    0  0.00000000000E+00  0.00000000000E+00  0.12054470997E+01  0.12054470997E+01  0.00000000000E+00 0. -1.
          2   -1    0    0  501    0 -0.00000000000E+00 -0.00000000000E+00 -0.12978824889E+04  0.12978824889E+04  0.00000000000E+00 0.  1.
          2    1    1    2  501    0  0.22486158267E+02 -0.16435504962E+02 -0.18713405063E+03  0.18919541761E+03  0.00000000000E+00 0. -1.
          2    1    1    2  502    0 -0.22486158267E+02  0.16435504962E+02 -0.11095429911E+04  0.11098925184E+04  0.00000000000E+00 0.  1.
</event>
<event>
 4    1  0.6651744E+003  0.3076263E+02  0.7546771E-02  0.1413083E+00
          2   -1    0    0  501    0  0.00000000000E+00  0.00000000000E+00  0.13558938819E+03  0.13558938819E+03  0.00000000000E+00 0.  1.
          2   -1    0    0  502    0 -0.00000000000E+00 -0.00000000000E+00 -0.37518743782E+02  0.37518743782E+02  0.00000000000E+00 0. -1.
          2    1    1    2  501    0 -0.26593052484E+02  0.15464438601E+02 -0.29054211149E+02  0.42314140511E+02  0.00000000000E+00 0. -1.
          2    1    1    2  502    0  0.26593052484E+02 -0.15464438601E+02  0.12712485555E+03  0.13079399146E+03  0.00000000000E+00 0.  1.
</event>
<event>
 4    1  0.6651744E+003  0.4599935E+02  0.7546771E-02  0.1316517E+00
          2   -1    0    0  502    0  0.00000000000E+00  0.00000000000E+00  0.15729099509E+03  0.15729099509E+03  0.00000000000E+00 0. -1.
          2   -1    0    0  501    0 -0.00000000000E+00 -0.00000000000E+00 -0.91793215917E+02  0.91793215917E+02  0.00000000000E+00 0.  1.
          2    1    1    2  501    0 -0.41532982685E+02 -0.19772489839E+02  0.14780375279E+03  0.15479628337E+03  0.00000000000E+00 0. -1.
          2    1    1    2  502    0  0.41532982685E+02  0.19772489839E+02 -0.82305973619E+02  0.94287927639E+02  0.00000000000E+00 0.  1.
</event>
<event>
 4    1  0.6651744E+003  0.2406187E+02  0.7546771E-02  0.1479578E+00
          2   -1    0    0  501    0  0.00000000000E+00  0.00000000000E+00  0.48389669075E+02  0.48389669075E+02  0.00000000000E+00 0.  1.
          2   -1    0    0  502    0 -0.00000000000E+00 -0.00000000000E+00 -0.26850050036E+03  0.26850050036E+03  0.00000000000E+00 0.  1.
          2    1    1    2  501    0 -0.86754670217E+01  0.22443485463E+02 -0.26492998389E+03  0.26602043180E+03  0.00000000000E+00 0.  1.
          2    1    1    2  502    0  0.86754670217E+01 -0.22443485463E+02  0.44819152604E+02  0.50869737643E+02  0.00000000000E+00 0.  1.
</event>
<event>
 4    1  0.6651744E+003  0.2072315E+02  0.7546771E-02  0.1523255E+00
          2   -1    0    0  501    0  0.00000000000E+00  0.00000000000E+00  0.18817890656E+03  0.18817890656E+03  0.00000000000E+00 0.  1.
          2   -1    0    0  502    0 -0.00000000000E+00 -0.00000000000E+00 -0.21895516464E+03  0.21895516464E+03  0.00000000000E+00 0. -1.
          2    1    1    2  501    0  0.10309818468E+02 -0.17976553754E+02 -0.21789151438E+03  0.21887476072E+03  0.00000000000E+00 0. -1.
          2    1    1    2  502    0 -0.10309818468E+02  0.17976553754E+02  0.18711525630E+03  0.18825931047E+03  0.00000000000E+00 0.  1.
</event>
<event>
 4    1  0.6651744E+003  0.3088293E+02  0.7546771E-02  0.1412076E+00
          2   -1    0    0  502    0  0.00000000000E+00  0.00000000000E+00  0.36260830985E+01  0.36260830985E+01  0.00000000000E+00 0.  1.
          2   -1    0    0  501    0 -0.00000000000E+00 -0.00000000000E+00 -0.98692090024E+03  0.98692090024E+03  0.00000000000E+00 0.  1.
          2    1    1    2  501    0  0.11481760339E+02  0.28669224567E+02 -0.67475819280E+02  0.74207421767E+02  0.00000000000E+00 0.  1.
          2    1    1    2  502    0 -0.11481760339E+02 -0.28669224567E+02 -0.91581899786E+03  0.91633956157E+03  0.00000000000E+00 0.  1.
</event>
<event>
 4    1  0.6651744E+003  0.2032110E+02  0.7546771E-02  0.1529182E+00
          2   -1    0    0  501    0  0.00000000000E+00  0.00000000000E+00  0.33839905615E+02  0.33839905615E+02  0.00000000000E+00 0.  1.
          2   -1    0    0  502    0 -0.00000000000E+00 -0.00000000000E+00 -0.54188168171E+03  0.54188168171E+03  0.00000000000E+00 0. -1.
          2    1    1    2  501    0 -0.12325846104E+02  0.16156134833E+02 -0.53862196878E+03  0.53900516920E+03  0.00000000000E+00 0. -1.
          2    1    1    2  502    0  0.12325846104E+02 -0.16156134833E+02  0.30580192686E+02  0.36716418121E+02  0.00000000000E+00 0.  1.
</event>
<event>
 4    1  0.6651744E+003  0.3507214E+02  0.7546771E-02  0.1380057E+00
          2   -1    0    0  501    0  0.00000000000E+00  0.00000000000E+00  0.10000745907E+04  0.10000745907E+04  0.00000000000E+00 0.  1.
          2   -1    0    0  502    0 -0.00000000000E+00 -0.00000000000E+00 -0.98435065080E+02  0.98435065080E+02  0.00000000000E+00 0. -1.
          2    1    1    2  501    0 -0.66558877994E+01  0.34434777661E+02 -0.94992761624E+02  0.10126045386E+03  0.00000000000E+00 0. -1.
          2    1    1    2  502    0  0.66558877994E+01 -0.34434777661E+02  0.99663228720E+03  0.99724920187E+03  0.00000000000E+00 0.  1.
</event>
<event>
 4    1  0.6651744E+003  0.3393259E+02  0.7546771E-02  0.1388227E+00
          2   -1    0    0  502    0  0.00000000000E+00  0.00000000000E+00  0.20449940562E+04  0.20449940562E+04  0.00000000000E+00 0. -1.
          2   -1    0    0  501    0 -0.00000000000E+00 -0.00000000000E+00 -0.15713926203E+01  0.15713926203E+01  0.00000000000E+00 0.  1.
          2    1    1    2  501    0 -0.26003459687E+02 -0.21800024859E+02  0.18414184539E+04  0.18417310725E+04  0.00000000000E+00 0. -1.
          2    1    1    2  502    0  0.26003459687E+02  0.21800024859E+02  0.20200420965E+03  0.20483437631E+03  0.00000000000E+00 0.  1.
</event>
<event>
 4    1  0.6651744E+003  0.3060496E+02  0.7546771E-02  0.1414411E+00
          2   -1    0    0  501    0  0.00000000000E+00  0.00000000000E+00  0.12127485086E+04  0.12127485086E+04  0.00000000000E+00 0.  1.
          2   -1    0    0  502    0 -0.00000000000E+00 -0.00000000000E+00 -0.15789223967E+01  0.15789223967E+01  0.00000000000E+00 0. -1.
          2    1    1    2  501    0  0.13747669912E+02  0.27343467436E+02  0.17162680418E+03  0.17433422943E+03  0.00000000000E+00 0. -1.
          2    1    1    2  502    0 -0.13747669912E+02 -0.27343467436E+02  0.10395427820E+04  0.10399932016E+04  0.00000000000E+00 0.  1.
</event>
<event>
 4    1  0.6651744E+003  0.2047714E+02  0.7546771E-02  0.1526862E+00
          2   -1    0    0  502    0  0.00000000000E+00  0.00000000000E+00  0.83973305952E+02  0.83973305952E+02  0.00000000000E+00 0. -1.
          2   -1    0    0  501    0 -0.00000000000E+00 -0.00000000000E+00 -0.11356396094E+04  0.11356396094E+04  0.00000000000E+00 0.  1.
          2    1    1    2  501    0 -0.30438189918E+01 -0.20249652495E+02  0.82631168409E+02  0.85130624647E+02  0.00000000000E+00 0. -1.
          2    1    1    2  502    0  0.30438189918E+01  0.20249652495E+02 -0.11342974719E+04  0.11344822907E+04  0.00000000000E+00 0.  1.
</event>
<event>
 4    1  0.6651744E+003  0.2183320E+02  0.7546771E-02  0.1507693E+00
          2   -1    0    0  501    0  0.00000000000E+00  0.00000000000E+00  0.11776118123E+04  0.11776118123E+04  0.00000000000E+00 0.  1.
          2   -1    0    0  502    0 -0.00000000000E+00 -0.00000000000E+00 -0.21607535596E+02  0.21607535596E+02  0.00000000000E+00 0.  1.
          2    1    1    2  501    0  0.21833160294E+02 -0.42886137444E-01 -0.15964476855E+02  0.27047241059E+02  0.00000000000E+00 0.  1.
          2    1    1    2  502    0 -0.21833160294E+02  0.42886137444E-01  0.11719687536E+04  0.11721721069E+04  0.00000000000E+00 0.  1.
</event>
<event>
 4    1  0.6651744E+003  0.3517756E+02  0.7546771E-02  0.1379319E+00
          2   -1    0    0  502    0  0.00000000000E+00  0.00000000000E+00  0.28258975030E+02  0.28258975030E+02  0.00000000000E+00 0.  1.
          2   -1    0    0  501    0 -0.00000000000E+00 -0.00000000000E+00 -0.78516408667E+03  0.78516408667E+03  0.00000000000E+00 0.  1.
          2    1    1    2  501    0  0.15991431005E+02  0.31332648510E+02  0.16754755901E+02  0.38963862405E+02  0.00000000000E+00 0.  1.
          2    1    1    2  502    0 -0.15991431005E+02 -0.31332648510E+02 -0.77365986754E+03  0.77445919929E+03  0.00000000000E+00 0.  1.
</event>
<event>
 4    1  0.6651744E+003  0.2424834E+02  0.7546771E-02  0.1477391E+00
          2   -1    0    0  501    0  0.00000000000E+00  0.00000000000E+00  0.86297874548E+01  0.86297874548E+01  0.00000000000E+00 0.  1.
          2   -1    0    0  502    0 -0.00000000000E+00 -0.00000000000E+00 -0.15705918513E+04  0.15705918513E+04  0.00000000000E+00 0.  1.
          2    1    1    2  501    0  0.20412005019E+02  0.13089390809E+02 -0.15532748644E+04  0.15534641246E+04  0.00000000000E+00 0.  1.
          2    1    1    2  502    0 -0.20412005019E+02 -0.13089390809E+02 -0.86871994556E+01  0.25757514146E+02  0.00000000000E+00 0.  1.
</event>
<event>
 4    1  0.6651744E+003  0.2583074E+02  0.7546771E-02  0.1459721E+00
          2   -1    0    0  501    0  0.00000000000E+00  0.00000000000E+00  0.50304247016E+03  0.50304247016E+03  0.00000000000E+00 0.  1.
          2   -1    0    0  502    0 -0.00000000000E+00 -0.00000000000E+00 -0.22848079262E+01  0.22848079262E+01  0.00000000000E+00 0. -1.
          2    1    1    2  501    0  0.11703357351E+02  0.23027342750E+02  0.86736031626E+02  0.90500642371E+02  0.00000000000E+00 0. -1.
          2    1    1    2  502    0 -0.11703357351E+02 -0.23027342750E+02  0.41402163061E+03  0.41482663572E+03  0.00000000000E+00 0.  1.
</event>
<event>
 4    1  0.6651744E+003  0.2038882E+02  0.7546771E-02  0.1528172E+00
          2   -1    0    0  501    0  0.00000000000E+00  0.00000000000E+00  0.23038862240E+03  0.23038862240E+03  0.00000000000E+00 0. -1.
          2   -1    0    0  502    0 -0.00000000000E+00 -0.00000000000E+00 -0.57572234302E+01  0.57572234302E+01  0.00000000000E+00 0.  1.
          2    1    1    2  501    0  0.22465605975E+01  0.20264675161E+02  0.14479480964E+02  0.25007188225E+02  0.00000000000E+00 0.  1.
          2    1    1    2  502    0 -0.22465605975E+01 -0.20264675161E+02  0.21015191800E+03  0.21113865760E+03  0.00000000000E+00 0. -1.
</event>
<event>
 4    1  0.6651744E+003  0.7559683E+02  0.7546771E-02  0.1214456E+00
          2   -1    0    0  501    0  0.00000000000E+00  0.00000000000E+00  0.10691898067E+04  0.10691898067E+04  0.00000000000E+00 0.  1.
          2   -1    0    0  502    0 -0.00000000000E+00 -0.00000000000E+00 -0.12207166610E+02  0.12207166610E+02  0.00000000000E+00 0.  1.
          2    1    1    2  501    0 -0.70905922835E+02  0.26215087244E+02  0.12309804823E+03  0.14445764144E+03  0.00000000000E+00 0.  1.
          2    1    1    2  502    0  0.70905922835E+02 -0.26215087244E+02  0.93388459189E+03  0.93693933190E+03  0.00000000000E+00 0.  1.
</event>
<event>
 4    1  0.6651744E+003  0.3285289E+02  0.7546771E-02  0.1396321E+00
          2   -1    0    0  502    0  0.00000000000E+00  0.00000000000E+00  0.54545399237E+01  0.54545399237E+01  0.00000000000E+00 0.  1.
          2   -1    0    0  501    0 -0.00000000000E+00 -0.00000000000E+00 -0.36602836439E+03  0.36602836439E+03  0.00000000000E+00 0.  1.
          2    1    1    2  501    0  0.32591779874E+02  0.41337626929E+01 -0.54392798429E+02  0.63544383153E+02  0.00000000000E+00 0.  1.
          2    1    1    2  502    0 -0.32591779874E+02 -0.41337626929E+01 -0.30618102603E+03  0.30793852116E+03  0.00000000000E+00 0.  1.
</event>
<event>
 4    1  0.6651744E+003  0.2150077E+02  0.7546771E-02  0.1512234E+00
          2   -1    0    0  501    0  0.00000000000E+00  0.00000000000E+00  0.31115102299E+03  0.31115102299E+03  0.00000000000E+00 0. -1.
          2   -1    0    0  502    0 -0.00000000000E+00 -0.00000000000E+00 -0.16905281881E+02  0.16905281881E+02  0.00000000000E+00 0.  1.
          2    1    1    2  501    0  0.21496666747E+02  0.42022307236E+00 -0.95317479301E+01  0.23518875127E+02  0.00000000000E+00 0.  1.
          2    1    1    2  502    0 -0.21496666747E+02 -0.42022307236E+00  0.30377748904E+03  0.30453742975E+03  0.00000000000E+00 0. -1.
</event>
<event>
 4    1  0.6651744E+003  0.2610127E+02  0.7546771E-02  0.1456851E+00
          2   -1    0    0  502    0  0.00000000000E+00  0.00000000000E+00  0.12865343291E+03  0.12865343291E+03  0.00000000000E+00 0.  1.
          2   -1    0    0  501    0 -0.00000000000E+00 -0.00000000000E+00 -0.91555853316E+03  0.91555853316E+03  0.00000000000E+00 0. -1.
          2    1    1    2  501    0  0.12994188725E+02  0.22636861238E+02  0.12714135600E+03  0.12979291519E+03  0.00000000000E+00 0.  1.
          2    1    1    2  502    0 -0.12994188725E+02 -0.22636861238E+02 -0.91404645625E+03  0.91441905088E+03  0.00000000000E+00 0. -1.
</event>
<event>
 4    1  0.6651744E+003  0.3483063E+02  0.7546771E-02  0.1381758E+00
          2   -1    0    0  502    0  0.00000000000E+00  0.00000000000E+00  0.68206160161E+03  0.68206160161E+03  0.00000000000E+00 0.  1.
          2   -1    0    0  501    0 -0.00000000000E+00 -0.00000000000E+00 -0.18265946516E+02  0.18265946516E+02  0.00000000000E+00 0.  1.
          2    1    1    2  501    0  0.16677018286E+02  0.30578586516E+02  0.66457605894E+03  0.66548817496E+03  0.00000000000E+00 0.  1.
          2    1    1    2  502    0 -0.16677018286E+02 -0.30578586516E+02 -0.78040385048E+00  0.34839373164E+02  0.00000000000E+00 0.  1.
</event>
<event>
 4    1  0.6651744E+003  0.4939339E+02  0.7546771E-02  0.1300824E+00
          2   -1    0    0  501    0  0.00000000000E+00  0.00000000000E+00  0.41942906394E+03  0.41942906394E+03  0.00000000000E+00 0. -1.
          2   -1    0    0  502    0 -0.00000000000E+00 -0.00000000000E+00 -0.61050564668E+03  0.61050564668E+03  0.00000000000E+00 0.  1.
          2    1    1    2  501    0 -0.43546975055E+02  0.23310262230E+02 -0.60804653978E+03  0.61004942578E+03  0.00000000000E+00 0.  1.
          2    1    1    2  502    0  0.43546975055E+02 -0.23310262230E+02  0.41696995703E+03  0.41988528485E+03  0.00000000000E+00 0. -1.
</event>
<event>
 4    1  0.6651744E+003  0.4561317E+02  0.7546771E-02  0.1318401E+00
          2   -1    0    0  502    0  0.00000000000E+00  0.00000000000E+00  0.14245179571E+03  0.14245179571E+03  0.00000000000E+00 0. -1.
          2   -1    0    0  501    0 -0.00000000000E+00 -0.00000000000E+00 -0.26023455113E+02  0.26023455113E+02  0.00000000000E+00 0. -1.
          2    1    1    2  501    0  0.39095641812E+02 -0.23496639649E+02  0.11401237967E+03  0.12279814331E+03  0.00000000000E+00 0. -1.
          2    1    1    2  502    0 -0.39095641812E+02  0.23496639649E+02  0.24159609318E+01  0.45677107512E+02  0.00000000000E+00 0. -1.
</event>
<event>
 4    1  0.6651744E+003  0.2197384E+02  0.7546771E-02  0.1505802E+00
          2   -1    0    0  502    0  0.00000000000E+00  0.00000000000E+00  0.45525149831E+00  0.45525149831E+00  0.00000000000E+00 0.  1.
          2   -1    0    0  501    0 -0.00000000000E+00 -0.00000000000E+00 -0.15927914556E+04  0.15927914556E+04  0.00000000000E+00 0. -1.
          2    1    1    2  501    0  0.32601065851E+01  0.21730659629E+02 -0.33570116673E+03  0.33641956425E+03  0.00000000000E+00 0.  1.
          2    1    1    2  502    0 -0.32601065851E+01 -0.21730659629E+02 -0.12566350374E+04  0.12568271429E+04  0.00000000000E+00 0. -1.
</event>
<event>
 4    1  0.6651744E+003  0.2131961E+02  0.7546771E-02  0.1514750E+00
          2   -1    0    0  502    0  0.00000000000E+00  0.00000000000E+00  0.18605306319E+02  0.18605306319E+02  0.00000000000E+00 0. -1.
          2   -1    0    0  501    0 -0.00000000000E+00 -0.00000000000E+00 -0.55874464382E+03  0.55874464382E+03  0.00000000000E+00 0. -1.
          2    1    1    2  501    0 -0.21286756948E+02 -0.11830573983E+01  0.12223931374E+02  0.24575397136E+02  0.00000000000E+00 0. -1.
          2    1    1    2  502    0  0.21286756948E+02  0.11830573983E+01 -0.55236326887E+03  0.55277455300E+03  0.00000000000E+00 0. -1.
</event>
<event>
 4    1  0.6651744E+003  0.3898536E+02  0.7546771E-02  0.1354536E+00
          2   -1    0    0  501    0  0.00000000000E+00  0.00000000000E+00  0.33543417291E+01  0.33543417291E+01  0.00000000000E+00 0. -1.
          2   -1    0    0  502    0 -0.00000000000E+00 -0.00000000000E+00 -0.19297027005E+04  0.19297027005E+04  0.00000000000E+00 0. -1.
          2    1    1    2  501    0  0.18864440470E+02 -0.34117310321E+02 -0.18086497223E+04  0.18090698373E+04  0.00000000000E+00 0. -1.
          2    1    1    2  502    0 -0.18864440470E+02  0.34117310321E+02 -0.11769863647E+03  0.12398720500E+03  0.00000000000E+00 0. -1.
</event>
<event>
 4    1  0.6651744E+003  0.2288478E+02  0.7546771E-02  0.1493950E+00
          2   -1    0    0  502    0  0.00000000000E+00  0.00000000000E+00  0.40725056169E+02  0.40725056169E+02  0.00000000000E+00 0. -1.
          2   -1    0    0  501    0 -0.00000000000E+00 -0.00000000000E+00 -0.33299248640E+03  0.33299248640E+03  0.00000000000E+00 0. -1.
          2    1    1    2  501    0  0.20896004991E+02  0.93311325757E+01  0.37081413337E+02  0.43574582899E+02  0.00000000000E+00 0. -1.
          2    1    1    2  502    0 -0.20896004991E+02 -0.93311325757E+01 -0.32934884357E+03  0.33014295967E+03  0.00000000000E+00 0. -1.
</event>
<event>
 4    1  0.6651744E+003  0.2321605E+02  0.7546771E-02  0.1489803E+00
          2   -1    0    0  502    0  0.00000000000E+00  0.00000000000E+00  0.14080954960E+02  0.14080954960E+02  0.00000000000E+00 0. -1.
          2   -1    0    0  501    0 -0.00000000000E+00 -0.00000000000E+00 -0.16161027750E+03  0.16161027750E+03  0.00000000000E+00 0. -1.
          2    1    1    2  501    0 -0.17415560166E+02  0.15351982482E+02  0.29758508609E+01  0.23405999025E+02  0.00000000000E+00 0. -1.
          2    1    1    2  502    0  0.17415560166E+02 -0.15351982482E+02 -0.15050517341E+03  0.15228523344E+03  0.00000000000E+00 0. -1.
</event>
<event>
 4    1  0.6651744E+003  0.2759979E+02  0.7546771E-02  0.1441674E+00
          2   -1    0    0  502    0  0.00000000000E+00  0.00000000000E+00  0.55922093219E+03  0.55922093219E+03  0.00000000000E+00 0. -1.
          2   -1    0    0  501    0 -0.00000000000E+00 -0.00000000000E+00 -0.41518036799E+01  0.41518036799E+01  0.00000000000E+00 0.  1.
          2    1    1    2  501    0  0.27491316795E+02 -0.24445712616E+01  0.50843342314E+03  0.50918198534E+03  0.00000000000E+00 0. -1.
          2    1    1    2  502    0 -0.27491316795E+02  0.24445712616E+01  0.46635705371E+02  0.54190750532E+02  0.00000000000E+00 0.  1.
</event>
<event>
 4    1  0.6651744E+003  0.2237171E+02  0.7546771E-02  0.1500542E+00
          2   -1    0    0  501    0  0.00000000000E+00  0.00000000000E+00  0.11485889841E+04  0.11485889841E+04  0.00000000000E+00 0. -1.
          2   -1    0    0  502    0 -0.00000000000E+00 -0.00000000000E+00 -0.10593396388E+01  0.10593396388E+01  0.00000000000E+00 0.  1.
          2    1    1    2  501    0 -0.19529190450E+02 -0.10913479575E+02  0.13273479173E+03  0.13460690269E+03  0.00000000000E+00 0.  1.
          2    1    1    2  502    0  0.19529190450E+02  0.10913479575E+02  0.10147948528E+04  0.10150414211E+04  0.00000000000E+00 0. -1.
</event>
<event>
 4    1  0.6651744E+003  0.2290247E+02  0.7546771E-02  0.1493726E+00
          2   -1    0    0  502    0  0.00000000000E+00  0.00000000000E+00  0.55190059193E+03  0.55190059193E+03  0.00000000000E+00 0.  1.
          2   -1    0    0  501    0 -0.00000000000E+00 -0.00000000000E+00 -0.85387958863E+01  0.85387958863E+01  0.00000000000E+00 0.  1.
          2    1    1    2  501    0 -0.20257306388E+02  0.10684795568E+02  0.53584602444E+03  0.53633523587E+03  0.00000000000E+00 0.  1.
          2    1    1    2  502    0  0.20257306388E+02 -0.10684795568E+02  0.75157715973E+01  0.24104151948E+02  0.00000000000E+00 0.  1.
</event>
<event>
 4    1  0.6651744E+003  0.3512450E+02  0.7546771E-02  0.1379690E+00
          2   -1    0    0  502    0  0.00000000000E+00  0.00000000000E+00  0.82621654071E+03  0.82621654071E+03  0.00000000000E+00 0. -1.
          2   -1    0    0  501    0 -0.00000000000E+00 -0.00000000000E+00 -0.91824915198E+01  0.91824915198E+01  0.00000000000E+00 0. -1.
          2    1    1    2  501    0  0.18441915542E+02 -0.29893577597E+02  0.79074815744E+03  0.79152787615E+03  0.00000000000E+00 0. -1.
          2    1    1    2  502    0 -0.18441915542E+02  0.29893577597E+02  0.26285891746E+02  0.43871156074E+02  0.00000000000E+00 0. -1.
</event>
<event>
 4    1  0.6651744E+003  0.3285812E+02  0.7546771E-02  0.1396281E+00
          2   -1    0    0  502    0  0.00000000000E+00  0.00000000000E+00  0.47383228217E+01  0.47383228217E+01  0.00000000000E+00 0. -1.
          2   -1    0    0  501    0 -0.00000000000E+00 -0.00000000000E+00 -0.48118476751E+03  0.48118476751E+03  0.00000000000E+00 0. -1.
          2    1    1    2  501    0 -0.32841320435E+02  0.10504258489E+01 -0.61934803927E+02  0.70111166441E+02  0.00000000000E+00 0. -1.
          2    1    1    2  502    0  0.32841320435E+02 -0.10504258489E+01 -0.41451164077E+03  0.41581192389E+03  0.00000000000E+00 0. -1.
</event>
<event>
 4    1  0.6651744E+003  0.2128316E+02  0.7546771E-02  0.1515260E+00
          2   -1    0    0  502    0  0.00000000000E+00  0.00000000000E+00  0.10713873815E+01  0.10713873815E+01  0.00000000000E+00 0. -1.
          2   -1    0    0  501    0 -0.00000000000E+00 -0.00000000000E+00 -0.16261118868E+04  0.16261118868E+04  0.00000000000E+00 0. -1.
          2    1    1    2  501    0 -0.20543694647E+02  0.55614444130E+01 -0.11264284552E+03  0.11463587441E+03  0.00000000000E+00 0. -1.
          2    1    1    2  502    0  0.20543694647E+02 -0.55614444130E+01 -0.15123976539E+04  0.15125473997E+04  0.00000000000E+00 0. -1.
</event>
<event>
 4    1  0.6651744E+003  0.2894641E+02  0.7546771E-02  0.1428978E+00
          2   -1    0    0  501    0  0.00000000000E+00  0.00000000000E+00  0.28481030243E+02  0.28481030243E+02  0.00000000000E+00 0.  1.
          2   -1    0    0  502    0 -0.00000000000E+00 -0.00000000000E+00 -0.11222959746E+03  0.11222959746E+03  0.00000000000E+00 0.  1.
          2    1    1    2  501    0  0.25416482984E+02  0.13852700930E+02 -0.10230880710E+03  0.10632491214E+03  0.00000000000E+00 0.  1.
          2    1    1    2  502    0 -0.25416482984E+02 -0.13852700930E+02  0.18560239886E+02  0.34385715566E+02  0.00000000000E+00 0.  1.
</event>
<event>
 4    1  0.6651744E+003  0.2338934E+02  0.7546771E-02  0.1487666E+00
          2   -1    0    0  502    0  0.00000000000E+00  0.00000000000E+00  0.17643977721E+04  0.17643977721E+04  0.00000000000E+00 0.  1.
          2   -1    0    0  501    0 -0.00000000000E+00 -0.00000000000E+00 -0.41851649626E+01  0.41851649626E+01  0.00000000000E+00 0.  1.
          2    1    1    2  501    0 -0.20121666990E+02 -0.11923919494E+02  0.17310114075E+04  0.17311694181E+04  0.00000000000E+00 0.  1.
          2    1    1    2  502    0  0.20121666990E+02  0.11923919494E+02  0.29201199586E+02  0.37413518891E+02  0.00000000000E+00 0.  1.
</event>
<event>
 4    1  0.7594749E+003  0.2317539E+02  0.7546771E-02  0.1490307E+00
          2   -1    0    0  501    0  0.00000000000E+00  0.00000000000E+00  0.40934169764E+03  0.40934169764E+03  0.00000000000E+00 0.  1.
          2   -1    0    0  502    0 -0.00000000000E+00 -0.00000000000E+00 -0.10042243006E+04  0.10042243006E+04  0.00000000000E+00 0. -1.
          2    1    1    2  501    0 -0.22928866773E+02 -0.33712917920E+01 -0.10037624141E+04  0.10040299211E+04  0.00000000000E+00 0. -1.
          2    1    1    2  502    0  0.22928866773E+02  0.33712917920E+01  0.40887981112E+03  0.40953607714E+03  0.00000000000E+00 0.  1.
</event>
<event>
 4    1  0.6651744E+003  0.2989941E+02  0.7546771E-02  0.1420473E+00
          2   -1    0    0  501    0  0.00000000000E+00  0.00000000000E+00  0.14633868183E+01  0.14633868183E+01  0.00000000000E+00 0.  1.
          2   -1    0    0  502    0 -0.00000000000E+00 -0.00000000000E+00 -0.85458240746E+03  0.85458240746E+03  0.00000000000E+00 0.  1.
          2    1    1    2  501    0 -0.29133194858E+02  0.67254398561E+01 -0.65512320397E+03  0.65580514406E+03  0.00000000000E+00 0.  1.
          2    1    1    2  502    0  0.29133194858E+02 -0.67254398561E+01 -0.19799581667E+03  0.20024065022E+03  0.00000000000E+00 0.  1.
</event>
<event>
 4    1  0.6651744E+003  0.2251946E+02  0.7546771E-02  0.1498622E+00
          2   -1    0    0  501    0  0.00000000000E+00  0.00000000000E+00  0.33027464290E+03  0.33027464290E+03  0.00000000000E+00 0. -1.
          2   -1    0    0  502    0 -0.00000000000E+00 -0.00000000000E+00 -0.25395824616E+01  0.25395824616E+01  0.00000000000E+00 0. -1.
          2    1    1    2  501    0  0.22137904387E+02  0.41278534227E+01  0.59231213923E+02  0.63367678569E+02  0.00000000000E+00 0. -1.
          2    1    1    2  502    0 -0.22137904387E+02 -0.41278534227E+01  0.26850384652E+03  0.26944654679E+03  0.00000000000E+00 0. -1.
</event>
<event>
 4    1  0.6651744E+003  0.2109547E+02  0.7546771E-02  0.1517906E+00
          2   -1    0    0  502    0  0.00000000000E+00  0.00000000000E+00  0.16007863211E+04  0.16007863211E+04  0.00000000000E+00 0.  1.
          2   -1    0    0  501    0 -0.00000000000E+00 -0.00000000000E+00 -0.35805991155E+00  0.35805991155E+00  0.00000000000E+00 0.  1.
          2    1    1    2  501    0 -0.19704909041E+01  0.21003242291E+02  0.11787695647E+04  0.11789583138E+04  0.00000000000E+00 0.  1.
          2    1    1    2  502    0  0.19704909041E+01 -0.21003242291E+02  0.42165869657E+03  0.42218606729E+03  0.00000000000E+00 0.  1.
</event>
<event>
 4    1  0.6651744E+003  0.2166888E+02  0.7546771E-02  0.1509925E+00
          2   -1    0    0  501    0  0.00000000000E+00  0.00000000000E+00  0.85241793058E+03  0.85241793058E+03  0.00000000000E+00 0. -1.
          2   -1    0    0  502    0 -0.00000000000E+00 -0.00000000000E+00 -0.24102557541E+01  0.24102557541E+01  0.00000000000E+00 0.  1.
          2    1    1    2  501    0  0.21247696891E+02  0.42515423708E+01  0.49593435364E+02  0.54120689823E+02  0.00000000000E+00 0.  1.
          2    1    1    2  502    0 -0.21247696891E+02 -0.42515423708E+01  0.80041423946E+03  0.80070749651E+03  0.00000000000E+00 0. -1.
</event>
<event>
 4    1  0.6651744E+003  0.2893232E+02  0.7546771E-02  0.1429107E+00
          2   -1    0    0  502    0  0.00000000000E+00  0.00000000000E+00  0.64723641089E+01  0.64723641089E+01  0.00000000000E+00 0.  1.
          2   -1    0    0  501    0 -0.00000000000E+00 -0.00000000000E+00 -0.67799129669E+03  0.67799129669E+03  0.00000000000E+00 0.  1.
          2    1    1    2  501    0 -0.14371681568E+02  0.25110430687E+02 -0.27894686719E+02  0.40189457666E+02  0.00000000000E+00 0.  1.
          2    1    1    2  502    0  0.14371681568E+02 -0.25110430687E+02 -0.64362424586E+03  0.64427420313E+03  0.00000000000E+00 0.  1.
</event>
<event>
 4    1  0.6651744E+003  0.2068643E+02  0.7546771E-02  0.1523789E+00
          2   -1    0    0  502    0  0.00000000000E+00  0.00000000000E+00  0.38198044472E+01  0.38198044472E+01  0.00000000000E+00 0.  1.
          2   -1    0    0  501    0 -0.00000000000E+00 -0.00000000000E+00 -0.36952634626E+03  0.36952634626E+03  0.00000000000E+00 0.  1.
          2    1    1    2  501    0  0.12701728511E+02 -0.16327716147E+02 -0.27025269414E+02  0.34033709887E+02  0.00000000000E+00 0.  1.
          2    1    1    2  502    0 -0.12701728511E+02  0.16327716147E+02 -0.33868127239E+03  0.33931244082E+03  0.00000000000E+00 0.  1.
</event>
<event>
 4    1  0.6651744E+003  0.4103571E+02  0.7546771E-02  0.1342521E+00
          2   -1    0    0  501    0  0.00000000000E+00  0.00000000000E+00  0.17375819265E+03  0.17375819265E+03  0.00000000000E+00 0.  1.
          2   -1    0    0  502    0 -0.00000000000E+00 -0.00000000000E+00 -0.12215253093E+04  0.12215253093E+04  0.00000000000E+00 0.  1.
          2    1    1    2  501    0 -0.40841959271E+02 -0.39829078189E+01 -0.12187523564E+04  0.12194430021E+04  0.00000000000E+00 0.  1.
          2    1    1    2  502    0  0.40841959271E+02  0.39829078189E+01  0.17098523971E+03  0.17584049986E+03  0.00000000000E+00 0.  1.
</event>
<event>
 4    1  0.6651744E+003  0.2927130E+02  0.7546771E-02  0.1426036E+00
          2   -1    0    0  501    0  0.00000000000E+00  0.00000000000E+00  0.65372629495E+00  0.65372629495E+00  0.00000000000E+00 0.  1.
          2   -1    0    0  502    0 -0.00000000000E+00 -0.00000000000E+00 -0.13262046241E+04  0.13262046241E+04  0.00000000000E+00 0. -1.
          2    1    1    2  501    0 -0.26342710949E+02 -0.12762078869E+02 -0.59093629559E+03  0.59166081036E+03  0.00000000000E+00 0.  1.
          2    1    1    2  502    0  0.26342710949E+02  0.12762078869E+02 -0.73461460223E+03  0.73519754005E+03  0.00000000000E+00 0. -1.
</event>
<event>
 4    1  0.9461035E+003  0.4247185E+02  0.7546771E-02  0.1334579E+00
          2   -1    0    0  501    0  0.00000000000E+00  0.00000000000E+00  0.97871104052E+03  0.97871104052E+03  0.00000000000E+00 0.  1.
          2   -1    0    0  502    0 -0.00000000000E+00 -0.00000000000E+00 -0.12319832744E+04  0.12319832744E+04  0.00000000000E+00 0. -1.
          2    1    1    2  501    0 -0.41753665182E+02  0.77775037415E+01 -0.12311561434E+04  0.12318885126E+04  0.00000000000E+00 0. -1.
          2    1    1    2  502    0  0.41753665182E+02 -0.77775037415E+01  0.97788390951E+03  0.97880580229E+03  0.00000000000E+00 0.  1.
</event>
<event>
 4    1  0.6651744E+003  0.2108969E+02  0.7546771E-02  0.1517988E+00
          2   -1    0    0  502    0  0.00000000000E+00  0.00000000000E+00  0.52208081520E+01  0.52208081520E+01  0.00000000000E+00 0. -1.
          2   -1    0    0  501    0 -0.00000000000E+00 -0.00000000000E+00 -0.13266125599E+03  0.13266125599E+03  0.00000000000E+00 0.  1.
          2    1    1    2  501    0  0.81599449642E+01  0.19447112163E+02 -0.22481176581E+02  0.30824960239E+02  0.00000000000E+00 0. -1.
          2    1    1    2  502    0 -0.81599449642E+01 -0.19447112163E+02 -0.10495927125E+03  0.10705710390E+03  0.00000000000E+00 0.  1.
</event>
<event>
 4    1  0.6651744E+003  0.2200657E+02  0.7546771E-02  0.1505364E+00
          2   -1    0    0  502    0  0.00000000000E+00  0.00000000000E+00  0.38249976055E+03  0.38249976055E+03  0.00000000000E+00 0. -1.
          2   -1    0    0  501    0 -0.00000000000E+00 -0.00000000000E+00 -0.13327683174E+01  0.13327683174E+01  0.00000000000E+00 0. -1.
          2    1    1    2  501    0  0.93264003788E+01  0.19932573227E+02  0.23350162487E+03  0.23453634694E+03  0.00000000000E+00 0. -1.
          2    1    1    2  502    0 -0.93264003788E+01 -0.19932573227E+02  0.14766536736E+03  0.14929618193E+03  0.00000000000E+00 0. -1.
</event>
<event>
 4    1  0.6651744E+003  0.2201619E+02  0.7546771E-02  0.1505236E+00
          2   -1    0    0  502    0  0.00000000000E+00  0.00000000000E+00  0.31750693613E+00  0.31750693613E+00  0.00000000000E+00 0. -1.
          2   -1    0    0  501    0 -0.00000000000E+00 -0.00000000000E+00 -0.15344538419E+04  0.15344538419E+04  0.00000000000E+00 0.  1.
          2    1    1    2  501    0  0.21561152590E+02 -0.44530078616E+01 -0.71223897562E+03  0.71257916822E+03  0.00000000000E+00 0. -1.
          2    1    1    2  502    0 -0.21561152590E+02  0.44530078616E+01 -0.82189735930E+03  0.82219218058E+03  0.00000000000E+00 0.  1.
</event>
<event>
 4    1  0.6651744E+003  0.2000087E+02  0.7546771E-02  0.1534022E+00
          2   -1    0    0  501    0  0.00000000000E+00  0.00000000000E+00  0.17247660381E+03  0.17247660381E+03  0.00000000000E+00 0.  1.
          2   -1    0    0  502    0 -0.00000000000E+00 -0.00000000000E+00 -0.18313830825E+03  0.18313830825E+03  0.00000000000E+00 0.  1.
          2    1    1    2  501    0  0.63141964077E+01 -0.18978030987E+02 -0.18200879873E+03  0.18310444438E+03  0.00000000000E+00 0.  1.
          2    1    1    2  502    0 -0.63141964077E+01  0.18978030987E+02  0.17134709429E+03  0.17251046768E+03  0.00000000000E+00 0.  1.
</event>
<event>
 4    1  0.6651744E+003  0.3328742E+02  0.7546771E-02  0.1393020E+00
          2   -1    0    0  501    0  0.00000000000E+00  0.00000000000E+00  0.13779166388E+03  0.13779166388E+03  0.00000000000E+00 0. -1.
          2   -1    0    0  502    0 -0.00000000000E+00 -0.00000000000E+00 -0.41864471485E+02  0.41864471485E+02  0.00000000000E+00 0.  1.
          2    1    1    2  501    0 -0.20312069025E+02 -0.26371802905E+02 -0.32777586911E+02  0.46716403332E+02  0.00000000000E+00 0.  1.
          2    1    1    2  502    0  0.20312069025E+02  0.26371802905E+02  0.12870477931E+03  0.13293973203E+03  0.00000000000E+00 0. -1.
</event>
<event>
 4    1  0.6651744E+003  0.2368169E+02  0.7546771E-02  0.1484111E+00
          2   -1    0    0  502    0  0.00000000000E+00  0.00000000000E+00  0.58333402802E+01  0.58333402802E+01  0.00000000000E+00 0.  1.
          2   -1    0    0  501    0 -0.00000000000E+00 -0.00000000000E+00 -0.10160874158E+04  0.10160874158E+04  0.00000000000E+00 0. -1.
          2    1    1    2  501    0  0.23277441050E+02 -0.43569933893E+01 -0.18940449060E+02  0.30324301539E+02  0.00000000000E+00 0.  1.
          2    1    1    2  502    0 -0.23277441050E+02  0.43569933893E+01 -0.99131362646E+03  0.99159645454E+03  0.00000000000E+00 0. -1.
</event>
<event>
 4    1  0.6651744E+003  0.2538179E+02  0.7546771E-02  0.1464577E+00
          2   -1    0    0  501    0  0.00000000000E+00  0.00000000000E+00  0.77275053337E+03  0.77275053337E+03  0.00000000000E+00 0.  1.
          2   -1    0    0  502    0 -0.00000000000E+00 -0.00000000000E+00 -0.15399999083E+01  0.15399999083E+01  0.00000000000E+00 0. -1.
          2    1    1    2  501    0  0.25154175638E+02  0.33915359443E+01  0.12341836788E+03  0.12600130396E+03  0.00000000000E+00 0. -1.
          2    1    1    2  502    0 -0.25154175638E+02 -0.33915359443E+01  0.64779216557E+03  0.64828922932E+03  0.00000000000E+00 0.  1.
</event>
<event>
 4    1  0.6651744E+003  0.2124854E+02  0.7546771E-02  0.1515746E+00
          2   -1    0    0  502    0  0.00000000000E+00  0.00000000000E+00  0.11267395337E+02  0.11267395337E+02  0.00000000000E+00 0. -1.
          2   -1    0    0  501    0 -0.00000000000E+00 -0.00000000000E+00 -0.24396623946E+03  0.24396623946E+03  0.00000000000E+00 0. -1.
          2    1    1    2  501    0  0.21256689623E+01 -0.21141944748E+02  0.31707588719E+00  0.21250901943E+02  0.00000000000E+00 0. -1.
          2    1    1    2  502    0 -0.21256689623E+01  0.21141944748E+02 -0.23301592001E+03  0.23398273286E+03  0.00000000000E+00 0. -1.
</event>
<event>
 4    1  0.6651744E+003  0.2121988E+02  0.7546771E-02  0.1516149E+00
          2   -1    0    0  501    0  0.00000000000E+00  0.00000000000E+00  0.10956541616E+03  0.10956541616E+03  0.00000000000E+00 0. -1.
          2   -1    0    0  502    0 -0.00000000000E+00 -0.00000000000E+00 -0.57165234295E+02  0.57165234295E+02  0.00000000000E+00 0. -1.
          2    1    1    2  501    0 -0.69662725058E+01  0.20043807543E+02 -0.54112700247E+02  0.58124586033E+02  0.00000000000E+00 0. -1.
          2    1    1    2  502    0  0.69662725058E+01 -0.20043807543E+02  0.10651288211E+03  0.10860606442E+03  0.00000000000E+00 0. -1.
</event>
<event>
 4    1  0.6651744E+003  0.2088946E+02  0.7546771E-02  0.1520849E+00
          2   -1    0    0  501    0  0.00000000000E+00  0.00000000000E+00  0.32133966491E+02  0.32133966491E+02  0.00000000000E+00 0.  1.
          2   -1    0    0  502    0 -0.00000000000E+00 -0.00000000000E+00 -0.25694945887E+03  0.25694945887E+03  0.00000000000E+00 0. -1.
          2    1    1    2  501    0 -0.20365976147E+02 -0.46472140361E+01 -0.25307812266E+03  0.25393878348E+03  0.00000000000E+00 0. -1.
          2    1    1    2  502    0  0.20365976147E+02  0.46472140361E+01  0.28262630284E+02  0.35144641885E+02  0.00000000000E+00 0.  1.
</event>
<event>
 4    1  0.6651744E+003  0.2305269E+02  0.7546771E-02  0.1491838E+00
          2   -1    0    0  501    0  0.00000000000E+00  0.00000000000E+00  0.62954216164E+00  0.62954216164E+00  0.00000000000E+00 0.  1.
          2   -1    0    0  502    0 -0.00000000000E+00 -0.00000000000E+00 -0.13294640231E+04  0.13294640231E+04  0.00000000000E+00 0. -1.
          2    1    1    2  501    0 -0.22386941361E+02  0.55001340198E+01 -0.10662323984E+04  0.10664815770E+04  0.00000000000E+00 0. -1.
          2    1    1    2  502    0  0.22386941361E+02 -0.55001340198E+01 -0.26260208250E+03  0.26361198826E+03  0.00000000000E+00 0.  1.
</event>
<event>
 4    1  0.6651744E+003  0.2680666E+02  0.7546771E-02  0.1449560E+00
          2   -1    0    0  502    0  0.00000000000E+00  0.00000000000E+00  0.57258147787E+03  0.57258147787E+03  0.00000000000E+00 0. -1.
          2   -1    0    0  501    0 -0.00000000000E+00 -0.00000000000E+00 -0.15066290488E+01  0.15066290488E+01  0.00000000000E+00 0. -1.
          2    1    1    2  501    0 -0.18956741579E+02  0.18953598710E+02  0.40284199153E+03  0.40373291554E+03  0.00000000000E+00 0. -1.
          2    1    1    2  502    0  0.18956741579E+02 -0.18953598710E+02  0.16823285729E+03  0.17035519137E+03  0.00000000000E+00 0. -1.
</event>
<event>
 4    1  0.6651744E+003  0.2051618E+02  0.7546771E-02  0.1526286E+00
          2   -1    0    0  501    0  0.00000000000E+00  0.00000000000E+00  0.41596445778E+01  0.41596445778E+01  0.00000000000E+00 0. -1.
          2   -1    0    0  502    0 -0.00000000000E+00 -0.00000000000E+00 -0.24558113066E+03  0.24558113066E+03  0.00000000000E+00 0.  1.
          2    1    1    2  501    0  0.16217614130E+01  0.20451977660E+02 -0.21645937092E+03  0.21742946617E+03  0.00000000000E+00 0.  1.
          2    1    1    2  502    0 -0.16217614130E+01 -0.20451977660E+02 -0.24962115165E+02  0.32311309069E+02  0.00000000000E+00 0. -1.
</event>
<event>
 4    1  0.6651744E+003  0.2496598E+02  0.7546771E-02  0.1469184E+00
          2   -1    0    0  501    0  0.00000000000E+00  0.00000000000E+00  0.30329336436E+03  0.30329336436E+03  0.00000000000E+00 0. -1.
          2   -1    0    0  502    0 -0.00000000000E+00 -0.00000000000E+00 -0.29888917914E+01  0.29888917914E+01  0.00000000000E+00 0. -1.
          2    1    1    2  501    0 -0.22095450900E+02 -0.11622864643E+02  0.64554863013E+02  0.69214379081E+02  0.00000000000E+00 0. -1.
          2    1    1    2  502    0  0.22095450900E+02  0.11622864643E+02  0.23574960956E+03  0.23706787707E+03  0.00000000000E+00 0. -1.
</event>
<event>
 4    1  0.6651744E+003  0.3167377E+02  0.7546771E-02  0.1405588E+00
          2   -1    0    0  501    0  0.00000000000E+00  0.00000000000E+00  0.90546847740E+02  0.90546847740E+02  0.00000000000E+00 0.  1.
          2   -1    0    0  502    0 -0.00000000000E+00 -0.00000000000E+00 -0.90487900205E+03  0.90487900205E+03  0.00000000000E+00 0. -1.
          2    1    1    2  501    0  0.22078869653E+02  0.22710154717E+02 -0.90182253222E+03  0.90237858310E+03  0.00000000000E+00 0. -1.
          2    1    1    2  502    0 -0.22078869653E+02 -0.22710154717E+02  0.87490377909E+02  0.93047266694E+02  0.00000000000E+00 0.  1.
</event>
<event>
 4    1  0.6651744E+003  0.2180819E+02  0.7546771E-02  0.1508032E+00
          2   -1    0    0  502    0  0.00000000000E+00  0.00000000000E+00  0.70674269628E+02  0.70674269628E+02  0.00000000000E+00 0.  1.
          2   -1    0    0  501    0 -0.00000000000E+00 -0.00000000000E+00 -0.11508120532E+04  0.11508120532E+04  0.00000000000E+00 0. -1.
          2    1    1    2  501    0  0.19485703060E+02 -0.97930910705E+01  0.68885977302E+02  0.72255623486E+02  0.00000000000E+00 0.  1.
          2    1    1    2  502    0 -0.19485703060E+02  0.97930910705E+01 -0.11490237609E+04  0.11492306993E+04  0.00000000000E+00 0. -1.
</event>
<event>
 4    1  0.6651744E+003  0.2066837E+02  0.7546771E-02  0.1524053E+00
          2   -1    0    0  502    0  0.00000000000E+00  0.00000000000E+00  0.20924516499E+02  0.20924516499E+02  0.00000000000E+00 0. -1.
          2   -1    0    0  501    0 -0.00000000000E+00 -0.00000000000E+00 -0.21444353288E+02  0.21444353288E+02  0.00000000000E+00 0. -1.
          2    1    1    2  501    0 -0.13878676908E+02  0.15315471622E+02 -0.49004595463E+01  0.21241371130E+02  0.00000000000E+00 0. -1.
          2    1    1    2  502    0  0.13878676908E+02 -0.15315471622E+02  0.43806227581E+01  0.21127498657E+02  0.00000000000E+00 0. -1.
</event>
<event>
 4    1  0.6651744E+003  0.2484758E+02  0.7546771E-02  0.1470516E+00
          2   -1    0    0  501    0  0.00000000000E+00  0.00000000000E+00  0.17216225570E+04  0.17216225570E+04  0.00000000000E+00 0. -1.
          2   -1    0    0  502    0 -0.00000000000E+00 -0.00000000000E+00 -0.26235093353E+02  0.26235093353E+02  0.00000000000E+00 0.  1.
          2    1    1    2  501    0  0.24186626775E+02 -0.56929299969E+01 -0.20241523150E+02  0.32048738292E+02  0.00000000000E+00 0.  1.
          2    1    1    2  502    0 -0.24186626775E+02  0.56929299969E+01  0.17156289868E+04  0.17158089121E+04  0.00000000000E+00 0. -1.
</event>
<event>
 4    1  0.6651744E+003  0.2065999E+02  0.7546771E-02  0.1524175E+00
          2   -1    0    0  502    0  0.00000000000E+00  0.00000000000E+00  0.18850496027E+01  0.18850496027E+01  0.00000000000E+00 0.  1.
          2   -1    0    0  501    0 -0.00000000000E+00 -0.00000000000E+00 -0.93153953615E+03  0.93153953615E+03  0.00000000000E+00 0. -1.
          2    1    1    2  501    0  0.61701115751E+01  0.19717120785E+02 -0.58780210302E+02  0.62305282697E+02  0.00000000000E+00 0.  1.
          2    1    1    2  502    0 -0.61701115751E+01 -0.19717120785E+02 -0.87087427624E+03  0.87111930305E+03  0.00000000000E+00 0. -1.
</event>
<event>
 4    1  0.6651744E+003  0.2792848E+02  0.7546771E-02  0.1438498E+00
          2   -1    0    0  501    0  0.00000000000E+00  0.00000000000E+00  0.20368780750E+03  0.20368780750E+03  0.00000000000E+00 0. -1.
          2   -1    0    0  502    0 -0.00000000000E+00 -0.00000000000E+00 -0.41414113621E+03  0.41414113621E+03  0.00000000000E+00 0.  1.
          2    1    1    2  501    0  0.27824987272E+02  0.24020776810E+01 -0.41270961815E+03  0.41365351299E+03  0.00000000000E+00 0.  1.
          2    1    1    2  502    0 -0.27824987272E+02 -0.24020776810E+01  0.20225628944E+03  0.20417543072E+03  0.00000000000E+00 0. -1.
</event>
<event>
 4    1  0.6651744E+003  0.2338012E+02  0.7546771E-02  0.1487779E+00
          2   -1    0    0  502    0  0.00000000000E+00  0.00000000000E+00  0.33373086642E+03  0.33373086642E+03  0.00000000000E+00 0. -1.
          2   -1    0    0  501    0 -0.00000000000E+00 -0.00000000000E+00 -0.11064674160E+02  0.11064674160E+02  0.00000000000E+00 0.  1.
          2    1    1    2  501    0  0.22861053494E+02 -0.48992201959E+01  0.32045978635E+03  0.32131153853E+03  0.00000000000E+00 0. -1.
          2    1    1    2  502    0 -0.22861053494E+02  0.48992201959E+01  0.22064059135E+01  0.23484002053E+02  0.00000000000E+00 0.  1.
</event>
<event>
 4    1  0.6651744E+003  0.2304166E+02  0.7546771E-02  0.1491976E+00
          2   -1    0    0  502    0  0.00000000000E+00  0.00000000000E+00  0.73272769893E+01  0.73272769893E+01  0.00000000000E+00 0. -1.
          2   -1    0    0  501    0 -0.00000000000E+00 -0.00000000000E+00 -0.17423283714E+03  0.17423283714E+03  0.00000000000E+00 0.  1.
          2    1    1    2  501    0  0.23036200660E+02 -0.50165043904E+00 -0.14070888919E+02  0.26998298261E+02  0.00000000000E+00 0. -1.
          2    1    1    2  502    0 -0.23036200660E+02  0.50165043904E+00 -0.15283467123E+03  0.15456181587E+03  0.00000000000E+00 0.  1.
</event>
<event>
 4    1  0.6651744E+003  0.3624785E+02  0.7546771E-02  0.1371996E+00
          2   -1    0    0  501    0  0.00000000000E+00  0.00000000000E+00  0.16106382923E+03  0.16106382923E+03  0.00000000000E+00 0.  1.
          2   -1    0    0  502    0 -0.00000000000E+00 -0.00000000000E+00 -0.82753139570E+03  0.82753139570E+03  0.00000000000E+00 0. -1.
          2    1    1    2  501    0  0.35939139513E+02 -0.47206639227E+01 -0.82508900729E+03  0.82588484449E+03  0.00000000000E+00 0. -1.
          2    1    1    2  502    0 -0.35939139513E+02  0.47206639227E+01  0.15862144081E+03  0.16271038044E+03  0.00000000000E+00 0.  1.
</event>
<event>
 4    1  0.6651744E+003  0.2907496E+02  0.7546771E-02  0.1427809E+00
          2   -1    0    0  501    0  0.00000000000E+00  0.00000000000E+00  0.41227915775E+01  0.41227915775E+01  0.00000000000E+00 0.  1.
          2   -1    0    0  502    0 -0.00000000000E+00 -0.00000000000E+00 -0.11207933239E+04  0.11207933239E+04  0.00000000000E+00 0.  1.
          2    1    1    2  501    0  0.24718668862E+02 -0.15308184247E+02 -0.10667471717E+04  0.10671433275E+04  0.00000000000E+00 0.  1.
          2    1    1    2  502    0 -0.24718668862E+02  0.15308184247E+02 -0.49923360639E+02  0.57772787995E+02  0.00000000000E+00 0.  1.
</event>
<event>
 4    1  0.6651744E+003  0.2240085E+02  0.7546771E-02  0.1500162E+00
          2   -1    0    0  501    0  0.00000000000E+00  0.00000000000E+00  0.10165828502E+04  0.10165828502E+04  0.00000000000E+00 0. -1.
          2   -1    0    0  502    0 -0.00000000000E+00 -0.00000000000E+00 -0.12088170756E+02  0.12088170756E+02  0.00000000000E+00 0.  1.
          2    1    1    2  501    0 -0.69395749015E+01 -0.21298831194E+02 -0.14774471600E+01  0.22449515811E+02  0.00000000000E+00 0.  1.
          2    1    1    2  502    0  0.69395749015E+01  0.21298831194E+02  0.10059721266E+04  0.10062215051E+04  0.00000000000E+00 0. -1.
</event>
<event>
 4    1  0.6651744E+003  0.3617753E+02  0.7546771E-02  0.1372469E+00
          2   -1    0    0  501    0  0.00000000000E+00  0.00000000000E+00  0.35553285128E+03  0.35553285128E+03  0.00000000000E+00 0. -1.
          2   -1    0    0  502    0 -0.00000000000E+00 -0.00000000000E+00 -0.14634725888E+02  0.14634725888E+02  0.00000000000E+00 0. -1.
          2    1    1    2  501    0  0.32024868539E+02  0.16829191128E+02  0.10326849246E+02  0.37622568949E+02  0.00000000000E+00 0. -1.
          2    1    1    2  502    0 -0.32024868539E+02 -0.16829191128E+02  0.33057127614E+03  0.33254500822E+03  0.00000000000E+00 0. -1.
</event>
<event>
 4    1  0.6651744E+003  0.2788915E+02  0.7546771E-02  0.1438875E+00
          2   -1    0    0  501    0  0.00000000000E+00  0.00000000000E+00  0.95660548267E+01  0.95660548267E+01  0.00000000000E+00 0. -1.
          2   -1    0    0  502    0 -0.00000000000E+00 -0.00000000000E+00 -0.21462005638E+03  0.21462005638E+03  0.00000000000E+00 0. -1.
          2    1    1    2  501    0  0.23736808320E+02 -0.14641338380E+02 -0.19087096735E+03  0.19289772170E+03  0.00000000000E+00 0. -1.
          2    1    1    2  502    0 -0.23736808320E+02  0.14641338380E+02 -0.14183034200E+02  0.31288389506E+02  0.00000000000E+00 0. -1.
</event>
<event>
 4    1  0.6651744E+003  0.4080755E+02  0.7546771E-02  0.1343817E+00
          2   -1    0    0  502    0  0.00000000000E+00  0.00000000000E+00  0.43489975671E+03  0.43489975671E+03  0.00000000000E+00 0. -1.
          2   -1    0    0  501    0 -0.00000000000E+00 -0.00000000000E+00 -0.56905261141E+01  0.56905261141E+01  0.00000000000E+00 0.  1.
          2    1    1    2  501    0  0.17858583822E+02  0.36692333399E+02  0.34060054681E+03  0.34303642494E+03  0.00000000000E+00 0. -1.
          2    1    1    2  502    0 -0.17858583822E+02 -0.36692333399E+02  0.88608683786E+02  0.97553857887E+02  0.00000000000E+00 0.  1.
</event>
<event>
 4    1  0.6651744E+003  0.3972475E+02  0.7546771E-02  0.1350106E+00
          2   -1    0    0  502    0  0.00000000000E+00  0.00000000000E+00  0.16142890945E+03  0.16142890945E+03  0.00000000000E+00 0.  1.
          2   -1    0    0  501    0 -0.00000000000E+00 -0.00000000000E+00 -0.66863275618E+02  0.66863275618E+02  0.00000000000E+00 0.  1.
          2    1    1    2  501    0  0.34974961578E+02  0.18836340835E+02  0.15275516434E+03  0.15783597786E+03  0.00000000000E+00 0.  1.
          2    1    1    2  502    0 -0.34974961578E+02 -0.18836340835E+02 -0.58189530510E+02  0.70456207210E+02  0.00000000000E+00 0.  1.
</event>
<event>
 4    1  0.6651744E+003  0.2433284E+02  0.7546771E-02  0.1476407E+00
          2   -1    0    0  501    0  0.00000000000E+00  0.00000000000E+00  0.56575898066E+02  0.56575898066E+02  0.00000000000E+00 0. -1.
          2   -1    0    0  502    0 -0.00000000000E+00 -0.00000000000E+00 -0.10653628147E+03  0.10653628147E+03  0.00000000000E+00 0.  1.
          2    1    1    2  501    0 -0.24197834231E+02  0.25596451362E+01 -0.10242701584E+03  0.10527763551E+03  0.00000000000E+00 0.  1.
          2    1    1    2  502    0  0.24197834231E+02 -0.25596451362E+01  0.52466632431E+02  0.57834544031E+02  0.00000000000E+00 0. -1.
</event>
<event>
 4    1  0.6651744E+003  0.3608096E+02  0.7546771E-02  0.1373119E+00
          2   -1    0    0  502    0  0.00000000000E+00  0.00000000000E+00  0.44390349546E+02  0.44390349546E+02  0.00000000000E+00 0.  1.
          2   -1    0    0  501    0 -0.00000000000E+00 -0.00000000000E+00 -0.56832783621E+03  0.56832783621E+03  0.00000000000E+00 0.  1.
          2    1    1    2  501    0  0.10986138448E+02  0.34367728807E+02  0.36381247097E+02  0.51238961364E+02  0.00000000000E+00 0.  1.
          2    1    1    2  502    0 -0.10986138448E+02 -0.34367728807E+02 -0.56031873376E+03  0.56147922439E+03  0.00000000000E+00 0.  1.
</event>
<event>
 4    1  0.6651744E+003  0.2028570E+02  0.7546771E-02  0.1529712E+00
          2   -1    0    0  502    0  0.00000000000E+00  0.00000000000E+00  0.97734909288E+01  0.97734909288E+01  0.00000000000E+00 0.  1.
          2   -1    0    0  501    0 -0.00000000000E+00 -0.00000000000E+00 -0.30792125984E+03  0.30792125984E+03  0.00000000000E+00 0. -1.
          2    1    1    2  501    0 -0.85768787666E+01  0.18383329127E+02 -0.14858174944E+01  0.20340041612E+02  0.00000000000E+00 0.  1.
          2    1    1    2  502    0  0.85768787666E+01 -0.18383329127E+02 -0.29666195142E+03  0.29735470916E+03  0.00000000000E+00 0. -1.
</event>
<event>
 4    1  0.6651744E+003  0.2147387E+02  0.7546771E-02  0.1512606E+00
          2   -1    0    0  501    0  0.00000000000E+00  0.00000000000E+00  0.58320418361E+03  0.58320418361E+03  0.00000000000E+00 0.  1.
          2   -1    0    0  502    0 -0.00000000000E+00 -0.00000000000E+00 -0.66854516716E+01  0.66854516716E+01  0.00000000000E+00 0. -1.
          2    1    1    2  501    0  0.21128785822E+02  0.38342406750E+01  0.11304536197E+02  0.24267664298E+02  0.00000000000E+00 0. -1.
          2    1    1    2  502    0 -0.21128785822E+02 -0.38342406750E+01  0.56521419574E+03  0.56562197098E+03  0.00000000000E+00 0.  1.
</event>
<event>
 4    1  0.6651744E+003  0.2109467E+02  0.7546771E-02  0.1517917E+00
          2   -1    0    0  502    0  0.00000000000E+00  0.00000000000E+00  0.22288959139E+03  0.22288959139E+03  0.00000000000E+00 0.  1.
          2   -1    0    0  501    0 -0.00000000000E+00 -0.00000000000E+00 -0.10224699843E+02  0.10224699843E+02  0.00000000000E+00 0.  1.
          2    1    1    2  501    0  0.20845455179E+02  0.32329747001E+01  0.21089295409E+03  0.21194533072E+03  0.00000000000E+00 0.  1.
          2    1    1    2  502    0 -0.20845455179E+02 -0.32329747001E+01  0.17719374565E+01  0.21168960517E+02  0.00000000000E+00 0.  1.
</event>
<event>
 4    1  0.6651744E+003  0.6338217E+02  0.7546771E-02  0.1248755E+00
          2   -1    0    0  502    0  0.00000000000E+00  0.00000000000E+00  0.98861608697E+03  0.98861608697E+03  0.00000000000E+00 0. -1.
          2   -1    0    0  501    0 -0.00000000000E+00 -0.00000000000E+00 -0.15071037021E+03  0.15071037021E+03  0.00000000000E+00 0.  1.
          2    1    1    2  501    0 -0.49499322086E+02 -0.39586827056E+02  0.98088377959E+03  0.98292944245E+03  0.00000000000E+00 0. -1.
          2    1    1    2  502    0  0.49499322086E+02  0.39586827056E+02 -0.14297806284E+03  0.15639701473E+03  0.00000000000E+00 0.  1.
</event>
<event>
 4    1  0.6651744E+003  0.2031393E+02  0.7546771E-02  0.1529290E+00
          2   -1    0    0  502    0  0.00000000000E+00  0.00000000000E+00  0.82692435270E+03  0.82692435270E+03  0.00000000000E+00 0.  1.
          2   -1    0    0  501    0 -0.00000000000E+00 -0.00000000000E+00 -0.10619389220E+03  0.10619389220E+03  0.00000000000E+00 0. -1.
          2    1    1    2  501    0  0.19627253243E+02 -0.52370577810E+01  0.82582683766E+03  0.82607664393E+03  0.00000000000E+00 0.  1.
          2    1    1    2  502    0 -0.19627253243E+02  0.52370577810E+01 -0.10509637717E+03  0.10704160097E+03  0.00000000000E+00 0. -1.
</event>
<event>
 4    1  0.6651744E+003  0.2367093E+02  0.7546771E-02  0.1484241E+00
          2   -1    0    0  502    0  0.00000000000E+00  0.00000000000E+00  0.45711652729E+02  0.45711652729E+02  0.00000000000E+00 0.  1.
          2   -1    0    0  501    0 -0.00000000000E+00 -0.00000000000E+00 -0.93941234362E+03  0.93941234362E+03  0.00000000000E+00 0. -1.
          2    1    1    2  501    0 -0.14766605478E+02  0.18500276988E+02  0.42487601058E+02  0.48636499974E+02  0.00000000000E+00 0.  1.
          2    1    1    2  502    0  0.14766605478E+02 -0.18500276988E+02 -0.93618829195E+03  0.93648749638E+03  0.00000000000E+00 0. -1.
</event>
<event>
 4    1  0.6651744E+003  0.2378520E+02  0.7546771E-02  0.1482867E+00
          2   -1    0    0  502    0  0.00000000000E+00  0.00000000000E+00  0.47338744652E+00  0.47338744652E+00  0.00000000000E+00 0. -1.
          2   -1    0    0  501    0 -0.00000000000E+00 -0.00000000000E+00 -0.12892929902E+04  0.12892929902E+04  0.00000000000E+00 0. -1.
          2    1    1    2  501    0  0.14759382572E+02 -0.18651975295E+02 -0.47008380176E+03  0.47068515616E+03  0.00000000000E+00 0. -1.
          2    1    1    2  502    0 -0.14759382572E+02  0.18651975295E+02 -0.81873580097E+03  0.81908122146E+03  0.00000000000E+00 0. -1.
</event>
<event>
 4    1  0.6651744E+003  0.2082555E+02  0.7546771E-02  0.1521770E+00
          2   -1    0    0  501    0  0.00000000000E+00  0.00000000000E+00  0.16273641649E+02  0.16273641649E+02  0.00000000000E+00 0. -1.
          2   -1    0    0  502    0 -0.00000000000E+00 -0.00000000000E+00 -0.80970582648E+02  0.80970582648E+02  0.00000000000E+00 0.  1.
          2    1    1    2  501    0  0.20040816732E+02 -0.56629551571E+01 -0.72172915666E+02  0.75117462365E+02  0.00000000000E+00 0.  1.
          2    1    1    2  502    0 -0.20040816732E+02  0.56629551571E+01  0.74759746671E+01  0.22126761932E+02  0.00000000000E+00 0. -1.
</event>
<event>
 4    1  0.6651744E+003  0.2306331E+02  0.7546771E-02  0.1491705E+00
          2   -1    0    0  502    0  0.00000000000E+00  0.00000000000E+00  0.68162976638E+01  0.68162976638E+01  0.00000000000E+00 0.  1.
          2   -1    0    0  501    0 -0.00000000000E+00 -0.00000000000E+00 -0.57871469121E+03  0.57871469121E+03  0.00000000000E+00 0.  1.
          2    1    1    2  501    0 -0.20801774808E+02  0.99600393267E+01 -0.13636924498E+02  0.26793318725E+02  0.00000000000E+00 0.  1.
          2    1    1    2  502    0  0.20801774808E+02 -0.99600393267E+01 -0.55826146905E+03  0.55873767015E+03  0.00000000000E+00 0.  1.
</event>
<event>
 4    1  0.6651744E+003  0.3043496E+02  0.7546771E-02  0.1415854E+00
          2   -1    0    0  502    0  0.00000000000E+00  0.00000000000E+00  0.13396647458E+03  0.13396647458E+03  0.00000000000E+00 0. -1.
          2   -1    0    0  501    0 -0.00000000000E+00 -0.00000000000E+00 -0.20751858174E+03  0.20751858174E+03  0.00000000000E+00 0. -1.
          2    1    1    2  501    0  0.20675560458E+02 -0.22334004051E+02  0.13109789061E+03  0.13458433586E+03  0.00000000000E+00 0. -1.
          2    1    1    2  502    0 -0.20675560458E+02  0.22334004051E+02 -0.20464999778E+03  0.20690072046E+03  0.00000000000E+00 0. -1.
</event>
<event>
 4    1  0.6651744E+003  0.4911293E+02  0.7546771E-02  0.1302065E+00
          2   -1    0    0  502    0  0.00000000000E+00  0.00000000000E+00  0.34529704123E+03  0.34529704123E+03  0.00000000000E+00 0. -1.
          2   -1    0    0  501    0 -0.00000000000E+00 -0.00000000000E+00 -0.16647348575E+02  0.16647348575E+02  0.00000000000E+00 0.  1.
          2    1    1    2  501    0  0.71444888614E+01 -0.48590491938E+02  0.30219458911E+03  0.30615951613E+03  0.00000000000E+00 0. -1.
          2    1    1    2  502    0 -0.71444888614E+01  0.48590491938E+02  0.26455103549E+02  0.55784873682E+02  0.00000000000E+00 0.  1.
</event>
<event>
 4    1  0.6651744E+003  0.2777639E+02  0.7546771E-02  0.1439961E+00
          2   -1    0    0  502    0  0.00000000000E+00  0.00000000000E+00  0.18598196459E+04  0.18598196459E+04  0.00000000000E+00 0.  1.
          2   -1    0    0  501    0 -0.00000000000E+00 -0.00000000000E+00 -0.59016460330E+01  0.59016460330E+01  0.00000000000E+00 0.  1.
          2    1    1    2  501    0 -0.76507670477E+01  0.26701936934E+02  0.18264358596E+04  0.18266470586E+04  0.00000000000E+00 0.  1.
          2    1    1    2  502    0  0.76507670477E+01 -0.26701936934E+02  0.27482140272E+02  0.39074233280E+02  0.00000000000E+00 0.  1.
</event>
<event>
 4    1  0.6651744E+003  0.2533688E+02  0.7546771E-02  0.1465070E+00
          2   -1    0    0  502    0  0.00000000000E+00  0.00000000000E+00  0.65477804088E+03  0.65477804088E+03  0.00000000000E+00 0.  1.
          2   -1    0    0  501    0 -0.00000000000E+00 -0.00000000000E+00 -0.12228763045E+02  0.12228763045E+02  0.00000000000E+00 0. -1.
          2    1    1    2  501    0  0.68468753347E+01 -0.24394220979E+02  0.64112973389E+03  0.64163018429E+03  0.00000000000E+00 0.  1.
          2    1    1    2  502    0 -0.68468753347E+01  0.24394220979E+02  0.14195439490E+01  0.25376619634E+02  0.00000000000E+00 0. -1.
</event>
<event>
 4    1  0.6651744E+003  0.2627240E+02  0.7546771E-02  0.1455057E+00
          2   -1    0    0  502    0  0.00000000000E+00  0.00000000000E+00  0.21886607577E+01  0.21886607577E+01  0.00000000000E+00 0. -1.
          2   -1    0    0  501    0 -0.00000000000E+00 -0.00000000000E+00 -0.56144369076E+03  0.56144369076E+03  0.00000000000E+00 0.  1.
          2    1    1    2  501    0 -0.18515517538E+02 -0.18639067251E+02 -0.93056191643E+02  0.96693815835E+02  0.00000000000E+00 0. -1.
          2    1    1    2  502    0  0.18515517538E+02  0.18639067251E+02 -0.46619883836E+03  0.46693853568E+03  0.00000000000E+00 0.  1.
</event>
<event>
 4    1  0.6651744E+003  0.3035260E+02  0.7546771E-02  0.1416557E+00
          2   -1    0    0  502    0  0.00000000000E+00  0.00000000000E+00  0.78373682993E+02  0.78373682993E+02  0.00000000000E+00 0.  1.
          2   -1    0    0  501    0 -0.00000000000E+00 -0.00000000000E+00 -0.44650021830E+03  0.44650021830E+03  0.00000000000E+00 0. -1.
          2    1    1    2  501    0  0.72447775512E+01  0.29475299075E+02  0.74896065812E+02  0.80812751045E+02  0.00000000000E+00 0.  1.
          2    1    1    2  502    0 -0.72447775512E+01 -0.29475299075E+02 -0.44302260112E+03  0.44406115025E+03  0.00000000000E+00 0. -1.
</event>
<event>
 4    1  0.6651744E+003  0.3152923E+02  0.7546771E-02  0.1406757E+00
          2   -1    0    0  502    0  0.00000000000E+00  0.00000000000E+00  0.20482888441E+01  0.20482888441E+01  0.00000000000E+00 0. -1.
          2   -1    0    0  501    0 -0.00000000000E+00 -0.00000000000E+00 -0.13989848199E+04  0.13989848199E+04  0.00000000000E+00 0. -1.
          2    1    1    2  501    0  0.25534198304E+02  0.18495872979E+02 -0.13235494486E+03  0.13605853163E+03  0.00000000000E+00 0. -1.
          2    1    1    2  502    0 -0.25534198304E+02 -0.18495872979E+02 -0.12645815862E+04  0.12649745771E+04  0.00000000000E+00 0. -1.
</event>
<event>
 4    1  0.6651744E+003  0.2127513E+02  0.7546771E-02  0.1515373E+00
          2   -1    0    0  501    0  0.00000000000E+00  0.00000000000E+00  0.39713197683E+02  0.39713197683E+02  0.00000000000E+00 0.  1.
          2   -1    0    0  502    0 -0.00000000000E+00 -0.00000000000E+00 -0.11952282850E+04  0.11952282850E+04  0.00000000000E+00 0. -1.
          2    1    1    2  501    0 -0.20926377192E+02 -0.38363638683E+01 -0.11922771847E+04  0.11924669874E+04  0.00000000000E+00 0. -1.
          2    1    1    2  502    0  0.20926377192E+02  0.38363638683E+01  0.36762097339E+02  0.42474495298E+02  0.00000000000E+00 0.  1.
</event>
<event>
 4    1  0.6651744E+003  0.3965697E+02  0.7546771E-02  0.1350508E+00
          2   -1    0    0  502    0  0.00000000000E+00  0.00000000000E+00  0.80905600580E+02  0.80905600580E+02  0.00000000000E+00 0. -1.
          2   -1    0    0  501    0 -0.00000000000E+00 -0.00000000000E+00 -0.52988683766E+03  0.52988683766E+03  0.00000000000E+00 0.  1.
          2    1    1    2  501    0  0.28822741179E+02 -0.27238290499E+02  0.75251679436E+02  0.85061684302E+02  0.00000000000E+00 0. -1.
          2    1    1    2  502    0 -0.28822741179E+02  0.27238290499E+02 -0.52423291651E+03  0.52573075394E+03  0.00000000000E+00 0.  1.
</event>
<event>
 4    1  0.6651744E+003  0.2049589E+02  0.7546771E-02  0.1526585E+00
          2   -1    0    0  501    0  0.00000000000E+00  0.00000000000E+00  0.78930256929E+02  0.78930256929E+02  0.00000000000E+00 0. -1.
          2   -1    0    0  502    0 -0.00000000000E+00 -0.00000000000E+00 -0.63878273031E+01  0.63878273031E+01  0.00000000000E+00 0. -1.
          2    1    1    2  501    0  0.19984621283E+02 -0.45493528085E+01  0.18847548422E+02  0.27844420991E+02  0.00000000000E+00 0. -1.
          2    1    1    2  502    0 -0.19984621283E+02  0.45493528085E+01  0.53694881204E+02  0.57473663241E+02  0.00000000000E+00 0. -1.
</event>
<event>
 4    1  0.6651744E+003  0.2315306E+02  0.7546771E-02  0.1490585E+00
          2   -1    0    0  501    0  0.00000000000E+00  0.00000000000E+00  0.10668660127E+01  0.10668660127E+01  0.00000000000E+00 0.  1.
          2   -1    0    0  502    0 -0.00000000000E+00 -0.00000000000E+00 -0.77095965753E+03  0.77095965753E+03  0.00000000000E+00 0. -1.
          2    1    1    2  501    0 -0.10426792554E+02  0.20672358120E+02 -0.61274603870E+03  0.61318331054E+03  0.00000000000E+00 0. -1.
          2    1    1    2  502    0  0.10426792554E+02 -0.20672358120E+02 -0.15714675282E+03  0.15884321300E+03  0.00000000000E+00 0.  1.
</event>
<event>
 4    1  0.6651744E+003  0.3259266E+02  0.7546771E-02  0.1398326E+00
          2   -1    0    0  502    0  0.00000000000E+00  0.00000000000E+00  0.55982369717E+01  0.55982369717E+01  0.00000000000E+00 0.  1.
          2   -1    0    0  501    0 -0.00000000000E+00 -0.00000000000E+00 -0.10541510683E+04  0.10541510683E+04  0.00000000000E+00 0.  1.
          2    1    1    2  501    0 -0.22817784734E+02 -0.23272954805E+02 -0.44456095609E+02  0.55123735018E+02  0.00000000000E+00 0.  1.
          2    1    1    2  502    0  0.22817784734E+02  0.23272954805E+02 -0.10040967357E+04  0.10046255702E+04  0.00000000000E+00 0.  1.
</event>
<event>
 4    1  0.6651744E+003  0.2245019E+02  0.7546771E-02  0.1499520E+00
          2   -1    0    0  502    0  0.00000000000E+00  0.00000000000E+00  0.74294064098E+00  0.74294064098E+00  0.00000000000E+00 0.  1.
          2   -1    0    0  501    0 -0.00000000000E+00 -0.00000000000E+00 -0.11061670850E+04  0.11061670850E+04  0.00000000000E+00 0. -1.
          2    1    1    2  501    0  0.14807740671E+02  0.16874292450E+02 -0.20853998728E+03  0.20974493373E+03  0.00000000000E+00 0.  1.
          2    1    1    2  502    0 -0.14807740671E+02 -0.16874292450E+02 -0.89688415712E+03  0.89716509196E+03  0.00000000000E+00 0. -1.
</event>
<event>
 4    1  0.6651744E+003  0.2592604E+02  0.7546771E-02  0.1458705E+00
          2   -1    0    0  502    0  0.00000000000E+00  0.00000000000E+00  0.87033632304E+02  0.87033632304E+02  0.00000000000E+00 0.  1.
          2   -1    0    0  501    0 -0.00000000000E+00 -0.00000000000E+00 -0.15866078295E+02  0.15866078295E+02  0.00000000000E+00 0.  1.
          2    1    1    2  501    0  0.76300603524E+01  0.24777846730E+02  0.72442819069E+02  0.76942326090E+02  0.00000000000E+00 0.  1.
          2    1    1    2  502    0 -0.76300603524E+01 -0.24777846730E+02 -0.12752650591E+01  0.25957384509E+02  0.00000000000E+00 0.  1.
</event>
<event>
 4    1  0.6651744E+003  0.2033700E+02  0.7546771E-02  0.1528945E+00
          2   -1    0    0  501    0  0.00000000000E+00  0.00000000000E+00  0.37286640413E+03  0.37286640413E+03  0.00000000000E+00 0.  1.
          2   -1    0    0  502    0 -0.00000000000E+00 -0.00000000000E+00 -0.12971935427E+02  0.12971935427E+02  0.00000000000E+00 0. -1.
          2    1    1    2  501    0  0.19744862788E+02 -0.48717706155E+01 -0.45394008006E+01  0.20837464219E+02  0.00000000000E+00 0. -1.
          2    1    1    2  502    0 -0.19744862788E+02  0.48717706155E+01  0.36443386951E+03  0.36500087534E+03  0.00000000000E+00 0.  1.
</event>
<event>
 4    1  0.6651744E+003  0.2730361E+02  0.7546771E-02  0.1444582E+00
          2   -1    0    0  501    0  0.00000000000E+00  0.00000000000E+00  0.67559478326E+03  0.67559478326E+03  0.00000000000E+00 0. -1.
          2   -1    0    0  502    0 -0.00000000000E+00 -0.00000000000E+00 -0.16720375095E+02  0.16720375095E+02  0.00000000000E+00 0.  1.
          2    1    1    2  501    0 -0.26843977182E+02  0.49888083775E+01 -0.51031823500E+01  0.27776425077E+02  0.00000000000E+00 0.  1.
          2    1    1    2  502    0  0.26843977182E+02 -0.49888083775E+01  0.66397759051E+03  0.66453873327E+03  0.00000000000E+00 0. -1.
</event>
<event>
 4    1  0.6651744E+003  0.2761099E+02  0.7546771E-02  0.1441565E+00
          2   -1    0    0  501    0  0.00000000000E+00  0.00000000000E+00  0.15137923076E+04  0.15137923076E+04  0.00000000000E+00 0.  1.
          2   -1    0    0  502    0 -0.00000000000E+00 -0.00000000000E+00 -0.42769671141E+01  0.42769671141E+01  0.00000000000E+00 0. -1.
          2    1    1    2  501    0 -0.18159128530E+02 -0.20799342228E+02  0.41810451187E+02  0.50104694536E+02  0.00000000000E+00 0. -1.
          2    1    1    2  502    0  0.18159128530E+02  0.20799342228E+02  0.14677048893E+04  0.14679645802E+04  0.00000000000E+00 0.  1.
</event>
<event>
 4    1  0.6651744E+003  0.8165929E+02  0.7546771E-02  0.1200047E+00
          2   -1    0    0  502    0  0.00000000000E+00  0.00000000000E+00  0.62640463489E+01  0.62640463489E+01  0.00000000000E+00 0.  1.
          2   -1    0    0  501    0 -0.00000000000E+00 -0.00000000000E+00 -0.11616193682E+04  0.11616193682E+04  0.00000000000E+00 0.  1.
          2    1    1    2  501    0  0.80754575678E+02  0.12121779845E+02 -0.40885421047E+03  0.41692925594E+03  0.00000000000E+00 0.  1.
          2    1    1    2  502    0 -0.80754575678E+02 -0.12121779845E+02 -0.74650111142E+03  0.75095415865E+03  0.00000000000E+00 0.  1.
</event>
<event>
 4    1  0.6651744E+003  0.2426631E+02  0.7546771E-02  0.1477181E+00
          2   -1    0    0  501    0  0.00000000000E+00  0.00000000000E+00  0.28136098769E+01  0.28136098769E+01  0.00000000000E+00 0.  1.
          2   -1    0    0  502    0 -0.00000000000E+00 -0.00000000000E+00 -0.56221493844E+03  0.56221493844E+03  0.00000000000E+00 0.  1.
          2    1    1    2  501    0 -0.18989648038E+02 -0.15107849368E+02 -0.50353763249E+03  0.50412201021E+03  0.00000000000E+00 0.  1.
          2    1    1    2  502    0  0.18989648038E+02  0.15107849368E+02 -0.55863696072E+02  0.60906538105E+02  0.00000000000E+00 0.  1.
</event>
<event>
 4    1  0.6651744E+003  0.3004281E+02  0.7546771E-02  0.1419225E+00
          2   -1    0    0  502    0  0.00000000000E+00  0.00000000000E+00  0.28839485293E+01  0.28839485293E+01  0.00000000000E+00 0.  1.
          2   -1    0    0  501    0 -0.00000000000E+00 -0.00000000000E+00 -0.54480683096E+03  0.54480683096E+03  0.00000000000E+00 0. -1.
          2    1    1    2  501    0  0.29523152106E+02  0.55636111582E+01 -0.92320261504E+02  0.97085534265E+02  0.00000000000E+00 0.  1.
          2    1    1    2  502    0 -0.29523152106E+02 -0.55636111582E+01 -0.44960262093E+03  0.45060524523E+03  0.00000000000E+00 0. -1.
</event>
<event>
 4    1  0.6651744E+003  0.2528106E+02  0.7546771E-02  0.1465684E+00
          2   -1    0    0  502    0  0.00000000000E+00  0.00000000000E+00  0.14345730224E+03  0.14345730224E+03  0.00000000000E+00 0.  1.
          2   -1    0    0  501    0 -0.00000000000E+00 -0.00000000000E+00 -0.57989533339E+03  0.57989533339E+03  0.00000000000E+00 0.  1.
          2    1    1    2  501    0  0.17145942357E+02  0.18578171421E+02  0.14206528445E+03  0.14429718237E+03  0.00000000000E+00 0.  1.
          2    1    1    2  502    0 -0.17145942357E+02 -0.18578171421E+02 -0.57850331560E+03  0.57905545326E+03  0.00000000000E+00 0.  1.
</event>
<event>
 4    1  0.6651744E+003  0.2060057E+02  0.7546771E-02  0.1525045E+00
          2   -1    0    0  502    0  0.00000000000E+00  0.00000000000E+00  0.65544128497E+03  0.65544128497E+03  0.00000000000E+00 0. -1.
          2   -1    0    0  501    0 -0.00000000000E+00 -0.00000000000E+00 -0.38392753521E+02  0.38392753521E+02  0.00000000000E+00 0.  1.
          2    1    1    2  501    0 -0.20296133613E+02 -0.35285387937E+01  0.65250354120E+03  0.65282865662E+03  0.00000000000E+00 0. -1.
          2    1    1    2  502    0  0.20296133613E+02  0.35285387937E+01 -0.35455009753E+02  0.41005381869E+02  0.00000000000E+00 0.  1.
</event>
<event>
 4    1  0.6651744E+003  0.2129638E+02  0.7546771E-02  0.1515075E+00
          2   -1    0    0  501    0  0.00000000000E+00  0.00000000000E+00  0.24725868152E+02  0.24725868152E+02  0.00000000000E+00 0.  1.
          2   -1    0    0  502    0 -0.00000000000E+00 -0.00000000000E+00 -0.75838621156E+03  0.75838621156E+03  0.00000000000E+00 0.  1.
          2    1    1    2  501    0  0.13824664252E+02 -0.16199216358E+02 -0.75362207927E+03  0.75392292332E+03  0.00000000000E+00 0.  1.
          2    1    1    2  502    0 -0.13824664252E+02  0.16199216358E+02  0.19961735858E+02  0.29189156390E+02  0.00000000000E+00 0.  1.
</event>
<event>
 4    1  0.6651744E+003  0.4201599E+02  0.7546771E-02  0.1337061E+00
          2   -1    0    0  501    0  0.00000000000E+00  0.00000000000E+00  0.60937620380E+03  0.60937620380E+03  0.00000000000E+00 0. -1.
          2   -1    0    0  502    0 -0.00000000000E+00 -0.00000000000E+00 -0.26023785920E+03  0.26023785920E+03  0.00000000000E+00 0. -1.
          2    1    1    2  501    0  0.13251400587E+02 -0.39871594825E+02 -0.25781094969E+03  0.26121223071E+03  0.00000000000E+00 0. -1.
          2    1    1    2  502    0 -0.13251400587E+02  0.39871594825E+02  0.60694929429E+03  0.60840183229E+03  0.00000000000E+00 0. -1.
</event>
<event>
 4    1  0.6651744E+003  0.2268996E+02  0.7546771E-02  0.1496428E+00
          2   -1    0    0  501    0  0.00000000000E+00  0.00000000000E+00  0.41045533554E+01  0.41045533554E+01  0.00000000000E+00 0.  1.
          2   -1    0    0  502    0 -0.00000000000E+00 -0.00000000000E+00 -0.62919631787E+03  0.62919631787E+03  0.00000000000E+00 0. -1.
          2    1    1    2  501    0 -0.15093133064E+02 -0.16942013475E+02 -0.59588173281E+03  0.59631357018E+03  0.00000000000E+00 0. -1.
          2    1    1    2  502    0  0.15093133064E+02  0.16942013475E+02 -0.29210031703E+02  0.36987301042E+02  0.00000000000E+00 0.  1.
</event>
<event>
 4    1  0.6651744E+003  0.3307363E+02  0.7546771E-02  0.1394637E+00
          2   -1    0    0  501    0  0.00000000000E+00  0.00000000000E+00  0.17960821405E+02  0.17960821405E+02  0.00000000000E+00 0. -1.
          2   -1    0    0  502    0 -0.00000000000E+00 -0.00000000000E+00 -0.41477625939E+03  0.41477625939E+03  0.00000000000E+00 0. -1.
          2    1    1    2  501    0 -0.32396369267E+02 -0.66588465322E+01 -0.39826093588E+03  0.39963187814E+03  0.00000000000E+00 0. -1.
          2    1    1    2  502    0  0.32396369267E+02  0.66588465322E+01  0.14454978903E+01  0.33105202657E+02  0.00000000000E+00 0. -1.
</event>
<event>
 4    1  0.6651744E+003  0.2069911E+02  0.7546771E-02  0.1523604E+00
          2   -1    0    0  501    0  0.00000000000E+00  0.00000000000E+00  0.86778907656E+00  0.86778907656E+00  0.00000000000E+00 0. -1.
          2   -1    0    0  502    0 -0.00000000000E+00 -0.00000000000E+00 -0.11140464450E+04  0.11140464450E+04  0.00000000000E+00 0.  1.
          2    1    1    2  501    0 -0.20085290718E+02  0.50034429969E+01 -0.97256365334E+03  0.97278389848E+03  0.00000000000E+00 0.  1.
          2    1    1    2  502    0  0.20085290718E+02 -0.50034429969E+01 -0.14061500257E+03  0.14213033558E+03  0.00000000000E+00 0. -1.
</event>
<event>
 4    1  0.6651744E+003  0.2096533E+02  0.7546771E-02  0.1519760E+00
          2   -1    0    0  502    0  0.00000000000E+00  0.00000000000E+00  0.11889402437E+04  0.11889402437E+04  0.00000000000E+00 0. -1.
          2   -1    0    0  501    0 -0.00000000000E+00 -0.00000000000E+00 -0.14811210745E+01  0.14811210745E+01  0.00000000000E+00 0. -1.
          2    1    1    2  501    0 -0.17481194347E+02  0.11573795063E+02  0.11093329804E+04  0.11095310750E+04  0.00000000000E+00 0. -1.
          2    1    1    2  502    0  0.17481194347E+02 -0.11573795063E+02  0.78126142214E+02  0.80890289808E+02  0.00000000000E+00 0. -1.
</event>
<event>
 4    1  0.6651744E+003  0.3775576E+02  0.7546771E-02  0.1362164E+00
          2   -1    0    0  501    0  0.00000000000E+00  0.00000000000E+00  0.18215898529E+01  0.18215898529E+01  0.00000000000E+00 0.  1.
          2   -1    0    0  502    0 -0.00000000000E+00 -0.00000000000E+00 -0.10610262868E+04  0.10610262868E+04  0.00000000000E+00 0. -1.
          2    1    1    2  501    0  0.37738527208E+02 -0.11407465043E+01 -0.80185163993E+03  0.80274002653E+03  0.00000000000E+00 0. -1.
          2    1    1    2  502    0 -0.37738527208E+02  0.11407465043E+01 -0.25735305702E+03  0.26010785012E+03  0.00000000000E+00 0.  1.
</event>
<event>
 4    1  0.6651744E+003  0.2135721E+02  0.7546771E-02  0.1514226E+00
          2   -1    0    0  501    0  0.00000000000E+00  0.00000000000E+00  0.12551748646E+02  0.12551748646E+02  0.00000000000E+00 0.  1.
          2   -1    0    0  502    0 -0.00000000000E+00 -0.00000000000E+00 -0.23403506816E+03  0.23403506816E+03  0.00000000000E+00 0. -1.
          2    1    1    2  501    0  0.18528934859E+02  0.10621149776E+02 -0.22405925077E+03  0.22507482779E+03  0.00000000000E+00 0. -1.
          2    1    1    2  502    0 -0.18528934859E+02 -0.10621149776E+02  0.25759312548E+01  0.21511989015E+02  0.00000000000E+00 0.  1.
</event>
<event>
 4    1  0.6651744E+003  0.2315807E+02  0.7546771E-02  0.1490523E+00
          2   -1    0    0  502    0  0.00000000000E+00  0.00000000000E+00  0.18471263788E+03  0.18471263788E+03  0.00000000000E+00 0. -1.
          2   -1    0    0  501    0 -0.00000000000E+00 -0.00000000000E+00 -0.12910787745E+04  0.12910787745E+04  0.00000000000E+00 0. -1.
          2    1    1    2  501    0 -0.86398042005E+01  0.21486039696E+02  0.18388247243E+03  0.18533499342E+03  0.00000000000E+00 0. -1.
          2    1    1    2  502    0  0.86398042005E+01 -0.21486039696E+02 -0.12902486090E+04  0.12904564189E+04  0.00000000000E+00 0. -1.
</event>
<event>
 4    1  0.6651744E+003  0.2085490E+02  0.7546771E-02  0.1521347E+00
          2   -1    0    0  501    0  0.00000000000E+00  0.00000000000E+00  0.92730134611E+03  0.92730134611E+03  0.00000000000E+00 0. -1.
          2   -1    0    0  502    0 -0.00000000000E+00 -0.00000000000E+00 -0.18017708677E+03  0.18017708677E+03  0.00000000000E+00 0.  1.
          2    1    1    2  501    0  0.18666486634E+02 -0.92999623186E+01 -0.17945588940E+03  0.18066361909E+03  0.00000000000E+00 0.  1.
          2    1    1    2  502    0 -0.18666486634E+02  0.92999623186E+01  0.92658014874E+03  0.92681481379E+03  0.00000000000E+00 0. -1.
</event>
<event>
 4    1  0.6651744E+003  0.2247384E+02  0.7546771E-02  0.1499213E+00
          2   -1    0    0  501    0  0.00000000000E+00  0.00000000000E+00  0.31112674370E+02  0.31112674370E+02  0.00000000000E+00 0. -1.
          2   -1    0    0  502    0 -0.00000000000E+00 -0.00000000000E+00 -0.33769378969E+03  0.33769378969E+03  0.00000000000E+00 0. -1.
          2    1    1    2  501    0  0.10620552511E+02  0.19805997023E+02 -0.33320686384E+03  0.33396390189E+03  0.00000000000E+00 0. -1.
          2    1    1    2  502    0 -0.10620552511E+02 -0.19805997023E+02  0.26625748527E+02  0.34842562166E+02  0.00000000000E+00 0. -1.
</event>
<event>
 4    1  0.6651744E+003  0.3921440E+02  0.7546771E-02  0.1353152E+00
          2   -1    0    0  501    0  0.00000000000E+00  0.00000000000E+00  0.16923820501E+03  0.16923820501E+03  0.00000000000E+00 0. -1.
          2   -1    0    0  502    0 -0.00000000000E+00 -0.00000000000E+00 -0.11455888558E+03  0.11455888558E+03  0.00000000000E+00 0. -1.
          2    1    1    2  501    0  0.38964826128E+02 -0.44171705705E+01 -0.10881518728E+03  0.11566552665E+03  0.00000000000E+00 0. -1.
          2    1    1    2  502    0 -0.38964826128E+02  0.44171705705E+01  0.16349450671E+03  0.16813156395E+03  0.00000000000E+00 0. -1.
</event>
<event>
 4    1  0.6651744E+003  0.2260910E+02  0.7546771E-02  0.1497466E+00
          2   -1    0    0  502    0  0.00000000000E+00  0.00000000000E+00  0.25567862434E+03  0.25567862434E+03  0.00000000000E+00 0.  1.
          2   -1    0    0  501    0 -0.00000000000E+00 -0.00000000000E+00 -0.19998696666E+01  0.19998696666E+01  0.00000000000E+00 0.  1.
          2    1    1    2  501    0  0.84418164750E+01 -0.20973966699E+02  0.12906353273E+03  0.13102887859E+03  0.00000000000E+00 0.  1.
          2    1    1    2  502    0 -0.84418164750E+01  0.20973966699E+02  0.12461522195E+03  0.12664961542E+03  0.00000000000E+00 0.  1.
</event>
<event>
 4    1  0.6651744E+003  0.2384273E+02  0.7546771E-02  0.1482179E+00
          2   -1    0    0  501    0  0.00000000000E+00  0.00000000000E+00  0.56684740101E+00  0.56684740101E+00  0.00000000000E+00 0. -1.
          2   -1    0    0  502    0 -0.00000000000E+00 -0.00000000000E+00 -0.13149449373E+04  0.13149449373E+04  0.00000000000E+00 0. -1.
          2    1    1    2  501    0 -0.47632117353E+01  0.23362098344E+02 -0.97762296287E+03  0.97791366354E+03  0.00000000000E+00 0. -1.
          2    1    1    2  502    0  0.47632117353E+01 -0.23362098344E+02 -0.33675512702E+03  0.33759812115E+03  0.00000000000E+00 0. -1.
</event>
<event>
 4    1  0.6651744E+003  0.3211509E+02  0.7546771E-02  0.1402065E+00
          2   -1    0    0  501    0  0.00000000000E+00  0.00000000000E+00  0.14807393127E+04  0.14807393127E+04  0.00000000000E+00 0. -1.
          2   -1    0    0  502    0 -0.00000000000E+00 -0.00000000000E+00 -0.63965821857E+01  0.63965821857E+01  0.00000000000E+00 0. -1.
          2    1    1    2  501    0  0.25223615652E+02 -0.19878337798E+02  0.35253831861E+02  0.47688696365E+02  0.00000000000E+00 0. -1.
          2    1    1    2  502    0 -0.25223615652E+02  0.19878337798E+02  0.14390888987E+04  0.14394471986E+04  0.00000000000E+00 0. -1.
</event>
<event>
 4    1  0.6651744E+003  0.2513401E+02  0.7546771E-02  0.1467310E+00
          2   -1    0    0  502    0  0.00000000000E+00  0.00000000000E+00  0.13203264193E+04  0.13203264193E+04  0.00000000000E+00 0.  1.
          2   -1    0    0  501    0 -0.00000000000E+00 -0.00000000000E+00 -0.16409447008E+01  0.16409447008E+01  0.00000000000E+00 0. -1.
          2    1    1    2  501    0 -0.69007638706E+01 -0.24168118013E+02  0.12156799143E+04  0.12159397076E+04  0.00000000000E+00 0.  1.
          2    1    1    2  502    0  0.69007638706E+01  0.24168118013E+02  0.10300556024E+03  0.10602765635E+03  0.00000000000E+00 0. -1.
</event>
<event>
 4    1  0.6651744E+003  0.2271956E+02  0.7546771E-02  0.1496050E+00
          2   -1    0    0  502    0  0.00000000000E+00  0.00000000000E+00  0.20576254960E+02  0.20576254960E+02  0.00000000000E+00 0. -1.
          2   -1    0    0  501    0 -0.00000000000E+00 -0.00000000000E+00 -0.50196819647E+03  0.50196819647E+03  0.00000000000E+00 0.  1.
          2    1    1    2  501    0 -0.22058767864E+01 -0.22612219041E+02  0.13963976680E+02  0.26667789317E+02  0.00000000000E+00 0. -1.
          2    1    1    2  502    0  0.22058767864E+01  0.22612219041E+02 -0.49535591819E+03  0.49587666212E+03  0.00000000000E+00 0.  1.
</event>
<event>
 4    1  0.6651744E+003  0.3627453E+02  0.7546771E-02  0.1371818E+00
          2   -1    0    0  502    0  0.00000000000E+00  0.00000000000E+00  0.10942683070E+03  0.10942683070E+03  0.00000000000E+00 0.  1.
          2   -1    0    0  501    0 -0.00000000000E+00 -0.00000000000E+00 -0.26948755707E+02  0.26948755707E+02  0.00000000000E+00 0. -1.
          2    1    1    2  501    0  0.35803438842E+02  0.58271208513E+01  0.91982310802E+02  0.98876625503E+02  0.00000000000E+00 0.  1.
          2    1    1    2  502    0 -0.35803438842E+02 -0.58271208513E+01 -0.95042358116E+01  0.37498960901E+02  0.00000000000E+00 0. -1.
</event>
<event>
 4    1  0.6651744E+003  0.2107345E+02  0.7546771E-02  0.1518219E+00
          2   -1    0    0  502    0  0.00000000000E+00  0.00000000000E+00  0.29914655894E+03  0.29914655894E+03  0.00000000000E+00 0.  1.
          2   -1    0    0  501    0 -0.00000000000E+00 -0.00000000000E+00 -0.15122057307E+01  0.15122057307E+01  0.00000000000E+00 0.  1.
          2    1    1    2  501    0  0.20936751848E+02  0.23964182502E+01  0.12847810786E+03  0.13019491003E+03  0.00000000000E+00 0.  1.
          2    1    1    2  502    0 -0.20936751848E+02 -0.23964182502E+01  0.16915624535E+03  0.17046385464E+03  0.00000000000E+00 0.  1.
</event>
<event>
 4    1  0.6651744E+003  0.8387333E+02  0.7546771E-02  0.1195130E+00
          2   -1    0    0  501    0  0.00000000000E+00  0.00000000000E+00  0.14570020588E+04  0.14570020588E+04  0.00000000000E+00 0. -1.
          2   -1    0    0  502    0 -0.00000000000E+00 -0.00000000000E+00 -0.31961232761E+03  0.31961232761E+03  0.00000000000E+00 0. -1.
          2    1    1    2  501    0 -0.19778816993E+02 -0.81507872031E+02 -0.31287718550E+03  0.32392417015E+03  0.00000000000E+00 0. -1.
          2    1    1    2  502    0  0.19778816993E+02  0.81507872031E+02  0.14502669167E+04  0.14526902163E+04  0.00000000000E+00 0. -1.
</event>
<event>
 4    1  0.6651744E+003  0.2112104E+02  0.7546771E-02  0.1517544E+00
          2   -1    0    0  502    0  0.00000000000E+00  0.00000000000E+00  0.74327102587E+00  0.74327102587E+00  0.00000000000E+00 0. -1.
          2   -1    0    0  501    0 -0.00000000000E+00 -0.00000000000E+00 -0.88071541831E+03  0.88071541831E+03  0.00000000000E+00 0.  1.
          2    1    1    2  501    0  0.19533698703E+02  0.80332436017E+01 -0.19124588904E+03  0.19240864966E+03  0.00000000000E+00 0. -1.
          2    1    1    2  502    0 -0.19533698703E+02 -0.80332436017E+01 -0.68872625823E+03  0.68905003967E+03  0.00000000000E+00 0.  1.
</event>
<event>
 4    1  0.6651744E+003  0.3320000E+02  0.7546771E-02  0.1393679E+00
          2   -1    0    0  502    0  0.00000000000E+00  0.00000000000E+00  0.15423397746E+02  0.15423397746E+02  0.00000000000E+00 0.  1.
          2   -1    0    0  501    0 -0.00000000000E+00 -0.00000000000E+00 -0.28804880810E+03  0.28804880810E+03  0.00000000000E+00 0. -1.
          2    1    1    2  501    0 -0.10826382466E+02 -0.31385183661E+02 -0.47392105562E+01  0.33536553601E+02  0.00000000000E+00 0.  1.
          2    1    1    2  502    0  0.10826382466E+02  0.31385183661E+02 -0.26788619980E+03  0.26993565224E+03  0.00000000000E+00 0. -1.
</event>
<event>
 4    1  0.6651744E+003  0.4852934E+02  0.7546771E-02  0.1304678E+00
          2   -1    0    0  501    0  0.00000000000E+00  0.00000000000E+00  0.96854876468E+01  0.96854876468E+01  0.00000000000E+00 0. -1.
          2   -1    0    0  502    0 -0.00000000000E+00 -0.00000000000E+00 -0.60373898364E+03  0.60373898364E+03  0.00000000000E+00 0.  1.
          2    1    1    2  501    0  0.48433657144E+02 -0.30459897731E+01 -0.53405947463E+03  0.53625984340E+03  0.00000000000E+00 0.  1.
          2    1    1    2  502    0 -0.48433657144E+02  0.30459897731E+01 -0.59994021361E+02  0.77164627888E+02  0.00000000000E+00 0. -1.
</event>
<event>
 4    1  0.6651744E+003  0.2494905E+02  0.7546771E-02  0.1469374E+00
          2   -1    0    0  501    0  0.00000000000E+00  0.00000000000E+00  0.17683967227E+02  0.17683967227E+02  0.00000000000E+00 0. -1.
          2   -1    0    0  502    0 -0.00000000000E+00 -0.00000000000E+00 -0.15206591718E+03  0.15206591718E+03  0.00000000000E+00 0. -1.
          2    1    1    2  501    0 -0.17564488725E+01  0.24887149508E+02 -0.14159725973E+03  0.14377843819E+03  0.00000000000E+00 0. -1.
          2    1    1    2  502    0  0.17564488725E+01 -0.24887149508E+02  0.72153097854E+01  0.25971446217E+02  0.00000000000E+00 0. -1.
</event>
<event>
 4    1  0.6651744E+003  0.8207266E+02  0.7546771E-02  0.1199116E+00
          2   -1    0    0  501    0  0.00000000000E+00  0.00000000000E+00  0.22788464066E+03  0.22788464066E+03  0.00000000000E+00 0.  1.
          2   -1    0    0  502    0 -0.00000000000E+00 -0.00000000000E+00 -0.11069911534E+04  0.11069911534E+04  0.00000000000E+00 0.  1.
          2    1    1    2  501    0 -0.56159821445E+02  0.59849781537E+02 -0.10980200210E+04  0.11010830525E+04  0.00000000000E+00 0.  1.
          2    1    1    2  502    0  0.56159821445E+02 -0.59849781537E+02  0.21891350829E+03  0.23379274156E+03  0.00000000000E+00 0.  1.
</event>
<event>
 4    1  0.6651744E+003  0.2333132E+02  0.7546771E-02  0.1488379E+00
          2   -1    0    0  502    0  0.00000000000E+00  0.00000000000E+00  0.45320326411E+03  0.45320326411E+03  0.00000000000E+00 0. -1.
          2   -1    0    0  501    0 -0.00000000000E+00 -0.00000000000E+00 -0.35201032727E+01  0.35201032727E+01  0.00000000000E+00 0.  1.
          2    1    1    2  501    0 -0.22877418944E+02 -0.45797450878E+01  0.41019242863E+03  0.41085542332E+03  0.00000000000E+00 0. -1.
          2    1    1    2  502    0  0.22877418944E+02  0.45797450878E+01  0.39490732204E+02  0.45867944064E+02  0.00000000000E+00 0.  1.
</event>
<event>
 4    1  0.6651744E+003  0.2244417E+02  0.7546771E-02  0.1499598E+00
          2   -1    0    0  501    0  0.00000000000E+00  0.00000000000E+00  0.84932581281E+02  0.84932581281E+02  0.00000000000E+00 0. -1.
          2   -1    0    0  502    0 -0.00000000000E+00 -0.00000000000E+00 -0.11983363253E+03  0.11983363253E+03  0.00000000000E+00 0.  1.
          2    1    1    2  501    0 -0.20322498614E+02  0.95255839918E+01 -0.11726779805E+03  0.11939630295E+03  0.00000000000E+00 0.  1.
          2    1    1    2  502    0  0.20322498614E+02 -0.95255839918E+01  0.82366746802E+02  0.85369910853E+02  0.00000000000E+00 0. -1.
</event>
<event>
 4    1  0.6651744E+003  0.2169931E+02  0.7546771E-02  0.1509510E+00
          2   -1    0    0  502    0  0.00000000000E+00  0.00000000000E+00  0.81898564068E+03  0.81898564068E+03  0.00000000000E+00 0. -1.
          2   -1    0    0  501    0 -0.00000000000E+00 -0.00000000000E+00 -0.35096764122E+01  0.35096764122E+01  0.00000000000E+00 0.  1.
          2    1    1    2  501    0 -0.21688868291E+02  0.67296158522E+00  0.78379625533E+03  0.78409656915E+03  0.00000000000E+00 0. -1.
          2    1    1    2  502    0  0.21688868291E+02 -0.67296158522E+00  0.31679708934E+02  0.38398747938E+02  0.00000000000E+00 0.  1.
</event>
<event>
 4    1  0.6651744E+003  0.2492573E+02  0.7546771E-02  0.1469636E+00
          2   -1    0    0  502    0  0.00000000000E+00  0.00000000000E+00  0.30407357212E+02  0.30407357212E+02  0.00000000000E+00 0.  1.
          2   -1    0    0  501    0 -0.00000000000E+00 -0.00000000000E+00 -0.27177658487E+03  0.27177658487E+03  0.00000000000E+00 0. -1.
          2    1    1    2  501    0 -0.17172516931E+02  0.18066449275E+02  0.24616814856E+02  0.35032549162E+02  0.00000000000E+00 0.  1.
          2    1    1    2  502    0  0.17172516931E+02 -0.18066449275E+02 -0.26598604251E+03  0.26715139292E+03  0.00000000000E+00 0. -1.
</event>
<event>
 4    1  0.6651744E+003  0.3207312E+02  0.7546771E-02  0.1402397E+00
          2   -1    0    0  501    0  0.00000000000E+00  0.00000000000E+00  0.18855059678E+04  0.18855059678E+04  0.00000000000E+00 0.  1.
          2   -1    0    0  502    0 -0.00000000000E+00 -0.00000000000E+00 -0.75575068367E+02  0.75575068367E+02  0.00000000000E+00 0. -1.
          2    1    1    2  501    0 -0.32073010234E+02 -0.83804690055E-01 -0.72029405650E+02  0.78847449464E+02  0.00000000000E+00 0. -1.
          2    1    1    2  502    0  0.32073010234E+02  0.83804690055E-01  0.18819603051E+04  0.18822335867E+04  0.00000000000E+00 0.  1.
</event>
<event>
 4    1  0.6651744E+003  0.2563706E+02  0.7546771E-02  0.1461801E+00
          2   -1    0    0  501    0  0.00000000000E+00  0.00000000000E+00  0.11569830864E+04  0.11569830864E+04  0.00000000000E+00 0. -1.
          2   -1    0    0  502    0 -0.00000000000E+00 -0.00000000000E+00 -0.86224453001E+01  0.86224453001E+01  0.00000000000E+00 0.  1.
          2    1    1    2  501    0  0.18676453371E+02 -0.17562714448E+02  0.10903287172E+02  0.27859298635E+02  0.00000000000E+00 0.  1.
          2    1    1    2  502    0 -0.18676453371E+02  0.17562714448E+02  0.11374573539E+04  0.11377462331E+04  0.00000000000E+00 0. -1.
</event>
<event>
 4    1  0.6651744E+003  0.2402026E+02  0.7546771E-02  0.1480069E+00
          2   -1    0    0  502    0  0.00000000000E+00  0.00000000000E+00  0.50119486683E+03  0.50119486683E+03  0.00000000000E+00 0.  1.
          2   -1    0    0  501    0 -0.00000000000E+00 -0.00000000000E+00 -0.50175056453E+03  0.50175056453E+03  0.00000000000E+00 0.  1.
          2    1    1    2  501    0  0.19285410650E+02 -0.14319428934E+02  0.50061925764E+03  0.50119518576E+03  0.00000000000E+00 0.  1.
          2    1    1    2  502    0 -0.19285410650E+02  0.14319428934E+02 -0.50117495534E+03  0.50175024561E+03  0.00000000000E+00 0.  1.
</event>
<event>
 4    1  0.6651744E+003  0.2258225E+02  0.7546771E-02  0.1497812E+00
          2   -1    0    0  502    0  0.00000000000E+00  0.00000000000E+00  0.10694080633E+04  0.10694080633E+04  0.00000000000E+00 0.  1.
          2   -1    0    0  501    0 -0.00000000000E+00 -0.00000000000E+00 -0.55721356709E+02  0.55721356709E+02  0.00000000000E+00 0. -1.
          2    1    1    2  501    0 -0.16267907066E+02 -0.15662475136E+02  0.10669956936E+04  0.10672346359E+04  0.00000000000E+00 0.  1.
          2    1    1    2  502    0  0.16267907066E+02  0.15662475136E+02 -0.53308987019E+02  0.57894784089E+02  0.00000000000E+00 0. -1.
</event>
<event>
 4    1  0.6651744E+003  0.2290758E+02  0.7546771E-02  0.1493662E+00
          2   -1    0    0  502    0  0.00000000000E+00  0.00000000000E+00  0.63194125482E+02  0.63194125482E+02  0.00000000000E+00 0.  1.
          2   -1    0    0  501    0 -0.00000000000E+00 -0.00000000000E+00 -0.94852297684E+01  0.94852297684E+01  0.00000000000E+00 0.  1.
          2    1    1    2  501    0 -0.79152531351E+01  0.21496646439E+02  0.39679071563E+02  0.45816872006E+02  0.00000000000E+00 0.  1.
          2    1    1    2  502    0  0.79152531351E+01 -0.21496646439E+02  0.14029824150E+02  0.26862483244E+02  0.00000000000E+00 0.  1.
</event>
<event>
 4    1  0.6651744E+003  0.2684859E+02  0.7546771E-02  0.1449135E+00
          2   -1    0    0  502    0  0.00000000000E+00  0.00000000000E+00  0.75067037502E+03  0.75067037502E+03  0.00000000000E+00 0.  1.
          2   -1    0    0  501    0 -0.00000000000E+00 -0.00000000000E+00 -0.21198586419E+01  0.21198586419E+01  0.00000000000E+00 0.  1.
          2    1    1    2  501    0 -0.81119825743E+01 -0.25593798966E+02  0.65265803645E+03  0.65321004229E+03  0.00000000000E+00 0.  1.
          2    1    1    2  502    0  0.81119825743E+01  0.25593798966E+02  0.95892479930E+02  0.99580191373E+02  0.00000000000E+00 0.  1.
</event>
<event>
 4    1  0.6651744E+003  0.3668817E+02  0.7546771E-02  0.1369068E+00
          2   -1    0    0  502    0  0.00000000000E+00  0.00000000000E+00  0.18498737108E+03  0.18498737108E+03  0.00000000000E+00 0.  1.
          2   -1    0    0  501    0 -0.00000000000E+00 -0.00000000000E+00 -0.10521764544E+02  0.10521764544E+02  0.00000000000E+00 0.  1.
          2    1    1    2  501    0  0.36597799105E+02  0.25734708953E+01  0.14152431224E+03  0.14620243708E+03  0.00000000000E+00 0.  1.
          2    1    1    2  502    0 -0.36597799105E+02 -0.25734708953E+01  0.32941294293E+02  0.49306698546E+02  0.00000000000E+00 0.  1.
</event>
<event>
 4    1  0.6651744E+003  0.2090799E+02  0.7546771E-02  0.1520583E+00
          2   -1    0    0  501    0  0.00000000000E+00  0.00000000000E+00  0.70071238402E+01  0.70071238402E+01  0.00000000000E+00 0. -1.
          2   -1    0    0  502    0 -0.00000000000E+00 -0.00000000000E+00 -0.10935905549E+03  0.10935905549E+03  0.00000000000E+00 0. -1.
          2    1    1    2  501    0  0.20841498808E+02 -0.16661412725E+01 -0.89308471719E+02  0.91723209822E+02  0.00000000000E+00 0. -1.
          2    1    1    2  502    0 -0.20841498808E+02  0.16661412725E+01 -0.13043459935E+02  0.24642969512E+02  0.00000000000E+00 0. -1.
</event>
<event>
 4    1  0.6651744E+003  0.4616710E+02  0.7546771E-02  0.1315704E+00
          2   -1    0    0  502    0  0.00000000000E+00  0.00000000000E+00  0.39235508720E+02  0.39235508720E+02  0.00000000000E+00 0. -1.
          2   -1    0    0  501    0 -0.00000000000E+00 -0.00000000000E+00 -0.12982711540E+03  0.12982711540E+03  0.00000000000E+00 0.  1.
          2    1    1    2  501    0 -0.19906303733E+02  0.41655014814E+02  0.19168521362E+02  0.49988332625E+02  0.00000000000E+00 0. -1.
          2    1    1    2  502    0  0.19906303733E+02 -0.41655014814E+02 -0.10976012804E+03  0.11907429150E+03  0.00000000000E+00 0.  1.
</event>
<event>
 4    1  0.6651744E+003  0.3300715E+02  0.7546771E-02  0.1395142E+00
          2   -1    0    0  501    0  0.00000000000E+00  0.00000000000E+00  0.56778032770E+03  0.56778032770E+03  0.00000000000E+00 0.  1.
          2   -1    0    0  502    0 -0.00000000000E+00 -0.00000000000E+00 -0.13771655758E+03  0.13771655758E+03  0.00000000000E+00 0.  1.
          2    1    1    2  501    0 -0.16106487577E+02  0.28810637145E+02 -0.13525048801E+03  0.13921984867E+03  0.00000000000E+00 0.  1.
          2    1    1    2  502    0  0.16106487577E+02 -0.28810637145E+02  0.56531425813E+03  0.56627703661E+03  0.00000000000E+00 0.  1.
</event>
<event>
 4    1  0.6651744E+003  0.2291776E+02  0.7546771E-02  0.1493533E+00
          2   -1    0    0  502    0  0.00000000000E+00  0.00000000000E+00  0.29853985641E+03  0.29853985641E+03  0.00000000000E+00 0.  1.
          2   -1    0    0  501    0 -0.00000000000E+00 -0.00000000000E+00 -0.21335474932E+02  0.21335474932E+02  0.00000000000E+00 0.  1.
          2    1    1    2  501    0  0.21189691649E+02 -0.87304537271E+01  0.29180383079E+03  0.29270240778E+03  0.00000000000E+00 0.  1.
          2    1    1    2  502    0 -0.21189691649E+02  0.87304537271E+01 -0.14599449317E+02  0.27172923560E+02  0.00000000000E+00 0.  1.
</event>
<event>
 4    1  0.6651744E+003  0.3151388E+02  0.7546771E-02  0.1406882E+00
          2   -1    0    0  501    0  0.00000000000E+00  0.00000000000E+00  0.94965637821E+03  0.94965637821E+03  0.00000000000E+00 0.  1.
          2   -1    0    0  502    0 -0.00000000000E+00 -0.00000000000E+00 -0.10596974304E+01  0.10596974304E+01  0.00000000000E+00 0.  1.
          2    1    1    2  501    0 -0.78867648565E+01 -0.30511038949E+02  0.52878947844E+03  0.52972770087E+03  0.00000000000E+00 0.  1.
          2    1    1    2  502    0  0.78867648565E+01  0.30511038949E+02  0.41980720235E+03  0.42098837478E+03  0.00000000000E+00 0.  1.
</event>
<event>
 4    1  0.6651744E+003  0.2052212E+02  0.7546771E-02  0.1526198E+00
          2   -1    0    0  502    0  0.00000000000E+00  0.00000000000E+00  0.36781791229E+02  0.36781791229E+02  0.00000000000E+00 0.  1.
          2   -1    0    0  501    0 -0.00000000000E+00 -0.00000000000E+00 -0.86297869171E+02  0.86297869171E+02  0.00000000000E+00 0.  1.
          2    1    1    2  501    0 -0.31769473700E+01  0.20274728226E+02  0.32553952241E+02  0.38482689690E+02  0.00000000000E+00 0.  1.
          2    1    1    2  502    0  0.31769473700E+01 -0.20274728226E+02 -0.82070030183E+02  0.84596970711E+02  0.00000000000E+00 0.  1.
</event>
<event>
 4    1  0.6651744E+003  0.3142686E+02  0.7546771E-02  0.1407589E+00
          2   -1    0    0  502    0  0.00000000000E+00  0.00000000000E+00  0.15768498288E+04  0.15768498288E+04  0.00000000000E+00 0. -1.
          2   -1    0    0  501    0 -0.00000000000E+00 -0.00000000000E+00 -0.36371385550E+01  0.36371385550E+01  0.00000000000E+00 0.  1.
          2    1    1    2  501    0  0.22837976657E+02 -0.21588750798E+02  0.15055944459E+04  0.15059224027E+04  0.00000000000E+00 0. -1.
          2    1    1    2  502    0 -0.22837976657E+02  0.21588750798E+02  0.67618244380E+02  0.74564564720E+02  0.00000000000E+00 0.  1.
</event>
<event>
 4    1  0.6651744E+003  0.2659474E+02  0.7546771E-02  0.1451722E+00
          2   -1    0    0  501    0  0.00000000000E+00  0.00000000000E+00  0.58551679934E+01  0.58551679934E+01  0.00000000000E+00 0. -1.
          2   -1    0    0  502    0 -0.00000000000E+00 -0.00000000000E+00 -0.15788507054E+03  0.15788507054E+03  0.00000000000E+00 0. -1.
          2    1    1    2  501    0  0.50880301126E+01 -0.26103485441E+02 -0.11569559743E+03  0.11871289428E+03  0.00000000000E+00 0. -1.
          2    1    1    2  502    0 -0.50880301126E+01  0.26103485441E+02 -0.36334305117E+02  0.45027344258E+02  0.00000000000E+00 0. -1.
</event>
<event>
 4    1  0.6651744E+003  0.2012455E+02  0.7546771E-02  0.1532140E+00
          2   -1    0    0  501    0  0.00000000000E+00  0.00000000000E+00  0.20850593975E+03  0.20850593975E+03  0.00000000000E+00 0. -1.
          2   -1    0    0  502    0 -0.00000000000E+00 -0.00000000000E+00 -0.54151342738E+02  0.54151342738E+02  0.00000000000E+00 0. -1.
          2    1    1    2  501    0  0.40123492009E+00 -0.20120553042E+02 -0.51774490290E+02  0.55548136683E+02  0.00000000000E+00 0. -1.
          2    1    1    2  502    0 -0.40123492009E+00  0.20120553042E+02  0.20612908730E+03  0.20710914581E+03  0.00000000000E+00 0. -1.
</event>
<event>
 4    1  0.6651744E+003  0.4124331E+02  0.7546771E-02  0.1341350E+00
          2   -1    0    0  502    0  0.00000000000E+00  0.00000000000E+00  0.25933080334E+03  0.25933080334E+03  0.00000000000E+00 0.  1.
          2   -1    0    0  501    0 -0.00000000000E+00 -0.00000000000E+00 -0.30307793324E+02  0.30307793324E+02  0.00000000000E+00 0.  1.
          2    1    1    2  501    0  0.34390327393E+02  0.22766553646E+02  0.24270557748E+03  0.24618490596E+03  0.00000000000E+00 0.  1.
          2    1    1    2  502    0 -0.34390327393E+02 -0.22766553646E+02 -0.13682567465E+02  0.43453690701E+02  0.00000000000E+00 0.  1.
</event>
<event>
 4    1  0.6651744E+003  0.2047995E+02  0.7546771E-02  0.1526821E+00
          2   -1    0    0  501    0  0.00000000000E+00  0.00000000000E+00  0.17651875911E+02  0.17651875911E+02  0.00000000000E+00 0. -1.
          2   -1    0    0  502    0 -0.00000000000E+00 -0.00000000000E+00 -0.63929596473E+02  0.63929596473E+02  0.00000000000E+00 0.  1.
          2    1    1    2  501    0  0.54524837679E+01  0.19740790237E+02 -0.55472398439E+02  0.59132185542E+02  0.00000000000E+00 0.  1.
          2    1    1    2  502    0 -0.54524837679E+01 -0.19740790237E+02  0.91946778771E+01  0.22449286841E+02  0.00000000000E+00 0. -1.
</event>
<event>
 4    1  0.6651744E+003  0.2428972E+02  0.7546771E-02  0.1476908E+00
          2   -1    0    0  502    0  0.00000000000E+00  0.00000000000E+00  0.12689179881E+04  0.12689179881E+04  0.00000000000E+00 0.  1.
          2   -1    0    0  501    0 -0.00000000000E+00 -0.00000000000E+00 -0.38730821354E+02  0.38730821354E+02  0.00000000000E+00 0.  1.
          2    1    1    2  501    0 -0.13172059995E+02 -0.20408024667E+02  0.12649816236E+04  0.12652148034E+04  0.00000000000E+00 0.  1.
          2    1    1    2  502    0  0.13172059995E+02  0.20408024667E+02 -0.34794456911E+02  0.42434006022E+02  0.00000000000E+00 0.  1.
</event>
<event>
 4    1  0.6651744E+003  0.2443817E+02  0.7546771E-02  0.1475188E+00
          2   -1    0    0  501    0  0.00000000000E+00  0.00000000000E+00  0.51456020257E+02  0.51456020257E+02  0.00000000000E+00 0. -1.
          2   -1    0    0  502    0 -0.00000000000E+00 -0.00000000000E+00 -0.16410506240E+03  0.16410506240E+03  0.00000000000E+00 0.  1.
          2    1    1    2  501    0 -0.23546906270E+02  0.65396860106E+01 -0.16022373130E+03  0.16207673602E+03  0.00000000000E+00 0.  1.
          2    1    1    2  502    0  0.23546906270E+02 -0.65396860106E+01  0.47574689150E+02  0.53484346642E+02  0.00000000000E+00 0. -1.
</event>
<event>
 4    1  0.6651744E+003  0.3107342E+02  0.7546771E-02  0.1410492E+00
          2   -1    0    0  502    0  0.00000000000E+00  0.00000000000E+00  0.25348300060E+02  0.25348300060E+02  0.00000000000E+00 0. -1.
          2   -1    0    0  501    0 -0.00000000000E+00 -0.00000000000E+00 -0.37900657379E+03  0.37900657379E+03  0.00000000000E+00 0. -1.
          2    1    1    2  501    0  0.31072262610E+02  0.26792687849E+00  0.14919530376E+02  0.34469547069E+02  0.00000000000E+00 0. -1.
          2    1    1    2  502    0 -0.31072262610E+02 -0.26792687849E+00 -0.36857780411E+03  0.36988532678E+03  0.00000000000E+00 0. -1.
</event>
<event>
 4    1  0.6651744E+003  0.2101082E+02  0.7546771E-02  0.1519110E+00
          2   -1    0    0  501    0  0.00000000000E+00  0.00000000000E+00  0.60894624503E+01  0.60894624503E+01  0.00000000000E+00 0. -1.
          2   -1    0    0  502    0 -0.00000000000E+00 -0.00000000000E+00 -0.15459322648E+03  0.15459322648E+03  0.00000000000E+00 0. -1.
          2    1    1    2  501    0  0.13200195906E+02  0.16346541117E+02 -0.13279976380E+03  0.13445159666E+03  0.00000000000E+00 0. -1.
          2    1    1    2  502    0 -0.13200195906E+02 -0.16346541117E+02 -0.15704000222E+02  0.26231092265E+02  0.00000000000E+00 0. -1.
</event>
<event>
 4    1  0.6651744E+003  0.3492614E+02  0.7546771E-02  0.1381083E+00
          2   -1    0    0  501    0  0.00000000000E+00  0.00000000000E+00  0.43330345669E+03  0.43330345669E+03  0.00000000000E+00 0. -1.
          2   -1    0    0  502    0 -0.00000000000E+00 -0.00000000000E+00 -0.40068679072E+01  0.40068679072E+01  0.00000000000E+00 0. -1.
          2    1    1    2  501    0  0.26176621402E+02  0.23121847076E+02  0.95404692929E+02  0.10159670641E+03  0.00000000000E+00 0. -1.
          2    1    1    2  502    0 -0.26176621402E+02 -0.23121847076E+02  0.33389189585E+03  0.33571361819E+03  0.00000000000E+00 0. -1.
</event>
<event>
 4    1  0.6651744E+003  0.2006454E+02  0.7546771E-02  0.1533051E+00
          2   -1    0    0  501    0  0.00000000000E+00  0.00000000000E+00  0.59402830076E+02  0.59402830076E+02  0.00000000000E+00 0.  1.
          2   -1    0    0  502    0 -0.00000000000E+00 -0.00000000000E+00 -0.10498226186E+02  0.10498226186E+02  0.00000000000E+00 0. -1.
          2    1    1    2  501    0  0.15269717479E+02  0.13016195401E+02  0.36444905945E+01  0.20392840074E+02  0.00000000000E+00 0. -1.
          2    1    1    2  502    0 -0.15269717479E+02 -0.13016195401E+02  0.45260113296E+02  0.49508216188E+02  0.00000000000E+00 0.  1.
</event>
<event>
 4    1  0.6651744E+003  0.2355683E+02  0.7546771E-02  0.1485622E+00
          2   -1    0    0  502    0  0.00000000000E+00  0.00000000000E+00  0.12276901038E+03  0.12276901038E+03  0.00000000000E+00 0. -1.
          2   -1    0    0  501    0 -0.00000000000E+00 -0.00000000000E+00 -0.81016760403E+02  0.81016760403E+02  0.00000000000E+00 0.  1.
          2    1    1    2  501    0 -0.19148755330E+02  0.13720408310E+02  0.11988582602E+03  0.12217829478E+03  0.00000000000E+00 0. -1.
          2    1    1    2  502    0  0.19148755330E+02 -0.13720408310E+02 -0.78133576041E+02  0.81607476005E+02  0.00000000000E+00 0.  1.
</event>
<event>
 4    1  0.6651744E+003  0.3204384E+02  0.7546771E-02  0.1402629E+00
          2   -1    0    0  501    0  0.00000000000E+00  0.00000000000E+00  0.52222289997E+03  0.52222289997E+03  0.00000000000E+00 0. -1.
          2   -1    0    0  502    0 -0.00000000000E+00 -0.00000000000E+00 -0.11733998528E+02  0.11733998528E+02  0.00000000000E+00 0.  1.
          2    1    1    2  501    0 -0.28970644387E+02 -0.13693417112E+02  0.11659207621E+02  0.34099047358E+02  0.00000000000E+00 0.  1.
          2    1    1    2  502    0  0.28970644387E+02  0.13693417112E+02  0.49882969382E+03  0.49985785114E+03  0.00000000000E+00 0. -1.
</event>
<event>
 4    1  0.6651744E+003  0.2262733E+02  0.7546771E-02  0.1497232E+00
          2   -1    0    0  501    0  0.00000000000E+00  0.00000000000E+00  0.67669822743E+03  0.67669822743E+03  0.00000000000E+00 0.  1.
          2   -1    0    0  502    0 -0.00000000000E+00 -0.00000000000E+00 -0.72048860598E+02  0.72048860598E+02  0.00000000000E+00 0. -1.
          2    1    1    2  501    0  0.80463292981E+01  0.21148351218E+02 -0.70077961461E+02  0.73640456659E+02  0.00000000000E+00 0. -1.
          2    1    1    2  502    0 -0.80463292981E+01 -0.21148351218E+02  0.67472732829E+03  0.67510663137E+03  0.00000000000E+00 0.  1.
</event>
<event>
 4    1  0.6651744E+003  0.3176165E+02  0.7546771E-02  0.1404881E+00
          2   -1    0    0  501    0  0.00000000000E+00  0.00000000000E+00  0.51116946016E+03  0.51116946016E+03  0.00000000000E+00 0.  1.
          2   -1    0    0  502    0 -0.00000000000E+00 -0.00000000000E+00 -0.27083642772E+03  0.27083642772E+03  0.00000000000E+00 0.  1.
          2    1    1    2  501    0 -0.20991538171E+02 -0.23836059577E+02 -0.26940925188E+03  0.27127504015E+03  0.00000000000E+00 0.  1.
          2    1    1    2  502    0  0.20991538171E+02  0.23836059577E+02  0.50974228431E+03  0.51073084773E+03  0.00000000000E+00 0.  1.
</event>
<event>
 4    1  0.6651744E+003  0.3418128E+02  0.7546771E-02  0.1386412E+00
          2   -1    0    0  501    0  0.00000000000E+00  0.00000000000E+00  0.24234745388E+03  0.24234745388E+03  0.00000000000E+00 0. -1.
          2   -1    0    0  502    0 -0.00000000000E+00 -0.00000000000E+00 -0.88898901109E+01  0.88898901109E+01  0.00000000000E+00 0. -1.
          2    1    1    2  501    0 -0.27246281761E+02  0.20639766968E+02  0.31743568166E+02  0.46647764900E+02  0.00000000000E+00 0. -1.
          2    1    1    2  502    0  0.27246281761E+02 -0.20639766968E+02  0.20171399561E+03  0.20458957909E+03  0.00000000000E+00 0. -1.
</event>
<event>
 4    1  0.6651744E+003  0.2062818E+02  0.7546771E-02  0.1524640E+00
          2   -1    0    0  501    0  0.00000000000E+00  0.00000000000E+00  0.75478516239E+02  0.75478516239E+02  0.00000000000E+00 0. -1.
          2   -1    0    0  502    0 -0.00000000000E+00 -0.00000000000E+00 -0.50631947597E+02  0.50631947597E+02  0.00000000000E+00 0. -1.
          2    1    1    2  501    0  0.16777783547E+02 -0.12001161819E+02 -0.47017909100E+02  0.51343993630E+02  0.00000000000E+00 0. -1.
          2    1    1    2  502    0 -0.16777783547E+02  0.12001161819E+02  0.71864477743E+02  0.74766470205E+02  0.00000000000E+00 0. -1.
</event>
<event>
 4    1  0.6651744E+003  0.4168816E+02  0.7546771E-02  0.1338867E+00
          2   -1    0    0  501    0  0.00000000000E+00  0.00000000000E+00  0.20749832638E+01  0.20749832638E+01  0.00000000000E+00 0.  1.
          2   -1    0    0  502    0 -0.00000000000E+00 -0.00000000000E+00 -0.92288132296E+03  0.92288132296E+03  0.00000000000E+00 0. -1.
          2    1    1    2  501    0 -0.40626255316E+02 -0.93493267018E+01 -0.31977505100E+03  0.32248098513E+03  0.00000000000E+00 0.  1.
          2    1    1    2  502    0  0.40626255316E+02  0.93493267018E+01 -0.60103128870E+03  0.60247532109E+03  0.00000000000E+00 0. -1.
</event>
<event>
 4    1  0.6651744E+003  0.4863839E+02  0.7546771E-02  0.1304186E+00
          2   -1    0    0  501    0  0.00000000000E+00  0.00000000000E+00  0.37053543813E+02  0.37053543813E+02  0.00000000000E+00 0. -1.
          2   -1    0    0  502    0 -0.00000000000E+00 -0.00000000000E+00 -0.37588152925E+03  0.37588152925E+03  0.00000000000E+00 0.  1.
          2    1    1    2  501    0 -0.45761429375E+02 -0.16479820368E+02 -0.35753133153E+03  0.36082453620E+03  0.00000000000E+00 0.  1.
          2    1    1    2  502    0  0.45761429375E+02  0.16479820368E+02  0.18703346089E+02  0.52110536869E+02  0.00000000000E+00 0. -1.
</event>
<event>
 4    1  0.6651744E+003  0.2779626E+02  0.7546771E-02  0.1439769E+00
          2   -1    0    0  501    0  0.00000000000E+00  0.00000000000E+00  0.61166297505E+03  0.61166297505E+03  0.00000000000E+00 0. -1.
          2   -1    0    0  502    0 -0.00000000000E+00 -0.00000000000E+00 -0.18211002610E+02  0.18211002610E+02  0.00000000000E+00 0. -1.
          2    1    1    2  501    0 -0.15698065468E+02 -0.22939105682E+02 -0.70922776164E+01  0.28686795407E+02  0.00000000000E+00 0. -1.
          2    1    1    2  502    0  0.15698065468E+02  0.22939105682E+02  0.60054425006E+03  0.60118718225E+03  0.00000000000E+00 0. -1.
</event>
<event>
 4    1  0.6651744E+003  0.4486566E+02  0.7546771E-02  0.1322113E+00
          2   -1    0    0  502    0  0.00000000000E+00  0.00000000000E+00  0.37573410581E+03  0.37573410581E+03  0.00000000000E+00 0.  1.
          2   -1    0    0  501    0 -0.00000000000E+00 -0.00000000000E+00 -0.26926137500E+02  0.26926137500E+02  0.00000000000E+00 0. -1.
          2    1    1    2  501    0  0.44172778288E+02  0.78544782506E+01  0.35459573791E+03  0.35742280917E+03  0.00000000000E+00 0.  1.
          2    1    1    2  502    0 -0.44172778288E+02 -0.78544782506E+01 -0.57877696050E+01  0.45237434137E+02  0.00000000000E+00 0. -1.
</event>
<event>
 4    1  0.6651744E+003  0.2331721E+02  0.7546771E-02  0.1488553E+00
          2   -1    0    0  502    0  0.00000000000E+00  0.00000000000E+00  0.46935126389E+02  0.46935126389E+02  0.00000000000E+00 0.  1.
          2   -1    0    0  501    0 -0.00000000000E+00 -0.00000000000E+00 -0.12402925679E+02  0.12402925679E+02  0.00000000000E+00 0. -1.
          2    1    1    2  501    0  0.45165220775E+01  0.22875604787E+02  0.24890179663E+02  0.34105913119E+02  0.00000000000E+00 0.  1.
          2    1    1    2  502    0 -0.45165220775E+01 -0.22875604787E+02  0.96420210475E+01  0.25232138949E+02  0.00000000000E+00 0. -1.
</event>
<event>
 4    1  0.6651744E+003  0.1036857E+03  0.7546771E-02  0.1157570E+00
          2   -1    0    0  501    0  0.00000000000E+00  0.00000000000E+00  0.91881596058E+03  0.91881596058E+03  0.00000000000E+00 0. -1.
          2   -1    0    0  502    0 -0.00000000000E+00 -0.00000000000E+00 -0.28746336258E+03  0.28746336258E+03  0.00000000000E+00 0.  1.
          2    1    1    2  501    0  0.43488294978E+02  0.94124899952E+02 -0.27506103905E+03  0.29395459478E+03  0.00000000000E+00 0.  1.
          2    1    1    2  502    0 -0.43488294978E+02 -0.94124899952E+02  0.90641363704E+03  0.91232472838E+03  0.00000000000E+00 0. -1.
</event>
<event>
 4    1  0.6651744E+003  0.3072673E+02  0.7546771E-02  0.1413384E+00
          2   -1    0    0  502    0  0.00000000000E+00  0.00000000000E+00  0.17753871479E+04  0.17753871479E+04  0.00000000000E+00 0. -1.
          2   -1    0    0  501    0 -0.00000000000E+00 -0.00000000000E+00 -0.49336372560E+02  0.49336372560E+02  0.00000000000E+00 0. -1.
          2    1    1    2  501    0 -0.19039361533E+02  0.24117102584E+02  0.17704567209E+04  0.17707233359E+04  0.00000000000E+00 0. -1.
          2    1    1    2  502    0  0.19039361533E+02 -0.24117102584E+02 -0.44405945563E+02  0.54000184499E+02  0.00000000000E+00 0. -1.
</event>
<event>
 4    1  0.6651744E+003  0.2134134E+02  0.7546771E-02  0.1514447E+00
          2   -1    0    0  502    0  0.00000000000E+00  0.00000000000E+00  0.82660652926E+01  0.82660652926E+01  0.00000000000E+00 0.  1.
          2   -1    0    0  501    0 -0.00000000000E+00 -0.00000000000E+00 -0.83975019258E+03  0.83975019258E+03  0.00000000000E+00 0.  1.
          2    1    1    2  501    0  0.17898174327E+01 -0.21266159142E+02 -0.58802933586E+01  0.22136639787E+02  0.00000000000E+00 0.  1.
          2    1    1    2  502    0 -0.17898174327E+01  0.21266159142E+02 -0.82560383393E+03  0.82587961808E+03  0.00000000000E+00 0.  1.
</event>
<event>
 4    1  0.6651744E+003  0.2003137E+02  0.7546771E-02  0.1533557E+00
          2   -1    0    0  501    0  0.00000000000E+00  0.00000000000E+00  0.88373268531E+01  0.88373268531E+01  0.00000000000E+00 0.  1.
          2   -1    0    0  502    0 -0.00000000000E+00 -0.00000000000E+00 -0.45457535543E+02  0.45457535543E+02  0.00000000000E+00 0. -1.
          2    1    1    2  501    0  0.10488861685E+02 -0.17065739397E+02 -0.19236120344E+02  0.27772000405E+02  0.00000000000E+00 0. -1.
          2    1    1    2  502    0 -0.10488861685E+02  0.17065739397E+02 -0.17384088345E+02  0.26522861991E+02  0.00000000000E+00 0.  1.
</event>
<event>
 4    1  0.6651744E+003  0.2253319E+02  0.7546771E-02  0.1498445E+00
          2   -1    0    0  501    0  0.00000000000E+00  0.00000000000E+00  0.94321235372E+01  0.94321235372E+01  0.00000000000E+00 0. -1.
          2   -1    0    0  502    0 -0.00000000000E+00 -0.00000000000E+00 -0.81897939540E+02  0.81897939540E+02  0.00000000000E+00 0.  1.
          2    1    1    2  501    0 -0.37465963148E+01 -0.22219537271E+02 -0.62965518853E+02  0.66876015020E+02  0.00000000000E+00 0.  1.
          2    1    1    2  502    0  0.37465963148E+01  0.22219537271E+02 -0.95002971495E+01  0.24454048057E+02  0.00000000000E+00 0. -1.
</event>
<event>
 4    1  0.6651744E+003  0.2023576E+02  0.7546771E-02  0.1530462E+00
          2   -1    0    0  501    0  0.00000000000E+00  0.00000000000E+00  0.13244328479E+01  0.13244328479E+01  0.00000000000E+00 0.  1.
          2   -1    0    0  502    0 -0.00000000000E+00 -0.00000000000E+00 -0.12936082018E+04  0.12936082018E+04  0.00000000000E+00 0. -1.
          2    1    1    2  501    0 -0.20164762880E+01 -0.20135036280E+02 -0.12109594625E+04  0.12111285256E+04  0.00000000000E+00 0. -1.
          2    1    1    2  502    0  0.20164762880E+01  0.20135036280E+02 -0.81324306498E+02  0.83804109028E+02  0.00000000000E+00 0.  1.
</event>
<event>
 4    1  0.6651744E+003  0.3385404E+02  0.7546771E-02  0.1388804E+00
          2   -1    0    0  501    0  0.00000000000E+00  0.00000000000E+00  0.96253825469E+01  0.96253825469E+01  0.00000000000E+00 0.  1.
          2   -1    0    0  502    0 -0.00000000000E+00 -0.00000000000E+00 -0.17981757920E+03  0.17981757920E+03  0.00000000000E+00 0. -1.
          2    1    1    2  501    0  0.19464945046E+02  0.27698589609E+02 -0.14015103663E+03  0.14418186092E+03  0.00000000000E+00 0. -1.
          2    1    1    2  502    0 -0.19464945046E+02 -0.27698589609E+02 -0.30041160025E+02  0.45261100821E+02  0.00000000000E+00 0.  1.
</event>
<event>
 4    1  0.6651744E+003  0.4553926E+02  0.7546771E-02  0.1318765E+00
          2   -1    0    0  502    0  0.00000000000E+00  0.00000000000E+00  0.13627128706E+03  0.13627128706E+03  0.00000000000E+00 0. -1.
          2   -1    0    0  501    0 -0.00000000000E+00 -0.00000000000E+00 -0.16327371132E+02  0.16327371132E+02  0.00000000000E+00 0.  1.
          2    1    1    2  501    0 -0.41726276699E+02  0.18241210185E+02  0.79857288827E+02  0.91929377758E+02  0.00000000000E+00 0. -1.
          2    1    1    2  502    0  0.41726276699E+02 -0.18241210185E+02  0.40086627102E+02  0.60669280436E+02  0.00000000000E+00 0.  1.
</event>
<event>
 4    1  0.6651744E+003  0.3078537E+02  0.7546771E-02  0.1412892E+00
          2   -1    0    0  502    0  0.00000000000E+00  0.00000000000E+00  0.24595211714E+03  0.24595211714E+03  0.00000000000E+00 0. -1.
          2   -1    0    0  501    0 -0.00000000000E+00 -0.00000000000E+00 -0.66146389462E+01  0.66146389462E+01  0.00000000000E+00 0. -1.
          2    1    1    2  501    0  0.30756997246E+02  0.13213393645E+01  0.20126106120E+03  0.20360194885E+03  0.00000000000E+00 0. -1.
          2    1    1    2  502    0 -0.30756997246E+02 -0.13213393645E+01  0.38076416995E+02  0.48964807245E+02  0.00000000000E+00 0. -1.
</event>
<event>
 4    1  0.6651744E+003  0.2319838E+02  0.7546771E-02  0.1490022E+00
          2   -1    0    0  501    0  0.00000000000E+00  0.00000000000E+00  0.22881637988E+03  0.22881637988E+03  0.00000000000E+00 0.  1.
          2   -1    0    0  502    0 -0.00000000000E+00 -0.00000000000E+00 -0.40459132928E+02  0.40459132928E+02  0.00000000000E+00 0. -1.
          2    1    1    2  501    0 -0.19289390062E+02 -0.12887372064E+02 -0.36487196052E+02  0.43237488403E+02  0.00000000000E+00 0. -1.
          2    1    1    2  502    0  0.19289390062E+02  0.12887372064E+02  0.22484444301E+03  0.22603802441E+03  0.00000000000E+00 0.  1.
</event>
<event>
 4    1  0.6651744E+003  0.2108126E+02  0.7546771E-02  0.1518108E+00
          2   -1    0    0  502    0  0.00000000000E+00  0.00000000000E+00  0.14764176773E+02  0.14764176773E+02  0.00000000000E+00 0. -1.
          2   -1    0    0  501    0 -0.00000000000E+00 -0.00000000000E+00 -0.27129733371E+03  0.27129733371E+03  0.00000000000E+00 0. -1.
          2    1    1    2  501    0 -0.20868527524E+02  0.29873305319E+01  0.65961156020E+01  0.22089099705E+02  0.00000000000E+00 0. -1.
          2    1    1    2  502    0  0.20868527524E+02 -0.29873305319E+01 -0.26312927254E+03  0.26397241078E+03  0.00000000000E+00 0. -1.
</event>
<event>
 4    1  0.6651744E+003  0.2617855E+02  0.7546771E-02  0.1456039E+00
          2   -1    0    0  501    0  0.00000000000E+00  0.00000000000E+00  0.93885778977E+01  0.93885778977E+01  0.00000000000E+00 0.  1.
          2   -1    0    0  502    0 -0.00000000000E+00 -0.00000000000E+00 -0.13393481615E+03  0.13393481615E+03  0.00000000000E+00 0.  1.
          2    1    1    2  501    0 -0.20492866761E+02 -0.16289840630E+02 -0.11061148430E+03  0.11366713225E+03  0.00000000000E+00 0.  1.
          2    1    1    2  502    0  0.20492866761E+02  0.16289840630E+02 -0.13934753952E+02  0.29656261793E+02  0.00000000000E+00 0.  1.
</event>
<event>
 4    1  0.6651744E+003  0.9178458E+02  0.7546771E-02  0.1178859E+00
          2   -1    0    0  501    0  0.00000000000E+00  0.00000000000E+00  0.83377962889E+01  0.83377962889E+01  0.00000000000E+00 0. -1.
          2   -1    0    0  502    0 -0.00000000000E+00 -0.00000000000E+00 -0.12102929273E+04  0.12102929273E+04  0.00000000000E+00 0.  1.
          2    1    1    2  501    0 -0.27463053474E+02  0.87579616794E+02 -0.84861068282E+03  0.85355989806E+03  0.00000000000E+00 0.  1.
          2    1    1    2  502    0  0.27463053474E+02 -0.87579616794E+02 -0.35334444821E+03  0.36507082555E+03  0.00000000000E+00 0. -1.
</event>
<event>
 4    1  0.6651744E+003  0.2107549E+02  0.7546771E-02  0.1518190E+00
          2   -1    0    0  501    0  0.00000000000E+00  0.00000000000E+00  0.78919632182E+01  0.78919632182E+01  0.00000000000E+00 0.  1.
          2   -1    0    0  502    0 -0.00000000000E+00 -0.00000000000E+00 -0.37790117405E+03  0.37790117405E+03  0.00000000000E+00 0.  1.
          2    1    1    2  501    0  0.61879650674E+01 -0.20146601246E+02 -0.36295799470E+03  0.36356936391E+03  0.00000000000E+00 0.  1.
          2    1    1    2  502    0 -0.61879650674E+01  0.20146601246E+02 -0.70512161270E+01  0.22223773359E+02  0.00000000000E+00 0.  1.
</event>
<event>
 4    1  0.6651744E+003  0.2650083E+02  0.7546771E-02  0.1452688E+00
          2   -1    0    0  502    0  0.00000000000E+00  0.00000000000E+00  0.14169675251E+02  0.14169675251E+02  0.00000000000E+00 0. -1.
          2   -1    0    0  501    0 -0.00000000000E+00 -0.00000000000E+00 -0.22397091387E+03  0.22397091387E+03  0.00000000000E+00 0. -1.
          2    1    1    2  501    0  0.47190380114E+01 -0.26077282953E+02  0.17222786366E+00  0.26501389933E+02  0.00000000000E+00 0. -1.
          2    1    1    2  502    0 -0.47190380114E+01  0.26077282953E+02 -0.20997346648E+03  0.21163919919E+03  0.00000000000E+00 0. -1.
</event>
<event>
 4    1  0.6651744E+003  0.2659819E+02  0.7546771E-02  0.1451687E+00
          2   -1    0    0  501    0  0.00000000000E+00  0.00000000000E+00  0.17101792781E+01  0.17101792781E+01  0.00000000000E+00 0. -1.
          2   -1    0    0  502    0 -0.00000000000E+00 -0.00000000000E+00 -0.46867450037E+03  0.46867450037E+03  0.00000000000E+00 0. -1.
          2    1    1    2  501    0  0.25246133845E+02  0.83723618755E+01 -0.31404868621E+03  0.31517303348E+03  0.00000000000E+00 0. -1.
          2    1    1    2  502    0 -0.25246133845E+02 -0.83723618755E+01 -0.15291563488E+03  0.15521164617E+03  0.00000000000E+00 0. -1.
</event>
<event>
 4    1  0.6651744E+003  0.2120433E+02  0.7546771E-02  0.1516367E+00
          2   -1    0    0  501    0  0.00000000000E+00  0.00000000000E+00  0.30113309402E+01  0.30113309402E+01  0.00000000000E+00 0. -1.
          2   -1    0    0  502    0 -0.00000000000E+00 -0.00000000000E+00 -0.42642513642E+03  0.42642513642E+03  0.00000000000E+00 0.  1.
          2    1    1    2  501    0 -0.20574748535E+02  0.51286868484E+01 -0.38479896864E+03  0.38538275775E+03  0.00000000000E+00 0.  1.
          2    1    1    2  502    0  0.20574748535E+02 -0.51286868484E+01 -0.38614836838E+02  0.44053709606E+02  0.00000000000E+00 0. -1.
</event>
<event>
 4    1  0.6651744E+003  0.3546309E+02  0.7546771E-02  0.1377336E+00
          2   -1    0    0  502    0  0.00000000000E+00  0.00000000000E+00  0.99528757593E+01  0.99528757593E+01  0.00000000000E+00 0. -1.
          2   -1    0    0  501    0 -0.00000000000E+00 -0.00000000000E+00 -0.20015176108E+04  0.20015176108E+04  0.00000000000E+00 0.  1.
          2    1    1    2  501    0  0.32667508283E+02 -0.13800897384E+02 -0.22311366870E+02  0.41897827601E+02  0.00000000000E+00 0. -1.
          2    1    1    2  502    0 -0.32667508283E+02  0.13800897384E+02 -0.19692533681E+04  0.19695726589E+04  0.00000000000E+00 0.  1.
</event>
<event>
 4    1  0.6651744E+003  0.5563522E+02  0.7546771E-02  0.1275430E+00
          2   -1    0    0  502    0  0.00000000000E+00  0.00000000000E+00  0.30968346071E+02  0.30968346071E+02  0.00000000000E+00 0.  1.
          2   -1    0    0  501    0 -0.00000000000E+00 -0.00000000000E+00 -0.11942958517E+04  0.11942958517E+04  0.00000000000E+00 0.  1.
          2    1    1    2  501    0 -0.22523487932E+02  0.50872091863E+02  0.47729474067E+01  0.55839576164E+02  0.00000000000E+00 0.  1.
          2    1    1    2  502    0  0.22523487932E+02 -0.50872091863E+02 -0.11681004530E+04  0.11694246216E+04  0.00000000000E+00 0.  1.
</event>
<event>
 4    1  0.6651744E+003  0.2083180E+02  0.7546771E-02  0.1521680E+00
          2   -1    0    0  502    0  0.00000000000E+00  0.00000000000E+00  0.69893010945E+01  0.69893010945E+01  0.00000000000E+00 0.  1.
          2   -1    0    0  501    0 -0.00000000000E+00 -0.00000000000E+00 -0.15562604318E+03  0.15562604318E+03  0.00000000000E+00 0. -1.
          2    1    1    2  501    0 -0.21641231764E+01  0.20719080963E+02 -0.11283548063E+02  0.23691395104E+02  0.00000000000E+00 0.  1.
          2    1    1    2  502    0  0.21641231764E+01 -0.20719080963E+02 -0.13735319402E+03  0.13892394917E+03  0.00000000000E+00 0. -1.
</event>
<event>
 4    1  0.6651744E+003  0.2357675E+02  0.7546771E-02  0.1485380E+00
          2   -1    0    0  501    0  0.00000000000E+00  0.00000000000E+00  0.55563861265E+03  0.55563861265E+03  0.00000000000E+00 0. -1.
          2   -1    0    0  502    0 -0.00000000000E+00 -0.00000000000E+00 -0.46702209458E+01  0.46702209458E+01  0.00000000000E+00 0. -1.
          2    1    1    2  501    0  0.21139547402E+02 -0.10439468148E+02  0.27141738052E+02  0.35951869270E+02  0.00000000000E+00 0. -1.
          2    1    1    2  502    0 -0.21139547402E+02  0.10439468148E+02  0.52382665366E+03  0.52435696433E+03  0.00000000000E+00 0. -1.
</event>
<event>
 4    1  0.6651744E+003  0.3089366E+02  0.7546771E-02  0.1411986E+00
          2   -1    0    0  502    0  0.00000000000E+00  0.00000000000E+00  0.19045320543E+02  0.19045320543E+02  0.00000000000E+00 0. -1.
          2   -1    0    0  501    0 -0.00000000000E+00 -0.00000000000E+00 -0.91823381392E+03  0.91823381392E+03  0.00000000000E+00 0.  1.
          2    1    1    2  501    0 -0.12484858618E+02 -0.28258562886E+02  0.60778109740E+01  0.31485835820E+02  0.00000000000E+00 0. -1.
          2    1    1    2  502    0  0.12484858618E+02  0.28258562886E+02 -0.90526630435E+03  0.90579329864E+03  0.00000000000E+00 0.  1.
</event>
<event>
 4    1  0.6651744E+003  0.2663385E+02  0.7546771E-02  0.1451321E+00
          2   -1    0    0  502    0  0.00000000000E+00  0.00000000000E+00  0.12893570688E+04  0.12893570688E+04  0.00000000000E+00 0. -1.
          2   -1    0    0  501    0 -0.00000000000E+00 -0.00000000000E+00 -0.20312797531E+03  0.20312797531E+03  0.00000000000E+00 0. -1.
          2    1    1    2  501    0 -0.50532027797E+01 -0.26150092076E+02  0.12883457934E+04  0.12886210636E+04  0.00000000000E+00 0. -1.
          2    1    1    2  502    0  0.50532027797E+01  0.26150092076E+02 -0.20211669991E+03  0.20386398052E+03  0.00000000000E+00 0. -1.
</event>
<event>
 4    1  0.6651744E+003  0.2012847E+02  0.7546771E-02  0.1532081E+00
          2   -1    0    0  501    0  0.00000000000E+00  0.00000000000E+00  0.97294387538E+01  0.97294387538E+01  0.00000000000E+00 0.  1.
          2   -1    0    0  502    0 -0.00000000000E+00 -0.00000000000E+00 -0.62286008503E+02  0.62286008503E+02  0.00000000000E+00 0.  1.
          2    1    1    2  501    0  0.83676398562E+01  0.18306769715E+02 -0.47008096188E+02  0.51136252516E+02  0.00000000000E+00 0.  1.
          2    1    1    2  502    0 -0.83676398562E+01 -0.18306769715E+02 -0.55484735612E+01  0.20879194741E+02  0.00000000000E+00 0.  1.
</event>
<event>
 4    1  0.6651744E+003  0.2497133E+02  0.7546771E-02  0.1469124E+00
          2   -1    0    0  502    0  0.00000000000E+00  0.00000000000E+00  0.57013969817E+02  0.57013969817E+02  0.00000000000E+00 0. -1.
          2   -1    0    0  501    0 -0.00000000000E+00 -0.00000000000E+00 -0.42429120108E+03  0.42429120108E+03  0.00000000000E+00 0. -1.
          2    1    1    2  501    0  0.17468728207E+02 -0.17844064430E+02  0.53892029410E+02  0.59396278793E+02  0.00000000000E+00 0. -1.
          2    1    1    2  502    0 -0.17468728207E+02  0.17844064430E+02 -0.42116926067E+03  0.42190889210E+03  0.00000000000E+00 0. -1.
</event>
<event>
 4    1  0.6651744E+003  0.3096730E+02  0.7546771E-02  0.1411373E+00
          2   -1    0    0  502    0  0.00000000000E+00  0.00000000000E+00  0.10298118838E+02  0.10298118838E+02  0.00000000000E+00 0. -1.
          2   -1    0    0  501    0 -0.00000000000E+00 -0.00000000000E+00 -0.25147255242E+03  0.25147255242E+03  0.00000000000E+00 0. -1.
          2    1    1    2  501    0  0.12670040973E+02  0.28256747509E+02 -0.16725256939E+02  0.35195282890E+02  0.00000000000E+00 0. -1.
          2    1    1    2  502    0 -0.12670040973E+02 -0.28256747509E+02 -0.22444917665E+03  0.22657538837E+03  0.00000000000E+00 0. -1.
</event>
<event>
 4    1  0.6651744E+003  0.3520077E+02  0.7546771E-02  0.1379157E+00
          2   -1    0    0  502    0  0.00000000000E+00  0.00000000000E+00  0.12724004035E+01  0.12724004035E+01  0.00000000000E+00 0.  1.
          2   -1    0    0  501    0 -0.00000000000E+00 -0.00000000000E+00 -0.97665555079E+03  0.97665555079E+03  0.00000000000E+00 0.  1.
          2    1    1    2  501    0  0.14999082037E+02 -0.31845281265E+02 -0.51401832367E+03  0.51522221562E+03  0.00000000000E+00 0.  1.
          2    1    1    2  502    0 -0.14999082037E+02  0.31845281265E+02 -0.46136482672E+03  0.46270573558E+03  0.00000000000E+00 0.  1.
</event>
<event>
 4    1  0.6651744E+003  0.3742607E+02  0.7546771E-02  0.1364267E+00
          2   -1    0    0  502    0  0.00000000000E+00  0.00000000000E+00  0.16088156195E+02  0.16088156195E+02  0.00000000000E+00 0.  1.
          2   -1    0    0  501    0 -0.00000000000E+00 -0.00000000000E+00 -0.73486147122E+03  0.73486147122E+03  0.00000000000E+00 0.  1.
          2    1    1    2  501    0  0.34552133636E+02  0.14382654716E+02 -0.68555407011E+01  0.38048773092E+02  0.00000000000E+00 0.  1.
          2    1    1    2  502    0 -0.34552133636E+02 -0.14382654716E+02 -0.71191777432E+03  0.71290085432E+03  0.00000000000E+00 0.  1.
</event>
<event>
 4    1  0.6651744E+003  0.2944305E+02  0.7546771E-02  0.1424499E+00
          2   -1    0    0  502    0  0.00000000000E+00  0.00000000000E+00  0.12388810955E+03  0.12388810955E+03  0.00000000000E+00 0.  1.
          2   -1    0    0  501    0 -0.00000000000E+00 -0.00000000000E+00 -0.60158418172E+03  0.60158418172E+03  0.00000000000E+00 0.  1.
          2    1    1    2  501    0 -0.28715518497E+02  0.65047654509E+01  0.12177233827E+03  0.12528126494E+03  0.00000000000E+00 0.  1.
          2    1    1    2  502    0  0.28715518497E+02 -0.65047654509E+01 -0.59946841044E+03  0.60019102633E+03  0.00000000000E+00 0.  1.
</event>
<event>
 4    1  0.6651744E+003  0.2656160E+02  0.7546771E-02  0.1452062E+00
          2   -1    0    0  501    0  0.00000000000E+00  0.00000000000E+00  0.99421683620E+03  0.99421683620E+03  0.00000000000E+00 0.  1.
          2   -1    0    0  502    0 -0.00000000000E+00 -0.00000000000E+00 -0.73913686749E+00  0.73913686749E+00  0.00000000000E+00 0.  1.
          2    1    1    2  501    0  0.73566453231E+01  0.25522509633E+02  0.39732943917E+03  0.39821627535E+03  0.00000000000E+00 0.  1.
          2    1    1    2  502    0 -0.73566453231E+01 -0.25522509633E+02  0.59614826017E+03  0.59673969772E+03  0.00000000000E+00 0.  1.
</event>
<event>
 4    1  0.6651744E+003  0.2339314E+02  0.7546771E-02  0.1487620E+00
          2   -1    0    0  501    0  0.00000000000E+00  0.00000000000E+00  0.14633279120E+03  0.14633279120E+03  0.00000000000E+00 0.  1.
          2   -1    0    0  502    0 -0.00000000000E+00 -0.00000000000E+00 -0.57930051853E+01  0.57930051853E+01  0.00000000000E+00 0. -1.
          2    1    1    2  501    0 -0.11092420812E+02 -0.20596046144E+02  0.24985455253E+02  0.34227355878E+02  0.00000000000E+00 0. -1.
          2    1    1    2  502    0  0.11092420812E+02  0.20596046144E+02  0.11555433076E+03  0.11789844051E+03  0.00000000000E+00 0.  1.
</event>
<event>
 4    1  0.6651744E+003  0.2043743E+02  0.7546771E-02  0.1527450E+00
          2   -1    0    0  502    0  0.00000000000E+00  0.00000000000E+00  0.17536934419E+04  0.17536934419E+04  0.00000000000E+00 0.  1.
          2   -1    0    0  501    0 -0.00000000000E+00 -0.00000000000E+00 -0.32717074157E+00  0.32717074157E+00  0.00000000000E+00 0.  1.
          2    1    1    2  501    0  0.14688746433E+02  0.14210189191E+02  0.13340852491E+04  0.13342417850E+04  0.00000000000E+00 0.  1.
          2    1    1    2  502    0 -0.14688746433E+02 -0.14210189191E+02  0.41928102206E+03  0.41977882773E+03  0.00000000000E+00 0.  1.
</event>
<event>
 4    1  0.6651744E+003  0.3279321E+02  0.7546771E-02  0.1396779E+00
          2   -1    0    0  502    0  0.00000000000E+00  0.00000000000E+00  0.13405638466E+04  0.13405638466E+04  0.00000000000E+00 0. -1.
          2   -1    0    0  501    0 -0.00000000000E+00 -0.00000000000E+00 -0.31291466258E+02  0.31291466258E+02  0.00000000000E+00 0. -1.
          2    1    1    2  501    0  0.23678867766E+01 -0.32707607440E+02  0.13317144580E+04  0.13321181600E+04  0.00000000000E+00 0. -1.
          2    1    1    2  502    0 -0.23678867766E+01  0.32707607440E+02 -0.22442077641E+02  0.39737152906E+02  0.00000000000E+00 0. -1.
</event>
<event>
 4    1  0.6651744E+003  0.4512352E+02  0.7546771E-02  0.1320823E+00
          2   -1    0    0  502    0  0.00000000000E+00  0.00000000000E+00  0.69936828124E+02  0.69936828124E+02  0.00000000000E+00 0. -1.
          2   -1    0    0  501    0 -0.00000000000E+00 -0.00000000000E+00 -0.15110634765E+03  0.15110634765E+03  0.00000000000E+00 0.  1.
          2    1    1    2  501    0 -0.37032725160E+02 -0.25781964386E+02  0.58720504122E+02  0.74055587397E+02  0.00000000000E+00 0. -1.
          2    1    1    2  502    0  0.37032725160E+02  0.25781964386E+02 -0.13989002365E+03  0.14698758838E+03  0.00000000000E+00 0.  1.
</event>
<event>
 4    1  0.6651744E+003  0.2761716E+02  0.7546771E-02  0.1441505E+00
          2   -1    0    0  501    0  0.00000000000E+00  0.00000000000E+00  0.11955127391E+02  0.11955127391E+02  0.00000000000E+00 0. -1.
          2   -1    0    0  502    0 -0.00000000000E+00 -0.00000000000E+00 -0.17620667478E+03  0.17620667478E+03  0.00000000000E+00 0.  1.
          2    1    1    2  501    0  0.12946415485E+02  0.24394622602E+02 -0.15726922927E+03  0.15967566427E+03  0.00000000000E+00 0.  1.
          2    1    1    2  502    0 -0.12946415485E+02 -0.24394622602E+02 -0.69823181139E+01  0.28486137892E+02  0.00000000000E+00 0. -1.
</event>
<event>
 4    1  0.6651744E+003  0.2122279E+02  0.7546771E-02  0.1516108E+00
          2   -1    0    0  501    0  0.00000000000E+00  0.00000000000E+00  0.93372772482E+02  0.93372772482E+02  0.00000000000E+00 0.  1.
          2   -1    0    0  502    0 -0.00000000000E+00 -0.00000000000E+00 -0.17261789402E+02  0.17261789402E+02  0.00000000000E+00 0.  1.
          2    1    1    2  501    0  0.13966513743E+01  0.21176780554E+02 -0.89008147824E+01  0.23013717072E+02  0.00000000000E+00 0.  1.
          2    1    1    2  502    0 -0.13966513743E+01 -0.21176780554E+02  0.85011797862E+02  0.87620844812E+02  0.00000000000E+00 0.  1.
</event>
<event>
 4    1  0.6651744E+003  0.6046143E+02  0.7546771E-02  0.1258273E+00
          2   -1    0    0  502    0  0.00000000000E+00  0.00000000000E+00  0.25577213623E+04  0.25577213623E+04  0.00000000000E+00 0.  1.
          2   -1    0    0  501    0 -0.00000000000E+00 -0.00000000000E+00 -0.21640979029E+01  0.21640979029E+01  0.00000000000E+00 0. -1.
          2    1    1    2  501    0  0.99994613262E+01  0.59628808673E+02  0.20236352458E+04  0.20245382664E+04  0.00000000000E+00 0.  1.
          2    1    1    2  502    0 -0.99994613262E+01 -0.59628808673E+02  0.53192201862E+03  0.53534719384E+03  0.00000000000E+00 0. -1.
</event>
<event>
 4    1  0.6651744E+003  0.2223782E+02  0.7546771E-02  0.1502297E+00
          2   -1    0    0  502    0  0.00000000000E+00  0.00000000000E+00  0.61589316424E+03  0.61589316424E+03  0.00000000000E+00 0.  1.
          2   -1    0    0  501    0 -0.00000000000E+00 -0.00000000000E+00 -0.42015164893E+01  0.42015164893E+01  0.00000000000E+00 0. -1.
          2    1    1    2  501    0 -0.21227078962E+02 -0.66281019066E+01  0.58469796270E+03  0.58512069541E+03  0.00000000000E+00 0.  1.
          2    1    1    2  502    0  0.21227078962E+02  0.66281019066E+01  0.26993685046E+02  0.34973985311E+02  0.00000000000E+00 0. -1.
</event>
<event>
 4    1  0.6651744E+003  0.2106702E+02  0.7546771E-02  0.1518310E+00
          2   -1    0    0  502    0  0.00000000000E+00  0.00000000000E+00  0.71663012413E+02  0.71663012413E+02  0.00000000000E+00 0. -1.
          2   -1    0    0  501    0 -0.00000000000E+00 -0.00000000000E+00 -0.12189586692E+03  0.12189586692E+03  0.00000000000E+00 0.  1.
          2    1    1    2  501    0  0.13730163349E+02  0.15978165395E+02  0.69172437794E+02  0.72309372182E+02  0.00000000000E+00 0. -1.
          2    1    1    2  502    0 -0.13730163349E+02 -0.15978165395E+02 -0.11940529230E+03  0.12124950715E+03  0.00000000000E+00 0.  1.
</event>
<event>
 4    1  0.6651744E+003  0.2287527E+02  0.7546771E-02  0.1494070E+00
          2   -1    0    0  501    0  0.00000000000E+00  0.00000000000E+00  0.21273343465E+03  0.21273343465E+03  0.00000000000E+00 0. -1.
          2   -1    0    0  502    0 -0.00000000000E+00 -0.00000000000E+00 -0.30952977504E+01  0.30952977504E+01  0.00000000000E+00 0. -1.
          2    1    1    2  501    0  0.19183541725E+02  0.12460720715E+02  0.55921048771E+02  0.60418883881E+02  0.00000000000E+00 0. -1.
          2    1    1    2  502    0 -0.19183541725E+02 -0.12460720715E+02  0.15371708813E+03  0.15540984852E+03  0.00000000000E+00 0. -1.
</event>
<event>
 4    1  0.6651744E+003  0.5169141E+02  0.7546771E-02  0.1291001E+00
          2   -1    0    0  502    0  0.00000000000E+00  0.00000000000E+00  0.47024954290E+01  0.47024954290E+01  0.00000000000E+00 0. -1.
          2   -1    0    0  501    0 -0.00000000000E+00 -0.00000000000E+00 -0.78481615996E+03  0.78481615996E+03  0.00000000000E+00 0.  1.
          2    1    1    2  501    0 -0.40490106866E+02  0.32133360172E+02 -0.59744527252E+03  0.59967729259E+03  0.00000000000E+00 0.  1.
          2    1    1    2  502    0  0.40490106866E+02 -0.32133360172E+02 -0.18266839201E+03  0.18984136280E+03  0.00000000000E+00 0. -1.
</event>
<event>
 4    1  0.6651744E+003  0.2011073E+02  0.7546771E-02  0.1532350E+00
          2   -1    0    0  502    0  0.00000000000E+00  0.00000000000E+00  0.12005749976E+01  0.12005749976E+01  0.00000000000E+00 0.  1.
          2   -1    0    0  501    0 -0.00000000000E+00 -0.00000000000E+00 -0.90290461987E+03  0.90290461987E+03  0.00000000000E+00 0.  1.
          2    1    1    2  501    0 -0.12747995989E+02  0.15554098852E+02 -0.92930059621E+02  0.95081214622E+02  0.00000000000E+00 0.  1.
          2    1    1    2  502    0  0.12747995989E+02 -0.15554098852E+02 -0.80877398525E+03  0.80902398024E+03  0.00000000000E+00 0.  1.
</event>
<event>
 4    1  0.6651744E+003  0.2267717E+02  0.7546771E-02  0.1496592E+00
          2   -1    0    0  501    0  0.00000000000E+00  0.00000000000E+00  0.18417827999E+02  0.18417827999E+02  0.00000000000E+00 0.  1.
          2   -1    0    0  502    0 -0.00000000000E+00 -0.00000000000E+00 -0.20571855488E+03  0.20571855488E+03  0.00000000000E+00 0. -1.
          2    1    1    2  501    0 -0.16799545049E+02  0.15232515763E+02 -0.19783600128E+03  0.19913145822E+03  0.00000000000E+00 0. -1.
          2    1    1    2  502    0  0.16799545049E+02 -0.15232515763E+02  0.10535274403E+02  0.25004924656E+02  0.00000000000E+00 0.  1.
</event>
<event>
 4    1  0.6651744E+003  0.2144373E+02  0.7546771E-02  0.1513023E+00
          2   -1    0    0  502    0  0.00000000000E+00  0.00000000000E+00  0.19932519368E+03  0.19932519368E+03  0.00000000000E+00 0.  1.
          2   -1    0    0  501    0 -0.00000000000E+00 -0.00000000000E+00 -0.12687783200E+02  0.12687783200E+02  0.00000000000E+00 0.  1.
          2    1    1    2  501    0 -0.18105819185E+02  0.11489677751E+02  0.18920480789E+03  0.19041610413E+03  0.00000000000E+00 0.  1.
          2    1    1    2  502    0  0.18105819185E+02 -0.11489677751E+02 -0.25673974090E+01  0.21596872751E+02  0.00000000000E+00 0.  1.
</event>
<event>
 4    1  0.6651744E+003  0.2487445E+02  0.7546771E-02  0.1470213E+00
          2   -1    0    0  501    0  0.00000000000E+00  0.00000000000E+00  0.38011771844E+03  0.38011771844E+03  0.00000000000E+00 0.  1.
          2   -1    0    0  502    0 -0.00000000000E+00 -0.00000000000E+00 -0.34811367386E+01  0.34811367386E+01  0.00000000000E+00 0.  1.
          2    1    1    2  501    0 -0.87200914386E+01  0.23295883795E+02  0.48369450575E+02  0.54390642076E+02  0.00000000000E+00 0.  1.
          2    1    1    2  502    0  0.87200914386E+01 -0.23295883795E+02  0.32826713113E+03  0.32920821310E+03  0.00000000000E+00 0.  1.
</event>
<event>
 4    1  0.6651744E+003  0.2211070E+02  0.7546771E-02  0.1503978E+00
          2   -1    0    0  502    0  0.00000000000E+00  0.00000000000E+00  0.95153198635E+02  0.95153198635E+02  0.00000000000E+00 0.  1.
          2   -1    0    0  501    0 -0.00000000000E+00 -0.00000000000E+00 -0.54965503380E+01  0.54965503380E+01  0.00000000000E+00 0. -1.
          2    1    1    2  501    0 -0.13242797918E+02 -0.17706256340E+02  0.31972460122E+02  0.38873145185E+02  0.00000000000E+00 0. -1.
          2    1    1    2  502    0  0.13242797918E+02  0.17706256340E+02  0.57684188174E+02  0.61776603788E+02  0.00000000000E+00 0.  1.
</event>
<event>
 4    1  0.6651744E+003  0.2990159E+02  0.7546771E-02  0.1420454E+00
          2   -1    0    0  501    0  0.00000000000E+00  0.00000000000E+00  0.36170557896E+03  0.36170557896E+03  0.00000000000E+00 0.  1.
          2   -1    0    0  502    0 -0.00000000000E+00 -0.00000000000E+00 -0.25733372075E+01  0.25733372075E+01  0.00000000000E+00 0.  1.
          2    1    1    2  501    0  0.21190246848E+02  0.21096883159E+02  0.14340643731E+03  0.14649065262E+03  0.00000000000E+00 0.  1.
          2    1    1    2  502    0 -0.21190246848E+02 -0.21096883159E+02  0.21572580443E+03  0.21778826355E+03  0.00000000000E+00 0.  1.
</event>
<event>
 4    1  0.6651744E+003  0.2128249E+02  0.7546771E-02  0.1515270E+00
          2   -1    0    0  501    0  0.00000000000E+00  0.00000000000E+00  0.13705346860E+03  0.13705346860E+03  0.00000000000E+00 0.  1.
          2   -1    0    0  502    0 -0.00000000000E+00 -0.00000000000E+00 -0.38082225144E+01  0.38082225144E+01  0.00000000000E+00 0. -1.
          2    1    1    2  501    0  0.18398998290E+02 -0.10696793110E+02  0.41016967385E+02  0.46209697406E+02  0.00000000000E+00 0. -1.
          2    1    1    2  502    0 -0.18398998290E+02  0.10696793110E+02  0.92228278700E+02  0.94651993708E+02  0.00000000000E+00 0.  1.
</event>
<event>
 4    1  0.6651744E+003  0.2077909E+02  0.7546771E-02  0.1522442E+00
          2   -1    0    0  501    0  0.00000000000E+00  0.00000000000E+00  0.24343547930E+02  0.24343547930E+02  0.00000000000E+00 0.  1.
          2   -1    0    0  502    0 -0.00000000000E+00 -0.00000000000E+00 -0.34351706063E+03  0.34351706063E+03  0.00000000000E+00 0.  1.
          2    1    1    2  501    0 -0.10105343070E+02  0.18156339597E+02 -0.33870576697E+03  0.33934255143E+03  0.00000000000E+00 0.  1.
          2    1    1    2  502    0  0.10105343070E+02 -0.18156339597E+02  0.19532254270E+02  0.28518057139E+02  0.00000000000E+00 0.  1.
</event>
<event>
 4    1  0.6651744E+003  0.3397140E+02  0.7546771E-02  0.1387942E+00
          2   -1    0    0  501    0  0.00000000000E+00  0.00000000000E+00  0.17185212809E+01  0.17185212809E+01  0.00000000000E+00 0. -1.
          2   -1    0    0  502    0 -0.00000000000E+00 -0.00000000000E+00 -0.13606538149E+04  0.13606538149E+04  0.00000000000E+00 0. -1.
          2    1    1    2  501    0  0.33970893992E+02  0.18607698808E+00 -0.11642394920E+04  0.11647350132E+04  0.00000000000E+00 0. -1.
          2    1    1    2  502    0 -0.33970893992E+02 -0.18607698808E+00 -0.19469580161E+03  0.19763732296E+03  0.00000000000E+00 0. -1.
</event>
<event>
 4    1  0.6651744E+003  0.2349363E+02  0.7546771E-02  0.1486391E+00
          2   -1    0    0  501    0  0.00000000000E+00  0.00000000000E+00  0.10827235095E+02  0.10827235095E+02  0.00000000000E+00 0. -1.
          2   -1    0    0  502    0 -0.00000000000E+00 -0.00000000000E+00 -0.16696331447E+03  0.16696331447E+03  0.00000000000E+00 0.  1.
          2    1    1    2  501    0  0.67919349170E+01  0.22490443713E+02 -0.15215976553E+03  0.15396280292E+03  0.00000000000E+00 0.  1.
          2    1    1    2  502    0 -0.67919349170E+01 -0.22490443713E+02 -0.39763138488E+01  0.23827746644E+02  0.00000000000E+00 0. -1.
</event>
<event>
 4    1  0.6651744E+003  0.2336704E+02  0.7546771E-02  0.1487940E+00
          2   -1    0    0  501    0  0.00000000000E+00  0.00000000000E+00  0.28851427667E+03  0.28851427667E+03  0.00000000000E+00 0. -1.
          2   -1    0    0  502    0 -0.00000000000E+00 -0.00000000000E+00 -0.21993265130E+02  0.21993265130E+02  0.00000000000E+00 0.  1.
          2    1    1    2  501    0  0.23358277534E+02 -0.63989629268E+00 -0.15163243376E+02  0.27855745301E+02  0.00000000000E+00 0.  1.
          2    1    1    2  502    0 -0.23358277534E+02  0.63989629268E+00  0.28168425491E+03  0.28265179650E+03  0.00000000000E+00 0. -1.
</event>
<event>
 4    1  0.6651744E+003  0.2259473E+02  0.7546771E-02  0.1497651E+00
          2   -1    0    0  501    0  0.00000000000E+00  0.00000000000E+00  0.35397522809E+01  0.35397522809E+01  0.00000000000E+00 0.  1.
          2   -1    0    0  502    0 -0.00000000000E+00 -0.00000000000E+00 -0.83592498169E+03  0.83592498169E+03  0.00000000000E+00 0.  1.
          2    1    1    2  501    0  0.21648442864E+02 -0.64704663490E+01 -0.79800286218E+03  0.79832267290E+03  0.00000000000E+00 0.  1.
          2    1    1    2  502    0 -0.21648442864E+02  0.64704663490E+01 -0.34382367232E+02  0.41142061077E+02  0.00000000000E+00 0.  1.
</event>
<event>
 4    1  0.6651744E+003  0.2649141E+02  0.7546771E-02  0.1452785E+00
          2   -1    0    0  502    0  0.00000000000E+00  0.00000000000E+00  0.27544331103E+02  0.27544331103E+02  0.00000000000E+00 0.  1.
          2   -1    0    0  501    0 -0.00000000000E+00 -0.00000000000E+00 -0.57509138198E+02  0.57509138198E+02  0.00000000000E+00 0. -1.
          2    1    1    2  501    0 -0.12951171278E+02  0.23109785046E+02  0.16755244456E+02  0.31345385931E+02  0.00000000000E+00 0.  1.
          2    1    1    2  502    0  0.12951171278E+02 -0.23109785046E+02 -0.46720051551E+02  0.53708083370E+02  0.00000000000E+00 0. -1.
</event>
<event>
 4    1  0.6651744E+003  0.2374778E+02  0.7546771E-02  0.1483316E+00
          2   -1    0    0  502    0  0.00000000000E+00  0.00000000000E+00  0.62679378662E+00  0.62679378662E+00  0.00000000000E+00 0.  1.
          2   -1    0    0  501    0 -0.00000000000E+00 -0.00000000000E+00 -0.14385065330E+04  0.14385065330E+04  0.00000000000E+00 0. -1.
          2    1    1    2  501    0  0.23345155577E+02  0.43544211359E+01 -0.27857600805E+03  0.27958639011E+03  0.00000000000E+00 0.  1.
          2    1    1    2  502    0 -0.23345155577E+02 -0.43544211359E+01 -0.11593037312E+04  0.11595469367E+04  0.00000000000E+00 0. -1.
</event>
<event>
 4    1  0.6651744E+003  0.2075812E+02  0.7546771E-02  0.1522746E+00
          2   -1    0    0  502    0  0.00000000000E+00  0.00000000000E+00  0.81322234164E+00  0.81322234164E+00  0.00000000000E+00 0.  1.
          2   -1    0    0  501    0 -0.00000000000E+00 -0.00000000000E+00 -0.11133214272E+04  0.11133214272E+04  0.00000000000E+00 0. -1.
          2    1    1    2  501    0 -0.18298273227E+02  0.98016772356E+01 -0.15297949923E+03  0.15438143303E+03  0.00000000000E+00 0.  1.
          2    1    1    2  502    0  0.18298273227E+02 -0.98016772356E+01 -0.95952870564E+03  0.95975321653E+03  0.00000000000E+00 0. -1.
</event>
<event>
 4    1  0.6651744E+003  0.2289487E+02  0.7546771E-02  0.1493823E+00
          2   -1    0    0  501    0  0.00000000000E+00  0.00000000000E+00  0.28946742578E+03  0.28946742578E+03  0.00000000000E+00 0. -1.
          2   -1    0    0  502    0 -0.00000000000E+00 -0.00000000000E+00 -0.87241888194E+01  0.87241888194E+01  0.00000000000E+00 0. -1.
          2    1    1    2  501    0 -0.22271300379E+02 -0.53069864144E+01  0.76481872288E+01  0.24138552012E+02  0.00000000000E+00 0. -1.
          2    1    1    2  502    0  0.22271300379E+02  0.53069864144E+01  0.27309504973E+03  0.27405306259E+03  0.00000000000E+00 0. -1.
</event>
<event>
 4    1  0.6651744E+003  0.2205085E+02  0.7546771E-02  0.1504773E+00
          2   -1    0    0  501    0  0.00000000000E+00  0.00000000000E+00  0.43877710567E+02  0.43877710567E+02  0.00000000000E+00 0.  1.
          2   -1    0    0  502    0 -0.00000000000E+00 -0.00000000000E+00 -0.11672148028E+02  0.11672148028E+02  0.00000000000E+00 0.  1.
          2    1    1    2  501    0  0.14053988830E+02 -0.16991927311E+02  0.98558946401E+01  0.24153236945E+02  0.00000000000E+00 0.  1.
          2    1    1    2  502    0 -0.14053988830E+02  0.16991927311E+02  0.22349667899E+02  0.31396621649E+02  0.00000000000E+00 0.  1.
</event>
<event>
 4    1  0.6651744E+003  0.4348812E+02  0.7546771E-02  0.1329175E+00
          2   -1    0    0  502    0  0.00000000000E+00  0.00000000000E+00  0.19935422750E+04  0.19935422750E+04  0.00000000000E+00 0. -1.
          2   -1    0    0  501    0 -0.00000000000E+00 -0.00000000000E+00 -0.30284911129E+02  0.30284911129E+02  0.00000000000E+00 0. -1.
          2    1    1    2  501    0  0.43487581987E+02  0.21649110590E+00  0.19775671347E+04  0.19780452444E+04  0.00000000000E+00 0. -1.
          2    1    1    2  502    0 -0.43487581987E+02 -0.21649110590E+00 -0.14309770760E+02  0.45781941796E+02  0.00000000000E+00 0. -1.
</event>
<event>
 4    1  0.6651744E+003  0.2053906E+02  0.7546771E-02  0.1525949E+00
          2   -1    0    0  501    0  0.00000000000E+00  0.00000000000E+00  0.14393867472E+01  0.14393867472E+01  0.00000000000E+00 0. -1.
          2   -1    0    0  502    0 -0.00000000000E+00 -0.00000000000E+00 -0.13043528125E+04  0.13043528125E+04  0.00000000000E+00 0. -1.
          2    1    1    2  501    0  0.12909610262E+01 -0.20498451338E+02 -0.12263418167E+04  0.12265138012E+04  0.00000000000E+00 0. -1.
          2    1    1    2  502    0 -0.12909610262E+01  0.20498451338E+02 -0.76571609015E+02  0.79278398034E+02  0.00000000000E+00 0. -1.
</event>
<event>
 4    1  0.6651744E+003  0.2093252E+02  0.7546771E-02  0.1520230E+00
          2   -1    0    0  502    0  0.00000000000E+00  0.00000000000E+00  0.24681485006E+02  0.24681485006E+02  0.00000000000E+00 0. -1.
          2   -1    0    0  501    0 -0.00000000000E+00 -0.00000000000E+00 -0.27179270863E+02  0.27179270863E+02  0.00000000000E+00 0. -1.
          2    1    1    2  501    0  0.53567279323E+01  0.20235506968E+02  0.14021844920E+02  0.25194888596E+02  0.00000000000E+00 0. -1.
          2    1    1    2  502    0 -0.53567279323E+01 -0.20235506968E+02 -0.16519630778E+02  0.26665867273E+02  0.00000000000E+00 0. -1.
</event>
<event>
 4    1  0.6651744E+003  0.2696434E+02  0.7546771E-02  0.1447967E+00
          2   -1    0    0  501    0  0.00000000000E+00  0.00000000000E+00  0.15238431154E+02  0.15238431154E+02  0.00000000000E+00 0.  1.
          2   -1    0    0  502    0 -0.00000000000E+00 -0.00000000000E+00 -0.10263818884E+03  0.10263818884E+03  0.00000000000E+00 0.  1.
          2    1    1    2  501    0 -0.65595790964E+01  0.26154307846E+02 -0.86814816914E+02  0.90905931229E+02  0.00000000000E+00 0.  1.
          2    1    1    2  502    0  0.65595790964E+01 -0.26154307846E+02 -0.58494077297E+00  0.26970688766E+02  0.00000000000E+00 0.  1.
</event>
<event>
 4    1  0.6651744E+003  0.3934453E+02  0.7546771E-02  0.1352370E+00
          2   -1    0    0  502    0  0.00000000000E+00  0.00000000000E+00  0.85856618889E+02  0.85856618889E+02  0.00000000000E+00 0.  1.
          2   -1    0    0  501    0 -0.00000000000E+00 -0.00000000000E+00 -0.23079293445E+04  0.23079293445E+04  0.00000000000E+00 0.  1.
          2    1    1    2  501    0 -0.91332403582E+01 -0.38269774697E+02  0.81172279379E+02  0.90204937084E+02  0.00000000000E+00 0.  1.
          2    1    1    2  502    0  0.91332403582E+01  0.38269774697E+02 -0.23032450050E+04  0.23035810263E+04  0.00000000000E+00 0.  1.
</event>
<event>
 4    1  0.6651744E+003  0.3536853E+02  0.7546771E-02  0.1377991E+00
          2   -1    0    0  502    0  0.00000000000E+00  0.00000000000E+00  0.88696349004E+03  0.88696349004E+03  0.00000000000E+00 0. -1.
          2   -1    0    0  501    0 -0.00000000000E+00 -0.00000000000E+00 -0.30836537059E+03  0.30836537059E+03  0.00000000000E+00 0.  1.
          2    1    1    2  501    0  0.34987521230E+02 -0.51774598906E+01  0.88559517072E+03  0.88630115601E+03  0.00000000000E+00 0. -1.
          2    1    1    2  502    0 -0.34987521230E+02  0.51774598906E+01 -0.30699705128E+03  0.30902770462E+03  0.00000000000E+00 0.  1.
</event>
<event>
 4    1  0.6651744E+003  0.3778471E+02  0.7546771E-02  0.1361980E+00
          2   -1    0    0  502    0  0.00000000000E+00  0.00000000000E+00  0.89421556519E+01  0.89421556519E+01  0.00000000000E+00 0.  1.
          2   -1    0    0  501    0 -0.00000000000E+00 -0.00000000000E+00 -0.18191095757E+03  0.18191095757E+03  0.00000000000E+00 0. -1.
          2    1    1    2  501    0  0.13154669864E+02 -0.35420881650E+02 -0.11986056422E+03  0.12567513299E+03  0.00000000000E+00 0. -1.
          2    1    1    2  502    0 -0.13154669864E+02  0.35420881650E+02 -0.53108237698E+02  0.65177980235E+02  0.00000000000E+00 0.  1.
</event>
<event>
 4    1  0.6651744E+003  0.2015197E+02  0.7546771E-02  0.1531725E+00
          2   -1    0    0  502    0  0.00000000000E+00  0.00000000000E+00  0.93382914081E+03  0.93382914081E+03  0.00000000000E+00 0. -1.
          2   -1    0    0  501    0 -0.00000000000E+00 -0.00000000000E+00 -0.37497476184E+03  0.37497476184E+03  0.00000000000E+00 0.  1.
          2    1    1    2  501    0 -0.14321248891E+02 -0.14177582778E+02  0.93344955824E+03  0.93366706047E+03  0.00000000000E+00 0. -1.
          2    1    1    2  502    0  0.14321248891E+02  0.14177582778E+02 -0.37459517928E+03  0.37513684218E+03  0.00000000000E+00 0.  1.
</event>
<event>
 4    1  0.6651744E+003  0.2320607E+02  0.7546771E-02  0.1489927E+00
          2   -1    0    0  501    0  0.00000000000E+00  0.00000000000E+00  0.88361680436E+03  0.88361680436E+03  0.00000000000E+00 0.  1.
          2   -1    0    0  502    0 -0.00000000000E+00 -0.00000000000E+00 -0.25118026425E+02  0.25118026425E+02  0.00000000000E+00 0. -1.
          2    1    1    2  501    0  0.23004021839E+02 -0.30556142457E+01 -0.19571901242E+02  0.30357554536E+02  0.00000000000E+00 0. -1.
          2    1    1    2  502    0 -0.23004021839E+02  0.30556142457E+01  0.87807067918E+03  0.87837727625E+03  0.00000000000E+00 0.  1.
</event>
<event>
 4    1  0.6651744E+003  0.2271412E+02  0.7546771E-02  0.1496119E+00
          2   -1    0    0  502    0  0.00000000000E+00  0.00000000000E+00  0.27898877080E+01  0.27898877080E+01  0.00000000000E+00 0.  1.
          2   -1    0    0  501    0 -0.00000000000E+00 -0.00000000000E+00 -0.44718487931E+03  0.44718487931E+03  0.00000000000E+00 0. -1.
          2    1    1    2  501    0 -0.19597987763E+02 -0.11482608040E+02 -0.49900721401E+02  0.54827122924E+02  0.00000000000E+00 0.  1.
          2    1    1    2  502    0  0.19597987763E+02  0.11482608040E+02 -0.39449427020E+03  0.39514764410E+03  0.00000000000E+00 0. -1.
</event>
<event>
 4    1  0.6651744E+003  0.2898058E+02  0.7546771E-02  0.1428667E+00
          2   -1    0    0  502    0  0.00000000000E+00  0.00000000000E+00  0.12566811401E+04  0.12566811401E+04  0.00000000000E+00 0. -1.
          2   -1    0    0  501    0 -0.00000000000E+00 -0.00000000000E+00 -0.66319003094E+02  0.66319003094E+02  0.00000000000E+00 0. -1.
          2    1    1    2  501    0 -0.18781534801E+02 -0.22070971719E+02  0.12533395808E+04  0.12536745904E+04  0.00000000000E+00 0. -1.
          2    1    1    2  502    0  0.18781534801E+02  0.22070971719E+02 -0.62977443793E+02  0.69325552784E+02  0.00000000000E+00 0. -1.
</event>
<event>
 4    1  0.6651744E+003  0.2375852E+02  0.7546771E-02  0.1483187E+00
          2   -1    0    0  501    0  0.00000000000E+00  0.00000000000E+00  0.11102700958E+02  0.11102700958E+02  0.00000000000E+00 0. -1.
          2   -1    0    0  502    0 -0.00000000000E+00 -0.00000000000E+00 -0.70582392657E+03  0.70582392657E+03  0.00000000000E+00 0. -1.
          2    1    1    2  501    0 -0.20960597739E+02  0.11185723612E+02 -0.69267261730E+03  0.69307995342E+03  0.00000000000E+00 0. -1.
          2    1    1    2  502    0  0.20960597739E+02 -0.11185723612E+02 -0.20486083141E+01  0.23846674114E+02  0.00000000000E+00 0. -1.
</event>
<event>
 4    1  0.6651744E+003  0.2139624E+02  0.7546771E-02  0.1513682E+00
          2   -1    0    0  501    0  0.00000000000E+00  0.00000000000E+00  0.16321910921E+03  0.16321910921E+03  0.00000000000E+00 0. -1.
          2   -1    0    0  502    0 -0.00000000000E+00 -0.00000000000E+00 -0.47123995891E+03  0.47123995891E+03  0.00000000000E+00 0.  1.
          2    1    1    2  501    0 -0.60845645387E+01  0.20512854797E+02 -0.47029447716E+03  0.47078094098E+03  0.00000000000E+00 0.  1.
          2    1    1    2  502    0  0.60845645387E+01 -0.20512854797E+02  0.16227362746E+03  0.16367812714E+03  0.00000000000E+00 0. -1.
</event>
<event>
 4    1  0.7280691E+003  0.2273661E+02  0.7546771E-02  0.1495832E+00
          2   -1    0    0  501    0  0.00000000000E+00  0.00000000000E+00  0.51869936776E+03  0.51869936776E+03  0.00000000000E+00 0.  1.
          2   -1    0    0  502    0 -0.00000000000E+00 -0.00000000000E+00 -0.77061243007E+03  0.77061243007E+03  0.00000000000E+00 0. -1.
          2    1    1    2  501    0  0.18666691671E+02  0.12981067814E+02 -0.77019542801E+03  0.77053095384E+03  0.00000000000E+00 0. -1.
          2    1    1    2  502    0 -0.18666691671E+02 -0.12981067814E+02  0.51828236570E+03  0.51878084400E+03  0.00000000000E+00 0.  1.
</event>
<event>
 4    1  0.6651744E+003  0.4415297E+02  0.7546771E-02  0.1325729E+00
          2   -1    0    0  502    0  0.00000000000E+00  0.00000000000E+00  0.12931054868E+03  0.12931054868E+03  0.00000000000E+00 0.  1.
          2   -1    0    0  501    0 -0.00000000000E+00 -0.00000000000E+00 -0.62420073983E+02  0.62420073983E+02  0.00000000000E+00 0.  1.
          2    1    1    2  501    0 -0.32520751173E+02 -0.29864454155E+02  0.11693480163E+03  0.12499293064E+03  0.00000000000E+00 0.  1.
          2    1    1    2  502    0  0.32520751173E+02  0.29864454155E+02 -0.50044326929E+02  0.66737692023E+02  0.00000000000E+00 0.  1.
</event>
<event>
 4    1  0.6651744E+003  0.2859826E+02  0.7546771E-02  0.1432182E+00
          2   -1    0    0  501    0  0.00000000000E+00  0.00000000000E+00  0.16810312342E+03  0.16810312342E+03  0.00000000000E+00 0.  1.
          2   -1    0    0  502    0 -0.00000000000E+00 -0.00000000000E+00 -0.28980585421E+03  0.28980585421E+03  0.00000000000E+00 0.  1.
          2    1    1    2  501    0 -0.28598136758E+02 -0.82908446524E-01 -0.28787588819E+03  0.28929290918E+03  0.00000000000E+00 0.  1.
          2    1    1    2  502    0  0.28598136758E+02  0.82908446524E-01  0.16617315740E+03  0.16861606845E+03  0.00000000000E+00 0.  1.
</event>
<event>
 4    1  0.6651744E+003  0.3395412E+02  0.7546771E-02  0.1388069E+00
          2   -1    0    0  501    0  0.00000000000E+00  0.00000000000E+00  0.39503679826E+02  0.39503679826E+02  0.00000000000E+00 0.  1.
          2   -1    0    0  502    0 -0.00000000000E+00 -0.00000000000E+00 -0.24699768004E+03  0.24699768004E+03  0.00000000000E+00 0. -1.
          2    1    1    2  501    0 -0.24983798096E+02 -0.22993311893E+02 -0.23826879408E+03  0.24067592483E+03  0.00000000000E+00 0. -1.
          2    1    1    2  502    0  0.24983798096E+02  0.22993311893E+02  0.30774793865E+02  0.45825435040E+02  0.00000000000E+00 0.  1.
</event>
<event>
 4    1  0.6651744E+003  0.5636901E+02  0.7546771E-02  0.1272695E+00
          2   -1    0    0  501    0  0.00000000000E+00  0.00000000000E+00  0.49154418533E+03  0.49154418533E+03  0.00000000000E+00 0. -1.
          2   -1    0    0  502    0 -0.00000000000E+00 -0.00000000000E+00 -0.18629061839E+04  0.18629061839E+04  0.00000000000E+00 0.  1.
          2    1    1    2  501    0 -0.52732278496E+02 -0.19919145844E+02 -0.18608619335E+04  0.18617154995E+04  0.00000000000E+00 0.  1.
          2    1    1    2  502    0  0.52732278496E+02  0.19919145844E+02  0.48949993492E+03  0.49273486974E+03  0.00000000000E+00 0. -1.
</event>
<event>
 4    1  0.6651744E+003  0.2988335E+02  0.7546771E-02  0.1420613E+00
          2   -1    0    0  502    0  0.00000000000E+00  0.00000000000E+00  0.35270303000E+03  0.35270303000E+03  0.00000000000E+00 0. -1.
          2   -1    0    0  501    0 -0.00000000000E+00 -0.00000000000E+00 -0.12007839704E+03  0.12007839704E+03  0.00000000000E+00 0. -1.
          2    1    1    2  501    0 -0.26528565992E+02 -0.13756810145E+02  0.35019754059E+03  0.35147024351E+03  0.00000000000E+00 0. -1.
          2    1    1    2  502    0  0.26528565992E+02  0.13756810145E+02 -0.11757290763E+03  0.12131118353E+03  0.00000000000E+00 0. -1.
</event>
<event>
 4    1  0.6651744E+003  0.2730142E+02  0.7546771E-02  0.1444604E+00
          2   -1    0    0  502    0  0.00000000000E+00  0.00000000000E+00  0.27132490334E+03  0.27132490334E+03  0.00000000000E+00 0.  1.
          2   -1    0    0  501    0 -0.00000000000E+00 -0.00000000000E+00 -0.33682212786E+02  0.33682212786E+02  0.00000000000E+00 0.  1.
          2    1    1    2  501    0  0.13007806385E+02  0.24003430860E+02  0.26497350386E+03  0.26637628549E+03  0.00000000000E+00 0.  1.
          2    1    1    2  502    0 -0.13007806385E+02 -0.24003430860E+02 -0.27330813307E+02  0.38630830642E+02  0.00000000000E+00 0.  1.
</event>
<event>
 4    1  0.6651744E+003  0.3540470E+02  0.7546771E-02  0.1377740E+00
          2   -1    0    0  502    0  0.00000000000E+00  0.00000000000E+00  0.20437217749E+02  0.20437217749E+02  0.00000000000E+00 0. -1.
          2   -1    0    0  501    0 -0.00000000000E+00 -0.00000000000E+00 -0.42165269006E+03  0.42165269006E+03  0.00000000000E+00 0.  1.
          2    1    1    2  501    0 -0.20478676326E+02  0.28881071817E+02  0.37291048669E+01  0.35600543766E+02  0.00000000000E+00 0. -1.
          2    1    1    2  502    0  0.20478676326E+02 -0.28881071817E+02 -0.40494457717E+03  0.40648936404E+03  0.00000000000E+00 0.  1.
</event>
<event>
 4    1  0.1131602E+004  0.3609065E+02  0.7546771E-02  0.1373054E+00
          2   -1    0    0  502    0  0.00000000000E+00  0.00000000000E+00  0.10832852534E+04  0.10832852534E+04  0.00000000000E+00 0. -1.
          2   -1    0    0  501    0 -0.00000000000E+00 -0.00000000000E+00 -0.81829077126E+03  0.81829077126E+03  0.00000000000E+00 0.  1.
          2    1    1    2  501    0 -0.19837316914E+02 -0.30149891880E+02  0.10825864544E+04  0.10831878721E+04  0.00000000000E+00 0. -1.
          2    1    1    2  502    0  0.19837316914E+02  0.30149891880E+02 -0.81759197225E+03  0.81838815253E+03  0.00000000000E+00 0.  1.
</event>
<event>
 4    1  0.6651744E+003  0.2308699E+02  0.7546771E-02  0.1491409E+00
          2   -1    0    0  501    0  0.00000000000E+00  0.00000000000E+00  0.25991533626E+03  0.25991533626E+03  0.00000000000E+00 0.  1.
          2   -1    0    0  502    0 -0.00000000000E+00 -0.00000000000E+00 -0.38196476742E+01  0.38196476742E+01  0.00000000000E+00 0.  1.
          2    1    1    2  501    0  0.12071998167E+02 -0.19679326970E+02  0.38308421736E+02  0.44727443764E+02  0.00000000000E+00 0.  1.
          2    1    1    2  502    0 -0.12071998167E+02  0.19679326970E+02  0.21778726685E+03  0.21900754018E+03  0.00000000000E+00 0.  1.
</event>
<event>
 4    1  0.6651744E+003  0.3353393E+02  0.7546771E-02  0.1391174E+00
          2   -1    0    0  502    0  0.00000000000E+00  0.00000000000E+00  0.15916222030E+02  0.15916222030E+02  0.00000000000E+00 0. -1.
          2   -1    0    0  501    0 -0.00000000000E+00 -0.00000000000E+00 -0.74787405124E+03  0.74787405124E+03  0.00000000000E+00 0.  1.
          2    1    1    2  501    0 -0.32861829659E+02 -0.66801408995E+01 -0.25703026747E+01  0.33632284889E+02  0.00000000000E+00 0. -1.
          2    1    1    2  502    0  0.32861829659E+02  0.66801408995E+01 -0.72938752653E+03  0.73015798838E+03  0.00000000000E+00 0.  1.
</event>
<event>
 4    1  0.6651744E+003  0.2266478E+02  0.7546771E-02  0.1496751E+00
          2   -1    0    0  502    0  0.00000000000E+00  0.00000000000E+00  0.10045766747E+04  0.10045766747E+04  0.00000000000E+00 0.  1.
          2   -1    0    0  501    0 -0.00000000000E+00 -0.00000000000E+00 -0.20541200678E+02  0.20541200678E+02  0.00000000000E+00 0.  1.
          2    1    1    2  501    0  0.36246748269E+01  0.22373068888E+02  0.99815665259E+03  0.99841394000E+03  0.00000000000E+00 0.  1.
          2    1    1    2  502    0 -0.36246748269E+01 -0.22373068888E+02 -0.14121178585E+02  0.26703935360E+02  0.00000000000E+00 0.  1.
</event>
<event>
 4    1  0.6651744E+003  0.3563851E+02  0.7546771E-02  0.1376129E+00
          2   -1    0    0  502    0  0.00000000000E+00  0.00000000000E+00  0.47199225541E+03  0.47199225541E+03  0.00000000000E+00 0. -1.
          2   -1    0    0  501    0 -0.00000000000E+00 -0.00000000000E+00 -0.53283782229E+01  0.53283782229E+01  0.00000000000E+00 0.  1.
          2    1    1    2  501    0  0.11930790396E+02  0.33582133614E+02  0.40124084407E+03  0.40282045430E+03  0.00000000000E+00 0. -1.
          2    1    1    2  502    0 -0.11930790396E+02 -0.33582133614E+02  0.65423033123E+02  0.74500179333E+02  0.00000000000E+00 0.  1.
</event>
<event>
 4    1  0.6651744E+003  0.8890942E+02  0.7546771E-02  0.1184551E+00
          2   -1    0    0  501    0  0.00000000000E+00  0.00000000000E+00  0.38241985325E+02  0.38241985325E+02  0.00000000000E+00 0.  1.
          2   -1    0    0  502    0 -0.00000000000E+00 -0.00000000000E+00 -0.41678940926E+03  0.41678940926E+03  0.00000000000E+00 0. -1.
          2    1    1    2  501    0  0.88460409280E+02 -0.89242012731E+01 -0.35080174015E+03  0.36189328023E+03  0.00000000000E+00 0. -1.
          2    1    1    2  502    0 -0.88460409280E+02  0.89242012731E+01 -0.27745683785E+02  0.93138114363E+02  0.00000000000E+00 0.  1.
</event>
<event>
 4    1  0.6651744E+003  0.2065447E+02  0.7546771E-02  0.1524256E+00
          2   -1    0    0  501    0  0.00000000000E+00  0.00000000000E+00  0.10592760419E+04  0.10592760419E+04  0.00000000000E+00 0.  1.
          2   -1    0    0  502    0 -0.00000000000E+00 -0.00000000000E+00 -0.15265685320E+01  0.15265685320E+01  0.00000000000E+00 0.  1.
          2    1    1    2  501    0  0.10397795703E+02 -0.17846374629E+02  0.73784542525E+02  0.76620923764E+02  0.00000000000E+00 0.  1.
          2    1    1    2  502    0 -0.10397795703E+02  0.17846374629E+02  0.98396493086E+03  0.98418168669E+03  0.00000000000E+00 0.  1.
</event>
<event>
 4    1  0.6651744E+003  0.2105212E+02  0.7546771E-02  0.1518522E+00
          2   -1    0    0  501    0  0.00000000000E+00  0.00000000000E+00  0.76553513151E+03  0.76553513151E+03  0.00000000000E+00 0.  1.
          2   -1    0    0  502    0 -0.00000000000E+00 -0.00000000000E+00 -0.11097447190E+01  0.11097447190E+01  0.00000000000E+00 0. -1.
          2    1    1    2  501    0  0.43532449539E+01 -0.20597108640E+02  0.11710399476E+03  0.11898124733E+03  0.00000000000E+00 0. -1.
          2    1    1    2  502    0 -0.43532449539E+01  0.20597108640E+02  0.64732139203E+03  0.64766362890E+03  0.00000000000E+00 0.  1.
</event>
<event>
 4    1  0.6651744E+003  0.2570804E+02  0.7546771E-02  0.1461036E+00
          2   -1    0    0  501    0  0.00000000000E+00  0.00000000000E+00  0.73829333336E+03  0.73829333336E+03  0.00000000000E+00 0.  1.
          2   -1    0    0  502    0 -0.00000000000E+00 -0.00000000000E+00 -0.14812343061E+01  0.14812343061E+01  0.00000000000E+00 0. -1.
          2    1    1    2  501    0 -0.11543940991E+02  0.22970429680E+02  0.13574292215E+03  0.13815586896E+03  0.00000000000E+00 0. -1.
          2    1    1    2  502    0  0.11543940991E+02 -0.22970429680E+02  0.60106917690E+03  0.60161869871E+03  0.00000000000E+00 0.  1.
</event>
<event>
 4    1  0.6651744E+003  0.2141306E+02  0.7546771E-02  0.1513448E+00
          2   -1    0    0  501    0  0.00000000000E+00  0.00000000000E+00  0.51810755191E+01  0.51810755191E+01  0.00000000000E+00 0. -1.
          2   -1    0    0  502    0 -0.00000000000E+00 -0.00000000000E+00 -0.94186930798E+02  0.94186930798E+02  0.00000000000E+00 0.  1.
          2    1    1    2  501    0 -0.93889021369E+01 -0.19244938640E+02 -0.56712619839E+02  0.60620461856E+02  0.00000000000E+00 0.  1.
          2    1    1    2  502    0  0.93889021369E+01  0.19244938640E+02 -0.32293235440E+02  0.38747544461E+02  0.00000000000E+00 0. -1.
</event>
<event>
 4    1  0.6651744E+003  0.3225782E+02  0.7546771E-02  0.1400939E+00
          2   -1    0    0  502    0  0.00000000000E+00  0.00000000000E+00  0.68755617636E+02  0.68755617636E+02  0.00000000000E+00 0. -1.
          2   -1    0    0  501    0 -0.00000000000E+00 -0.00000000000E+00 -0.15564141002E+02  0.15564141002E+02  0.00000000000E+00 0. -1.
          2    1    1    2  501    0 -0.27669468576E+02  0.16582141472E+02  0.33602216734E+02  0.46579779696E+02  0.00000000000E+00 0. -1.
          2    1    1    2  502    0  0.27669468576E+02 -0.16582141472E+02  0.19589259901E+02  0.37739978942E+02  0.00000000000E+00 0. -1.
</event>
<event>
 4    1  0.6651744E+003  0.2554158E+02  0.7546771E-02  0.1462835E+00
          2   -1    0    0  502    0  0.00000000000E+00  0.00000000000E+00  0.22009862177E+03  0.22009862177E+03  0.00000000000E+00 0.  1.
          2   -1    0    0  501    0 -0.00000000000E+00 -0.00000000000E+00 -0.58521844340E+02  0.58521844340E+02  0.00000000000E+00 0.  1.
          2    1    1    2  501    0  0.17933547145E+02 -0.18186807667E+02  0.21652490972E+03  0.21802616498E+03  0.00000000000E+00 0.  1.
          2    1    1    2  502    0 -0.17933547145E+02  0.18186807667E+02 -0.54948132294E+02  0.60594301126E+02  0.00000000000E+00 0.  1.
</event>
<event>
 4    1  0.6651744E+003  0.2004919E+02  0.7546771E-02  0.1533285E+00
          2   -1    0    0  501    0  0.00000000000E+00  0.00000000000E+00  0.22311192612E+03  0.22311192612E+03  0.00000000000E+00 0. -1.
          2   -1    0    0  502    0 -0.00000000000E+00 -0.00000000000E+00 -0.95305032483E+02  0.95305032483E+02  0.00000000000E+00 0. -1.
          2    1    1    2  501    0 -0.84428169363E+01  0.18184851310E+02 -0.93793009541E+02  0.95911931550E+02  0.00000000000E+00 0. -1.
          2    1    1    2  502    0  0.84428169363E+01 -0.18184851310E+02  0.22159990318E+03  0.22250502705E+03  0.00000000000E+00 0. -1.
</event>
<event>
 4    1  0.6651744E+003  0.2466149E+02  0.7546771E-02  0.1472626E+00
          2   -1    0    0  502    0  0.00000000000E+00  0.00000000000E+00  0.33497641766E+03  0.33497641766E+03  0.00000000000E+00 0.  1.
          2   -1    0    0  501    0 -0.00000000000E+00 -0.00000000000E+00 -0.16318976466E+03  0.16318976466E+03  0.00000000000E+00 0. -1.
          2    1    1    2  501    0 -0.24174675119E+02 -0.48758944302E+01  0.33358691658E+03  0.33449726482E+03  0.00000000000E+00 0.  1.
          2    1    1    2  502    0  0.24174675119E+02  0.48758944302E+01 -0.16180026357E+03  0.16366891750E+03  0.00000000000E+00 0. -1.
</event>
<event>
 4    1  0.6651744E+003  0.4859740E+02  0.7546771E-02  0.1304371E+00
          2   -1    0    0  502    0  0.00000000000E+00  0.00000000000E+00  0.10879855742E+04  0.10879855742E+04  0.00000000000E+00 0. -1.
          2   -1    0    0  501    0 -0.00000000000E+00 -0.00000000000E+00 -0.39089220813E+01  0.39089220813E+01  0.00000000000E+00 0.  1.
          2    1    1    2  501    0 -0.41619566242E+02  0.25090221175E+02  0.90609821317E+03  0.90740050662E+03  0.00000000000E+00 0. -1.
          2    1    1    2  502    0  0.41619566242E+02 -0.25090221175E+02  0.17797843894E+03  0.18449398966E+03  0.00000000000E+00 0.  1.
</event>
<event>
 4    1  0.6651744E+003  0.2533749E+02  0.7546771E-02  0.1465063E+00
          2   -1    0    0  501    0  0.00000000000E+00  0.00000000000E+00  0.15465709909E+03  0.15465709909E+03  0.00000000000E+00 0. -1.
          2   -1    0    0  502    0 -0.00000000000E+00 -0.00000000000E+00 -0.48743358839E+01  0.48743358839E+01  0.00000000000E+00 0.  1.
          2    1    1    2  501    0  0.20082592398E+02 -0.15449209286E+02  0.44164744467E+02  0.50916728477E+02  0.00000000000E+00 0.  1.
          2    1    1    2  502    0 -0.20082592398E+02  0.15449209286E+02  0.10561801874E+03  0.10861470650E+03  0.00000000000E+00 0. -1.
</event>
<event>
 4    1  0.6651744E+003  0.2964743E+02  0.7546771E-02  0.1422685E+00
          2   -1    0    0  501    0  0.00000000000E+00  0.00000000000E+00  0.38546211532E+03  0.38546211532E+03  0.00000000000E+00 0. -1.
          2   -1    0    0  502    0 -0.00000000000E+00 -0.00000000000E+00 -0.14075752567E+03  0.14075752567E+03  0.00000000000E+00 0. -1.
          2    1    1    2  501    0 -0.24439764980E+02  0.16782965666E+02 -0.13861760579E+03  0.14175263907E+03  0.00000000000E+00 0. -1.
          2    1    1    2  502    0  0.24439764980E+02 -0.16782965666E+02  0.38332219544E+03  0.38446700192E+03  0.00000000000E+00 0. -1.
</event>
<event>
 4    1  0.6651744E+003  0.2864113E+02  0.7546771E-02  0.1431784E+00
          2   -1    0    0  502    0  0.00000000000E+00  0.00000000000E+00  0.56179252279E+01  0.56179252279E+01  0.00000000000E+00 0.  1.
          2   -1    0    0  501    0 -0.00000000000E+00 -0.00000000000E+00 -0.20909376658E+04  0.20909376658E+04  0.00000000000E+00 0.  1.
          2    1    1    2  501    0 -0.15683642914E+02  0.23965345236E+02 -0.31646840738E+02  0.42682982042E+02  0.00000000000E+00 0.  1.
          2    1    1    2  502    0  0.15683642914E+02 -0.23965345236E+02 -0.20536728998E+04  0.20538726090E+04  0.00000000000E+00 0.  1.
</event>
<event>
 4    1  0.6651744E+003  0.3851095E+02  0.7546771E-02  0.1357440E+00
          2   -1    0    0  502    0  0.00000000000E+00  0.00000000000E+00  0.38623184209E+03  0.38623184209E+03  0.00000000000E+00 0. -1.
          2   -1    0    0  501    0 -0.00000000000E+00 -0.00000000000E+00 -0.30064759097E+02  0.30064759097E+02  0.00000000000E+00 0. -1.
          2    1    1    2  501    0 -0.51170337303E+01 -0.38169478035E+02  0.37248546435E+03  0.37447097916E+03  0.00000000000E+00 0. -1.
          2    1    1    2  502    0  0.51170337303E+01  0.38169478035E+02 -0.16318381352E+02  0.41825622023E+02  0.00000000000E+00 0. -1.
</event>
<event>
 4    1  0.6651744E+003  0.2788058E+02  0.7546771E-02  0.1438958E+00
          2   -1    0    0  501    0  0.00000000000E+00  0.00000000000E+00  0.58524702443E+03  0.58524702443E+03  0.00000000000E+00 0. -1.
          2   -1    0    0  502    0 -0.00000000000E+00 -0.00000000000E+00 -0.17479600027E+01  0.17479600027E+01  0.00000000000E+00 0. -1.
          2    1    1    2  501    0  0.27424684158E+02  0.50213073959E+01  0.14792345148E+03  0.15052798520E+03  0.00000000000E+00 0. -1.
          2    1    1    2  502    0 -0.27424684158E+02 -0.50213073959E+01  0.43557561294E+03  0.43646699923E+03  0.00000000000E+00 0. -1.
</event>
<event>
 4    1  0.6651744E+003  0.3796693E+02  0.7546771E-02  0.1360830E+00
          2   -1    0    0  501    0  0.00000000000E+00  0.00000000000E+00  0.68938632698E+03  0.68938632698E+03  0.00000000000E+00 0. -1.
          2   -1    0    0  502    0 -0.00000000000E+00 -0.00000000000E+00 -0.20940069791E+01  0.20940069791E+01  0.00000000000E+00 0. -1.
          2    1    1    2  501    0 -0.33958163528E+02  0.16980304470E+02  0.33048397715E+03  0.33265770210E+03  0.00000000000E+00 0. -1.
          2    1    1    2  502    0  0.33958163528E+02 -0.16980304470E+02  0.35680834285E+03  0.35882263186E+03  0.00000000000E+00 0. -1.
</event>
<event>
 4    1  0.6651744E+003  0.2238553E+02  0.7546771E-02  0.1500362E+00
          2   -1    0    0  501    0  0.00000000000E+00  0.00000000000E+00  0.43509218939E+03  0.43509218939E+03  0.00000000000E+00 0.  1.
          2   -1    0    0  502    0 -0.00000000000E+00 -0.00000000000E+00 -0.27911835074E+01  0.27911835074E+01  0.00000000000E+00 0. -1.
          2    1    1    2  501    0  0.18381014268E+02 -0.12776947884E+02  0.48354042666E+02  0.53284383499E+02  0.00000000000E+00 0. -1.
          2    1    1    2  502    0 -0.18381014268E+02  0.12776947884E+02  0.38394696321E+03  0.38459898940E+03  0.00000000000E+00 0.  1.
</event>
<event>
 4    1  0.6651744E+003  0.2178804E+02  0.7546771E-02  0.1508305E+00
          2   -1    0    0  501    0  0.00000000000E+00  0.00000000000E+00  0.35194513902E+02  0.35194513902E+02  0.00000000000E+00 0. -1.
          2   -1    0    0  502    0 -0.00000000000E+00 -0.00000000000E+00 -0.95089926485E+03  0.95089926485E+03  0.00000000000E+00 0.  1.
          2    1    1    2  501    0 -0.15032187196E+02 -0.15771874979E+02 -0.94738986023E+03  0.94764036742E+03  0.00000000000E+00 0.  1.
          2    1    1    2  502    0  0.15032187196E+02  0.15771874979E+02  0.31685109287E+02  0.38453411329E+02  0.00000000000E+00 0. -1.
</event>
<event>
 4    1  0.6651744E+003  0.2332316E+02  0.7546771E-02  0.1488480E+00
          2   -1    0    0  501    0  0.00000000000E+00  0.00000000000E+00  0.11876810490E+02  0.11876810490E+02  0.00000000000E+00 0. -1.
          2   -1    0    0  502    0 -0.00000000000E+00 -0.00000000000E+00 -0.17124318329E+03  0.17124318329E+03  0.00000000000E+00 0. -1.
          2    1    1    2  501    0 -0.22939203959E+02  0.42145869223E+01 -0.15804796693E+03  0.15975959962E+03  0.00000000000E+00 0. -1.
          2    1    1    2  502    0  0.22939203959E+02 -0.42145869223E+01 -0.13184058722E+01  0.23360394158E+02  0.00000000000E+00 0. -1.
</event>
<event>
 4    1  0.6651744E+003  0.2108632E+02  0.7546771E-02  0.1518036E+00
          2   -1    0    0  502    0  0.00000000000E+00  0.00000000000E+00  0.22569457701E+02  0.22569457701E+02  0.00000000000E+00 0.  1.
          2   -1    0    0  501    0 -0.00000000000E+00 -0.00000000000E+00 -0.32135086151E+02  0.32135086151E+02  0.00000000000E+00 0.  1.
          2    1    1    2  501    0  0.20054633600E+02  0.65149604812E+01  0.12231587363E+02  0.24377136180E+02  0.00000000000E+00 0.  1.
          2    1    1    2  502    0 -0.20054633600E+02 -0.65149604812E+01 -0.21797215813E+02  0.30327407672E+02  0.00000000000E+00 0.  1.
</event>
<event>
 4    1  0.6651744E+003  0.2086356E+02  0.7546771E-02  0.1521222E+00
          2   -1    0    0  501    0  0.00000000000E+00  0.00000000000E+00  0.11613607150E+04  0.11613607150E+04  0.00000000000E+00 0. -1.
          2   -1    0    0  502    0 -0.00000000000E+00 -0.00000000000E+00 -0.43775475810E+02  0.43775475810E+02  0.00000000000E+00 0.  1.
          2    1    1    2  501    0 -0.14748946973E+01  0.20811363957E+02 -0.41190314643E+02  0.46172829722E+02  0.00000000000E+00 0.  1.
          2    1    1    2  502    0  0.14748946973E+01 -0.20811363957E+02  0.11587755538E+04  0.11589633610E+04  0.00000000000E+00 0. -1.
</event>
<event>
 4    1  0.6651744E+003  0.2583729E+02  0.7546771E-02  0.1459651E+00
          2   -1    0    0  501    0  0.00000000000E+00  0.00000000000E+00  0.15037075014E+02  0.15037075014E+02  0.00000000000E+00 0.  1.
          2   -1    0    0  502    0 -0.00000000000E+00 -0.00000000000E+00 -0.16433165717E+04  0.16433165717E+04  0.00000000000E+00 0. -1.
          2    1    1    2  501    0  0.15673968672E+02  0.20540018600E+02 -0.16320396683E+04  0.16322441743E+04  0.00000000000E+00 0. -1.
          2    1    1    2  502    0 -0.15673968672E+02 -0.20540018600E+02  0.37601716256E+01  0.26109472394E+02  0.00000000000E+00 0.  1.
</event>
<event>
 4    1  0.6651744E+003  0.3071592E+02  0.7546771E-02  0.1413475E+00
          2   -1    0    0  502    0  0.00000000000E+00  0.00000000000E+00  0.61506164691E+03  0.61506164691E+03  0.00000000000E+00 0. -1.
          2   -1    0    0  501    0 -0.00000000000E+00 -0.00000000000E+00 -0.58831226573E+01  0.58831226573E+01  0.00000000000E+00 0.  1.
          2    1    1    2  501    0 -0.17570773074E+02 -0.25193956164E+02  0.57153492153E+03  0.57235970685E+03  0.00000000000E+00 0. -1.
          2    1    1    2  502    0  0.17570773074E+02  0.25193956164E+02  0.37643602724E+02  0.48585062721E+02  0.00000000000E+00 0.  1.
</event>
<event>
 4    1  0.7159613E+003  0.5097212E+02  0.7546771E-02  0.1294012E+00
          2   -1    0    0  501    0  0.00000000000E+00  0.00000000000E+00  0.15532946536E+04  0.15532946536E+04  0.00000000000E+00 0. -1.
          2   -1    0    0  502    0 -0.00000000000E+00 -0.00000000000E+00 -0.99752228852E+03  0.99752228852E+03  0.00000000000E+00 0. -1.
          2    1    1    2  501    0 -0.14820412472E+02  0.48769993055E+02 -0.99645251859E+03  0.99775537015E+03  0.00000000000E+00 0. -1.
          2    1    1    2  502    0  0.14820412472E+02 -0.48769993055E+02  0.15522248837E+04  0.15530615720E+04  0.00000000000E+00 0. -1.
</event>
<event>
 4    1  0.6651744E+003  0.4180928E+02  0.7546771E-02  0.1338198E+00
          2   -1    0    0  502    0  0.00000000000E+00  0.00000000000E+00  0.77926199218E+03  0.77926199218E+03  0.00000000000E+00 0.  1.
          2   -1    0    0  501    0 -0.00000000000E+00 -0.00000000000E+00 -0.55983322678E+03  0.55983322678E+03  0.00000000000E+00 0.  1.
          2    1    1    2  501    0 -0.45826833808E+01  0.41557370005E+02  0.77791925691E+03  0.77904196694E+03  0.00000000000E+00 0.  1.
          2    1    1    2  502    0  0.45826833808E+01 -0.41557370005E+02 -0.55849049151E+03  0.56005325201E+03  0.00000000000E+00 0.  1.
</event>
<event>
 4    1  0.6651744E+003  0.2149909E+02  0.7546771E-02  0.1512257E+00
          2   -1    0    0  501    0  0.00000000000E+00  0.00000000000E+00  0.80515401751E+03  0.80515401751E+03  0.00000000000E+00 0. -1.
          2   -1    0    0  502    0 -0.00000000000E+00 -0.00000000000E+00 -0.17507983782E+01  0.17507983782E+01  0.00000000000E+00 0.  1.
          2    1    1    2  501    0  0.74869577424E+01 -0.20153322141E+02  0.70941416287E+02  0.74127562177E+02  0.00000000000E+00 0.  1.
          2    1    1    2  502    0 -0.74869577424E+01  0.20153322141E+02  0.73246180285E+03  0.73277725371E+03  0.00000000000E+00 0. -1.
</event>
<event>
 4    1  0.6651744E+003  0.5378040E+02  0.7546771E-02  0.1282564E+00
          2   -1    0    0  501    0  0.00000000000E+00  0.00000000000E+00  0.90183908374E+01  0.90183908374E+01  0.00000000000E+00 0.  1.
          2   -1    0    0  502    0 -0.00000000000E+00 -0.00000000000E+00 -0.70737342334E+03  0.70737342334E+03  0.00000000000E+00 0.  1.
          2    1    1    2  501    0  0.17853391729E+02 -0.50730540520E+02 -0.61400320139E+03  0.61635400758E+03  0.00000000000E+00 0.  1.
          2    1    1    2  502    0 -0.17853391729E+02  0.50730540520E+02 -0.84351831116E+02  0.10003780661E+03  0.00000000000E+00 0.  1.
</event>
<event>
 4    1  0.6651744E+003  0.2100508E+02  0.7546771E-02  0.1519192E+00
          2   -1    0    0  501    0  0.00000000000E+00  0.00000000000E+00  0.23914028991E+01  0.23914028991E+01  0.00000000000E+00 0.  1.
          2   -1    0    0  502    0 -0.00000000000E+00 -0.00000000000E+00 -0.15355549461E+04  0.15355549461E+04  0.00000000000E+00 0.  1.
          2    1    1    2  501    0 -0.17129897144E+02  0.12156475214E+02 -0.14878803118E+04  0.14880285735E+04  0.00000000000E+00 0.  1.
          2    1    1    2  502    0  0.17129897144E+02 -0.12156475214E+02 -0.45283231361E+02  0.49917775474E+02  0.00000000000E+00 0.  1.
</event>
<event>
 4    1  0.6651744E+003  0.2205634E+02  0.7546771E-02  0.1504700E+00
          2   -1    0    0  501    0  0.00000000000E+00  0.00000000000E+00  0.77221796521E+01  0.77221796521E+01  0.00000000000E+00 0.  1.
          2   -1    0    0  502    0 -0.00000000000E+00 -0.00000000000E+00 -0.11770471890E+04  0.11770471890E+04  0.00000000000E+00 0. -1.
          2    1    1    2  501    0  0.10047547597E+02 -0.19634891163E+02 -0.11609763597E+04  0.11611858550E+04  0.00000000000E+00 0. -1.
          2    1    1    2  502    0 -0.10047547597E+02  0.19634891163E+02 -0.83486496600E+01  0.23583513624E+02  0.00000000000E+00 0.  1.
</event>
<event>
 4    1  0.6651744E+003  0.5534051E+02  0.7546771E-02  0.1276542E+00
          2   -1    0    0  501    0  0.00000000000E+00  0.00000000000E+00  0.91903041200E+03  0.91903041200E+03  0.00000000000E+00 0. -1.
          2   -1    0    0  502    0 -0.00000000000E+00 -0.00000000000E+00 -0.73933983972E+01  0.73933983972E+01  0.00000000000E+00 0.  1.
          2    1    1    2  501    0  0.55309052436E+02 -0.18656418946E+01  0.11251806617E+03  0.12539093714E+03  0.00000000000E+00 0.  1.
          2    1    1    2  502    0 -0.55309052436E+02  0.18656418946E+01  0.79911894743E+03  0.80103287326E+03  0.00000000000E+00 0. -1.
</event>
<event>
 4    1  0.6651744E+003  0.2042343E+02  0.7546771E-02  0.1527658E+00
          2   -1    0    0  501    0  0.00000000000E+00  0.00000000000E+00  0.14101712943E+02  0.14101712943E+02  0.00000000000E+00 0. -1.
          2   -1    0    0  502    0 -0.00000000000E+00 -0.00000000000E+00 -0.74946448467E+02  0.74946448467E+02  0.00000000000E+00 0. -1.
          2    1    1    2  501    0 -0.19222604618E+02  0.68998620634E+01 -0.65063406917E+02  0.68193574070E+02  0.00000000000E+00 0. -1.
          2    1    1    2  502    0  0.19222604618E+02 -0.68998620634E+01  0.42186713931E+01  0.20854587340E+02  0.00000000000E+00 0. -1.
</event>
<event>
 4    1  0.6651744E+003  0.3636315E+02  0.7546771E-02  0.1371225E+00
          2   -1    0    0  502    0  0.00000000000E+00  0.00000000000E+00  0.13047187287E+04  0.13047187287E+04  0.00000000000E+00 0.  1.
          2   -1    0    0  501    0 -0.00000000000E+00 -0.00000000000E+00 -0.30182030770E+02  0.30182030770E+02  0.00000000000E+00 0. -1.
          2    1    1    2  501    0  0.67799168424E+01  0.35725504239E+02  0.12934171477E+04  0.12939282039E+04  0.00000000000E+00 0.  1.
          2    1    1    2  502    0 -0.67799168424E+01 -0.35725504239E+02 -0.18880449766E+02  0.40972555558E+02  0.00000000000E+00 0. -1.
</event>
<event>
 4    1  0.6651744E+003  0.3577003E+02  0.7546771E-02  0.1375229E+00
          2   -1    0    0  502    0  0.00000000000E+00  0.00000000000E+00  0.72316715954E+03  0.72316715954E+03  0.00000000000E+00 0.  1.
          2   -1    0    0  501    0 -0.00000000000E+00 -0.00000000000E+00 -0.14482028310E+03  0.14482028310E+03  0.00000000000E+00 0.  1.
          2    1    1    2  501    0 -0.35146935762E+02  0.66473933065E+01  0.72050792579E+03  0.72139529113E+03  0.00000000000E+00 0.  1.
          2    1    1    2  502    0  0.35146935762E+02 -0.66473933065E+01 -0.14216104935E+03  0.14659215151E+03  0.00000000000E+00 0.  1.
</event>
<event>
 4    1  0.6651744E+003  0.2162119E+02  0.7546771E-02  0.1510578E+00
          2   -1    0    0  501    0  0.00000000000E+00  0.00000000000E+00  0.11155069673E+04  0.11155069673E+04  0.00000000000E+00 0.  1.
          2   -1    0    0  502    0 -0.00000000000E+00 -0.00000000000E+00 -0.45590080194E+00  0.45590080194E+00  0.00000000000E+00 0.  1.
          2    1    1    2  501    0 -0.15906690747E+02  0.14644219749E+02  0.71611985469E+03  0.71644617541E+03  0.00000000000E+00 0.  1.
          2    1    1    2  502    0  0.15906690747E+02 -0.14644219749E+02  0.39893121184E+03  0.39951669272E+03  0.00000000000E+00 0.  1.
</event>
<event>
 4    1  0.6651744E+003  0.2001536E+02  0.7546771E-02  0.1533801E+00
          2   -1    0    0  502    0  0.00000000000E+00  0.00000000000E+00  0.11144647891E+04  0.11144647891E+04  0.00000000000E+00 0. -1.
          2   -1    0    0  501    0 -0.00000000000E+00 -0.00000000000E+00 -0.10564281679E+02  0.10564281679E+02  0.00000000000E+00 0. -1.
          2    1    1    2  501    0  0.28627928943E+01 -0.19809572633E+02  0.11048116886E+04  0.11049929783E+04  0.00000000000E+00 0. -1.
          2    1    1    2  502    0 -0.28627928943E+01  0.19809572633E+02 -0.91118120339E+00  0.20036092489E+02  0.00000000000E+00 0. -1.
</event>
<event>
 4    1  0.6651744E+003  0.2011943E+02  0.7546771E-02  0.1532218E+00
          2   -1    0    0  502    0  0.00000000000E+00  0.00000000000E+00  0.50480481756E+03  0.50480481756E+03  0.00000000000E+00 0.  1.
          2   -1    0    0  501    0 -0.00000000000E+00 -0.00000000000E+00 -0.19085935882E+01  0.19085935882E+01  0.00000000000E+00 0. -1.
          2    1    1    2  501    0 -0.14629515760E+02 -0.13811908127E+02  0.44437547072E+03  0.44483069871E+03  0.00000000000E+00 0.  1.
          2    1    1    2  502    0  0.14629515760E+02  0.13811908127E+02  0.58520753244E+02  0.61882712430E+02  0.00000000000E+00 0. -1.
</event>
<event>
 4    1  0.6651744E+003  0.2468493E+02  0.7546771E-02  0.1472359E+00
          2   -1    0    0  501    0  0.00000000000E+00  0.00000000000E+00  0.90888604227E+02  0.90888604227E+02  0.00000000000E+00 0.  1.
          2   -1    0    0  502    0 -0.00000000000E+00 -0.00000000000E+00 -0.34883936952E+03  0.34883936952E+03  0.00000000000E+00 0.  1.
          2    1    1    2  501    0  0.74978017105E+01  0.23518687351E+02 -0.34671634610E+03  0.34759397340E+03  0.00000000000E+00 0.  1.
          2    1    1    2  502    0 -0.74978017105E+01 -0.23518687351E+02  0.88765580808E+02  0.92134000355E+02  0.00000000000E+00 0.  1.
</event>
<event>
 4    1  0.6651744E+003  0.4500520E+02  0.7546771E-02  0.1321413E+00
          2   -1    0    0  501    0  0.00000000000E+00  0.00000000000E+00  0.16953780317E+04  0.16953780317E+04  0.00000000000E+00 0.  1.
          2   -1    0    0  502    0 -0.00000000000E+00 -0.00000000000E+00 -0.96247995262E+02  0.96247995262E+02  0.00000000000E+00 0. -1.
          2    1    1    2  501    0 -0.43023540185E+02  0.13207699362E+02 -0.90670893142E+02  0.10122588204E+03  0.00000000000E+00 0. -1.
          2    1    1    2  502    0  0.43023540185E+02 -0.13207699362E+02  0.16898009295E+04  0.16904001449E+04  0.00000000000E+00 0.  1.
</event>
<event>
 4    1  0.6651744E+003  0.2322394E+02  0.7546771E-02  0.1489705E+00
          2   -1    0    0  501    0  0.00000000000E+00  0.00000000000E+00  0.10666219691E+01  0.10666219691E+01  0.00000000000E+00 0. -1.
          2   -1    0    0  502    0 -0.00000000000E+00 -0.00000000000E+00 -0.63179091844E+03  0.63179091844E+03  0.00000000000E+00 0. -1.
          2    1    1    2  501    0  0.20489432635E+02  0.10933186555E+02 -0.45674431749E+03  0.45733436672E+03  0.00000000000E+00 0. -1.
          2    1    1    2  502    0 -0.20489432635E+02 -0.10933186555E+02 -0.17397997898E+03  0.17552317369E+03  0.00000000000E+00 0. -1.
</event>
<event>
 4    1  0.6651744E+003  0.2209229E+02  0.7546771E-02  0.1504222E+00
          2   -1    0    0  502    0  0.00000000000E+00  0.00000000000E+00  0.29160152976E+01  0.29160152976E+01  0.00000000000E+00 0. -1.
          2   -1    0    0  501    0 -0.00000000000E+00 -0.00000000000E+00 -0.30700027540E+03  0.30700027540E+03  0.00000000000E+00 0.  1.
          2    1    1    2  501    0 -0.72144301329E+01 -0.20881124731E+02 -0.47539709725E+02  0.52422260280E+02  0.00000000000E+00 0. -1.
          2    1    1    2  502    0  0.72144301329E+01  0.20881124731E+02 -0.25654455038E+03  0.25749403041E+03  0.00000000000E+00 0.  1.
</event>
<event>
 4    1  0.6651744E+003  0.3456925E+02  0.7546771E-02  0.1383617E+00
          2   -1    0    0  501    0  0.00000000000E+00  0.00000000000E+00  0.60699057709E+03  0.60699057709E+03  0.00000000000E+00 0. -1.
          2   -1    0    0  502    0 -0.00000000000E+00 -0.00000000000E+00 -0.44639837209E+02  0.44639837209E+02  0.00000000000E+00 0.  1.
          2    1    1    2  501    0 -0.26045147546E+02  0.22730668462E+02 -0.37373987695E+02  0.50910195007E+02  0.00000000000E+00 0.  1.
          2    1    1    2  502    0  0.26045147546E+02 -0.22730668462E+02  0.59972472758E+03  0.60072021929E+03  0.00000000000E+00 0. -1.
</event>
<event>
 4    1  0.6651744E+003  0.2395893E+02  0.7546771E-02  0.1480796E+00
          2   -1    0    0  502    0  0.00000000000E+00  0.00000000000E+00  0.43608364985E+02  0.43608364985E+02  0.00000000000E+00 0.  1.
          2   -1    0    0  501    0 -0.00000000000E+00 -0.00000000000E+00 -0.20583391641E+02  0.20583391641E+02  0.00000000000E+00 0. -1.
          2    1    1    2  501    0 -0.14494175660E+02 -0.19077451683E+02 -0.77581129902E+01  0.25183697265E+02  0.00000000000E+00 0. -1.
          2    1    1    2  502    0  0.14494175660E+02  0.19077451683E+02  0.30783086335E+02  0.39008059361E+02  0.00000000000E+00 0.  1.
</event>
<event>
 4    1  0.6651744E+003  0.2077743E+02  0.7546771E-02  0.1522466E+00
          2   -1    0    0  501    0  0.00000000000E+00  0.00000000000E+00  0.10528535568E+04  0.10528535568E+04  0.00000000000E+00 0. -1.
          2   -1    0    0  502    0 -0.00000000000E+00 -0.00000000000E+00 -0.21268850367E+01  0.21268850367E+01  0.00000000000E+00 0. -1.
          2    1    1    2  501    0 -0.65735822187E+01  0.19710136214E+02  0.51438761018E+02  0.55476549891E+02  0.00000000000E+00 0. -1.
          2    1    1    2  502    0  0.65735822187E+01 -0.19710136214E+02  0.99928791074E+03  0.99950389194E+03  0.00000000000E+00 0. -1.
</event>
<event>
 4    1  0.6651744E+003  0.3763057E+02  0.7546771E-02  0.1362959E+00
          2   -1    0    0  502    0  0.00000000000E+00  0.00000000000E+00  0.71967451427E+00  0.71967451427E+00  0.00000000000E+00 0. -1.
          2   -1    0    0  501    0 -0.00000000000E+00 -0.00000000000E+00 -0.23633608378E+04  0.23633608378E+04  0.00000000000E+00 0.  1.
          2    1    1    2  501    0  0.29078631031E+02 -0.23884995597E+02 -0.69763611555E+03  0.69865027697E+03  0.00000000000E+00 0. -1.
          2    1    1    2  502    0 -0.29078631031E+02  0.23884995597E+02 -0.16650050478E+04  0.16654302354E+04  0.00000000000E+00 0.  1.
</event>
<event>
 4    1  0.6651744E+003  0.2506407E+02  0.7546771E-02  0.1468088E+00
          2   -1    0    0  502    0  0.00000000000E+00  0.00000000000E+00  0.18113025063E+01  0.18113025063E+01  0.00000000000E+00 0.  1.
          2   -1    0    0  501    0 -0.00000000000E+00 -0.00000000000E+00 -0.39536743222E+03  0.39536743222E+03  0.00000000000E+00 0.  1.
          2    1    1    2  501    0  0.21649076319E+02  0.12630329605E+02 -0.12719403983E+03  0.12964000733E+03  0.00000000000E+00 0.  1.
          2    1    1    2  502    0 -0.21649076319E+02 -0.12630329605E+02 -0.26636208988E+03  0.26753872740E+03  0.00000000000E+00 0.  1.
</event>
<event>
 4    1  0.6651744E+003  0.2151084E+02  0.7546771E-02  0.1512095E+00
          2   -1    0    0  501    0  0.00000000000E+00  0.00000000000E+00  0.26401884297E+02  0.26401884297E+02  0.00000000000E+00 0. -1.
          2   -1    0    0  502    0 -0.00000000000E+00 -0.00000000000E+00 -0.23411475085E+02  0.23411475085E+02  0.00000000000E+00 0.  1.
          2    1    1    2  501    0  0.16481516215E+02  0.13823018078E+02 -0.10992905154E+02  0.24156990071E+02  0.00000000000E+00 0.  1.
          2    1    1    2  502    0 -0.16481516215E+02 -0.13823018078E+02  0.13983314367E+02  0.25656369311E+02  0.00000000000E+00 0. -1.
</event>
<event>
 4    1  0.6651744E+003  0.4255562E+02  0.7546771E-02  0.1334127E+00
          2   -1    0    0  502    0  0.00000000000E+00  0.00000000000E+00  0.27720587672E+04  0.27720587672E+04  0.00000000000E+00 0.  1.
          2   -1    0    0  501    0 -0.00000000000E+00 -0.00000000000E+00 -0.20537942610E+01  0.20537942610E+01  0.00000000000E+00 0. -1.
          2    1    1    2  501    0  0.22481865401E+01 -0.42496190239E+02  0.25304009274E+04  0.25307587467E+04  0.00000000000E+00 0.  1.
          2    1    1    2  502    0 -0.22481865401E+01  0.42496190239E+02  0.23960404546E+03  0.24335381470E+03  0.00000000000E+00 0. -1.
</event>
