<event>
 4    1  0.1571930E+006  0.2569617E+02  0.7546771E-02  0.1461164E+00
         21   -1    0    0  502  501  0.00000000000E+00  0.00000000000E+00  0.10603412378E+02  0.10603412378E+02  0.00000000000E+00 0. -1.
         21   -1    0    0  504  502 -0.00000000000E+00 -0.00000000000E+00 -0.41073493600E+03  0.41073493600E+03  0.00000000000E+00 0. -1.
         21    1    1    2  503  501  0.25682560162E+02 -0.83634492274E+00 -0.60224835766E+01  0.26392492829E+02  0.00000000000E+00 0. -1.
         21    1    1    2  504  503 -0.25682560162E+02  0.83634492274E+00 -0.39410904004E+03  0.39494585555E+03  0.00000000000E+00 0. -1.
</event>
<event>
 4    1  0.1571930E+006  0.2619834E+02  0.7546771E-02  0.1455831E+00
         21   -1    0    0  502  501  0.00000000000E+00  0.00000000000E+00  0.25427911660E+03  0.25427911660E+03  0.00000000000E+00 0. -1.
         21   -1    0    0  503  502 -0.00000000000E+00 -0.00000000000E+00 -0.53014414051E+01  0.53014414051E+01  0.00000000000E+00 0. -1.
         21    1    1    2  503  504  0.98913987704E+01  0.24259295484E+02  0.33556576234E+02  0.42572256172E+02  0.00000000000E+00 0. -1.
         21    1    1    2  504  501 -0.98913987704E+01 -0.24259295484E+02  0.21542109896E+03  0.21700830183E+03  0.00000000000E+00 0. -1.
</event>
<event>
 4    1  0.1571930E+006  0.2817406E+02  0.7546771E-02  0.1436158E+00
         21   -1    0    0  503  501  0.00000000000E+00  0.00000000000E+00  0.52982389110E+02  0.52982389110E+02  0.00000000000E+00 0. -1.
         21   -1    0    0  504  502 -0.00000000000E+00 -0.00000000000E+00 -0.28385274693E+02  0.28385274693E+02  0.00000000000E+00 0.  1.
         21    1    1    2  503  502 -0.24585831146E+02 -0.13759165505E+02  0.40255013024E+02  0.49134954992E+02  0.00000000000E+00 0. -1.
         21    1    1    2  504  501  0.24585831146E+02  0.13759165505E+02 -0.15657898607E+02  0.32232708811E+02  0.00000000000E+00 0.  1.
</event>
<event>
 4    1  0.1571930E+006  0.2752490E+02  0.7546771E-02  0.1442405E+00
         21   -1    0    0  503  501  0.00000000000E+00  0.00000000000E+00  0.95941252188E+02  0.95941252188E+02  0.00000000000E+00 0.  1.
         21   -1    0    0  501  502 -0.00000000000E+00 -0.00000000000E+00 -0.27112802001E+03  0.27112802001E+03  0.00000000000E+00 0.  1.
         21    1    1    2  503  504  0.16252260817E+02 -0.22214501367E+02  0.93248743757E+02  0.97226273532E+02  0.00000000000E+00 0.  1.
         21    1    1    2  504  502 -0.16252260817E+02  0.22214501367E+02 -0.26843551158E+03  0.26984299867E+03  0.00000000000E+00 0.  1.
</event>
<event>
 4    1  0.1571930E+006  0.2275197E+02  0.7546771E-02  0.1495636E+00
         21   -1    0    0  502  501  0.00000000000E+00  0.00000000000E+00  0.10330359906E+02  0.10330359906E+02  0.00000000000E+00 0.  1.
         21   -1    0    0  503  502 -0.00000000000E+00 -0.00000000000E+00 -0.10867156412E+03  0.10867156412E+03  0.00000000000E+00 0.  1.
         21    1    1    2  503  504  0.12650843145E+02 -0.18910536364E+02 -0.92849645890E+02  0.95596594917E+02  0.00000000000E+00 0.  1.
         21    1    1    2  504  501 -0.12650843145E+02  0.18910536364E+02 -0.54915583230E+01  0.23405329108E+02  0.00000000000E+00 0.  1.
</event>
<event>
 4    1  0.1571930E+006  0.2342409E+02  0.7546771E-02  0.1487240E+00
         21   -1    0    0  504  501  0.00000000000E+00  0.00000000000E+00  0.12644859665E+02  0.12644859665E+02  0.00000000000E+00 0. -1.
         21   -1    0    0  503  502 -0.00000000000E+00 -0.00000000000E+00 -0.44181755960E+02  0.44181755960E+02  0.00000000000E+00 0. -1.
         21    1    1    2  503  501 -0.75644991729E+01 -0.22169039399E+02 -0.19566831679E+02  0.30521285320E+02  0.00000000000E+00 0. -1.
         21    1    1    2  504  502  0.75644991729E+01  0.22169039399E+02 -0.11970064616E+02  0.26305330306E+02  0.00000000000E+00 0. -1.
</event>
<event>
 4    1  0.1571930E+006  0.2001054E+02  0.7546771E-02  0.1533875E+00
         21   -1    0    0  502  501  0.00000000000E+00  0.00000000000E+00  0.59205864851E+02  0.59205864851E+02  0.00000000000E+00 0. -1.
         21   -1    0    0  503  502 -0.00000000000E+00 -0.00000000000E+00 -0.38663232868E+02  0.38663232868E+02  0.00000000000E+00 0.  1.
         21    1    1    2  503  504  0.16732824567E+02  0.10974256130E+02 -0.34177684672E+02  0.39604745235E+02  0.00000000000E+00 0.  1.
         21    1    1    2  504  501 -0.16732824567E+02 -0.10974256130E+02  0.54720316654E+02  0.58264352484E+02  0.00000000000E+00 0. -1.
</event>
<event>
 4    1  0.1571930E+006  0.2072127E+02  0.7546771E-02  0.1523282E+00
         21   -1    0    0  503  501  0.00000000000E+00  0.00000000000E+00  0.65240325912E+01  0.65240325912E+01  0.00000000000E+00 0. -1.
         21   -1    0    0  501  502 -0.00000000000E+00 -0.00000000000E+00 -0.11415259969E+03  0.11415259969E+03  0.00000000000E+00 0. -1.
         21    1    1    2  503  504 -0.85030265242E+00 -0.20703813534E+02 -0.14549922427E+02  0.25319382932E+02  0.00000000000E+00 0. -1.
         21    1    1    2  504  502  0.85030265242E+00  0.20703813534E+02 -0.93078644669E+02  0.95357249346E+02  0.00000000000E+00 0. -1.
</event>
<event>
 4    1  0.1571930E+006  0.2448349E+02  0.7546771E-02  0.1474665E+00
         21   -1    0    0  503  501  0.00000000000E+00  0.00000000000E+00  0.62592110502E+02  0.62592110502E+02  0.00000000000E+00 0. -1.
         21   -1    0    0  504  502 -0.00000000000E+00 -0.00000000000E+00 -0.17936103789E+03  0.17936103789E+03  0.00000000000E+00 0.  1.
         21    1    1    2  503  502 -0.32431647758E+01 -0.24267743384E+02 -0.17608697290E+03  0.17778094249E+03  0.00000000000E+00 0.  1.
         21    1    1    2  504  501  0.32431647758E+01  0.24267743384E+02  0.59318045514E+02  0.64172205902E+02  0.00000000000E+00 0. -1.
</event>
<event>
 4    1  0.1571930E+006  0.2051119E+02  0.7546771E-02  0.1526360E+00
         21   -1    0    0  502  501  0.00000000000E+00  0.00000000000E+00  0.37767158293E+02  0.37767158293E+02  0.00000000000E+00 0.  1.
         21   -1    0    0  504  502 -0.00000000000E+00 -0.00000000000E+00 -0.28961545442E+02  0.28961545442E+02  0.00000000000E+00 0. -1.
         21    1    1    2  503  501  0.18044298920E+02  0.97525440349E+01  0.30575600623E+02  0.36818150308E+02  0.00000000000E+00 0.  1.
         21    1    1    2  504  503 -0.18044298920E+02 -0.97525440349E+01 -0.21769987773E+02  0.29910553427E+02  0.00000000000E+00 0. -1.
</event>
<event>
 4    1  0.1571930E+006  0.3337550E+02  0.7546771E-02  0.1392358E+00
         21   -1    0    0  504  501  0.00000000000E+00  0.00000000000E+00  0.16340477697E+03  0.16340477697E+03  0.00000000000E+00 0.  1.
         21   -1    0    0  503  502 -0.00000000000E+00 -0.00000000000E+00 -0.40008646353E+02  0.40008646353E+02  0.00000000000E+00 0. -1.
         21    1    1    2  503  501 -0.80276579448E+01  0.32395692413E+02  0.15433567257E+03  0.15790321089E+03  0.00000000000E+00 0.  1.
         21    1    1    2  504  502  0.80276579448E+01 -0.32395692413E+02 -0.30939541962E+02  0.45510212434E+02  0.00000000000E+00 0. -1.
</event>
<event>
 4    1  0.1571930E+006  0.2529139E+02  0.7546771E-02  0.1465570E+00
         21   -1    0    0  504  501  0.00000000000E+00  0.00000000000E+00  0.32217881056E+03  0.32217881056E+03  0.00000000000E+00 0.  1.
         21   -1    0    0  501  502 -0.00000000000E+00 -0.00000000000E+00 -0.32955253704E+01  0.32955253704E+01  0.00000000000E+00 0. -1.
         21    1    1    2  503  502  0.19224235203E+02  0.16434214372E+02  0.56833828542E+02  0.62207223760E+02  0.00000000000E+00 0. -1.
         21    1    1    2  504  503 -0.19224235203E+02 -0.16434214372E+02  0.26204945665E+03  0.26326711217E+03  0.00000000000E+00 0.  1.
</event>
<event>
 4    1  0.1571930E+006  0.2575659E+02  0.7546771E-02  0.1460515E+00
         21   -1    0    0  503  501  0.00000000000E+00  0.00000000000E+00  0.77217607463E+02  0.77217607463E+02  0.00000000000E+00 0. -1.
         21   -1    0    0  501  502 -0.00000000000E+00 -0.00000000000E+00 -0.19476747852E+02  0.19476747852E+02  0.00000000000E+00 0. -1.
         21    1    1    2  503  504 -0.17598453918E+02  0.18806818494E+02  0.65014365744E+02  0.69930463714E+02  0.00000000000E+00 0. -1.
         21    1    1    2  504  502  0.17598453918E+02 -0.18806818494E+02 -0.72735061331E+01  0.26763891601E+02  0.00000000000E+00 0. -1.
</event>
<event>
 4    1  0.1571930E+006  0.2970816E+02  0.7546771E-02  0.1422150E+00
         21   -1    0    0  503  501  0.00000000000E+00  0.00000000000E+00  0.95244854707E+01  0.95244854707E+01  0.00000000000E+00 0. -1.
         21   -1    0    0  504  502 -0.00000000000E+00 -0.00000000000E+00 -0.18421810340E+03  0.18421810340E+03  0.00000000000E+00 0. -1.
         21    1    1    2  503  502  0.77893813612E+01 -0.28668799662E+02 -0.19055026127E+02  0.35294030044E+02  0.00000000000E+00 0. -1.
         21    1    1    2  504  501 -0.77893813612E+01  0.28668799662E+02 -0.15563859180E+03  0.15844855882E+03  0.00000000000E+00 0. -1.
</event>
<event>
 4    1  0.1571930E+006  0.2014683E+02  0.7546771E-02  0.1531803E+00
         21   -1    0    0  503  501  0.00000000000E+00  0.00000000000E+00  0.52483886576E+02  0.52483886576E+02  0.00000000000E+00 0.  1.
         21   -1    0    0  504  502 -0.00000000000E+00 -0.00000000000E+00 -0.21289932901E+02  0.21289932901E+02  0.00000000000E+00 0. -1.
         21    1    1    2  503  502  0.19921713407E+02 -0.30033308946E+01 -0.13837385310E+02  0.24441110731E+02  0.00000000000E+00 0. -1.
         21    1    1    2  504  501 -0.19921713407E+02  0.30033308946E+01  0.45031338985E+02  0.49332708747E+02  0.00000000000E+00 0.  1.
</event>
<event>
 4    1  0.1571930E+006  0.4440711E+02  0.7546771E-02  0.1324431E+00
         21   -1    0    0  502  501  0.00000000000E+00  0.00000000000E+00  0.13108707721E+04  0.13108707721E+04  0.00000000000E+00 0. -1.
         21   -1    0    0  504  502 -0.00000000000E+00 -0.00000000000E+00 -0.58622342217E+01  0.58622342217E+01  0.00000000000E+00 0. -1.
         21    1    1    2  503  501  0.43524575166E+02  0.88092539046E+01  0.12201464076E+04  0.12209542365E+04  0.00000000000E+00 0. -1.
         21    1    1    2  504  503 -0.43524575166E+02 -0.88092539046E+01  0.84862130305E+02  0.95778769869E+02  0.00000000000E+00 0. -1.
</event>
<event>
 4    1  0.1571930E+006  0.2541251E+02  0.7546771E-02  0.1464241E+00
         21   -1    0    0  503  501  0.00000000000E+00  0.00000000000E+00  0.93837749858E+02  0.93837749858E+02  0.00000000000E+00 0.  1.
         21   -1    0    0  501  502 -0.00000000000E+00 -0.00000000000E+00 -0.42294657972E+02  0.42294657972E+02  0.00000000000E+00 0. -1.
         21    1    1    2  503  504  0.24659949692E+02  0.61385954453E+01  0.88054294199E+02  0.91647990702E+02  0.00000000000E+00 0.  1.
         21    1    1    2  504  502 -0.24659949692E+02 -0.61385954453E+01 -0.36511202313E+02  0.44484417128E+02  0.00000000000E+00 0. -1.
</event>
<event>
 4    1  0.1571930E+006  0.3658895E+02  0.7546771E-02  0.1369724E+00
         21   -1    0    0  502  501  0.00000000000E+00  0.00000000000E+00  0.46730581837E+03  0.46730581837E+03  0.00000000000E+00 0.  1.
         21   -1    0    0  504  502 -0.00000000000E+00 -0.00000000000E+00 -0.30508237673E+02  0.30508237673E+02  0.00000000000E+00 0.  1.
         21    1    1    2  503  501 -0.22673490473E+02 -0.28716971219E+02  0.45533115570E+03  0.45679887583E+03  0.00000000000E+00 0.  1.
         21    1    1    2  504  503  0.22673490473E+02  0.28716971219E+02 -0.18533574999E+02  0.41015180220E+02  0.00000000000E+00 0.  1.
</event>
<event>
 4    1  0.1571930E+006  0.3224398E+02  0.7546771E-02  0.1401048E+00
         21   -1    0    0  503  501  0.00000000000E+00  0.00000000000E+00  0.52096967856E+02  0.52096967856E+02  0.00000000000E+00 0. -1.
         21   -1    0    0  504  502 -0.00000000000E+00 -0.00000000000E+00 -0.11613134679E+03  0.11613134679E+03  0.00000000000E+00 0. -1.
         21    1    1    2  503  502 -0.31928298312E+02  0.45008789661E+01 -0.10856364315E+03  0.11325077818E+03  0.00000000000E+00 0. -1.
         21    1    1    2  504  501  0.31928298312E+02 -0.45008789661E+01  0.44529264214E+02  0.54977536468E+02  0.00000000000E+00 0. -1.
</event>
<event>
 4    1  0.1571930E+006  0.2845969E+02  0.7546771E-02  0.1433472E+00
         21   -1    0    0  503  501  0.00000000000E+00  0.00000000000E+00  0.11592909975E+03  0.11592909975E+03  0.00000000000E+00 0.  1.
         21   -1    0    0  504  502 -0.00000000000E+00 -0.00000000000E+00 -0.75680494711E+01  0.75680494711E+01  0.00000000000E+00 0. -1.
         21    1    1    2  503  502 -0.27566337720E+02  0.70746915850E+01  0.71295572221E+02  0.76765961562E+02  0.00000000000E+00 0.  1.
         21    1    1    2  504  501  0.27566337720E+02 -0.70746915850E+01  0.37065478059E+02  0.46731187660E+02  0.00000000000E+00 0. -1.
</event>
<event>
 4    1  0.1571930E+006  0.2507333E+02  0.7546771E-02  0.1467985E+00
         21   -1    0    0  504  501  0.00000000000E+00  0.00000000000E+00  0.22571677937E+03  0.22571677937E+03  0.00000000000E+00 0.  1.
         21   -1    0    0  503  502 -0.00000000000E+00 -0.00000000000E+00 -0.11090961420E+02  0.11090961420E+02  0.00000000000E+00 0.  1.
         21    1    1    2  503  501 -0.79746591614E+01 -0.23771342221E+02  0.20977669230E+03  0.21126980980E+03  0.00000000000E+00 0.  1.
         21    1    1    2  504  502  0.79746591614E+01  0.23771342221E+02  0.48491256483E+01  0.25537930990E+02  0.00000000000E+00 0.  1.
</event>
<event>
 4    1  0.1571930E+006  0.2864980E+02  0.7546771E-02  0.1431704E+00
         21   -1    0    0  502  501  0.00000000000E+00  0.00000000000E+00  0.37021629188E+01  0.37021629188E+01  0.00000000000E+00 0. -1.
         21   -1    0    0  504  502 -0.00000000000E+00 -0.00000000000E+00 -0.61926711905E+03  0.61926711905E+03  0.00000000000E+00 0. -1.
         21    1    1    2  503  501 -0.17849238402E+02  0.22410164785E+02 -0.58209957203E+02  0.64878424109E+02  0.00000000000E+00 0. -1.
         21    1    1    2  504  503  0.17849238402E+02 -0.22410164785E+02 -0.55735499893E+03  0.55809085786E+03  0.00000000000E+00 0. -1.
</event>
<event>
 4    1  0.1571930E+006  0.2021225E+02  0.7546771E-02  0.1530816E+00
         21   -1    0    0  503  501  0.00000000000E+00  0.00000000000E+00  0.21810759177E+03  0.21810759177E+03  0.00000000000E+00 0.  1.
         21   -1    0    0  504  502 -0.00000000000E+00 -0.00000000000E+00 -0.20411749863E+01  0.20411749863E+01  0.00000000000E+00 0.  1.
         21    1    1    2  503  502  0.10423215190E+01 -0.20185352838E+02  0.76445940813E+02  0.79072857355E+02  0.00000000000E+00 0.  1.
         21    1    1    2  504  501 -0.10423215190E+01  0.20185352838E+02  0.13962047597E+03  0.14107590940E+03  0.00000000000E+00 0.  1.
</event>
<event>
 4    1  0.1571930E+006  0.2833686E+02  0.7546771E-02  0.1434622E+00
         21   -1    0    0  504  501  0.00000000000E+00  0.00000000000E+00  0.23732853273E+02  0.23732853273E+02  0.00000000000E+00 0. -1.
         21   -1    0    0  501  502 -0.00000000000E+00 -0.00000000000E+00 -0.36643198090E+02  0.36643198090E+02  0.00000000000E+00 0. -1.
         21    1    1    2  503  502  0.23851348931E+02 -0.15300023467E+02 -0.14813676049E+02  0.31975343032E+02  0.00000000000E+00 0. -1.
         21    1    1    2  504  503 -0.23851348931E+02  0.15300023467E+02  0.19033312317E+01  0.28400708331E+02  0.00000000000E+00 0. -1.
</event>
<event>
 4    1  0.1571930E+006  0.2518948E+02  0.7546771E-02  0.1466695E+00
         21   -1    0    0  504  501  0.00000000000E+00  0.00000000000E+00  0.79873686019E+03  0.79873686019E+03  0.00000000000E+00 0.  1.
         21   -1    0    0  503  502 -0.00000000000E+00 -0.00000000000E+00 -0.12989750730E+01  0.12989750730E+01  0.00000000000E+00 0. -1.
         21    1    1    2  503  501  0.20177583479E+02 -0.15078956967E+02  0.14940557476E+03  0.15151414319E+03  0.00000000000E+00 0. -1.
         21    1    1    2  504  502 -0.20177583479E+02  0.15078956967E+02  0.64803231036E+03  0.64852169207E+03  0.00000000000E+00 0.  1.
</event>
<event>
 4    1  0.1571930E+006  0.2298461E+02  0.7546771E-02  0.1492691E+00
         21   -1    0    0  503  501  0.00000000000E+00  0.00000000000E+00  0.45036586764E+02  0.45036586764E+02  0.00000000000E+00 0.  1.
         21   -1    0    0  504  502 -0.00000000000E+00 -0.00000000000E+00 -0.13044518381E+02  0.13044518381E+02  0.00000000000E+00 0.  1.
         21    1    1    2  503  502 -0.20103515170E+02  0.11141866803E+02  0.67782785539E+01  0.23963254750E+02  0.00000000000E+00 0.  1.
         21    1    1    2  504  501  0.20103515170E+02 -0.11141866803E+02  0.25213789829E+02  0.34117850396E+02  0.00000000000E+00 0.  1.
</event>
<event>
 4    1  0.1571930E+006  0.2047600E+02  0.7546771E-02  0.1526879E+00
         21   -1    0    0  502  501  0.00000000000E+00  0.00000000000E+00  0.18423862917E+03  0.18423862917E+03  0.00000000000E+00 0. -1.
         21   -1    0    0  503  502 -0.00000000000E+00 -0.00000000000E+00 -0.17041004510E+02  0.17041004510E+02  0.00000000000E+00 0.  1.
         21    1    1    2  503  504  0.20996164242E+01 -0.20368064279E+02 -0.10080539763E+02  0.22822876978E+02  0.00000000000E+00 0.  1.
         21    1    1    2  504  501 -0.20996164242E+01  0.20368064279E+02  0.17727816442E+03  0.17845675670E+03  0.00000000000E+00 0. -1.
</event>
<event>
 4    1  0.1571930E+006  0.2230145E+02  0.7546771E-02  0.1501461E+00
         21   -1    0    0  504  501  0.00000000000E+00  0.00000000000E+00  0.37950319059E+02  0.37950319059E+02  0.00000000000E+00 0. -1.
         21   -1    0    0  503  502 -0.00000000000E+00 -0.00000000000E+00 -0.45538225910E+02  0.45538225910E+02  0.00000000000E+00 0. -1.
         21    1    1    2  503  501 -0.81111242014E+01 -0.20774123158E+02  0.31435115460E+02  0.38542457275E+02  0.00000000000E+00 0. -1.
         21    1    1    2  504  502  0.81111242014E+01  0.20774123158E+02 -0.39023022311E+02  0.44946087695E+02  0.00000000000E+00 0. -1.
</event>
<event>
 4    1  0.1571930E+006  0.3522201E+02  0.7546771E-02  0.1379009E+00
         21   -1    0    0  502  501  0.00000000000E+00  0.00000000000E+00  0.12944061882E+03  0.12944061882E+03  0.00000000000E+00 0.  1.
         21   -1    0    0  504  502 -0.00000000000E+00 -0.00000000000E+00 -0.21919881627E+02  0.21919881627E+02  0.00000000000E+00 0. -1.
         21    1    1    2  503  501 -0.29073994422E+02  0.19881969586E+02  0.11053369507E+03  0.11600985998E+03  0.00000000000E+00 0.  1.
         21    1    1    2  504  503  0.29073994422E+02 -0.19881969586E+02 -0.30129578799E+01  0.35350640467E+02  0.00000000000E+00 0. -1.
</event>
<event>
 4    1  0.1571930E+006  0.2252606E+02  0.7546771E-02  0.1498537E+00
         21   -1    0    0  504  501  0.00000000000E+00  0.00000000000E+00  0.35151387284E+01  0.35151387284E+01  0.00000000000E+00 0. -1.
         21   -1    0    0  503  502 -0.00000000000E+00 -0.00000000000E+00 -0.17932436259E+03  0.17932436259E+03  0.00000000000E+00 0. -1.
         21    1    1    2  503  501  0.21762908764E+02 -0.58137020662E+01 -0.12827586504E+03  0.13023870731E+03  0.00000000000E+00 0. -1.
         21    1    1    2  504  502 -0.21762908764E+02  0.58137020662E+01 -0.47533358819E+02  0.52600794007E+02  0.00000000000E+00 0. -1.
</event>
<event>
 4    1  0.1571930E+006  0.2148094E+02  0.7546771E-02  0.1512508E+00
         21   -1    0    0  502  501  0.00000000000E+00  0.00000000000E+00  0.27191387029E+02  0.27191387029E+02  0.00000000000E+00 0.  1.
         21   -1    0    0  504  502 -0.00000000000E+00 -0.00000000000E+00 -0.26480226438E+03  0.26480226438E+03  0.00000000000E+00 0. -1.
         21    1    1    2  503  501  0.21447298356E+02 -0.12016887545E+01  0.22435865738E+02  0.31061209475E+02  0.00000000000E+00 0.  1.
         21    1    1    2  504  503 -0.21447298356E+02  0.12016887545E+01 -0.26004674309E+03  0.26093244194E+03  0.00000000000E+00 0. -1.
</event>
<event>
 4    1  0.1571930E+006  0.2228112E+02  0.7546771E-02  0.1501728E+00
         21   -1    0    0  502  501  0.00000000000E+00  0.00000000000E+00  0.65884577982E+02  0.65884577982E+02  0.00000000000E+00 0. -1.
         21   -1    0    0  503  502 -0.00000000000E+00 -0.00000000000E+00 -0.13656700155E+02  0.13656700155E+02  0.00000000000E+00 0.  1.
         21    1    1    2  503  504 -0.17628835224E+02  0.13626170651E+02 -0.51300775338E+00  0.22287026157E+02  0.00000000000E+00 0.  1.
         21    1    1    2  504  501  0.17628835224E+02 -0.13626170651E+02  0.52740885581E+02  0.57254251980E+02  0.00000000000E+00 0. -1.
</event>
<event>
 4    1  0.1571930E+006  0.2200278E+02  0.7546771E-02  0.1505415E+00
         21   -1    0    0  504  501  0.00000000000E+00  0.00000000000E+00  0.26027993122E+02  0.26027993122E+02  0.00000000000E+00 0. -1.
         21   -1    0    0  503  502 -0.00000000000E+00 -0.00000000000E+00 -0.98016864842E+02  0.98016864842E+02  0.00000000000E+00 0.  1.
         21    1    1    2  503  501  0.59352263293E+01  0.21187148599E+02  0.19833886560E+02  0.29622714822E+02  0.00000000000E+00 0. -1.
         21    1    1    2  504  502 -0.59352263293E+01 -0.21187148599E+02 -0.91822758280E+02  0.94422143142E+02  0.00000000000E+00 0.  1.
</event>
<event>
 4    1  0.1571930E+006  0.2591689E+02  0.7546771E-02  0.1458802E+00
         21   -1    0    0  503  501  0.00000000000E+00  0.00000000000E+00  0.17319284376E+02  0.17319284376E+02  0.00000000000E+00 0. -1.
         21   -1    0    0  504  502 -0.00000000000E+00 -0.00000000000E+00 -0.13100171596E+03  0.13100171596E+03  0.00000000000E+00 0.  1.
         21    1    1    2  503  502 -0.21069277209E+02 -0.15092069414E+02 -0.11906334818E+03  0.12185140902E+03  0.00000000000E+00 0.  1.
         21    1    1    2  504  501  0.21069277209E+02  0.15092069414E+02  0.53809165875E+01  0.26469591320E+02  0.00000000000E+00 0. -1.
</event>
<event>
 4    1  0.1571930E+006  0.2041508E+02  0.7546771E-02  0.1527782E+00
         21   -1    0    0  503  501  0.00000000000E+00  0.00000000000E+00  0.28071965574E+02  0.28071965574E+02  0.00000000000E+00 0. -1.
         21   -1    0    0  504  502 -0.00000000000E+00 -0.00000000000E+00 -0.65314974511E+02  0.65314974511E+02  0.00000000000E+00 0. -1.
         21    1    1    2  503  502  0.17350189580E+02 -0.10758550632E+02 -0.59666393264E+02  0.63062302331E+02  0.00000000000E+00 0. -1.
         21    1    1    2  504  501 -0.17350189580E+02  0.10758550632E+02  0.22423384327E+02  0.30324637753E+02  0.00000000000E+00 0. -1.
</event>
<event>
 4    1  0.1571930E+006  0.2336954E+02  0.7546771E-02  0.1487909E+00
         21   -1    0    0  504  501  0.00000000000E+00  0.00000000000E+00  0.65944215810E+01  0.65944215810E+01  0.00000000000E+00 0.  1.
         21   -1    0    0  501  502 -0.00000000000E+00 -0.00000000000E+00 -0.56835340768E+03  0.56835340768E+03  0.00000000000E+00 0.  1.
         21    1    1    2  503  502  0.22966912556E+02  0.43192786052E+01 -0.54658451829E+03  0.54708387919E+03  0.00000000000E+00 0.  1.
         21    1    1    2  504  503 -0.22966912556E+02 -0.43192786052E+01 -0.15174467809E+02  0.27863950067E+02  0.00000000000E+00 0.  1.
</event>
<event>
 4    1  0.1571930E+006  0.2189843E+02  0.7546771E-02  0.1506814E+00
         21   -1    0    0  502  501  0.00000000000E+00  0.00000000000E+00  0.81786819197E+02  0.81786819197E+02  0.00000000000E+00 0. -1.
         21   -1    0    0  504  502 -0.00000000000E+00 -0.00000000000E+00 -0.53849155775E+02  0.53849155775E+02  0.00000000000E+00 0. -1.
         21    1    1    2  503  501 -0.21802654253E+02 -0.20458096815E+01  0.77988297773E+02  0.81004417529E+02  0.00000000000E+00 0. -1.
         21    1    1    2  504  503  0.21802654253E+02  0.20458096815E+01 -0.50050634351E+02  0.54631557443E+02  0.00000000000E+00 0. -1.
</event>
<event>
 4    1  0.1571930E+006  0.2446885E+02  0.7546771E-02  0.1474834E+00
         21   -1    0    0  503  501  0.00000000000E+00  0.00000000000E+00  0.40045117466E+01  0.40045117466E+01  0.00000000000E+00 0.  1.
         21   -1    0    0  504  502 -0.00000000000E+00 -0.00000000000E+00 -0.14996922406E+03  0.14996922406E+03  0.00000000000E+00 0.  1.
         21    1    1    2  503  502  0.24463869131E+02  0.49371541424E+00 -0.77230824663E+02  0.81014350123E+02  0.00000000000E+00 0.  1.
         21    1    1    2  504  501 -0.24463869131E+02 -0.49371541424E+00 -0.68733887650E+02  0.72959385683E+02  0.00000000000E+00 0.  1.
</event>
<event>
 4    1  0.1571930E+006  0.3015082E+02  0.7546771E-02  0.1418290E+00
         21   -1    0    0  503  501  0.00000000000E+00  0.00000000000E+00  0.74468841438E+01  0.74468841438E+01  0.00000000000E+00 0. -1.
         21   -1    0    0  504  502 -0.00000000000E+00 -0.00000000000E+00 -0.16514863235E+03  0.16514863235E+03  0.00000000000E+00 0. -1.
         21    1    1    2  503  502 -0.78689650113E+01 -0.29105859248E+02 -0.34777903161E+02  0.46027971943E+02  0.00000000000E+00 0. -1.
         21    1    1    2  504  501  0.78689650113E+01  0.29105859248E+02 -0.12292384504E+03  0.12656754455E+03  0.00000000000E+00 0. -1.
</event>
<event>
 4    1  0.1571930E+006  0.2635096E+02  0.7546771E-02  0.1454239E+00
         21   -1    0    0  504  501  0.00000000000E+00  0.00000000000E+00  0.74978580588E+03  0.74978580588E+03  0.00000000000E+00 0. -1.
         21   -1    0    0  503  502 -0.00000000000E+00 -0.00000000000E+00 -0.15536357075E+02  0.15536357075E+02  0.00000000000E+00 0.  1.
         21    1    1    2  503  501 -0.86922115046E+01  0.24876069112E+02  0.73820570138E+03  0.73867586322E+03  0.00000000000E+00 0. -1.
         21    1    1    2  504  502  0.86922115046E+01 -0.24876069112E+02 -0.39562525712E+01  0.26646299737E+02  0.00000000000E+00 0.  1.
</event>
<event>
 4    1  0.1571930E+006  0.2582136E+02  0.7546771E-02  0.1459821E+00
         21   -1    0    0  502  501  0.00000000000E+00  0.00000000000E+00  0.80603448051E+01  0.80603448051E+01  0.00000000000E+00 0. -1.
         21   -1    0    0  503  502 -0.00000000000E+00 -0.00000000000E+00 -0.27757201574E+03  0.27757201574E+03  0.00000000000E+00 0. -1.
         21    1    1    2  503  504  0.25157747235E+02  0.58163929161E+01 -0.25441425888E+03  0.25572125018E+03  0.00000000000E+00 0. -1.
         21    1    1    2  504  501 -0.25157747235E+02 -0.58163929161E+01 -0.15097412056E+02  0.29911110366E+02  0.00000000000E+00 0. -1.
</event>
<event>
 4    1  0.1571930E+006  0.3464179E+02  0.7546771E-02  0.1383099E+00
         21   -1    0    0  504  501  0.00000000000E+00  0.00000000000E+00  0.29338654452E+02  0.29338654452E+02  0.00000000000E+00 0. -1.
         21   -1    0    0  503  502 -0.00000000000E+00 -0.00000000000E+00 -0.10877061401E+03  0.10877061401E+03  0.00000000000E+00 0. -1.
         21    1    1    2  503  501  0.13427644539E+02 -0.31933554752E+02 -0.94262461097E+02  0.10042641649E+03  0.00000000000E+00 0. -1.
         21    1    1    2  504  502 -0.13427644539E+02  0.31933554752E+02  0.14830501538E+02  0.37682851973E+02  0.00000000000E+00 0. -1.
</event>
<event>
 4    1  0.1571930E+006  0.2982146E+02  0.7546771E-02  0.1421154E+00
         21   -1    0    0  504  501  0.00000000000E+00  0.00000000000E+00  0.60916408880E+02  0.60916408880E+02  0.00000000000E+00 0. -1.
         21   -1    0    0  503  502 -0.00000000000E+00 -0.00000000000E+00 -0.98157548825E+02  0.98157548825E+02  0.00000000000E+00 0.  1.
         21    1    1    2  503  501 -0.25230980815E+02  0.15897076354E+02 -0.92004784419E+02  0.96717112165E+02  0.00000000000E+00 0.  1.
         21    1    1    2  504  502  0.25230980815E+02 -0.15897076354E+02  0.54763644475E+02  0.62356845540E+02  0.00000000000E+00 0. -1.
</event>
<event>
 4    1  0.1571930E+006  0.2198731E+02  0.7546771E-02  0.1505622E+00
         21   -1    0    0  503  501  0.00000000000E+00  0.00000000000E+00  0.19911359319E+02  0.19911359319E+02  0.00000000000E+00 0.  1.
         21   -1    0    0  501  502 -0.00000000000E+00 -0.00000000000E+00 -0.36236115926E+03  0.36236115926E+03  0.00000000000E+00 0.  1.
         21    1    1    2  503  504  0.41297276969E+01 -0.21596002145E+02  0.13396880531E+02  0.25747201158E+02  0.00000000000E+00 0.  1.
         21    1    1    2  504  502 -0.41297276969E+01  0.21596002145E+02 -0.35584668047E+03  0.35652531742E+03  0.00000000000E+00 0.  1.
</event>
<event>
 4    1  0.1571930E+006  0.2337476E+02  0.7546771E-02  0.1487845E+00
         21   -1    0    0  502  501  0.00000000000E+00  0.00000000000E+00  0.20751783694E+03  0.20751783694E+03  0.00000000000E+00 0.  1.
         21   -1    0    0  503  502 -0.00000000000E+00 -0.00000000000E+00 -0.16495747941E+02  0.16495747941E+02  0.00000000000E+00 0. -1.
         21    1    1    2  503  504 -0.23374731479E+02  0.35160540706E-01 -0.71685540342E+01  0.24449283730E+02  0.00000000000E+00 0. -1.
         21    1    1    2  504  501  0.23374731479E+02 -0.35160540706E-01  0.19819064303E+03  0.19956430115E+03  0.00000000000E+00 0.  1.
</event>
<event>
 4    1  0.1571930E+006  0.2131971E+02  0.7546771E-02  0.1514749E+00
         21   -1    0    0  504  501  0.00000000000E+00  0.00000000000E+00  0.96469927477E+01  0.96469927477E+01  0.00000000000E+00 0.  1.
         21   -1    0    0  501  502 -0.00000000000E+00 -0.00000000000E+00 -0.11470235015E+03  0.11470235015E+03  0.00000000000E+00 0.  1.
         21    1    1    2  503  502  0.18598709871E+02  0.10421998323E+02 -0.10025379069E+03  0.10249562237E+03  0.00000000000E+00 0.  1.
         21    1    1    2  504  503 -0.18598709871E+02 -0.10421998323E+02 -0.48015667130E+01  0.21853720525E+02  0.00000000000E+00 0.  1.
</event>
<event>
 4    1  0.1571930E+006  0.3205805E+02  0.7546771E-02  0.1402516E+00
         21   -1    0    0  504  501  0.00000000000E+00  0.00000000000E+00  0.47305085018E+02  0.47305085018E+02  0.00000000000E+00 0. -1.
         21   -1    0    0  503  502 -0.00000000000E+00 -0.00000000000E+00 -0.28428920780E+03  0.28428920780E+03  0.00000000000E+00 0. -1.
         21    1    1    2  503  501 -0.29803342085E+02  0.11810140348E+02 -0.27782822386E+03  0.27967166569E+03  0.00000000000E+00 0. -1.
         21    1    1    2  504  502  0.29803342085E+02 -0.11810140348E+02  0.40844101084E+02  0.51922627127E+02  0.00000000000E+00 0. -1.
</event>
<event>
 4    1  0.1571930E+006  0.2404926E+02  0.7546771E-02  0.1479727E+00
         21   -1    0    0  504  501  0.00000000000E+00  0.00000000000E+00  0.25349198521E+03  0.25349198521E+03  0.00000000000E+00 0.  1.
         21   -1    0    0  503  502 -0.00000000000E+00 -0.00000000000E+00 -0.47861629265E+02  0.47861629265E+02  0.00000000000E+00 0.  1.
         21    1    1    2  503  501 -0.23108895939E+02 -0.66592576043E+01 -0.44226340773E+02  0.50342189082E+02  0.00000000000E+00 0.  1.
         21    1    1    2  504  502  0.23108895939E+02  0.66592576043E+01  0.24985669672E+03  0.25101142540E+03  0.00000000000E+00 0.  1.
</event>
<event>
 4    1  0.1571930E+006  0.2036240E+02  0.7546771E-02  0.1528566E+00
         21   -1    0    0  504  501  0.00000000000E+00  0.00000000000E+00  0.23927772525E+03  0.23927772525E+03  0.00000000000E+00 0.  1.
         21   -1    0    0  503  502 -0.00000000000E+00 -0.00000000000E+00 -0.54971113178E+01  0.54971113178E+01  0.00000000000E+00 0. -1.
         21    1    1    2  503  501  0.54756052846E+01  0.19612374726E+02  0.15613366251E+02  0.25659397914E+02  0.00000000000E+00 0. -1.
         21    1    1    2  504  502 -0.54756052846E+01 -0.19612374726E+02  0.21816724768E+03  0.21911543866E+03  0.00000000000E+00 0.  1.
</event>
<event>
 4    1  0.1571930E+006  0.2077555E+02  0.7546771E-02  0.1522494E+00
         21   -1    0    0  504  501  0.00000000000E+00  0.00000000000E+00  0.15222886851E+02  0.15222886851E+02  0.00000000000E+00 0.  1.
         21   -1    0    0  503  502 -0.00000000000E+00 -0.00000000000E+00 -0.50119398566E+02  0.50119398566E+02  0.00000000000E+00 0. -1.
         21    1    1    2  503  501 -0.20654749711E+02 -0.22371747796E+01 -0.38978487745E+02  0.44169515998E+02  0.00000000000E+00 0. -1.
         21    1    1    2  504  502  0.20654749711E+02  0.22371747796E+01  0.40819760300E+01  0.21172769420E+02  0.00000000000E+00 0.  1.
</event>
<event>
 4    1  0.1571930E+006  0.3216620E+02  0.7546771E-02  0.1401661E+00
         21   -1    0    0  503  501  0.00000000000E+00  0.00000000000E+00  0.86172240598E+02  0.86172240598E+02  0.00000000000E+00 0. -1.
         21   -1    0    0  501  502 -0.00000000000E+00 -0.00000000000E+00 -0.36754448367E+02  0.36754448367E+02  0.00000000000E+00 0. -1.
         21    1    1    2  503  504  0.26483400025E+02  0.18256340457E+02  0.75143315157E+02  0.81738499231E+02  0.00000000000E+00 0. -1.
         21    1    1    2  504  502 -0.26483400025E+02 -0.18256340457E+02 -0.25725522926E+02  0.41188189734E+02  0.00000000000E+00 0. -1.
</event>
<event>
 4    1  0.1571930E+006  0.2500152E+02  0.7546771E-02  0.1468786E+00
         21   -1    0    0  503  501  0.00000000000E+00  0.00000000000E+00  0.37271610133E+02  0.37271610133E+02  0.00000000000E+00 0. -1.
         21   -1    0    0  504  502 -0.00000000000E+00 -0.00000000000E+00 -0.39307072011E+02  0.39307072011E+02  0.00000000000E+00 0.  1.
         21    1    1    2  503  502  0.19775127846E+02 -0.15297716618E+02  0.27974611127E+02  0.37518724429E+02  0.00000000000E+00 0. -1.
         21    1    1    2  504  501 -0.19775127846E+02  0.15297716618E+02 -0.30010073005E+02  0.39059957716E+02  0.00000000000E+00 0.  1.
</event>
<event>
 4    1  0.1571930E+006  0.2040654E+02  0.7546771E-02  0.1527909E+00
         21   -1    0    0  503  501  0.00000000000E+00  0.00000000000E+00  0.58065004293E+01  0.58065004293E+01  0.00000000000E+00 0. -1.
         21   -1    0    0  501  502 -0.00000000000E+00 -0.00000000000E+00 -0.12568077255E+03  0.12568077255E+03  0.00000000000E+00 0. -1.
         21    1    1    2  503  504  0.13885936845E+02 -0.14953519934E+02 -0.16857807830E+02  0.26469089243E+02  0.00000000000E+00 0. -1.
         21    1    1    2  504  502 -0.13885936845E+02  0.14953519934E+02 -0.10301646429E+03  0.10501818373E+03  0.00000000000E+00 0. -1.
</event>
<event>
 4    1  0.1571930E+006  0.3013913E+02  0.7546771E-02  0.1418391E+00
         21   -1    0    0  504  501  0.00000000000E+00  0.00000000000E+00  0.35204151590E+03  0.35204151590E+03  0.00000000000E+00 0. -1.
         21   -1    0    0  503  502 -0.00000000000E+00 -0.00000000000E+00 -0.34268290855E+02  0.34268290855E+02  0.00000000000E+00 0. -1.
         21    1    1    2  503  501 -0.13193527287E+02  0.27097931259E+02  0.34462726977E+03  0.34594265725E+03  0.00000000000E+00 0. -1.
         21    1    1    2  504  502  0.13193527287E+02 -0.27097931259E+02 -0.26854044723E+02  0.40367149500E+02  0.00000000000E+00 0. -1.
</event>
<event>
 4    1  0.1571930E+006  0.2638332E+02  0.7546771E-02  0.1453903E+00
         21   -1    0    0  504  501  0.00000000000E+00  0.00000000000E+00  0.12623273722E+03  0.12623273722E+03  0.00000000000E+00 0.  1.
         21   -1    0    0  503  502 -0.00000000000E+00 -0.00000000000E+00 -0.62123849997E+02  0.62123849997E+02  0.00000000000E+00 0.  1.
         21    1    1    2  503  501 -0.26340247633E+02  0.15069434074E+01 -0.57846998718E+02  0.63579515447E+02  0.00000000000E+00 0.  1.
         21    1    1    2  504  502  0.26340247633E+02 -0.15069434074E+01  0.12195588594E+03  0.12477707177E+03  0.00000000000E+00 0.  1.
</event>
<event>
 4    1  0.1571930E+006  0.2126866E+02  0.7546771E-02  0.1515464E+00
         21   -1    0    0  502  501  0.00000000000E+00  0.00000000000E+00  0.70714967586E+01  0.70714967586E+01  0.00000000000E+00 0. -1.
         21   -1    0    0  504  502 -0.00000000000E+00 -0.00000000000E+00 -0.68819778520E+02  0.68819778520E+02  0.00000000000E+00 0.  1.
         21    1    1    2  503  501 -0.38337655783E+01  0.20920277530E+02 -0.20799813889E+02  0.29748748348E+02  0.00000000000E+00 0. -1.
         21    1    1    2  504  503  0.38337655783E+01 -0.20920277530E+02 -0.40948467873E+02  0.46142526931E+02  0.00000000000E+00 0.  1.
</event>
<event>
 4    1  0.1571930E+006  0.2615184E+02  0.7546771E-02  0.1456319E+00
         21   -1    0    0  503  501  0.00000000000E+00  0.00000000000E+00  0.79882010539E+01  0.79882010539E+01  0.00000000000E+00 0.  1.
         21   -1    0    0  501  502 -0.00000000000E+00 -0.00000000000E+00 -0.11233420301E+03  0.11233420301E+03  0.00000000000E+00 0.  1.
         21    1    1    2  503  504  0.24247710526E+02 -0.97962801197E+01 -0.22832781254E+02  0.34716775048E+02  0.00000000000E+00 0.  1.
         21    1    1    2  504  502 -0.24247710526E+02  0.97962801197E+01 -0.81513220705E+02  0.85605629019E+02  0.00000000000E+00 0.  1.
</event>
<event>
 4    1  0.1571930E+006  0.2059494E+02  0.7546771E-02  0.1525127E+00
         21   -1    0    0  504  501  0.00000000000E+00  0.00000000000E+00  0.10069271915E+03  0.10069271915E+03  0.00000000000E+00 0. -1.
         21   -1    0    0  501  502 -0.00000000000E+00 -0.00000000000E+00 -0.10405810048E+02  0.10405810048E+02  0.00000000000E+00 0. -1.
         21    1    1    2  503  502 -0.99441710085E+01 -0.18035108155E+02  0.22878630138E+01  0.20721630736E+02  0.00000000000E+00 0. -1.
         21    1    1    2  504  503  0.99441710085E+01  0.18035108155E+02  0.87999046084E+02  0.90376898458E+02  0.00000000000E+00 0. -1.
</event>
<event>
 4    1  0.1571930E+006  0.2011438E+02  0.7546771E-02  0.1532294E+00
         21   -1    0    0  503  501  0.00000000000E+00  0.00000000000E+00  0.40266174787E+02  0.40266174787E+02  0.00000000000E+00 0.  1.
         21   -1    0    0  501  502 -0.00000000000E+00 -0.00000000000E+00 -0.13778261977E+02  0.13778261977E+02  0.00000000000E+00 0.  1.
         21    1    1    2  503  504 -0.13177660669E+02 -0.15196626548E+02  0.27304515533E+02  0.33913489464E+02  0.00000000000E+00 0.  1.
         21    1    1    2  504  502  0.13177660669E+02  0.15196626548E+02 -0.81660272294E+00  0.20130947299E+02  0.00000000000E+00 0.  1.
</event>
<event>
 4    1  0.1571930E+006  0.3039206E+02  0.7546771E-02  0.1416219E+00
         21   -1    0    0  503  501  0.00000000000E+00  0.00000000000E+00  0.94336238680E+00  0.94336238680E+00  0.00000000000E+00 0.  1.
         21   -1    0    0  504  502 -0.00000000000E+00 -0.00000000000E+00 -0.12836884209E+04  0.12836884209E+04  0.00000000000E+00 0.  1.
         21    1    1    2  503  502 -0.29681296309E+02  0.65343478712E+01 -0.32851099787E+03  0.32991385659E+03  0.00000000000E+00 0.  1.
         21    1    1    2  504  501  0.29681296309E+02 -0.65343478712E+01 -0.95423406068E+03  0.95471792672E+03  0.00000000000E+00 0.  1.
</event>
<event>
 4    1  0.1571930E+006  0.3430480E+02  0.7546771E-02  0.1385518E+00
         21   -1    0    0  504  501  0.00000000000E+00  0.00000000000E+00  0.25161261469E+02  0.25161261469E+02  0.00000000000E+00 0. -1.
         21   -1    0    0  503  502 -0.00000000000E+00 -0.00000000000E+00 -0.57821188374E+02  0.57821188374E+02  0.00000000000E+00 0.  1.
         21    1    1    2  503  501 -0.33947127584E+02  0.49408054257E+01 -0.34468251183E+02  0.48630025386E+02  0.00000000000E+00 0.  1.
         21    1    1    2  504  502  0.33947127584E+02 -0.49408054257E+01  0.18083242777E+01  0.34352424458E+02  0.00000000000E+00 0. -1.
</event>
<event>
 4    1  0.1571930E+006  0.4219340E+02  0.7546771E-02  0.1336091E+00
         21   -1    0    0  503  501  0.00000000000E+00  0.00000000000E+00  0.42766313911E+02  0.42766313911E+02  0.00000000000E+00 0.  1.
         21   -1    0    0  504  502 -0.00000000000E+00 -0.00000000000E+00 -0.18263705859E+03  0.18263705859E+03  0.00000000000E+00 0.  1.
         21    1    1    2  503  502  0.40074679830E+02  0.13202373057E+02  0.29092907309E+02  0.51251145094E+02  0.00000000000E+00 0.  1.
         21    1    1    2  504  501 -0.40074679830E+02 -0.13202373057E+02 -0.16896365199E+03  0.17415222740E+03  0.00000000000E+00 0.  1.
</event>
<event>
 4    1  0.1571930E+006  0.3112298E+02  0.7546771E-02  0.1410082E+00
         21   -1    0    0  504  501  0.00000000000E+00  0.00000000000E+00  0.60999550615E+03  0.60999550615E+03  0.00000000000E+00 0.  1.
         21   -1    0    0  503  502 -0.00000000000E+00 -0.00000000000E+00 -0.30205190609E+01  0.30205190609E+01  0.00000000000E+00 0. -1.
         21    1    1    2  503  501  0.73856394101E+01 -0.30233961501E+02  0.51457347337E+03  0.51551382095E+03  0.00000000000E+00 0.  1.
         21    1    1    2  504  502 -0.73856394101E+01  0.30233961501E+02  0.92401513717E+02  0.97502204256E+02  0.00000000000E+00 0. -1.
</event>
<event>
 4    1  0.1571930E+006  0.2451436E+02  0.7546771E-02  0.1474310E+00
         21   -1    0    0  504  501  0.00000000000E+00  0.00000000000E+00  0.12951583396E+01  0.12951583396E+01  0.00000000000E+00 0. -1.
         21   -1    0    0  501  502 -0.00000000000E+00 -0.00000000000E+00 -0.64196725194E+03  0.64196725194E+03  0.00000000000E+00 0.  1.
         21    1    1    2  503  502  0.81877676816E+01  0.23106580734E+02 -0.48968076396E+03  0.49029399772E+03  0.00000000000E+00 0.  1.
         21    1    1    2  504  503 -0.81877676816E+01 -0.23106580734E+02 -0.15099132964E+03  0.15296841256E+03  0.00000000000E+00 0. -1.
</event>
<event>
 4    1  0.1571930E+006  0.2007840E+02  0.7546771E-02  0.1532841E+00
         21   -1    0    0  502  501  0.00000000000E+00  0.00000000000E+00  0.35862627088E+02  0.35862627088E+02  0.00000000000E+00 0. -1.
         21   -1    0    0  503  502 -0.00000000000E+00 -0.00000000000E+00 -0.14559722275E+02  0.14559722275E+02  0.00000000000E+00 0. -1.
         21    1    1    2  503  504 -0.12004362459E+02 -0.16094635301E+02 -0.13845802629E+01  0.20126079252E+02  0.00000000000E+00 0. -1.
         21    1    1    2  504  501  0.12004362459E+02  0.16094635301E+02  0.22687485076E+02  0.30296270111E+02  0.00000000000E+00 0. -1.
</event>
<event>
 4    1  0.1571930E+006  0.2676187E+02  0.7546771E-02  0.1450015E+00
         21   -1    0    0  502  501  0.00000000000E+00  0.00000000000E+00  0.25623310272E+01  0.25623310272E+01  0.00000000000E+00 0.  1.
         21   -1    0    0  504  502 -0.00000000000E+00 -0.00000000000E+00 -0.63830447960E+03  0.63830447960E+03  0.00000000000E+00 0.  1.
         21    1    1    2  503  501 -0.25686263694E+02  0.75108850615E+01 -0.77630353219E+02  0.82113758152E+02  0.00000000000E+00 0.  1.
         21    1    1    2  504  503  0.25686263694E+02 -0.75108850615E+01 -0.55811179536E+03  0.55875305248E+03  0.00000000000E+00 0.  1.
</event>
<event>
 4    1  0.1571930E+006  0.2069469E+02  0.7546771E-02  0.1523669E+00
         21   -1    0    0  503  501  0.00000000000E+00  0.00000000000E+00  0.67120681480E+02  0.67120681480E+02  0.00000000000E+00 0. -1.
         21   -1    0    0  504  502 -0.00000000000E+00 -0.00000000000E+00 -0.11047854993E+02  0.11047854993E+02  0.00000000000E+00 0.  1.
         21    1    1    2  503  502  0.16668200606E+02 -0.12265446653E+02  0.53439930731E+02  0.57307035254E+02  0.00000000000E+00 0. -1.
         21    1    1    2  504  501 -0.16668200606E+02  0.12265446653E+02  0.26328957556E+01  0.20861501219E+02  0.00000000000E+00 0.  1.
</event>
<event>
 4    1  0.1571930E+006  0.2047015E+02  0.7546771E-02  0.1526966E+00
         21   -1    0    0  504  501  0.00000000000E+00  0.00000000000E+00  0.58534043594E+02  0.58534043594E+02  0.00000000000E+00 0. -1.
         21   -1    0    0  503  502 -0.00000000000E+00 -0.00000000000E+00 -0.94269714234E+01  0.94269714234E+01  0.00000000000E+00 0.  1.
         21    1    1    2  503  501  0.19467745845E+02  0.63272396985E+01  0.78852017015E+01  0.21936351027E+02  0.00000000000E+00 0.  1.
         21    1    1    2  504  502 -0.19467745845E+02 -0.63272396985E+01  0.41221870469E+02  0.46024663991E+02  0.00000000000E+00 0. -1.
</event>
<event>
 4    1  0.1571930E+006  0.2145978E+02  0.7546771E-02  0.1512801E+00
         21   -1    0    0  504  501  0.00000000000E+00  0.00000000000E+00  0.49871713293E+02  0.49871713293E+02  0.00000000000E+00 0. -1.
         21   -1    0    0  501  502 -0.00000000000E+00 -0.00000000000E+00 -0.20180921317E+02  0.20180921317E+02  0.00000000000E+00 0.  1.
         21    1    1    2  503  502 -0.12464685743E+02  0.17468652987E+02 -0.10951488902E+02  0.24092682229E+02  0.00000000000E+00 0.  1.
         21    1    1    2  504  503  0.12464685743E+02 -0.17468652987E+02  0.40642280878E+02  0.45959952380E+02  0.00000000000E+00 0. -1.
</event>
<event>
 4    1  0.1571930E+006  0.3227180E+02  0.7546771E-02  0.1400830E+00
         21   -1    0    0  502  501  0.00000000000E+00  0.00000000000E+00  0.17879782834E+03  0.17879782834E+03  0.00000000000E+00 0.  1.
         21   -1    0    0  503  502 -0.00000000000E+00 -0.00000000000E+00 -0.24164995930E+02  0.24164995930E+02  0.00000000000E+00 0. -1.
         21    1    1    2  503  504 -0.28715819730E+02  0.14726543678E+02 -0.11092202992E+02  0.34124864230E+02  0.00000000000E+00 0. -1.
         21    1    1    2  504  501  0.28715819730E+02 -0.14726543678E+02  0.16572503540E+03  0.16883796004E+03  0.00000000000E+00 0.  1.
</event>
<event>
 4    1  0.1571930E+006  0.2901109E+02  0.7546771E-02  0.1428389E+00
         21   -1    0    0  503  501  0.00000000000E+00  0.00000000000E+00  0.32841940586E+03  0.32841940586E+03  0.00000000000E+00 0.  1.
         21   -1    0    0  501  502 -0.00000000000E+00 -0.00000000000E+00 -0.45800469884E+01  0.45800469884E+01  0.00000000000E+00 0.  1.
         21    1    1    2  503  504 -0.10867658885E+02  0.26898651316E+02  0.27242110044E+03  0.27396149258E+03  0.00000000000E+00 0.  1.
         21    1    1    2  504  502  0.10867658885E+02 -0.26898651316E+02  0.51418258424E+02  0.59037960260E+02  0.00000000000E+00 0.  1.
</event>
<event>
 4    1  0.1571930E+006  0.2222554E+02  0.7546771E-02  0.1502459E+00
         21   -1    0    0  504  501  0.00000000000E+00  0.00000000000E+00  0.24222528672E+03  0.24222528672E+03  0.00000000000E+00 0. -1.
         21   -1    0    0  503  502 -0.00000000000E+00 -0.00000000000E+00 -0.24203375885E+02  0.24203375885E+02  0.00000000000E+00 0.  1.
         21    1    1    2  503  501 -0.20913957746E+02  0.75220454941E+01 -0.18467736248E+02  0.28896921621E+02  0.00000000000E+00 0.  1.
         21    1    1    2  504  502  0.20913957746E+02 -0.75220454941E+01  0.23648964708E+03  0.23753174098E+03  0.00000000000E+00 0. -1.
</event>
<event>
 4    1  0.1571930E+006  0.2101041E+02  0.7546771E-02  0.1519116E+00
         21   -1    0    0  504  501  0.00000000000E+00  0.00000000000E+00  0.17841344320E+02  0.17841344320E+02  0.00000000000E+00 0.  1.
         21   -1    0    0  503  502 -0.00000000000E+00 -0.00000000000E+00 -0.42690763489E+02  0.42690763489E+02  0.00000000000E+00 0.  1.
         21    1    1    2  503  501  0.10225115693E+02  0.18354410549E+02 -0.32049339341E+02  0.38322285027E+02  0.00000000000E+00 0.  1.
         21    1    1    2  504  502 -0.10225115693E+02 -0.18354410549E+02  0.71999201721E+01  0.22209822782E+02  0.00000000000E+00 0.  1.
</event>
<event>
 4    1  0.1571930E+006  0.2427632E+02  0.7546771E-02  0.1477064E+00
         21   -1    0    0  503  501  0.00000000000E+00  0.00000000000E+00  0.15924369314E+03  0.15924369314E+03  0.00000000000E+00 0. -1.
         21   -1    0    0  504  502 -0.00000000000E+00 -0.00000000000E+00 -0.12782639358E+02  0.12782639358E+02  0.00000000000E+00 0. -1.
         21    1    1    2  503  502  0.23972163150E+02  0.38308237086E+01  0.73020086849E+00  0.24287301408E+02  0.00000000000E+00 0. -1.
         21    1    1    2  504  501 -0.23972163150E+02 -0.38308237086E+01  0.14573085291E+03  0.14773903109E+03  0.00000000000E+00 0. -1.
</event>
<event>
 4    1  0.1571930E+006  0.2639197E+02  0.7546771E-02  0.1453813E+00
         21   -1    0    0  502  501  0.00000000000E+00  0.00000000000E+00  0.87470069632E+02  0.87470069632E+02  0.00000000000E+00 0. -1.
         21   -1    0    0  503  502 -0.00000000000E+00 -0.00000000000E+00 -0.28683975175E+02  0.28683975175E+02  0.00000000000E+00 0.  1.
         21    1    1    2  503  504 -0.28891617003E+01  0.26233350091E+02 -0.19968454161E+02  0.33094940307E+02  0.00000000000E+00 0.  1.
         21    1    1    2  504  501  0.28891617003E+01 -0.26233350091E+02  0.78754548618E+02  0.83059104500E+02  0.00000000000E+00 0. -1.
</event>
<event>
 4    1  0.1571930E+006  0.2321035E+02  0.7546771E-02  0.1489873E+00
         21   -1    0    0  502  501  0.00000000000E+00  0.00000000000E+00  0.15855323775E+03  0.15855323775E+03  0.00000000000E+00 0.  1.
         21   -1    0    0  504  502 -0.00000000000E+00 -0.00000000000E+00 -0.41696032389E+02  0.41696032389E+02  0.00000000000E+00 0. -1.
         21    1    1    2  503  501  0.85860916931E+01 -0.21563849398E+02  0.15438708290E+03  0.15612204181E+03  0.00000000000E+00 0.  1.
         21    1    1    2  504  503 -0.85860916931E+01  0.21563849398E+02 -0.37529877543E+02  0.44127228327E+02  0.00000000000E+00 0. -1.
</event>
<event>
 4    1  0.1571930E+006  0.2858370E+02  0.7546771E-02  0.1432317E+00
         21   -1    0    0  502  501  0.00000000000E+00  0.00000000000E+00  0.44948517531E+03  0.44948517531E+03  0.00000000000E+00 0. -1.
         21   -1    0    0  504  502 -0.00000000000E+00 -0.00000000000E+00 -0.36200448822E+02  0.36200448822E+02  0.00000000000E+00 0.  1.
         21    1    1    2  503  501 -0.17093314481E+02 -0.22909525535E+02  0.44330984695E+03  0.44423039987E+03  0.00000000000E+00 0. -1.
         21    1    1    2  504  503  0.17093314481E+02  0.22909525535E+02 -0.30025120464E+02  0.41455224267E+02  0.00000000000E+00 0.  1.
</event>
<event>
 4    1  0.1571930E+006  0.2564947E+02  0.7546771E-02  0.1461667E+00
         21   -1    0    0  502  501  0.00000000000E+00  0.00000000000E+00  0.18088510887E+01  0.18088510887E+01  0.00000000000E+00 0.  1.
         21   -1    0    0  504  502 -0.00000000000E+00 -0.00000000000E+00 -0.63718242565E+03  0.63718242565E+03  0.00000000000E+00 0.  1.
         21    1    1    2  503  501 -0.12944428601E+02  0.22143556979E+02 -0.10837646962E+03  0.11137034845E+03  0.00000000000E+00 0.  1.
         21    1    1    2  504  503  0.12944428601E+02 -0.22143556979E+02 -0.52699710495E+03  0.52762092829E+03  0.00000000000E+00 0.  1.
</event>
<event>
 4    1  0.1571930E+006  0.2175628E+02  0.7546771E-02  0.1508735E+00
         21   -1    0    0  503  501  0.00000000000E+00  0.00000000000E+00  0.54404752388E+01  0.54404752388E+01  0.00000000000E+00 0.  1.
         21   -1    0    0  501  502 -0.00000000000E+00 -0.00000000000E+00 -0.10126644092E+03  0.10126644092E+03  0.00000000000E+00 0.  1.
         21    1    1    2  503  504  0.21265196851E+02 -0.45964336943E+01 -0.27889151476E+02  0.35371465476E+02  0.00000000000E+00 0.  1.
         21    1    1    2  504  502 -0.21265196851E+02  0.45964336943E+01 -0.67936814205E+02  0.71335450683E+02  0.00000000000E+00 0.  1.
</event>
<event>
 4    1  0.1571930E+006  0.2865404E+02  0.7546771E-02  0.1431665E+00
         21   -1    0    0  504  501  0.00000000000E+00  0.00000000000E+00  0.40360366668E+02  0.40360366668E+02  0.00000000000E+00 0.  1.
         21   -1    0    0  503  502 -0.00000000000E+00 -0.00000000000E+00 -0.21693850318E+02  0.21693850318E+02  0.00000000000E+00 0.  1.
         21    1    1    2  503  501 -0.20843888374E+02 -0.19661804394E+02  0.15910744399E+01  0.28698183783E+02  0.00000000000E+00 0.  1.
         21    1    1    2  504  502  0.20843888374E+02  0.19661804394E+02  0.17075441911E+02  0.33356033203E+02  0.00000000000E+00 0.  1.
</event>
<event>
 4    1  0.1571930E+006  0.2036773E+02  0.7546771E-02  0.1528487E+00
         21   -1    0    0  503  501  0.00000000000E+00  0.00000000000E+00  0.51297186823E+02  0.51297186823E+02  0.00000000000E+00 0. -1.
         21   -1    0    0  504  502 -0.00000000000E+00 -0.00000000000E+00 -0.21921421242E+02  0.21921421242E+02  0.00000000000E+00 0. -1.
         21    1    1    2  503  502 -0.15654874689E+02 -0.13029554640E+02  0.43770693635E+02  0.48277510468E+02  0.00000000000E+00 0. -1.
         21    1    1    2  504  501  0.15654874689E+02  0.13029554640E+02 -0.14394928055E+02  0.24941097597E+02  0.00000000000E+00 0. -1.
</event>
<event>
 4    1  0.1571930E+006  0.2088984E+02  0.7546771E-02  0.1520843E+00
         21   -1    0    0  502  501  0.00000000000E+00  0.00000000000E+00  0.72798149110E+03  0.72798149110E+03  0.00000000000E+00 0.  1.
         21   -1    0    0  503  502 -0.00000000000E+00 -0.00000000000E+00 -0.19479614492E+01  0.19479614492E+01  0.00000000000E+00 0. -1.
         21    1    1    2  503  504 -0.88838621797E+01 -0.18906681648E+02  0.59356007569E+02  0.62924726879E+02  0.00000000000E+00 0. -1.
         21    1    1    2  504  501  0.88838621797E+01  0.18906681648E+02  0.66667752208E+03  0.66700472567E+03  0.00000000000E+00 0.  1.
</event>
<event>
 4    1  0.1571930E+006  0.2039371E+02  0.7546771E-02  0.1528100E+00
         21   -1    0    0  503  501  0.00000000000E+00  0.00000000000E+00  0.62414536374E+01  0.62414536374E+01  0.00000000000E+00 0.  1.
         21   -1    0    0  504  502 -0.00000000000E+00 -0.00000000000E+00 -0.75747738303E+02  0.75747738303E+02  0.00000000000E+00 0.  1.
         21    1    1    2  503  502  0.17639191660E+02  0.10235347305E+02 -0.48971530475E+02  0.53048225361E+02  0.00000000000E+00 0.  1.
         21    1    1    2  504  501 -0.17639191660E+02 -0.10235347305E+02 -0.20534754190E+02  0.28940966579E+02  0.00000000000E+00 0.  1.
</event>
<event>
 4    1  0.1571930E+006  0.2102914E+02  0.7546771E-02  0.1518849E+00
         21   -1    0    0  504  501  0.00000000000E+00  0.00000000000E+00  0.30689872568E+03  0.30689872568E+03  0.00000000000E+00 0.  1.
         21   -1    0    0  503  502 -0.00000000000E+00 -0.00000000000E+00 -0.46669882511E+01  0.46669882511E+01  0.00000000000E+00 0. -1.
         21    1    1    2  503  501 -0.20182068546E+01  0.20932074019E+02  0.28063569413E+03  0.28142248969E+03  0.00000000000E+00 0.  1.
         21    1    1    2  504  502  0.20182068546E+01 -0.20932074019E+02  0.21596043298E+02  0.30143224243E+02  0.00000000000E+00 0. -1.
</event>
<event>
 4    1  0.1571930E+006  0.2553608E+02  0.7546771E-02  0.1462895E+00
         21   -1    0    0  503  501  0.00000000000E+00  0.00000000000E+00  0.50938777882E+02  0.50938777882E+02  0.00000000000E+00 0.  1.
         21   -1    0    0  501  502 -0.00000000000E+00 -0.00000000000E+00 -0.19985642983E+02  0.19985642983E+02  0.00000000000E+00 0.  1.
         21    1    1    2  503  504 -0.24684722117E+02  0.65387880865E+01  0.36738127108E+02  0.44741269976E+02  0.00000000000E+00 0.  1.
         21    1    1    2  504  502  0.24684722117E+02 -0.65387880865E+01 -0.57849922090E+01  0.26183150889E+02  0.00000000000E+00 0.  1.
</event>
<event>
 4    1  0.1571930E+006  0.2998643E+02  0.7546771E-02  0.1419715E+00
         21   -1    0    0  504  501  0.00000000000E+00  0.00000000000E+00  0.11841079134E+02  0.11841079134E+02  0.00000000000E+00 0. -1.
         21   -1    0    0  503  502 -0.00000000000E+00 -0.00000000000E+00 -0.92163138237E+02  0.92163138237E+02  0.00000000000E+00 0. -1.
         21    1    1    2  503  501  0.26424589284E+02  0.14174869729E+02 -0.18341830237E+02  0.35151224546E+02  0.00000000000E+00 0. -1.
         21    1    1    2  504  502 -0.26424589284E+02 -0.14174869729E+02 -0.61980228867E+02  0.68852992825E+02  0.00000000000E+00 0. -1.
</event>
<event>
 4    1  0.1571930E+006  0.2084359E+02  0.7546771E-02  0.1521510E+00
         21   -1    0    0  504  501  0.00000000000E+00  0.00000000000E+00  0.13607830402E+03  0.13607830402E+03  0.00000000000E+00 0. -1.
         21   -1    0    0  501  502 -0.00000000000E+00 -0.00000000000E+00 -0.68240092285E+02  0.68240092285E+02  0.00000000000E+00 0.  1.
         21    1    1    2  503  502  0.14377350067E+02 -0.15091284001E+02 -0.65821653622E+02  0.69043067235E+02  0.00000000000E+00 0.  1.
         21    1    1    2  504  503 -0.14377350067E+02  0.15091284001E+02  0.13365986536E+03  0.13527532907E+03  0.00000000000E+00 0. -1.
</event>
<event>
 4    1  0.1571930E+006  0.2704132E+02  0.7546771E-02  0.1447193E+00
         21   -1    0    0  503  501  0.00000000000E+00  0.00000000000E+00  0.18382895020E+03  0.18382895020E+03  0.00000000000E+00 0. -1.
         21   -1    0    0  504  502 -0.00000000000E+00 -0.00000000000E+00 -0.53336981627E+02  0.53336981627E+02  0.00000000000E+00 0. -1.
         21    1    1    2  503  502 -0.20031876441E+02  0.18164719184E+02 -0.48829443707E+02  0.55817091195E+02  0.00000000000E+00 0. -1.
         21    1    1    2  504  501  0.20031876441E+02 -0.18164719184E+02  0.17932141228E+03  0.18134884063E+03  0.00000000000E+00 0. -1.
</event>
<event>
 4    1  0.1571930E+006  0.2058711E+02  0.7546771E-02  0.1525242E+00
         21   -1    0    0  504  501  0.00000000000E+00  0.00000000000E+00  0.98310182476E+00  0.98310182476E+00  0.00000000000E+00 0. -1.
         21   -1    0    0  503  502 -0.00000000000E+00 -0.00000000000E+00 -0.47830957880E+03  0.47830957880E+03  0.00000000000E+00 0. -1.
         21    1    1    2  503  501  0.18243181958E+02 -0.95402072101E+01 -0.31394081049E+03  0.31461510093E+03  0.00000000000E+00 0. -1.
         21    1    1    2  504  502 -0.18243181958E+02  0.95402072101E+01 -0.16338566649E+03  0.16467757970E+03  0.00000000000E+00 0. -1.
</event>
<event>
 4    1  0.1571930E+006  0.2652428E+02  0.7546771E-02  0.1452446E+00
         21   -1    0    0  504  501  0.00000000000E+00  0.00000000000E+00  0.70348662045E+02  0.70348662045E+02  0.00000000000E+00 0.  1.
         21   -1    0    0  503  502 -0.00000000000E+00 -0.00000000000E+00 -0.25686180463E+03  0.25686180463E+03  0.00000000000E+00 0. -1.
         21    1    1    2  503  501 -0.25806252824E+02 -0.61298229297E+01  0.67132119174E+02  0.72182122709E+02  0.00000000000E+00 0.  1.
         21    1    1    2  504  502  0.25806252824E+02  0.61298229297E+01 -0.25364526176E+03  0.25502834397E+03  0.00000000000E+00 0. -1.
</event>
<event>
 4    1  0.1571930E+006  0.2515343E+02  0.7546771E-02  0.1467094E+00
         21   -1    0    0  504  501  0.00000000000E+00  0.00000000000E+00  0.18145936313E+03  0.18145936313E+03  0.00000000000E+00 0.  1.
         21   -1    0    0  503  502 -0.00000000000E+00 -0.00000000000E+00 -0.20114330498E+03  0.20114330498E+03  0.00000000000E+00 0. -1.
         21    1    1    2  503  501 -0.13322500283E+02 -0.21335556076E+02 -0.19947800747E+03  0.20105762963E+03  0.00000000000E+00 0. -1.
         21    1    1    2  504  502  0.13322500283E+02  0.21335556076E+02  0.17979406562E+03  0.18154503848E+03  0.00000000000E+00 0.  1.
</event>
<event>
 4    1  0.1571930E+006  0.2174273E+02  0.7546771E-02  0.1508919E+00
         21   -1    0    0  503  501  0.00000000000E+00  0.00000000000E+00  0.77899396292E+01  0.77899396292E+01  0.00000000000E+00 0.  1.
         21   -1    0    0  504  502 -0.00000000000E+00 -0.00000000000E+00 -0.80420516037E+02  0.80420516037E+02  0.00000000000E+00 0. -1.
         21    1    1    2  503  502 -0.10746406357E+02 -0.18901352358E+02 -0.58163267415E+02  0.62094380156E+02  0.00000000000E+00 0. -1.
         21    1    1    2  504  501  0.10746406357E+02  0.18901352358E+02 -0.14467308993E+02  0.26116075510E+02  0.00000000000E+00 0.  1.
</event>
<event>
 4    1  0.1571930E+006  0.3452939E+02  0.7546771E-02  0.1383902E+00
         21   -1    0    0  502  501  0.00000000000E+00  0.00000000000E+00  0.51452511435E+02  0.51452511435E+02  0.00000000000E+00 0. -1.
         21   -1    0    0  504  502 -0.00000000000E+00 -0.00000000000E+00 -0.74267306857E+02  0.74267306857E+02  0.00000000000E+00 0. -1.
         21    1    1    2  503  501 -0.32633971188E+02 -0.11282843014E+02  0.40731720296E+02  0.53398049218E+02  0.00000000000E+00 0. -1.
         21    1    1    2  504  503  0.32633971188E+02  0.11282843014E+02 -0.63546515718E+02  0.72321769074E+02  0.00000000000E+00 0. -1.
</event>
<event>
 4    1  0.1571930E+006  0.2382584E+02  0.7546771E-02  0.1482381E+00
         21   -1    0    0  504  501  0.00000000000E+00  0.00000000000E+00  0.50357214370E+03  0.50357214370E+03  0.00000000000E+00 0.  1.
         21   -1    0    0  503  502 -0.00000000000E+00 -0.00000000000E+00 -0.12481203488E+02  0.12481203488E+02  0.00000000000E+00 0.  1.
         21    1    1    2  503  501 -0.15933286390E+02  0.17714423550E+02 -0.55317132842E+00  0.23832255777E+02  0.00000000000E+00 0.  1.
         21    1    1    2  504  502  0.15933286390E+02 -0.17714423550E+02  0.49164411154E+03  0.49222109141E+03  0.00000000000E+00 0.  1.
</event>
<event>
 4    1  0.1571930E+006  0.2534647E+02  0.7546771E-02  0.1464965E+00
         21   -1    0    0  503  501  0.00000000000E+00  0.00000000000E+00  0.17905933028E+03  0.17905933028E+03  0.00000000000E+00 0. -1.
         21   -1    0    0  504  502 -0.00000000000E+00 -0.00000000000E+00 -0.33490695691E+02  0.33490695691E+02  0.00000000000E+00 0. -1.
         21    1    1    2  503  502 -0.96361198109E+01  0.23443304325E+02  0.17320545259E+03  0.17505019888E+03  0.00000000000E+00 0. -1.
         21    1    1    2  504  501  0.96361198109E+01 -0.23443304325E+02 -0.27636817998E+02  0.37499827090E+02  0.00000000000E+00 0. -1.
</event>
<event>
 4    1  0.1571930E+006  0.2758955E+02  0.7546771E-02  0.1441774E+00
         21   -1    0    0  504  501  0.00000000000E+00  0.00000000000E+00  0.98776369340E+02  0.98776369340E+02  0.00000000000E+00 0. -1.
         21   -1    0    0  503  502 -0.00000000000E+00 -0.00000000000E+00 -0.15076687871E+02  0.15076687871E+02  0.00000000000E+00 0. -1.
         21    1    1    2  503  501  0.22075798875E+02 -0.16548185511E+02  0.20471923380E+01  0.27665399620E+02  0.00000000000E+00 0. -1.
         21    1    1    2  504  502 -0.22075798875E+02  0.16548185511E+02  0.81652489131E+02  0.86187657591E+02  0.00000000000E+00 0. -1.
</event>
<event>
 4    1  0.1571930E+006  0.2268374E+02  0.7546771E-02  0.1496508E+00
         21   -1    0    0  502  501  0.00000000000E+00  0.00000000000E+00  0.35737343223E+03  0.35737343223E+03  0.00000000000E+00 0.  1.
         21   -1    0    0  503  502 -0.00000000000E+00 -0.00000000000E+00 -0.66588647544E+01  0.66588647544E+01  0.00000000000E+00 0.  1.
         21    1    1    2  503  504 -0.22512625145E+02  0.27809867229E+01  0.14216497695E+02  0.26770524553E+02  0.00000000000E+00 0.  1.
         21    1    1    2  504  501  0.22512625145E+02 -0.27809867229E+01  0.33649806978E+03  0.33726177243E+03  0.00000000000E+00 0.  1.
</event>
<event>
 4    1  0.1571930E+006  0.2044871E+02  0.7546771E-02  0.1527283E+00
         21   -1    0    0  502  501  0.00000000000E+00  0.00000000000E+00  0.82693333606E+02  0.82693333606E+02  0.00000000000E+00 0. -1.
         21   -1    0    0  503  502 -0.00000000000E+00 -0.00000000000E+00 -0.48335165700E+02  0.48335165700E+02  0.00000000000E+00 0. -1.
         21    1    1    2  503  504 -0.19705897320E+02 -0.54614546685E+01 -0.44813598275E+02  0.49258587745E+02  0.00000000000E+00 0. -1.
         21    1    1    2  504  501  0.19705897320E+02  0.54614546685E+01  0.79171766182E+02  0.81769911561E+02  0.00000000000E+00 0. -1.
</event>
<event>
 4    1  0.1571930E+006  0.2298680E+02  0.7546771E-02  0.1492664E+00
         21   -1    0    0  504  501  0.00000000000E+00  0.00000000000E+00  0.10525628273E+02  0.10525628273E+02  0.00000000000E+00 0.  1.
         21   -1    0    0  503  502 -0.00000000000E+00 -0.00000000000E+00 -0.50821077138E+02  0.50821077138E+02  0.00000000000E+00 0.  1.
         21    1    1    2  503  501 -0.10770918859E+02 -0.20307152571E+02 -0.16758559004E+02  0.28447186829E+02  0.00000000000E+00 0.  1.
         21    1    1    2  504  502  0.10770918859E+02  0.20307152571E+02 -0.23536889861E+02  0.32899518582E+02  0.00000000000E+00 0.  1.
</event>
<event>
 4    1  0.1571930E+006  0.2318532E+02  0.7546771E-02  0.1490184E+00
         21   -1    0    0  503  501  0.00000000000E+00  0.00000000000E+00  0.38225099470E+02  0.38225099470E+02  0.00000000000E+00 0.  1.
         21   -1    0    0  504  502 -0.00000000000E+00 -0.00000000000E+00 -0.65406646721E+02  0.65406646721E+02  0.00000000000E+00 0.  1.
         21    1    1    2  503  502  0.21662907727E+02 -0.82630097614E+01  0.32317959509E+02  0.39774481874E+02  0.00000000000E+00 0.  1.
         21    1    1    2  504  501 -0.21662907727E+02  0.82630097614E+01 -0.59499506760E+02  0.63857264318E+02  0.00000000000E+00 0.  1.
</event>
<event>
 4    1  0.1571930E+006  0.2330225E+02  0.7546771E-02  0.1488737E+00
         21   -1    0    0  504  501  0.00000000000E+00  0.00000000000E+00  0.23356268264E+02  0.23356268264E+02  0.00000000000E+00 0. -1.
         21   -1    0    0  503  502 -0.00000000000E+00 -0.00000000000E+00 -0.96082171791E+02  0.96082171791E+02  0.00000000000E+00 0. -1.
         21    1    1    2  503  501 -0.18690599297E+02 -0.13916049334E+02 -0.88357671473E+02  0.91378734064E+02  0.00000000000E+00 0. -1.
         21    1    1    2  504  502  0.18690599297E+02  0.13916049334E+02  0.15631767946E+02  0.28059705991E+02  0.00000000000E+00 0. -1.
</event>
<event>
 4    1  0.1571930E+006  0.3228921E+02  0.7546771E-02  0.1400693E+00
         21   -1    0    0  503  501  0.00000000000E+00  0.00000000000E+00  0.47164661095E+02  0.47164661095E+02  0.00000000000E+00 0. -1.
         21   -1    0    0  504  502 -0.00000000000E+00 -0.00000000000E+00 -0.34511499715E+02  0.34511499715E+02  0.00000000000E+00 0. -1.
         21    1    1    2  503  502  0.23056455166E+01  0.32206786525E+02  0.30811645628E+02  0.44631273853E+02  0.00000000000E+00 0. -1.
         21    1    1    2  504  501 -0.23056455166E+01 -0.32206786525E+02 -0.18158484247E+02  0.37044886957E+02  0.00000000000E+00 0. -1.
</event>
<event>
 4    1  0.1571930E+006  0.2120650E+02  0.7546771E-02  0.1516337E+00
         21   -1    0    0  502  501  0.00000000000E+00  0.00000000000E+00  0.92561079591E+00  0.92561079591E+00  0.00000000000E+00 0.  1.
         21   -1    0    0  504  502 -0.00000000000E+00 -0.00000000000E+00 -0.75389825384E+03  0.75389825384E+03  0.00000000000E+00 0. -1.
         21    1    1    2  503  501 -0.87578787746E+01 -0.19313601480E+02 -0.15144666065E+03  0.15292418601E+03  0.00000000000E+00 0.  1.
         21    1    1    2  504  503  0.87578787746E+01  0.19313601480E+02 -0.60152598239E+03  0.60189967863E+03  0.00000000000E+00 0. -1.
</event>
<event>
 4    1  0.1571930E+006  0.2603477E+02  0.7546771E-02  0.1457553E+00
         21   -1    0    0  504  501  0.00000000000E+00  0.00000000000E+00  0.38639960375E+01  0.38639960375E+01  0.00000000000E+00 0. -1.
         21   -1    0    0  501  502 -0.00000000000E+00 -0.00000000000E+00 -0.46656699245E+03  0.46656699245E+03  0.00000000000E+00 0.  1.
         21    1    1    2  503  502 -0.11460203441E+02  0.23376758810E+02 -0.41716086257E+03  0.41797248040E+03  0.00000000000E+00 0.  1.
         21    1    1    2  504  503  0.11460203441E+02 -0.23376758810E+02 -0.45542133842E+02  0.52458508083E+02  0.00000000000E+00 0. -1.
</event>
<event>
 4    1  0.1571930E+006  0.2933001E+02  0.7546771E-02  0.1425509E+00
         21   -1    0    0  504  501  0.00000000000E+00  0.00000000000E+00  0.77228324006E+02  0.77228324006E+02  0.00000000000E+00 0. -1.
         21   -1    0    0  503  502 -0.00000000000E+00 -0.00000000000E+00 -0.22171843897E+02  0.22171843897E+02  0.00000000000E+00 0.  1.
         21    1    1    2  503  501  0.14702859018E+01 -0.29293134316E+02 -0.75307295754E+01  0.30281369629E+02  0.00000000000E+00 0.  1.
         21    1    1    2  504  502 -0.14702859018E+01  0.29293134316E+02  0.62587209685E+02  0.69118798274E+02  0.00000000000E+00 0. -1.
</event>
<event>
 4    1  0.1571930E+006  0.2586338E+02  0.7546771E-02  0.1459372E+00
         21   -1    0    0  504  501  0.00000000000E+00  0.00000000000E+00  0.13273596650E+03  0.13273596650E+03  0.00000000000E+00 0.  1.
         21   -1    0    0  503  502 -0.00000000000E+00 -0.00000000000E+00 -0.57501587615E+01  0.57501587615E+01  0.00000000000E+00 0.  1.
         21    1    1    2  503  501 -0.25744956901E+02  0.24721805999E+01  0.39149220484E+02  0.46920954245E+02  0.00000000000E+00 0.  1.
         21    1    1    2  504  502  0.25744956901E+02 -0.24721805999E+01  0.87836587258E+02  0.91565171020E+02  0.00000000000E+00 0.  1.
</event>
<event>
 4    1  0.1571930E+006  0.2291505E+02  0.7546771E-02  0.1493568E+00
         21   -1    0    0  503  501  0.00000000000E+00  0.00000000000E+00  0.31939612790E+01  0.31939612790E+01  0.00000000000E+00 0.  1.
         21   -1    0    0  501  502 -0.00000000000E+00 -0.00000000000E+00 -0.33640943742E+03  0.33640943742E+03  0.00000000000E+00 0. -1.
         21    1    1    2  503  504 -0.21578236337E+02  0.77122927638E+01 -0.45190838031E+02  0.50668644989E+02  0.00000000000E+00 0.  1.
         21    1    1    2  504  502  0.21578236337E+02 -0.77122927638E+01 -0.28802463811E+03  0.28893475371E+03  0.00000000000E+00 0. -1.
</event>
<event>
 4    1  0.1571930E+006  0.2591473E+02  0.7546771E-02  0.1458825E+00
         21   -1    0    0  503  501  0.00000000000E+00  0.00000000000E+00  0.97381407800E+00  0.97381407800E+00  0.00000000000E+00 0. -1.
         21   -1    0    0  504  502 -0.00000000000E+00 -0.00000000000E+00 -0.76509058307E+03  0.76509058307E+03  0.00000000000E+00 0. -1.
         21    1    1    2  503  502 -0.92277185940E+01 -0.24216160902E+02 -0.26176728185E+03  0.26304692183E+03  0.00000000000E+00 0. -1.
         21    1    1    2  504  501  0.92277185940E+01  0.24216160902E+02 -0.50234948714E+03  0.50301747532E+03  0.00000000000E+00 0. -1.
</event>
<event>
 4    1  0.1571930E+006  0.2784022E+02  0.7546771E-02  0.1439346E+00
         21   -1    0    0  502  501  0.00000000000E+00  0.00000000000E+00  0.12299530117E+03  0.12299530117E+03  0.00000000000E+00 0.  1.
         21   -1    0    0  503  502 -0.00000000000E+00 -0.00000000000E+00 -0.37476394335E+02  0.37476394335E+02  0.00000000000E+00 0. -1.
         21    1    1    2  503  504 -0.27770848878E+02  0.19641292487E+01 -0.30420266060E+02  0.41236760764E+02  0.00000000000E+00 0. -1.
         21    1    1    2  504  501  0.27770848878E+02 -0.19641292487E+01  0.11593917290E+03  0.11923493475E+03  0.00000000000E+00 0.  1.
</event>
<event>
 4    1  0.1571930E+006  0.2475078E+02  0.7546771E-02  0.1471611E+00
         21   -1    0    0  503  501  0.00000000000E+00  0.00000000000E+00  0.73182552328E+02  0.73182552328E+02  0.00000000000E+00 0.  1.
         21   -1    0    0  504  502 -0.00000000000E+00 -0.00000000000E+00 -0.10969275602E+02  0.10969275602E+02  0.00000000000E+00 0. -1.
         21    1    1    2  503  502  0.23456378906E+02 -0.78993425029E+01  0.10628125820E+02  0.26936190930E+02  0.00000000000E+00 0. -1.
         21    1    1    2  504  501 -0.23456378906E+02  0.78993425029E+01  0.51585150906E+02  0.57215637000E+02  0.00000000000E+00 0.  1.
</event>
<event>
 4    1  0.1571930E+006  0.2864654E+02  0.7546771E-02  0.1431734E+00
         21   -1    0    0  504  501  0.00000000000E+00  0.00000000000E+00  0.49738272096E+02  0.49738272096E+02  0.00000000000E+00 0.  1.
         21   -1    0    0  503  502 -0.00000000000E+00 -0.00000000000E+00 -0.11091195083E+03  0.11091195083E+03  0.00000000000E+00 0. -1.
         21    1    1    2  503  501 -0.24635312550E+02  0.14619367230E+02  0.43523411744E+02  0.52104816404E+02  0.00000000000E+00 0.  1.
         21    1    1    2  504  502  0.24635312550E+02 -0.14619367230E+02 -0.10469709048E+03  0.10854540652E+03  0.00000000000E+00 0. -1.
</event>
<event>
 4    1  0.1571930E+006  0.2853045E+02  0.7546771E-02  0.1432812E+00
         21   -1    0    0  503  501  0.00000000000E+00  0.00000000000E+00  0.19055845585E+02  0.19055845585E+02  0.00000000000E+00 0.  1.
         21   -1    0    0  504  502 -0.00000000000E+00 -0.00000000000E+00 -0.10458434375E+03  0.10458434375E+03  0.00000000000E+00 0. -1.
         21    1    1    2  503  502  0.22022232578E+02 -0.18138566664E+02 -0.90312128987E+02  0.94711493339E+02  0.00000000000E+00 0. -1.
         21    1    1    2  504  501 -0.22022232578E+02  0.18138566664E+02  0.47836308193E+01  0.28928695999E+02  0.00000000000E+00 0.  1.
</event>
<event>
 4    1  0.1571930E+006  0.3105094E+02  0.7546771E-02  0.1410678E+00
         21   -1    0    0  502  501  0.00000000000E+00  0.00000000000E+00  0.29146073387E+02  0.29146073387E+02  0.00000000000E+00 0.  1.
         21   -1    0    0  504  502 -0.00000000000E+00 -0.00000000000E+00 -0.98964457102E+02  0.98964457102E+02  0.00000000000E+00 0.  1.
         21    1    1    2  503  501  0.21684177397E+01 -0.30975130715E+02  0.17355177958E+02  0.35571940631E+02  0.00000000000E+00 0.  1.
         21    1    1    2  504  503 -0.21684177397E+01  0.30975130715E+02 -0.87173561672E+02  0.92538589858E+02  0.00000000000E+00 0.  1.
</event>
<event>
 4    1  0.1571930E+006  0.2633957E+02  0.7546771E-02  0.1454357E+00
         21   -1    0    0  503  501  0.00000000000E+00  0.00000000000E+00  0.63645487306E+02  0.63645487306E+02  0.00000000000E+00 0.  1.
         21   -1    0    0  501  502 -0.00000000000E+00 -0.00000000000E+00 -0.35643119913E+02  0.35643119913E+02  0.00000000000E+00 0.  1.
         21    1    1    2  503  504  0.25532161369E+02  0.64716074741E+01  0.55363387824E+02  0.61309686664E+02  0.00000000000E+00 0.  1.
         21    1    1    2  504  502 -0.25532161369E+02 -0.64716074741E+01 -0.27361020431E+02  0.37978920555E+02  0.00000000000E+00 0.  1.
</event>
<event>
 4    1  0.1571930E+006  0.3881244E+02  0.7546771E-02  0.1355589E+00
         21   -1    0    0  503  501  0.00000000000E+00  0.00000000000E+00  0.11892730763E+03  0.11892730763E+03  0.00000000000E+00 0. -1.
         21   -1    0    0  504  502 -0.00000000000E+00 -0.00000000000E+00 -0.27778029662E+03  0.27778029662E+03  0.00000000000E+00 0.  1.
         21    1    1    2  503  502  0.16946993620E+02 -0.34917119028E+02 -0.27320512651E+03  0.27594826860E+03  0.00000000000E+00 0.  1.
         21    1    1    2  504  501 -0.16946993620E+02  0.34917119028E+02  0.11435213751E+03  0.12075933565E+03  0.00000000000E+00 0. -1.
</event>
<event>
 4    1  0.1571930E+006  0.2168288E+02  0.7546771E-02  0.1509734E+00
         21   -1    0    0  503  501  0.00000000000E+00  0.00000000000E+00  0.25909237694E+01  0.25909237694E+01  0.00000000000E+00 0.  1.
         21   -1    0    0  504  502 -0.00000000000E+00 -0.00000000000E+00 -0.22422110837E+03  0.22422110837E+03  0.00000000000E+00 0. -1.
         21    1    1    2  503  502 -0.13854544303E+02  0.16679296086E+02 -0.16034022840E+03  0.16179967911E+03  0.00000000000E+00 0. -1.
         21    1    1    2  504  501  0.13854544303E+02 -0.16679296086E+02 -0.61289956200E+02  0.65012353032E+02  0.00000000000E+00 0.  1.
</event>
<event>
 4    1  0.1571930E+006  0.2263178E+02  0.7546771E-02  0.1497174E+00
         21   -1    0    0  503  501  0.00000000000E+00  0.00000000000E+00  0.12681709471E+03  0.12681709471E+03  0.00000000000E+00 0.  1.
         21   -1    0    0  504  502 -0.00000000000E+00 -0.00000000000E+00 -0.50266282680E+01  0.50266282680E+01  0.00000000000E+00 0.  1.
         21    1    1    2  503  502 -0.22294692339E+02  0.38915603239E+01  0.31672772708E+02  0.38927651859E+02  0.00000000000E+00 0.  1.
         21    1    1    2  504  501  0.22294692339E+02 -0.38915603239E+01  0.90117693737E+02  0.92916071122E+02  0.00000000000E+00 0.  1.
</event>
<event>
 4    1  0.1571930E+006  0.2734595E+02  0.7546771E-02  0.1444164E+00
         21   -1    0    0  503  501  0.00000000000E+00  0.00000000000E+00  0.14425616363E+03  0.14425616363E+03  0.00000000000E+00 0. -1.
         21   -1    0    0  501  502 -0.00000000000E+00 -0.00000000000E+00 -0.12140695959E+02  0.12140695959E+02  0.00000000000E+00 0.  1.
         21    1    1    2  503  504  0.16730524244E+02 -0.21630778861E+02  0.12525241848E+03  0.12820284462E+03  0.00000000000E+00 0. -1.
         21    1    1    2  504  502 -0.16730524244E+02  0.21630778861E+02  0.68630491958E+01  0.28194014965E+02  0.00000000000E+00 0.  1.
</event>
<event>
 4    1  0.1571930E+006  0.2502943E+02  0.7546771E-02  0.1468474E+00
         21   -1    0    0  504  501  0.00000000000E+00  0.00000000000E+00  0.17099548757E+02  0.17099548757E+02  0.00000000000E+00 0. -1.
         21   -1    0    0  503  502 -0.00000000000E+00 -0.00000000000E+00 -0.36753536622E+02  0.36753536622E+02  0.00000000000E+00 0. -1.
         21    1    1    2  503  501 -0.19501199409E+02  0.15689981099E+02 -0.11344690337E+02  0.27480434569E+02  0.00000000000E+00 0. -1.
         21    1    1    2  504  502  0.19501199409E+02 -0.15689981099E+02 -0.83092975278E+01  0.26372650809E+02  0.00000000000E+00 0. -1.
</event>
<event>
 4    1  0.1571930E+006  0.2579097E+02  0.7546771E-02  0.1460146E+00
         21   -1    0    0  504  501  0.00000000000E+00  0.00000000000E+00  0.32935804369E+03  0.32935804369E+03  0.00000000000E+00 0.  1.
         21   -1    0    0  501  502 -0.00000000000E+00 -0.00000000000E+00 -0.26406268084E+01  0.26406268084E+01  0.00000000000E+00 0.  1.
         21    1    1    2  503  502  0.13427116376E+02  0.22020137660E+02  0.82856934876E+02  0.86778139954E+02  0.00000000000E+00 0.  1.
         21    1    1    2  504  503 -0.13427116376E+02 -0.22020137660E+02  0.24386048201E+03  0.24522053055E+03  0.00000000000E+00 0.  1.
</event>
<event>
 4    1  0.1571930E+006  0.2347559E+02  0.7546771E-02  0.1486611E+00
         21   -1    0    0  504  501  0.00000000000E+00  0.00000000000E+00  0.10348990835E+03  0.10348990835E+03  0.00000000000E+00 0. -1.
         21   -1    0    0  501  502 -0.00000000000E+00 -0.00000000000E+00 -0.32483483508E+02  0.32483483508E+02  0.00000000000E+00 0.  1.
         21    1    1    2  503  502 -0.18058525812E+01  0.23406032565E+02 -0.26661491999E+02  0.35523775413E+02  0.00000000000E+00 0.  1.
         21    1    1    2  504  503  0.18058525812E+01 -0.23406032565E+02  0.97667916841E+02  0.10044961645E+03  0.00000000000E+00 0. -1.
</event>
<event>
 4    1  0.1571930E+006  0.2665834E+02  0.7546771E-02  0.1451071E+00
         21   -1    0    0  503  501  0.00000000000E+00  0.00000000000E+00  0.70831533338E+02  0.70831533338E+02  0.00000000000E+00 0.  1.
         21   -1    0    0  504  502 -0.00000000000E+00 -0.00000000000E+00 -0.22468070642E+02  0.22468070642E+02  0.00000000000E+00 0.  1.
         21    1    1    2  503  502 -0.22691018671E+02 -0.13992318393E+02 -0.10522902038E+02  0.28660055297E+02  0.00000000000E+00 0.  1.
         21    1    1    2  504  501  0.22691018671E+02  0.13992318393E+02  0.58886364735E+02  0.64639548683E+02  0.00000000000E+00 0.  1.
</event>
<event>
 4    1  0.1571930E+006  0.2099436E+02  0.7546771E-02  0.1519345E+00
         21   -1    0    0  504  501  0.00000000000E+00  0.00000000000E+00  0.32935857843E+03  0.32935857843E+03  0.00000000000E+00 0. -1.
         21   -1    0    0  503  502 -0.00000000000E+00 -0.00000000000E+00 -0.20905014585E+02  0.20905014585E+02  0.00000000000E+00 0.  1.
         21    1    1    2  503  501 -0.20163968707E+02  0.58461455387E+01  0.32366029321E+03  0.32434048229E+03  0.00000000000E+00 0. -1.
         21    1    1    2  504  502  0.20163968707E+02 -0.58461455387E+01 -0.15206729364E+02  0.25923110725E+02  0.00000000000E+00 0.  1.
</event>
<event>
 4    1  0.1571930E+006  0.3369410E+02  0.7546771E-02  0.1389984E+00
         21   -1    0    0  503  501  0.00000000000E+00  0.00000000000E+00  0.24691049278E+03  0.24691049278E+03  0.00000000000E+00 0.  1.
         21   -1    0    0  504  502 -0.00000000000E+00 -0.00000000000E+00 -0.46033415012E+01  0.46033415012E+01  0.00000000000E+00 0.  1.
         21    1    1    2  503  502 -0.48005156386E+01  0.33350375460E+02  0.12544052266E+03  0.12988694014E+03  0.00000000000E+00 0.  1.
         21    1    1    2  504  501  0.48005156386E+01 -0.33350375460E+02  0.11686662862E+03  0.12162689414E+03  0.00000000000E+00 0.  1.
</event>
<event>
 4    1  0.1571930E+006  0.2938228E+02  0.7546771E-02  0.1425041E+00
         21   -1    0    0  503  501  0.00000000000E+00  0.00000000000E+00  0.10196609040E+02  0.10196609040E+02  0.00000000000E+00 0.  1.
         21   -1    0    0  504  502 -0.00000000000E+00 -0.00000000000E+00 -0.11027397463E+03  0.11027397463E+03  0.00000000000E+00 0. -1.
         21    1    1    2  503  502 -0.27233857912E+01  0.29255793111E+02 -0.79065004719E+02  0.84348048181E+02  0.00000000000E+00 0. -1.
         21    1    1    2  504  501  0.27233857912E+01 -0.29255793111E+02 -0.21012360870E+02  0.36122535488E+02  0.00000000000E+00 0.  1.
</event>
<event>
 4    1  0.1571930E+006  0.2686575E+02  0.7546771E-02  0.1448961E+00
         21   -1    0    0  503  501  0.00000000000E+00  0.00000000000E+00  0.12764441623E+03  0.12764441623E+03  0.00000000000E+00 0. -1.
         21   -1    0    0  504  502 -0.00000000000E+00 -0.00000000000E+00 -0.19380067101E+02  0.19380067101E+02  0.00000000000E+00 0. -1.
         21    1    1    2  503  502  0.25813748095E+02  0.74444002376E+01 -0.77330741789E+01  0.27956557761E+02  0.00000000000E+00 0. -1.
         21    1    1    2  504  501 -0.25813748095E+02 -0.74444002376E+01  0.11599742331E+03  0.11906792557E+03  0.00000000000E+00 0. -1.
</event>
<event>
 4    1  0.1571930E+006  0.2284505E+02  0.7546771E-02  0.1494453E+00
         21   -1    0    0  503  501  0.00000000000E+00  0.00000000000E+00  0.31728510364E+03  0.31728510364E+03  0.00000000000E+00 0. -1.
         21   -1    0    0  501  502 -0.00000000000E+00 -0.00000000000E+00 -0.12468572839E+02  0.12468572839E+02  0.00000000000E+00 0. -1.
         21    1    1    2  503  504  0.85740113932E+01 -0.21175042953E+02  0.30602516461E+03  0.30687668124E+03  0.00000000000E+00 0. -1.
         21    1    1    2  504  502 -0.85740113932E+01  0.21175042953E+02 -0.12086338086E+01  0.22876995238E+02  0.00000000000E+00 0. -1.
</event>
<event>
 4    1  0.1571930E+006  0.2294588E+02  0.7546771E-02  0.1493179E+00
         21   -1    0    0  503  501  0.00000000000E+00  0.00000000000E+00  0.31608446329E+02  0.31608446329E+02  0.00000000000E+00 0. -1.
         21   -1    0    0  504  502 -0.00000000000E+00 -0.00000000000E+00 -0.30490122668E+03  0.30490122668E+03  0.00000000000E+00 0. -1.
         21    1    1    2  503  502  0.19270889536E+02  0.12455772404E+02 -0.30024062861E+03  0.30111617113E+03  0.00000000000E+00 0. -1.
         21    1    1    2  504  501 -0.19270889536E+02 -0.12455772404E+02  0.26947848255E+02  0.35393501879E+02  0.00000000000E+00 0. -1.
</event>
<event>
 4    1  0.1571930E+006  0.2004460E+02  0.7546771E-02  0.1533355E+00
         21   -1    0    0  504  501  0.00000000000E+00  0.00000000000E+00  0.55390242924E+01  0.55390242924E+01  0.00000000000E+00 0.  1.
         21   -1    0    0  503  502 -0.00000000000E+00 -0.00000000000E+00 -0.76362465112E+02  0.76362465112E+02  0.00000000000E+00 0.  1.
         21    1    1    2  503  501  0.18083752560E+02 -0.86465995074E+01 -0.26246398622E+02  0.33025130285E+02  0.00000000000E+00 0.  1.
         21    1    1    2  504  502 -0.18083752560E+02  0.86465995074E+01 -0.44577042198E+02  0.48876359120E+02  0.00000000000E+00 0.  1.
</event>
<event>
 4    1  0.1571930E+006  0.2117742E+02  0.7546771E-02  0.1516747E+00
         21   -1    0    0  504  501  0.00000000000E+00  0.00000000000E+00  0.36483411248E+02  0.36483411248E+02  0.00000000000E+00 0.  1.
         21   -1    0    0  501  502 -0.00000000000E+00 -0.00000000000E+00 -0.26481978536E+02  0.26481978536E+02  0.00000000000E+00 0.  1.
         21    1    1    2  503  502 -0.21170338948E+02  0.54772847302E+00 -0.18044209809E+02  0.27822235088E+02  0.00000000000E+00 0.  1.
         21    1    1    2  504  503  0.21170338948E+02 -0.54772847302E+00  0.28045642520E+02  0.35143154696E+02  0.00000000000E+00 0.  1.
</event>
<event>
 4    1  0.1571930E+006  0.2946427E+02  0.7546771E-02  0.1424310E+00
         21   -1    0    0  504  501  0.00000000000E+00  0.00000000000E+00  0.18338604156E+02  0.18338604156E+02  0.00000000000E+00 0.  1.
         21   -1    0    0  501  502 -0.00000000000E+00 -0.00000000000E+00 -0.12617822267E+03  0.12617822267E+03  0.00000000000E+00 0. -1.
         21    1    1    2  503  502 -0.48774126411E+01  0.29057770567E+02 -0.11103683480E+03  0.11487959726E+03  0.00000000000E+00 0. -1.
         21    1    1    2  504  503  0.48774126411E+01 -0.29057770567E+02  0.31972162849E+01  0.29637229566E+02  0.00000000000E+00 0.  1.
</event>
<event>
 4    1  0.1571930E+006  0.2055678E+02  0.7546771E-02  0.1525688E+00
         21   -1    0    0  504  501  0.00000000000E+00  0.00000000000E+00  0.56069947788E+01  0.56069947788E+01  0.00000000000E+00 0.  1.
         21   -1    0    0  501  502 -0.00000000000E+00 -0.00000000000E+00 -0.26504203309E+03  0.26504203309E+03  0.00000000000E+00 0.  1.
         21    1    1    2  503  502 -0.18313722390E+01 -0.20475036737E+02 -0.24419615690E+03  0.24505987860E+03  0.00000000000E+00 0.  1.
         21    1    1    2  504  503  0.18313722390E+01  0.20475036737E+02 -0.15238881406E+02  0.25589149266E+02  0.00000000000E+00 0.  1.
</event>
<event>
 4    1  0.1571930E+006  0.2137663E+02  0.7546771E-02  0.1513955E+00
         21   -1    0    0  502  501  0.00000000000E+00  0.00000000000E+00  0.19053474996E+02  0.19053474996E+02  0.00000000000E+00 0.  1.
         21   -1    0    0  504  502 -0.00000000000E+00 -0.00000000000E+00 -0.63584253660E+02  0.63584253660E+02  0.00000000000E+00 0. -1.
         21    1    1    2  503  501 -0.11379656858E+02 -0.18095958253E+02  0.10342885522E+02  0.23747327770E+02  0.00000000000E+00 0.  1.
         21    1    1    2  504  503  0.11379656858E+02  0.18095958253E+02 -0.54873664186E+02  0.58890400886E+02  0.00000000000E+00 0. -1.
</event>
<event>
 4    1  0.1571930E+006  0.2371324E+02  0.7546771E-02  0.1483731E+00
         21   -1    0    0  504  501  0.00000000000E+00  0.00000000000E+00  0.26700508146E+01  0.26700508146E+01  0.00000000000E+00 0. -1.
         21   -1    0    0  503  502 -0.00000000000E+00 -0.00000000000E+00 -0.22873278498E+03  0.22873278498E+03  0.00000000000E+00 0. -1.
         21    1    1    2  503  501 -0.15262477781E+02 -0.18148676863E+02 -0.14560635843E+03  0.14752467358E+03  0.00000000000E+00 0. -1.
         21    1    1    2  504  502  0.15262477781E+02  0.18148676863E+02 -0.80456375737E+02  0.83878162216E+02  0.00000000000E+00 0. -1.
</event>
<event>
 4    1  0.1571930E+006  0.4695381E+02  0.7546771E-02  0.1311949E+00
         21   -1    0    0  503  501  0.00000000000E+00  0.00000000000E+00  0.36769501296E+02  0.36769501296E+02  0.00000000000E+00 0.  1.
         21   -1    0    0  504  502 -0.00000000000E+00 -0.00000000000E+00 -0.78205677610E+02  0.78205677610E+02  0.00000000000E+00 0.  1.
         21    1    1    2  503  502  0.27249698505E+02  0.38237605019E+02  0.70500978960E+01  0.47480147289E+02  0.00000000000E+00 0.  1.
         21    1    1    2  504  501 -0.27249698505E+02 -0.38237605019E+02 -0.48486274210E+02  0.67495031617E+02  0.00000000000E+00 0.  1.
</event>
<event>
 4    1  0.1571930E+006  0.2180133E+02  0.7546771E-02  0.1508124E+00
         21   -1    0    0  504  501  0.00000000000E+00  0.00000000000E+00  0.97075861065E+01  0.97075861065E+01  0.00000000000E+00 0.  1.
         21   -1    0    0  503  502 -0.00000000000E+00 -0.00000000000E+00 -0.50951552234E+03  0.50951552234E+03  0.00000000000E+00 0.  1.
         21    1    1    2  503  501  0.15749953147E+02 -0.15074383235E+02 -0.30809868640E+01  0.22017959354E+02  0.00000000000E+00 0.  1.
         21    1    1    2  504  502 -0.15749953147E+02  0.15074383235E+02 -0.49672694937E+03  0.49720514909E+03  0.00000000000E+00 0.  1.
</event>
<event>
 4    1  0.1571930E+006  0.3019588E+02  0.7546771E-02  0.1417902E+00
         21   -1    0    0  503  501  0.00000000000E+00  0.00000000000E+00  0.75502380659E+03  0.75502380659E+03  0.00000000000E+00 0. -1.
         21   -1    0    0  504  502 -0.00000000000E+00 -0.00000000000E+00 -0.13044292637E+01  0.13044292637E+01  0.00000000000E+00 0. -1.
         21    1    1    2  503  502  0.29926754766E+02  0.40225213698E+01  0.27384471732E+03  0.27550448369E+03  0.00000000000E+00 0. -1.
         21    1    1    2  504  501 -0.29926754766E+02 -0.40225213698E+01  0.47987466001E+03  0.48082375216E+03  0.00000000000E+00 0. -1.
</event>
<event>
 4    1  0.1571930E+006  0.2146340E+02  0.7546771E-02  0.1512750E+00
         21   -1    0    0  504  501  0.00000000000E+00  0.00000000000E+00  0.42164924889E+03  0.42164924889E+03  0.00000000000E+00 0.  1.
         21   -1    0    0  503  502 -0.00000000000E+00 -0.00000000000E+00 -0.48577670881E+02  0.48577670881E+02  0.00000000000E+00 0.  1.
         21    1    1    2  503  501 -0.15485647168E+02 -0.14861776210E+02 -0.45918664262E+02  0.50687290201E+02  0.00000000000E+00 0.  1.
         21    1    1    2  504  502  0.15485647168E+02  0.14861776210E+02  0.41899024227E+03  0.41953962956E+03  0.00000000000E+00 0.  1.
</event>
<event>
 4    1  0.1571930E+006  0.2336292E+02  0.7546771E-02  0.1487991E+00
         21   -1    0    0  503  501  0.00000000000E+00  0.00000000000E+00  0.42594508682E+02  0.42594508682E+02  0.00000000000E+00 0. -1.
         21   -1    0    0  504  502 -0.00000000000E+00 -0.00000000000E+00 -0.34607414155E+03  0.34607414155E+03  0.00000000000E+00 0.  1.
         21    1    1    2  503  502 -0.16349262896E+02  0.16689146852E+02  0.38962655630E+02  0.45430326365E+02  0.00000000000E+00 0. -1.
         21    1    1    2  504  501  0.16349262896E+02 -0.16689146852E+02 -0.34244228850E+03  0.34323832387E+03  0.00000000000E+00 0.  1.
</event>
<event>
 4    1  0.1571930E+006  0.3660644E+02  0.7546771E-02  0.1369608E+00
         21   -1    0    0  504  501  0.00000000000E+00  0.00000000000E+00  0.90010523361E+02  0.90010523361E+02  0.00000000000E+00 0. -1.
         21   -1    0    0  503  502 -0.00000000000E+00 -0.00000000000E+00 -0.18593934975E+02  0.18593934975E+02  0.00000000000E+00 0. -1.
         21    1    1    2  503  501 -0.19820146149E+02 -0.30776504674E+02  0.11463955148E+02  0.38359532074E+02  0.00000000000E+00 0. -1.
         21    1    1    2  504  502  0.19820146149E+02  0.30776504674E+02  0.59952633239E+02  0.70244926262E+02  0.00000000000E+00 0. -1.
</event>
<event>
 4    1  0.1571930E+006  0.2282025E+02  0.7546771E-02  0.1494768E+00
         21   -1    0    0  504  501  0.00000000000E+00  0.00000000000E+00  0.59885277121E+01  0.59885277121E+01  0.00000000000E+00 0. -1.
         21   -1    0    0  503  502 -0.00000000000E+00 -0.00000000000E+00 -0.10544121926E+03  0.10544121926E+03  0.00000000000E+00 0.  1.
         21    1    1    2  503  501 -0.79838074897E+01 -0.21378086283E+02 -0.73051715201E+02  0.76533109495E+02  0.00000000000E+00 0.  1.
         21    1    1    2  504  502  0.79838074897E+01  0.21378086283E+02 -0.26400976349E+02  0.34896637479E+02  0.00000000000E+00 0. -1.
</event>
<event>
 4    1  0.1571930E+006  0.4766677E+02  0.7546771E-02  0.1308618E+00
         21   -1    0    0  502  501  0.00000000000E+00  0.00000000000E+00  0.10973252834E+03  0.10973252834E+03  0.00000000000E+00 0.  1.
         21   -1    0    0  503  502 -0.00000000000E+00 -0.00000000000E+00 -0.74031047652E+02  0.74031047652E+02  0.00000000000E+00 0. -1.
         21    1    1    2  503  504  0.62997997110E+01  0.47248630009E+02 -0.60130144983E+02  0.76731706939E+02  0.00000000000E+00 0. -1.
         21    1    1    2  504  501 -0.62997997110E+01 -0.47248630009E+02  0.95831625669E+02  0.10703186905E+03  0.00000000000E+00 0.  1.
</event>
<event>
 4    1  0.1571930E+006  0.2183328E+02  0.7546771E-02  0.1507692E+00
         21   -1    0    0  502  501  0.00000000000E+00  0.00000000000E+00  0.58387461124E+01  0.58387461124E+01  0.00000000000E+00 0.  1.
         21   -1    0    0  504  502 -0.00000000000E+00 -0.00000000000E+00 -0.16439144848E+03  0.16439144848E+03  0.00000000000E+00 0. -1.
         21    1    1    2  503  501  0.42849187445E+01 -0.21408677502E+02 -0.18888822782E+02  0.28870047231E+02  0.00000000000E+00 0.  1.
         21    1    1    2  504  503 -0.42849187445E+01  0.21408677502E+02 -0.13966387959E+03  0.14136014736E+03  0.00000000000E+00 0. -1.
</event>
<event>
 4    1  0.1571930E+006  0.3073233E+02  0.7546771E-02  0.1413337E+00
         21   -1    0    0  504  501  0.00000000000E+00  0.00000000000E+00  0.46288262678E+02  0.46288262678E+02  0.00000000000E+00 0.  1.
         21   -1    0    0  503  502 -0.00000000000E+00 -0.00000000000E+00 -0.30321181996E+02  0.30321181996E+02  0.00000000000E+00 0.  1.
         21    1    1    2  503  501  0.74879595546E+01  0.29806145527E+02 -0.13922737976E+02  0.33738975714E+02  0.00000000000E+00 0.  1.
         21    1    1    2  504  502 -0.74879595546E+01 -0.29806145527E+02  0.29889818658E+02  0.42870468961E+02  0.00000000000E+00 0.  1.
</event>
<event>
 4    1  0.1571930E+006  0.2204220E+02  0.7546771E-02  0.1504889E+00
         21   -1    0    0  503  501  0.00000000000E+00  0.00000000000E+00  0.19127636097E+03  0.19127636097E+03  0.00000000000E+00 0.  1.
         21   -1    0    0  501  502 -0.00000000000E+00 -0.00000000000E+00 -0.15131561238E+02  0.15131561238E+02  0.00000000000E+00 0. -1.
         21    1    1    2  503  504 -0.94096906641E+01 -0.19932799711E+02  0.18221642670E+03  0.18354477639E+03  0.00000000000E+00 0.  1.
         21    1    1    2  504  502  0.94096906641E+01  0.19932799711E+02 -0.60716269628E+01  0.22863145818E+02  0.00000000000E+00 0. -1.
</event>
<event>
 4    1  0.1571930E+006  0.2316845E+02  0.7546771E-02  0.1490394E+00
         21   -1    0    0  503  501  0.00000000000E+00  0.00000000000E+00  0.26627897506E+02  0.26627897506E+02  0.00000000000E+00 0.  1.
         21   -1    0    0  501  502 -0.00000000000E+00 -0.00000000000E+00 -0.87616416277E+02  0.87616416277E+02  0.00000000000E+00 0. -1.
         21    1    1    2  503  504  0.15349391616E+02  0.17354347270E+02  0.19627749677E+02  0.30364876906E+02  0.00000000000E+00 0.  1.
         21    1    1    2  504  502 -0.15349391616E+02 -0.17354347270E+02 -0.80616268448E+02  0.83879436876E+02  0.00000000000E+00 0. -1.
</event>
<event>
 4    1  0.1571930E+006  0.2342970E+02  0.7546771E-02  0.1487172E+00
         21   -1    0    0  504  501  0.00000000000E+00  0.00000000000E+00  0.28330621489E+02  0.28330621489E+02  0.00000000000E+00 0.  1.
         21   -1    0    0  501  502 -0.00000000000E+00 -0.00000000000E+00 -0.37832078328E+02  0.37832078328E+02  0.00000000000E+00 0.  1.
         21    1    1    2  503  502  0.15712485952E+02 -0.17380116062E+02 -0.27856260361E+02  0.36399476513E+02  0.00000000000E+00 0.  1.
         21    1    1    2  504  503 -0.15712485952E+02  0.17380116062E+02  0.18354803522E+02  0.29763223304E+02  0.00000000000E+00 0.  1.
</event>
<event>
 4    1  0.1571930E+006  0.2489593E+02  0.7546771E-02  0.1469971E+00
         21   -1    0    0  503  501  0.00000000000E+00  0.00000000000E+00  0.51903855520E+03  0.51903855520E+03  0.00000000000E+00 0.  1.
         21   -1    0    0  504  502 -0.00000000000E+00 -0.00000000000E+00 -0.13018790929E+01  0.13018790929E+01  0.00000000000E+00 0.  1.
         21    1    1    2  503  502 -0.23840733345E+02 -0.71712371345E+01  0.33371099051E+03  0.33463836062E+03  0.00000000000E+00 0.  1.
         21    1    1    2  504  501  0.23840733345E+02  0.71712371345E+01  0.18402568559E+03  0.18570207367E+03  0.00000000000E+00 0.  1.
</event>
<event>
 4    1  0.1571930E+006  0.2791633E+02  0.7546771E-02  0.1438614E+00
         21   -1    0    0  504  501  0.00000000000E+00  0.00000000000E+00  0.17159573692E+02  0.17159573692E+02  0.00000000000E+00 0.  1.
         21   -1    0    0  503  502 -0.00000000000E+00 -0.00000000000E+00 -0.45419616692E+02  0.45419616692E+02  0.00000000000E+00 0.  1.
         21    1    1    2  503  501  0.91605090237E+01  0.26370560702E+02 -0.13855799690E+02  0.31165759775E+02  0.00000000000E+00 0.  1.
         21    1    1    2  504  502 -0.91605090237E+01 -0.26370560702E+02 -0.14404243310E+02  0.31413430609E+02  0.00000000000E+00 0.  1.
</event>
<event>
 4    1  0.1571930E+006  0.3105252E+02  0.7546771E-02  0.1410665E+00
         21   -1    0    0  502  501  0.00000000000E+00  0.00000000000E+00  0.16395211160E+01  0.16395211160E+01  0.00000000000E+00 0. -1.
         21   -1    0    0  503  502 -0.00000000000E+00 -0.00000000000E+00 -0.60917367724E+03  0.60917367724E+03  0.00000000000E+00 0. -1.
         21    1    1    2  503  504 -0.31039198833E+02  0.90944529943E+00 -0.36052442453E+03  0.36185925391E+03  0.00000000000E+00 0. -1.
         21    1    1    2  504  501  0.31039198833E+02 -0.90944529943E+00 -0.24700973159E+03  0.24895394445E+03  0.00000000000E+00 0. -1.
</event>
<event>
 4    1  0.1571930E+006  0.2509053E+02  0.7546771E-02  0.1467793E+00
         21   -1    0    0  502  501  0.00000000000E+00  0.00000000000E+00  0.12108837957E+03  0.12108837957E+03  0.00000000000E+00 0.  1.
         21   -1    0    0  504  502 -0.00000000000E+00 -0.00000000000E+00 -0.69472985496E+01  0.69472985496E+01  0.00000000000E+00 0.  1.
         21    1    1    2  503  501  0.25594173941E+01  0.24959646036E+02  0.89185314260E+02  0.92647476098E+02  0.00000000000E+00 0.  1.
         21    1    1    2  504  503 -0.25594173941E+01 -0.24959646036E+02  0.24955766757E+02  0.35388202018E+02  0.00000000000E+00 0.  1.
</event>
<event>
 4    1  0.1571930E+006  0.2391193E+02  0.7546771E-02  0.1481354E+00
         21   -1    0    0  504  501  0.00000000000E+00  0.00000000000E+00  0.13196621052E+01  0.13196621052E+01  0.00000000000E+00 0.  1.
         21   -1    0    0  503  502 -0.00000000000E+00 -0.00000000000E+00 -0.43726886556E+03  0.43726886556E+03  0.00000000000E+00 0.  1.
         21    1    1    2  503  501 -0.73642523997E+01 -0.22749680164E+02 -0.19702369150E+03  0.19846943133E+03  0.00000000000E+00 0.  1.
         21    1    1    2  504  502  0.73642523997E+01  0.22749680164E+02 -0.23892551195E+03  0.24011909633E+03  0.00000000000E+00 0.  1.
</event>
<event>
 4    1  0.1571930E+006  0.2943355E+02  0.7546771E-02  0.1424584E+00
         21   -1    0    0  504  501  0.00000000000E+00  0.00000000000E+00  0.85989007267E+01  0.85989007267E+01  0.00000000000E+00 0.  1.
         21   -1    0    0  503  502 -0.00000000000E+00 -0.00000000000E+00 -0.10539774421E+03  0.10539774421E+03  0.00000000000E+00 0.  1.
         21    1    1    2  503  501  0.24280325781E+02  0.16637298880E+02 -0.60369483667E+02  0.67162552753E+02  0.00000000000E+00 0.  1.
         21    1    1    2  504  502 -0.24280325781E+02 -0.16637298880E+02 -0.36429359816E+02  0.46834092184E+02  0.00000000000E+00 0.  1.
</event>
<event>
 4    1  0.1571930E+006  0.2409361E+02  0.7546771E-02  0.1479204E+00
         21   -1    0    0  504  501  0.00000000000E+00  0.00000000000E+00  0.73165892555E+02  0.73165892555E+02  0.00000000000E+00 0.  1.
         21   -1    0    0  503  502 -0.00000000000E+00 -0.00000000000E+00 -0.66428478784E+02  0.66428478784E+02  0.00000000000E+00 0.  1.
         21    1    1    2  503  501 -0.10545002681E+02  0.21663449524E+02 -0.62127778526E+02  0.66636048738E+02  0.00000000000E+00 0.  1.
         21    1    1    2  504  502  0.10545002681E+02 -0.21663449524E+02  0.68865192296E+02  0.72958322601E+02  0.00000000000E+00 0.  1.
</event>
<event>
 4    1  0.1571930E+006  0.2046934E+02  0.7546771E-02  0.1526978E+00
         21   -1    0    0  503  501  0.00000000000E+00  0.00000000000E+00  0.95350580610E+01  0.95350580610E+01  0.00000000000E+00 0.  1.
         21   -1    0    0  504  502 -0.00000000000E+00 -0.00000000000E+00 -0.46559213669E+02  0.46559213669E+02  0.00000000000E+00 0. -1.
         21    1    1    2  503  502  0.17604353066E+01  0.20393494738E+02 -0.25161262596E+02  0.32435827345E+02  0.00000000000E+00 0. -1.
         21    1    1    2  504  501 -0.17604353066E+01 -0.20393494738E+02 -0.11862893012E+02  0.23658444385E+02  0.00000000000E+00 0.  1.
</event>
<event>
 4    1  0.1571930E+006  0.2583322E+02  0.7546771E-02  0.1459694E+00
         21   -1    0    0  503  501  0.00000000000E+00  0.00000000000E+00  0.24624896726E+02  0.24624896726E+02  0.00000000000E+00 0.  1.
         21   -1    0    0  504  502 -0.00000000000E+00 -0.00000000000E+00 -0.31305634953E+02  0.31305634953E+02  0.00000000000E+00 0.  1.
         21    1    1    2  503  502  0.96671465443E+01 -0.23956237166E+02  0.69086161753E+01  0.26741054559E+02  0.00000000000E+00 0.  1.
         21    1    1    2  504  501 -0.96671465443E+01  0.23956237166E+02 -0.13589354403E+02  0.29189477120E+02  0.00000000000E+00 0.  1.
</event>
<event>
 4    1  0.1571930E+006  0.2114755E+02  0.7546771E-02  0.1517169E+00
         21   -1    0    0  503  501  0.00000000000E+00  0.00000000000E+00  0.48940461174E+02  0.48940461174E+02  0.00000000000E+00 0.  1.
         21   -1    0    0  504  502 -0.00000000000E+00 -0.00000000000E+00 -0.10776382984E+02  0.10776382984E+02  0.00000000000E+00 0. -1.
         21    1    1    2  503  502 -0.20984264104E+02 -0.26229100442E+01  0.30724242433E+02  0.37298767676E+02  0.00000000000E+00 0.  1.
         21    1    1    2  504  501  0.20984264104E+02  0.26229100442E+01  0.74398357568E+01  0.22418076482E+02  0.00000000000E+00 0. -1.
</event>
<event>
 4    1  0.1571930E+006  0.2049677E+02  0.7546771E-02  0.1526572E+00
         21   -1    0    0  504  501  0.00000000000E+00  0.00000000000E+00  0.67903422554E+02  0.67903422554E+02  0.00000000000E+00 0. -1.
         21   -1    0    0  503  502 -0.00000000000E+00 -0.00000000000E+00 -0.16458412573E+02  0.16458412573E+02  0.00000000000E+00 0. -1.
         21    1    1    2  503  501  0.16527150895E+02 -0.12123147523E+02 -0.75999864474E+01  0.21860402937E+02  0.00000000000E+00 0. -1.
         21    1    1    2  504  502 -0.16527150895E+02  0.12123147523E+02  0.59044996429E+02  0.62501432190E+02  0.00000000000E+00 0. -1.
</event>
<event>
 4    1  0.1571930E+006  0.3304309E+02  0.7546771E-02  0.1394869E+00
         21   -1    0    0  502  501  0.00000000000E+00  0.00000000000E+00  0.66206268397E+02  0.66206268397E+02  0.00000000000E+00 0. -1.
         21   -1    0    0  503  502 -0.00000000000E+00 -0.00000000000E+00 -0.31889767078E+02  0.31889767078E+02  0.00000000000E+00 0.  1.
         21    1    1    2  503  504 -0.34347455102E+01 -0.32864092370E+02 -0.16924180568E+02  0.37125111878E+02  0.00000000000E+00 0.  1.
         21    1    1    2  504  501  0.34347455102E+01  0.32864092370E+02  0.51240681887E+02  0.60970923597E+02  0.00000000000E+00 0. -1.
</event>
<event>
 4    1  0.1571930E+006  0.2028082E+02  0.7546771E-02  0.1529785E+00
         21   -1    0    0  503  501  0.00000000000E+00  0.00000000000E+00  0.50164656546E+03  0.50164656546E+03  0.00000000000E+00 0.  1.
         21   -1    0    0  504  502 -0.00000000000E+00 -0.00000000000E+00 -0.10222925762E+01  0.10222925762E+01  0.00000000000E+00 0.  1.
         21    1    1    2  503  502  0.20226896501E+02  0.14779813990E+01  0.13848774745E+03  0.13996488118E+03  0.00000000000E+00 0.  1.
         21    1    1    2  504  501 -0.20226896501E+02 -0.14779813990E+01  0.36213652544E+03  0.36270397686E+03  0.00000000000E+00 0.  1.
</event>
<event>
 4    1  0.1571930E+006  0.2314079E+02  0.7546771E-02  0.1490738E+00
         21   -1    0    0  503  501  0.00000000000E+00  0.00000000000E+00  0.11179076295E+02  0.11179076295E+02  0.00000000000E+00 0. -1.
         21   -1    0    0  504  502 -0.00000000000E+00 -0.00000000000E+00 -0.49584790372E+02  0.49584790372E+02  0.00000000000E+00 0. -1.
         21    1    1    2  503  502 -0.12795887518E+02  0.19281111441E+02 -0.24800480627E+02  0.33919903229E+02  0.00000000000E+00 0. -1.
         21    1    1    2  504  501  0.12795887518E+02 -0.19281111441E+02 -0.13605233450E+02  0.26843963437E+02  0.00000000000E+00 0. -1.
</event>
<event>
 4    1  0.1571930E+006  0.2244759E+02  0.7546771E-02  0.1499554E+00
         21   -1    0    0  502  501  0.00000000000E+00  0.00000000000E+00  0.55535490032E+03  0.55535490032E+03  0.00000000000E+00 0. -1.
         21   -1    0    0  504  502 -0.00000000000E+00 -0.00000000000E+00 -0.17252454309E+01  0.17252454309E+01  0.00000000000E+00 0. -1.
         21    1    1    2  503  501  0.60562166555E+01  0.21615191353E+02  0.46859976030E+03  0.46913711174E+03  0.00000000000E+00 0. -1.
         21    1    1    2  504  503 -0.60562166555E+01 -0.21615191353E+02  0.85029894592E+02  0.87943034015E+02  0.00000000000E+00 0. -1.
</event>
<event>
 4    1  0.1571930E+006  0.3034991E+02  0.7546771E-02  0.1416580E+00
         21   -1    0    0  504  501  0.00000000000E+00  0.00000000000E+00  0.82143645643E+01  0.82143645643E+01  0.00000000000E+00 0. -1.
         21   -1    0    0  503  502 -0.00000000000E+00 -0.00000000000E+00 -0.17226127717E+03  0.17226127717E+03  0.00000000000E+00 0. -1.
         21    1    1    2  503  501 -0.23373268894E+02 -0.19359939953E+02 -0.13533573861E+03  0.13869707683E+03  0.00000000000E+00 0. -1.
         21    1    1    2  504  502  0.23373268894E+02  0.19359939953E+02 -0.28711173988E+02  0.41778564906E+02  0.00000000000E+00 0. -1.
</event>
<event>
 4    1  0.1571930E+006  0.4119990E+02  0.7546771E-02  0.1341594E+00
         21   -1    0    0  502  501  0.00000000000E+00  0.00000000000E+00  0.26943905938E+01  0.26943905938E+01  0.00000000000E+00 0.  1.
         21   -1    0    0  504  502 -0.00000000000E+00 -0.00000000000E+00 -0.22132223955E+04  0.22132223955E+04  0.00000000000E+00 0.  1.
         21    1    1    2  503  501 -0.41199251999E+02 -0.23115159015E+00 -0.16816898059E+03  0.17314224738E+03  0.00000000000E+00 0.  1.
         21    1    1    2  504  503  0.41199251999E+02  0.23115159015E+00 -0.20423590243E+04  0.20427745387E+04  0.00000000000E+00 0.  1.
</event>
<event>
 4    1  0.1571930E+006  0.2197575E+02  0.7546771E-02  0.1505776E+00
         21   -1    0    0  503  501  0.00000000000E+00  0.00000000000E+00  0.14703686685E+02  0.14703686685E+02  0.00000000000E+00 0.  1.
         21   -1    0    0  501  502 -0.00000000000E+00 -0.00000000000E+00 -0.14940645158E+03  0.14940645158E+03  0.00000000000E+00 0. -1.
         21    1    1    2  503  504 -0.63848999855E+01 -0.21027755709E+02  0.51254777093E+01  0.22565548514E+02  0.00000000000E+00 0.  1.
         21    1    1    2  504  502  0.63848999855E+01  0.21027755709E+02 -0.13982824260E+03  0.14154458975E+03  0.00000000000E+00 0. -1.
</event>
<event>
 4    1  0.1571930E+006  0.2008417E+02  0.7546771E-02  0.1532753E+00
         21   -1    0    0  503  501  0.00000000000E+00  0.00000000000E+00  0.25009304808E+01  0.25009304808E+01  0.00000000000E+00 0. -1.
         21   -1    0    0  501  502 -0.00000000000E+00 -0.00000000000E+00 -0.16584468615E+03  0.16584468615E+03  0.00000000000E+00 0. -1.
         21    1    1    2  503  504  0.17247902644E+02  0.10289986732E+02 -0.67721970483E+02  0.70637378622E+02  0.00000000000E+00 0. -1.
         21    1    1    2  504  502 -0.17247902644E+02 -0.10289986732E+02 -0.95621785190E+02  0.97708238012E+02  0.00000000000E+00 0. -1.
</event>
<event>
 4    1  0.1571930E+006  0.2213549E+02  0.7546771E-02  0.1503649E+00
         21   -1    0    0  504  501  0.00000000000E+00  0.00000000000E+00  0.20968693859E+02  0.20968693859E+02  0.00000000000E+00 0.  1.
         21   -1    0    0  503  502 -0.00000000000E+00 -0.00000000000E+00 -0.56021038881E+03  0.56021038881E+03  0.00000000000E+00 0.  1.
         21    1    1    2  503  501  0.22027422667E+02 -0.21846277495E+01  0.14843680397E+02  0.26651731566E+02  0.00000000000E+00 0.  1.
         21    1    1    2  504  502 -0.22027422667E+02  0.21846277495E+01 -0.55408537535E+03  0.55452735110E+03  0.00000000000E+00 0.  1.
</event>
<event>
 4    1  0.1571930E+006  0.2143404E+02  0.7546771E-02  0.1513157E+00
         21   -1    0    0  504  501  0.00000000000E+00  0.00000000000E+00  0.68660980069E+01  0.68660980069E+01  0.00000000000E+00 0. -1.
         21   -1    0    0  503  502 -0.00000000000E+00 -0.00000000000E+00 -0.35518047465E+03  0.35518047465E+03  0.00000000000E+00 0.  1.
         21    1    1    2  503  501 -0.60220789592E+01  0.20570674526E+02 -0.11074010472E+02  0.24125749592E+02  0.00000000000E+00 0. -1.
         21    1    1    2  504  502  0.60220789592E+01 -0.20570674526E+02 -0.33724036617E+03  0.33792082306E+03  0.00000000000E+00 0.  1.
</event>
<event>
 4    1  0.1571930E+006  0.2065376E+02  0.7546771E-02  0.1524266E+00
         21   -1    0    0  504  501  0.00000000000E+00  0.00000000000E+00  0.25775759652E+01  0.25775759652E+01  0.00000000000E+00 0.  1.
         21   -1    0    0  503  502 -0.00000000000E+00 -0.00000000000E+00 -0.26850934750E+03  0.26850934750E+03  0.00000000000E+00 0.  1.
         21    1    1    2  503  501 -0.67714795106E+01  0.19512172773E+02 -0.49010959680E+02  0.53185072998E+02  0.00000000000E+00 0.  1.
         21    1    1    2  504  502  0.67714795106E+01 -0.19512172773E+02 -0.21692081186E+03  0.21790185047E+03  0.00000000000E+00 0.  1.
</event>
<event>
 4    1  0.1571930E+006  0.2244023E+02  0.7546771E-02  0.1499649E+00
         21   -1    0    0  504  501  0.00000000000E+00  0.00000000000E+00  0.81121230822E+03  0.81121230822E+03  0.00000000000E+00 0.  1.
         21   -1    0    0  501  502 -0.00000000000E+00 -0.00000000000E+00 -0.78989032799E+01  0.78989032799E+01  0.00000000000E+00 0.  1.
         21    1    1    2  503  502  0.21451248359E+02 -0.65884670625E+01  0.85233122601E+01  0.24004391395E+02  0.00000000000E+00 0.  1.
         21    1    1    2  504  503 -0.21451248359E+02  0.65884670625E+01  0.79479009268E+03  0.79510682010E+03  0.00000000000E+00 0.  1.
</event>
<event>
 4    1  0.1571930E+006  0.2565411E+02  0.7546771E-02  0.1461617E+00
         21   -1    0    0  503  501  0.00000000000E+00  0.00000000000E+00  0.39969025496E+02  0.39969025496E+02  0.00000000000E+00 0.  1.
         21   -1    0    0  501  502 -0.00000000000E+00 -0.00000000000E+00 -0.18688649223E+03  0.18688649223E+03  0.00000000000E+00 0. -1.
         21    1    1    2  503  504  0.23618994248E+02 -0.10013807886E+02  0.34856913723E+02  0.43279760535E+02  0.00000000000E+00 0.  1.
         21    1    1    2  504  502 -0.23618994248E+02  0.10013807886E+02 -0.18177438045E+03  0.18357575719E+03  0.00000000000E+00 0. -1.
</event>
<event>
 4    1  0.1571930E+006  0.2261085E+02  0.7546771E-02  0.1497443E+00
         21   -1    0    0  503  501  0.00000000000E+00  0.00000000000E+00  0.14204633911E+03  0.14204633911E+03  0.00000000000E+00 0. -1.
         21   -1    0    0  504  502 -0.00000000000E+00 -0.00000000000E+00 -0.36019206198E+01  0.36019206198E+01  0.00000000000E+00 0. -1.
         21    1    1    2  503  502  0.16785116840E+02  0.15149595563E+02  0.67213557829E+02  0.70914827428E+02  0.00000000000E+00 0. -1.
         21    1    1    2  504  501 -0.16785116840E+02 -0.15149595563E+02  0.71230860657E+02  0.74733432297E+02  0.00000000000E+00 0. -1.
</event>
<event>
 4    1  0.1571930E+006  0.2423229E+02  0.7546771E-02  0.1477578E+00
         21   -1    0    0  504  501  0.00000000000E+00  0.00000000000E+00  0.49389576559E+03  0.49389576559E+03  0.00000000000E+00 0.  1.
         21   -1    0    0  503  502 -0.00000000000E+00 -0.00000000000E+00 -0.41093400458E+01  0.41093400458E+01  0.00000000000E+00 0. -1.
         21    1    1    2  503  501 -0.49649354561E+01  0.23718204071E+02  0.34979778526E+02  0.42553362901E+02  0.00000000000E+00 0. -1.
         21    1    1    2  504  502  0.49649354561E+01 -0.23718204071E+02  0.45480664702E+03  0.45545174274E+03  0.00000000000E+00 0.  1.
</event>
<event>
 4    1  0.1571930E+006  0.2317384E+02  0.7546771E-02  0.1490327E+00
         21   -1    0    0  502  501  0.00000000000E+00  0.00000000000E+00  0.34081802865E+01  0.34081802865E+01  0.00000000000E+00 0. -1.
         21   -1    0    0  503  502 -0.00000000000E+00 -0.00000000000E+00 -0.16408146089E+03  0.16408146089E+03  0.00000000000E+00 0. -1.
         21    1    1    2  503  504  0.23169311974E+02 -0.45831263592E+00 -0.97019344087E+02  0.99748584927E+02  0.00000000000E+00 0. -1.
         21    1    1    2  504  501 -0.23169311974E+02  0.45831263592E+00 -0.63653936520E+02  0.67741056254E+02  0.00000000000E+00 0. -1.
</event>
<event>
 4    1  0.1571930E+006  0.2130964E+02  0.7546771E-02  0.1514890E+00
         21   -1    0    0  503  501  0.00000000000E+00  0.00000000000E+00  0.12101898705E+03  0.12101898705E+03  0.00000000000E+00 0. -1.
         21   -1    0    0  501  502 -0.00000000000E+00 -0.00000000000E+00 -0.12784781061E+02  0.12784781061E+02  0.00000000000E+00 0.  1.
         21    1    1    2  503  504  0.19230010139E+02  0.91819018540E+01  0.11035059052E+03  0.11238929415E+03  0.00000000000E+00 0. -1.
         21    1    1    2  504  502 -0.19230010139E+02 -0.91819018540E+01 -0.21163845282E+01  0.21414473962E+02  0.00000000000E+00 0.  1.
</event>
<event>
 4    1  0.1571930E+006  0.7062734E+02  0.7546771E-02  0.1227456E+00
         21   -1    0    0  504  501  0.00000000000E+00  0.00000000000E+00  0.26830844178E+03  0.26830844178E+03  0.00000000000E+00 0. -1.
         21   -1    0    0  503  502 -0.00000000000E+00 -0.00000000000E+00 -0.13500010425E+03  0.13500010425E+03  0.00000000000E+00 0. -1.
         21    1    1    2  503  501 -0.54554902629E+02 -0.44855137267E+02  0.25390905803E+03  0.26354891479E+03  0.00000000000E+00 0. -1.
         21    1    1    2  504  502  0.54554902629E+02  0.44855137267E+02 -0.12060072049E+03  0.13975963124E+03  0.00000000000E+00 0. -1.
</event>
<event>
 4    1  0.1571930E+006  0.2133208E+02  0.7546771E-02  0.1514576E+00
         21   -1    0    0  503  501  0.00000000000E+00  0.00000000000E+00  0.12763876428E+01  0.12763876428E+01  0.00000000000E+00 0. -1.
         21   -1    0    0  504  502 -0.00000000000E+00 -0.00000000000E+00 -0.52061346365E+03  0.52061346365E+03  0.00000000000E+00 0. -1.
         21    1    1    2  503  502  0.13809816877E+02 -0.16258741543E+02 -0.40616826088E+03  0.40672805886E+03  0.00000000000E+00 0. -1.
         21    1    1    2  504  501 -0.13809816877E+02  0.16258741543E+02 -0.11316881513E+03  0.11516179243E+03  0.00000000000E+00 0. -1.
</event>
<event>
 4    1  0.1571930E+006  0.3088447E+02  0.7546771E-02  0.1412063E+00
         21   -1    0    0  503  501  0.00000000000E+00  0.00000000000E+00  0.40925651448E+02  0.40925651448E+02  0.00000000000E+00 0. -1.
         21   -1    0    0  501  502 -0.00000000000E+00 -0.00000000000E+00 -0.32016553030E+02  0.32016553030E+02  0.00000000000E+00 0. -1.
         21    1    1    2  503  504 -0.30274024250E+02  0.61101333423E+01  0.23476799982E+02  0.38794463666E+02  0.00000000000E+00 0. -1.
         21    1    1    2  504  502  0.30274024250E+02 -0.61101333423E+01 -0.14567701563E+02  0.34147740812E+02  0.00000000000E+00 0. -1.
</event>
<event>
 4    1  0.1571930E+006  0.2043456E+02  0.7546771E-02  0.1527493E+00
         21   -1    0    0  504  501  0.00000000000E+00  0.00000000000E+00  0.60861955909E+03  0.60861955909E+03  0.00000000000E+00 0.  1.
         21   -1    0    0  503  502 -0.00000000000E+00 -0.00000000000E+00 -0.92963062339E+00  0.92963062339E+00  0.00000000000E+00 0. -1.
         21    1    1    2  503  501 -0.19698789268E+02 -0.54340654899E+01  0.14785235447E+03  0.14925779742E+03  0.00000000000E+00 0. -1.
         21    1    1    2  504  502  0.19698789268E+02  0.54340654899E+01  0.45983757399E+03  0.46029139229E+03  0.00000000000E+00 0.  1.
</event>
<event>
 4    1  0.1571930E+006  0.2534875E+02  0.7546771E-02  0.1464940E+00
         21   -1    0    0  504  501  0.00000000000E+00  0.00000000000E+00  0.92440721449E+00  0.92440721449E+00  0.00000000000E+00 0.  1.
         21   -1    0    0  503  502 -0.00000000000E+00 -0.00000000000E+00 -0.75955658114E+03  0.75955658114E+03  0.00000000000E+00 0. -1.
         21    1    1    2  503  501 -0.14947331440E+02 -0.20472817870E+02 -0.49008019486E+03  0.49073532212E+03  0.00000000000E+00 0. -1.
         21    1    1    2  504  502  0.14947331440E+02  0.20472817870E+02 -0.26855197906E+03  0.26974566623E+03  0.00000000000E+00 0.  1.
</event>
<event>
 4    1  0.1571930E+006  0.2390167E+02  0.7546771E-02  0.1481476E+00
         21   -1    0    0  504  501  0.00000000000E+00  0.00000000000E+00  0.87622294725E+02  0.87622294725E+02  0.00000000000E+00 0.  1.
         21   -1    0    0  503  502 -0.00000000000E+00 -0.00000000000E+00 -0.65235914508E+01  0.65235914508E+01  0.00000000000E+00 0.  1.
         21    1    1    2  503  501 -0.90335386392E+01  0.22128830039E+02  0.39431909261E+02  0.46110361170E+02  0.00000000000E+00 0.  1.
         21    1    1    2  504  502  0.90335386392E+01 -0.22128830039E+02  0.41666794013E+02  0.48035525006E+02  0.00000000000E+00 0.  1.
</event>
<event>
 4    1  0.1571930E+006  0.2221174E+02  0.7546771E-02  0.1502641E+00
         21   -1    0    0  502  501  0.00000000000E+00  0.00000000000E+00  0.16427803220E+01  0.16427803220E+01  0.00000000000E+00 0. -1.
         21   -1    0    0  504  502 -0.00000000000E+00 -0.00000000000E+00 -0.55106787472E+03  0.55106787472E+03  0.00000000000E+00 0. -1.
         21    1    1    2  503  501  0.14319155908E+02 -0.16980075802E+02 -0.88296549605E+02  0.91047470434E+02  0.00000000000E+00 0. -1.
         21    1    1    2  504  503 -0.14319155908E+02  0.16980075802E+02 -0.46112854479E+03  0.46166318461E+03  0.00000000000E+00 0. -1.
</event>
<event>
 4    1  0.1571930E+006  0.2589302E+02  0.7546771E-02  0.1459056E+00
         21   -1    0    0  502  501  0.00000000000E+00  0.00000000000E+00  0.99414919325E+01  0.99414919325E+01  0.00000000000E+00 0.  1.
         21   -1    0    0  503  502 -0.00000000000E+00 -0.00000000000E+00 -0.15027103146E+03  0.15027103146E+03  0.00000000000E+00 0. -1.
         21    1    1    2  503  504  0.79831870411E+01 -0.24631633409E+02 -0.12963872704E+03  0.13219927454E+03  0.00000000000E+00 0. -1.
         21    1    1    2  504  501 -0.79831870411E+01  0.24631633409E+02 -0.10690812486E+02  0.28013248853E+02  0.00000000000E+00 0.  1.
</event>
<event>
 4    1  0.1571930E+006  0.2102015E+02  0.7546771E-02  0.1518977E+00
         21   -1    0    0  502  501  0.00000000000E+00  0.00000000000E+00  0.40431484150E+01  0.40431484150E+01  0.00000000000E+00 0.  1.
         21   -1    0    0  503  502 -0.00000000000E+00 -0.00000000000E+00 -0.53931226641E+03  0.53931226641E+03  0.00000000000E+00 0.  1.
         21    1    1    2  503  504 -0.17635353941E+02 -0.11438569983E+02 -0.51023018189E+03  0.51066298583E+03  0.00000000000E+00 0.  1.
         21    1    1    2  504  501  0.17635353941E+02  0.11438569983E+02 -0.25038936104E+02  0.32692428987E+02  0.00000000000E+00 0.  1.
</event>
<event>
 4    1  0.1571930E+006  0.2068968E+02  0.7546771E-02  0.1523742E+00
         21   -1    0    0  503  501  0.00000000000E+00  0.00000000000E+00  0.60978759936E+00  0.60978759936E+00  0.00000000000E+00 0. -1.
         21   -1    0    0  504  502 -0.00000000000E+00 -0.00000000000E+00 -0.79515426419E+03  0.79515426419E+03  0.00000000000E+00 0. -1.
         21    1    1    2  503  502 -0.64365993173E+01 -0.19662981777E+02 -0.26107714570E+03  0.26189566371E+03  0.00000000000E+00 0. -1.
         21    1    1    2  504  501  0.64365993173E+01  0.19662981777E+02 -0.53346733089E+03  0.53386838808E+03  0.00000000000E+00 0. -1.
</event>
<event>
 4    1  0.1571930E+006  0.2898874E+02  0.7546771E-02  0.1428592E+00
         21   -1    0    0  504  501  0.00000000000E+00  0.00000000000E+00  0.79631088547E+02  0.79631088547E+02  0.00000000000E+00 0. -1.
         21   -1    0    0  503  502 -0.00000000000E+00 -0.00000000000E+00 -0.13838600550E+03  0.13838600550E+03  0.00000000000E+00 0. -1.
         21    1    1    2  503  501 -0.22763820737E+02  0.17948695153E+02 -0.13414722047E+03  0.13724366635E+03  0.00000000000E+00 0. -1.
         21    1    1    2  504  502  0.22763820737E+02 -0.17948695153E+02  0.75392303519E+02  0.80773427698E+02  0.00000000000E+00 0. -1.
</event>
<event>
 4    1  0.1571930E+006  0.2023078E+02  0.7546771E-02  0.1530537E+00
         21   -1    0    0  504  501  0.00000000000E+00  0.00000000000E+00  0.19217924306E+01  0.19217924306E+01  0.00000000000E+00 0.  1.
         21   -1    0    0  503  502 -0.00000000000E+00 -0.00000000000E+00 -0.21315026730E+03  0.21315026730E+03  0.00000000000E+00 0.  1.
         21    1    1    2  503  501  0.18224161277E+02  0.87843341088E+01 -0.10873952359E+03  0.11060546357E+03  0.00000000000E+00 0.  1.
         21    1    1    2  504  502 -0.18224161277E+02 -0.87843341088E+01 -0.10248895128E+03  0.10446659616E+03  0.00000000000E+00 0.  1.
</event>
<event>
 4    1  0.1571930E+006  0.2135455E+02  0.7546771E-02  0.1514263E+00
         21   -1    0    0  504  501  0.00000000000E+00  0.00000000000E+00  0.47898873161E+01  0.47898873161E+01  0.00000000000E+00 0.  1.
         21   -1    0    0  501  502 -0.00000000000E+00 -0.00000000000E+00 -0.12570743442E+03  0.12570743442E+03  0.00000000000E+00 0.  1.
         21    1    1    2  503  502  0.92305581962E+01  0.19256522374E+02 -0.92600178563E+02  0.95030573651E+02  0.00000000000E+00 0.  1.
         21    1    1    2  504  503 -0.92305581962E+01 -0.19256522374E+02 -0.28317368536E+02  0.35466748080E+02  0.00000000000E+00 0.  1.
</event>
<event>
 4    1  0.1571930E+006  0.2623959E+02  0.7546771E-02  0.1455400E+00
         21   -1    0    0  503  501  0.00000000000E+00  0.00000000000E+00  0.11421975111E+03  0.11421975111E+03  0.00000000000E+00 0.  1.
         21   -1    0    0  504  502 -0.00000000000E+00 -0.00000000000E+00 -0.12275587868E+02  0.12275587868E+02  0.00000000000E+00 0.  1.
         21    1    1    2  503  502  0.19323723753E+02  0.17751338258E+02  0.58509824357E+01  0.26884015792E+02  0.00000000000E+00 0.  1.
         21    1    1    2  504  501 -0.19323723753E+02 -0.17751338258E+02  0.96093180805E+02  0.99611323186E+02  0.00000000000E+00 0.  1.
</event>
<event>
 4    1  0.1571930E+006  0.2685136E+02  0.7546771E-02  0.1449107E+00
         21   -1    0    0  503  501  0.00000000000E+00  0.00000000000E+00  0.16459540075E+03  0.16459540075E+03  0.00000000000E+00 0. -1.
         21   -1    0    0  501  502 -0.00000000000E+00 -0.00000000000E+00 -0.43814252545E+01  0.43814252545E+01  0.00000000000E+00 0.  1.
         21    1    1    2  503  504 -0.15566042129E+02 -0.21879079519E+02  0.81391366101E+02  0.85706185680E+02  0.00000000000E+00 0.  1.
         21    1    1    2  504  502  0.15566042129E+02  0.21879079519E+02  0.78822609391E+02  0.83270640320E+02  0.00000000000E+00 0. -1.
</event>
<event>
 4    1  0.1571930E+006  0.2072987E+02  0.7546771E-02  0.1523157E+00
         21   -1    0    0  503  501  0.00000000000E+00  0.00000000000E+00  0.10098294716E+02  0.10098294716E+02  0.00000000000E+00 0. -1.
         21   -1    0    0  504  502 -0.00000000000E+00 -0.00000000000E+00 -0.54249486412E+02  0.54249486412E+02  0.00000000000E+00 0. -1.
         21    1    1    2  503  502 -0.20100729291E+02 -0.50683663288E+01 -0.37014063237E+02  0.42423678914E+02  0.00000000000E+00 0. -1.
         21    1    1    2  504  501  0.20100729291E+02  0.50683663288E+01 -0.71371284585E+01  0.21924102214E+02  0.00000000000E+00 0. -1.
</event>
<event>
 4    1  0.1571930E+006  0.2375107E+02  0.7546771E-02  0.1483276E+00
         21   -1    0    0  503  501  0.00000000000E+00  0.00000000000E+00  0.16427364716E+01  0.16427364716E+01  0.00000000000E+00 0. -1.
         21   -1    0    0  501  502 -0.00000000000E+00 -0.00000000000E+00 -0.89665374700E+03  0.89665374700E+03  0.00000000000E+00 0. -1.
         21    1    1    2  503  504 -0.91461028959E+01 -0.21919451137E+02 -0.94696208941E+02  0.97629327172E+02  0.00000000000E+00 0. -1.
         21    1    1    2  504  502  0.91461028959E+01  0.21919451137E+02 -0.80031480159E+03  0.80066715630E+03  0.00000000000E+00 0. -1.
</event>
<event>
 4    1  0.1571930E+006  0.2101389E+02  0.7546771E-02  0.1519067E+00
         21   -1    0    0  503  501  0.00000000000E+00  0.00000000000E+00  0.81100299288E+03  0.81100299288E+03  0.00000000000E+00 0.  1.
         21   -1    0    0  504  502 -0.00000000000E+00 -0.00000000000E+00 -0.29258279155E+01  0.29258279155E+01  0.00000000000E+00 0.  1.
         21    1    1    2  503  502 -0.20930692649E+02 -0.18680609619E+01  0.77118770602E+03  0.77147395385E+03  0.00000000000E+00 0.  1.
         21    1    1    2  504  501  0.20930692649E+02  0.18680609619E+01  0.36889458949E+02  0.42454866954E+02  0.00000000000E+00 0.  1.
</event>
<event>
 4    1  0.1571930E+006  0.2046154E+02  0.7546771E-02  0.1527093E+00
         21   -1    0    0  504  501  0.00000000000E+00  0.00000000000E+00  0.69239256938E+00  0.69239256938E+00  0.00000000000E+00 0. -1.
         21   -1    0    0  503  502 -0.00000000000E+00 -0.00000000000E+00 -0.64894248010E+03  0.64894248010E+03  0.00000000000E+00 0. -1.
         21    1    1    2  503  501  0.17122358576E+02  0.11202651445E+02 -0.40895785432E+03  0.40946941421E+03  0.00000000000E+00 0. -1.
         21    1    1    2  504  502 -0.17122358576E+02 -0.11202651445E+02 -0.23929223320E+03  0.24016545845E+03  0.00000000000E+00 0. -1.
</event>
<event>
 4    1  0.1571930E+006  0.2367729E+02  0.7546771E-02  0.1484164E+00
         21   -1    0    0  503  501  0.00000000000E+00  0.00000000000E+00  0.20166895836E+02  0.20166895836E+02  0.00000000000E+00 0. -1.
         21   -1    0    0  504  502 -0.00000000000E+00 -0.00000000000E+00 -0.27798877845E+02  0.27798877845E+02  0.00000000000E+00 0. -1.
         21    1    1    2  503  502  0.23674740175E+02  0.34721485244E+00 -0.37587520088E+01  0.23973779367E+02  0.00000000000E+00 0. -1.
         21    1    1    2  504  501 -0.23674740175E+02 -0.34721485244E+00 -0.38732300003E+01  0.23991994313E+02  0.00000000000E+00 0. -1.
</event>
<event>
 4    1  0.1571930E+006  0.2044734E+02  0.7546771E-02  0.1527304E+00
         21   -1    0    0  504  501  0.00000000000E+00  0.00000000000E+00  0.12895588068E+02  0.12895588068E+02  0.00000000000E+00 0. -1.
         21   -1    0    0  503  502 -0.00000000000E+00 -0.00000000000E+00 -0.32726845452E+02  0.32726845452E+02  0.00000000000E+00 0. -1.
         21    1    1    2  503  501  0.57867654174E+01 -0.19611402708E+02 -0.77120843563E+01  0.21853375375E+02  0.00000000000E+00 0. -1.
         21    1    1    2  504  502 -0.57867654174E+01  0.19611402708E+02 -0.12119173028E+02  0.23769058144E+02  0.00000000000E+00 0. -1.
</event>
<event>
 4    1  0.1571930E+006  0.2292342E+02  0.7546771E-02  0.1493462E+00
         21   -1    0    0  502  501  0.00000000000E+00  0.00000000000E+00  0.18022378946E+02  0.18022378946E+02  0.00000000000E+00 0. -1.
         21   -1    0    0  504  502 -0.00000000000E+00 -0.00000000000E+00 -0.34811402590E+02  0.34811402590E+02  0.00000000000E+00 0.  1.
         21    1    1    2  503  501 -0.16795186180E+02  0.15601437550E+02  0.22519288371E+01  0.23033764693E+02  0.00000000000E+00 0. -1.
         21    1    1    2  504  503  0.16795186180E+02 -0.15601437550E+02 -0.19040952481E+02  0.29800016843E+02  0.00000000000E+00 0.  1.
</event>
<event>
 4    1  0.1571930E+006  0.2167202E+02  0.7546771E-02  0.1509883E+00
         21   -1    0    0  504  501  0.00000000000E+00  0.00000000000E+00  0.36262747337E+01  0.36262747337E+01  0.00000000000E+00 0. -1.
         21   -1    0    0  503  502 -0.00000000000E+00 -0.00000000000E+00 -0.19495748378E+03  0.19495748378E+03  0.00000000000E+00 0.  1.
         21    1    1    2  503  501  0.45655895366E+01 -0.21185648784E+02 -0.15319051553E+03  0.15471590213E+03  0.00000000000E+00 0.  1.
         21    1    1    2  504  502 -0.45655895366E+01  0.21185648784E+02 -0.38140693519E+02  0.43867856390E+02  0.00000000000E+00 0. -1.
</event>
<event>
 4    1  0.1571930E+006  0.2101616E+02  0.7546771E-02  0.1519034E+00
         21   -1    0    0  504  501  0.00000000000E+00  0.00000000000E+00  0.14658488264E+02  0.14658488264E+02  0.00000000000E+00 0. -1.
         21   -1    0    0  503  502 -0.00000000000E+00 -0.00000000000E+00 -0.31274237735E+02  0.31274237735E+02  0.00000000000E+00 0.  1.
         21    1    1    2  503  501  0.11610930326E+02 -0.17517564645E+02 -0.12698405819E+02  0.24554598031E+02  0.00000000000E+00 0.  1.
         21    1    1    2  504  502 -0.11610930326E+02  0.17517564645E+02 -0.39173436526E+01  0.21378127968E+02  0.00000000000E+00 0. -1.
</event>
<event>
 4    1  0.1571930E+006  0.3074520E+02  0.7546771E-02  0.1413229E+00
         21   -1    0    0  504  501  0.00000000000E+00  0.00000000000E+00  0.33404381661E+03  0.33404381661E+03  0.00000000000E+00 0.  1.
         21   -1    0    0  501  502 -0.00000000000E+00 -0.00000000000E+00 -0.25588167946E+02  0.25588167946E+02  0.00000000000E+00 0.  1.
         21    1    1    2  503  502 -0.22282160328E+02 -0.21184258918E+02 -0.15354097205E+02  0.34365910373E+02  0.00000000000E+00 0.  1.
         21    1    1    2  504  503  0.22282160328E+02  0.21184258918E+02  0.32380974586E+03  0.32526607418E+03  0.00000000000E+00 0.  1.
</event>
<event>
 4    1  0.1571930E+006  0.3465245E+02  0.7546771E-02  0.1383023E+00
         21   -1    0    0  503  501  0.00000000000E+00  0.00000000000E+00  0.12444905386E+03  0.12444905386E+03  0.00000000000E+00 0.  1.
         21   -1    0    0  501  502 -0.00000000000E+00 -0.00000000000E+00 -0.99889586416E+01  0.99889586416E+01  0.00000000000E+00 0.  1.
         21    1    1    2  503  504 -0.19406947773E+02 -0.28708236463E+02  0.44826969509E+02  0.56659065101E+02  0.00000000000E+00 0.  1.
         21    1    1    2  504  502  0.19406947773E+02  0.28708236463E+02  0.69633125704E+02  0.77778947396E+02  0.00000000000E+00 0.  1.
</event>
<event>
 4    1  0.1571930E+006  0.2069208E+02  0.7546771E-02  0.1523707E+00
         21   -1    0    0  504  501  0.00000000000E+00  0.00000000000E+00  0.60909183480E+02  0.60909183480E+02  0.00000000000E+00 0. -1.
         21   -1    0    0  503  502 -0.00000000000E+00 -0.00000000000E+00 -0.12135704042E+03  0.12135704042E+03  0.00000000000E+00 0. -1.
         21    1    1    2  503  501  0.83855380172E+01 -0.18916794866E+02  0.58230402656E+02  0.61797590320E+02  0.00000000000E+00 0. -1.
         21    1    1    2  504  502 -0.83855380172E+01  0.18916794866E+02 -0.11867825959E+03  0.12046863358E+03  0.00000000000E+00 0. -1.
</event>
<event>
 4    1  0.1571930E+006  0.2758043E+02  0.7546771E-02  0.1441863E+00
         21   -1    0    0  503  501  0.00000000000E+00  0.00000000000E+00  0.12393074811E+02  0.12393074811E+02  0.00000000000E+00 0.  1.
         21   -1    0    0  504  502 -0.00000000000E+00 -0.00000000000E+00 -0.61737398795E+02  0.61737398795E+02  0.00000000000E+00 0.  1.
         21    1    1    2  503  502  0.27526515569E+02  0.17237330897E+01 -0.21849926125E+02  0.35186639322E+02  0.00000000000E+00 0.  1.
         21    1    1    2  504  501 -0.27526515569E+02 -0.17237330897E+01 -0.27494397859E+02  0.38943834284E+02  0.00000000000E+00 0.  1.
</event>
<event>
 4    1  0.1571930E+006  0.2027926E+02  0.7546771E-02  0.1529809E+00
         21   -1    0    0  504  501  0.00000000000E+00  0.00000000000E+00  0.85021825581E+01  0.85021825581E+01  0.00000000000E+00 0.  1.
         21   -1    0    0  503  502 -0.00000000000E+00 -0.00000000000E+00 -0.11477903546E+03  0.11477903546E+03  0.00000000000E+00 0.  1.
         21    1    1    2  503  501  0.19927277126E+02  0.37618932611E+01 -0.62516767238E+01  0.21221019684E+02  0.00000000000E+00 0.  1.
         21    1    1    2  504  502 -0.19927277126E+02 -0.37618932611E+01 -0.10002517618E+03  0.10206019834E+03  0.00000000000E+00 0.  1.
</event>
<event>
 4    1  0.1571930E+006  0.2693900E+02  0.7546771E-02  0.1448222E+00
         21   -1    0    0  503  501  0.00000000000E+00  0.00000000000E+00  0.54342218742E+02  0.54342218742E+02  0.00000000000E+00 0.  1.
         21   -1    0    0  504  502 -0.00000000000E+00 -0.00000000000E+00 -0.49487344783E+02  0.49487344783E+02  0.00000000000E+00 0. -1.
         21    1    1    2  503  502  0.21618943573E+02  0.16072672500E+02  0.46787835227E+02  0.53988990060E+02  0.00000000000E+00 0.  1.
         21    1    1    2  504  501 -0.21618943573E+02 -0.16072672500E+02 -0.41932961269E+02  0.49840573465E+02  0.00000000000E+00 0. -1.
</event>
<event>
 4    1  0.1571930E+006  0.2134056E+02  0.7546771E-02  0.1514458E+00
         21   -1    0    0  503  501  0.00000000000E+00  0.00000000000E+00  0.22375989808E+02  0.22375989808E+02  0.00000000000E+00 0. -1.
         21   -1    0    0  501  502 -0.00000000000E+00 -0.00000000000E+00 -0.18715913695E+03  0.18715913695E+03  0.00000000000E+00 0. -1.
         21    1    1    2  503  504 -0.44385565138E+01 -0.20873878894E+02  0.16515482591E+02  0.26984824795E+02  0.00000000000E+00 0. -1.
         21    1    1    2  504  502  0.44385565138E+01  0.20873878894E+02 -0.18129862973E+03  0.18255030196E+03  0.00000000000E+00 0. -1.
</event>
<event>
 4    1  0.1571930E+006  0.2378025E+02  0.7546771E-02  0.1482926E+00
         21   -1    0    0  502  501  0.00000000000E+00  0.00000000000E+00  0.53802117259E+01  0.53802117259E+01  0.00000000000E+00 0. -1.
         21   -1    0    0  504  502 -0.00000000000E+00 -0.00000000000E+00 -0.37204114575E+03  0.37204114575E+03  0.00000000000E+00 0. -1.
         21    1    1    2  503  501 -0.78958031751E+01  0.22431150290E+02 -0.23484122663E+02  0.33421613192E+02  0.00000000000E+00 0. -1.
         21    1    1    2  504  503  0.78958031751E+01 -0.22431150290E+02 -0.34317681136E+03  0.34399974428E+03  0.00000000000E+00 0. -1.
</event>
<event>
 4    1  0.1571930E+006  0.2194003E+02  0.7546771E-02  0.1506255E+00
         21   -1    0    0  503  501  0.00000000000E+00  0.00000000000E+00  0.15067157219E+02  0.15067157219E+02  0.00000000000E+00 0.  1.
         21   -1    0    0  501  502 -0.00000000000E+00 -0.00000000000E+00 -0.12890532445E+03  0.12890532445E+03  0.00000000000E+00 0.  1.
         21    1    1    2  503  504 -0.15791395544E+02  0.15231438427E+02  0.55125177427E+01  0.22621952649E+02  0.00000000000E+00 0.  1.
         21    1    1    2  504  502  0.15791395544E+02 -0.15231438427E+02 -0.11935068497E+03  0.12135052902E+03  0.00000000000E+00 0.  1.
</event>
<event>
 4    1  0.1571930E+006  0.3350750E+02  0.7546771E-02  0.1391371E+00
         21   -1    0    0  503  501  0.00000000000E+00  0.00000000000E+00  0.80460923222E+02  0.80460923222E+02  0.00000000000E+00 0. -1.
         21   -1    0    0  504  502 -0.00000000000E+00 -0.00000000000E+00 -0.12982623343E+03  0.12982623343E+03  0.00000000000E+00 0. -1.
         21    1    1    2  503  502  0.26711707391E+02  0.20229609856E+02  0.74649806286E+02  0.81825093982E+02  0.00000000000E+00 0. -1.
         21    1    1    2  504  501 -0.26711707391E+02 -0.20229609856E+02 -0.12401511649E+03  0.12846206267E+03  0.00000000000E+00 0. -1.
</event>
<event>
 4    1  0.1571930E+006  0.3395418E+02  0.7546771E-02  0.1388068E+00
         21   -1    0    0  503  501  0.00000000000E+00  0.00000000000E+00  0.36847833004E+02  0.36847833004E+02  0.00000000000E+00 0.  1.
         21   -1    0    0  504  502 -0.00000000000E+00 -0.00000000000E+00 -0.27156595054E+03  0.27156595054E+03  0.00000000000E+00 0.  1.
         21    1    1    2  503  502  0.18950109667E+02  0.28174094560E+02  0.27692800234E+02  0.43815264982E+02  0.00000000000E+00 0.  1.
         21    1    1    2  504  501 -0.18950109667E+02 -0.28174094560E+02 -0.26241091777E+03  0.26459851856E+03  0.00000000000E+00 0.  1.
</event>
<event>
 4    1  0.1571930E+006  0.2218429E+02  0.7546771E-02  0.1503003E+00
         21   -1    0    0  504  501  0.00000000000E+00  0.00000000000E+00  0.17914004716E+03  0.17914004716E+03  0.00000000000E+00 0.  1.
         21   -1    0    0  501  502 -0.00000000000E+00 -0.00000000000E+00 -0.98134537627E+01  0.98134537627E+01  0.00000000000E+00 0.  1.
         21    1    1    2  503  502  0.16925634138E+02 -0.14341049575E+02  0.44941919276E+01  0.22634941020E+02  0.00000000000E+00 0.  1.
         21    1    1    2  504  503 -0.16925634138E+02  0.14341049575E+02  0.16483240147E+03  0.16631855991E+03  0.00000000000E+00 0.  1.
</event>
<event>
 4    1  0.1571930E+006  0.2238890E+02  0.7546771E-02  0.1500318E+00
         21   -1    0    0  503  501  0.00000000000E+00  0.00000000000E+00  0.25193004625E+02  0.25193004625E+02  0.00000000000E+00 0.  1.
         21   -1    0    0  501  502 -0.00000000000E+00 -0.00000000000E+00 -0.29091557640E+02  0.29091557640E+02  0.00000000000E+00 0.  1.
         21    1    1    2  503  504 -0.21243194134E+02  0.70703165877E+01  0.13309884561E+02  0.26046414354E+02  0.00000000000E+00 0.  1.
         21    1    1    2  504  502  0.21243194134E+02 -0.70703165877E+01 -0.17208437576E+02  0.28238147911E+02  0.00000000000E+00 0.  1.
</event>
<event>
 4    1  0.1571930E+006  0.2062349E+02  0.7546771E-02  0.1524709E+00
         21   -1    0    0  503  501  0.00000000000E+00  0.00000000000E+00  0.14002917344E+03  0.14002917344E+03  0.00000000000E+00 0.  1.
         21   -1    0    0  504  502 -0.00000000000E+00 -0.00000000000E+00 -0.28560896328E+02  0.28560896328E+02  0.00000000000E+00 0. -1.
         21    1    1    2  503  502 -0.16475435597E+02 -0.12405182874E+02  0.13542085331E+03  0.13698224721E+03  0.00000000000E+00 0.  1.
         21    1    1    2  504  501  0.16475435597E+02  0.12405182874E+02 -0.23952576197E+02  0.31607822556E+02  0.00000000000E+00 0. -1.
</event>
<event>
 4    1  0.1571930E+006  0.3331899E+02  0.7546771E-02  0.1392783E+00
         21   -1    0    0  503  501  0.00000000000E+00  0.00000000000E+00  0.39404618579E+02  0.39404618579E+02  0.00000000000E+00 0. -1.
         21   -1    0    0  504  502 -0.00000000000E+00 -0.00000000000E+00 -0.36255704809E+02  0.36255704809E+02  0.00000000000E+00 0. -1.
         21    1    1    2  503  502  0.28402561789E+02 -0.17419799926E+02 -0.16287231114E+02  0.37086774503E+02  0.00000000000E+00 0. -1.
         21    1    1    2  504  501 -0.28402561789E+02  0.17419799926E+02  0.19436144885E+02  0.38573548885E+02  0.00000000000E+00 0. -1.
</event>
<event>
 4    1  0.1571930E+006  0.2347533E+02  0.7546771E-02  0.1486614E+00
         21   -1    0    0  504  501  0.00000000000E+00  0.00000000000E+00  0.71342605878E+02  0.71342605878E+02  0.00000000000E+00 0.  1.
         21   -1    0    0  503  502 -0.00000000000E+00 -0.00000000000E+00 -0.50832775149E+03  0.50832775149E+03  0.00000000000E+00 0. -1.
         21    1    1    2  503  501  0.12679745054E+02 -0.19756400806E+02 -0.50611714599E+03  0.50666128407E+03  0.00000000000E+00 0. -1.
         21    1    1    2  504  502 -0.12679745054E+02  0.19756400806E+02  0.69132000380E+02  0.73009073299E+02  0.00000000000E+00 0.  1.
</event>
<event>
 4    1  0.1571930E+006  0.4549003E+02  0.7546771E-02  0.1319007E+00
         21   -1    0    0  502  501  0.00000000000E+00  0.00000000000E+00  0.17847633453E+02  0.17847633453E+02  0.00000000000E+00 0.  1.
         21   -1    0    0  503  502 -0.00000000000E+00 -0.00000000000E+00 -0.53273659934E+03  0.53273659934E+03  0.00000000000E+00 0. -1.
         21    1    1    2  503  504  0.11871481803E+02 -0.43913672910E+02 -0.50094339125E+03  0.50300459639E+03  0.00000000000E+00 0. -1.
         21    1    1    2  504  501 -0.11871481803E+02  0.43913672910E+02 -0.13945574636E+02  0.47579636407E+02  0.00000000000E+00 0.  1.
</event>
<event>
 4    1  0.1571930E+006  0.2151890E+02  0.7546771E-02  0.1511984E+00
         21   -1    0    0  503  501  0.00000000000E+00  0.00000000000E+00  0.44927473734E+02  0.44927473734E+02  0.00000000000E+00 0.  1.
         21   -1    0    0  504  502 -0.00000000000E+00 -0.00000000000E+00 -0.26951069654E+02  0.26951069654E+02  0.00000000000E+00 0.  1.
         21    1    1    2  503  502 -0.17972392252E+01 -0.21443716058E+02 -0.19254895224E+02  0.28875837950E+02  0.00000000000E+00 0.  1.
         21    1    1    2  504  501  0.17972392252E+01  0.21443716058E+02  0.37231299304E+02  0.43002705439E+02  0.00000000000E+00 0.  1.
</event>
<event>
 4    1  0.1571930E+006  0.2596479E+02  0.7546771E-02  0.1458294E+00
         21   -1    0    0  503  501  0.00000000000E+00  0.00000000000E+00  0.31309678407E+01  0.31309678407E+01  0.00000000000E+00 0.  1.
         21   -1    0    0  501  502 -0.00000000000E+00 -0.00000000000E+00 -0.56539448871E+03  0.56539448871E+03  0.00000000000E+00 0.  1.
         21    1    1    2  503  504 -0.13193097310E+02  0.22363191525E+02 -0.57454232642E+02  0.63048862006E+02  0.00000000000E+00 0.  1.
         21    1    1    2  504  502  0.13193097310E+02 -0.22363191525E+02 -0.50480928823E+03  0.50547659455E+03  0.00000000000E+00 0.  1.
</event>
<event>
 4    1  0.1571930E+006  0.2026743E+02  0.7546771E-02  0.1529986E+00
         21   -1    0    0  504  501  0.00000000000E+00  0.00000000000E+00  0.42924197396E+03  0.42924197396E+03  0.00000000000E+00 0.  1.
         21   -1    0    0  503  502 -0.00000000000E+00 -0.00000000000E+00 -0.10430459226E+01  0.10430459226E+01  0.00000000000E+00 0.  1.
         21    1    1    2  503  501  0.17938015057E+02 -0.94337785251E+01  0.15229302017E+03  0.15363571380E+03  0.00000000000E+00 0.  1.
         21    1    1    2  504  502 -0.17938015057E+02  0.94337785251E+01  0.27590590786E+03  0.27664930608E+03  0.00000000000E+00 0.  1.
</event>
<event>
 4    1  0.1571930E+006  0.2498702E+02  0.7546771E-02  0.1468949E+00
         21   -1    0    0  504  501  0.00000000000E+00  0.00000000000E+00  0.64689810234E+02  0.64689810234E+02  0.00000000000E+00 0.  1.
         21   -1    0    0  501  502 -0.00000000000E+00 -0.00000000000E+00 -0.43632875902E+02  0.43632875902E+02  0.00000000000E+00 0.  1.
         21    1    1    2  503  502 -0.19780721553E+02  0.15266774403E+02 -0.37268816740E+02  0.44869990495E+02  0.00000000000E+00 0.  1.
         21    1    1    2  504  503  0.19780721553E+02 -0.15266774403E+02  0.58325751073E+02  0.63452695640E+02  0.00000000000E+00 0.  1.
</event>
<event>
 4    1  0.1571930E+006  0.2193056E+02  0.7546771E-02  0.1506382E+00
         21   -1    0    0  503  501  0.00000000000E+00  0.00000000000E+00  0.86455802609E+01  0.86455802609E+01  0.00000000000E+00 0.  1.
         21   -1    0    0  501  502 -0.00000000000E+00 -0.00000000000E+00 -0.11614500894E+03  0.11614500894E+03  0.00000000000E+00 0. -1.
         21    1    1    2  503  504 -0.20633394250E+02  0.74305209624E+01 -0.87111241987E+01  0.23597315204E+02  0.00000000000E+00 0.  1.
         21    1    1    2  504  502  0.20633394250E+02 -0.74305209624E+01 -0.98788304484E+02  0.10119327400E+03  0.00000000000E+00 0. -1.
</event>
<event>
 4    1  0.1571930E+006  0.3267762E+02  0.7546771E-02  0.1397669E+00
         21   -1    0    0  504  501  0.00000000000E+00  0.00000000000E+00  0.18133229082E+01  0.18133229082E+01  0.00000000000E+00 0. -1.
         21   -1    0    0  503  502 -0.00000000000E+00 -0.00000000000E+00 -0.61101160054E+03  0.61101160054E+03  0.00000000000E+00 0. -1.
         21    1    1    2  503  501 -0.20860318637E+02 -0.25153004384E+02 -0.36291742110E+03  0.36438562137E+03  0.00000000000E+00 0. -1.
         21    1    1    2  504  502  0.20860318637E+02  0.25153004384E+02 -0.24628085653E+03  0.24843930208E+03  0.00000000000E+00 0. -1.
</event>
<event>
 4    1  0.1571930E+006  0.2583471E+02  0.7546771E-02  0.1459678E+00
         21   -1    0    0  503  501  0.00000000000E+00  0.00000000000E+00  0.35109417283E+03  0.35109417283E+03  0.00000000000E+00 0.  1.
         21   -1    0    0  504  502 -0.00000000000E+00 -0.00000000000E+00 -0.53567429063E+02  0.53567429063E+02  0.00000000000E+00 0. -1.
         21    1    1    2  503  502 -0.69803084445E+01 -0.24873832654E+02  0.34747157472E+03  0.34843066383E+03  0.00000000000E+00 0.  1.
         21    1    1    2  504  501  0.69803084445E+01  0.24873832654E+02 -0.49944830953E+02  0.56230938066E+02  0.00000000000E+00 0. -1.
</event>
<event>
 4    1  0.1571930E+006  0.2196967E+02  0.7546771E-02  0.1505858E+00
         21   -1    0    0  503  501  0.00000000000E+00  0.00000000000E+00  0.58453606471E+03  0.58453606471E+03  0.00000000000E+00 0. -1.
         21   -1    0    0  504  502 -0.00000000000E+00 -0.00000000000E+00 -0.58055949838E+01  0.58055949838E+01  0.00000000000E+00 0.  1.
         21    1    1    2  503  502 -0.84124336258E+01  0.20295252002E+02  0.15990073617E+02  0.27172573445E+02  0.00000000000E+00 0.  1.
         21    1    1    2  504  501  0.84124336258E+01 -0.20295252002E+02  0.56274039611E+03  0.56316908625E+03  0.00000000000E+00 0. -1.
</event>
<event>
 4    1  0.1571930E+006  0.3318511E+02  0.7546771E-02  0.1393792E+00
         21   -1    0    0  504  501  0.00000000000E+00  0.00000000000E+00  0.43420406150E+02  0.43420406150E+02  0.00000000000E+00 0.  1.
         21   -1    0    0  503  502 -0.00000000000E+00 -0.00000000000E+00 -0.12052847036E+03  0.12052847036E+03  0.00000000000E+00 0. -1.
         21    1    1    2  503  501  0.52428953762E+01 -0.32768335490E+02  0.34286712553E+02  0.47716144232E+02  0.00000000000E+00 0.  1.
         21    1    1    2  504  502 -0.52428953762E+01  0.32768335490E+02 -0.11139477676E+03  0.11623273227E+03  0.00000000000E+00 0. -1.
</event>
<event>
 4    1  0.1571930E+006  0.2125765E+02  0.7546771E-02  0.1515618E+00
         21   -1    0    0  503  501  0.00000000000E+00  0.00000000000E+00  0.36058482726E+02  0.36058482726E+02  0.00000000000E+00 0. -1.
         21   -1    0    0  504  502 -0.00000000000E+00 -0.00000000000E+00 -0.12635422248E+02  0.12635422248E+02  0.00000000000E+00 0.  1.
         21    1    1    2  503  502 -0.10595770834E+02 -0.18428708993E+02  0.13913419182E+02  0.25406119500E+02  0.00000000000E+00 0.  1.
         21    1    1    2  504  501  0.10595770834E+02  0.18428708993E+02  0.95096412949E+01  0.23287785474E+02  0.00000000000E+00 0. -1.
</event>
<event>
 4    1  0.1571930E+006  0.2186634E+02  0.7546771E-02  0.1507246E+00
         21   -1    0    0  503  501  0.00000000000E+00  0.00000000000E+00  0.23868887283E+01  0.23868887283E+01  0.00000000000E+00 0.  1.
         21   -1    0    0  504  502 -0.00000000000E+00 -0.00000000000E+00 -0.28293602029E+03  0.28293602029E+03  0.00000000000E+00 0.  1.
         21    1    1    2  503  502  0.12245100225E+02 -0.18116132145E+02 -0.63184222854E+02  0.66860920881E+02  0.00000000000E+00 0.  1.
         21    1    1    2  504  501 -0.12245100225E+02  0.18116132145E+02 -0.21736490871E+03  0.21846198814E+03  0.00000000000E+00 0.  1.
</event>
<event>
 4    1  0.1571930E+006  0.2054531E+02  0.7546771E-02  0.1525857E+00
         21   -1    0    0  504  501  0.00000000000E+00  0.00000000000E+00  0.35219990461E+01  0.35219990461E+01  0.00000000000E+00 0. -1.
         21   -1    0    0  503  502 -0.00000000000E+00 -0.00000000000E+00 -0.25678876200E+03  0.25678876200E+03  0.00000000000E+00 0. -1.
         21    1    1    2  503  501  0.94658660780E+01  0.18234773088E+02 -0.31586422642E+02  0.37680388341E+02  0.00000000000E+00 0. -1.
         21    1    1    2  504  502 -0.94658660780E+01 -0.18234773088E+02 -0.22168034031E+03  0.22263037271E+03  0.00000000000E+00 0. -1.
</event>
<event>
 4    1  0.1571930E+006  0.2495462E+02  0.7546771E-02  0.1469312E+00
         21   -1    0    0  504  501  0.00000000000E+00  0.00000000000E+00  0.13074634719E+02  0.13074634719E+02  0.00000000000E+00 0.  1.
         21   -1    0    0  503  502 -0.00000000000E+00 -0.00000000000E+00 -0.70156732223E+02  0.70156732223E+02  0.00000000000E+00 0.  1.
         21    1    1    2  503  501  0.24328641200E+02 -0.55542865171E+01 -0.49590680840E+01  0.25442587086E+02  0.00000000000E+00 0.  1.
         21    1    1    2  504  502 -0.24328641200E+02  0.55542865171E+01 -0.52123029420E+02  0.57788779856E+02  0.00000000000E+00 0.  1.
</event>
<event>
 4    1  0.1571930E+006  0.3478156E+02  0.7546771E-02  0.1382105E+00
         21   -1    0    0  504  501  0.00000000000E+00  0.00000000000E+00  0.74789995513E+03  0.74789995513E+03  0.00000000000E+00 0. -1.
         21   -1    0    0  501  502 -0.00000000000E+00 -0.00000000000E+00 -0.18631824531E+02  0.18631824531E+02  0.00000000000E+00 0. -1.
         21    1    1    2  503  502 -0.97580746069E+00 -0.34767872096E+02 -0.16173728086E+01  0.34819147392E+02  0.00000000000E+00 0. -1.
         21    1    1    2  504  503  0.97580746069E+00  0.34767872096E+02  0.73088550340E+03  0.73171263227E+03  0.00000000000E+00 0. -1.
</event>
<event>
 4    1  0.1571930E+006  0.2645543E+02  0.7546771E-02  0.1453156E+00
         21   -1    0    0  504  501  0.00000000000E+00  0.00000000000E+00  0.37749607248E+01  0.37749607248E+01  0.00000000000E+00 0.  1.
         21   -1    0    0  503  502 -0.00000000000E+00 -0.00000000000E+00 -0.20069317111E+03  0.20069317111E+03  0.00000000000E+00 0.  1.
         21    1    1    2  503  501 -0.10344282012E+02 -0.24349242061E+02 -0.70240677288E+02  0.75057594587E+02  0.00000000000E+00 0.  1.
         21    1    1    2  504  502  0.10344282012E+02  0.24349242061E+02 -0.12667753310E+03  0.12941053725E+03  0.00000000000E+00 0.  1.
</event>
<event>
 4    1  0.1571930E+006  0.2865094E+02  0.7546771E-02  0.1431694E+00
         21   -1    0    0  502  501  0.00000000000E+00  0.00000000000E+00  0.35846384039E+03  0.35846384039E+03  0.00000000000E+00 0. -1.
         21   -1    0    0  503  502 -0.00000000000E+00 -0.00000000000E+00 -0.19140160686E+02  0.19140160686E+02  0.00000000000E+00 0. -1.
         21    1    1    2  503  504  0.18357961270E+02 -0.21996859783E+02 -0.74860678146E+01  0.29612797802E+02  0.00000000000E+00 0. -1.
         21    1    1    2  504  501 -0.18357961270E+02  0.21996859783E+02  0.34680974752E+03  0.34799120327E+03  0.00000000000E+00 0. -1.
</event>
<event>
 4    1  0.1571930E+006  0.2051692E+02  0.7546771E-02  0.1526275E+00
         21   -1    0    0  504  501  0.00000000000E+00  0.00000000000E+00  0.70147921808E+01  0.70147921808E+01  0.00000000000E+00 0.  1.
         21   -1    0    0  503  502 -0.00000000000E+00 -0.00000000000E+00 -0.61753039694E+02  0.61753039694E+02  0.00000000000E+00 0.  1.
         21    1    1    2  503  501 -0.11219804174E+02  0.17177310409E+02 -0.21589193165E+02  0.29783170753E+02  0.00000000000E+00 0.  1.
         21    1    1    2  504  502  0.11219804174E+02 -0.17177310409E+02 -0.33149054348E+02  0.38984661121E+02  0.00000000000E+00 0.  1.
</event>
<event>
 4    1  0.1571930E+006  0.3883358E+02  0.7546771E-02  0.1355460E+00
         21   -1    0    0  504  501  0.00000000000E+00  0.00000000000E+00  0.19703962334E+03  0.19703962334E+03  0.00000000000E+00 0.  1.
         21   -1    0    0  501  502 -0.00000000000E+00 -0.00000000000E+00 -0.11604641698E+02  0.11604641698E+02  0.00000000000E+00 0.  1.
         21    1    1    2  503  502 -0.28613024710E+02  0.26255314062E+02  0.31845039491E+02  0.50221043794E+02  0.00000000000E+00 0.  1.
         21    1    1    2  504  503  0.28613024710E+02 -0.26255314062E+02  0.15358994215E+03  0.15842322124E+03  0.00000000000E+00 0.  1.
</event>
<event>
 4    1  0.1571930E+006  0.3945733E+02  0.7546771E-02  0.1351695E+00
         21   -1    0    0  504  501  0.00000000000E+00  0.00000000000E+00  0.11418371422E+04  0.11418371422E+04  0.00000000000E+00 0.  1.
         21   -1    0    0  503  502 -0.00000000000E+00 -0.00000000000E+00 -0.33400487044E+01  0.33400487044E+01  0.00000000000E+00 0.  1.
         21    1    1    2  503  501  0.27208809890E+02  0.28575543194E+02  0.10097236795E+04  0.10104943295E+04  0.00000000000E+00 0.  1.
         21    1    1    2  504  502 -0.27208809890E+02 -0.28575543194E+02  0.12877341399E+03  0.13468286140E+03  0.00000000000E+00 0.  1.
</event>
<event>
 4    1  0.1571930E+006  0.2250735E+02  0.7546771E-02  0.1498779E+00
         21   -1    0    0  504  501  0.00000000000E+00  0.00000000000E+00  0.57948353515E+03  0.57948353515E+03  0.00000000000E+00 0. -1.
         21   -1    0    0  503  502 -0.00000000000E+00 -0.00000000000E+00 -0.12270673006E+01  0.12270673006E+01  0.00000000000E+00 0.  1.
         21    1    1    2  503  501  0.21034788294E+02 -0.80073895241E+01  0.44483425907E+03  0.44540329887E+03  0.00000000000E+00 0. -1.
         21    1    1    2  504  502 -0.21034788294E+02  0.80073895241E+01  0.13342220878E+03  0.13530730358E+03  0.00000000000E+00 0.  1.
</event>
<event>
 4    1  0.1571930E+006  0.2063694E+02  0.7546771E-02  0.1524512E+00
         21   -1    0    0  503  501  0.00000000000E+00  0.00000000000E+00  0.51515223896E+01  0.51515223896E+01  0.00000000000E+00 0.  1.
         21   -1    0    0  501  502 -0.00000000000E+00 -0.00000000000E+00 -0.25295777309E+03  0.25295777309E+03  0.00000000000E+00 0. -1.
         21    1    1    2  503  504  0.23244732883E+01 -0.20505607888E+02 -0.18016845312E+02  0.27395069737E+02  0.00000000000E+00 0.  1.
         21    1    1    2  504  502 -0.23244732883E+01  0.20505607888E+02 -0.22978940539E+03  0.23071422575E+03  0.00000000000E+00 0. -1.
</event>
<event>
 4    1  0.1571930E+006  0.5485681E+02  0.7546771E-02  0.1278385E+00
         21   -1    0    0  503  501  0.00000000000E+00  0.00000000000E+00  0.96591820305E+03  0.96591820305E+03  0.00000000000E+00 0.  1.
         21   -1    0    0  504  502 -0.00000000000E+00 -0.00000000000E+00 -0.41289454294E+01  0.41289454294E+01  0.00000000000E+00 0. -1.
         21    1    1    2  503  502  0.26053524617E+02  0.48275086108E+02  0.72119482484E+03  0.72327812455E+03  0.00000000000E+00 0.  1.
         21    1    1    2  504  501 -0.26053524617E+02 -0.48275086108E+02  0.24059443279E+03  0.24676902393E+03  0.00000000000E+00 0. -1.
</event>
<event>
 4    1  0.1571930E+006  0.2016845E+02  0.7546771E-02  0.1531476E+00
         21   -1    0    0  502  501  0.00000000000E+00  0.00000000000E+00  0.60632552156E+02  0.60632552156E+02  0.00000000000E+00 0.  1.
         21   -1    0    0  503  502 -0.00000000000E+00 -0.00000000000E+00 -0.12459612363E+02  0.12459612363E+02  0.00000000000E+00 0.  1.
         21    1    1    2  503  504 -0.14874675039E+02  0.13620225586E+02 -0.74236704202E+00  0.20182111172E+02  0.00000000000E+00 0.  1.
         21    1    1    2  504  501  0.14874675039E+02 -0.13620225586E+02  0.48915306835E+02  0.52910053348E+02  0.00000000000E+00 0.  1.
</event>
<event>
 4    1  0.1571930E+006  0.2059848E+02  0.7546771E-02  0.1525075E+00
         21   -1    0    0  502  501  0.00000000000E+00  0.00000000000E+00  0.48564718848E+03  0.48564718848E+03  0.00000000000E+00 0.  1.
         21   -1    0    0  503  502 -0.00000000000E+00 -0.00000000000E+00 -0.10248036205E+01  0.10248036205E+01  0.00000000000E+00 0.  1.
         21    1    1    2  503  504 -0.19440475757E+02  0.68091983696E+01  0.14886514178E+03  0.15028349117E+03  0.00000000000E+00 0.  1.
         21    1    1    2  504  501  0.19440475757E+02 -0.68091983696E+01  0.33575724307E+03  0.33638850093E+03  0.00000000000E+00 0.  1.
</event>
<event>
 4    1  0.1571930E+006  0.2603682E+02  0.7546771E-02  0.1457531E+00
         21   -1    0    0  503  501  0.00000000000E+00  0.00000000000E+00  0.24756516817E+01  0.24756516817E+01  0.00000000000E+00 0. -1.
         21   -1    0    0  504  502 -0.00000000000E+00 -0.00000000000E+00 -0.47048484296E+03  0.47048484296E+03  0.00000000000E+00 0.  1.
         21    1    1    2  503  502  0.25995553186E+02  0.14654138517E+01 -0.38689160095E+03  0.38776671738E+03  0.00000000000E+00 0.  1.
         21    1    1    2  504  501 -0.25995553186E+02 -0.14654138517E+01 -0.81117590334E+02  0.85193777266E+02  0.00000000000E+00 0. -1.
</event>
<event>
 4    1  0.1571930E+006  0.2864800E+02  0.7546771E-02  0.1431721E+00
         21   -1    0    0  504  501  0.00000000000E+00  0.00000000000E+00  0.16188864507E+01  0.16188864507E+01  0.00000000000E+00 0.  1.
         21   -1    0    0  503  502 -0.00000000000E+00 -0.00000000000E+00 -0.50841659181E+03  0.50841659181E+03  0.00000000000E+00 0.  1.
         21    1    1    2  503  501  0.14018799139E+02 -0.24983614522E+02 -0.23974041384E+03  0.24144600588E+03  0.00000000000E+00 0.  1.
         21    1    1    2  504  502 -0.14018799139E+02  0.24983614522E+02 -0.26705729152E+03  0.26858947239E+03  0.00000000000E+00 0.  1.
</event>
<event>
 4    1  0.1571930E+006  0.2759771E+02  0.7546771E-02  0.1441695E+00
         21   -1    0    0  503  501  0.00000000000E+00  0.00000000000E+00  0.92027626638E+02  0.92027626638E+02  0.00000000000E+00 0. -1.
         21   -1    0    0  504  502 -0.00000000000E+00 -0.00000000000E+00 -0.27245575962E+02  0.27245575962E+02  0.00000000000E+00 0.  1.
         21    1    1    2  503  502 -0.28786490836E+01  0.27447169928E+02  0.82152365474E+02  0.86663977006E+02  0.00000000000E+00 0. -1.
         21    1    1    2  504  501  0.28786490836E+01 -0.27447169928E+02 -0.17370314798E+02  0.32609225593E+02  0.00000000000E+00 0.  1.
</event>
<event>
 4    1  0.1571930E+006  0.2874064E+02  0.7546771E-02  0.1430865E+00
         21   -1    0    0  504  501  0.00000000000E+00  0.00000000000E+00  0.35564915006E+02  0.35564915006E+02  0.00000000000E+00 0.  1.
         21   -1    0    0  503  502 -0.00000000000E+00 -0.00000000000E+00 -0.78312406646E+02  0.78312406646E+02  0.00000000000E+00 0. -1.
         21    1    1    2  503  501  0.28531544668E+02 -0.34605729703E+01 -0.69128307392E+02  0.74864861512E+02  0.00000000000E+00 0. -1.
         21    1    1    2  504  502 -0.28531544668E+02  0.34605729703E+01  0.26380815751E+02  0.39012460140E+02  0.00000000000E+00 0.  1.
</event>
<event>
 4    1  0.1571930E+006  0.2394364E+02  0.7546771E-02  0.1480977E+00
         21   -1    0    0  502  501  0.00000000000E+00  0.00000000000E+00  0.24131926447E+01  0.24131926447E+01  0.00000000000E+00 0. -1.
         21   -1    0    0  504  502 -0.00000000000E+00 -0.00000000000E+00 -0.83070959542E+03  0.83070959542E+03  0.00000000000E+00 0. -1.
         21    1    1    2  503  501  0.18887685560E+02  0.14715741450E+02 -0.62155595864E+02  0.66607926025E+02  0.00000000000E+00 0. -1.
         21    1    1    2  504  503 -0.18887685560E+02 -0.14715741450E+02 -0.76614080692E+03  0.76651486204E+03  0.00000000000E+00 0. -1.
</event>
<event>
 4    1  0.1571930E+006  0.2263403E+02  0.7546771E-02  0.1497145E+00
         21   -1    0    0  504  501  0.00000000000E+00  0.00000000000E+00  0.32758138710E+02  0.32758138710E+02  0.00000000000E+00 0. -1.
         21   -1    0    0  501  502 -0.00000000000E+00 -0.00000000000E+00 -0.53349202237E+02  0.53349202237E+02  0.00000000000E+00 0. -1.
         21    1    1    2  503  502 -0.11705096564E+02  0.19372404805E+02 -0.46492863553E+02  0.51709628841E+02  0.00000000000E+00 0. -1.
         21    1    1    2  504  503  0.11705096564E+02 -0.19372404805E+02  0.25901800026E+02  0.34397712106E+02  0.00000000000E+00 0. -1.
</event>
<event>
 4    1  0.1571930E+006  0.2204329E+02  0.7546771E-02  0.1504874E+00
         21   -1    0    0  502  501  0.00000000000E+00  0.00000000000E+00  0.49843898414E+03  0.49843898414E+03  0.00000000000E+00 0.  1.
         21   -1    0    0  504  502 -0.00000000000E+00 -0.00000000000E+00 -0.18844804151E+02  0.18844804151E+02  0.00000000000E+00 0.  1.
         21    1    1    2  503  501  0.65598369740E+01 -0.21044601090E+02  0.49166027610E+03  0.49215417685E+03  0.00000000000E+00 0.  1.
         21    1    1    2  504  503 -0.65598369740E+01  0.21044601090E+02 -0.12066096106E+02  0.25129611446E+02  0.00000000000E+00 0.  1.
</event>
<event>
 4    1  0.1571930E+006  0.2247284E+02  0.7546771E-02  0.1499226E+00
         21   -1    0    0  504  501  0.00000000000E+00  0.00000000000E+00  0.29269986015E+02  0.29269986015E+02  0.00000000000E+00 0. -1.
         21   -1    0    0  501  502 -0.00000000000E+00 -0.00000000000E+00 -0.13973755827E+03  0.13973755827E+03  0.00000000000E+00 0.  1.
         21    1    1    2  503  502 -0.90370959094E+01  0.20575705163E+02 -0.13434866199E+03  0.13621524042E+03  0.00000000000E+00 0.  1.
         21    1    1    2  504  503  0.90370959094E+01 -0.20575705163E+02  0.23881089736E+02  0.32792303860E+02  0.00000000000E+00 0. -1.
</event>
<event>
 4    1  0.1571930E+006  0.2044827E+02  0.7546771E-02  0.1527290E+00
         21   -1    0    0  503  501  0.00000000000E+00  0.00000000000E+00  0.32489049126E+02  0.32489049126E+02  0.00000000000E+00 0.  1.
         21   -1    0    0  504  502 -0.00000000000E+00 -0.00000000000E+00 -0.36032554541E+02  0.36032554541E+02  0.00000000000E+00 0.  1.
         21    1    1    2  503  502 -0.20055178443E+02  0.39901668447E+01  0.25697315678E+02  0.32840274768E+02  0.00000000000E+00 0.  1.
         21    1    1    2  504  501  0.20055178443E+02 -0.39901668447E+01 -0.29240821092E+02  0.35681328899E+02  0.00000000000E+00 0.  1.
</event>
<event>
 4    1  0.1571930E+006  0.4274327E+02  0.7546771E-02  0.1333119E+00
         21   -1    0    0  503  501  0.00000000000E+00  0.00000000000E+00  0.19470221063E+02  0.19470221063E+02  0.00000000000E+00 0. -1.
         21   -1    0    0  504  502 -0.00000000000E+00 -0.00000000000E+00 -0.97312912476E+02  0.97312912476E+02  0.00000000000E+00 0. -1.
         21    1    1    2  503  502  0.42665489329E+02  0.25774452303E+01 -0.49960286185E+02  0.65749657028E+02  0.00000000000E+00 0. -1.
         21    1    1    2  504  501 -0.42665489329E+02 -0.25774452303E+01 -0.27882405228E+02  0.51033476512E+02  0.00000000000E+00 0. -1.
</event>
<event>
 4    1  0.1571930E+006  0.2275085E+02  0.7546771E-02  0.1495651E+00
         21   -1    0    0  504  501  0.00000000000E+00  0.00000000000E+00  0.20595416880E+03  0.20595416880E+03  0.00000000000E+00 0.  1.
         21   -1    0    0  503  502 -0.00000000000E+00 -0.00000000000E+00 -0.21857370887E+02  0.21857370887E+02  0.00000000000E+00 0. -1.
         21    1    1    2  503  501 -0.20698355927E+02  0.94434727730E+01 -0.15108954988E+02  0.27310833691E+02  0.00000000000E+00 0. -1.
         21    1    1    2  504  502  0.20698355927E+02 -0.94434727730E+01  0.19920575290E+03  0.20050070599E+03  0.00000000000E+00 0.  1.
</event>
<event>
 4    1  0.1571930E+006  0.4227824E+02  0.7546771E-02  0.1335629E+00
         21   -1    0    0  503  501  0.00000000000E+00  0.00000000000E+00  0.27087443402E+03  0.27087443402E+03  0.00000000000E+00 0.  1.
         21   -1    0    0  504  502 -0.00000000000E+00 -0.00000000000E+00 -0.82793450509E+01  0.82793450509E+01  0.00000000000E+00 0.  1.
         21    1    1    2  503  502  0.27034261593E+02  0.32505363873E+02  0.19418134887E+03  0.19873058705E+03  0.00000000000E+00 0.  1.
         21    1    1    2  504  501 -0.27034261593E+02 -0.32505363873E+02  0.68413740096E+02  0.80423192017E+02  0.00000000000E+00 0.  1.
</event>
<event>
 4    1  0.1571930E+006  0.3794508E+02  0.7546771E-02  0.1360967E+00
         21   -1    0    0  503  501  0.00000000000E+00  0.00000000000E+00  0.24537910655E+02  0.24537910655E+02  0.00000000000E+00 0.  1.
         21   -1    0    0  504  502 -0.00000000000E+00 -0.00000000000E+00 -0.19031828987E+03  0.19031828987E+03  0.00000000000E+00 0.  1.
         21    1    1    2  503  502  0.30153061551E+02  0.23035239166E+02  0.64552646759E+01  0.38490255992E+02  0.00000000000E+00 0.  1.
         21    1    1    2  504  501 -0.30153061551E+02 -0.23035239166E+02 -0.17223564389E+03  0.17636594453E+03  0.00000000000E+00 0.  1.
</event>
<event>
 4    1  0.1571930E+006  0.2462607E+02  0.7546771E-02  0.1473030E+00
         21   -1    0    0  504  501  0.00000000000E+00  0.00000000000E+00  0.14304987282E+02  0.14304987282E+02  0.00000000000E+00 0.  1.
         21   -1    0    0  503  502 -0.00000000000E+00 -0.00000000000E+00 -0.40294356723E+03  0.40294356723E+03  0.00000000000E+00 0. -1.
         21    1    1    2  503  501  0.19077426887E+02  0.15572254502E+02  0.30253422191E+01  0.24811207597E+02  0.00000000000E+00 0.  1.
         21    1    1    2  504  502 -0.19077426887E+02 -0.15572254502E+02 -0.39166392216E+03  0.39243734691E+03  0.00000000000E+00 0. -1.
</event>
<event>
 4    1  0.1571930E+006  0.2144519E+02  0.7546771E-02  0.1513003E+00
         21   -1    0    0  504  501  0.00000000000E+00  0.00000000000E+00  0.35791593513E+02  0.35791593513E+02  0.00000000000E+00 0. -1.
         21   -1    0    0  501  502 -0.00000000000E+00 -0.00000000000E+00 -0.12500323004E+03  0.12500323004E+03  0.00000000000E+00 0. -1.
         21    1    1    2  503  502  0.21274119129E+02 -0.27033476046E+01 -0.12075911969E+03  0.12264852719E+03  0.00000000000E+00 0. -1.
         21    1    1    2  504  503 -0.21274119129E+02  0.27033476046E+01  0.31547483159E+02  0.38146296369E+02  0.00000000000E+00 0. -1.
</event>
<event>
 4    1  0.1571930E+006  0.2301750E+02  0.7546771E-02  0.1492279E+00
         21   -1    0    0  503  501  0.00000000000E+00  0.00000000000E+00  0.21298930363E+03  0.21298930363E+03  0.00000000000E+00 0. -1.
         21   -1    0    0  504  502 -0.00000000000E+00 -0.00000000000E+00 -0.38381177313E+01  0.38381177313E+01  0.00000000000E+00 0.  1.
         21    1    1    2  503  502 -0.12801397158E+02  0.19129279443E+02  0.16888813238E+03  0.17044942464E+03  0.00000000000E+00 0. -1.
         21    1    1    2  504  501  0.12801397158E+02 -0.19129279443E+02  0.40263053516E+02  0.46377996719E+02  0.00000000000E+00 0.  1.
</event>
<event>
 4    1  0.1571930E+006  0.2116261E+02  0.7546771E-02  0.1516956E+00
         21   -1    0    0  504  501  0.00000000000E+00  0.00000000000E+00  0.14850676660E+03  0.14850676660E+03  0.00000000000E+00 0. -1.
         21   -1    0    0  501  502 -0.00000000000E+00 -0.00000000000E+00 -0.25627929863E+02  0.25627929863E+02  0.00000000000E+00 0.  1.
         21    1    1    2  503  502  0.13698793751E+02 -0.16130687453E+02 -0.20344889040E+02  0.29355928498E+02  0.00000000000E+00 0.  1.
         21    1    1    2  504  503 -0.13698793751E+02  0.16130687453E+02  0.14322372577E+03  0.14477876796E+03  0.00000000000E+00 0. -1.
</event>
<event>
 4    1  0.1571930E+006  0.2055995E+02  0.7546771E-02  0.1525641E+00
         21   -1    0    0  503  501  0.00000000000E+00  0.00000000000E+00  0.13429119146E+03  0.13429119146E+03  0.00000000000E+00 0.  1.
         21   -1    0    0  501  502 -0.00000000000E+00 -0.00000000000E+00 -0.43782768161E+01  0.43782768161E+01  0.00000000000E+00 0.  1.
         21    1    1    2  503  504  0.11003470441E+02  0.17367644585E+02  0.10171426441E+03  0.10377139791E+03  0.00000000000E+00 0.  1.
         21    1    1    2  504  502 -0.11003470441E+02 -0.17367644585E+02  0.28198650239E+02  0.34898070369E+02  0.00000000000E+00 0.  1.
</event>
<event>
 4    1  0.1571930E+006  0.2336921E+02  0.7546771E-02  0.1487913E+00
         21   -1    0    0  504  501  0.00000000000E+00  0.00000000000E+00  0.10080277864E+01  0.10080277864E+01  0.00000000000E+00 0.  1.
         21   -1    0    0  501  502 -0.00000000000E+00 -0.00000000000E+00 -0.66333571224E+03  0.66333571224E+03  0.00000000000E+00 0. -1.
         21    1    1    2  503  502 -0.21393162960E+02  0.94049311501E+01 -0.47336399072E+03  0.47394048979E+03  0.00000000000E+00 0. -1.
         21    1    1    2  504  503  0.21393162960E+02 -0.94049311501E+01 -0.18896369373E+03  0.19040325023E+03  0.00000000000E+00 0.  1.
</event>
<event>
 4    1  0.1571930E+006  0.4917531E+02  0.7546771E-02  0.1301788E+00
         21   -1    0    0  504  501  0.00000000000E+00  0.00000000000E+00  0.97088502111E+02  0.97088502111E+02  0.00000000000E+00 0.  1.
         21   -1    0    0  503  502 -0.00000000000E+00 -0.00000000000E+00 -0.40786805372E+02  0.40786805372E+02  0.00000000000E+00 0.  1.
         21    1    1    2  503  501 -0.48977954326E+02  0.44013148334E+01 -0.14863689400E+02  0.51372568992E+02  0.00000000000E+00 0.  1.
         21    1    1    2  504  502  0.48977954326E+02 -0.44013148334E+01  0.71165386139E+02  0.86502738492E+02  0.00000000000E+00 0.  1.
</event>
<event>
 4    1  0.1571930E+006  0.2335951E+02  0.7546771E-02  0.1488032E+00
         21   -1    0    0  503  501  0.00000000000E+00  0.00000000000E+00  0.94828326169E+03  0.94828326169E+03  0.00000000000E+00 0. -1.
         21   -1    0    0  504  502 -0.00000000000E+00 -0.00000000000E+00 -0.10714726319E+03  0.10714726319E+03  0.00000000000E+00 0. -1.
         21    1    1    2  503  502 -0.22417442886E+02 -0.65669647337E+01 -0.10572832897E+03  0.10827809713E+03  0.00000000000E+00 0. -1.
         21    1    1    2  504  501  0.22417442886E+02  0.65669647337E+01  0.94686432746E+03  0.94715242775E+03  0.00000000000E+00 0. -1.
</event>
<event>
 4    1  0.1571930E+006  0.2194652E+02  0.7546771E-02  0.1506168E+00
         21   -1    0    0  504  501  0.00000000000E+00  0.00000000000E+00  0.31956688560E+02  0.31956688560E+02  0.00000000000E+00 0. -1.
         21   -1    0    0  503  502 -0.00000000000E+00 -0.00000000000E+00 -0.35066382697E+02  0.35066382697E+02  0.00000000000E+00 0. -1.
         21    1    1    2  503  501 -0.92426292457E+01 -0.19905367199E+02  0.23749976373E+02  0.32337458410E+02  0.00000000000E+00 0. -1.
         21    1    1    2  504  502  0.92426292457E+01  0.19905367199E+02 -0.26859670510E+02  0.34685612848E+02  0.00000000000E+00 0. -1.
</event>
<event>
 4    1  0.1571930E+006  0.2015961E+02  0.7546771E-02  0.1531610E+00
         21   -1    0    0  503  501  0.00000000000E+00  0.00000000000E+00  0.11640073138E+02  0.11640073138E+02  0.00000000000E+00 0.  1.
         21   -1    0    0  504  502 -0.00000000000E+00 -0.00000000000E+00 -0.42616985594E+02  0.42616985594E+02  0.00000000000E+00 0.  1.
         21    1    1    2  503  502 -0.89650505364E+01  0.18056511416E+02 -0.39553971411E+01  0.20543974839E+02  0.00000000000E+00 0.  1.
         21    1    1    2  504  501  0.89650505364E+01 -0.18056511416E+02 -0.27021515316E+02  0.33713083893E+02  0.00000000000E+00 0.  1.
</event>
<event>
 4    1  0.1571930E+006  0.3268301E+02  0.7546771E-02  0.1397627E+00
         21   -1    0    0  502  501  0.00000000000E+00  0.00000000000E+00  0.10844593156E+02  0.10844593156E+02  0.00000000000E+00 0.  1.
         21   -1    0    0  504  502 -0.00000000000E+00 -0.00000000000E+00 -0.33837900322E+03  0.33837900322E+03  0.00000000000E+00 0. -1.
         21    1    1    2  503  501 -0.32681187770E+02  0.34487602731E+00 -0.16749675000E+02  0.36725067544E+02  0.00000000000E+00 0.  1.
         21    1    1    2  504  503  0.32681187770E+02 -0.34487602731E+00 -0.31078473506E+03  0.31249852883E+03  0.00000000000E+00 0. -1.
</event>
<event>
 4    1  0.1571930E+006  0.3361155E+02  0.7546771E-02  0.1390596E+00
         21   -1    0    0  504  501  0.00000000000E+00  0.00000000000E+00  0.18175660485E+02  0.18175660485E+02  0.00000000000E+00 0.  1.
         21   -1    0    0  503  502 -0.00000000000E+00 -0.00000000000E+00 -0.15192892439E+03  0.15192892439E+03  0.00000000000E+00 0.  1.
         21    1    1    2  503  501  0.24470292794E+02 -0.23042156836E+02 -0.13225546511E+03  0.13645968003E+03  0.00000000000E+00 0.  1.
         21    1    1    2  504  502 -0.24470292794E+02  0.23042156836E+02 -0.14977987934E+01  0.33644904849E+02  0.00000000000E+00 0.  1.
</event>
<event>
 4    1  0.1571930E+006  0.2581072E+02  0.7546771E-02  0.1459935E+00
         21   -1    0    0  503  501  0.00000000000E+00  0.00000000000E+00  0.36205328965E+02  0.36205328965E+02  0.00000000000E+00 0.  1.
         21   -1    0    0  504  502 -0.00000000000E+00 -0.00000000000E+00 -0.23988004338E+03  0.23988004338E+03  0.00000000000E+00 0. -1.
         21    1    1    2  503  502 -0.24937800423E+02 -0.66557596621E+01  0.30805307120E+02  0.40189052905E+02  0.00000000000E+00 0.  1.
         21    1    1    2  504  501  0.24937800423E+02  0.66557596621E+01 -0.23448002153E+03  0.23589631944E+03  0.00000000000E+00 0. -1.
</event>
<event>
 4    1  0.1571930E+006  0.2825089E+02  0.7546771E-02  0.1435432E+00
         21   -1    0    0  503  501  0.00000000000E+00  0.00000000000E+00  0.42109804703E+02  0.42109804703E+02  0.00000000000E+00 0.  1.
         21   -1    0    0  504  502 -0.00000000000E+00 -0.00000000000E+00 -0.30294880002E+02  0.30294880002E+02  0.00000000000E+00 0.  1.
         21    1    1    2  503  502  0.22987038040E+02  0.16422816662E+02  0.28058393481E+02  0.39816909344E+02  0.00000000000E+00 0.  1.
         21    1    1    2  504  501 -0.22987038040E+02 -0.16422816662E+02 -0.16243468779E+02  0.32587775361E+02  0.00000000000E+00 0.  1.
</event>
<event>
 4    1  0.1571930E+006  0.2118163E+02  0.7546771E-02  0.1516687E+00
         21   -1    0    0  502  501  0.00000000000E+00  0.00000000000E+00  0.84012046947E+01  0.84012046947E+01  0.00000000000E+00 0. -1.
         21   -1    0    0  503  502 -0.00000000000E+00 -0.00000000000E+00 -0.58168615976E+03  0.58168615976E+03  0.00000000000E+00 0.  1.
         21    1    1    2  503  504  0.14381450850E+02  0.15551060829E+02 -0.56781621013E+03  0.56821114923E+03  0.00000000000E+00 0.  1.
         21    1    1    2  504  501 -0.14381450850E+02 -0.15551060829E+02 -0.54687449359E+01  0.21876215227E+02  0.00000000000E+00 0. -1.
</event>
<event>
 4    1  0.1571930E+006  0.2301057E+02  0.7546771E-02  0.1492365E+00
         21   -1    0    0  504  501  0.00000000000E+00  0.00000000000E+00  0.21208771660E+03  0.21208771660E+03  0.00000000000E+00 0.  1.
         21   -1    0    0  503  502 -0.00000000000E+00 -0.00000000000E+00 -0.25164639743E+01  0.25164639743E+01  0.00000000000E+00 0.  1.
         21    1    1    2  503  501 -0.72128273382E+01  0.21850892761E+02  0.11433232660E+03  0.11662489999E+03  0.00000000000E+00 0.  1.
         21    1    1    2  504  502  0.72128273382E+01 -0.21850892761E+02  0.95238926023E+02  0.97979280579E+02  0.00000000000E+00 0.  1.
</event>
<event>
 4    1  0.1571930E+006  0.2211686E+02  0.7546771E-02  0.1503896E+00
         21   -1    0    0  503  501  0.00000000000E+00  0.00000000000E+00  0.17151411496E+01  0.17151411496E+01  0.00000000000E+00 0.  1.
         21   -1    0    0  501  502 -0.00000000000E+00 -0.00000000000E+00 -0.13288905296E+04  0.13288905296E+04  0.00000000000E+00 0.  1.
         21    1    1    2  503  504  0.12126659148E+02 -0.18495936994E+02 -0.73982947783E+02  0.77218081497E+02  0.00000000000E+00 0.  1.
         21    1    1    2  504  502 -0.12126659148E+02  0.18495936994E+02 -0.12531924406E+04  0.12533875892E+04  0.00000000000E+00 0.  1.
</event>
<event>
 4    1  0.1571930E+006  0.3483246E+02  0.7546771E-02  0.1381745E+00
         21   -1    0    0  503  501  0.00000000000E+00  0.00000000000E+00  0.60698837678E+01  0.60698837678E+01  0.00000000000E+00 0.  1.
         21   -1    0    0  504  502 -0.00000000000E+00 -0.00000000000E+00 -0.25068566026E+03  0.25068566026E+03  0.00000000000E+00 0.  1.
         21    1    1    2  503  502  0.29040339277E+02 -0.19234309463E+02 -0.64518938411E+02  0.73321165972E+02  0.00000000000E+00 0.  1.
         21    1    1    2  504  501 -0.29040339277E+02  0.19234309463E+02 -0.18009683808E+03  0.18343437805E+03  0.00000000000E+00 0.  1.
</event>
<event>
 4    1  0.1571930E+006  0.2011730E+02  0.7546771E-02  0.1532250E+00
         21   -1    0    0  504  501  0.00000000000E+00  0.00000000000E+00  0.10512594185E+02  0.10512594185E+02  0.00000000000E+00 0.  1.
         21   -1    0    0  503  502 -0.00000000000E+00 -0.00000000000E+00 -0.69776369248E+02  0.69776369248E+02  0.00000000000E+00 0. -1.
         21    1    1    2  503  501 -0.18304498415E+02 -0.83457149311E+01 -0.56510024226E+02  0.59984068368E+02  0.00000000000E+00 0. -1.
         21    1    1    2  504  502  0.18304498415E+02  0.83457149311E+01 -0.27537508368E+01  0.20304895065E+02  0.00000000000E+00 0.  1.
</event>
<event>
 4    1  0.1571930E+006  0.2289840E+02  0.7546771E-02  0.1493778E+00
         21   -1    0    0  503  501  0.00000000000E+00  0.00000000000E+00  0.97822013282E+02  0.97822013282E+02  0.00000000000E+00 0.  1.
         21   -1    0    0  504  502 -0.00000000000E+00 -0.00000000000E+00 -0.59955323059E+01  0.59955323059E+01  0.00000000000E+00 0.  1.
         21    1    1    2  503  502 -0.17364154704E+02 -0.14927256510E+02  0.29014367060E+02  0.36961741725E+02  0.00000000000E+00 0.  1.
         21    1    1    2  504  501  0.17364154704E+02  0.14927256510E+02  0.62812113917E+02  0.66855803863E+02  0.00000000000E+00 0.  1.
</event>
<event>
 4    1  0.1571930E+006  0.2271891E+02  0.7546771E-02  0.1496058E+00
         21   -1    0    0  503  501  0.00000000000E+00  0.00000000000E+00  0.69297405175E+02  0.69297405175E+02  0.00000000000E+00 0.  1.
         21   -1    0    0  504  502 -0.00000000000E+00 -0.00000000000E+00 -0.33567970616E+02  0.33567970616E+02  0.00000000000E+00 0. -1.
         21    1    1    2  503  502 -0.21975632026E+02 -0.57637317805E+01 -0.27504406200E+02  0.35674099391E+02  0.00000000000E+00 0. -1.
         21    1    1    2  504  501  0.21975632026E+02  0.57637317805E+01  0.63233840760E+02  0.67191276400E+02  0.00000000000E+00 0.  1.
</event>
<event>
 4    1  0.1571930E+006  0.2254335E+02  0.7546771E-02  0.1498313E+00
         21   -1    0    0  502  501  0.00000000000E+00  0.00000000000E+00  0.14988733331E+03  0.14988733331E+03  0.00000000000E+00 0.  1.
         21   -1    0    0  504  502 -0.00000000000E+00 -0.00000000000E+00 -0.13471283448E+02  0.13471283448E+02  0.00000000000E+00 0.  1.
         21    1    1    2  503  501 -0.30220840704E+01  0.22339863923E+02  0.13886472345E+03  0.14068267104E+03  0.00000000000E+00 0.  1.
         21    1    1    2  504  503  0.30220840704E+01 -0.22339863923E+02 -0.24486735794E+01  0.22675945725E+02  0.00000000000E+00 0.  1.
</event>
<event>
 4    1  0.1571930E+006  0.2295767E+02  0.7546771E-02  0.1493030E+00
         21   -1    0    0  504  501  0.00000000000E+00  0.00000000000E+00  0.85888381059E+02  0.85888381059E+02  0.00000000000E+00 0. -1.
         21   -1    0    0  503  502 -0.00000000000E+00 -0.00000000000E+00 -0.60322851884E+02  0.60322851884E+02  0.00000000000E+00 0.  1.
         21    1    1    2  503  501 -0.11561828024E+02  0.19833780781E+02 -0.56504710564E+02  0.60990466822E+02  0.00000000000E+00 0.  1.
         21    1    1    2  504  502  0.11561828024E+02 -0.19833780781E+02  0.82070239739E+02  0.85220766121E+02  0.00000000000E+00 0. -1.
</event>
<event>
 4    1  0.1571930E+006  0.2028650E+02  0.7546771E-02  0.1529700E+00
         21   -1    0    0  503  501  0.00000000000E+00  0.00000000000E+00  0.92304728540E+01  0.92304728540E+01  0.00000000000E+00 0.  1.
         21   -1    0    0  504  502 -0.00000000000E+00 -0.00000000000E+00 -0.93900825558E+02  0.93900825558E+02  0.00000000000E+00 0.  1.
         21    1    1    2  503  502  0.76486181421E+01  0.18789377434E+02 -0.79704759682E+02  0.82245916493E+02  0.00000000000E+00 0.  1.
         21    1    1    2  504  501 -0.76486181421E+01 -0.18789377434E+02 -0.49655930219E+01  0.20885381919E+02  0.00000000000E+00 0.  1.
</event>
<event>
 4    1  0.1571930E+006  0.2654460E+02  0.7546771E-02  0.1452237E+00
         21   -1    0    0  504  501  0.00000000000E+00  0.00000000000E+00  0.10828770449E+03  0.10828770449E+03  0.00000000000E+00 0.  1.
         21   -1    0    0  501  502 -0.00000000000E+00 -0.00000000000E+00 -0.73241607685E+01  0.73241607685E+01  0.00000000000E+00 0.  1.
         21    1    1    2  503  502  0.93666319117E+01  0.24837107038E+02  0.31171975543E+02  0.40942737312E+02  0.00000000000E+00 0.  1.
         21    1    1    2  504  503 -0.93666319117E+01 -0.24837107038E+02  0.69791568174E+02  0.74669127941E+02  0.00000000000E+00 0.  1.
</event>
<event>
 4    1  0.1571930E+006  0.3113125E+02  0.7546771E-02  0.1410014E+00
         21   -1    0    0  504  501  0.00000000000E+00  0.00000000000E+00  0.14251773495E+02  0.14251773495E+02  0.00000000000E+00 0.  1.
         21   -1    0    0  503  502 -0.00000000000E+00 -0.00000000000E+00 -0.70759179382E+02  0.70759179382E+02  0.00000000000E+00 0.  1.
         21    1    1    2  503  501  0.31020040723E+02 -0.26290287162E+01 -0.19863838155E+02  0.36928671581E+02  0.00000000000E+00 0.  1.
         21    1    1    2  504  502 -0.31020040723E+02  0.26290287162E+01 -0.36643567732E+02  0.48082281296E+02  0.00000000000E+00 0.  1.
</event>
<event>
 4    1  0.1571930E+006  0.2144598E+02  0.7546771E-02  0.1512992E+00
         21   -1    0    0  503  501  0.00000000000E+00  0.00000000000E+00  0.92424424229E+02  0.92424424229E+02  0.00000000000E+00 0. -1.
         21   -1    0    0  501  502 -0.00000000000E+00 -0.00000000000E+00 -0.86603553904E+02  0.86603553904E+02  0.00000000000E+00 0. -1.
         21    1    1    2  503  504  0.21357047322E+02  0.19510673073E+01  0.89814620205E+02  0.92339569722E+02  0.00000000000E+00 0. -1.
         21    1    1    2  504  502 -0.21357047322E+02 -0.19510673073E+01 -0.83993749880E+02  0.86688408411E+02  0.00000000000E+00 0. -1.
</event>
<event>
 4    1  0.1571930E+006  0.2813048E+02  0.7546771E-02  0.1436571E+00
         21   -1    0    0  503  501  0.00000000000E+00  0.00000000000E+00  0.44009587788E+03  0.44009587788E+03  0.00000000000E+00 0. -1.
         21   -1    0    0  504  502 -0.00000000000E+00 -0.00000000000E+00 -0.21828594755E+01  0.21828594755E+01  0.00000000000E+00 0. -1.
         21    1    1    2  503  502 -0.12396267278E+02  0.25251857483E+02  0.31180269320E+03  0.31306907103E+03  0.00000000000E+00 0. -1.
         21    1    1    2  504  501  0.12396267278E+02 -0.25251857483E+02  0.12611032520E+03  0.12920966632E+03  0.00000000000E+00 0. -1.
</event>
<event>
 4    1  0.1571930E+006  0.2277306E+02  0.7546771E-02  0.1495368E+00
         21   -1    0    0  503  501  0.00000000000E+00  0.00000000000E+00  0.18147290352E+02  0.18147290352E+02  0.00000000000E+00 0. -1.
         21   -1    0    0  504  502 -0.00000000000E+00 -0.00000000000E+00 -0.39459648678E+03  0.39459648678E+03  0.00000000000E+00 0. -1.
         21    1    1    2  503  502  0.12892857739E+02  0.18771964894E+02  0.10533791115E+02  0.25091297334E+02  0.00000000000E+00 0. -1.
         21    1    1    2  504  501 -0.12892857739E+02 -0.18771964894E+02 -0.38698298754E+03  0.38765247980E+03  0.00000000000E+00 0. -1.
</event>
<event>
 4    1  0.1571930E+006  0.2734664E+02  0.7546771E-02  0.1444157E+00
         21   -1    0    0  504  501  0.00000000000E+00  0.00000000000E+00  0.97843377111E+02  0.97843377111E+02  0.00000000000E+00 0. -1.
         21   -1    0    0  501  502 -0.00000000000E+00 -0.00000000000E+00 -0.33601386502E+02  0.33601386502E+02  0.00000000000E+00 0. -1.
         21    1    1    2  503  502  0.26985393878E+02 -0.44302921927E+01 -0.25644919827E+02  0.37490010464E+02  0.00000000000E+00 0. -1.
         21    1    1    2  504  503 -0.26985393878E+02  0.44302921927E+01  0.89886910436E+02  0.93954753150E+02  0.00000000000E+00 0. -1.
</event>
<event>
 4    1  0.1571930E+006  0.2208679E+02  0.7546771E-02  0.1504295E+00
         21   -1    0    0  503  501  0.00000000000E+00  0.00000000000E+00  0.35768596475E+02  0.35768596475E+02  0.00000000000E+00 0.  1.
         21   -1    0    0  501  502 -0.00000000000E+00 -0.00000000000E+00 -0.20134496842E+02  0.20134496842E+02  0.00000000000E+00 0.  1.
         21    1    1    2  503  504  0.22856075036E+01 -0.21968213387E+02  0.23693804051E+02  0.32391708067E+02  0.00000000000E+00 0.  1.
         21    1    1    2  504  502 -0.22856075036E+01  0.21968213387E+02 -0.80597044181E+01  0.23511385250E+02  0.00000000000E+00 0.  1.
</event>
<event>
 4    1  0.1571930E+006  0.5200521E+02  0.7546771E-02  0.1289705E+00
         21   -1    0    0  502  501  0.00000000000E+00  0.00000000000E+00  0.12918239596E+03  0.12918239596E+03  0.00000000000E+00 0. -1.
         21   -1    0    0  503  502 -0.00000000000E+00 -0.00000000000E+00 -0.49812383785E+02  0.49812383785E+02  0.00000000000E+00 0. -1.
         21    1    1    2  503  504  0.42932403033E+02 -0.29348783328E+02 -0.28456902386E+02  0.59281848878E+02  0.00000000000E+00 0. -1.
         21    1    1    2  504  501 -0.42932403033E+02  0.29348783328E+02  0.10782691456E+03  0.11971293087E+03  0.00000000000E+00 0. -1.
</event>
<event>
 4    1  0.1571930E+006  0.4169189E+02  0.7546771E-02  0.1338847E+00
         21   -1    0    0  503  501  0.00000000000E+00  0.00000000000E+00  0.38328884565E+03  0.38328884565E+03  0.00000000000E+00 0. -1.
         21   -1    0    0  504  502 -0.00000000000E+00 -0.00000000000E+00 -0.11193426095E+02  0.11193426095E+02  0.00000000000E+00 0. -1.
         21    1    1    2  503  502  0.27168524936E+02 -0.31624119212E+02  0.33922260044E+02  0.53748798960E+02  0.00000000000E+00 0. -1.
         21    1    1    2  504  501 -0.27168524936E+02  0.31624119212E+02  0.33817315951E+03  0.34073347278E+03  0.00000000000E+00 0. -1.
</event>
<event>
 4    1  0.1571930E+006  0.2735015E+02  0.7546771E-02  0.1444122E+00
         21   -1    0    0  502  501  0.00000000000E+00  0.00000000000E+00  0.27167742715E+02  0.27167742715E+02  0.00000000000E+00 0. -1.
         21   -1    0    0  503  502 -0.00000000000E+00 -0.00000000000E+00 -0.53303763208E+02  0.53303763208E+02  0.00000000000E+00 0. -1.
         21    1    1    2  503  504  0.27285523213E+02  0.18790648004E+01 -0.41044309319E+02  0.49322063917E+02  0.00000000000E+00 0. -1.
         21    1    1    2  504  501 -0.27285523213E+02 -0.18790648004E+01  0.14908288826E+02  0.31149442006E+02  0.00000000000E+00 0. -1.
</event>
<event>
 4    1  0.1571930E+006  0.2376857E+02  0.7546771E-02  0.1483066E+00
         21   -1    0    0  503  501  0.00000000000E+00  0.00000000000E+00  0.17471646039E+02  0.17471646039E+02  0.00000000000E+00 0.  1.
         21   -1    0    0  504  502 -0.00000000000E+00 -0.00000000000E+00 -0.21055617428E+03  0.21055617428E+03  0.00000000000E+00 0.  1.
         21    1    1    2  503  502 -0.17899748290E+02 -0.15637896495E+02  0.83524398046E+01  0.25193412756E+02  0.00000000000E+00 0.  1.
         21    1    1    2  504  501  0.17899748290E+02  0.15637896495E+02 -0.20143696805E+03  0.20283440756E+03  0.00000000000E+00 0.  1.
</event>
<event>
 4    1  0.1571930E+006  0.2441866E+02  0.7546771E-02  0.1475413E+00
         21   -1    0    0  503  501  0.00000000000E+00  0.00000000000E+00  0.10540393721E+02  0.10540393721E+02  0.00000000000E+00 0. -1.
         21   -1    0    0  504  502 -0.00000000000E+00 -0.00000000000E+00 -0.11704362770E+03  0.11704362770E+03  0.00000000000E+00 0. -1.
         21    1    1    2  503  502 -0.17329006924E+02  0.17203972275E+02 -0.73978467421E+01  0.25514687524E+02  0.00000000000E+00 0. -1.
         21    1    1    2  504  501  0.17329006924E+02 -0.17203972275E+02 -0.99105387237E+02  0.10206933390E+03  0.00000000000E+00 0. -1.
</event>
<event>
 4    1  0.1571930E+006  0.2514960E+02  0.7546771E-02  0.1467137E+00
         21   -1    0    0  504  501  0.00000000000E+00  0.00000000000E+00  0.29815019117E+03  0.29815019117E+03  0.00000000000E+00 0. -1.
         21   -1    0    0  503  502 -0.00000000000E+00 -0.00000000000E+00 -0.73387325946E+02  0.73387325946E+02  0.00000000000E+00 0.  1.
         21    1    1    2  503  501 -0.12127329201E+02 -0.22032479273E+02  0.29544547470E+03  0.29651396388E+03  0.00000000000E+00 0. -1.
         21    1    1    2  504  502  0.12127329201E+02  0.22032479273E+02 -0.70682609479E+02  0.75023553230E+02  0.00000000000E+00 0.  1.
</event>
<event>
 4    1  0.1571930E+006  0.4317283E+02  0.7546771E-02  0.1330833E+00
         21   -1    0    0  503  501  0.00000000000E+00  0.00000000000E+00  0.36326234219E+02  0.36326234219E+02  0.00000000000E+00 0. -1.
         21   -1    0    0  504  502 -0.00000000000E+00 -0.00000000000E+00 -0.18880131415E+03  0.18880131415E+03  0.00000000000E+00 0.  1.
         21    1    1    2  503  502 -0.44095214411E+01  0.42947049834E+02  0.19820569932E+02  0.47505241408E+02  0.00000000000E+00 0. -1.
         21    1    1    2  504  501  0.44095214411E+01 -0.42947049834E+02 -0.17229564987E+03  0.17762230697E+03  0.00000000000E+00 0.  1.
</event>
<event>
 4    1  0.1571930E+006  0.4156900E+02  0.7546771E-02  0.1339529E+00
         21   -1    0    0  503  501  0.00000000000E+00  0.00000000000E+00  0.47816634455E+02  0.47816634455E+02  0.00000000000E+00 0. -1.
         21   -1    0    0  504  502 -0.00000000000E+00 -0.00000000000E+00 -0.47143197057E+02  0.47143197057E+02  0.00000000000E+00 0. -1.
         21    1    1    2  503  502 -0.90237240093E+01 -0.40577753888E+02  0.23277376568E+02  0.47642606619E+02  0.00000000000E+00 0. -1.
         21    1    1    2  504  501  0.90237240093E+01  0.40577753888E+02 -0.22603939170E+02  0.47317224893E+02  0.00000000000E+00 0. -1.
</event>
<event>
 4    1  0.1571930E+006  0.2132685E+02  0.7546771E-02  0.1514649E+00
         21   -1    0    0  503  501  0.00000000000E+00  0.00000000000E+00  0.20429033477E+03  0.20429033477E+03  0.00000000000E+00 0. -1.
         21   -1    0    0  501  502 -0.00000000000E+00 -0.00000000000E+00 -0.28236606329E+02  0.28236606329E+02  0.00000000000E+00 0.  1.
         21    1    1    2  503  504 -0.21326731705E+02 -0.72152687887E-01  0.19961263613E+03  0.20074869662E+03  0.00000000000E+00 0. -1.
         21    1    1    2  504  502  0.21326731705E+02  0.72152687887E-01 -0.23558907685E+02  0.31778244485E+02  0.00000000000E+00 0.  1.
</event>
<event>
 4    1  0.1571930E+006  0.2781868E+02  0.7546771E-02  0.1439553E+00
         21   -1    0    0  503  501  0.00000000000E+00  0.00000000000E+00  0.17013532251E+04  0.17013532251E+04  0.00000000000E+00 0. -1.
         21   -1    0    0  501  502 -0.00000000000E+00 -0.00000000000E+00 -0.68365571394E+00  0.68365571394E+00  0.00000000000E+00 0. -1.
         21    1    1    2  503  504  0.13212670851E+02 -0.24480693814E+02  0.13426500987E+04  0.13429382587E+04  0.00000000000E+00 0. -1.
         21    1    1    2  504  502 -0.13212670851E+02  0.24480693814E+02  0.35801947068E+03  0.35909862215E+03  0.00000000000E+00 0. -1.
</event>
<event>
 4    1  0.1571930E+006  0.6200510E+02  0.7546771E-02  0.1253168E+00
         21   -1    0    0  502  501  0.00000000000E+00  0.00000000000E+00  0.15247112795E+03  0.15247112795E+03  0.00000000000E+00 0.  1.
         21   -1    0    0  503  502 -0.00000000000E+00 -0.00000000000E+00 -0.73521865104E+02  0.73521865104E+02  0.00000000000E+00 0.  1.
         21    1    1    2  503  504  0.51995369192E+02  0.33780380989E+02 -0.52117674654E+02  0.80999287457E+02  0.00000000000E+00 0.  1.
         21    1    1    2  504  501 -0.51995369192E+02 -0.33780380989E+02  0.13106693750E+03  0.14499370560E+03  0.00000000000E+00 0.  1.
</event>
<event>
 4    1  0.1571930E+006  0.2003988E+02  0.7546771E-02  0.1533427E+00
         21   -1    0    0  503  501  0.00000000000E+00  0.00000000000E+00  0.11996210828E+04  0.11996210828E+04  0.00000000000E+00 0. -1.
         21   -1    0    0  504  502 -0.00000000000E+00 -0.00000000000E+00 -0.66643223539E+01  0.66643223539E+01  0.00000000000E+00 0.  1.
         21    1    1    2  503  502 -0.10301584301E+02  0.17189361571E+02  0.11842770356E+04  0.11844465770E+04  0.00000000000E+00 0. -1.
         21    1    1    2  504  501  0.10301584301E+02 -0.17189361571E+02  0.86797248438E+01  0.21838828121E+02  0.00000000000E+00 0.  1.
</event>
<event>
 4    1  0.1571930E+006  0.2021163E+02  0.7546771E-02  0.1530825E+00
         21   -1    0    0  504  501  0.00000000000E+00  0.00000000000E+00  0.64098422281E+02  0.64098422281E+02  0.00000000000E+00 0.  1.
         21   -1    0    0  503  502 -0.00000000000E+00 -0.00000000000E+00 -0.70833918722E+01  0.70833918722E+01  0.00000000000E+00 0.  1.
         21    1    1    2  503  501 -0.19855657633E+02 -0.37766246733E+01  0.17237721699E+02  0.26564056229E+02  0.00000000000E+00 0.  1.
         21    1    1    2  504  502  0.19855657633E+02  0.37766246733E+01  0.39777308710E+02  0.44617757924E+02  0.00000000000E+00 0.  1.
</event>
<event>
 4    1  0.1571930E+006  0.2908004E+02  0.7546771E-02  0.1427763E+00
         21   -1    0    0  504  501  0.00000000000E+00  0.00000000000E+00  0.54189782548E+03  0.54189782548E+03  0.00000000000E+00 0. -1.
         21   -1    0    0  503  502 -0.00000000000E+00 -0.00000000000E+00 -0.35722160306E+01  0.35722160306E+01  0.00000000000E+00 0.  1.
         21    1    1    2  503  501  0.17093349742E+02 -0.23525860005E+02  0.64493848602E+02  0.70746768138E+02  0.00000000000E+00 0.  1.
         21    1    1    2  504  502 -0.17093349742E+02  0.23525860005E+02  0.47383176084E+03  0.47472327337E+03  0.00000000000E+00 0. -1.
</event>
<event>
 4    1  0.1571930E+006  0.2160125E+02  0.7546771E-02  0.1510851E+00
         21   -1    0    0  503  501  0.00000000000E+00  0.00000000000E+00  0.23371647683E+03  0.23371647683E+03  0.00000000000E+00 0. -1.
         21   -1    0    0  504  502 -0.00000000000E+00 -0.00000000000E+00 -0.15396646757E+02  0.15396646757E+02  0.00000000000E+00 0. -1.
         21    1    1    2  503  502 -0.12324575196E+02 -0.17740319322E+02 -0.70406863877E+01  0.22719712767E+02  0.00000000000E+00 0. -1.
         21    1    1    2  504  501  0.12324575196E+02  0.17740319322E+02  0.22536051646E+03  0.22639341082E+03  0.00000000000E+00 0. -1.
</event>
<event>
 4    1  0.1571930E+006  0.2293718E+02  0.7546771E-02  0.1493288E+00
         21   -1    0    0  504  501  0.00000000000E+00  0.00000000000E+00  0.47791007036E+01  0.47791007036E+01  0.00000000000E+00 0. -1.
         21   -1    0    0  503  502 -0.00000000000E+00 -0.00000000000E+00 -0.17895310150E+03  0.17895310150E+03  0.00000000000E+00 0. -1.
         21    1    1    2  503  501  0.16434675058E+02  0.16000489395E+02 -0.14407588674E+03  0.14589028530E+03  0.00000000000E+00 0. -1.
         21    1    1    2  504  502 -0.16434675058E+02 -0.16000489395E+02 -0.30098114054E+02  0.37841916901E+02  0.00000000000E+00 0. -1.
</event>
<event>
 4    1  0.1571930E+006  0.2376101E+02  0.7546771E-02  0.1483157E+00
         21   -1    0    0  504  501  0.00000000000E+00  0.00000000000E+00  0.38277252605E+02  0.38277252605E+02  0.00000000000E+00 0.  1.
         21   -1    0    0  501  502 -0.00000000000E+00 -0.00000000000E+00 -0.14845272050E+02  0.14845272050E+02  0.00000000000E+00 0.  1.
         21    1    1    2  503  502 -0.13091102568E+02 -0.19829488026E+02  0.13844964142E+02  0.27500338069E+02  0.00000000000E+00 0.  1.
         21    1    1    2  504  503  0.13091102568E+02  0.19829488026E+02  0.95870164129E+01  0.25622186587E+02  0.00000000000E+00 0.  1.
</event>
<event>
 4    1  0.1571930E+006  0.3441029E+02  0.7546771E-02  0.1384757E+00
         21   -1    0    0  503  501  0.00000000000E+00  0.00000000000E+00  0.12248487698E+03  0.12248487698E+03  0.00000000000E+00 0. -1.
         21   -1    0    0  504  502 -0.00000000000E+00 -0.00000000000E+00 -0.10878905567E+02  0.10878905567E+02  0.00000000000E+00 0. -1.
         21    1    1    2  503  502  0.41781267591E+01  0.34155693279E+02  0.33547364666E+02  0.48057193037E+02  0.00000000000E+00 0. -1.
         21    1    1    2  504  501 -0.41781267591E+01 -0.34155693279E+02  0.78058606748E+02  0.85306589511E+02  0.00000000000E+00 0. -1.
</event>
<event>
 4    1  0.1571930E+006  0.2276075E+02  0.7546771E-02  0.1495525E+00
         21   -1    0    0  504  501  0.00000000000E+00  0.00000000000E+00  0.10233270109E+03  0.10233270109E+03  0.00000000000E+00 0. -1.
         21   -1    0    0  501  502 -0.00000000000E+00 -0.00000000000E+00 -0.68684737837E+02  0.68684737837E+02  0.00000000000E+00 0.  1.
         21    1    1    2  503  502 -0.30694197231E+01 -0.22552831136E+02 -0.65473208963E+02  0.69316611441E+02  0.00000000000E+00 0.  1.
         21    1    1    2  504  503  0.30694197231E+01  0.22552831136E+02  0.99121172217E+02  0.10170082749E+03  0.00000000000E+00 0. -1.
</event>
<event>
 4    1  0.1571930E+006  0.2021327E+02  0.7546771E-02  0.1530800E+00
         21   -1    0    0  502  501  0.00000000000E+00  0.00000000000E+00  0.16924490280E+02  0.16924490280E+02  0.00000000000E+00 0. -1.
         21   -1    0    0  503  502 -0.00000000000E+00 -0.00000000000E+00 -0.24290279492E+02  0.24290279492E+02  0.00000000000E+00 0. -1.
         21    1    1    2  503  504 -0.13902940255E+02  0.14672574626E+02 -0.52977303979E+01  0.20895983855E+02  0.00000000000E+00 0. -1.
         21    1    1    2  504  501  0.13902940255E+02 -0.14672574626E+02 -0.20680588138E+01  0.20318785917E+02  0.00000000000E+00 0. -1.
</event>
<event>
 4    1  0.1571930E+006  0.3144447E+02  0.7546771E-02  0.1407446E+00
         21   -1    0    0  504  501  0.00000000000E+00  0.00000000000E+00  0.70593616421E+03  0.70593616421E+03  0.00000000000E+00 0.  1.
         21   -1    0    0  501  502 -0.00000000000E+00 -0.00000000000E+00 -0.30954771648E+02  0.30954771648E+02  0.00000000000E+00 0. -1.
         21    1    1    2  503  502  0.56593804237E+01  0.30930986550E+02 -0.22522649679E+02  0.38678472880E+02  0.00000000000E+00 0. -1.
         21    1    1    2  504  503 -0.56593804237E+01 -0.30930986550E+02  0.69750404225E+03  0.69821246298E+03  0.00000000000E+00 0.  1.
</event>
<event>
 4    1  0.1571930E+006  0.2575611E+02  0.7546771E-02  0.1460520E+00
         21   -1    0    0  502  501  0.00000000000E+00  0.00000000000E+00  0.10442027188E+03  0.10442027188E+03  0.00000000000E+00 0. -1.
         21   -1    0    0  503  502 -0.00000000000E+00 -0.00000000000E+00 -0.16676169136E+02  0.16676169136E+02  0.00000000000E+00 0. -1.
         21    1    1    2  503  504 -0.20844741491E+02  0.15128588075E+02 -0.37667338756E+01  0.26030092375E+02  0.00000000000E+00 0. -1.
         21    1    1    2  504  501  0.20844741491E+02 -0.15128588075E+02  0.91510836623E+02  0.95066348643E+02  0.00000000000E+00 0. -1.
</event>
<event>
 4    1  0.1571930E+006  0.2349610E+02  0.7546771E-02  0.1486361E+00
         21   -1    0    0  504  501  0.00000000000E+00  0.00000000000E+00  0.60646441830E+01  0.60646441830E+01  0.00000000000E+00 0.  1.
         21   -1    0    0  503  502 -0.00000000000E+00 -0.00000000000E+00 -0.11043999546E+03  0.11043999546E+03  0.00000000000E+00 0.  1.
         21    1    1    2  503  501 -0.13470086149E+02  0.19251585804E+02 -0.76608406806E+02  0.80130610693E+02  0.00000000000E+00 0.  1.
         21    1    1    2  504  502  0.13470086149E+02 -0.19251585804E+02 -0.27766944475E+02  0.36374028953E+02  0.00000000000E+00 0.  1.
</event>
<event>
 4    1  0.1571930E+006  0.2114374E+02  0.7546771E-02  0.1517222E+00
         21   -1    0    0  503  501  0.00000000000E+00  0.00000000000E+00  0.73086609581E+03  0.73086609581E+03  0.00000000000E+00 0.  1.
         21   -1    0    0  504  502 -0.00000000000E+00 -0.00000000000E+00 -0.13900763482E+01  0.13900763482E+01  0.00000000000E+00 0. -1.
         21    1    1    2  503  502  0.14485985967E+02 -0.15401747522E+02  0.63871466698E+03  0.63906453777E+03  0.00000000000E+00 0.  1.
         21    1    1    2  504  501 -0.14485985967E+02  0.15401747522E+02  0.90761352482E+02  0.93191634391E+02  0.00000000000E+00 0. -1.
</event>
<event>
 4    1  0.1571930E+006  0.2351328E+02  0.7546771E-02  0.1486152E+00
         21   -1    0    0  504  501  0.00000000000E+00  0.00000000000E+00  0.40387119074E+03  0.40387119074E+03  0.00000000000E+00 0.  1.
         21   -1    0    0  503  502 -0.00000000000E+00 -0.00000000000E+00 -0.90862274593E+01  0.90862274593E+01  0.00000000000E+00 0.  1.
         21    1    1    2  503  501  0.40425099812E+01 -0.23163168651E+02  0.71025134222E+01  0.24562572460E+02  0.00000000000E+00 0.  1.
         21    1    1    2  504  502 -0.40425099812E+01  0.23163168651E+02  0.38768244986E+03  0.38839484574E+03  0.00000000000E+00 0.  1.
</event>
<event>
 4    1  0.1571930E+006  0.3129287E+02  0.7546771E-02  0.1408684E+00
         21   -1    0    0  503  501  0.00000000000E+00  0.00000000000E+00  0.14792474257E+03  0.14792474257E+03  0.00000000000E+00 0. -1.
         21   -1    0    0  501  502 -0.00000000000E+00 -0.00000000000E+00 -0.34807875971E+03  0.34807875971E+03  0.00000000000E+00 0. -1.
         21    1    1    2  503  504 -0.14761652832E+02  0.27592342140E+02  0.14555513197E+03  0.14888095977E+03  0.00000000000E+00 0. -1.
         21    1    1    2  504  502  0.14761652832E+02 -0.27592342140E+02 -0.34570914911E+03  0.34712254251E+03  0.00000000000E+00 0. -1.
</event>
<event>
 4    1  0.1571930E+006  0.2029359E+02  0.7546771E-02  0.1529594E+00
         21   -1    0    0  503  501  0.00000000000E+00  0.00000000000E+00  0.23240528197E+02  0.23240528197E+02  0.00000000000E+00 0.  1.
         21   -1    0    0  504  502 -0.00000000000E+00 -0.00000000000E+00 -0.25810988318E+02  0.25810988318E+02  0.00000000000E+00 0.  1.
         21    1    1    2  503  502  0.19263124865E+02  0.63845024119E+01  0.12446081821E+02  0.23806192541E+02  0.00000000000E+00 0.  1.
         21    1    1    2  504  501 -0.19263124865E+02 -0.63845024119E+01 -0.15016541942E+02  0.25245323973E+02  0.00000000000E+00 0.  1.
</event>
<event>
 4    1  0.1571930E+006  0.2014638E+02  0.7546771E-02  0.1531810E+00
         21   -1    0    0  503  501  0.00000000000E+00  0.00000000000E+00  0.50195535167E+02  0.50195535167E+02  0.00000000000E+00 0.  1.
         21   -1    0    0  504  502 -0.00000000000E+00 -0.00000000000E+00 -0.77201297092E+02  0.77201297092E+02  0.00000000000E+00 0. -1.
         21    1    1    2  503  502 -0.18490201129E+02  0.79993139624E+01  0.46767468354E+02  0.50922221652E+02  0.00000000000E+00 0.  1.
         21    1    1    2  504  501  0.18490201129E+02 -0.79993139624E+01 -0.73773230279E+02  0.76474610607E+02  0.00000000000E+00 0. -1.
</event>
<event>
 4    1  0.1571930E+006  0.2385027E+02  0.7546771E-02  0.1482089E+00
         21   -1    0    0  503  501  0.00000000000E+00  0.00000000000E+00  0.49055719974E+02  0.49055719974E+02  0.00000000000E+00 0. -1.
         21   -1    0    0  501  502 -0.00000000000E+00 -0.00000000000E+00 -0.31965008914E+02  0.31965008914E+02  0.00000000000E+00 0. -1.
         21    1    1    2  503  504 -0.20620772737E+02  0.11984118297E+02  0.40883633815E+02  0.47331880098E+02  0.00000000000E+00 0. -1.
         21    1    1    2  504  502  0.20620772737E+02 -0.11984118297E+02 -0.23792922755E+02  0.33688848791E+02  0.00000000000E+00 0. -1.
</event>
<event>
 4    1  0.1571930E+006  0.3578051E+02  0.7546771E-02  0.1375158E+00
         21   -1    0    0  504  501  0.00000000000E+00  0.00000000000E+00  0.20784608494E+03  0.20784608494E+03  0.00000000000E+00 0. -1.
         21   -1    0    0  503  502 -0.00000000000E+00 -0.00000000000E+00 -0.11667560941E+03  0.11667560941E+03  0.00000000000E+00 0.  1.
         21    1    1    2  503  501  0.35723357292E+02 -0.20215588306E+01 -0.11233447061E+03  0.11789520026E+03  0.00000000000E+00 0.  1.
         21    1    1    2  504  502 -0.35723357292E+02  0.20215588306E+01  0.20350494614E+03  0.20662649409E+03  0.00000000000E+00 0. -1.
</event>
<event>
 4    1  0.1571930E+006  0.2071754E+02  0.7546771E-02  0.1523336E+00
         21   -1    0    0  504  501  0.00000000000E+00  0.00000000000E+00  0.10799554354E+01  0.10799554354E+01  0.00000000000E+00 0. -1.
         21   -1    0    0  501  502 -0.00000000000E+00 -0.00000000000E+00 -0.90928949546E+03  0.90928949546E+03  0.00000000000E+00 0. -1.
         21    1    1    2  503  502 -0.20133387020E+02  0.48850034558E+01 -0.79561845298E+03  0.79588814494E+03  0.00000000000E+00 0. -1.
         21    1    1    2  504  503  0.20133387020E+02 -0.48850034558E+01 -0.11259108704E+03  0.11448130595E+03  0.00000000000E+00 0. -1.
</event>
<event>
 4    1  0.1571930E+006  0.2353333E+02  0.7546771E-02  0.1485908E+00
         21   -1    0    0  504  501  0.00000000000E+00  0.00000000000E+00  0.66314379451E+01  0.66314379451E+01  0.00000000000E+00 0.  1.
         21   -1    0    0  501  502 -0.00000000000E+00 -0.00000000000E+00 -0.67304603007E+03  0.67304603007E+03  0.00000000000E+00 0. -1.
         21    1    1    2  503  502  0.17146737718E+02 -0.16118529682E+02 -0.65126375033E+03  0.65168879851E+03  0.00000000000E+00 0. -1.
         21    1    1    2  504  503 -0.17146737718E+02  0.16118529682E+02 -0.15150841798E+02  0.27988669505E+02  0.00000000000E+00 0.  1.
</event>
<event>
 4    1  0.1571930E+006  0.2239930E+02  0.7546771E-02  0.1500182E+00
         21   -1    0    0  504  501  0.00000000000E+00  0.00000000000E+00  0.17873655222E+03  0.17873655222E+03  0.00000000000E+00 0.  1.
         21   -1    0    0  503  502 -0.00000000000E+00 -0.00000000000E+00 -0.39571608225E+02  0.39571608225E+02  0.00000000000E+00 0.  1.
         21    1    1    2  503  501 -0.58982727036E+00 -0.22391529612E+02  0.17479382360E+03  0.17622318027E+03  0.00000000000E+00 0.  1.
         21    1    1    2  504  502  0.58982727036E+00  0.22391529612E+02 -0.35628879606E+02  0.42084980177E+02  0.00000000000E+00 0.  1.
</event>
<event>
 4    1  0.1571930E+006  0.2851219E+02  0.7546771E-02  0.1432982E+00
         21   -1    0    0  502  501  0.00000000000E+00  0.00000000000E+00  0.89065109469E+03  0.89065109469E+03  0.00000000000E+00 0.  1.
         21   -1    0    0  503  502 -0.00000000000E+00 -0.00000000000E+00 -0.13967570782E+03  0.13967570782E+03  0.00000000000E+00 0. -1.
         21    1    1    2  503  504  0.27138355457E+02 -0.87438316621E+01 -0.13798970267E+03  0.14090458818E+03  0.00000000000E+00 0. -1.
         21    1    1    2  504  501 -0.27138355457E+02  0.87438316621E+01  0.88896508954E+03  0.88942221433E+03  0.00000000000E+00 0.  1.
</event>
<event>
 4    1  0.1571930E+006  0.2220833E+02  0.7546771E-02  0.1502686E+00
         21   -1    0    0  504  501  0.00000000000E+00  0.00000000000E+00  0.87227591148E+02  0.87227591148E+02  0.00000000000E+00 0.  1.
         21   -1    0    0  503  502 -0.00000000000E+00 -0.00000000000E+00 -0.52334181786E+02  0.52334181786E+02  0.00000000000E+00 0.  1.
         21    1    1    2  503  501  0.15349090480E+02 -0.16050395007E+02 -0.48456828938E+02  0.53303602403E+02  0.00000000000E+00 0.  1.
         21    1    1    2  504  502 -0.15349090480E+02  0.16050395007E+02  0.83350238300E+02  0.86258170530E+02  0.00000000000E+00 0.  1.
</event>
<event>
 4    1  0.1571930E+006  0.4161935E+02  0.7546771E-02  0.1339249E+00
         21   -1    0    0  502  501  0.00000000000E+00  0.00000000000E+00  0.92388598322E+03  0.92388598322E+03  0.00000000000E+00 0. -1.
         21   -1    0    0  503  502 -0.00000000000E+00 -0.00000000000E+00 -0.23727048257E+02  0.23727048257E+02  0.00000000000E+00 0.  1.
         21    1    1    2  503  504 -0.26728849519E+02 -0.31902019099E+02 -0.46221458709E+01  0.41875224795E+02  0.00000000000E+00 0.  1.
         21    1    1    2  504  501  0.26728849519E+02  0.31902019099E+02  0.90478108083E+03  0.90573780668E+03  0.00000000000E+00 0. -1.
</event>
<event>
 4    1  0.1571930E+006  0.2293728E+02  0.7546771E-02  0.1493287E+00
         21   -1    0    0  504  501  0.00000000000E+00  0.00000000000E+00  0.26045702270E+02  0.26045702270E+02  0.00000000000E+00 0. -1.
         21   -1    0    0  503  502 -0.00000000000E+00 -0.00000000000E+00 -0.69134892456E+02  0.69134892456E+02  0.00000000000E+00 0. -1.
         21    1    1    2  503  501 -0.75105592580E+01 -0.21672804207E+02  0.18494090764E+02  0.29464390978E+02  0.00000000000E+00 0. -1.
         21    1    1    2  504  502  0.75105592580E+01  0.21672804207E+02 -0.61583280950E+02  0.65716203748E+02  0.00000000000E+00 0. -1.
</event>
<event>
 4    1  0.1571930E+006  0.2202044E+02  0.7546771E-02  0.1505179E+00
         21   -1    0    0  504  501  0.00000000000E+00  0.00000000000E+00  0.47042322746E+02  0.47042322746E+02  0.00000000000E+00 0.  1.
         21   -1    0    0  503  502 -0.00000000000E+00 -0.00000000000E+00 -0.19904127868E+02  0.19904127868E+02  0.00000000000E+00 0. -1.
         21    1    1    2  503  501  0.21241077040E+02 -0.58065926904E+01 -0.96732483121E+01  0.24051436659E+02  0.00000000000E+00 0. -1.
         21    1    1    2  504  502 -0.21241077040E+02  0.58065926904E+01  0.36811443190E+02  0.42895013955E+02  0.00000000000E+00 0.  1.
</event>
<event>
 4    1  0.1571930E+006  0.2903725E+02  0.7546771E-02  0.1428151E+00
         21   -1    0    0  504  501  0.00000000000E+00  0.00000000000E+00  0.19073691868E+03  0.19073691868E+03  0.00000000000E+00 0.  1.
         21   -1    0    0  503  502 -0.00000000000E+00 -0.00000000000E+00 -0.47246670765E+01  0.47246670765E+01  0.00000000000E+00 0.  1.
         21    1    1    2  503  501 -0.19217964669E+02  0.21767672775E+02  0.11780131917E+03  0.12132729513E+03  0.00000000000E+00 0.  1.
         21    1    1    2  504  502  0.19217964669E+02 -0.21767672775E+02  0.68210932434E+02  0.74134290632E+02  0.00000000000E+00 0.  1.
</event>
<event>
 4    1  0.1571930E+006  0.2094907E+02  0.7546771E-02  0.1519993E+00
         21   -1    0    0  503  501  0.00000000000E+00  0.00000000000E+00  0.13091446108E+02  0.13091446108E+02  0.00000000000E+00 0.  1.
         21   -1    0    0  504  502 -0.00000000000E+00 -0.00000000000E+00 -0.37533729696E+02  0.37533729696E+02  0.00000000000E+00 0.  1.
         21    1    1    2  503  502  0.81525371729E+01 -0.19297658681E+02 -0.39466420414E+01  0.21317586081E+02  0.00000000000E+00 0.  1.
         21    1    1    2  504  501 -0.81525371729E+01  0.19297658681E+02 -0.20495641547E+02  0.29307589723E+02  0.00000000000E+00 0.  1.
</event>
<event>
 4    1  0.1571930E+006  0.2061920E+02  0.7546771E-02  0.1524772E+00
         21   -1    0    0  504  501  0.00000000000E+00  0.00000000000E+00  0.14343180779E+03  0.14343180779E+03  0.00000000000E+00 0.  1.
         21   -1    0    0  503  502 -0.00000000000E+00 -0.00000000000E+00 -0.35021257636E+02  0.35021257636E+02  0.00000000000E+00 0. -1.
         21    1    1    2  503  501 -0.14050467976E+02 -0.15090920951E+02 -0.31161800287E+02  0.37365884743E+02  0.00000000000E+00 0. -1.
         21    1    1    2  504  502  0.14050467976E+02  0.15090920951E+02  0.13957235044E+03  0.14108718068E+03  0.00000000000E+00 0.  1.
</event>
<event>
 4    1  0.1571930E+006  0.2565660E+02  0.7546771E-02  0.1461590E+00
         21   -1    0    0  504  501  0.00000000000E+00  0.00000000000E+00  0.32365598796E+02  0.32365598796E+02  0.00000000000E+00 0.  1.
         21   -1    0    0  501  502 -0.00000000000E+00 -0.00000000000E+00 -0.39054935653E+02  0.39054935653E+02  0.00000000000E+00 0.  1.
         21    1    1    2  503  502  0.25214550376E+02 -0.47420969330E+01 -0.28065843500E+02  0.38025683496E+02  0.00000000000E+00 0.  1.
         21    1    1    2  504  503 -0.25214550376E+02  0.47420969330E+01  0.21376506643E+02  0.33394850954E+02  0.00000000000E+00 0.  1.
</event>
<event>
 4    1  0.1571930E+006  0.2615010E+02  0.7546771E-02  0.1456337E+00
         21   -1    0    0  504  501  0.00000000000E+00  0.00000000000E+00  0.52299339349E+03  0.52299339349E+03  0.00000000000E+00 0.  1.
         21   -1    0    0  503  502 -0.00000000000E+00 -0.00000000000E+00 -0.14263782934E+01  0.14263782934E+01  0.00000000000E+00 0.  1.
         21    1    1    2  503  501  0.11583026207E+02  0.23444853534E+02  0.18509415196E+03  0.18693226780E+03  0.00000000000E+00 0.  1.
         21    1    1    2  504  502 -0.11583026207E+02 -0.23444853534E+02  0.33647286324E+03  0.33748750399E+03  0.00000000000E+00 0.  1.
</event>
<event>
 4    1  0.1571930E+006  0.2263750E+02  0.7546771E-02  0.1497101E+00
         21   -1    0    0  504  501  0.00000000000E+00  0.00000000000E+00  0.28759088734E+01  0.28759088734E+01  0.00000000000E+00 0. -1.
         21   -1    0    0  503  502 -0.00000000000E+00 -0.00000000000E+00 -0.19646273362E+03  0.19646273362E+03  0.00000000000E+00 0. -1.
         21    1    1    2  503  501 -0.22416553881E+02  0.31550941722E+01 -0.66396450767E+02  0.70149448904E+02  0.00000000000E+00 0. -1.
         21    1    1    2  504  502  0.22416553881E+02 -0.31550941722E+01 -0.12719037398E+03  0.12918919359E+03  0.00000000000E+00 0. -1.
</event>
<event>
 4    1  0.1571930E+006  0.3312306E+02  0.7546771E-02  0.1394261E+00
         21   -1    0    0  502  501  0.00000000000E+00  0.00000000000E+00  0.80029692612E+02  0.80029692612E+02  0.00000000000E+00 0. -1.
         21   -1    0    0  504  502 -0.00000000000E+00 -0.00000000000E+00 -0.16341806904E+02  0.16341806904E+02  0.00000000000E+00 0. -1.
         21    1    1    2  503  501  0.31979922683E+02  0.86268042367E+01  0.51184439709E+02  0.60967073691E+02  0.00000000000E+00 0. -1.
         21    1    1    2  504  503 -0.31979922683E+02 -0.86268042367E+01  0.12503445999E+02  0.35404425825E+02  0.00000000000E+00 0. -1.
</event>
<event>
 4    1  0.1571930E+006  0.3784720E+02  0.7546771E-02  0.1361585E+00
         21   -1    0    0  503  501  0.00000000000E+00  0.00000000000E+00  0.55039328855E+02  0.55039328855E+02  0.00000000000E+00 0.  1.
         21   -1    0    0  504  502 -0.00000000000E+00 -0.00000000000E+00 -0.97785345759E+02  0.97785345759E+02  0.00000000000E+00 0. -1.
         21    1    1    2  503  502  0.21220368980E+02 -0.31338582213E+02 -0.86831830147E+02  0.94721578964E+02  0.00000000000E+00 0. -1.
         21    1    1    2  504  501 -0.21220368980E+02  0.31338582213E+02  0.44085813242E+02  0.58103095650E+02  0.00000000000E+00 0.  1.
</event>
<event>
 4    1  0.1571930E+006  0.2304741E+02  0.7546771E-02  0.1491904E+00
         21   -1    0    0  504  501  0.00000000000E+00  0.00000000000E+00  0.16585585830E+01  0.16585585830E+01  0.00000000000E+00 0. -1.
         21   -1    0    0  503  502 -0.00000000000E+00 -0.00000000000E+00 -0.39323141949E+03  0.39323141949E+03  0.00000000000E+00 0. -1.
         21    1    1    2  503  501  0.31612423555E+01 -0.22829579687E+02 -0.11073634762E+03  0.11310933580E+03  0.00000000000E+00 0. -1.
         21    1    1    2  504  502 -0.31612423555E+01  0.22829579687E+02 -0.28083651329E+03  0.28178064227E+03  0.00000000000E+00 0. -1.
</event>
<event>
 4    1  0.1571930E+006  0.2068048E+02  0.7546771E-02  0.1523876E+00
         21   -1    0    0  503  501  0.00000000000E+00  0.00000000000E+00  0.27859054682E+02  0.27859054682E+02  0.00000000000E+00 0.  1.
         21   -1    0    0  504  502 -0.00000000000E+00 -0.00000000000E+00 -0.35372195018E+02  0.35372195018E+02  0.00000000000E+00 0. -1.
         21    1    1    2  503  502  0.20679819843E+02 -0.16515893384E+00 -0.27541879400E+02  0.34441796514E+02  0.00000000000E+00 0. -1.
         21    1    1    2  504  501 -0.20679819843E+02  0.16515893384E+00  0.20028739064E+02  0.28789453186E+02  0.00000000000E+00 0.  1.
</event>
<event>
 4    1  0.1571930E+006  0.2453545E+02  0.7546771E-02  0.1474068E+00
         21   -1    0    0  503  501  0.00000000000E+00  0.00000000000E+00  0.88097451114E+01  0.88097451114E+01  0.00000000000E+00 0.  1.
         21   -1    0    0  501  502 -0.00000000000E+00 -0.00000000000E+00 -0.68952513552E+02  0.68952513552E+02  0.00000000000E+00 0.  1.
         21    1    1    2  503  504  0.79435745247E+01  0.23213958486E+02 -0.33759546186E+02  0.41733621979E+02  0.00000000000E+00 0.  1.
         21    1    1    2  504  502 -0.79435745247E+01 -0.23213958486E+02 -0.26383222254E+02  0.36028636684E+02  0.00000000000E+00 0.  1.
</event>
<event>
 4    1  0.1571930E+006  0.3807167E+02  0.7546771E-02  0.1360172E+00
         21   -1    0    0  503  501  0.00000000000E+00  0.00000000000E+00  0.35623899117E+03  0.35623899117E+03  0.00000000000E+00 0.  1.
         21   -1    0    0  504  502 -0.00000000000E+00 -0.00000000000E+00 -0.63043030206E+01  0.63043030206E+01  0.00000000000E+00 0.  1.
         21    1    1    2  503  502  0.83027866804E+01  0.37155294545E+02  0.67022345758E+02  0.77080782366E+02  0.00000000000E+00 0.  1.
         21    1    1    2  504  501 -0.83027866804E+01 -0.37155294545E+02  0.28291234239E+03  0.28546251182E+03  0.00000000000E+00 0.  1.
</event>
<event>
 4    1  0.1571930E+006  0.2198028E+02  0.7546771E-02  0.1505716E+00
         21   -1    0    0  502  501  0.00000000000E+00  0.00000000000E+00  0.20914625607E+03  0.20914625607E+03  0.00000000000E+00 0.  1.
         21   -1    0    0  504  502 -0.00000000000E+00 -0.00000000000E+00 -0.55656675609E+01  0.55656675609E+01  0.00000000000E+00 0. -1.
         21    1    1    2  503  501  0.21352807299E+02 -0.52144500430E+01  0.18389838661E+03  0.18520731483E+03  0.00000000000E+00 0.  1.
         21    1    1    2  504  503 -0.21352807299E+02  0.52144500430E+01  0.19682201895E+02  0.29504608796E+02  0.00000000000E+00 0. -1.
</event>
<event>
 4    1  0.1571930E+006  0.2726098E+02  0.7546771E-02  0.1445004E+00
         21   -1    0    0  503  501  0.00000000000E+00  0.00000000000E+00  0.34521625802E+03  0.34521625802E+03  0.00000000000E+00 0. -1.
         21   -1    0    0  504  502 -0.00000000000E+00 -0.00000000000E+00 -0.23068378695E+01  0.23068378695E+01  0.00000000000E+00 0. -1.
         21    1    1    2  503  502 -0.26880494930E+02 -0.45387448028E+01  0.12654482240E+03  0.12944787866E+03  0.00000000000E+00 0. -1.
         21    1    1    2  504  501  0.26880494930E+02  0.45387448028E+01  0.21636459775E+03  0.21807521724E+03  0.00000000000E+00 0. -1.
</event>
<event>
 4    1  0.1571930E+006  0.2030063E+02  0.7546771E-02  0.1529489E+00
         21   -1    0    0  504  501  0.00000000000E+00  0.00000000000E+00  0.13445479759E+03  0.13445479759E+03  0.00000000000E+00 0.  1.
         21   -1    0    0  501  502 -0.00000000000E+00 -0.00000000000E+00 -0.17580860926E+02  0.17580860926E+02  0.00000000000E+00 0.  1.
         21    1    1    2  503  502  0.19005101998E+02 -0.71359532138E+01 -0.10637171244E+02  0.22918663624E+02  0.00000000000E+00 0.  1.
         21    1    1    2  504  503 -0.19005101998E+02  0.71359532138E+01  0.12751110791E+03  0.12911699490E+03  0.00000000000E+00 0.  1.
</event>
<event>
 4    1  0.1571930E+006  0.2233681E+02  0.7546771E-02  0.1500998E+00
         21   -1    0    0  503  501  0.00000000000E+00  0.00000000000E+00  0.92174387107E+00  0.92174387107E+00  0.00000000000E+00 0.  1.
         21   -1    0    0  504  502 -0.00000000000E+00 -0.00000000000E+00 -0.11600769144E+04  0.11600769144E+04  0.00000000000E+00 0. -1.
         21    1    1    2  503  502 -0.45543373142E+01 -0.21867579280E+02 -0.15561451799E+03  0.15720945017E+03  0.00000000000E+00 0.  1.
         21    1    1    2  504  501  0.45543373142E+01  0.21867579280E+02 -0.10035406526E+04  0.10037892081E+04  0.00000000000E+00 0. -1.
</event>
<event>
 4    1  0.1571930E+006  0.2126445E+02  0.7546771E-02  0.1515522E+00
         21   -1    0    0  504  501  0.00000000000E+00  0.00000000000E+00  0.13688429084E+03  0.13688429084E+03  0.00000000000E+00 0.  1.
         21   -1    0    0  501  502 -0.00000000000E+00 -0.00000000000E+00 -0.70170829734E+01  0.70170829734E+01  0.00000000000E+00 0. -1.
         21    1    1    2  503  502 -0.86014779033E+01 -0.19447146271E+02  0.12590208554E+02  0.24712148260E+02  0.00000000000E+00 0. -1.
         21    1    1    2  504  503  0.86014779033E+01  0.19447146271E+02  0.11727699931E+03  0.11918922555E+03  0.00000000000E+00 0.  1.
</event>
<event>
 4    1  0.1571930E+006  0.3600016E+02  0.7546771E-02  0.1373665E+00
         21   -1    0    0  502  501  0.00000000000E+00  0.00000000000E+00  0.70443777875E+01  0.70443777875E+01  0.00000000000E+00 0.  1.
         21   -1    0    0  504  502 -0.00000000000E+00 -0.00000000000E+00 -0.73478100916E+03  0.73478100916E+03  0.00000000000E+00 0.  1.
         21    1    1    2  503  501 -0.34564725375E+02  0.10064361048E+02 -0.42730960028E+02  0.55874381862E+02  0.00000000000E+00 0.  1.
         21    1    1    2  504  503  0.34564725375E+02 -0.10064361048E+02 -0.68500567135E+03  0.68595100509E+03  0.00000000000E+00 0.  1.
</event>
<event>
 4    1  0.1571930E+006  0.4497502E+02  0.7546771E-02  0.1321564E+00
         21   -1    0    0  503  501  0.00000000000E+00  0.00000000000E+00  0.49641444831E+03  0.49641444831E+03  0.00000000000E+00 0.  1.
         21   -1    0    0  501  502 -0.00000000000E+00 -0.00000000000E+00 -0.20115242379E+03  0.20115242379E+03  0.00000000000E+00 0. -1.
         21    1    1    2  503  504 -0.44041188943E+02 -0.91173408333E+01  0.49286373896E+03  0.49491152483E+03  0.00000000000E+00 0.  1.
         21    1    1    2  504  502  0.44041188943E+02  0.91173408333E+01 -0.19760171444E+03  0.20265534727E+03  0.00000000000E+00 0. -1.
</event>
<event>
 4    1  0.1571930E+006  0.2402165E+02  0.7546771E-02  0.1480053E+00
         21   -1    0    0  503  501  0.00000000000E+00  0.00000000000E+00  0.35679990664E+02  0.35679990664E+02  0.00000000000E+00 0. -1.
         21   -1    0    0  504  502 -0.00000000000E+00 -0.00000000000E+00 -0.17218267045E+02  0.17218267045E+02  0.00000000000E+00 0. -1.
         21    1    1    2  503  502  0.23482056931E+02 -0.50628743638E+01  0.27130057725E+01  0.24174368552E+02  0.00000000000E+00 0. -1.
         21    1    1    2  504  501 -0.23482056931E+02  0.50628743638E+01  0.15748717846E+02  0.28723889158E+02  0.00000000000E+00 0. -1.
</event>
<event>
 4    1  0.1571930E+006  0.2322270E+02  0.7546771E-02  0.1489721E+00
         21   -1    0    0  502  501  0.00000000000E+00  0.00000000000E+00  0.70975899669E+03  0.70975899669E+03  0.00000000000E+00 0.  1.
         21   -1    0    0  503  502 -0.00000000000E+00 -0.00000000000E+00 -0.32326623205E+01  0.32326623205E+01  0.00000000000E+00 0.  1.
         21    1    1    2  503  504  0.62693245933E+01 -0.22360438911E+02  0.41466169578E+02  0.47526170460E+02  0.00000000000E+00 0.  1.
         21    1    1    2  504  501 -0.62693245933E+01  0.22360438911E+02  0.66506016479E+03  0.66546548855E+03  0.00000000000E+00 0.  1.
</event>
<event>
 4    1  0.1571930E+006  0.2355260E+02  0.7546771E-02  0.1485673E+00
         21   -1    0    0  504  501  0.00000000000E+00  0.00000000000E+00  0.26697190409E+03  0.26697190409E+03  0.00000000000E+00 0. -1.
         21   -1    0    0  503  502 -0.00000000000E+00 -0.00000000000E+00 -0.22398921087E+01  0.22398921087E+01  0.00000000000E+00 0. -1.
         21    1    1    2  503  501 -0.71663198398E+01  0.22435886232E+02  0.16857168775E+03  0.17020910387E+03  0.00000000000E+00 0. -1.
         21    1    1    2  504  502  0.71663198398E+01 -0.22435886232E+02  0.96160324238E+02  0.99002692330E+02  0.00000000000E+00 0. -1.
</event>
<event>
 4    1  0.1571930E+006  0.2092603E+02  0.7546771E-02  0.1520324E+00
         21   -1    0    0  503  501  0.00000000000E+00  0.00000000000E+00  0.14403307732E+03  0.14403307732E+03  0.00000000000E+00 0. -1.
         21   -1    0    0  501  502 -0.00000000000E+00 -0.00000000000E+00 -0.95611340767E+01  0.95611340767E+01  0.00000000000E+00 0.  1.
         21    1    1    2  503  504 -0.14818428756E+02  0.14775409339E+02  0.13065840906E+03  0.13232353687E+03  0.00000000000E+00 0. -1.
         21    1    1    2  504  502  0.14818428756E+02 -0.14775409339E+02  0.38135341864E+01  0.21270674529E+02  0.00000000000E+00 0.  1.
</event>
<event>
 4    1  0.1571930E+006  0.2245645E+02  0.7546771E-02  0.1499439E+00
         21   -1    0    0  503  501  0.00000000000E+00  0.00000000000E+00  0.92348640609E+02  0.92348640609E+02  0.00000000000E+00 0. -1.
         21   -1    0    0  504  502 -0.00000000000E+00 -0.00000000000E+00 -0.37487958364E+02  0.37487958364E+02  0.00000000000E+00 0.  1.
         21    1    1    2  503  502 -0.22373997682E+02  0.19226154863E+01 -0.32573745391E+02  0.39564391963E+02  0.00000000000E+00 0.  1.
         21    1    1    2  504  501  0.22373997682E+02 -0.19226154863E+01  0.87434427636E+02  0.90272207011E+02  0.00000000000E+00 0. -1.
</event>
<event>
 4    1  0.1571930E+006  0.2151751E+02  0.7546771E-02  0.1512003E+00
         21   -1    0    0  502  501  0.00000000000E+00  0.00000000000E+00  0.30365294558E+02  0.30365294558E+02  0.00000000000E+00 0.  1.
         21   -1    0    0  504  502 -0.00000000000E+00 -0.00000000000E+00 -0.23206903370E+02  0.23206903370E+02  0.00000000000E+00 0.  1.
         21    1    1    2  503  501  0.21895349599E+01  0.21405818048E+02  0.19265971385E+02  0.28882187643E+02  0.00000000000E+00 0.  1.
         21    1    1    2  504  503 -0.21895349599E+01 -0.21405818048E+02 -0.12107580197E+02  0.24690010285E+02  0.00000000000E+00 0.  1.
</event>
<event>
 4    1  0.1571930E+006  0.3557043E+02  0.7546771E-02  0.1376597E+00
         21   -1    0    0  504  501  0.00000000000E+00  0.00000000000E+00  0.27538955317E+02  0.27538955317E+02  0.00000000000E+00 0. -1.
         21   -1    0    0  503  502 -0.00000000000E+00 -0.00000000000E+00 -0.10349159751E+03  0.10349159751E+03  0.00000000000E+00 0.  1.
         21    1    1    2  503  501  0.14347831974E+02 -0.32548346705E+02 -0.86830632027E+02  0.93833969402E+02  0.00000000000E+00 0.  1.
         21    1    1    2  504  502 -0.14347831974E+02  0.32548346705E+02  0.10877989835E+02  0.37196583424E+02  0.00000000000E+00 0. -1.
</event>
<event>
 4    1  0.1571930E+006  0.4912306E+02  0.7546771E-02  0.1302020E+00
         21   -1    0    0  502  501  0.00000000000E+00  0.00000000000E+00  0.15338959568E+03  0.15338959568E+03  0.00000000000E+00 0. -1.
         21   -1    0    0  504  502 -0.00000000000E+00 -0.00000000000E+00 -0.21511236317E+02  0.21511236317E+02  0.00000000000E+00 0. -1.
         21    1    1    2  503  501 -0.39219889406E+02  0.29578290333E+02  0.11126823845E+03  0.12162933804E+03  0.00000000000E+00 0. -1.
         21    1    1    2  504  503  0.39219889406E+02 -0.29578290333E+02  0.20610120906E+02  0.53271493951E+02  0.00000000000E+00 0. -1.
</event>
<event>
 4    1  0.1571930E+006  0.2335816E+02  0.7546771E-02  0.1488049E+00
         21   -1    0    0  504  501  0.00000000000E+00  0.00000000000E+00  0.17759311510E+03  0.17759311510E+03  0.00000000000E+00 0. -1.
         21   -1    0    0  501  502 -0.00000000000E+00 -0.00000000000E+00 -0.80609903539E+02  0.80609903539E+02  0.00000000000E+00 0.  1.
         21    1    1    2  503  502 -0.57677413064E+01 -0.22634855190E+02 -0.78125842044E+02  0.81542937796E+02  0.00000000000E+00 0.  1.
         21    1    1    2  504  503  0.57677413064E+01  0.22634855190E+02  0.17510905360E+03  0.17666008084E+03  0.00000000000E+00 0. -1.
</event>
<event>
 4    1  0.1571930E+006  0.2300533E+02  0.7546771E-02  0.1492431E+00
         21   -1    0    0  502  501  0.00000000000E+00  0.00000000000E+00  0.49608161180E+01  0.49608161180E+01  0.00000000000E+00 0. -1.
         21   -1    0    0  503  502 -0.00000000000E+00 -0.00000000000E+00 -0.21751607965E+03  0.21751607965E+03  0.00000000000E+00 0.  1.
         21    1    1    2  503  504  0.78991465290E+01  0.21606683357E+02 -0.18568115559E+03  0.18710087339E+03  0.00000000000E+00 0.  1.
         21    1    1    2  504  501 -0.78991465290E+01 -0.21606683357E+02 -0.26874107934E+02  0.35376022371E+02  0.00000000000E+00 0. -1.
</event>
<event>
 4    1  0.1571930E+006  0.2138972E+02  0.7546771E-02  0.1513773E+00
         21   -1    0    0  504  501  0.00000000000E+00  0.00000000000E+00  0.10766320496E+04  0.10766320496E+04  0.00000000000E+00 0. -1.
         21   -1    0    0  503  502 -0.00000000000E+00 -0.00000000000E+00 -0.98599125990E+00  0.98599125990E+00  0.00000000000E+00 0. -1.
         21    1    1    2  503  501  0.12376975746E+02  0.17445075158E+02  0.94426054608E+03  0.94450277875E+03  0.00000000000E+00 0. -1.
         21    1    1    2  504  502 -0.12376975746E+02 -0.17445075158E+02  0.13138551230E+03  0.13311526215E+03  0.00000000000E+00 0. -1.
</event>
<event>
 4    1  0.1571930E+006  0.2013584E+02  0.7546771E-02  0.1531969E+00
         21   -1    0    0  502  501  0.00000000000E+00  0.00000000000E+00  0.37923318573E+03  0.37923318573E+03  0.00000000000E+00 0. -1.
         21   -1    0    0  503  502 -0.00000000000E+00 -0.00000000000E+00 -0.78662961754E+03  0.78662961754E+03  0.00000000000E+00 0. -1.
         21    1    1    2  503  504  0.10416924718E+02  0.17231944828E+02 -0.78623334117E+03  0.78649114364E+03  0.00000000000E+00 0. -1.
         21    1    1    2  504  501 -0.10416924718E+02 -0.17231944828E+02  0.37883690936E+03  0.37937165964E+03  0.00000000000E+00 0. -1.
</event>
<event>
 4    1  0.1571930E+006  0.2003835E+02  0.7546771E-02  0.1533450E+00
         21   -1    0    0  504  501  0.00000000000E+00  0.00000000000E+00  0.15887758923E+03  0.15887758923E+03  0.00000000000E+00 0. -1.
         21   -1    0    0  503  502 -0.00000000000E+00 -0.00000000000E+00 -0.44835444372E+01  0.44835444372E+01  0.00000000000E+00 0.  1.
         21    1    1    2  503  501  0.18864666457E+02 -0.67571948831E+01  0.23243876248E+02  0.30688973691E+02  0.00000000000E+00 0.  1.
         21    1    1    2  504  502 -0.18864666457E+02  0.67571948831E+01  0.13115016855E+03  0.13267215998E+03  0.00000000000E+00 0. -1.
</event>
<event>
 4    1  0.1571930E+006  0.6256848E+02  0.7546771E-02  0.1251347E+00
         21   -1    0    0  504  501  0.00000000000E+00  0.00000000000E+00  0.21271693396E+03  0.21271693396E+03  0.00000000000E+00 0. -1.
         21   -1    0    0  503  502 -0.00000000000E+00 -0.00000000000E+00 -0.39293475145E+02  0.39293475145E+02  0.00000000000E+00 0. -1.
         21    1    1    2  503  501  0.20446998806E+02 -0.59133196233E+02  0.17858589044E+03  0.18922931835E+03  0.00000000000E+00 0. -1.
         21    1    1    2  504  502 -0.20446998806E+02  0.59133196233E+02 -0.51624316241E+01  0.62781090761E+02  0.00000000000E+00 0. -1.
</event>
<event>
 4    1  0.1571930E+006  0.3720369E+02  0.7546771E-02  0.1365700E+00
         21   -1    0    0  504  501  0.00000000000E+00  0.00000000000E+00  0.16168383952E+03  0.16168383952E+03  0.00000000000E+00 0.  1.
         21   -1    0    0  501  502 -0.00000000000E+00 -0.00000000000E+00 -0.10734162902E+02  0.10734162902E+02  0.00000000000E+00 0.  1.
         21    1    1    2  503  502  0.31970702298E+02  0.19025996584E+02  0.36681928347E+02  0.52246322538E+02  0.00000000000E+00 0.  1.
         21    1    1    2  504  503 -0.31970702298E+02 -0.19025996584E+02  0.11426774827E+03  0.12017167988E+03  0.00000000000E+00 0.  1.
</event>
<event>
 4    1  0.1571930E+006  0.2034968E+02  0.7546771E-02  0.1528756E+00
         21   -1    0    0  503  501  0.00000000000E+00  0.00000000000E+00  0.60373548367E+02  0.60373548367E+02  0.00000000000E+00 0.  1.
         21   -1    0    0  501  502 -0.00000000000E+00 -0.00000000000E+00 -0.12735962664E+02  0.12735962664E+02  0.00000000000E+00 0.  1.
         21    1    1    2  503  504 -0.19157733514E+02  0.68622576579E+01  0.48650128227E+02  0.52734659476E+02  0.00000000000E+00 0.  1.
         21    1    1    2  504  502  0.19157733514E+02 -0.68622576579E+01 -0.10125425226E+01  0.20374851555E+02  0.00000000000E+00 0.  1.
</event>
<event>
 4    1  0.1571930E+006  0.2366946E+02  0.7546771E-02  0.1484259E+00
         21   -1    0    0  503  501  0.00000000000E+00  0.00000000000E+00  0.97685896727E+03  0.97685896727E+03  0.00000000000E+00 0. -1.
         21   -1    0    0  504  502 -0.00000000000E+00 -0.00000000000E+00 -0.59872505304E+01  0.59872505304E+01  0.00000000000E+00 0. -1.
         21    1    1    2  503  502 -0.21999302711E+02  0.87334956127E+01  0.95273004445E+03  0.95302401904E+03  0.00000000000E+00 0. -1.
         21    1    1    2  504  501  0.21999302711E+02 -0.87334956127E+01  0.18141672281E+02  0.29822198754E+02  0.00000000000E+00 0. -1.
</event>
<event>
 4    1  0.1571930E+006  0.2164214E+02  0.7546771E-02  0.1510291E+00
         21   -1    0    0  503  501  0.00000000000E+00  0.00000000000E+00  0.32327023673E+02  0.32327023673E+02  0.00000000000E+00 0.  1.
         21   -1    0    0  504  502 -0.00000000000E+00 -0.00000000000E+00 -0.57205061978E+03  0.57205061978E+03  0.00000000000E+00 0.  1.
         21    1    1    2  503  502  0.19478319334E+02  0.94327798925E+01 -0.56819916239E+03  0.56861117682E+03  0.00000000000E+00 0.  1.
         21    1    1    2  504  501 -0.19478319334E+02 -0.94327798925E+01  0.28475566282E+02  0.35766466636E+02  0.00000000000E+00 0.  1.
</event>
<event>
 4    1  0.1571930E+006  0.2568828E+02  0.7546771E-02  0.1461249E+00
         21   -1    0    0  503  501  0.00000000000E+00  0.00000000000E+00  0.22425437423E+03  0.22425437423E+03  0.00000000000E+00 0. -1.
         21   -1    0    0  504  502 -0.00000000000E+00 -0.00000000000E+00 -0.20995096576E+03  0.20995096576E+03  0.00000000000E+00 0.  1.
         21    1    1    2  503  502 -0.22159632952E+02 -0.12993789619E+02  0.22272759473E+03  0.22420407970E+03  0.00000000000E+00 0. -1.
         21    1    1    2  504  501  0.22159632952E+02  0.12993789619E+02 -0.20842418626E+03  0.21000126028E+03  0.00000000000E+00 0.  1.
</event>
<event>
 4    1  0.1571930E+006  0.2170096E+02  0.7546771E-02  0.1509488E+00
         21   -1    0    0  503  501  0.00000000000E+00  0.00000000000E+00  0.53989203228E+03  0.53989203228E+03  0.00000000000E+00 0.  1.
         21   -1    0    0  501  502 -0.00000000000E+00 -0.00000000000E+00 -0.79548630688E+01  0.79548630688E+01  0.00000000000E+00 0.  1.
         21    1    1    2  503  504  0.18812062146E+02 -0.10818411055E+02  0.52443790189E+03  0.52488669696E+03  0.00000000000E+00 0.  1.
         21    1    1    2  504  502 -0.18812062146E+02  0.10818411055E+02  0.74992673195E+01  0.22960198394E+02  0.00000000000E+00 0.  1.
</event>
<event>
 4    1  0.1571930E+006  0.4124183E+02  0.7546771E-02  0.1341358E+00
         21   -1    0    0  503  501  0.00000000000E+00  0.00000000000E+00  0.28955064226E+01  0.28955064226E+01  0.00000000000E+00 0.  1.
         21   -1    0    0  501  502 -0.00000000000E+00 -0.00000000000E+00 -0.97465223333E+03  0.97465223333E+03  0.00000000000E+00 0. -1.
         21    1    1    2  503  504 -0.36600374671E+02 -0.19007924691E+02 -0.17779595159E+03  0.18251654454E+03  0.00000000000E+00 0.  1.
         21    1    1    2  504  502  0.36600374671E+02  0.19007924691E+02 -0.79396077532E+03  0.79503119522E+03  0.00000000000E+00 0. -1.
</event>
<event>
 4    1  0.1571930E+006  0.2268566E+02  0.7546771E-02  0.1496484E+00
         21   -1    0    0  504  501  0.00000000000E+00  0.00000000000E+00  0.79560911773E+02  0.79560911773E+02  0.00000000000E+00 0.  1.
         21   -1    0    0  503  502 -0.00000000000E+00 -0.00000000000E+00 -0.16241543708E+03  0.16241543708E+03  0.00000000000E+00 0. -1.
         21    1    1    2  503  501 -0.17355654183E+02  0.14608911840E+02  0.77127145948E+02  0.80394251532E+02  0.00000000000E+00 0.  1.
         21    1    1    2  504  502  0.17355654183E+02 -0.14608911840E+02 -0.15998167126E+03  0.16158209733E+03  0.00000000000E+00 0. -1.
</event>
<event>
 4    1  0.1571930E+006  0.3407324E+02  0.7546771E-02  0.1387198E+00
         21   -1    0    0  503  501  0.00000000000E+00  0.00000000000E+00  0.44448861726E+03  0.44448861726E+03  0.00000000000E+00 0.  1.
         21   -1    0    0  501  502 -0.00000000000E+00 -0.00000000000E+00 -0.36453791342E+02  0.36453791342E+02  0.00000000000E+00 0. -1.
         21    1    1    2  503  504  0.33383591106E+02  0.68206815117E+01  0.43571348128E+03  0.43704373193E+03  0.00000000000E+00 0.  1.
         21    1    1    2  504  502 -0.33383591106E+02 -0.68206815117E+01 -0.27678655358E+02  0.43898676675E+02  0.00000000000E+00 0. -1.
</event>
<event>
 4    1  0.1571930E+006  0.2444068E+02  0.7546771E-02  0.1475159E+00
         21   -1    0    0  504  501  0.00000000000E+00  0.00000000000E+00  0.20926939847E+03  0.20926939847E+03  0.00000000000E+00 0. -1.
         21   -1    0    0  503  502 -0.00000000000E+00 -0.00000000000E+00 -0.99614464937E+01  0.99614464937E+01  0.00000000000E+00 0. -1.
         21    1    1    2  503  501  0.23307909979E+01 -0.24329283633E+02  0.19224179640E+03  0.19378920226E+03  0.00000000000E+00 0. -1.
         21    1    1    2  504  502 -0.23307909979E+01  0.24329283633E+02  0.70661555726E+01  0.25441642702E+02  0.00000000000E+00 0. -1.
</event>
<event>
 4    1  0.1571930E+006  0.3111104E+02  0.7546771E-02  0.1410181E+00
         21   -1    0    0  503  501  0.00000000000E+00  0.00000000000E+00  0.38289597630E+02  0.38289597630E+02  0.00000000000E+00 0.  1.
         21   -1    0    0  504  502 -0.00000000000E+00 -0.00000000000E+00 -0.30427719057E+02  0.30427719057E+02  0.00000000000E+00 0.  1.
         21    1    1    2  503  502 -0.13581240490E+02  0.27990123576E+02  0.18065402557E+02  0.35975767964E+02  0.00000000000E+00 0.  1.
         21    1    1    2  504  501  0.13581240490E+02 -0.27990123576E+02 -0.10203523985E+02  0.32741548723E+02  0.00000000000E+00 0.  1.
</event>
<event>
 4    1  0.1571930E+006  0.2903603E+02  0.7546771E-02  0.1428162E+00
         21   -1    0    0  504  501  0.00000000000E+00  0.00000000000E+00  0.90220914150E+02  0.90220914150E+02  0.00000000000E+00 0.  1.
         21   -1    0    0  503  502 -0.00000000000E+00 -0.00000000000E+00 -0.44986643379E+02  0.44986643379E+02  0.00000000000E+00 0.  1.
         21    1    1    2  503  501 -0.19583146788E+02  0.21438088887E+02  0.82791234952E+02  0.87735282972E+02  0.00000000000E+00 0.  1.
         21    1    1    2  504  502  0.19583146788E+02 -0.21438088887E+02 -0.37556964181E+02  0.47472274558E+02  0.00000000000E+00 0.  1.
</event>
<event>
 4    1  0.1571930E+006  0.2000352E+02  0.7546771E-02  0.1533982E+00
         21   -1    0    0  502  501  0.00000000000E+00  0.00000000000E+00  0.76559975578E+01  0.76559975578E+01  0.00000000000E+00 0.  1.
         21   -1    0    0  503  502 -0.00000000000E+00 -0.00000000000E+00 -0.63389009563E+02  0.63389009563E+02  0.00000000000E+00 0.  1.
         21    1    1    2  503  504 -0.17861657291E+02  0.90056705687E+01 -0.42747322892E+02  0.47196128209E+02  0.00000000000E+00 0.  1.
         21    1    1    2  504  501  0.17861657291E+02 -0.90056705687E+01 -0.12985689113E+02  0.23848878911E+02  0.00000000000E+00 0.  1.
</event>
<event>
 4    1  0.1571930E+006  0.2522738E+02  0.7546771E-02  0.1466276E+00
         21   -1    0    0  504  501  0.00000000000E+00  0.00000000000E+00  0.19806801035E+03  0.19806801035E+03  0.00000000000E+00 0.  1.
         21   -1    0    0  503  502 -0.00000000000E+00 -0.00000000000E+00 -0.48449663217E+01  0.48449663217E+01  0.00000000000E+00 0.  1.
         21    1    1    2  503  501 -0.19492622981E+02 -0.16014314781E+02  0.15549197676E+03  0.15752515820E+03  0.00000000000E+00 0.  1.
         21    1    1    2  504  502  0.19492622981E+02  0.16014314781E+02  0.37731067269E+02  0.45387818475E+02  0.00000000000E+00 0.  1.
</event>
<event>
 4    1  0.1571930E+006  0.3050736E+02  0.7546771E-02  0.1415238E+00
         21   -1    0    0  502  501  0.00000000000E+00  0.00000000000E+00  0.50961985736E+01  0.50961985736E+01  0.00000000000E+00 0. -1.
         21   -1    0    0  503  502 -0.00000000000E+00 -0.00000000000E+00 -0.55526537224E+03  0.55526537224E+03  0.00000000000E+00 0. -1.
         21    1    1    2  503  504 -0.76488319376E+01  0.29532941689E+02 -0.50461081415E+03  0.50553216815E+03  0.00000000000E+00 0. -1.
         21    1    1    2  504  501  0.76488319376E+01 -0.29532941689E+02 -0.45558359511E+02  0.54829402661E+02  0.00000000000E+00 0. -1.
</event>
<event>
 4    1  0.1571930E+006  0.2222166E+02  0.7546771E-02  0.1502510E+00
         21   -1    0    0  503  501  0.00000000000E+00  0.00000000000E+00  0.41089792148E+02  0.41089792148E+02  0.00000000000E+00 0. -1.
         21   -1    0    0  504  502 -0.00000000000E+00 -0.00000000000E+00 -0.12916898195E+02  0.12916898195E+02  0.00000000000E+00 0. -1.
         21    1    1    2  503  502  0.17623117221E+02 -0.13536175634E+02  0.21211379561E+02  0.30720106352E+02  0.00000000000E+00 0. -1.
         21    1    1    2  504  501 -0.17623117221E+02  0.13536175634E+02  0.69615143923E+01  0.23286583992E+02  0.00000000000E+00 0. -1.
</event>
<event>
 4    1  0.1571930E+006  0.3185057E+02  0.7546771E-02  0.1404169E+00
         21   -1    0    0  504  501  0.00000000000E+00  0.00000000000E+00  0.54195359242E+02  0.54195359242E+02  0.00000000000E+00 0. -1.
         21   -1    0    0  503  502 -0.00000000000E+00 -0.00000000000E+00 -0.25891667887E+02  0.25891667887E+02  0.00000000000E+00 0. -1.
         21    1    1    2  503  501  0.29612241189E+02  0.11729195297E+02  0.35228708788E+02  0.47492323310E+02  0.00000000000E+00 0. -1.
         21    1    1    2  504  502 -0.29612241189E+02 -0.11729195297E+02 -0.69250174334E+01  0.32594703818E+02  0.00000000000E+00 0. -1.
</event>
<event>
 4    1  0.1571930E+006  0.2142507E+02  0.7546771E-02  0.1513282E+00
         21   -1    0    0  502  501  0.00000000000E+00  0.00000000000E+00  0.16773473177E+03  0.16773473177E+03  0.00000000000E+00 0.  1.
         21   -1    0    0  504  502 -0.00000000000E+00 -0.00000000000E+00 -0.46602207531E+02  0.46602207531E+02  0.00000000000E+00 0.  1.
         21    1    1    2  503  501  0.15537967186E+01  0.21368649613E+02  0.16454045212E+03  0.16592948458E+03  0.00000000000E+00 0.  1.
         21    1    1    2  504  503 -0.15537967186E+01 -0.21368649613E+02 -0.43407927874E+02  0.48407454724E+02  0.00000000000E+00 0.  1.
</event>
<event>
 4    1  0.1571930E+006  0.3136190E+02  0.7546771E-02  0.1408119E+00
         21   -1    0    0  503  501  0.00000000000E+00  0.00000000000E+00  0.70807800010E+02  0.70807800010E+02  0.00000000000E+00 0.  1.
         21   -1    0    0  504  502 -0.00000000000E+00 -0.00000000000E+00 -0.11598171661E+03  0.11598171661E+03  0.00000000000E+00 0. -1.
         21    1    1    2  503  502  0.11951919277E+02  0.28995183164E+02 -0.11021064609E+03  0.11458601805E+03  0.00000000000E+00 0. -1.
         21    1    1    2  504  501 -0.11951919277E+02 -0.28995183164E+02  0.65036729497E+02  0.72203498563E+02  0.00000000000E+00 0.  1.
</event>
<event>
 4    1  0.1571930E+006  0.5089718E+02  0.7546771E-02  0.1294329E+00
         21   -1    0    0  503  501  0.00000000000E+00  0.00000000000E+00  0.33259004792E+03  0.33259004792E+03  0.00000000000E+00 0.  1.
         21   -1    0    0  504  502 -0.00000000000E+00 -0.00000000000E+00 -0.18724392425E+02  0.18724392425E+02  0.00000000000E+00 0.  1.
         21    1    1    2  503  502 -0.48999153538E+02  0.13769745263E+02  0.29117240494E+03  0.29558736836E+03  0.00000000000E+00 0.  1.
         21    1    1    2  504  501  0.48999153538E+02 -0.13769745263E+02  0.22693250556E+02  0.55727071992E+02  0.00000000000E+00 0.  1.
</event>
<event>
 4    1  0.1571930E+006  0.2101992E+02  0.7546771E-02  0.1518980E+00
         21   -1    0    0  503  501  0.00000000000E+00  0.00000000000E+00  0.93276433988E+01  0.93276433988E+01  0.00000000000E+00 0.  1.
         21   -1    0    0  504  502 -0.00000000000E+00 -0.00000000000E+00 -0.51603574933E+02  0.51603574933E+02  0.00000000000E+00 0.  1.
         21    1    1    2  503  502  0.15308259542E+01  0.20964107835E+02 -0.29865595109E+02  0.36521103715E+02  0.00000000000E+00 0.  1.
         21    1    1    2  504  501 -0.15308259542E+01 -0.20964107835E+02 -0.12410336426E+02  0.24410114617E+02  0.00000000000E+00 0.  1.
</event>
<event>
 4    1  0.1571930E+006  0.2109894E+02  0.7546771E-02  0.1517857E+00
         21   -1    0    0  503  501  0.00000000000E+00  0.00000000000E+00  0.78803512486E+00  0.78803512486E+00  0.00000000000E+00 0. -1.
         21   -1    0    0  504  502 -0.00000000000E+00 -0.00000000000E+00 -0.16543091943E+04  0.16543091943E+04  0.00000000000E+00 0.  1.
         21    1    1    2  503  502 -0.11340060937E+02 -0.17792370985E+02 -0.15520868583E+03  0.15663620783E+03  0.00000000000E+00 0. -1.
         21    1    1    2  504  501  0.11340060937E+02  0.17792370985E+02 -0.14983124734E+04  0.14984610216E+04  0.00000000000E+00 0.  1.
</event>
<event>
 4    1  0.1571930E+006  0.2634448E+02  0.7546771E-02  0.1454306E+00
         21   -1    0    0  504  501  0.00000000000E+00  0.00000000000E+00  0.59223527498E+01  0.59223527498E+01  0.00000000000E+00 0.  1.
         21   -1    0    0  503  502 -0.00000000000E+00 -0.00000000000E+00 -0.38312447757E+03  0.38312447757E+03  0.00000000000E+00 0. -1.
         21    1    1    2  503  501  0.12008902863E+02 -0.23448194451E+02 -0.35066653219E+03  0.35165472892E+03  0.00000000000E+00 0. -1.
         21    1    1    2  504  502 -0.12008902863E+02  0.23448194451E+02 -0.26535592625E+02  0.37392101398E+02  0.00000000000E+00 0.  1.
</event>
<event>
 4    1  0.1571930E+006  0.2048473E+02  0.7546771E-02  0.1526750E+00
         21   -1    0    0  504  501  0.00000000000E+00  0.00000000000E+00  0.12509009449E+03  0.12509009449E+03  0.00000000000E+00 0. -1.
         21   -1    0    0  501  502 -0.00000000000E+00 -0.00000000000E+00 -0.10073340499E+02  0.10073340499E+02  0.00000000000E+00 0.  1.
         21    1    1    2  503  502  0.16371515659E+02 -0.12312502475E+02  0.23149737806E+01  0.20615124200E+02  0.00000000000E+00 0.  1.
         21    1    1    2  504  503 -0.16371515659E+02  0.12312502475E+02  0.11270178021E+03  0.11454831079E+03  0.00000000000E+00 0. -1.
</event>
<event>
 4    1  0.1571930E+006  0.2564257E+02  0.7546771E-02  0.1461742E+00
         21   -1    0    0  503  501  0.00000000000E+00  0.00000000000E+00  0.10042844022E+02  0.10042844022E+02  0.00000000000E+00 0.  1.
         21   -1    0    0  504  502 -0.00000000000E+00 -0.00000000000E+00 -0.14634439925E+03  0.14634439925E+03  0.00000000000E+00 0.  1.
         21    1    1    2  503  502  0.91123121583E+01 -0.23968874955E+02 -0.10023614150E+02  0.27532054775E+02  0.00000000000E+00 0.  1.
         21    1    1    2  504  501 -0.91123121583E+01  0.23968874955E+02 -0.12627794108E+03  0.12885518850E+03  0.00000000000E+00 0.  1.
</event>
<event>
 4    1  0.1571930E+006  0.3102851E+02  0.7546771E-02  0.1410864E+00
         21   -1    0    0  503  501  0.00000000000E+00  0.00000000000E+00  0.36745750389E+02  0.36745750389E+02  0.00000000000E+00 0. -1.
         21   -1    0    0  504  502 -0.00000000000E+00 -0.00000000000E+00 -0.54711241605E+02  0.54711241605E+02  0.00000000000E+00 0. -1.
         21    1    1    2  503  502  0.21594052975E+02  0.22281507691E+02 -0.41993121475E+02  0.52212938627E+02  0.00000000000E+00 0. -1.
         21    1    1    2  504  501 -0.21594052975E+02 -0.22281507691E+02  0.24027630259E+02  0.39244053367E+02  0.00000000000E+00 0. -1.
</event>
<event>
 4    1  0.1571930E+006  0.2033734E+02  0.7546771E-02  0.1528940E+00
         21   -1    0    0  502  501  0.00000000000E+00  0.00000000000E+00  0.34267441643E+03  0.34267441643E+03  0.00000000000E+00 0. -1.
         21   -1    0    0  504  502 -0.00000000000E+00 -0.00000000000E+00 -0.19369856064E+01  0.19369856064E+01  0.00000000000E+00 0. -1.
         21    1    1    2  503  501  0.31256517312E+01  0.20095708656E+02  0.27614646096E+03  0.27689433925E+03  0.00000000000E+00 0. -1.
         21    1    1    2  504  503 -0.31256517312E+01 -0.20095708656E+02  0.64590969858E+02  0.67717062786E+02  0.00000000000E+00 0. -1.
</event>
<event>
 4    1  0.1571930E+006  0.2320793E+02  0.7546771E-02  0.1489903E+00
         21   -1    0    0  504  501  0.00000000000E+00  0.00000000000E+00  0.37325117866E+02  0.37325117866E+02  0.00000000000E+00 0. -1.
         21   -1    0    0  503  502 -0.00000000000E+00 -0.00000000000E+00 -0.11432908020E+03  0.11432908020E+03  0.00000000000E+00 0. -1.
         21    1    1    2  503  501 -0.11318487762E+02  0.20260800118E+02  0.32378464405E+02  0.39836831499E+02  0.00000000000E+00 0. -1.
         21    1    1    2  504  502  0.11318487762E+02 -0.20260800118E+02 -0.10938242674E+03  0.11181736657E+03  0.00000000000E+00 0. -1.
</event>
<event>
 4    1  0.1571930E+006  0.2551829E+02  0.7546771E-02  0.1463088E+00
         21   -1    0    0  504  501  0.00000000000E+00  0.00000000000E+00  0.39494990934E+01  0.39494990934E+01  0.00000000000E+00 0. -1.
         21   -1    0    0  503  502 -0.00000000000E+00 -0.00000000000E+00 -0.16497124224E+03  0.16497124224E+03  0.00000000000E+00 0. -1.
         21    1    1    2  503  501  0.83962740867E+01 -0.24097418807E+02 -0.78496107087E+02  0.82539819720E+02  0.00000000000E+00 0. -1.
         21    1    1    2  504  502 -0.83962740867E+01  0.24097418807E+02 -0.82525636061E+02  0.86380921614E+02  0.00000000000E+00 0. -1.
</event>
<event>
 4    1  0.1571930E+006  0.2602171E+02  0.7546771E-02  0.1457691E+00
         21   -1    0    0  502  501  0.00000000000E+00  0.00000000000E+00  0.40381145120E+03  0.40381145120E+03  0.00000000000E+00 0.  1.
         21   -1    0    0  503  502 -0.00000000000E+00 -0.00000000000E+00 -0.66792961832E+03  0.66792961832E+03  0.00000000000E+00 0. -1.
         21    1    1    2  503  504  0.23668580363E+02  0.10813314263E+02 -0.66725654079E+03  0.66776374616E+03  0.00000000000E+00 0. -1.
         21    1    1    2  504  501 -0.23668580363E+02 -0.10813314263E+02  0.40313837367E+03  0.40397732335E+03  0.00000000000E+00 0.  1.
</event>
<event>
 4    1  0.1571930E+006  0.4235232E+02  0.7546771E-02  0.1335227E+00
         21   -1    0    0  503  501  0.00000000000E+00  0.00000000000E+00  0.12776457391E+02  0.12776457391E+02  0.00000000000E+00 0. -1.
         21   -1    0    0  504  502 -0.00000000000E+00 -0.00000000000E+00 -0.19237225236E+03  0.19237225236E+03  0.00000000000E+00 0. -1.
         21    1    1    2  503  502  0.39763402953E+02  0.14580485710E+02 -0.14311722800E+03  0.14925233576E+03  0.00000000000E+00 0. -1.
         21    1    1    2  504  501 -0.39763402953E+02 -0.14580485710E+02 -0.36478566969E+02  0.55896373997E+02  0.00000000000E+00 0. -1.
</event>
<event>
 4    1  0.1571930E+006  0.2065028E+02  0.7546771E-02  0.1524317E+00
         21   -1    0    0  504  501  0.00000000000E+00  0.00000000000E+00  0.12179560476E+03  0.12179560476E+03  0.00000000000E+00 0.  1.
         21   -1    0    0  501  502 -0.00000000000E+00 -0.00000000000E+00 -0.15429440089E+02  0.15429440089E+02  0.00000000000E+00 0. -1.
         21    1    1    2  503  502  0.11347989324E+02 -0.17252750191E+02 -0.71445065769E+01  0.21851275136E+02  0.00000000000E+00 0. -1.
         21    1    1    2  504  503 -0.11347989324E+02  0.17252750191E+02  0.11351067124E+03  0.11537376971E+03  0.00000000000E+00 0.  1.
</event>
<event>
 4    1  0.1571930E+006  0.2054965E+02  0.7546771E-02  0.1525793E+00
         21   -1    0    0  504  501  0.00000000000E+00  0.00000000000E+00  0.13604065605E+04  0.13604065605E+04  0.00000000000E+00 0. -1.
         21   -1    0    0  503  502 -0.00000000000E+00 -0.00000000000E+00 -0.10672800408E+03  0.10672800408E+03  0.00000000000E+00 0. -1.
         21    1    1    2  503  501  0.11533623611E+01 -0.20517254066E+02 -0.10566045543E+03  0.10764023319E+03  0.00000000000E+00 0. -1.
         21    1    1    2  504  502 -0.11533623611E+01  0.20517254066E+02  0.13593390118E+04  0.13594943313E+04  0.00000000000E+00 0. -1.
</event>
<event>
 4    1  0.1571930E+006  0.3047876E+02  0.7546771E-02  0.1415481E+00
         21   -1    0    0  504  501  0.00000000000E+00  0.00000000000E+00  0.58123823816E+03  0.58123823816E+03  0.00000000000E+00 0.  1.
         21   -1    0    0  503  502 -0.00000000000E+00 -0.00000000000E+00 -0.17646687452E+01  0.17646687452E+01  0.00000000000E+00 0.  1.
         21    1    1    2  503  501 -0.30253829871E+02  0.36960449674E+01  0.37925894441E+03  0.38048167089E+03  0.00000000000E+00 0.  1.
         21    1    1    2  504  502  0.30253829871E+02 -0.36960449674E+01  0.20021462501E+03  0.20252123601E+03  0.00000000000E+00 0.  1.
</event>
<event>
 4    1  0.1571930E+006  0.2171194E+02  0.7546771E-02  0.1509338E+00
         21   -1    0    0  503  501  0.00000000000E+00  0.00000000000E+00  0.13947035417E+03  0.13947035417E+03  0.00000000000E+00 0.  1.
         21   -1    0    0  504  502 -0.00000000000E+00 -0.00000000000E+00 -0.56465619276E+01  0.56465619276E+01  0.00000000000E+00 0. -1.
         21    1    1    2  503  502  0.52956258180E+01 -0.21056230555E+02  0.20941241913E+02  0.30165279890E+02  0.00000000000E+00 0. -1.
         21    1    1    2  504  501 -0.52956258180E+01  0.21056230555E+02  0.11288255033E+03  0.11495163621E+03  0.00000000000E+00 0.  1.
</event>
<event>
 4    1  0.1571930E+006  0.2661024E+02  0.7546771E-02  0.1451563E+00
         21   -1    0    0  503  501  0.00000000000E+00  0.00000000000E+00  0.13917304940E+02  0.13917304940E+02  0.00000000000E+00 0.  1.
         21   -1    0    0  504  502 -0.00000000000E+00 -0.00000000000E+00 -0.57113063732E+02  0.57113063732E+02  0.00000000000E+00 0.  1.
         21    1    1    2  503  502 -0.19366097051E+02 -0.18249915200E+02 -0.33331054170E+02  0.42650489937E+02  0.00000000000E+00 0.  1.
         21    1    1    2  504  501  0.19366097051E+02  0.18249915200E+02 -0.98647046221E+01  0.28379878736E+02  0.00000000000E+00 0.  1.
</event>
<event>
 4    1  0.1571930E+006  0.2348324E+02  0.7546771E-02  0.1486518E+00
         21   -1    0    0  504  501  0.00000000000E+00  0.00000000000E+00  0.49889191679E+02  0.49889191679E+02  0.00000000000E+00 0.  1.
         21   -1    0    0  503  502 -0.00000000000E+00 -0.00000000000E+00 -0.15626512411E+03  0.15626512411E+03  0.00000000000E+00 0.  1.
         21    1    1    2  503  501  0.18272173460E+02 -0.14750936477E+02  0.46176642899E+02  0.51804872351E+02  0.00000000000E+00 0.  1.
         21    1    1    2  504  502 -0.18272173460E+02  0.14750936477E+02 -0.15255257533E+03  0.15434944344E+03  0.00000000000E+00 0.  1.
</event>
<event>
 4    1  0.1571930E+006  0.2084777E+02  0.7546771E-02  0.1521449E+00
         21   -1    0    0  504  501  0.00000000000E+00  0.00000000000E+00  0.74853682489E+01  0.74853682489E+01  0.00000000000E+00 0. -1.
         21   -1    0    0  503  502 -0.00000000000E+00 -0.00000000000E+00 -0.58394723622E+02  0.58394723622E+02  0.00000000000E+00 0. -1.
         21    1    1    2  503  501  0.16764742804E+02 -0.12392456712E+02 -0.27934059681E+02  0.34856007730E+02  0.00000000000E+00 0. -1.
         21    1    1    2  504  502 -0.16764742804E+02  0.12392456712E+02 -0.22975295692E+02  0.31024084141E+02  0.00000000000E+00 0. -1.
</event>
<event>
 4    1  0.1571930E+006  0.2053058E+02  0.7546771E-02  0.1526074E+00
         21   -1    0    0  503  501  0.00000000000E+00  0.00000000000E+00  0.15275478692E+03  0.15275478692E+03  0.00000000000E+00 0.  1.
         21   -1    0    0  501  502 -0.00000000000E+00 -0.00000000000E+00 -0.29808311471E+01  0.29808311471E+01  0.00000000000E+00 0.  1.
         21    1    1    2  503  504  0.11753304265E+02 -0.16833440023E+02  0.96112168430E+02  0.98280485268E+02  0.00000000000E+00 0.  1.
         21    1    1    2  504  502 -0.11753304265E+02  0.16833440023E+02  0.53661787347E+02  0.57455132803E+02  0.00000000000E+00 0.  1.
</event>
<event>
 4    1  0.1571930E+006  0.2579993E+02  0.7546771E-02  0.1460050E+00
         21   -1    0    0  503  501  0.00000000000E+00  0.00000000000E+00  0.13895716853E+03  0.13895716853E+03  0.00000000000E+00 0. -1.
         21   -1    0    0  504  502 -0.00000000000E+00 -0.00000000000E+00 -0.17172041899E+02  0.17172041899E+02  0.00000000000E+00 0.  1.
         21    1    1    2  503  502 -0.24892555181E+02 -0.67821043971E+01 -0.53955058266E+01  0.26358067582E+02  0.00000000000E+00 0.  1.
         21    1    1    2  504  501  0.24892555181E+02  0.67821043971E+01  0.12718063246E+03  0.12977114285E+03  0.00000000000E+00 0. -1.
</event>
<event>
 4    1  0.1571930E+006  0.2618843E+02  0.7546771E-02  0.1455935E+00
         21   -1    0    0  503  501  0.00000000000E+00  0.00000000000E+00  0.15151471865E+02  0.15151471865E+02  0.00000000000E+00 0.  1.
         21   -1    0    0  501  502 -0.00000000000E+00 -0.00000000000E+00 -0.34538824090E+03  0.34538824090E+03  0.00000000000E+00 0.  1.
         21    1    1    2  503  504 -0.41132937434E+01  0.25863381507E+02  0.29240799872E+01  0.26351165670E+02  0.00000000000E+00 0.  1.
         21    1    1    2  504  502  0.41132937434E+01 -0.25863381507E+02 -0.33316084902E+03  0.33418854710E+03  0.00000000000E+00 0.  1.
</event>
<event>
 4    1  0.1571930E+006  0.2289660E+02  0.7546771E-02  0.1493801E+00
         21   -1    0    0  503  501  0.00000000000E+00  0.00000000000E+00  0.47649698775E+02  0.47649698775E+02  0.00000000000E+00 0.  1.
         21   -1    0    0  504  502 -0.00000000000E+00 -0.00000000000E+00 -0.11307209087E+02  0.11307209087E+02  0.00000000000E+00 0.  1.
         21    1    1    2  503  502  0.20911774037E+02 -0.93248009566E+01  0.23012335090E+02  0.32462621160E+02  0.00000000000E+00 0.  1.
         21    1    1    2  504  501 -0.20911774037E+02  0.93248009566E+01  0.13330154597E+02  0.26494286702E+02  0.00000000000E+00 0.  1.
</event>
<event>
 4    1  0.1571930E+006  0.2087830E+02  0.7546771E-02  0.1521010E+00
         21   -1    0    0  504  501  0.00000000000E+00  0.00000000000E+00  0.86759147768E+02  0.86759147768E+02  0.00000000000E+00 0.  1.
         21   -1    0    0  503  502 -0.00000000000E+00 -0.00000000000E+00 -0.31244789310E+03  0.31244789310E+03  0.00000000000E+00 0.  1.
         21    1    1    2  503  501  0.84865752063E+01 -0.19075672933E+02  0.85147790031E+02  0.87670116937E+02  0.00000000000E+00 0.  1.
         21    1    1    2  504  502 -0.84865752063E+01  0.19075672933E+02 -0.31083653536E+03  0.31153692393E+03  0.00000000000E+00 0.  1.
</event>
<event>
 4    1  0.1571930E+006  0.2343104E+02  0.7546771E-02  0.1487155E+00
         21   -1    0    0  503  501  0.00000000000E+00  0.00000000000E+00  0.19933925344E+03  0.19933925344E+03  0.00000000000E+00 0. -1.
         21   -1    0    0  504  502 -0.00000000000E+00 -0.00000000000E+00 -0.29036612043E+01  0.29036612043E+01  0.00000000000E+00 0. -1.
         21    1    1    2  503  502  0.11260633838E+01  0.23403964339E+02  0.75273077738E+02  0.78835587127E+02  0.00000000000E+00 0. -1.
         21    1    1    2  504  501 -0.11260633838E+01 -0.23403964339E+02  0.12116251449E+03  0.12340732751E+03  0.00000000000E+00 0. -1.
</event>
<event>
 4    1  0.1571930E+006  0.2425838E+02  0.7546771E-02  0.1477274E+00
         21   -1    0    0  503  501  0.00000000000E+00  0.00000000000E+00  0.13099322160E+02  0.13099322160E+02  0.00000000000E+00 0. -1.
         21   -1    0    0  504  502 -0.00000000000E+00 -0.00000000000E+00 -0.53880957775E+03  0.53880957775E+03  0.00000000000E+00 0. -1.
         21    1    1    2  503  502 -0.22793111857E+02  0.83031931236E+01  0.13450391280E+01  0.24295639412E+02  0.00000000000E+00 0. -1.
         21    1    1    2  504  501  0.22793111857E+02 -0.83031931236E+01 -0.52705529472E+03  0.52761326050E+03  0.00000000000E+00 0. -1.
</event>
<event>
 4    1  0.1571930E+006  0.2016792E+02  0.7546771E-02  0.1531484E+00
         21   -1    0    0  502  501  0.00000000000E+00  0.00000000000E+00  0.38750316482E+02  0.38750316482E+02  0.00000000000E+00 0.  1.
         21   -1    0    0  503  502 -0.00000000000E+00 -0.00000000000E+00 -0.30816031018E+02  0.30816031018E+02  0.00000000000E+00 0.  1.
         21    1    1    2  503  504 -0.13031223193E+02  0.15392598984E+02 -0.24277565477E+02  0.31561765902E+02  0.00000000000E+00 0.  1.
         21    1    1    2  504  501  0.13031223193E+02 -0.15392598984E+02  0.32211850941E+02  0.38004581598E+02  0.00000000000E+00 0.  1.
</event>
<event>
 4    1  0.1571930E+006  0.2187512E+02  0.7546771E-02  0.1507128E+00
         21   -1    0    0  502  501  0.00000000000E+00  0.00000000000E+00  0.23512281964E+02  0.23512281964E+02  0.00000000000E+00 0. -1.
         21   -1    0    0  504  502 -0.00000000000E+00 -0.00000000000E+00 -0.19082233185E+03  0.19082233185E+03  0.00000000000E+00 0.  1.
         21    1    1    2  503  501  0.19992912358E+02  0.88771710590E+01  0.17636285295E+02  0.28099097309E+02  0.00000000000E+00 0. -1.
         21    1    1    2  504  503 -0.19992912358E+02 -0.88771710590E+01 -0.18494633518E+03  0.18623551650E+03  0.00000000000E+00 0.  1.
</event>
<event>
 4    1  0.1571930E+006  0.4102242E+02  0.7546771E-02  0.1342596E+00
         21   -1    0    0  503  501  0.00000000000E+00  0.00000000000E+00  0.24245749113E+03  0.24245749113E+03  0.00000000000E+00 0. -1.
         21   -1    0    0  501  502 -0.00000000000E+00 -0.00000000000E+00 -0.10802432210E+02  0.10802432210E+02  0.00000000000E+00 0. -1.
         21    1    1    2  503  504  0.15156285082E+02  0.38119887158E+02  0.19153931976E+03  0.19588300025E+03  0.00000000000E+00 0. -1.
         21    1    1    2  504  502 -0.15156285082E+02 -0.38119887158E+02  0.40115739163E+02  0.57376923088E+02  0.00000000000E+00 0. -1.
</event>
<event>
 4    1  0.1571930E+006  0.2004873E+02  0.7546771E-02  0.1533292E+00
         21   -1    0    0  504  501  0.00000000000E+00  0.00000000000E+00  0.26371633964E+02  0.26371633964E+02  0.00000000000E+00 0.  1.
         21   -1    0    0  503  502 -0.00000000000E+00 -0.00000000000E+00 -0.15245717680E+02  0.15245717680E+02  0.00000000000E+00 0.  1.
         21    1    1    2  503  501  0.19827654590E+01  0.19950444869E+02  0.58958175416E+01  0.20897661922E+02  0.00000000000E+00 0.  1.
         21    1    1    2  504  502 -0.19827654590E+01 -0.19950444869E+02  0.52300987420E+01  0.20719689722E+02  0.00000000000E+00 0.  1.
</event>
<event>
 4    1  0.1571930E+006  0.2319236E+02  0.7546771E-02  0.1490097E+00
         21   -1    0    0  504  501  0.00000000000E+00  0.00000000000E+00  0.12957634040E+03  0.12957634040E+03  0.00000000000E+00 0. -1.
         21   -1    0    0  503  502 -0.00000000000E+00 -0.00000000000E+00 -0.72918136675E+02  0.72918136675E+02  0.00000000000E+00 0.  1.
         21    1    1    2  503  501 -0.11111013873E+02 -0.20357577832E+02  0.12665219445E+03  0.12875816077E+03  0.00000000000E+00 0. -1.
         21    1    1    2  504  502  0.11111013873E+02  0.20357577832E+02 -0.69993990728E+02  0.73736316307E+02  0.00000000000E+00 0.  1.
</event>
<event>
 4    1  0.1571930E+006  0.2076990E+02  0.7546771E-02  0.1522576E+00
         21   -1    0    0  504  501  0.00000000000E+00  0.00000000000E+00  0.21768960717E+02  0.21768960717E+02  0.00000000000E+00 0.  1.
         21   -1    0    0  503  502 -0.00000000000E+00 -0.00000000000E+00 -0.43858596531E+02  0.43858596531E+02  0.00000000000E+00 0.  1.
         21    1    1    2  503  501  0.12627183708E+02 -0.16490690048E+02 -0.35339620832E+02  0.40991187189E+02  0.00000000000E+00 0.  1.
         21    1    1    2  504  502 -0.12627183708E+02  0.16490690048E+02  0.13249985018E+02  0.24636370058E+02  0.00000000000E+00 0.  1.
</event>
<event>
 4    1  0.1571930E+006  0.2339946E+02  0.7546771E-02  0.1487542E+00
         21   -1    0    0  504  501  0.00000000000E+00  0.00000000000E+00  0.12989338878E+02  0.12989338878E+02  0.00000000000E+00 0.  1.
         21   -1    0    0  503  502 -0.00000000000E+00 -0.00000000000E+00 -0.42931481258E+02  0.42931481258E+02  0.00000000000E+00 0.  1.
         21    1    1    2  503  501 -0.19185818355E+02  0.13395487453E+02 -0.18737109214E+02  0.29976890628E+02  0.00000000000E+00 0.  1.
         21    1    1    2  504  502  0.19185818355E+02 -0.13395487453E+02 -0.11205033166E+02  0.25943929507E+02  0.00000000000E+00 0.  1.
</event>
<event>
 4    1  0.1571930E+006  0.5269716E+02  0.7546771E-02  0.1286884E+00
         21   -1    0    0  503  501  0.00000000000E+00  0.00000000000E+00  0.10116517635E+02  0.10116517635E+02  0.00000000000E+00 0. -1.
         21   -1    0    0  504  502 -0.00000000000E+00 -0.00000000000E+00 -0.30066639239E+03  0.30066639239E+03  0.00000000000E+00 0. -1.
         21    1    1    2  503  502  0.35349643444E+02 -0.39081874267E+02 -0.99434198073E+02  0.11253510534E+03  0.00000000000E+00 0. -1.
         21    1    1    2  504  501 -0.35349643444E+02  0.39081874267E+02 -0.19111567668E+03  0.19824780468E+03  0.00000000000E+00 0. -1.
</event>
<event>
 4    1  0.1571930E+006  0.3687652E+02  0.7546771E-02  0.1367830E+00
         21   -1    0    0  504  501  0.00000000000E+00  0.00000000000E+00  0.14649689035E+02  0.14649689035E+02  0.00000000000E+00 0.  1.
         21   -1    0    0  503  502 -0.00000000000E+00 -0.00000000000E+00 -0.12969281018E+03  0.12969281018E+03  0.00000000000E+00 0.  1.
         21    1    1    2  503  501  0.29559101793E+02 -0.22048520924E+02 -0.96000380851E+02  0.10283944232E+03  0.00000000000E+00 0.  1.
         21    1    1    2  504  502 -0.29559101793E+02  0.22048520924E+02 -0.19042740298E+02  0.41503056897E+02  0.00000000000E+00 0.  1.
</event>
<event>
 4    1  0.1571930E+006  0.2662440E+02  0.7546771E-02  0.1451418E+00
         21   -1    0    0  503  501  0.00000000000E+00  0.00000000000E+00  0.93140073912E+02  0.93140073912E+02  0.00000000000E+00 0.  1.
         21   -1    0    0  504  502 -0.00000000000E+00 -0.00000000000E+00 -0.13640829544E+02  0.13640829544E+02  0.00000000000E+00 0.  1.
         21    1    1    2  503  502 -0.25715314021E+02  0.68979309583E+01  0.75247911752E+02  0.79819214790E+02  0.00000000000E+00 0.  1.
         21    1    1    2  504  501  0.25715314021E+02 -0.68979309583E+01  0.42513326157E+01  0.26961688666E+02  0.00000000000E+00 0.  1.
</event>
<event>
 4    1  0.1571930E+006  0.3732964E+02  0.7546771E-02  0.1364887E+00
         21   -1    0    0  503  501  0.00000000000E+00  0.00000000000E+00  0.79657380208E+01  0.79657380208E+01  0.00000000000E+00 0. -1.
         21   -1    0    0  504  502 -0.00000000000E+00 -0.00000000000E+00 -0.80038449206E+03  0.80038449206E+03  0.00000000000E+00 0.  1.
         21    1    1    2  503  502 -0.17301411484E+02 -0.33078139177E+02 -0.75349510926E+03  0.75441923479E+03  0.00000000000E+00 0.  1.
         21    1    1    2  504  501  0.17301411484E+02  0.33078139177E+02 -0.38923644772E+02  0.53930995291E+02  0.00000000000E+00 0. -1.
</event>
<event>
 4    1  0.1571930E+006  0.2275378E+02  0.7546771E-02  0.1495613E+00
         21   -1    0    0  503  501  0.00000000000E+00  0.00000000000E+00  0.13318798146E+03  0.13318798146E+03  0.00000000000E+00 0.  1.
         21   -1    0    0  504  502 -0.00000000000E+00 -0.00000000000E+00 -0.44588146699E+01  0.44588146699E+01  0.00000000000E+00 0.  1.
         21    1    1    2  503  502 -0.59436063175E+01 -0.21963786475E+02  0.39723441778E+02  0.45778665326E+02  0.00000000000E+00 0.  1.
         21    1    1    2  504  501  0.59436063175E+01  0.21963786475E+02  0.89005725009E+02  0.91868130800E+02  0.00000000000E+00 0.  1.
</event>
<event>
 4    1  0.1571930E+006  0.2478691E+02  0.7546771E-02  0.1471201E+00
         21   -1    0    0  503  501  0.00000000000E+00  0.00000000000E+00  0.12625773204E+04  0.12625773204E+04  0.00000000000E+00 0. -1.
         21   -1    0    0  504  502 -0.00000000000E+00 -0.00000000000E+00 -0.60600787038E+00  0.60600787038E+00  0.00000000000E+00 0.  1.
         21    1    1    2  503  502 -0.24570967657E+02  0.32647311318E+01  0.91132482237E+03  0.91166184673E+03  0.00000000000E+00 0. -1.
         21    1    1    2  504  501  0.24570967657E+02 -0.32647311318E+01  0.35064649018E+03  0.35152148156E+03  0.00000000000E+00 0.  1.
</event>
<event>
 4    1  0.1571930E+006  0.2530773E+02  0.7546771E-02  0.1465390E+00
         21   -1    0    0  502  501  0.00000000000E+00  0.00000000000E+00  0.18924263360E+02  0.18924263360E+02  0.00000000000E+00 0.  1.
         21   -1    0    0  503  502 -0.00000000000E+00 -0.00000000000E+00 -0.44289867046E+02  0.44289867046E+02  0.00000000000E+00 0. -1.
         21    1    1    2  503  504  0.22844555625E+02 -0.10890704604E+02 -0.28032329099E+02  0.37766289773E+02  0.00000000000E+00 0. -1.
         21    1    1    2  504  501 -0.22844555625E+02  0.10890704604E+02  0.26667254131E+01  0.25447840633E+02  0.00000000000E+00 0.  1.
</event>
<event>
 4    1  0.1571930E+006  0.3004338E+02  0.7546771E-02  0.1419220E+00
         21   -1    0    0  504  501  0.00000000000E+00  0.00000000000E+00  0.27516727951E+01  0.27516727951E+01  0.00000000000E+00 0.  1.
         21   -1    0    0  503  502 -0.00000000000E+00 -0.00000000000E+00 -0.34918176798E+03  0.34918176798E+03  0.00000000000E+00 0.  1.
         21    1    1    2  503  501 -0.24911110665E+02  0.16794091227E+02 -0.12989627245E+03  0.13332534092E+03  0.00000000000E+00 0.  1.
         21    1    1    2  504  502  0.24911110665E+02 -0.16794091227E+02 -0.21653382273E+03  0.21860809985E+03  0.00000000000E+00 0.  1.
</event>
<event>
 4    1  0.1571930E+006  0.2085452E+02  0.7546771E-02  0.1521352E+00
         21   -1    0    0  503  501  0.00000000000E+00  0.00000000000E+00  0.11015376787E+03  0.11015376787E+03  0.00000000000E+00 0.  1.
         21   -1    0    0  501  502 -0.00000000000E+00 -0.00000000000E+00 -0.19919144619E+03  0.19919144619E+03  0.00000000000E+00 0. -1.
         21    1    1    2  503  504 -0.14556591845E+02 -0.14933735564E+02  0.10861319651E+03  0.11059718478E+03  0.00000000000E+00 0.  1.
         21    1    1    2  504  502  0.14556591845E+02  0.14933735564E+02 -0.19765087483E+03  0.19874802929E+03  0.00000000000E+00 0. -1.
</event>
<event>
 4    1  0.1571930E+006  0.3879055E+02  0.7546771E-02  0.1355723E+00
         21   -1    0    0  502  501  0.00000000000E+00  0.00000000000E+00  0.47230335155E+03  0.47230335155E+03  0.00000000000E+00 0. -1.
         21   -1    0    0  504  502 -0.00000000000E+00 -0.00000000000E+00 -0.32316147101E+01  0.32316147101E+01  0.00000000000E+00 0. -1.
         21    1    1    2  503  501  0.45814141595E+01  0.38519056478E+02  0.26281803610E+03  0.26566525397E+03  0.00000000000E+00 0. -1.
         21    1    1    2  504  503 -0.45814141595E+01 -0.38519056478E+02  0.20625370074E+03  0.20986971229E+03  0.00000000000E+00 0. -1.
</event>
<event>
 4    1  0.1571930E+006  0.3221023E+02  0.7546771E-02  0.1401314E+00
         21   -1    0    0  504  501  0.00000000000E+00  0.00000000000E+00  0.36955969368E+03  0.36955969368E+03  0.00000000000E+00 0.  1.
         21   -1    0    0  503  502 -0.00000000000E+00 -0.00000000000E+00 -0.44051280905E+02  0.44051280905E+02  0.00000000000E+00 0.  1.
         21    1    1    2  503  501  0.31771960939E+02  0.52954013650E+01 -0.37352937659E+02  0.49322821586E+02  0.00000000000E+00 0.  1.
         21    1    1    2  504  502 -0.31771960939E+02 -0.52954013650E+01  0.36286135043E+03  0.36428815300E+03  0.00000000000E+00 0.  1.
</event>
<event>
 4    1  0.1571930E+006  0.2136231E+02  0.7546771E-02  0.1514154E+00
         21   -1    0    0  503  501  0.00000000000E+00  0.00000000000E+00  0.34373015523E+02  0.34373015523E+02  0.00000000000E+00 0. -1.
         21   -1    0    0  501  502 -0.00000000000E+00 -0.00000000000E+00 -0.11067769129E+03  0.11067769129E+03  0.00000000000E+00 0. -1.
         21    1    1    2  503  504 -0.15613315175E+02  0.14579877107E+02  0.29884208643E+02  0.36734375636E+02  0.00000000000E+00 0. -1.
         21    1    1    2  504  502  0.15613315175E+02 -0.14579877107E+02 -0.10618888441E+03  0.10831633118E+03  0.00000000000E+00 0. -1.
</event>
<event>
 4    1  0.1571930E+006  0.2161895E+02  0.7546771E-02  0.1510608E+00
         21   -1    0    0  503  501  0.00000000000E+00  0.00000000000E+00  0.46313555830E+03  0.46313555830E+03  0.00000000000E+00 0.  1.
         21   -1    0    0  501  502 -0.00000000000E+00 -0.00000000000E+00 -0.13147336882E+01  0.13147336882E+01  0.00000000000E+00 0.  1.
         21    1    1    2  503  504 -0.16996621213E+02  0.13360151914E+02  0.34286629745E+03  0.34354719723E+03  0.00000000000E+00 0.  1.
         21    1    1    2  504  502  0.16996621213E+02 -0.13360151914E+02  0.11895452716E+03  0.12090309477E+03  0.00000000000E+00 0.  1.
</event>
<event>
 4    1  0.1571930E+006  0.2987563E+02  0.7546771E-02  0.1420680E+00
         21   -1    0    0  504  501  0.00000000000E+00  0.00000000000E+00  0.32171766308E+03  0.32171766308E+03  0.00000000000E+00 0. -1.
         21   -1    0    0  501  502 -0.00000000000E+00 -0.00000000000E+00 -0.28644588549E+01  0.28644588549E+01  0.00000000000E+00 0.  1.
         21    1    1    2  503  502  0.11490497568E+02 -0.27577559171E+02  0.13064017881E+03  0.13401272187E+03  0.00000000000E+00 0.  1.
         21    1    1    2  504  503 -0.11490497568E+02  0.27577559171E+02  0.18821302541E+03  0.19056940006E+03  0.00000000000E+00 0. -1.
</event>
<event>
 4    1  0.1571930E+006  0.2570879E+02  0.7546771E-02  0.1461028E+00
         21   -1    0    0  503  501  0.00000000000E+00  0.00000000000E+00  0.67526871721E+01  0.67526871721E+01  0.00000000000E+00 0. -1.
         21   -1    0    0  501  502 -0.00000000000E+00 -0.00000000000E+00 -0.12037288374E+03  0.12037288374E+03  0.00000000000E+00 0.  1.
         21    1    1    2  503  504  0.25679605449E+02 -0.12247088657E+01 -0.29332621857E+02  0.39004419658E+02  0.00000000000E+00 0. -1.
         21    1    1    2  504  502 -0.25679605449E+02  0.12247088657E+01 -0.84287574707E+02  0.88121151251E+02  0.00000000000E+00 0.  1.
</event>
<event>
 4    1  0.1571930E+006  0.2157467E+02  0.7546771E-02  0.1511216E+00
         21   -1    0    0  504  501  0.00000000000E+00  0.00000000000E+00  0.68770404597E+03  0.68770404597E+03  0.00000000000E+00 0.  1.
         21   -1    0    0  503  502 -0.00000000000E+00 -0.00000000000E+00 -0.86251668821E+00  0.86251668821E+00  0.00000000000E+00 0.  1.
         21    1    1    2  503  501 -0.21574624295E+02 -0.44043742070E-01  0.18368226508E+03  0.18494496711E+03  0.00000000000E+00 0.  1.
         21    1    1    2  504  502  0.21574624295E+02  0.44043742070E-01  0.50315926420E+03  0.50362159555E+03  0.00000000000E+00 0.  1.
</event>
<event>
 4    1  0.1571930E+006  0.2062571E+02  0.7546771E-02  0.1524676E+00
         21   -1    0    0  502  501  0.00000000000E+00  0.00000000000E+00  0.97069616154E+01  0.97069616154E+01  0.00000000000E+00 0. -1.
         21   -1    0    0  503  502 -0.00000000000E+00 -0.00000000000E+00 -0.62929857846E+02  0.62929857846E+02  0.00000000000E+00 0. -1.
         21    1    1    2  503  504 -0.19818930675E+02 -0.57122648037E+01 -0.46621851623E+02  0.50980555421E+02  0.00000000000E+00 0. -1.
         21    1    1    2  504  501  0.19818930675E+02  0.57122648037E+01 -0.66010446076E+01  0.21656264040E+02  0.00000000000E+00 0. -1.
</event>
<event>
 4    1  0.1571930E+006  0.2406636E+02  0.7546771E-02  0.1479525E+00
         21   -1    0    0  503  501  0.00000000000E+00  0.00000000000E+00  0.10455165203E+02  0.10455165203E+02  0.00000000000E+00 0.  1.
         21   -1    0    0  504  502 -0.00000000000E+00 -0.00000000000E+00 -0.18299214326E+03  0.18299214326E+03  0.00000000000E+00 0. -1.
         21    1    1    2  503  502  0.28525441918E+01  0.23896705641E+02 -0.55017086708E+01  0.24687210194E+02  0.00000000000E+00 0.  1.
         21    1    1    2  504  501 -0.28525441918E+01 -0.23896705641E+02 -0.16703526939E+03  0.16876009827E+03  0.00000000000E+00 0. -1.
</event>
<event>
 4    1  0.1571930E+006  0.2088013E+02  0.7546771E-02  0.1520983E+00
         21   -1    0    0  504  501  0.00000000000E+00  0.00000000000E+00  0.16857048810E+02  0.16857048810E+02  0.00000000000E+00 0. -1.
         21   -1    0    0  503  502 -0.00000000000E+00 -0.00000000000E+00 -0.25888454688E+02  0.25888454688E+02  0.00000000000E+00 0. -1.
         21    1    1    2  503  501 -0.74732597674E+01  0.19496927956E+02 -0.51812136799E+01  0.21513362974E+02  0.00000000000E+00 0. -1.
         21    1    1    2  504  502  0.74732597674E+01 -0.19496927956E+02 -0.38501921985E+01  0.21232140524E+02  0.00000000000E+00 0. -1.
</event>
<event>
 4    1  0.1571930E+006  0.2555453E+02  0.7546771E-02  0.1462695E+00
         21   -1    0    0  504  501  0.00000000000E+00  0.00000000000E+00  0.12502635566E+02  0.12502635566E+02  0.00000000000E+00 0. -1.
         21   -1    0    0  503  502 -0.00000000000E+00 -0.00000000000E+00 -0.52263294081E+02  0.52263294081E+02  0.00000000000E+00 0. -1.
         21    1    1    2  503  501  0.24746269758E+02 -0.63762053828E+01 -0.19084082798E+02  0.31894138619E+02  0.00000000000E+00 0. -1.
         21    1    1    2  504  502 -0.24746269758E+02  0.63762053828E+01 -0.20676575717E+02  0.32871791028E+02  0.00000000000E+00 0. -1.
</event>
<event>
 4    1  0.1571930E+006  0.2292267E+02  0.7546771E-02  0.1493471E+00
         21   -1    0    0  503  501  0.00000000000E+00  0.00000000000E+00  0.37635834440E+02  0.37635834440E+02  0.00000000000E+00 0. -1.
         21   -1    0    0  504  502 -0.00000000000E+00 -0.00000000000E+00 -0.17119878502E+03  0.17119878502E+03  0.00000000000E+00 0.  1.
         21    1    1    2  503  502  0.22566906165E+02 -0.40228821621E+01 -0.16685059297E+03  0.16841784113E+03  0.00000000000E+00 0.  1.
         21    1    1    2  504  501 -0.22566906165E+02  0.40228821621E+01  0.33287642392E+02  0.40416778333E+02  0.00000000000E+00 0. -1.
</event>
<event>
 4    1  0.1571930E+006  0.2226298E+02  0.7546771E-02  0.1501966E+00
         21   -1    0    0  503  501  0.00000000000E+00  0.00000000000E+00  0.68492313876E+01  0.68492313876E+01  0.00000000000E+00 0. -1.
         21   -1    0    0  504  502 -0.00000000000E+00 -0.00000000000E+00 -0.28268168535E+03  0.28268168535E+03  0.00000000000E+00 0. -1.
         21    1    1    2  503  502  0.15407948229E+02  0.16069709584E+02 -0.13047521209E+02  0.25804616728E+02  0.00000000000E+00 0. -1.
         21    1    1    2  504  501 -0.15407948229E+02 -0.16069709584E+02 -0.26278493275E+03  0.26372630001E+03  0.00000000000E+00 0. -1.
</event>
<event>
 4    1  0.1571930E+006  0.1175350E+03  0.7546771E-02  0.1136474E+00
         21   -1    0    0  504  501  0.00000000000E+00  0.00000000000E+00  0.16113697465E+03  0.16113697465E+03  0.00000000000E+00 0.  1.
         21   -1    0    0  503  502 -0.00000000000E+00 -0.00000000000E+00 -0.85975023064E+02  0.85975023064E+02  0.00000000000E+00 0.  1.
         21    1    1    2  503  501 -0.72292112503E+02  0.92673203670E+02  0.31001642736E+02  0.12155481916E+03  0.00000000000E+00 0.  1.
         21    1    1    2  504  502  0.72292112503E+02 -0.92673203670E+02  0.44160308849E+02  0.12555717855E+03  0.00000000000E+00 0.  1.
</event>
<event>
 4    1  0.1571930E+006  0.2002385E+02  0.7546771E-02  0.1533671E+00
         21   -1    0    0  504  501  0.00000000000E+00  0.00000000000E+00  0.55076789664E+01  0.55076789664E+01  0.00000000000E+00 0.  1.
         21   -1    0    0  503  502 -0.00000000000E+00 -0.00000000000E+00 -0.21275875361E+03  0.21275875361E+03  0.00000000000E+00 0.  1.
         21    1    1    2  503  501 -0.19871774304E+02 -0.24631768899E+01 -0.19214005379E+03  0.19318062771E+03  0.00000000000E+00 0.  1.
         21    1    1    2  504  502  0.19871774304E+02  0.24631768899E+01 -0.15111020860E+02  0.25085804867E+02  0.00000000000E+00 0.  1.
</event>
<event>
 4    1  0.1571930E+006  0.2137956E+02  0.7546771E-02  0.1513914E+00
         21   -1    0    0  503  501  0.00000000000E+00  0.00000000000E+00  0.95532677928E+01  0.95532677928E+01  0.00000000000E+00 0.  1.
         21   -1    0    0  504  502 -0.00000000000E+00 -0.00000000000E+00 -0.12389948284E+03  0.12389948284E+03  0.00000000000E+00 0.  1.
         21    1    1    2  503  502  0.19988114022E+01 -0.21285914767E+02 -0.10945152245E+03  0.11152004833E+03  0.00000000000E+00 0.  1.
         21    1    1    2  504  501 -0.19988114022E+01  0.21285914767E+02 -0.48946926002E+01  0.21932702299E+02  0.00000000000E+00 0.  1.
</event>
<event>
 4    1  0.1571930E+006  0.2107014E+02  0.7546771E-02  0.1518266E+00
         21   -1    0    0  503  501  0.00000000000E+00  0.00000000000E+00  0.81516670310E+02  0.81516670310E+02  0.00000000000E+00 0. -1.
         21   -1    0    0  504  502 -0.00000000000E+00 -0.00000000000E+00 -0.57546103835E+01  0.57546103835E+01  0.00000000000E+00 0. -1.
         21    1    1    2  503  502  0.74667946880E+01  0.19702732031E+02  0.47983897850E+02  0.52406155414E+02  0.00000000000E+00 0. -1.
         21    1    1    2  504  501 -0.74667946880E+01 -0.19702732031E+02  0.27778162077E+02  0.34865125280E+02  0.00000000000E+00 0. -1.
</event>
<event>
 4    1  0.1571930E+006  0.2145400E+02  0.7546771E-02  0.1512881E+00
         21   -1    0    0  504  501  0.00000000000E+00  0.00000000000E+00  0.14180966521E+02  0.14180966521E+02  0.00000000000E+00 0.  1.
         21   -1    0    0  503  502 -0.00000000000E+00 -0.00000000000E+00 -0.87990463960E+02  0.87990463960E+02  0.00000000000E+00 0.  1.
         21    1    1    2  503  501 -0.14622717335E+02 -0.15698736303E+02  0.36795786267E+01  0.21767257123E+02  0.00000000000E+00 0.  1.
         21    1    1    2  504  502  0.14622717335E+02  0.15698736303E+02 -0.77489076066E+02  0.80404173358E+02  0.00000000000E+00 0.  1.
</event>
<event>
 4    1  0.1571930E+006  0.2066319E+02  0.7546771E-02  0.1524128E+00
         21   -1    0    0  504  501  0.00000000000E+00  0.00000000000E+00  0.14465495945E+02  0.14465495945E+02  0.00000000000E+00 0.  1.
         21   -1    0    0  501  502 -0.00000000000E+00 -0.00000000000E+00 -0.14085180801E+03  0.14085180801E+03  0.00000000000E+00 0.  1.
         21    1    1    2  503  502  0.16253597710E+02 -0.12758844008E+02 -0.13223709075E+03  0.13384175622E+03  0.00000000000E+00 0.  1.
         21    1    1    2  504  503 -0.16253597710E+02  0.12758844008E+02  0.58507786884E+01  0.21475547728E+02  0.00000000000E+00 0.  1.
</event>
<event>
 4    1  0.1571930E+006  0.3618589E+02  0.7546771E-02  0.1372412E+00
         21   -1    0    0  504  501  0.00000000000E+00  0.00000000000E+00  0.59717854561E+02  0.59717854561E+02  0.00000000000E+00 0.  1.
         21   -1    0    0  503  502 -0.00000000000E+00 -0.00000000000E+00 -0.23058599448E+02  0.23058599448E+02  0.00000000000E+00 0.  1.
         21    1    1    2  503  501  0.21366139890E+02 -0.29204565209E+02  0.27499311888E+02  0.45449210303E+02  0.00000000000E+00 0.  1.
         21    1    1    2  504  502 -0.21366139890E+02  0.29204565209E+02  0.91599432241E+01  0.37327243706E+02  0.00000000000E+00 0.  1.
</event>
<event>
 4    1  0.1571930E+006  0.2274019E+02  0.7546771E-02  0.1495787E+00
         21   -1    0    0  503  501  0.00000000000E+00  0.00000000000E+00  0.15987915691E+01  0.15987915691E+01  0.00000000000E+00 0. -1.
         21   -1    0    0  504  502 -0.00000000000E+00 -0.00000000000E+00 -0.33308378221E+03  0.33308378221E+03  0.00000000000E+00 0. -1.
         21    1    1    2  503  502  0.10778419835E+02 -0.20023539043E+02 -0.13727144371E+03  0.13914224991E+03  0.00000000000E+00 0. -1.
         21    1    1    2  504  501 -0.10778419835E+02  0.20023539043E+02 -0.19421354693E+03  0.19554032387E+03  0.00000000000E+00 0. -1.
</event>
<event>
 4    1  0.1571930E+006  0.2423763E+02  0.7546771E-02  0.1477516E+00
         21   -1    0    0  502  501  0.00000000000E+00  0.00000000000E+00  0.14165926200E+02  0.14165926200E+02  0.00000000000E+00 0.  1.
         21   -1    0    0  504  502 -0.00000000000E+00 -0.00000000000E+00 -0.67759156557E+02  0.67759156557E+02  0.00000000000E+00 0.  1.
         21    1    1    2  503  501  0.48118016912E+01  0.23755194291E+02 -0.12819300040E+01  0.24271506666E+02  0.00000000000E+00 0.  1.
         21    1    1    2  504  503 -0.48118016912E+01 -0.23755194291E+02 -0.52311300353E+02  0.57653576090E+02  0.00000000000E+00 0.  1.
</event>
<event>
 4    1  0.1571930E+006  0.4015852E+02  0.7546771E-02  0.1347559E+00
         21   -1    0    0  502  501  0.00000000000E+00  0.00000000000E+00  0.21256272648E+03  0.21256272648E+03  0.00000000000E+00 0.  1.
         21   -1    0    0  504  502 -0.00000000000E+00 -0.00000000000E+00 -0.54940777914E+02  0.54940777914E+02  0.00000000000E+00 0. -1.
         21    1    1    2  503  501  0.91111655345E+01  0.39111293800E+02  0.20298465097E+03  0.20691900630E+03  0.00000000000E+00 0.  1.
         21    1    1    2  504  503 -0.91111655345E+01 -0.39111293800E+02 -0.45362702402E+02  0.60584498094E+02  0.00000000000E+00 0. -1.
</event>
<event>
 4    1  0.1571930E+006  0.2040127E+02  0.7546771E-02  0.1527987E+00
         21   -1    0    0  503  501  0.00000000000E+00  0.00000000000E+00  0.39347794668E+02  0.39347794668E+02  0.00000000000E+00 0. -1.
         21   -1    0    0  504  502 -0.00000000000E+00 -0.00000000000E+00 -0.11242075980E+02  0.11242075980E+02  0.00000000000E+00 0. -1.
         21    1    1    2  503  502 -0.19605597722E+01 -0.20306851221E+02  0.79040116073E+01  0.21878880241E+02  0.00000000000E+00 0. -1.
         21    1    1    2  504  501  0.19605597722E+01  0.20306851221E+02  0.20201707081E+02  0.28710990406E+02  0.00000000000E+00 0. -1.
</event>
<event>
 4    1  0.1571930E+006  0.6333924E+02  0.7546771E-02  0.1248890E+00
         21   -1    0    0  502  501  0.00000000000E+00  0.00000000000E+00  0.21338287761E+02  0.21338287761E+02  0.00000000000E+00 0. -1.
         21   -1    0    0  504  502 -0.00000000000E+00 -0.00000000000E+00 -0.49192852515E+03  0.49192852515E+03  0.00000000000E+00 0. -1.
         21    1    1    2  503  501  0.58065684228E+02 -0.25302878683E+02 -0.33579666120E+02  0.71689980689E+02  0.00000000000E+00 0. -1.
         21    1    1    2  504  503 -0.58065684228E+02  0.25302878683E+02 -0.43701057127E+03  0.44157683222E+03  0.00000000000E+00 0. -1.
</event>
<event>
 4    1  0.1571930E+006  0.2201769E+02  0.7546771E-02  0.1505216E+00
         21   -1    0    0  504  501  0.00000000000E+00  0.00000000000E+00  0.11674706725E+03  0.11674706725E+03  0.00000000000E+00 0. -1.
         21   -1    0    0  503  502 -0.00000000000E+00 -0.00000000000E+00 -0.10215448076E+02  0.10215448076E+02  0.00000000000E+00 0. -1.
         21    1    1    2  503  501  0.79150065250E+01 -0.20545838436E+02  0.10217188853E+03  0.10451733641E+03  0.00000000000E+00 0. -1.
         21    1    1    2  504  502 -0.79150065250E+01  0.20545838436E+02  0.43597306505E+01  0.22445178918E+02  0.00000000000E+00 0. -1.
</event>
<event>
 4    1  0.1571930E+006  0.5129223E+02  0.7546771E-02  0.1292665E+00
         21   -1    0    0  504  501  0.00000000000E+00  0.00000000000E+00  0.19580477460E+03  0.19580477460E+03  0.00000000000E+00 0.  1.
         21   -1    0    0  503  502 -0.00000000000E+00 -0.00000000000E+00 -0.17126256215E+02  0.17126256215E+02  0.00000000000E+00 0.  1.
         21    1    1    2  503  501 -0.32657350862E+02 -0.39552370081E+02  0.39920926028E+02  0.64996714373E+02  0.00000000000E+00 0.  1.
         21    1    1    2  504  502  0.32657350862E+02  0.39552370081E+02  0.13875759236E+03  0.14793431644E+03  0.00000000000E+00 0.  1.
</event>
<event>
 4    1  0.1571930E+006  0.2103952E+02  0.7546771E-02  0.1518701E+00
         21   -1    0    0  503  501  0.00000000000E+00  0.00000000000E+00  0.19756583181E+03  0.19756583181E+03  0.00000000000E+00 0.  1.
         21   -1    0    0  504  502 -0.00000000000E+00 -0.00000000000E+00 -0.18110253730E+02  0.18110253730E+02  0.00000000000E+00 0.  1.
         21    1    1    2  503  502 -0.20296261003E+02  0.55428562549E+01 -0.11219292815E+02  0.23843950961E+02  0.00000000000E+00 0.  1.
         21    1    1    2  504  501  0.20296261003E+02 -0.55428562549E+01  0.19067487090E+03  0.19183213458E+03  0.00000000000E+00 0.  1.
</event>
<event>
 4    1  0.1571930E+006  0.3627138E+02  0.7546771E-02  0.1371839E+00
         21   -1    0    0  502  501  0.00000000000E+00  0.00000000000E+00  0.78316648941E+02  0.78316648941E+02  0.00000000000E+00 0. -1.
         21   -1    0    0  504  502 -0.00000000000E+00 -0.00000000000E+00 -0.20951095197E+02  0.20951095197E+02  0.00000000000E+00 0. -1.
         21    1    1    2  503  501  0.17005386234E+02 -0.32037940245E+02  0.50779483358E+02  0.62403274804E+02  0.00000000000E+00 0. -1.
         21    1    1    2  504  503 -0.17005386234E+02  0.32037940245E+02  0.65860703861E+01  0.36864469334E+02  0.00000000000E+00 0. -1.
</event>
<event>
 4    1  0.1571930E+006  0.2038421E+02  0.7546771E-02  0.1528241E+00
         21   -1    0    0  504  501  0.00000000000E+00  0.00000000000E+00  0.79604468922E+02  0.79604468922E+02  0.00000000000E+00 0.  1.
         21   -1    0    0  503  502 -0.00000000000E+00 -0.00000000000E+00 -0.52491621647E+01  0.52491621647E+01  0.00000000000E+00 0.  1.
         21    1    1    2  503  501  0.11861014630E+02 -0.16578069198E+02  0.34002231365E+02  0.39644265464E+02  0.00000000000E+00 0.  1.
         21    1    1    2  504  502 -0.11861014630E+02  0.16578069198E+02  0.40353075393E+02  0.45209365623E+02  0.00000000000E+00 0.  1.
</event>
<event>
 4    1  0.1571930E+006  0.2501111E+02  0.7546771E-02  0.1468679E+00
         21   -1    0    0  504  501  0.00000000000E+00  0.00000000000E+00  0.67970994039E+02  0.67970994039E+02  0.00000000000E+00 0. -1.
         21   -1    0    0  501  502 -0.00000000000E+00 -0.00000000000E+00 -0.11804303016E+02  0.11804303016E+02  0.00000000000E+00 0. -1.
         21    1    1    2  503  502 -0.13801688661E+02  0.20858306181E+02  0.93596735056E+01  0.26705037629E+02  0.00000000000E+00 0. -1.
         21    1    1    2  504  503  0.13801688661E+02 -0.20858306181E+02  0.46807017517E+02  0.53070259425E+02  0.00000000000E+00 0. -1.
</event>
<event>
 4    1  0.1571930E+006  0.2166833E+02  0.7546771E-02  0.1509933E+00
         21   -1    0    0  503  501  0.00000000000E+00  0.00000000000E+00  0.53602606364E+02  0.53602606364E+02  0.00000000000E+00 0.  1.
         21   -1    0    0  504  502 -0.00000000000E+00 -0.00000000000E+00 -0.14769046870E+03  0.14769046870E+03  0.00000000000E+00 0. -1.
         21    1    1    2  503  502  0.19539642315E+02  0.93658367906E+01  0.50572424177E+02  0.55018965891E+02  0.00000000000E+00 0.  1.
         21    1    1    2  504  501 -0.19539642315E+02 -0.93658367906E+01 -0.14466028651E+03  0.14627410917E+03  0.00000000000E+00 0. -1.
</event>
<event>
 4    1  0.1571930E+006  0.2215383E+02  0.7546771E-02  0.1503406E+00
         21   -1    0    0  502  501  0.00000000000E+00  0.00000000000E+00  0.20953042259E+02  0.20953042259E+02  0.00000000000E+00 0.  1.
         21   -1    0    0  504  502 -0.00000000000E+00 -0.00000000000E+00 -0.33695109279E+03  0.33695109279E+03  0.00000000000E+00 0. -1.
         21    1    1    2  503  501 -0.16587446334E+02 -0.14684982962E+02  0.14621017107E+02  0.26543666697E+02  0.00000000000E+00 0.  1.
         21    1    1    2  504  503  0.16587446334E+02  0.14684982962E+02 -0.33061906764E+03  0.33136046835E+03  0.00000000000E+00 0. -1.
</event>
<event>
 4    1  0.1571930E+006  0.2498814E+02  0.7546771E-02  0.1468936E+00
         21   -1    0    0  503  501  0.00000000000E+00  0.00000000000E+00  0.11751448085E+03  0.11751448085E+03  0.00000000000E+00 0. -1.
         21   -1    0    0  504  502 -0.00000000000E+00 -0.00000000000E+00 -0.14788062586E+02  0.14788062586E+02  0.00000000000E+00 0. -1.
         21    1    1    2  503  502 -0.13167769175E+02 -0.21237166190E+02  0.10431288153E+03  0.10726408824E+03  0.00000000000E+00 0. -1.
         21    1    1    2  504  501  0.13167769175E+02  0.21237166190E+02 -0.15864632683E+01  0.25038455194E+02  0.00000000000E+00 0. -1.
</event>
<event>
 4    1  0.1571930E+006  0.2688802E+02  0.7546771E-02  0.1448736E+00
         21   -1    0    0  503  501  0.00000000000E+00  0.00000000000E+00  0.13567215013E+03  0.13567215013E+03  0.00000000000E+00 0.  1.
         21   -1    0    0  504  502 -0.00000000000E+00 -0.00000000000E+00 -0.10004122404E+03  0.10004122404E+03  0.00000000000E+00 0.  1.
         21    1    1    2  503  502 -0.12051570604E+02  0.24035917841E+02  0.13249033797E+03  0.13519118076E+03  0.00000000000E+00 0.  1.
         21    1    1    2  504  501  0.12051570604E+02 -0.24035917841E+02 -0.96859411872E+02  0.10052219341E+03  0.00000000000E+00 0.  1.
</event>
<event>
 4    1  0.1571930E+006  0.2059018E+02  0.7546771E-02  0.1525197E+00
         21   -1    0    0  503  501  0.00000000000E+00  0.00000000000E+00  0.20247792569E+03  0.20247792569E+03  0.00000000000E+00 0. -1.
         21   -1    0    0  504  502 -0.00000000000E+00 -0.00000000000E+00 -0.88931720618E+01  0.88931720618E+01  0.00000000000E+00 0. -1.
         21    1    1    2  503  502  0.13712280617E+02 -0.15359980191E+02  0.43820505399E+01  0.21051318204E+02  0.00000000000E+00 0. -1.
         21    1    1    2  504  501 -0.13712280617E+02  0.15359980191E+02  0.18920270309E+03  0.19031977955E+03  0.00000000000E+00 0. -1.
</event>
<event>
 4    1  0.1571930E+006  0.2216586E+02  0.7546771E-02  0.1503247E+00
         21   -1    0    0  503  501  0.00000000000E+00  0.00000000000E+00  0.11589563416E+01  0.11589563416E+01  0.00000000000E+00 0. -1.
         21   -1    0    0  501  502 -0.00000000000E+00 -0.00000000000E+00 -0.56696604346E+03  0.56696604346E+03  0.00000000000E+00 0.  1.
         21    1    1    2  503  504  0.14881202261E+02 -0.16427872232E+02 -0.14022896757E+03  0.14197002682E+03  0.00000000000E+00 0. -1.
         21    1    1    2  504  502 -0.14881202261E+02  0.16427872232E+02 -0.42557811954E+03  0.42615497298E+03  0.00000000000E+00 0.  1.
</event>
<event>
 4    1  0.1571930E+006  0.2077495E+02  0.7546771E-02  0.1522502E+00
         21   -1    0    0  502  501  0.00000000000E+00  0.00000000000E+00  0.68624047106E+00  0.68624047106E+00  0.00000000000E+00 0. -1.
         21   -1    0    0  504  502 -0.00000000000E+00 -0.00000000000E+00 -0.67323131549E+03  0.67323131549E+03  0.00000000000E+00 0. -1.
         21    1    1    2  503  501  0.18499239786E+02  0.94539138500E+01 -0.24983651252E+03  0.25069878609E+03  0.00000000000E+00 0. -1.
         21    1    1    2  504  503 -0.18499239786E+02 -0.94539138500E+01 -0.42270856250E+03  0.42321876987E+03  0.00000000000E+00 0. -1.
</event>
<event>
 4    1  0.1571930E+006  0.2008164E+02  0.7546771E-02  0.1532791E+00
         21   -1    0    0  503  501  0.00000000000E+00  0.00000000000E+00  0.17083075388E+02  0.17083075388E+02  0.00000000000E+00 0.  1.
         21   -1    0    0  504  502 -0.00000000000E+00 -0.00000000000E+00 -0.81111133143E+02  0.81111133143E+02  0.00000000000E+00 0. -1.
         21    1    1    2  503  502 -0.29745305799E+01 -0.19860126510E+02 -0.73353686677E+02  0.76052848772E+02  0.00000000000E+00 0. -1.
         21    1    1    2  504  501  0.29745305799E+01  0.19860126510E+02  0.93256289228E+01  0.22141359759E+02  0.00000000000E+00 0.  1.
</event>
<event>
 4    1  0.1571930E+006  0.2906894E+02  0.7546771E-02  0.1427863E+00
         21   -1    0    0  503  501  0.00000000000E+00  0.00000000000E+00  0.37439573901E+01  0.37439573901E+01  0.00000000000E+00 0. -1.
         21   -1    0    0  501  502 -0.00000000000E+00 -0.00000000000E+00 -0.30135640093E+03  0.30135640093E+03  0.00000000000E+00 0. -1.
         21    1    1    2  503  504 -0.27958838274E+02  0.79565428227E+01 -0.72369604028E+02  0.77989504413E+02  0.00000000000E+00 0. -1.
         21    1    1    2  504  502  0.27958838274E+02 -0.79565428227E+01 -0.22524283951E+03  0.22711085390E+03  0.00000000000E+00 0. -1.
</event>
<event>
 4    1  0.1571930E+006  0.2001596E+02  0.7546771E-02  0.1533792E+00
         21   -1    0    0  502  501  0.00000000000E+00  0.00000000000E+00  0.48249547686E+02  0.48249547686E+02  0.00000000000E+00 0. -1.
         21   -1    0    0  503  502 -0.00000000000E+00 -0.00000000000E+00 -0.54788987070E+02  0.54788987070E+02  0.00000000000E+00 0. -1.
         21    1    1    2  503  504  0.19714942258E+01  0.19918634415E+02 -0.50724707356E+02  0.54531043662E+02  0.00000000000E+00 0. -1.
         21    1    1    2  504  501 -0.19714942258E+01 -0.19918634415E+02  0.44185267972E+02  0.48507491094E+02  0.00000000000E+00 0. -1.
</event>
<event>
 4    1  0.1571930E+006  0.2007508E+02  0.7546771E-02  0.1532891E+00
         21   -1    0    0  502  501  0.00000000000E+00  0.00000000000E+00  0.10101132185E+04  0.10101132185E+04  0.00000000000E+00 0. -1.
         21   -1    0    0  503  502 -0.00000000000E+00 -0.00000000000E+00 -0.27151536162E+01  0.27151536162E+01  0.00000000000E+00 0.  1.
         21    1    1    2  503  504 -0.19985591670E+02  0.18933528617E+01  0.35969490414E+02  0.41192388861E+02  0.00000000000E+00 0.  1.
         21    1    1    2  504  501  0.19985591670E+02 -0.18933528617E+01  0.97142857450E+03  0.97163598329E+03  0.00000000000E+00 0. -1.
</event>
<event>
 4    1  0.1571930E+006  0.2145935E+02  0.7546771E-02  0.1512807E+00
         21   -1    0    0  502  501  0.00000000000E+00  0.00000000000E+00  0.62880602381E+03  0.62880602381E+03  0.00000000000E+00 0. -1.
         21   -1    0    0  503  502 -0.00000000000E+00 -0.00000000000E+00 -0.10565777897E+02  0.10565777897E+02  0.00000000000E+00 0.  1.
         21    1    1    2  503  504  0.20734604163E+02  0.55299075460E+01  0.71236250044E+00  0.21471170150E+02  0.00000000000E+00 0.  1.
         21    1    1    2  504  501 -0.20734604163E+02 -0.55299075460E+01  0.61752788341E+03  0.61790063155E+03  0.00000000000E+00 0. -1.
</event>
<event>
 4    1  0.1571930E+006  0.2338051E+02  0.7546771E-02  0.1487775E+00
         21   -1    0    0  504  501  0.00000000000E+00  0.00000000000E+00  0.32229442219E+03  0.32229442219E+03  0.00000000000E+00 0. -1.
         21   -1    0    0  503  502 -0.00000000000E+00 -0.00000000000E+00 -0.41322278944E+01  0.41322278944E+01  0.00000000000E+00 0. -1.
         21    1    1    2  503  501  0.12819530885E+02  0.19552695609E+02  0.28439874076E+03  0.28535818198E+03  0.00000000000E+00 0. -1.
         21    1    1    2  504  502 -0.12819530885E+02 -0.19552695609E+02  0.33763453535E+02  0.41068468103E+02  0.00000000000E+00 0. -1.
</event>
<event>
 4    1  0.1571930E+006  0.2730305E+02  0.7546771E-02  0.1444587E+00
         21   -1    0    0  503  501  0.00000000000E+00  0.00000000000E+00  0.98117472280E+01  0.98117472280E+01  0.00000000000E+00 0.  1.
         21   -1    0    0  504  502 -0.00000000000E+00 -0.00000000000E+00 -0.41918755340E+03  0.41918755340E+03  0.00000000000E+00 0.  1.
         21    1    1    2  503  502 -0.23891929071E+02 -0.13214840653E+02 -0.10597789501E+02  0.29287701011E+02  0.00000000000E+00 0.  1.
         21    1    1    2  504  501  0.23891929071E+02  0.13214840653E+02 -0.39877801667E+03  0.39971159961E+03  0.00000000000E+00 0.  1.
</event>
<event>
 4    1  0.1571930E+006  0.2581227E+02  0.7546771E-02  0.1459918E+00
         21   -1    0    0  504  501  0.00000000000E+00  0.00000000000E+00  0.86199844124E+02  0.86199844124E+02  0.00000000000E+00 0.  1.
         21   -1    0    0  503  502 -0.00000000000E+00 -0.00000000000E+00 -0.10500600896E+03  0.10500600896E+03  0.00000000000E+00 0. -1.
         21    1    1    2  503  501 -0.20201453379E+02 -0.16067814771E+02  0.82613969273E+02  0.86552534967E+02  0.00000000000E+00 0.  1.
         21    1    1    2  504  502  0.20201453379E+02  0.16067814771E+02 -0.10142013411E+03  0.10465331812E+03  0.00000000000E+00 0. -1.
</event>
<event>
 4    1  0.1571930E+006  0.2412379E+02  0.7546771E-02  0.1478849E+00
         21   -1    0    0  503  501  0.00000000000E+00  0.00000000000E+00  0.90756543130E+02  0.90756543130E+02  0.00000000000E+00 0. -1.
         21   -1    0    0  504  502 -0.00000000000E+00 -0.00000000000E+00 -0.10086301581E+02  0.10086301581E+02  0.00000000000E+00 0. -1.
         21    1    1    2  503  502 -0.15860996094E+01 -0.24071594094E+02  0.70766338140E+02  0.74765178847E+02  0.00000000000E+00 0. -1.
         21    1    1    2  504  501  0.15860996094E+01  0.24071594094E+02  0.99039034083E+01  0.26077665864E+02  0.00000000000E+00 0. -1.
</event>
<event>
 4    1  0.1571930E+006  0.2416258E+02  0.7546771E-02  0.1478394E+00
         21   -1    0    0  502  501  0.00000000000E+00  0.00000000000E+00  0.34618448662E+03  0.34618448662E+03  0.00000000000E+00 0. -1.
         21   -1    0    0  503  502 -0.00000000000E+00 -0.00000000000E+00 -0.15458280117E+02  0.15458280117E+02  0.00000000000E+00 0.  1.
         21    1    1    2  503  504 -0.22720598976E+02 -0.82222113881E+01 -0.53098429964E+01  0.24739135203E+02  0.00000000000E+00 0.  1.
         21    1    1    2  504  501  0.22720598976E+02  0.82222113881E+01  0.33603604950E+03  0.33690363154E+03  0.00000000000E+00 0. -1.
</event>
<event>
 4    1  0.1571930E+006  0.7370593E+02  0.7546771E-02  0.1219265E+00
         21   -1    0    0  503  501  0.00000000000E+00  0.00000000000E+00  0.15702591910E+03  0.15702591910E+03  0.00000000000E+00 0. -1.
         21   -1    0    0  504  502 -0.00000000000E+00 -0.00000000000E+00 -0.25973454837E+03  0.25973454837E+03  0.00000000000E+00 0. -1.
         21    1    1    2  503  502 -0.69111418791E+02  0.25615916869E+02 -0.24536069344E+03  0.25619218039E+03  0.00000000000E+00 0. -1.
         21    1    1    2  504  501  0.69111418791E+02 -0.25615916869E+02  0.14265206417E+03  0.16056828708E+03  0.00000000000E+00 0. -1.
</event>
<event>
 4    1  0.1571930E+006  0.2657334E+02  0.7546771E-02  0.1451942E+00
         21   -1    0    0  503  501  0.00000000000E+00  0.00000000000E+00  0.45849039305E+03  0.45849039305E+03  0.00000000000E+00 0. -1.
         21   -1    0    0  504  502 -0.00000000000E+00 -0.00000000000E+00 -0.26712055551E+02  0.26712055551E+02  0.00000000000E+00 0. -1.
         21    1    1    2  503  502  0.10735157912E+02 -0.24308408865E+02 -0.19614355654E+02  0.33028250100E+02  0.00000000000E+00 0. -1.
         21    1    1    2  504  501 -0.10735157912E+02  0.24308408865E+02  0.45139269316E+03  0.45217419850E+03  0.00000000000E+00 0. -1.
</event>
<event>
 4    1  0.1571930E+006  0.3595174E+02  0.7546771E-02  0.1373993E+00
         21   -1    0    0  504  501  0.00000000000E+00  0.00000000000E+00  0.58574646300E+02  0.58574646300E+02  0.00000000000E+00 0.  1.
         21   -1    0    0  503  502 -0.00000000000E+00 -0.00000000000E+00 -0.15876858365E+03  0.15876858365E+03  0.00000000000E+00 0. -1.
         21    1    1    2  503  501  0.35949915831E+02 -0.36228562330E+00 -0.15093437511E+03  0.15515706007E+03  0.00000000000E+00 0. -1.
         21    1    1    2  504  502 -0.35949915831E+02  0.36228562330E+00  0.50740437767E+02  0.62186169876E+02  0.00000000000E+00 0.  1.
</event>
<event>
 4    1  0.1571930E+006  0.2301544E+02  0.7546771E-02  0.1492304E+00
         21   -1    0    0  503  501  0.00000000000E+00  0.00000000000E+00  0.54574996256E+02  0.54574996256E+02  0.00000000000E+00 0.  1.
         21   -1    0    0  504  502 -0.00000000000E+00 -0.00000000000E+00 -0.33711685587E+02  0.33711685587E+02  0.00000000000E+00 0.  1.
         21    1    1    2  503  502 -0.20769675243E+02 -0.99161934125E+01  0.47682071482E+02  0.52946106961E+02  0.00000000000E+00 0.  1.
         21    1    1    2  504  501  0.20769675243E+02  0.99161934125E+01 -0.26818760813E+02  0.35340574882E+02  0.00000000000E+00 0.  1.
</event>
<event>
 4    1  0.1571930E+006  0.2114038E+02  0.7546771E-02  0.1517270E+00
         21   -1    0    0  504  501  0.00000000000E+00  0.00000000000E+00  0.45604634568E+02  0.45604634568E+02  0.00000000000E+00 0. -1.
         21   -1    0    0  503  502 -0.00000000000E+00 -0.00000000000E+00 -0.52848847250E+02  0.52848847250E+02  0.00000000000E+00 0.  1.
         21    1    1    2  503  501 -0.14173229926E+02  0.15685513161E+02 -0.48050964831E+02  0.52495818794E+02  0.00000000000E+00 0.  1.
         21    1    1    2  504  502  0.14173229926E+02 -0.15685513161E+02  0.40806752149E+02  0.45957663024E+02  0.00000000000E+00 0. -1.
</event>
<event>
 4    1  0.1571930E+006  0.3004484E+02  0.7546771E-02  0.1419207E+00
         21   -1    0    0  504  501  0.00000000000E+00  0.00000000000E+00  0.69481813830E+02  0.69481813830E+02  0.00000000000E+00 0. -1.
         21   -1    0    0  503  502 -0.00000000000E+00 -0.00000000000E+00 -0.57968685625E+02  0.57968685625E+02  0.00000000000E+00 0. -1.
         21    1    1    2  503  501  0.14683101258E+02 -0.26212570643E+02 -0.50375319250E+02  0.58654625664E+02  0.00000000000E+00 0. -1.
         21    1    1    2  504  502 -0.14683101258E+02  0.26212570643E+02  0.61888447455E+02  0.68795873791E+02  0.00000000000E+00 0. -1.
</event>
<event>
 4    1  0.1571930E+006  0.2663061E+02  0.7546771E-02  0.1451354E+00
         21   -1    0    0  502  501  0.00000000000E+00  0.00000000000E+00  0.19798837409E+02  0.19798837409E+02  0.00000000000E+00 0. -1.
         21   -1    0    0  504  502 -0.00000000000E+00 -0.00000000000E+00 -0.21024658802E+03  0.21024658802E+03  0.00000000000E+00 0. -1.
         21    1    1    2  503  501  0.25059121466E+02  0.90127455234E+01  0.95434357881E+01  0.28288978722E+02  0.00000000000E+00 0. -1.
         21    1    1    2  504  503 -0.25059121466E+02 -0.90127455234E+01 -0.19999118640E+03  0.20175644671E+03  0.00000000000E+00 0. -1.
</event>
<event>
 4    1  0.1571930E+006  0.2691093E+02  0.7546771E-02  0.1448505E+00
         21   -1    0    0  503  501  0.00000000000E+00  0.00000000000E+00  0.19137182260E+01  0.19137182260E+01  0.00000000000E+00 0.  1.
         21   -1    0    0  504  502 -0.00000000000E+00 -0.00000000000E+00 -0.41031938895E+03  0.41031938895E+03  0.00000000000E+00 0.  1.
         21    1    1    2  503  502  0.17729921217E+02  0.20244707253E+02 -0.26166882923E+03  0.26304899632E+03  0.00000000000E+00 0.  1.
         21    1    1    2  504  501 -0.17729921217E+02 -0.20244707253E+02 -0.14673684149E+03  0.14918411085E+03  0.00000000000E+00 0.  1.
</event>
<event>
 4    1  0.1571930E+006  0.2349950E+02  0.7546771E-02  0.1486319E+00
         21   -1    0    0  504  501  0.00000000000E+00  0.00000000000E+00  0.93214000170E+03  0.93214000170E+03  0.00000000000E+00 0. -1.
         21   -1    0    0  501  502 -0.00000000000E+00 -0.00000000000E+00 -0.23758099158E+01  0.23758099158E+01  0.00000000000E+00 0.  1.
         21    1    1    2  503  502 -0.43830669507E+01  0.23087127127E+02  0.60051919785E+02  0.64486120869E+02  0.00000000000E+00 0.  1.
         21    1    1    2  504  503  0.43830669507E+01 -0.23087127127E+02  0.86971227200E+03  0.87002969075E+03  0.00000000000E+00 0. -1.
</event>
<event>
 4    1  0.1571930E+006  0.3244887E+02  0.7546771E-02  0.1399444E+00
         21   -1    0    0  504  501  0.00000000000E+00  0.00000000000E+00  0.78004529196E+01  0.78004529196E+01  0.00000000000E+00 0.  1.
         21   -1    0    0  503  502 -0.00000000000E+00 -0.00000000000E+00 -0.16967769564E+03  0.16967769564E+03  0.00000000000E+00 0.  1.
         21    1    1    2  503  501  0.69329888626E+01  0.31699570910E+02 -0.12106533379E+03  0.12533851832E+03  0.00000000000E+00 0.  1.
         21    1    1    2  504  502 -0.69329888626E+01 -0.31699570910E+02 -0.40811908934E+02  0.52139630237E+02  0.00000000000E+00 0.  1.
</event>
<event>
 4    1  0.1571930E+006  0.2374500E+02  0.7546771E-02  0.1483349E+00
         21   -1    0    0  504  501  0.00000000000E+00  0.00000000000E+00  0.11672419348E+02  0.11672419348E+02  0.00000000000E+00 0.  1.
         21   -1    0    0  503  502 -0.00000000000E+00 -0.00000000000E+00 -0.10187956439E+03  0.10187956439E+03  0.00000000000E+00 0.  1.
         21    1    1    2  503  501  0.21265915493E+02 -0.10563424687E+02 -0.39313440817E+01  0.24068248153E+02  0.00000000000E+00 0.  1.
         21    1    1    2  504  502 -0.21265915493E+02  0.10563424687E+02 -0.86275800962E+02  0.89483735586E+02  0.00000000000E+00 0.  1.
</event>
<event>
 4    1  0.1571930E+006  0.2316007E+02  0.7546771E-02  0.1490498E+00
         21   -1    0    0  504  501  0.00000000000E+00  0.00000000000E+00  0.54514669643E+01  0.54514669643E+01  0.00000000000E+00 0.  1.
         21   -1    0    0  503  502 -0.00000000000E+00 -0.00000000000E+00 -0.35150519266E+03  0.35150519266E+03  0.00000000000E+00 0. -1.
         21    1    1    2  503  501  0.22590842162E+02 -0.51032067586E+01 -0.21574612050E+02  0.31652057657E+02  0.00000000000E+00 0.  1.
         21    1    1    2  504  502 -0.22590842162E+02  0.51032067586E+01 -0.32447911364E+03  0.32530460196E+03  0.00000000000E+00 0. -1.
</event>
<event>
 4    1  0.1571930E+006  0.3957717E+02  0.7546771E-02  0.1350982E+00
         21   -1    0    0  503  501  0.00000000000E+00  0.00000000000E+00  0.51755681181E+02  0.51755681181E+02  0.00000000000E+00 0.  1.
         21   -1    0    0  504  502 -0.00000000000E+00 -0.00000000000E+00 -0.30416306146E+02  0.30416306146E+02  0.00000000000E+00 0.  1.
         21    1    1    2  503  502  0.25659973947E+02  0.30131685284E+02  0.13573584197E+02  0.41840111244E+02  0.00000000000E+00 0.  1.
         21    1    1    2  504  501 -0.25659973947E+02 -0.30131685284E+02  0.77657908376E+01  0.40331876082E+02  0.00000000000E+00 0.  1.
</event>
<event>
 4    1  0.1571930E+006  0.2174805E+02  0.7546771E-02  0.1508847E+00
         21   -1    0    0  504  501  0.00000000000E+00  0.00000000000E+00  0.94623970537E+02  0.94623970537E+02  0.00000000000E+00 0. -1.
         21   -1    0    0  503  502 -0.00000000000E+00 -0.00000000000E+00 -0.19039278177E+02  0.19039278177E+02  0.00000000000E+00 0. -1.
         21    1    1    2  503  501  0.20309726346E+02 -0.77777063487E+01 -0.11012219700E+02  0.24377175452E+02  0.00000000000E+00 0. -1.
         21    1    1    2  504  502 -0.20309726346E+02  0.77777063487E+01  0.86596912060E+02  0.89286073262E+02  0.00000000000E+00 0. -1.
</event>
<event>
 4    1  0.1571930E+006  0.3483129E+02  0.7546771E-02  0.1381753E+00
         21   -1    0    0  503  501  0.00000000000E+00  0.00000000000E+00  0.97152741414E+00  0.97152741414E+00  0.00000000000E+00 0.  1.
         21   -1    0    0  504  502 -0.00000000000E+00 -0.00000000000E+00 -0.13287689079E+04  0.13287689079E+04  0.00000000000E+00 0.  1.
         21    1    1    2  503  502 -0.31820544804E+02 -0.14165864133E+02 -0.50076576017E+03  0.50197566210E+03  0.00000000000E+00 0.  1.
         21    1    1    2  504  501  0.31820544804E+02  0.14165864133E+02 -0.82703162029E+03  0.82776477319E+03  0.00000000000E+00 0.  1.
</event>
<event>
 4    1  0.1571930E+006  0.2029867E+02  0.7546771E-02  0.1529518E+00
         21   -1    0    0  504  501  0.00000000000E+00  0.00000000000E+00  0.43074075015E+01  0.43074075015E+01  0.00000000000E+00 0. -1.
         21   -1    0    0  503  502 -0.00000000000E+00 -0.00000000000E+00 -0.11062538033E+03  0.11062538033E+03  0.00000000000E+00 0. -1.
         21    1    1    2  503  501 -0.72504185975E+01  0.18959622653E+02 -0.32020853993E+02  0.37912675339E+02  0.00000000000E+00 0. -1.
         21    1    1    2  504  502  0.72504185975E+01 -0.18959622653E+02 -0.74297118837E+02  0.77020112493E+02  0.00000000000E+00 0. -1.
</event>
<event>
 4    1  0.1571930E+006  0.2139058E+02  0.7546771E-02  0.1513761E+00
         21   -1    0    0  503  501  0.00000000000E+00  0.00000000000E+00  0.24358587589E+01  0.24358587589E+01  0.00000000000E+00 0.  1.
         21   -1    0    0  504  502 -0.00000000000E+00 -0.00000000000E+00 -0.13396878673E+04  0.13396878673E+04  0.00000000000E+00 0. -1.
         21    1    1    2  503  502  0.10939624361E+02  0.18381559548E+02 -0.46386056755E+02  0.51080557689E+02  0.00000000000E+00 0.  1.
         21    1    1    2  504  501 -0.10939624361E+02 -0.18381559548E+02 -0.12908659518E+04  0.12910431684E+04  0.00000000000E+00 0. -1.
</event>
<event>
 4    1  0.1571930E+006  0.2056018E+02  0.7546771E-02  0.1525638E+00
         21   -1    0    0  503  501  0.00000000000E+00  0.00000000000E+00  0.28192657502E+02  0.28192657502E+02  0.00000000000E+00 0. -1.
         21   -1    0    0  501  502 -0.00000000000E+00 -0.00000000000E+00 -0.98168818304E+02  0.98168818304E+02  0.00000000000E+00 0. -1.
         21    1    1    2  503  504 -0.84343489832E+01  0.18750537702E+02  0.23167825352E+02  0.30975297229E+02  0.00000000000E+00 0. -1.
         21    1    1    2  504  502  0.84343489832E+01 -0.18750537702E+02 -0.93143986154E+02  0.95386178577E+02  0.00000000000E+00 0. -1.
</event>
<event>
 4    1  0.1571930E+006  0.2415507E+02  0.7546771E-02  0.1478482E+00
         21   -1    0    0  502  501  0.00000000000E+00  0.00000000000E+00  0.14507642276E+03  0.14507642276E+03  0.00000000000E+00 0.  1.
         21   -1    0    0  503  502 -0.00000000000E+00 -0.00000000000E+00 -0.41424500523E+02  0.41424500523E+02  0.00000000000E+00 0.  1.
         21    1    1    2  503  504 -0.16811560869E+02  0.17344704401E+02 -0.36782229934E+02  0.44004542817E+02  0.00000000000E+00 0.  1.
         21    1    1    2  504  501  0.16811560869E+02 -0.17344704401E+02  0.14043415217E+03  0.14249638046E+03  0.00000000000E+00 0.  1.
</event>
<event>
 4    1  0.1571930E+006  0.2090433E+02  0.7546771E-02  0.1520635E+00
         21   -1    0    0  504  501  0.00000000000E+00  0.00000000000E+00  0.11227752658E+02  0.11227752658E+02  0.00000000000E+00 0.  1.
         21   -1    0    0  501  502 -0.00000000000E+00 -0.00000000000E+00 -0.63315612624E+02  0.63315612624E+02  0.00000000000E+00 0.  1.
         21    1    1    2  503  502  0.17318178456E+02 -0.11707769891E+02 -0.49179162576E+02  0.53437638538E+02  0.00000000000E+00 0.  1.
         21    1    1    2  504  503 -0.17318178456E+02  0.11707769891E+02 -0.29086973905E+01  0.21105726744E+02  0.00000000000E+00 0.  1.
</event>
<event>
 4    1  0.1571930E+006  0.2243333E+02  0.7546771E-02  0.1499739E+00
         21   -1    0    0  504  501  0.00000000000E+00  0.00000000000E+00  0.65801628934E+01  0.65801628934E+01  0.00000000000E+00 0.  1.
         21   -1    0    0  503  502 -0.00000000000E+00 -0.00000000000E+00 -0.26335579907E+03  0.26335579907E+03  0.00000000000E+00 0.  1.
         21    1    1    2  503  501  0.18332398159E+02  0.12929704733E+02 -0.24208122207E+03  0.24311843238E+03  0.00000000000E+00 0.  1.
         21    1    1    2  504  502 -0.18332398159E+02 -0.12929704733E+02 -0.14694414107E+02  0.26817529578E+02  0.00000000000E+00 0.  1.
</event>
<event>
 4    1  0.1571930E+006  0.3809438E+02  0.7546771E-02  0.1360030E+00
         21   -1    0    0  502  501  0.00000000000E+00  0.00000000000E+00  0.31454705887E+02  0.31454705887E+02  0.00000000000E+00 0. -1.
         21   -1    0    0  503  502 -0.00000000000E+00 -0.00000000000E+00 -0.35452085118E+03  0.35452085118E+03  0.00000000000E+00 0. -1.
         21    1    1    2  503  504 -0.57095020573E+01  0.37664085397E+02 -0.34152611375E+03  0.34364410094E+03  0.00000000000E+00 0. -1.
         21    1    1    2  504  501  0.57095020573E+01 -0.37664085397E+02  0.18459968451E+02  0.42331456126E+02  0.00000000000E+00 0. -1.
</event>
<event>
 4    1  0.1571930E+006  0.2555530E+02  0.7546771E-02  0.1462686E+00
         21   -1    0    0  502  501  0.00000000000E+00  0.00000000000E+00  0.17974794224E+03  0.17974794224E+03  0.00000000000E+00 0. -1.
         21   -1    0    0  504  502 -0.00000000000E+00 -0.00000000000E+00 -0.15113813003E+02  0.15113813003E+02  0.00000000000E+00 0.  1.
         21    1    1    2  503  501  0.93534479829E+01  0.23782058287E+02  0.16723330478E+03  0.16917461841E+03  0.00000000000E+00 0. -1.
         21    1    1    2  504  503 -0.93534479829E+01 -0.23782058287E+02 -0.25991755380E+01  0.25687136840E+02  0.00000000000E+00 0.  1.
</event>
<event>
 4    1  0.1571930E+006  0.2424262E+02  0.7546771E-02  0.1477457E+00
         21   -1    0    0  504  501  0.00000000000E+00  0.00000000000E+00  0.21857002187E+03  0.21857002187E+03  0.00000000000E+00 0.  1.
         21   -1    0    0  501  502 -0.00000000000E+00 -0.00000000000E+00 -0.27246597464E+01  0.27246597464E+01  0.00000000000E+00 0.  1.
         21    1    1    2  503  502 -0.21879102602E+02 -0.10440755424E+02  0.12060550790E+03  0.12301785660E+03  0.00000000000E+00 0.  1.
         21    1    1    2  504  503  0.21879102602E+02  0.10440755424E+02  0.95239854221E+02  0.98276825022E+02  0.00000000000E+00 0.  1.
</event>
<event>
 4    1  0.1571930E+006  0.3501171E+02  0.7546771E-02  0.1380481E+00
         21   -1    0    0  504  501  0.00000000000E+00  0.00000000000E+00  0.74487690119E+02  0.74487690119E+02  0.00000000000E+00 0. -1.
         21   -1    0    0  503  502 -0.00000000000E+00 -0.00000000000E+00 -0.16475260118E+02  0.16475260118E+02  0.00000000000E+00 0. -1.
         21    1    1    2  503  501  0.22485637055E+02 -0.26836842668E+02  0.30533624590E+02  0.46455594160E+02  0.00000000000E+00 0. -1.
         21    1    1    2  504  502 -0.22485637055E+02  0.26836842668E+02  0.27478805412E+02  0.44507356077E+02  0.00000000000E+00 0. -1.
</event>
<event>
 4    1  0.1571930E+006  0.2819614E+02  0.7546771E-02  0.1435949E+00
         21   -1    0    0  503  501  0.00000000000E+00  0.00000000000E+00  0.25868389897E+01  0.25868389897E+01  0.00000000000E+00 0.  1.
         21   -1    0    0  504  502 -0.00000000000E+00 -0.00000000000E+00 -0.31858149662E+03  0.31858149662E+03  0.00000000000E+00 0.  1.
         21    1    1    2  503  502 -0.24498162395E+02 -0.13959302894E+02 -0.18817122576E+03  0.19027199558E+03  0.00000000000E+00 0.  1.
         21    1    1    2  504  501  0.24498162395E+02  0.13959302894E+02 -0.12782343186E+03  0.13089634002E+03  0.00000000000E+00 0.  1.
</event>
<event>
 4    1  0.1571930E+006  0.2035627E+02  0.7546771E-02  0.1528657E+00
         21   -1    0    0  504  501  0.00000000000E+00  0.00000000000E+00  0.49689982018E+02  0.49689982018E+02  0.00000000000E+00 0.  1.
         21   -1    0    0  503  502 -0.00000000000E+00 -0.00000000000E+00 -0.16241130810E+02  0.16241130810E+02  0.00000000000E+00 0.  1.
         21    1    1    2  503  501 -0.20283893121E+02  0.17150669083E+01 -0.62697152916E+01  0.21299932030E+02  0.00000000000E+00 0.  1.
         21    1    1    2  504  502  0.20283893121E+02 -0.17150669083E+01  0.39718566500E+02  0.44631180798E+02  0.00000000000E+00 0.  1.
</event>
<event>
 4    1  0.1571930E+006  0.2015569E+02  0.7546771E-02  0.1531669E+00
         21   -1    0    0  504  501  0.00000000000E+00  0.00000000000E+00  0.34869316304E+02  0.34869316304E+02  0.00000000000E+00 0. -1.
         21   -1    0    0  501  502 -0.00000000000E+00 -0.00000000000E+00 -0.12084062807E+03  0.12084062807E+03  0.00000000000E+00 0. -1.
         21    1    1    2  503  502 -0.16010959415E+02 -0.12243409022E+02 -0.11699237650E+03  0.11871591319E+03  0.00000000000E+00 0. -1.
         21    1    1    2  504  503  0.16010959415E+02  0.12243409022E+02  0.31021064734E+02  0.36994031182E+02  0.00000000000E+00 0. -1.
</event>
<event>
 4    1  0.1571930E+006  0.2776081E+02  0.7546771E-02  0.1440112E+00
         21   -1    0    0  503  501  0.00000000000E+00  0.00000000000E+00  0.48179562558E+03  0.48179562558E+03  0.00000000000E+00 0. -1.
         21   -1    0    0  504  502 -0.00000000000E+00 -0.00000000000E+00 -0.34138704565E+01  0.34138704565E+01  0.00000000000E+00 0. -1.
         21    1    1    2  503  502 -0.25782312390E+02  0.10292478379E+02  0.62330255185E+02  0.68232861986E+02  0.00000000000E+00 0. -1.
         21    1    1    2  504  501  0.25782312390E+02 -0.10292478379E+02  0.41605149994E+03  0.41697663406E+03  0.00000000000E+00 0. -1.
</event>
<event>
 4    1  0.1571930E+006  0.2703217E+02  0.7546771E-02  0.1447285E+00
         21   -1    0    0  503  501  0.00000000000E+00  0.00000000000E+00  0.38631677258E+02  0.38631677258E+02  0.00000000000E+00 0.  1.
         21   -1    0    0  504  502 -0.00000000000E+00 -0.00000000000E+00 -0.39384689129E+02  0.39384689129E+02  0.00000000000E+00 0.  1.
         21    1    1    2  503  502  0.26961246527E+02 -0.19569439918E+01 -0.28498238272E+02  0.39279613398E+02  0.00000000000E+00 0.  1.
         21    1    1    2  504  501 -0.26961246527E+02  0.19569439918E+01  0.27745226402E+02  0.38736752989E+02  0.00000000000E+00 0.  1.
</event>
<event>
 4    1  0.1571930E+006  0.3862660E+02  0.7546771E-02  0.1356727E+00
         21   -1    0    0  504  501  0.00000000000E+00  0.00000000000E+00  0.70637370667E+01  0.70637370667E+01  0.00000000000E+00 0.  1.
         21   -1    0    0  503  502 -0.00000000000E+00 -0.00000000000E+00 -0.31439190759E+03  0.31439190759E+03  0.00000000000E+00 0. -1.
         21    1    1    2  503  501  0.30910240338E+02 -0.23164003739E+02 -0.61591001365E+02  0.72701206841E+02  0.00000000000E+00 0.  1.
         21    1    1    2  504  502 -0.30910240338E+02  0.23164003739E+02 -0.24573716916E+03  0.24875443782E+03  0.00000000000E+00 0. -1.
</event>
<event>
 4    1  0.1571930E+006  0.2285475E+02  0.7546771E-02  0.1494330E+00
         21   -1    0    0  503  501  0.00000000000E+00  0.00000000000E+00  0.16746443588E+03  0.16746443588E+03  0.00000000000E+00 0.  1.
         21   -1    0    0  504  502 -0.00000000000E+00 -0.00000000000E+00 -0.11959706603E+02  0.11959706603E+02  0.00000000000E+00 0.  1.
         21    1    1    2  503  502 -0.22747437127E+02 -0.22121729726E+01  0.62092004903E+00  0.22863183217E+02  0.00000000000E+00 0.  1.
         21    1    1    2  504  501  0.22747437127E+02  0.22121729726E+01  0.15488380922E+03  0.15656095926E+03  0.00000000000E+00 0.  1.
</event>
<event>
 4    1  0.1571930E+006  0.5874851E+02  0.7546771E-02  0.1264145E+00
         21   -1    0    0  504  501  0.00000000000E+00  0.00000000000E+00  0.16441368176E+02  0.16441368176E+02  0.00000000000E+00 0.  1.
         21   -1    0    0  503  502 -0.00000000000E+00 -0.00000000000E+00 -0.24393050949E+03  0.24393050949E+03  0.00000000000E+00 0.  1.
         21    1    1    2  503  501  0.27387443895E+02  0.51974177957E+02 -0.16235524711E+03  0.17265750352E+03  0.00000000000E+00 0.  1.
         21    1    1    2  504  502 -0.27387443895E+02 -0.51974177957E+02 -0.65133894199E+02  0.87714374141E+02  0.00000000000E+00 0.  1.
</event>
<event>
 4    1  0.1571930E+006  0.2161160E+02  0.7546771E-02  0.1510709E+00
         21   -1    0    0  503  501  0.00000000000E+00  0.00000000000E+00  0.79475863664E+01  0.79475863664E+01  0.00000000000E+00 0.  1.
         21   -1    0    0  504  502 -0.00000000000E+00 -0.00000000000E+00 -0.84337415114E+02  0.84337415114E+02  0.00000000000E+00 0.  1.
         21    1    1    2  503  502  0.21328198911E+02 -0.34884576285E+01 -0.63601943946E+02  0.67173422416E+02  0.00000000000E+00 0.  1.
         21    1    1    2  504  501 -0.21328198911E+02  0.34884576285E+01 -0.12787884802E+02  0.25111579065E+02  0.00000000000E+00 0.  1.
</event>
<event>
 4    1  0.1571930E+006  0.2714498E+02  0.7546771E-02  0.1446157E+00
         21   -1    0    0  503  501  0.00000000000E+00  0.00000000000E+00  0.54224992808E+02  0.54224992808E+02  0.00000000000E+00 0.  1.
         21   -1    0    0  501  502 -0.00000000000E+00 -0.00000000000E+00 -0.50087230996E+02  0.50087230996E+02  0.00000000000E+00 0.  1.
         21    1    1    2  503  504  0.20356119882E+02 -0.17957676351E+02  0.46591336009E+02  0.53922187897E+02  0.00000000000E+00 0.  1.
         21    1    1    2  504  502 -0.20356119882E+02  0.17957676351E+02 -0.42453574196E+02  0.50390035906E+02  0.00000000000E+00 0.  1.
</event>
<event>
 4    1  0.1571930E+006  0.3098573E+02  0.7546771E-02  0.1411219E+00
         21   -1    0    0  502  501  0.00000000000E+00  0.00000000000E+00  0.73936753213E+02  0.73936753213E+02  0.00000000000E+00 0. -1.
         21   -1    0    0  504  502 -0.00000000000E+00 -0.00000000000E+00 -0.21331601762E+03  0.21331601762E+03  0.00000000000E+00 0.  1.
         21    1    1    2  503  501  0.31943089248E+00 -0.30984083432E+02  0.69496482157E+02  0.76091237961E+02  0.00000000000E+00 0. -1.
         21    1    1    2  504  503 -0.31943089248E+00  0.30984083432E+02 -0.20887574656E+03  0.21116153287E+03  0.00000000000E+00 0.  1.
</event>
<event>
 4    1  0.1571930E+006  0.2066331E+02  0.7546771E-02  0.1524127E+00
         21   -1    0    0  504  501  0.00000000000E+00  0.00000000000E+00  0.81429674875E+01  0.81429674875E+01  0.00000000000E+00 0. -1.
         21   -1    0    0  503  502 -0.00000000000E+00 -0.00000000000E+00 -0.72051549854E+02  0.72051549854E+02  0.00000000000E+00 0. -1.
         21    1    1    2  503  501  0.14705260603E+01  0.20610920026E+02 -0.11031972694E+02  0.23423853071E+02  0.00000000000E+00 0. -1.
         21    1    1    2  504  502 -0.14705260603E+01 -0.20610920026E+02 -0.52876609672E+02  0.56770664270E+02  0.00000000000E+00 0. -1.
</event>
<event>
 4    1  0.1571930E+006  0.2074655E+02  0.7546771E-02  0.1522914E+00
         21   -1    0    0  503  501  0.00000000000E+00  0.00000000000E+00  0.19115117055E+03  0.19115117055E+03  0.00000000000E+00 0. -1.
         21   -1    0    0  501  502 -0.00000000000E+00 -0.00000000000E+00 -0.48313678158E+01  0.48313678158E+01  0.00000000000E+00 0.  1.
         21    1    1    2  503  504 -0.10848983019E+02  0.17683859886E+02  0.16476308893E+03  0.16606412860E+03  0.00000000000E+00 0. -1.
         21    1    1    2  504  502  0.10848983019E+02 -0.17683859886E+02  0.21556713802E+02  0.29918409767E+02  0.00000000000E+00 0.  1.
</event>
<event>
 4    1  0.1571930E+006  0.2659938E+02  0.7546771E-02  0.1451674E+00
         21   -1    0    0  503  501  0.00000000000E+00  0.00000000000E+00  0.16240614244E+03  0.16240614244E+03  0.00000000000E+00 0. -1.
         21   -1    0    0  504  502 -0.00000000000E+00 -0.00000000000E+00 -0.13757190861E+02  0.13757190861E+02  0.00000000000E+00 0.  1.
         21    1    1    2  503  502  0.16996245960E+02  0.20461055687E+02  0.15129984646E+01  0.26642378665E+02  0.00000000000E+00 0.  1.
         21    1    1    2  504  501 -0.16996245960E+02 -0.20461055687E+02  0.14713595312E+03  0.14952095464E+03  0.00000000000E+00 0. -1.
</event>
<event>
 4    1  0.1571930E+006  0.2197026E+02  0.7546771E-02  0.1505850E+00
         21   -1    0    0  502  501  0.00000000000E+00  0.00000000000E+00  0.11595556833E+03  0.11595556833E+03  0.00000000000E+00 0. -1.
         21   -1    0    0  503  502 -0.00000000000E+00 -0.00000000000E+00 -0.49384443798E+01  0.49384443798E+01  0.00000000000E+00 0. -1.
         21    1    1    2  503  504  0.16235604580E+02  0.14801935719E+02  0.31551718972E+02  0.38447407289E+02  0.00000000000E+00 0. -1.
         21    1    1    2  504  501 -0.16235604580E+02 -0.14801935719E+02  0.79465404978E+02  0.82446605421E+02  0.00000000000E+00 0. -1.
</event>
<event>
 4    1  0.1571930E+006  0.2127729E+02  0.7546771E-02  0.1515342E+00
         21   -1    0    0  502  501  0.00000000000E+00  0.00000000000E+00  0.26957893199E+02  0.26957893199E+02  0.00000000000E+00 0.  1.
         21   -1    0    0  503  502 -0.00000000000E+00 -0.00000000000E+00 -0.19967780626E+02  0.19967780626E+02  0.00000000000E+00 0. -1.
         21    1    1    2  503  504 -0.21235084010E+02  0.13394937108E+01 -0.58595158279E+01  0.22069367052E+02  0.00000000000E+00 0. -1.
         21    1    1    2  504  501  0.21235084010E+02 -0.13394937108E+01  0.12849628401E+02  0.24856306773E+02  0.00000000000E+00 0.  1.
</event>
<event>
 4    1  0.1571930E+006  0.4794191E+02  0.7546771E-02  0.1307351E+00
         21   -1    0    0  503  501  0.00000000000E+00  0.00000000000E+00  0.67955918587E+02  0.67955918587E+02  0.00000000000E+00 0. -1.
         21   -1    0    0  501  502 -0.00000000000E+00 -0.00000000000E+00 -0.10281039632E+03  0.10281039632E+03  0.00000000000E+00 0. -1.
         21    1    1    2  503  504 -0.10393400217E+01 -0.47930642520E+02  0.52515191098E+02  0.71107468076E+02  0.00000000000E+00 0. -1.
         21    1    1    2  504  502  0.10393400217E+01  0.47930642520E+02 -0.87369668836E+02  0.99658846836E+02  0.00000000000E+00 0. -1.
</event>
<event>
 4    1  0.1571930E+006  0.2001809E+02  0.7546771E-02  0.1533759E+00
         21   -1    0    0  504  501  0.00000000000E+00  0.00000000000E+00  0.13833405388E+02  0.13833405388E+02  0.00000000000E+00 0.  1.
         21   -1    0    0  501  502 -0.00000000000E+00 -0.00000000000E+00 -0.22830751272E+03  0.22830751272E+03  0.00000000000E+00 0. -1.
         21    1    1    2  503  502 -0.15434649885E+02  0.12747379360E+02 -0.22036631217E+03  0.22127366684E+03  0.00000000000E+00 0. -1.
         21    1    1    2  504  503  0.15434649885E+02 -0.12747379360E+02  0.58922048382E+01  0.20867251267E+02  0.00000000000E+00 0.  1.
</event>
<event>
 4    1  0.1571930E+006  0.2062532E+02  0.7546771E-02  0.1524682E+00
         21   -1    0    0  504  501  0.00000000000E+00  0.00000000000E+00  0.10911210464E+03  0.10911210464E+03  0.00000000000E+00 0. -1.
         21   -1    0    0  501  502 -0.00000000000E+00 -0.00000000000E+00 -0.79298503033E+02  0.79298503033E+02  0.00000000000E+00 0.  1.
         21    1    1    2  503  502  0.15691689095E+02 -0.13385623178E+02 -0.76953473401E+02  0.79669574387E+02  0.00000000000E+00 0.  1.
         21    1    1    2  504  503 -0.15691689095E+02  0.13385623178E+02  0.10676707501E+03  0.10874103328E+03  0.00000000000E+00 0. -1.
</event>
<event>
 4    1  0.1571930E+006  0.2425212E+02  0.7546771E-02  0.1477347E+00
         21   -1    0    0  503  501  0.00000000000E+00  0.00000000000E+00  0.18039814056E+03  0.18039814056E+03  0.00000000000E+00 0. -1.
         21   -1    0    0  504  502 -0.00000000000E+00 -0.00000000000E+00 -0.14870926716E+02  0.14870926716E+02  0.00000000000E+00 0. -1.
         21    1    1    2  503  502 -0.24219023526E+02 -0.12666259284E+01 -0.35066086338E+01  0.24504320964E+02  0.00000000000E+00 0. -1.
         21    1    1    2  504  501  0.24219023526E+02  0.12666259284E+01  0.16903382248E+03  0.17076474632E+03  0.00000000000E+00 0. -1.
</event>
<event>
 4    1  0.1571930E+006  0.3261309E+02  0.7546771E-02  0.1398168E+00
         21   -1    0    0  504  501  0.00000000000E+00  0.00000000000E+00  0.16663223121E+03  0.16663223121E+03  0.00000000000E+00 0.  1.
         21   -1    0    0  501  502 -0.00000000000E+00 -0.00000000000E+00 -0.17534333868E+02  0.17534333868E+02  0.00000000000E+00 0.  1.
         21    1    1    2  503  502  0.31949073894E+02  0.65475443753E+01  0.11145486428E+01  0.32632129546E+02  0.00000000000E+00 0.  1.
         21    1    1    2  504  503 -0.31949073894E+02 -0.65475443753E+01  0.14798334870E+03  0.15153443553E+03  0.00000000000E+00 0.  1.
</event>
<event>
 4    1  0.1571930E+006  0.2308049E+02  0.7546771E-02  0.1491490E+00
         21   -1    0    0  504  501  0.00000000000E+00  0.00000000000E+00  0.78407411817E+03  0.78407411817E+03  0.00000000000E+00 0.  1.
         21   -1    0    0  503  502 -0.00000000000E+00 -0.00000000000E+00 -0.31350786843E+01  0.31350786843E+01  0.00000000000E+00 0. -1.
         21    1    1    2  503  501 -0.23025841893E+02  0.15872883979E+01  0.73882344204E+03  0.73918386575E+03  0.00000000000E+00 0.  1.
         21    1    1    2  504  502  0.23025841893E+02 -0.15872883979E+01  0.42115597444E+02  0.48025331102E+02  0.00000000000E+00 0. -1.
</event>
<event>
 4    1  0.1571930E+006  0.2067879E+02  0.7546771E-02  0.1523901E+00
         21   -1    0    0  503  501  0.00000000000E+00  0.00000000000E+00  0.43161365014E+01  0.43161365014E+01  0.00000000000E+00 0. -1.
         21   -1    0    0  504  502 -0.00000000000E+00 -0.00000000000E+00 -0.10419784575E+03  0.10419784575E+03  0.00000000000E+00 0. -1.
         21    1    1    2  503  502  0.25610814906E+01 -0.20519586259E+02 -0.37908044643E+02  0.43181389594E+02  0.00000000000E+00 0. -1.
         21    1    1    2  504  501 -0.25610814906E+01  0.20519586259E+02 -0.61973664607E+02  0.65332592658E+02  0.00000000000E+00 0. -1.
</event>
<event>
 4    1  0.1571930E+006  0.2522428E+02  0.7546771E-02  0.1466310E+00
         21   -1    0    0  504  501  0.00000000000E+00  0.00000000000E+00  0.24659262758E+01  0.24659262758E+01  0.00000000000E+00 0. -1.
         21   -1    0    0  503  502 -0.00000000000E+00 -0.00000000000E+00 -0.14042968768E+04  0.14042968768E+04  0.00000000000E+00 0.  1.
         21    1    1    2  503  501 -0.24673037429E+02  0.52445935872E+01 -0.13364010581E+04  0.13366390884E+04  0.00000000000E+00 0.  1.
         21    1    1    2  504  502  0.24673037429E+02 -0.52445935872E+01 -0.65429892428E+02  0.70123714683E+02  0.00000000000E+00 0. -1.
</event>
<event>
 4    1  0.1571930E+006  0.3148946E+02  0.7546771E-02  0.1407080E+00
         21   -1    0    0  503  501  0.00000000000E+00  0.00000000000E+00  0.29041784872E+03  0.29041784872E+03  0.00000000000E+00 0.  1.
         21   -1    0    0  501  502 -0.00000000000E+00 -0.00000000000E+00 -0.10496673440E+03  0.10496673440E+03  0.00000000000E+00 0.  1.
         21    1    1    2  503  504 -0.91078950824E+01  0.30143533163E+02  0.28717601430E+03  0.28889729929E+03  0.00000000000E+00 0.  1.
         21    1    1    2  504  502  0.91078950824E+01 -0.30143533163E+02 -0.10172489998E+03  0.10648728384E+03  0.00000000000E+00 0.  1.
</event>
<event>
 4    1  0.1571930E+006  0.3518388E+02  0.7546771E-02  0.1379275E+00
         21   -1    0    0  504  501  0.00000000000E+00  0.00000000000E+00  0.40783180337E+02  0.40783180337E+02  0.00000000000E+00 0.  1.
         21   -1    0    0  503  502 -0.00000000000E+00 -0.00000000000E+00 -0.10609684846E+03  0.10609684846E+03  0.00000000000E+00 0.  1.
         21    1    1    2  503  501  0.45473881170E+01  0.34888772983E+02  0.29394947789E+02  0.45847226465E+02  0.00000000000E+00 0.  1.
         21    1    1    2  504  502 -0.45473881170E+01 -0.34888772983E+02 -0.94708615909E+02  0.10103280233E+03  0.00000000000E+00 0.  1.
</event>
<event>
 4    1  0.1571930E+006  0.3364235E+02  0.7546771E-02  0.1390367E+00
         21   -1    0    0  502  501  0.00000000000E+00  0.00000000000E+00  0.51192457475E+02  0.51192457475E+02  0.00000000000E+00 0. -1.
         21   -1    0    0  504  502 -0.00000000000E+00 -0.00000000000E+00 -0.74232115094E+02  0.74232115094E+02  0.00000000000E+00 0.  1.
         21    1    1    2  503  501  0.86218455598E+01  0.32518791356E+02  0.41030131065E+02  0.53059209072E+02  0.00000000000E+00 0. -1.
         21    1    1    2  504  503 -0.86218455598E+01 -0.32518791356E+02 -0.64069788684E+02  0.72365363497E+02  0.00000000000E+00 0.  1.
</event>
<event>
 4    1  0.1571930E+006  0.3615460E+02  0.7546771E-02  0.1372623E+00
         21   -1    0    0  504  501  0.00000000000E+00  0.00000000000E+00  0.19483202075E+01  0.19483202075E+01  0.00000000000E+00 0. -1.
         21   -1    0    0  503  502 -0.00000000000E+00 -0.00000000000E+00 -0.68091558195E+03  0.68091558195E+03  0.00000000000E+00 0. -1.
         21    1    1    2  503  501  0.36098854186E+02  0.20069854962E+01 -0.38086380471E+03  0.38257599638E+03  0.00000000000E+00 0. -1.
         21    1    1    2  504  502 -0.36098854186E+02 -0.20069854962E+01 -0.29810345703E+03  0.30028790578E+03  0.00000000000E+00 0. -1.
</event>
<event>
 4    1  0.1571930E+006  0.3239545E+02  0.7546771E-02  0.1399861E+00
         21   -1    0    0  504  501  0.00000000000E+00  0.00000000000E+00  0.15097214257E+04  0.15097214257E+04  0.00000000000E+00 0. -1.
         21   -1    0    0  501  502 -0.00000000000E+00 -0.00000000000E+00 -0.43833645151E+01  0.43833645151E+01  0.00000000000E+00 0. -1.
         21    1    1    2  503  502  0.71757462390E+01 -0.31590725522E+02  0.58235126989E+02  0.66639292377E+02  0.00000000000E+00 0. -1.
         21    1    1    2  504  503 -0.71757462390E+01  0.31590725522E+02  0.14471029342E+04  0.14474654979E+04  0.00000000000E+00 0. -1.
</event>
<event>
 4    1  0.1571930E+006  0.2220444E+02  0.7546771E-02  0.1502737E+00
         21   -1    0    0  503  501  0.00000000000E+00  0.00000000000E+00  0.13966350184E+03  0.13966350184E+03  0.00000000000E+00 0.  1.
         21   -1    0    0  504  502 -0.00000000000E+00 -0.00000000000E+00 -0.80877507959E+01  0.80877507959E+01  0.00000000000E+00 0.  1.
         21    1    1    2  503  502 -0.22183309120E+02  0.96853920612E+00  0.12124457478E+03  0.12326104082E+03  0.00000000000E+00 0.  1.
         21    1    1    2  504  501  0.22183309120E+02 -0.96853920612E+00  0.10331176270E+02  0.24490211817E+02  0.00000000000E+00 0.  1.
</event>
<event>
 4    1  0.1571930E+006  0.2095668E+02  0.7546771E-02  0.1519884E+00
         21   -1    0    0  503  501  0.00000000000E+00  0.00000000000E+00  0.10854180300E+03  0.10854180300E+03  0.00000000000E+00 0. -1.
         21   -1    0    0  501  502 -0.00000000000E+00 -0.00000000000E+00 -0.10344433166E+02  0.10344433166E+02  0.00000000000E+00 0. -1.
         21    1    1    2  503  504 -0.33615066666E+01 -0.20685321503E+02  0.95481539187E+02  0.97754317440E+02  0.00000000000E+00 0. -1.
         21    1    1    2  504  502  0.33615066666E+01  0.20685321503E+02  0.27158306418E+01  0.21131918721E+02  0.00000000000E+00 0. -1.
</event>
<event>
 4    1  0.1571930E+006  0.2130286E+02  0.7546771E-02  0.1514984E+00
         21   -1    0    0  503  501  0.00000000000E+00  0.00000000000E+00  0.13550146660E+02  0.13550146660E+02  0.00000000000E+00 0.  1.
         21   -1    0    0  504  502 -0.00000000000E+00 -0.00000000000E+00 -0.33496848718E+02  0.33496848718E+02  0.00000000000E+00 0.  1.
         21    1    1    2  503  502  0.12372083678E+02 -0.17341959840E+02 -0.10276111843E+02  0.23651860397E+02  0.00000000000E+00 0.  1.
         21    1    1    2  504  501 -0.12372083678E+02  0.17341959840E+02 -0.96705902149E+01  0.23395134980E+02  0.00000000000E+00 0.  1.
</event>
<event>
 4    1  0.1571930E+006  0.2664734E+02  0.7546771E-02  0.1451183E+00
         21   -1    0    0  503  501  0.00000000000E+00  0.00000000000E+00  0.17457822609E+03  0.17457822609E+03  0.00000000000E+00 0.  1.
         21   -1    0    0  504  502 -0.00000000000E+00 -0.00000000000E+00 -0.52767402386E+01  0.52767402386E+01  0.00000000000E+00 0.  1.
         21    1    1    2  503  502 -0.89612294113E+00 -0.26632269363E+02  0.41599820233E+02  0.49402690728E+02  0.00000000000E+00 0.  1.
         21    1    1    2  504  501  0.89612294113E+00  0.26632269363E+02  0.12770166562E+03  0.13045227560E+03  0.00000000000E+00 0.  1.
</event>
<event>
 4    1  0.1571930E+006  0.1377180E+03  0.7546771E-02  0.1110917E+00
         21   -1    0    0  504  501  0.00000000000E+00  0.00000000000E+00  0.46275642361E+02  0.46275642361E+02  0.00000000000E+00 0.  1.
         21   -1    0    0  503  502 -0.00000000000E+00 -0.00000000000E+00 -0.58232593122E+03  0.58232593122E+03  0.00000000000E+00 0.  1.
         21    1    1    2  503  501  0.90456632596E+02 -0.10384529310E+03 -0.96975614805E+02  0.16843549848E+03  0.00000000000E+00 0.  1.
         21    1    1    2  504  502 -0.90456632596E+02  0.10384529310E+03 -0.43907467406E+03  0.46016607511E+03  0.00000000000E+00 0.  1.
</event>
<event>
 4    1  0.1571930E+006  0.2534918E+02  0.7546771E-02  0.1464935E+00
         21   -1    0    0  504  501  0.00000000000E+00  0.00000000000E+00  0.22048114252E+03  0.22048114252E+03  0.00000000000E+00 0. -1.
         21   -1    0    0  503  502 -0.00000000000E+00 -0.00000000000E+00 -0.12168837735E+02  0.12168837735E+02  0.00000000000E+00 0. -1.
         21    1    1    2  503  501 -0.22470924816E+02  0.11731932696E+02  0.20559922135E+03  0.20715602943E+03  0.00000000000E+00 0. -1.
         21    1    1    2  504  502  0.22470924816E+02 -0.11731932696E+02  0.27130834262E+01  0.25493950822E+02  0.00000000000E+00 0. -1.
</event>
<event>
 4    1  0.1571930E+006  0.2186129E+02  0.7546771E-02  0.1507314E+00
         21   -1    0    0  504  501  0.00000000000E+00  0.00000000000E+00  0.11809173409E+02  0.11809173409E+02  0.00000000000E+00 0.  1.
         21   -1    0    0  503  502 -0.00000000000E+00 -0.00000000000E+00 -0.50682879202E+02  0.50682879202E+02  0.00000000000E+00 0. -1.
         21    1    1    2  503  501  0.13541719157E+02  0.17162100767E+02 -0.54106295407E+01  0.22520896352E+02  0.00000000000E+00 0.  1.
         21    1    1    2  504  502 -0.13541719157E+02 -0.17162100767E+02 -0.33463076252E+02  0.39971156260E+02  0.00000000000E+00 0. -1.
</event>
<event>
 4    1  0.1571930E+006  0.2570688E+02  0.7546771E-02  0.1461049E+00
         21   -1    0    0  504  501  0.00000000000E+00  0.00000000000E+00  0.17360170287E+02  0.17360170287E+02  0.00000000000E+00 0. -1.
         21   -1    0    0  503  502 -0.00000000000E+00 -0.00000000000E+00 -0.16422175306E+03  0.16422175306E+03  0.00000000000E+00 0. -1.
         21    1    1    2  503  501  0.46504653706E+01 -0.25282743273E+02 -0.15300634067E+03  0.15515084344E+03  0.00000000000E+00 0. -1.
         21    1    1    2  504  502 -0.46504653706E+01  0.25282743273E+02  0.61447578931E+01  0.26431079908E+02  0.00000000000E+00 0. -1.
</event>
<event>
 4    1  0.1571930E+006  0.2202415E+02  0.7546771E-02  0.1505129E+00
         21   -1    0    0  502  501  0.00000000000E+00  0.00000000000E+00  0.77048112503E+01  0.77048112503E+01  0.00000000000E+00 0. -1.
         21   -1    0    0  503  502 -0.00000000000E+00 -0.00000000000E+00 -0.54229493920E+03  0.54229493920E+03  0.00000000000E+00 0.  1.
         21    1    1    2  503  504  0.11452225300E+02 -0.18812482833E+02 -0.52584006329E+03  0.52630108791E+03  0.00000000000E+00 0.  1.
         21    1    1    2  504  501 -0.11452225300E+02  0.18812482833E+02 -0.87500646603E+01  0.23698662541E+02  0.00000000000E+00 0. -1.
</event>
<event>
 4    1  0.1571930E+006  0.2231014E+02  0.7546771E-02  0.1501347E+00
         21   -1    0    0  504  501  0.00000000000E+00  0.00000000000E+00  0.36276571584E+03  0.36276571584E+03  0.00000000000E+00 0. -1.
         21   -1    0    0  503  502 -0.00000000000E+00 -0.00000000000E+00 -0.42125664754E+01  0.42125664754E+01  0.00000000000E+00 0. -1.
         21    1    1    2  503  501 -0.10233362987E+02  0.19824747092E+02  0.28604206463E+02  0.36275927868E+02  0.00000000000E+00 0. -1.
         21    1    1    2  504  502  0.10233362987E+02 -0.19824747092E+02  0.32994894290E+03  0.33070235445E+03  0.00000000000E+00 0. -1.
</event>
<event>
 4    1  0.1571930E+006  0.2566958E+02  0.7546771E-02  0.1461450E+00
         21   -1    0    0  504  501  0.00000000000E+00  0.00000000000E+00  0.19069655394E+02  0.19069655394E+02  0.00000000000E+00 0. -1.
         21   -1    0    0  503  502 -0.00000000000E+00 -0.00000000000E+00 -0.35134483879E+02  0.35134483879E+02  0.00000000000E+00 0. -1.
         21    1    1    2  503  501  0.60273755146E+01 -0.24951913759E+02 -0.45479107816E+01  0.26069344992E+02  0.00000000000E+00 0. -1.
         21    1    1    2  504  502 -0.60273755146E+01  0.24951913759E+02 -0.11516917703E+02  0.28134794281E+02  0.00000000000E+00 0. -1.
</event>
<event>
 4    1  0.1571930E+006  0.2437025E+02  0.7546771E-02  0.1475973E+00
         21   -1    0    0  503  501  0.00000000000E+00  0.00000000000E+00  0.46996094497E+02  0.46996094497E+02  0.00000000000E+00 0. -1.
         21   -1    0    0  504  502 -0.00000000000E+00 -0.00000000000E+00 -0.28486792321E+03  0.28486792321E+03  0.00000000000E+00 0. -1.
         21    1    1    2  503  502 -0.14093658810E+02  0.19881602034E+02 -0.28114560289E+03  0.28219985709E+03  0.00000000000E+00 0. -1.
         21    1    1    2  504  501  0.14093658810E+02 -0.19881602034E+02  0.43273774177E+02  0.49664160615E+02  0.00000000000E+00 0. -1.
</event>
<event>
 4    1  0.1571930E+006  0.2171481E+02  0.7546771E-02  0.1509299E+00
         21   -1    0    0  504  501  0.00000000000E+00  0.00000000000E+00  0.79344168552E+02  0.79344168552E+02  0.00000000000E+00 0.  1.
         21   -1    0    0  503  502 -0.00000000000E+00 -0.00000000000E+00 -0.21987713185E+03  0.21987713185E+03  0.00000000000E+00 0.  1.
         21    1    1    2  503  501  0.25781455301E+01 -0.21561217937E+02 -0.21784142971E+03  0.21892103930E+03  0.00000000000E+00 0.  1.
         21    1    1    2  504  502 -0.25781455301E+01  0.21561217937E+02  0.77308466411E+02  0.80300261096E+02  0.00000000000E+00 0.  1.
</event>
<event>
 4    1  0.1571930E+006  0.4288984E+02  0.7546771E-02  0.1332336E+00
         21   -1    0    0  504  501  0.00000000000E+00  0.00000000000E+00  0.67730228533E+02  0.67730228533E+02  0.00000000000E+00 0. -1.
         21   -1    0    0  503  502 -0.00000000000E+00 -0.00000000000E+00 -0.29971211853E+02  0.29971211853E+02  0.00000000000E+00 0.  1.
         21    1    1    2  503  501 -0.26981615958E+02 -0.33339625238E+02  0.33841261329E+02  0.54633041093E+02  0.00000000000E+00 0. -1.
         21    1    1    2  504  502  0.26981615958E+02  0.33339625238E+02  0.39177553521E+01  0.43068399294E+02  0.00000000000E+00 0.  1.
</event>
<event>
 4    1  0.1571930E+006  0.2011059E+02  0.7546771E-02  0.1532352E+00
         21   -1    0    0  503  501  0.00000000000E+00  0.00000000000E+00  0.77321325662E+02  0.77321325662E+02  0.00000000000E+00 0.  1.
         21   -1    0    0  504  502 -0.00000000000E+00 -0.00000000000E+00 -0.88799729058E+03  0.88799729058E+03  0.00000000000E+00 0. -1.
         21    1    1    2  503  502  0.19952492309E+02 -0.25167087456E+01 -0.88657368307E+03  0.88680174294E+03  0.00000000000E+00 0. -1.
         21    1    1    2  504  501 -0.19952492309E+02  0.25167087456E+01  0.75897718152E+02  0.78516873300E+02  0.00000000000E+00 0.  1.
</event>
<event>
 4    1  0.1571930E+006  0.2569997E+02  0.7546771E-02  0.1461123E+00
         21   -1    0    0  504  501  0.00000000000E+00  0.00000000000E+00  0.96478702132E+03  0.96478702132E+03  0.00000000000E+00 0. -1.
         21   -1    0    0  503  502 -0.00000000000E+00 -0.00000000000E+00 -0.70682210661E+00  0.70682210661E+00  0.00000000000E+00 0. -1.
         21    1    1    2  503  501 -0.69354938372E+01 -0.24746457534E+02  0.56764670790E+03  0.56822818764E+03  0.00000000000E+00 0. -1.
         21    1    1    2  504  502  0.69354938372E+01  0.24746457534E+02  0.39643349131E+03  0.39726565579E+03  0.00000000000E+00 0. -1.
</event>
<event>
 4    1  0.1571930E+006  0.2835595E+02  0.7546771E-02  0.1434443E+00
         21   -1    0    0  503  501  0.00000000000E+00  0.00000000000E+00  0.28348097800E+02  0.28348097800E+02  0.00000000000E+00 0.  1.
         21   -1    0    0  504  502 -0.00000000000E+00 -0.00000000000E+00 -0.29003672994E+02  0.29003672994E+02  0.00000000000E+00 0.  1.
         21    1    1    2  503  502  0.32563535756E+01 -0.28168350475E+02  0.39314989560E+01  0.28627198450E+02  0.00000000000E+00 0.  1.
         21    1    1    2  504  501 -0.32563535756E+01  0.28168350475E+02 -0.45870741503E+01  0.28724572344E+02  0.00000000000E+00 0.  1.
</event>
<event>
 4    1  0.1571930E+006  0.3204038E+02  0.7546771E-02  0.1402656E+00
         21   -1    0    0  504  501  0.00000000000E+00  0.00000000000E+00  0.60800263787E+01  0.60800263787E+01  0.00000000000E+00 0. -1.
         21   -1    0    0  503  502 -0.00000000000E+00 -0.00000000000E+00 -0.53866072382E+03  0.53866072382E+03  0.00000000000E+00 0. -1.
         21    1    1    2  503  501  0.80332031071E+01  0.31016992214E+02 -0.40609605360E+02  0.51727422183E+02  0.00000000000E+00 0. -1.
         21    1    1    2  504  502 -0.80332031071E+01 -0.31016992214E+02 -0.49197109208E+03  0.49301332801E+03  0.00000000000E+00 0. -1.
</event>
<event>
 4    1  0.1571930E+006  0.3737157E+02  0.7546771E-02  0.1364617E+00
         21   -1    0    0  503  501  0.00000000000E+00  0.00000000000E+00  0.10609425891E+02  0.10609425891E+02  0.00000000000E+00 0. -1.
         21   -1    0    0  504  502 -0.00000000000E+00 -0.00000000000E+00 -0.13227883573E+03  0.13227883573E+03  0.00000000000E+00 0. -1.
         21    1    1    2  503  502 -0.30494993212E+02 -0.21602998177E+02 -0.55873156117E+02  0.67219370093E+02  0.00000000000E+00 0. -1.
         21    1    1    2  504  501  0.30494993212E+02  0.21602998177E+02 -0.65796253723E+02  0.75668891529E+02  0.00000000000E+00 0. -1.
</event>
<event>
 4    1  0.1571930E+006  0.2041479E+02  0.7546771E-02  0.1527786E+00
         21   -1    0    0  502  501  0.00000000000E+00  0.00000000000E+00  0.25136206772E+02  0.25136206772E+02  0.00000000000E+00 0.  1.
         21   -1    0    0  503  502 -0.00000000000E+00 -0.00000000000E+00 -0.56370711961E+03  0.56370711961E+03  0.00000000000E+00 0. -1.
         21    1    1    2  503  504  0.84936387694E+01  0.18563991092E+02 -0.55934491914E+03  0.55971734137E+03  0.00000000000E+00 0. -1.
         21    1    1    2  504  501 -0.84936387694E+01 -0.18563991092E+02  0.20774006304E+02  0.29125985008E+02  0.00000000000E+00 0.  1.
</event>
<event>
 4    1  0.1571930E+006  0.2051582E+02  0.7546771E-02  0.1526291E+00
         21   -1    0    0  503  501  0.00000000000E+00  0.00000000000E+00  0.22927386745E+02  0.22927386745E+02  0.00000000000E+00 0.  1.
         21   -1    0    0  504  502 -0.00000000000E+00 -0.00000000000E+00 -0.88906867064E+02  0.88906867064E+02  0.00000000000E+00 0. -1.
         21    1    1    2  503  502 -0.17572340189E+02 -0.10588282660E+02 -0.82800423382E+02  0.85304214326E+02  0.00000000000E+00 0. -1.
         21    1    1    2  504  501  0.17572340189E+02  0.10588282660E+02  0.16820943063E+02  0.26530039483E+02  0.00000000000E+00 0.  1.
</event>
<event>
 4    1  0.1571930E+006  0.2036051E+02  0.7546771E-02  0.1528594E+00
         21   -1    0    0  503  501  0.00000000000E+00  0.00000000000E+00  0.21457639247E+03  0.21457639247E+03  0.00000000000E+00 0. -1.
         21   -1    0    0  504  502 -0.00000000000E+00 -0.00000000000E+00 -0.52769004147E+02  0.52769004147E+02  0.00000000000E+00 0. -1.
         21    1    1    2  503  502 -0.20125015801E+02  0.30877033390E+01 -0.50299215868E+02  0.54263811973E+02  0.00000000000E+00 0. -1.
         21    1    1    2  504  501  0.20125015801E+02 -0.30877033390E+01  0.21210660419E+03  0.21308158465E+03  0.00000000000E+00 0. -1.
</event>
<event>
 4    1  0.1571930E+006  0.2085862E+02  0.7546771E-02  0.1521293E+00
         21   -1    0    0  504  501  0.00000000000E+00  0.00000000000E+00  0.10673333291E+02  0.10673333291E+02  0.00000000000E+00 0.  1.
         21   -1    0    0  503  502 -0.00000000000E+00 -0.00000000000E+00 -0.59899988342E+02  0.59899988342E+02  0.00000000000E+00 0.  1.
         21    1    1    2  503  501  0.19553296122E+02  0.72629624664E+01 -0.44558084597E+02  0.49198627176E+02  0.00000000000E+00 0.  1.
         21    1    1    2  504  502 -0.19553296122E+02 -0.72629624664E+01 -0.46685704540E+01  0.21374694457E+02  0.00000000000E+00 0.  1.
</event>
<event>
 4    1  0.1571930E+006  0.2646781E+02  0.7546771E-02  0.1453029E+00
         21   -1    0    0  502  501  0.00000000000E+00  0.00000000000E+00  0.34518288394E+02  0.34518288394E+02  0.00000000000E+00 0.  1.
         21   -1    0    0  504  502 -0.00000000000E+00 -0.00000000000E+00 -0.23140041184E+03  0.23140041184E+03  0.00000000000E+00 0.  1.
         21    1    1    2  503  501 -0.25807187496E+02  0.58765738046E+01  0.28553934980E+02  0.38934204101E+02  0.00000000000E+00 0.  1.
         21    1    1    2  504  503  0.25807187496E+02 -0.58765738046E+01 -0.22543605842E+03  0.22698449613E+03  0.00000000000E+00 0.  1.
</event>
<event>
 4    1  0.1571930E+006  0.3107411E+02  0.7546771E-02  0.1410486E+00
         21   -1    0    0  504  501  0.00000000000E+00  0.00000000000E+00  0.59045854786E+02  0.59045854786E+02  0.00000000000E+00 0.  1.
         21   -1    0    0  503  502 -0.00000000000E+00 -0.00000000000E+00 -0.16520701851E+02  0.16520701851E+02  0.00000000000E+00 0.  1.
         21    1    1    2  503  501 -0.70333069346E+01  0.30267686113E+02  0.25064832126E+02  0.39923001373E+02  0.00000000000E+00 0.  1.
         21    1    1    2  504  502  0.70333069346E+01 -0.30267686113E+02  0.17460320809E+02  0.35643555264E+02  0.00000000000E+00 0.  1.
</event>
<event>
 4    1  0.1571930E+006  0.2261415E+02  0.7546771E-02  0.1497401E+00
         21   -1    0    0  504  501  0.00000000000E+00  0.00000000000E+00  0.51720844268E+01  0.51720844268E+01  0.00000000000E+00 0. -1.
         21   -1    0    0  503  502 -0.00000000000E+00 -0.00000000000E+00 -0.30543764069E+03  0.30543764069E+03  0.00000000000E+00 0. -1.
         21    1    1    2  503  501 -0.22099128742E+02 -0.47987979249E+01 -0.22416101224E+02  0.31841506666E+02  0.00000000000E+00 0. -1.
         21    1    1    2  504  502  0.22099128742E+02  0.47987979249E+01 -0.27784945503E+03  0.27876821845E+03  0.00000000000E+00 0. -1.
</event>
<event>
 4    1  0.1571930E+006  0.2058641E+02  0.7546771E-02  0.1525252E+00
         21   -1    0    0  504  501  0.00000000000E+00  0.00000000000E+00  0.97771786341E+02  0.97771786341E+02  0.00000000000E+00 0.  1.
         21   -1    0    0  503  502 -0.00000000000E+00 -0.00000000000E+00 -0.54015557200E+01  0.54015557200E+01  0.00000000000E+00 0.  1.
         21    1    1    2  503  501  0.19175929977E+01  0.20496909996E+02  0.69112449768E+02  0.72113321899E+02  0.00000000000E+00 0.  1.
         21    1    1    2  504  502 -0.19175929977E+01 -0.20496909996E+02  0.23257780853E+02  0.31060020162E+02  0.00000000000E+00 0.  1.
</event>
<event>
 4    1  0.1571930E+006  0.2504050E+02  0.7546771E-02  0.1468351E+00
         21   -1    0    0  503  501  0.00000000000E+00  0.00000000000E+00  0.42217107120E+01  0.42217107120E+01  0.00000000000E+00 0. -1.
         21   -1    0    0  504  502 -0.00000000000E+00 -0.00000000000E+00 -0.45183472134E+03  0.45183472134E+03  0.00000000000E+00 0.  1.
         21    1    1    2  503  502 -0.18449197257E+02 -0.16930856220E+02 -0.41063470581E+03  0.41139748223E+03  0.00000000000E+00 0.  1.
         21    1    1    2  504  501  0.18449197257E+02  0.16930856220E+02 -0.36978304818E+02  0.44658949820E+02  0.00000000000E+00 0. -1.
</event>
<event>
 4    1  0.1571930E+006  0.3353709E+02  0.7546771E-02  0.1391150E+00
         21   -1    0    0  503  501  0.00000000000E+00  0.00000000000E+00  0.45828051188E+02  0.45828051188E+02  0.00000000000E+00 0.  1.
         21   -1    0    0  504  502 -0.00000000000E+00 -0.00000000000E+00 -0.24544671757E+02  0.24544671757E+02  0.00000000000E+00 0.  1.
         21    1    1    2  503  502  0.10757766533E+02 -0.31764873238E+02  0.10313660120E+02  0.35087152886E+02  0.00000000000E+00 0.  1.
         21    1    1    2  504  501 -0.10757766533E+02  0.31764873238E+02  0.10969719311E+02  0.35285570059E+02  0.00000000000E+00 0.  1.
</event>
<event>
 4    1  0.1571930E+006  0.2462436E+02  0.7546771E-02  0.1473050E+00
         21   -1    0    0  504  501  0.00000000000E+00  0.00000000000E+00  0.14616735962E+02  0.14616735962E+02  0.00000000000E+00 0.  1.
         21   -1    0    0  503  502 -0.00000000000E+00 -0.00000000000E+00 -0.36047378994E+03  0.36047378994E+03  0.00000000000E+00 0. -1.
         21    1    1    2  503  501  0.15324512418E+02  0.19274816507E+02 -0.34935254602E+03  0.35021930364E+03  0.00000000000E+00 0. -1.
         21    1    1    2  504  502 -0.15324512418E+02 -0.19274816507E+02  0.34954920408E+01  0.24871222263E+02  0.00000000000E+00 0.  1.
</event>
<event>
 4    1  0.1571930E+006  0.2226080E+02  0.7546771E-02  0.1501995E+00
         21   -1    0    0  503  501  0.00000000000E+00  0.00000000000E+00  0.44395111544E+03  0.44395111544E+03  0.00000000000E+00 0. -1.
         21   -1    0    0  501  502 -0.00000000000E+00 -0.00000000000E+00 -0.27273806893E+01  0.27273806893E+01  0.00000000000E+00 0.  1.
         21    1    1    2  503  504 -0.21611110664E+02  0.53388139225E+01  0.39226938779E+03  0.39290051621E+03  0.00000000000E+00 0. -1.
         21    1    1    2  504  502  0.21611110664E+02 -0.53388139225E+01  0.48954346962E+02  0.53777979924E+02  0.00000000000E+00 0.  1.
</event>
<event>
 4    1  0.1571930E+006  0.2430522E+02  0.7546771E-02  0.1476728E+00
         21   -1    0    0  503  501  0.00000000000E+00  0.00000000000E+00  0.41948515371E+01  0.41948515371E+01  0.00000000000E+00 0.  1.
         21   -1    0    0  501  502 -0.00000000000E+00 -0.00000000000E+00 -0.14161338597E+03  0.14161338597E+03  0.00000000000E+00 0.  1.
         21    1    1    2  503  504 -0.24039666997E+02  0.35830147045E+01 -0.74145922522E+02  0.78027952750E+02  0.00000000000E+00 0.  1.
         21    1    1    2  504  502  0.24039666997E+02 -0.35830147045E+01 -0.63272611911E+02  0.67780284757E+02  0.00000000000E+00 0.  1.
</event>
<event>
 4    1  0.1571930E+006  0.2421773E+02  0.7546771E-02  0.1477748E+00
         21   -1    0    0  502  501  0.00000000000E+00  0.00000000000E+00  0.55235957371E+03  0.55235957371E+03  0.00000000000E+00 0. -1.
         21   -1    0    0  504  502 -0.00000000000E+00 -0.00000000000E+00 -0.91870815406E+01  0.91870815406E+01  0.00000000000E+00 0.  1.
         21    1    1    2  503  501 -0.17967729788E+02  0.16237585667E+02  0.53563621604E+03  0.53618341492E+03  0.00000000000E+00 0. -1.
         21    1    1    2  504  503  0.17967729788E+02 -0.16237585667E+02  0.75362761265E+01  0.25363240327E+02  0.00000000000E+00 0.  1.
</event>
<event>
 4    1  0.1571930E+006  0.3500541E+02  0.7546771E-02  0.1380525E+00
         21   -1    0    0  504  501  0.00000000000E+00  0.00000000000E+00  0.27510736432E+01  0.27510736432E+01  0.00000000000E+00 0. -1.
         21   -1    0    0  503  502 -0.00000000000E+00 -0.00000000000E+00 -0.53222121981E+03  0.53222121981E+03  0.00000000000E+00 0.  1.
         21    1    1    2  503  501  0.24684758869E+02 -0.24820183116E+02 -0.15671060723E+03  0.16057270387E+03  0.00000000000E+00 0. -1.
         21    1    1    2  504  502 -0.24684758869E+02  0.24820183116E+02 -0.37275953893E+03  0.37439958958E+03  0.00000000000E+00 0.  1.
</event>
<event>
 4    1  0.1571930E+006  0.2408235E+02  0.7546771E-02  0.1479337E+00
         21   -1    0    0  502  501  0.00000000000E+00  0.00000000000E+00  0.63978553014E+03  0.63978553014E+03  0.00000000000E+00 0. -1.
         21   -1    0    0  503  502 -0.00000000000E+00 -0.00000000000E+00 -0.48167807762E+01  0.48167807762E+01  0.00000000000E+00 0.  1.
         21    1    1    2  503  504  0.90358554702E+01 -0.22322925285E+02  0.27090196059E+02  0.36246908831E+02  0.00000000000E+00 0.  1.
         21    1    1    2  504  501 -0.90358554702E+01  0.22322925285E+02  0.60787855331E+03  0.60835540209E+03  0.00000000000E+00 0. -1.
</event>
<event>
 4    1  0.1571930E+006  0.2031962E+02  0.7546771E-02  0.1529205E+00
         21   -1    0    0  504  501  0.00000000000E+00  0.00000000000E+00  0.10369410237E+02  0.10369410237E+02  0.00000000000E+00 0.  1.
         21   -1    0    0  503  502 -0.00000000000E+00 -0.00000000000E+00 -0.70357983714E+02  0.70357983714E+02  0.00000000000E+00 0. -1.
         21    1    1    2  503  501 -0.20142767249E+02 -0.26750469144E+01 -0.56587460610E+02  0.60125099973E+02  0.00000000000E+00 0. -1.
         21    1    1    2  504  502  0.20142767249E+02  0.26750469144E+01 -0.34011128675E+01  0.20602293979E+02  0.00000000000E+00 0.  1.
</event>
<event>
 4    1  0.1571930E+006  0.2127725E+02  0.7546771E-02  0.1515343E+00
         21   -1    0    0  503  501  0.00000000000E+00  0.00000000000E+00  0.16225066559E+01  0.16225066559E+01  0.00000000000E+00 0.  1.
         21   -1    0    0  504  502 -0.00000000000E+00 -0.00000000000E+00 -0.30058593446E+03  0.30058593446E+03  0.00000000000E+00 0.  1.
         21    1    1    2  503  502 -0.13125027444E+02 -0.16746796931E+02 -0.18995010324E+03  0.19113807385E+03  0.00000000000E+00 0.  1.
         21    1    1    2  504  501  0.13125027444E+02  0.16746796931E+02 -0.10901332456E+03  0.11107036727E+03  0.00000000000E+00 0.  1.
</event>
<event>
 4    1  0.1571930E+006  0.2351626E+02  0.7546771E-02  0.1486115E+00
         21   -1    0    0  503  501  0.00000000000E+00  0.00000000000E+00  0.21079263004E+02  0.21079263004E+02  0.00000000000E+00 0. -1.
         21   -1    0    0  504  502 -0.00000000000E+00 -0.00000000000E+00 -0.11384464488E+03  0.11384464488E+03  0.00000000000E+00 0.  1.
         21    1    1    2  503  502 -0.16669694401E+02 -0.16587218468E+02  0.12797800191E+02  0.26773087563E+02  0.00000000000E+00 0. -1.
         21    1    1    2  504  501  0.16669694401E+02  0.16587218468E+02 -0.10556318207E+03  0.10815082032E+03  0.00000000000E+00 0.  1.
</event>
<event>
 4    1  0.1571930E+006  0.3223435E+02  0.7546771E-02  0.1401124E+00
         21   -1    0    0  504  501  0.00000000000E+00  0.00000000000E+00  0.85498196311E+03  0.85498196311E+03  0.00000000000E+00 0.  1.
         21   -1    0    0  501  502 -0.00000000000E+00 -0.00000000000E+00 -0.17718307878E+01  0.17718307878E+01  0.00000000000E+00 0.  1.
         21    1    1    2  503  502 -0.73416808640E+01 -0.31387147324E+02  0.18652152719E+03  0.18928637934E+03  0.00000000000E+00 0.  1.
         21    1    1    2  504  503  0.73416808640E+01  0.31387147324E+02  0.66668860513E+03  0.66746741457E+03  0.00000000000E+00 0.  1.
</event>
<event>
 4    1  0.1571930E+006  0.2746951E+02  0.7546771E-02  0.1442948E+00
         21   -1    0    0  503  501  0.00000000000E+00  0.00000000000E+00  0.30117462048E+03  0.30117462048E+03  0.00000000000E+00 0.  1.
         21   -1    0    0  501  502 -0.00000000000E+00 -0.00000000000E+00 -0.25077970309E+01  0.25077970309E+01  0.00000000000E+00 0.  1.
         21    1    1    2  503  504 -0.25611832271E+02  0.99301627701E+01  0.15399128701E+03  0.15642215496E+03  0.00000000000E+00 0.  1.
         21    1    1    2  504  502  0.25611832271E+02 -0.99301627701E+01  0.14467553644E+03  0.14726026256E+03  0.00000000000E+00 0.  1.
</event>
<event>
 4    1  0.1571930E+006  0.2222464E+02  0.7546771E-02  0.1502471E+00
         21   -1    0    0  503  501  0.00000000000E+00  0.00000000000E+00  0.11888545698E+02  0.11888545698E+02  0.00000000000E+00 0. -1.
         21   -1    0    0  504  502 -0.00000000000E+00 -0.00000000000E+00 -0.48819149681E+02  0.48819149681E+02  0.00000000000E+00 0. -1.
         21    1    1    2  503  502  0.16190559963E+02  0.15224997352E+02 -0.67501854438E+01  0.23227134559E+02  0.00000000000E+00 0. -1.
         21    1    1    2  504  501 -0.16190559963E+02 -0.15224997352E+02 -0.30180418539E+02  0.37480560821E+02  0.00000000000E+00 0. -1.
</event>
<event>
 4    1  0.1571930E+006  0.2924815E+02  0.7546771E-02  0.1426244E+00
         21   -1    0    0  503  501  0.00000000000E+00  0.00000000000E+00  0.20438768133E+02  0.20438768133E+02  0.00000000000E+00 0.  1.
         21   -1    0    0  504  502 -0.00000000000E+00 -0.00000000000E+00 -0.13202530541E+03  0.13202530541E+03  0.00000000000E+00 0. -1.
         21    1    1    2  503  502  0.22596484262E+02 -0.18570219815E+02  0.72069327286E+01  0.30122981997E+02  0.00000000000E+00 0.  1.
         21    1    1    2  504  501 -0.22596484262E+02  0.18570219815E+02 -0.11879347000E+03  0.12234109154E+03  0.00000000000E+00 0. -1.
</event>
<event>
 4    1  0.1571930E+006  0.3179128E+02  0.7546771E-02  0.1404643E+00
         21   -1    0    0  504  501  0.00000000000E+00  0.00000000000E+00  0.83991548516E+03  0.83991548516E+03  0.00000000000E+00 0. -1.
         21   -1    0    0  503  502 -0.00000000000E+00 -0.00000000000E+00 -0.16237700739E+01  0.16237700739E+01  0.00000000000E+00 0. -1.
         21    1    1    2  503  501 -0.31362505395E+02 -0.52037381075E+01  0.20503423850E+03  0.20748427553E+03  0.00000000000E+00 0. -1.
         21    1    1    2  504  502  0.31362505395E+02  0.52037381075E+01  0.63325747659E+03  0.63405497971E+03  0.00000000000E+00 0. -1.
</event>
<event>
 4    1  0.1571930E+006  0.6079461E+02  0.7546771E-02  0.1257156E+00
         21   -1    0    0  504  501  0.00000000000E+00  0.00000000000E+00  0.11235833526E+04  0.11235833526E+04  0.00000000000E+00 0. -1.
         21   -1    0    0  503  502 -0.00000000000E+00 -0.00000000000E+00 -0.16882794666E+02  0.16882794666E+02  0.00000000000E+00 0.  1.
         21    1    1    2  503  501 -0.27964359584E+02 -0.53981282326E+02  0.10650241186E+04  0.10667578720E+04  0.00000000000E+00 0. -1.
         21    1    1    2  504  502  0.27964359584E+02  0.53981282326E+02  0.41676439328E+02  0.73708275272E+02  0.00000000000E+00 0.  1.
</event>
<event>
 4    1  0.1571930E+006  0.2238435E+02  0.7546771E-02  0.1500377E+00
         21   -1    0    0  503  501  0.00000000000E+00  0.00000000000E+00  0.92400421813E+02  0.92400421813E+02  0.00000000000E+00 0. -1.
         21   -1    0    0  504  502 -0.00000000000E+00 -0.00000000000E+00 -0.57121241056E+01  0.57121241056E+01  0.00000000000E+00 0. -1.
         21    1    1    2  503  502  0.19033198838E+02  0.11781194160E+02  0.32301640434E+02  0.39299556850E+02  0.00000000000E+00 0. -1.
         21    1    1    2  504  501 -0.19033198838E+02 -0.11781194160E+02  0.54386657274E+02  0.58812989069E+02  0.00000000000E+00 0. -1.
</event>
<event>
 4    1  0.1571930E+006  0.2781709E+02  0.7546771E-02  0.1439569E+00
         21   -1    0    0  503  501  0.00000000000E+00  0.00000000000E+00  0.16746803948E+04  0.16746803948E+04  0.00000000000E+00 0.  1.
         21   -1    0    0  504  502 -0.00000000000E+00 -0.00000000000E+00 -0.40700169451E+01  0.40700169451E+01  0.00000000000E+00 0.  1.
         21    1    1    2  503  502 -0.20678480339E+01  0.27740122285E+02  0.16256000323E+04  0.16258380164E+04  0.00000000000E+00 0.  1.
         21    1    1    2  504  501  0.20678480339E+01 -0.27740122285E+02  0.45010345549E+02  0.52912395394E+02  0.00000000000E+00 0.  1.
</event>
<event>
 4    1  0.1571930E+006  0.6377725E+02  0.7546771E-02  0.1247512E+00
         21   -1    0    0  503  501  0.00000000000E+00  0.00000000000E+00  0.68183152905E+02  0.68183152905E+02  0.00000000000E+00 0. -1.
         21   -1    0    0  504  502 -0.00000000000E+00 -0.00000000000E+00 -0.12706134605E+03  0.12706134605E+03  0.00000000000E+00 0.  1.
         21    1    1    2  503  502  0.63499156526E+02  0.59493437789E+01  0.41664095056E+02  0.76180275582E+02  0.00000000000E+00 0. -1.
         21    1    1    2  504  501 -0.63499156526E+02 -0.59493437789E+01 -0.10054228820E+03  0.11906422337E+03  0.00000000000E+00 0.  1.
</event>
<event>
 4    1  0.1571930E+006  0.2076622E+02  0.7546771E-02  0.1522629E+00
         21   -1    0    0  504  501  0.00000000000E+00  0.00000000000E+00  0.57091069157E+01  0.57091069157E+01  0.00000000000E+00 0. -1.
         21   -1    0    0  503  502 -0.00000000000E+00 -0.00000000000E+00 -0.79375493202E+02  0.79375493202E+02  0.00000000000E+00 0. -1.
         21    1    1    2  503  501 -0.32935939379E+01 -0.20503367506E+02 -0.27475116321E+02  0.34440061802E+02  0.00000000000E+00 0. -1.
         21    1    1    2  504  502  0.32935939379E+01  0.20503367506E+02 -0.46191269966E+02  0.50644538315E+02  0.00000000000E+00 0. -1.
</event>
<event>
 4    1  0.1571930E+006  0.2188651E+02  0.7546771E-02  0.1506974E+00
         21   -1    0    0  504  501  0.00000000000E+00  0.00000000000E+00  0.31671777198E+02  0.31671777198E+02  0.00000000000E+00 0.  1.
         21   -1    0    0  501  502 -0.00000000000E+00 -0.00000000000E+00 -0.29647287219E+02  0.29647287219E+02  0.00000000000E+00 0. -1.
         21    1    1    2  503  502  0.21194124140E+02 -0.54615562461E+01 -0.20446196310E+02  0.29951067398E+02  0.00000000000E+00 0. -1.
         21    1    1    2  504  503 -0.21194124140E+02  0.54615562461E+01  0.22470686290E+02  0.31367997020E+02  0.00000000000E+00 0.  1.
</event>
<event>
 4    1  0.1571930E+006  0.2062160E+02  0.7546771E-02  0.1524737E+00
         21   -1    0    0  503  501  0.00000000000E+00  0.00000000000E+00  0.38957222940E+02  0.38957222940E+02  0.00000000000E+00 0. -1.
         21   -1    0    0  504  502 -0.00000000000E+00 -0.00000000000E+00 -0.14750877827E+02  0.14750877827E+02  0.00000000000E+00 0. -1.
         21    1    1    2  503  502 -0.16616954677E+02  0.12211765747E+02 -0.15894388777E+01  0.20682763871E+02  0.00000000000E+00 0. -1.
         21    1    1    2  504  501  0.16616954677E+02 -0.12211765747E+02  0.25795783991E+02  0.33025336896E+02  0.00000000000E+00 0. -1.
</event>
<event>
 4    1  0.1571930E+006  0.5436163E+02  0.7546771E-02  0.1280294E+00
         21   -1    0    0  504  501  0.00000000000E+00  0.00000000000E+00  0.31327096019E+02  0.31327096019E+02  0.00000000000E+00 0. -1.
         21   -1    0    0  503  502 -0.00000000000E+00 -0.00000000000E+00 -0.12311717005E+03  0.12311717005E+03  0.00000000000E+00 0. -1.
         21    1    1    2  503  501  0.42643477740E+02  0.33715280639E+02 -0.83233596311E+02  0.99413368805E+02  0.00000000000E+00 0. -1.
         21    1    1    2  504  502 -0.42643477740E+02 -0.33715280639E+02 -0.85564777168E+01  0.55030897260E+02  0.00000000000E+00 0. -1.
</event>
<event>
 4    1  0.1571930E+006  0.2116305E+02  0.7546771E-02  0.1516949E+00
         21   -1    0    0  503  501  0.00000000000E+00  0.00000000000E+00  0.14729676446E+02  0.14729676446E+02  0.00000000000E+00 0.  1.
         21   -1    0    0  501  502 -0.00000000000E+00 -0.00000000000E+00 -0.30662798804E+02  0.30662798804E+02  0.00000000000E+00 0.  1.
         21    1    1    2  503  504  0.16449856317E+02 -0.13314544959E+02 -0.10042407881E+02  0.23424876443E+02  0.00000000000E+00 0.  1.
         21    1    1    2  504  502 -0.16449856317E+02  0.13314544959E+02 -0.58907144773E+01  0.21967598808E+02  0.00000000000E+00 0.  1.
</event>
<event>
 4    1  0.1571930E+006  0.2318786E+02  0.7546771E-02  0.1490153E+00
         21   -1    0    0  503  501  0.00000000000E+00  0.00000000000E+00  0.34296274551E+02  0.34296274551E+02  0.00000000000E+00 0.  1.
         21   -1    0    0  504  502 -0.00000000000E+00 -0.00000000000E+00 -0.16725476036E+02  0.16725476036E+02  0.00000000000E+00 0.  1.
         21    1    1    2  503  502 -0.22740658581E+02  0.45320261802E+01  0.23993818338E+01  0.23311667619E+02  0.00000000000E+00 0.  1.
         21    1    1    2  504  501  0.22740658581E+02 -0.45320261802E+01  0.15171416681E+02  0.27710082968E+02  0.00000000000E+00 0.  1.
</event>
<event>
 4    1  0.1571930E+006  0.5062427E+02  0.7546771E-02  0.1295488E+00
         21   -1    0    0  503  501  0.00000000000E+00  0.00000000000E+00  0.24484392520E+03  0.24484392520E+03  0.00000000000E+00 0. -1.
         21   -1    0    0  504  502 -0.00000000000E+00 -0.00000000000E+00 -0.45327146029E+02  0.45327146029E+02  0.00000000000E+00 0. -1.
         21    1    1    2  503  502  0.49366958130E+02 -0.11212502703E+02  0.22699398604E+03  0.23257060535E+03  0.00000000000E+00 0. -1.
         21    1    1    2  504  501 -0.49366958130E+02  0.11212502703E+02 -0.27477206875E+02  0.57600465879E+02  0.00000000000E+00 0. -1.
</event>
<event>
 4    1  0.1571930E+006  0.2275174E+02  0.7546771E-02  0.1495639E+00
         21   -1    0    0  503  501  0.00000000000E+00  0.00000000000E+00  0.12270255482E+04  0.12270255482E+04  0.00000000000E+00 0.  1.
         21   -1    0    0  504  502 -0.00000000000E+00 -0.00000000000E+00 -0.57621771587E+00  0.57621771587E+00  0.00000000000E+00 0.  1.
         21    1    1    2  503  502 -0.17637137187E+02 -0.14372646855E+02  0.29554564771E+03  0.29642009289E+03  0.00000000000E+00 0.  1.
         21    1    1    2  504  501  0.17637137187E+02  0.14372646855E+02  0.93090368280E+03  0.93118167306E+03  0.00000000000E+00 0.  1.
</event>
<event>
 4    1  0.1571930E+006  0.2331801E+02  0.7546771E-02  0.1488543E+00
         21   -1    0    0  504  501  0.00000000000E+00  0.00000000000E+00  0.24254844712E+02  0.24254844712E+02  0.00000000000E+00 0. -1.
         21   -1    0    0  501  502 -0.00000000000E+00 -0.00000000000E+00 -0.65333325634E+02  0.65333325634E+02  0.00000000000E+00 0.  1.
         21    1    1    2  503  502  0.70995666685E+01  0.22210936726E+02 -0.56843930992E+02  0.61440719786E+02  0.00000000000E+00 0.  1.
         21    1    1    2  504  503 -0.70995666685E+01 -0.22210936726E+02  0.15765450070E+02  0.28147450560E+02  0.00000000000E+00 0. -1.
</event>
<event>
 4    1  0.1571930E+006  0.5742190E+02  0.7546771E-02  0.1268853E+00
         21   -1    0    0  504  501  0.00000000000E+00  0.00000000000E+00  0.14324277497E+03  0.14324277497E+03  0.00000000000E+00 0.  1.
         21   -1    0    0  501  502 -0.00000000000E+00 -0.00000000000E+00 -0.46774016669E+02  0.46774016669E+02  0.00000000000E+00 0.  1.
         21    1    1    2  503  502 -0.55896897330E+02 -0.13145780140E+02 -0.19473511725E+02  0.60634085509E+02  0.00000000000E+00 0.  1.
         21    1    1    2  504  503  0.55896897330E+02  0.13145780140E+02  0.11594227003E+03  0.12938270613E+03  0.00000000000E+00 0.  1.
</event>
<event>
 4    1  0.1571930E+006  0.2300975E+02  0.7546771E-02  0.1492376E+00
         21   -1    0    0  503  501  0.00000000000E+00  0.00000000000E+00  0.24990090310E+02  0.24990090310E+02  0.00000000000E+00 0. -1.
         21   -1    0    0  504  502 -0.00000000000E+00 -0.00000000000E+00 -0.86596421016E+02  0.86596421016E+02  0.00000000000E+00 0. -1.
         21    1    1    2  503  502  0.21634433168E+02  0.78358045331E+01 -0.79293376879E+02  0.82564448451E+02  0.00000000000E+00 0. -1.
         21    1    1    2  504  501 -0.21634433168E+02 -0.78358045331E+01  0.17687046172E+02  0.29022062875E+02  0.00000000000E+00 0. -1.
</event>
<event>
 4    1  0.1571930E+006  0.2668087E+02  0.7546771E-02  0.1450840E+00
         21   -1    0    0  504  501  0.00000000000E+00  0.00000000000E+00  0.65125060428E+02  0.65125060428E+02  0.00000000000E+00 0.  1.
         21   -1    0    0  503  502 -0.00000000000E+00 -0.00000000000E+00 -0.15619317380E+02  0.15619317380E+02  0.00000000000E+00 0.  1.
         21    1    1    2  503  501  0.19311151705E+02  0.18410551403E+02  0.46872053236E+02  0.53933833145E+02  0.00000000000E+00 0.  1.
         21    1    1    2  504  502 -0.19311151705E+02 -0.18410551403E+02  0.26336898113E+01  0.26810544664E+02  0.00000000000E+00 0.  1.
</event>
<event>
 4    1  0.1571930E+006  0.2125655E+02  0.7546771E-02  0.1515633E+00
         21   -1    0    0  504  501  0.00000000000E+00  0.00000000000E+00  0.74458915710E+03  0.74458915710E+03  0.00000000000E+00 0.  1.
         21   -1    0    0  503  502 -0.00000000000E+00 -0.00000000000E+00 -0.51553414830E+01  0.51553414830E+01  0.00000000000E+00 0. -1.
         21    1    1    2  503  501  0.21190594361E+02  0.16732416754E+01  0.72183561074E+03  0.72214852348E+03  0.00000000000E+00 0.  1.
         21    1    1    2  504  502 -0.21190594361E+02 -0.16732416754E+01  0.17598204873E+02  0.27595975102E+02  0.00000000000E+00 0. -1.
</event>
<event>
 4    1  0.1571930E+006  0.2543928E+02  0.7546771E-02  0.1463949E+00
         21   -1    0    0  503  501  0.00000000000E+00  0.00000000000E+00  0.27876552490E+01  0.27876552490E+01  0.00000000000E+00 0. -1.
         21   -1    0    0  501  502 -0.00000000000E+00 -0.00000000000E+00 -0.27315638594E+03  0.27315638594E+03  0.00000000000E+00 0. -1.
         21    1    1    2  503  504  0.25253667418E+02 -0.30674831774E+01 -0.81727266633E+02  0.85594995662E+02  0.00000000000E+00 0. -1.
         21    1    1    2  504  502 -0.25253667418E+02  0.30674831774E+01 -0.18864146406E+03  0.19034904553E+03  0.00000000000E+00 0. -1.
</event>
<event>
 4    1  0.1571930E+006  0.3363211E+02  0.7546771E-02  0.1390443E+00
         21   -1    0    0  504  501  0.00000000000E+00  0.00000000000E+00  0.83221513452E+01  0.83221513452E+01  0.00000000000E+00 0. -1.
         21   -1    0    0  501  502 -0.00000000000E+00 -0.00000000000E+00 -0.23955508095E+03  0.23955508095E+03  0.00000000000E+00 0. -1.
         21    1    1    2  503  502 -0.19183873189E+02 -0.27624225144E+02 -0.19713650700E+03  0.19998480242E+03  0.00000000000E+00 0. -1.
         21    1    1    2  504  503  0.19183873189E+02  0.27624225144E+02 -0.34096422607E+02  0.47892429881E+02  0.00000000000E+00 0. -1.
</event>
<event>
 4    1  0.1571930E+006  0.2077181E+02  0.7546771E-02  0.1522548E+00
         21   -1    0    0  504  501  0.00000000000E+00  0.00000000000E+00  0.15703903842E+03  0.15703903842E+03  0.00000000000E+00 0. -1.
         21   -1    0    0  503  502 -0.00000000000E+00 -0.00000000000E+00 -0.14103393790E+02  0.14103393790E+02  0.00000000000E+00 0.  1.
         21    1    1    2  503  501 -0.16037007057E+01 -0.20709807439E+02  0.14825278129E+03  0.14970088557E+03  0.00000000000E+00 0. -1.
         21    1    1    2  504  502  0.16037007057E+01  0.20709807439E+02 -0.53171366594E+01  0.21441546642E+02  0.00000000000E+00 0.  1.
</event>
<event>
 4    1  0.1571930E+006  0.2910507E+02  0.7546771E-02  0.1427536E+00
         21   -1    0    0  504  501  0.00000000000E+00  0.00000000000E+00  0.10438738731E+02  0.10438738731E+02  0.00000000000E+00 0. -1.
         21   -1    0    0  503  502 -0.00000000000E+00 -0.00000000000E+00 -0.11696496240E+03  0.11696496240E+03  0.00000000000E+00 0.  1.
         21    1    1    2  503  501 -0.19294459732E+02  0.21790568993E+02 -0.18013399424E+02  0.34228462311E+02  0.00000000000E+00 0. -1.
         21    1    1    2  504  502  0.19294459732E+02 -0.21790568993E+02 -0.88512824240E+02  0.93175238815E+02  0.00000000000E+00 0.  1.
</event>
<event>
 4    1  0.1571930E+006  0.3054370E+02  0.7546771E-02  0.1414929E+00
         21   -1    0    0  504  501  0.00000000000E+00  0.00000000000E+00  0.66742575466E+01  0.66742575466E+01  0.00000000000E+00 0.  1.
         21   -1    0    0  503  502 -0.00000000000E+00 -0.00000000000E+00 -0.78838684200E+03  0.78838684200E+03  0.00000000000E+00 0.  1.
         21    1    1    2  503  501  0.28877010296E+02  0.99516854270E+01 -0.75142836603E+03  0.75204887277E+03  0.00000000000E+00 0.  1.
         21    1    1    2  504  502 -0.28877010296E+02 -0.99516854270E+01 -0.30284218427E+02  0.43012226776E+02  0.00000000000E+00 0.  1.
</event>
<event>
 4    1  0.1571930E+006  0.2379102E+02  0.7546771E-02  0.1482797E+00
         21   -1    0    0  502  501  0.00000000000E+00  0.00000000000E+00  0.15465905843E+03  0.15465905843E+03  0.00000000000E+00 0. -1.
         21   -1    0    0  503  502 -0.00000000000E+00 -0.00000000000E+00 -0.39076752379E+01  0.39076752379E+01  0.00000000000E+00 0. -1.
         21    1    1    2  503  504  0.16331766571E+02 -0.17299890909E+02  0.55405281445E+02  0.60297247340E+02  0.00000000000E+00 0. -1.
         21    1    1    2  504  501 -0.16331766571E+02  0.17299890909E+02  0.95346101749E+02  0.98269486330E+02  0.00000000000E+00 0. -1.
</event>
<event>
 4    1  0.1571930E+006  0.3727555E+02  0.7546771E-02  0.1365236E+00
         21   -1    0    0  502  501  0.00000000000E+00  0.00000000000E+00  0.54784956636E+02  0.54784956636E+02  0.00000000000E+00 0. -1.
         21   -1    0    0  503  502 -0.00000000000E+00 -0.00000000000E+00 -0.22382133706E+03  0.22382133706E+03  0.00000000000E+00 0. -1.
         21    1    1    2  503  504 -0.20099029006E+02  0.31392601419E+02 -0.21569158139E+03  0.21888884091E+03  0.00000000000E+00 0. -1.
         21    1    1    2  504  501  0.20099029006E+02 -0.31392601419E+02  0.46655200964E+02  0.59717452791E+02  0.00000000000E+00 0. -1.
</event>
<event>
 4    1  0.1571930E+006  0.2463834E+02  0.7546771E-02  0.1472890E+00
         21   -1    0    0  504  501  0.00000000000E+00  0.00000000000E+00  0.31150317241E+03  0.31150317241E+03  0.00000000000E+00 0. -1.
         21   -1    0    0  503  502 -0.00000000000E+00 -0.00000000000E+00 -0.95274965081E+01  0.95274965081E+01  0.00000000000E+00 0. -1.
         21    1    1    2  503  501  0.12249769181E+02 -0.21377348936E+02  0.78266611295E+01  0.25851586353E+02  0.00000000000E+00 0. -1.
         21    1    1    2  504  502 -0.12249769181E+02  0.21377348936E+02  0.29414901477E+03  0.29517908256E+03  0.00000000000E+00 0. -1.
</event>
<event>
 4    1  0.1571930E+006  0.2253177E+02  0.7546771E-02  0.1498463E+00
         21   -1    0    0  502  501  0.00000000000E+00  0.00000000000E+00  0.11864626794E+03  0.11864626794E+03  0.00000000000E+00 0.  1.
         21   -1    0    0  503  502 -0.00000000000E+00 -0.00000000000E+00 -0.12130964394E+02  0.12130964394E+02  0.00000000000E+00 0. -1.
         21    1    1    2  503  504  0.11223581659E+02  0.19537451689E+02  0.65045311779E+00  0.22541159974E+02  0.00000000000E+00 0. -1.
         21    1    1    2  504  501 -0.11223581659E+02 -0.19537451689E+02  0.10586485043E+03  0.10823607236E+03  0.00000000000E+00 0.  1.
</event>
<event>
 4    1  0.1571930E+006  0.2772411E+02  0.7546771E-02  0.1440467E+00
         21   -1    0    0  503  501  0.00000000000E+00  0.00000000000E+00  0.12183597221E+02  0.12183597221E+02  0.00000000000E+00 0.  1.
         21   -1    0    0  504  502 -0.00000000000E+00 -0.00000000000E+00 -0.13886167453E+03  0.13886167453E+03  0.00000000000E+00 0.  1.
         21    1    1    2  503  502 -0.98187716685E+01  0.25927171465E+02 -0.11912796502E+03  0.12231148167E+03  0.00000000000E+00 0.  1.
         21    1    1    2  504  501  0.98187716685E+01 -0.25927171465E+02 -0.75501122919E+01  0.28733790089E+02  0.00000000000E+00 0.  1.
</event>
<event>
 4    1  0.1571930E+006  0.2789075E+02  0.7546771E-02  0.1438860E+00
         21   -1    0    0  504  501  0.00000000000E+00  0.00000000000E+00  0.13766300735E+04  0.13766300735E+04  0.00000000000E+00 0.  1.
         21   -1    0    0  503  502 -0.00000000000E+00 -0.00000000000E+00 -0.66489519115E+00  0.66489519115E+00  0.00000000000E+00 0.  1.
         21    1    1    2  503  501 -0.74665141166E+01  0.26872760742E+02  0.42115072915E+03  0.42207325285E+03  0.00000000000E+00 0.  1.
         21    1    1    2  504  502  0.74665141166E+01 -0.26872760742E+02  0.95481444920E+03  0.95522171589E+03  0.00000000000E+00 0.  1.
</event>
<event>
 4    1  0.1571930E+006  0.6635446E+02  0.7546771E-02  0.1239647E+00
         21   -1    0    0  503  501  0.00000000000E+00  0.00000000000E+00  0.36064288058E+02  0.36064288058E+02  0.00000000000E+00 0. -1.
         21   -1    0    0  504  502 -0.00000000000E+00 -0.00000000000E+00 -0.13848718404E+03  0.13848718404E+03  0.00000000000E+00 0. -1.
         21    1    1    2  503  502  0.49811876806E+02  0.43837098870E+02 -0.21175767523E+02  0.69651471186E+02  0.00000000000E+00 0. -1.
         21    1    1    2  504  501 -0.49811876806E+02 -0.43837098870E+02 -0.81247128457E+02  0.10490000091E+03  0.00000000000E+00 0. -1.
</event>
<event>
 4    1  0.1571930E+006  0.2086920E+02  0.7546771E-02  0.1521141E+00
         21   -1    0    0  504  501  0.00000000000E+00  0.00000000000E+00  0.42808803477E+02  0.42808803477E+02  0.00000000000E+00 0.  1.
         21   -1    0    0  501  502 -0.00000000000E+00 -0.00000000000E+00 -0.72527888760E+02  0.72527888760E+02  0.00000000000E+00 0.  1.
         21    1    1    2  503  502 -0.17448685806E+02  0.11448441521E+02 -0.68330484478E+02  0.71446333416E+02  0.00000000000E+00 0.  1.
         21    1    1    2  504  503  0.17448685806E+02 -0.11448441521E+02  0.38611399195E+02  0.43890358821E+02  0.00000000000E+00 0.  1.
</event>
<event>
 4    1  0.1571930E+006  0.2143981E+02  0.7546771E-02  0.1513077E+00
         21   -1    0    0  503  501  0.00000000000E+00  0.00000000000E+00  0.12263260474E+03  0.12263260474E+03  0.00000000000E+00 0.  1.
         21   -1    0    0  504  502 -0.00000000000E+00 -0.00000000000E+00 -0.61687223708E+01  0.61687223708E+01  0.00000000000E+00 0. -1.
         21    1    1    2  503  502 -0.48827217162E+01 -0.20876409431E+02  0.17891828972E+02  0.27924594645E+02  0.00000000000E+00 0. -1.
         21    1    1    2  504  501  0.48827217162E+01  0.20876409431E+02  0.98572053393E+02  0.10087673246E+03  0.00000000000E+00 0.  1.
</event>
<event>
 4    1  0.1571930E+006  0.3946925E+02  0.7546771E-02  0.1351624E+00
         21   -1    0    0  502  501  0.00000000000E+00  0.00000000000E+00  0.12271332825E+03  0.12271332825E+03  0.00000000000E+00 0.  1.
         21   -1    0    0  503  502 -0.00000000000E+00 -0.00000000000E+00 -0.51120883555E+03  0.51120883555E+03  0.00000000000E+00 0.  1.
         21    1    1    2  503  504 -0.33002396658E+02 -0.21648644076E+02 -0.50724856055E+03  0.50878180407E+03  0.00000000000E+00 0.  1.
         21    1    1    2  504  501  0.33002396658E+02  0.21648644076E+02  0.11875305326E+03  0.12514035973E+03  0.00000000000E+00 0.  1.
</event>
<event>
 4    1  0.1571930E+006  0.2252456E+02  0.7546771E-02  0.1498556E+00
         21   -1    0    0  502  501  0.00000000000E+00  0.00000000000E+00  0.54563934838E+02  0.54563934838E+02  0.00000000000E+00 0. -1.
         21   -1    0    0  504  502 -0.00000000000E+00 -0.00000000000E+00 -0.34253715503E+02  0.34253715503E+02  0.00000000000E+00 0. -1.
         21    1    1    2  503  501  0.48143927699E+01  0.22004029715E+02  0.48060173035E+02  0.53076698593E+02  0.00000000000E+00 0. -1.
         21    1    1    2  504  503 -0.48143927699E+01 -0.22004029715E+02 -0.27749953700E+02  0.35740951747E+02  0.00000000000E+00 0. -1.
</event>
<event>
 4    1  0.1571930E+006  0.2099392E+02  0.7546771E-02  0.1519352E+00
         21   -1    0    0  504  501  0.00000000000E+00  0.00000000000E+00  0.10104019786E+01  0.10104019786E+01  0.00000000000E+00 0.  1.
         21   -1    0    0  501  502 -0.00000000000E+00 -0.00000000000E+00 -0.43687338243E+03  0.43687338243E+03  0.00000000000E+00 0.  1.
         21    1    1    2  503  502 -0.12221613085E+02 -0.17069764256E+02 -0.22648074452E+03  0.22745169227E+03  0.00000000000E+00 0.  1.
         21    1    1    2  504  503  0.12221613085E+02  0.17069764256E+02 -0.20938223593E+03  0.21043209214E+03  0.00000000000E+00 0.  1.
</event>
<event>
 4    1  0.1571930E+006  0.6706230E+02  0.7546771E-02  0.1237557E+00
         21   -1    0    0  504  501  0.00000000000E+00  0.00000000000E+00  0.13379033393E+04  0.13379033393E+04  0.00000000000E+00 0.  1.
         21   -1    0    0  501  502 -0.00000000000E+00 -0.00000000000E+00 -0.20562054052E+02  0.20562054052E+02  0.00000000000E+00 0.  1.
         21    1    1    2  503  502  0.38872566746E+02  0.54646827963E+02  0.37434597462E+02  0.76803003450E+02  0.00000000000E+00 0.  1.
         21    1    1    2  504  503 -0.38872566746E+02 -0.54646827963E+02  0.12799066878E+04  0.12816623899E+04  0.00000000000E+00 0.  1.
</event>
<event>
 4    1  0.1571930E+006  0.2844199E+02  0.7546771E-02  0.1433637E+00
         21   -1    0    0  503  501  0.00000000000E+00  0.00000000000E+00  0.81086596221E+01  0.81086596221E+01  0.00000000000E+00 0.  1.
         21   -1    0    0  504  502 -0.00000000000E+00 -0.00000000000E+00 -0.10833871135E+03  0.10833871135E+03  0.00000000000E+00 0. -1.
         21    1    1    2  503  502 -0.27000520714E+01 -0.28313540123E+02 -0.33734239835E+02  0.44124208466E+02  0.00000000000E+00 0. -1.
         21    1    1    2  504  501  0.27000520714E+01  0.28313540123E+02 -0.66495811889E+02  0.72323162502E+02  0.00000000000E+00 0.  1.
</event>
<event>
 4    1  0.1571930E+006  0.2307845E+02  0.7546771E-02  0.1491515E+00
         21   -1    0    0  503  501  0.00000000000E+00  0.00000000000E+00  0.41675053369E+02  0.41675053369E+02  0.00000000000E+00 0. -1.
         21   -1    0    0  504  502 -0.00000000000E+00 -0.00000000000E+00 -0.10248327047E+03  0.10248327047E+03  0.00000000000E+00 0. -1.
         21    1    1    2  503  502 -0.22372799712E+02 -0.56632815429E+01 -0.97839351904E+02  0.10052439359E+03  0.00000000000E+00 0. -1.
         21    1    1    2  504  501  0.22372799712E+02  0.56632815429E+01  0.37031134801E+02  0.43633930254E+02  0.00000000000E+00 0. -1.
</event>
<event>
 4    1  0.1571930E+006  0.2899946E+02  0.7546771E-02  0.1428495E+00
         21   -1    0    0  503  501  0.00000000000E+00  0.00000000000E+00  0.47670874881E+01  0.47670874881E+01  0.00000000000E+00 0. -1.
         21   -1    0    0  504  502 -0.00000000000E+00 -0.00000000000E+00 -0.30554369405E+03  0.30554369405E+03  0.00000000000E+00 0. -1.
         21    1    1    2  503  502  0.27437553662E+02 -0.93888012104E+01 -0.25125493364E+03  0.25292293415E+03  0.00000000000E+00 0. -1.
         21    1    1    2  504  501 -0.27437553662E+02  0.93888012104E+01 -0.49521672918E+02  0.57387847387E+02  0.00000000000E+00 0. -1.
</event>
<event>
 4    1  0.1571930E+006  0.2178649E+02  0.7546771E-02  0.1508326E+00
         21   -1    0    0  503  501  0.00000000000E+00  0.00000000000E+00  0.63176144314E+03  0.63176144314E+03  0.00000000000E+00 0. -1.
         21   -1    0    0  504  502 -0.00000000000E+00 -0.00000000000E+00 -0.49550631282E+01  0.49550631282E+01  0.00000000000E+00 0. -1.
         21    1    1    2  503  502  0.18892998097E+02  0.10849219989E+02  0.60663422545E+03  0.60702531614E+03  0.00000000000E+00 0. -1.
         21    1    1    2  504  501 -0.18892998097E+02 -0.10849219989E+02  0.20172154566E+02  0.29691190130E+02  0.00000000000E+00 0. -1.
</event>
<event>
 4    1  0.1571930E+006  0.2552487E+02  0.7546771E-02  0.1463017E+00
         21   -1    0    0  503  501  0.00000000000E+00  0.00000000000E+00  0.22496972078E+02  0.22496972078E+02  0.00000000000E+00 0. -1.
         21   -1    0    0  504  502 -0.00000000000E+00 -0.00000000000E+00 -0.45568126044E+02  0.45568126044E+02  0.00000000000E+00 0. -1.
         21    1    1    2  503  502  0.21774014042E+02  0.13319580109E+02  0.90100964416E+01  0.27068445461E+02  0.00000000000E+00 0. -1.
         21    1    1    2  504  501 -0.21774014042E+02 -0.13319580109E+02 -0.32081250408E+02  0.40996652662E+02  0.00000000000E+00 0. -1.
</event>
<event>
 4    1  0.1571930E+006  0.2774071E+02  0.7546771E-02  0.1440306E+00
         21   -1    0    0  503  501  0.00000000000E+00  0.00000000000E+00  0.91218903970E+02  0.91218903970E+02  0.00000000000E+00 0. -1.
         21   -1    0    0  504  502 -0.00000000000E+00 -0.00000000000E+00 -0.15660550016E+02  0.15660550016E+02  0.00000000000E+00 0. -1.
         21    1    1    2  503  502  0.11646412168E+02  0.25177533310E+02  0.74075119439E+02  0.79099117693E+02  0.00000000000E+00 0. -1.
         21    1    1    2  504  501 -0.11646412168E+02 -0.25177533310E+02  0.14832345152E+01  0.27780336294E+02  0.00000000000E+00 0. -1.
</event>
<event>
 4    1  0.1571930E+006  0.3170151E+02  0.7546771E-02  0.1405365E+00
         21   -1    0    0  504  501  0.00000000000E+00  0.00000000000E+00  0.13069209608E+02  0.13069209608E+02  0.00000000000E+00 0.  1.
         21   -1    0    0  503  502 -0.00000000000E+00 -0.00000000000E+00 -0.13441325636E+03  0.13441325636E+03  0.00000000000E+00 0. -1.
         21    1    1    2  503  501 -0.31480500290E+02  0.37368011105E+01 -0.12434621671E+02  0.34052979270E+02  0.00000000000E+00 0.  1.
         21    1    1    2  504  502  0.31480500290E+02 -0.37368011105E+01 -0.10890942508E+03  0.11342948670E+03  0.00000000000E+00 0. -1.
</event>
<event>
 4    1  0.1571930E+006  0.2331945E+02  0.7546771E-02  0.1488525E+00
         21   -1    0    0  503  501  0.00000000000E+00  0.00000000000E+00  0.68363558767E+01  0.68363558767E+01  0.00000000000E+00 0. -1.
         21   -1    0    0  504  502 -0.00000000000E+00 -0.00000000000E+00 -0.44191602638E+03  0.44191602638E+03  0.00000000000E+00 0.  1.
         21    1    1    2  503  502  0.18525553824E+02  0.14163358981E+02 -0.42072112849E+03  0.42136690050E+03  0.00000000000E+00 0.  1.
         21    1    1    2  504  501 -0.18525553824E+02 -0.14163358981E+02 -0.14358542013E+02  0.27385481753E+02  0.00000000000E+00 0. -1.
</event>
<event>
 4    1  0.1571930E+006  0.2342514E+02  0.7546771E-02  0.1487227E+00
         21   -1    0    0  503  501  0.00000000000E+00  0.00000000000E+00  0.27065594723E+02  0.27065594723E+02  0.00000000000E+00 0.  1.
         21   -1    0    0  501  502 -0.00000000000E+00 -0.00000000000E+00 -0.57818934333E+03  0.57818934333E+03  0.00000000000E+00 0. -1.
         21    1    1    2  503  504 -0.16776208290E+02 -0.16349197191E+02  0.21712394519E+02  0.31940029573E+02  0.00000000000E+00 0.  1.
         21    1    1    2  504  502  0.16776208290E+02  0.16349197191E+02 -0.57283614313E+03  0.57331490848E+03  0.00000000000E+00 0. -1.
</event>
<event>
 4    1  0.1571930E+006  0.5804588E+02  0.7546771E-02  0.1266621E+00
         21   -1    0    0  504  501  0.00000000000E+00  0.00000000000E+00  0.21256112027E+02  0.21256112027E+02  0.00000000000E+00 0.  1.
         21   -1    0    0  501  502 -0.00000000000E+00 -0.00000000000E+00 -0.15872258750E+03  0.15872258750E+03  0.00000000000E+00 0.  1.
         21    1    1    2  503  502 -0.52724245611E+02  0.24279168271E+02 -0.72020126526E+02  0.92499852497E+02  0.00000000000E+00 0.  1.
         21    1    1    2  504  503  0.52724245611E+02 -0.24279168271E+02 -0.65446348947E+02  0.87478847030E+02  0.00000000000E+00 0.  1.
</event>
<event>
 4    1  0.1571930E+006  0.3904716E+02  0.7546771E-02  0.1354162E+00
         21   -1    0    0  503  501  0.00000000000E+00  0.00000000000E+00  0.22249959716E+03  0.22249959716E+03  0.00000000000E+00 0.  1.
         21   -1    0    0  504  502 -0.00000000000E+00 -0.00000000000E+00 -0.13132665198E+02  0.13132665198E+02  0.00000000000E+00 0. -1.
         21    1    1    2  503  502  0.16019338008E+02 -0.35609848679E+02  0.23210497433E+02  0.45424747707E+02  0.00000000000E+00 0. -1.
         21    1    1    2  504  501 -0.16019338008E+02  0.35609848679E+02  0.18615643453E+03  0.19020751465E+03  0.00000000000E+00 0.  1.
</event>
<event>
 4    1  0.1571930E+006  0.2072359E+02  0.7546771E-02  0.1523248E+00
         21   -1    0    0  504  501  0.00000000000E+00  0.00000000000E+00  0.31692463342E+02  0.31692463342E+02  0.00000000000E+00 0.  1.
         21   -1    0    0  503  502 -0.00000000000E+00 -0.00000000000E+00 -0.16326043819E+02  0.16326043819E+02  0.00000000000E+00 0. -1.
         21    1    1    2  503  501 -0.17467150887E+02  0.11151938216E+02 -0.22152333572E+01  0.20841649284E+02  0.00000000000E+00 0. -1.
         21    1    1    2  504  502  0.17467150887E+02 -0.11151938216E+02  0.17581652880E+02  0.27176857877E+02  0.00000000000E+00 0.  1.
</event>
<event>
 4    1  0.1571930E+006  0.3513497E+02  0.7546771E-02  0.1379617E+00
         21   -1    0    0  504  501  0.00000000000E+00  0.00000000000E+00  0.14564054497E+03  0.14564054497E+03  0.00000000000E+00 0.  1.
         21   -1    0    0  503  502 -0.00000000000E+00 -0.00000000000E+00 -0.40715589718E+02  0.40715589718E+02  0.00000000000E+00 0.  1.
         21    1    1    2  503  501 -0.11204258122E+02 -0.33300608530E+02  0.13537637236E+03  0.13986146046E+03  0.00000000000E+00 0.  1.
         21    1    1    2  504  502  0.11204258122E+02  0.33300608530E+02 -0.30451417102E+02  0.46494674234E+02  0.00000000000E+00 0.  1.
</event>
<event>
 4    1  0.1571930E+006  0.3525710E+02  0.7546771E-02  0.1378765E+00
         21   -1    0    0  503  501  0.00000000000E+00  0.00000000000E+00  0.46415342275E+02  0.46415342275E+02  0.00000000000E+00 0. -1.
         21   -1    0    0  504  502 -0.00000000000E+00 -0.00000000000E+00 -0.47784181375E+02  0.47784181375E+02  0.00000000000E+00 0. -1.
         21    1    1    2  503  502  0.35211189177E+02 -0.17987210421E+01 -0.31910398881E+02  0.47553515090E+02  0.00000000000E+00 0. -1.
         21    1    1    2  504  501 -0.35211189177E+02  0.17987210421E+01  0.30541559781E+02  0.46646008559E+02  0.00000000000E+00 0. -1.
</event>
<event>
 4    1  0.1571930E+006  0.2074325E+02  0.7546771E-02  0.1522962E+00
         21   -1    0    0  502  501  0.00000000000E+00  0.00000000000E+00  0.28500440525E+02  0.28500440525E+02  0.00000000000E+00 0. -1.
         21   -1    0    0  504  502 -0.00000000000E+00 -0.00000000000E+00 -0.69044160438E+02  0.69044160438E+02  0.00000000000E+00 0. -1.
         21    1    1    2  503  501 -0.10954990838E+02 -0.17614499666E+02  0.22839573889E+02  0.30853339498E+02  0.00000000000E+00 0. -1.
         21    1    1    2  504  503  0.10954990838E+02  0.17614499666E+02 -0.63383293801E+02  0.66691261465E+02  0.00000000000E+00 0. -1.
</event>
<event>
 4    1  0.1571930E+006  0.2848037E+02  0.7546771E-02  0.1433279E+00
         21   -1    0    0  502  501  0.00000000000E+00  0.00000000000E+00  0.48174612381E+02  0.48174612381E+02  0.00000000000E+00 0. -1.
         21   -1    0    0  504  502 -0.00000000000E+00 -0.00000000000E+00 -0.28553268028E+02  0.28553268028E+02  0.00000000000E+00 0. -1.
         21    1    1    2  503  501  0.10106210037E+02  0.26626975080E+02  0.34385135601E+02  0.44648279178E+02  0.00000000000E+00 0. -1.
         21    1    1    2  504  503 -0.10106210037E+02 -0.26626975080E+02 -0.14763791248E+02  0.32079601232E+02  0.00000000000E+00 0. -1.
</event>
<event>
 4    1  0.1571930E+006  0.2441190E+02  0.7546771E-02  0.1475491E+00
         21   -1    0    0  504  501  0.00000000000E+00  0.00000000000E+00  0.12721127036E+03  0.12721127036E+03  0.00000000000E+00 0.  1.
         21   -1    0    0  503  502 -0.00000000000E+00 -0.00000000000E+00 -0.49392156919E+01  0.49392156919E+01  0.00000000000E+00 0.  1.
         21    1    1    2  503  501  0.53357310596E+00 -0.24406064698E+02  0.46135486555E+02  0.52196013392E+02  0.00000000000E+00 0.  1.
         21    1    1    2  504  502 -0.53357310596E+00  0.24406064698E+02  0.76136568115E+02  0.79954472662E+02  0.00000000000E+00 0.  1.
</event>
<event>
 4    1  0.1571930E+006  0.2807710E+02  0.7546771E-02  0.1437078E+00
         21   -1    0    0  504  501  0.00000000000E+00  0.00000000000E+00  0.20593111304E+02  0.20593111304E+02  0.00000000000E+00 0.  1.
         21   -1    0    0  503  502 -0.00000000000E+00 -0.00000000000E+00 -0.41222145567E+02  0.41222145567E+02  0.00000000000E+00 0.  1.
         21    1    1    2  503  501  0.19383462514E+02  0.20312672936E+02 -0.20586183937E+01  0.28152463667E+02  0.00000000000E+00 0.  1.
         21    1    1    2  504  502 -0.19383462514E+02 -0.20312672936E+02 -0.18570415869E+02  0.33662793205E+02  0.00000000000E+00 0.  1.
</event>
<event>
 4    1  0.1571930E+006  0.2367120E+02  0.7546771E-02  0.1484238E+00
         21   -1    0    0  503  501  0.00000000000E+00  0.00000000000E+00  0.50253916357E+02  0.50253916357E+02  0.00000000000E+00 0. -1.
         21   -1    0    0  504  502 -0.00000000000E+00 -0.00000000000E+00 -0.11161988217E+02  0.11161988217E+02  0.00000000000E+00 0. -1.
         21    1    1    2  503  502  0.22947296895E+02 -0.58092205340E+01  0.20557074107E+02  0.31351535430E+02  0.00000000000E+00 0. -1.
         21    1    1    2  504  501 -0.22947296895E+02  0.58092205340E+01  0.18534854033E+02  0.30064369144E+02  0.00000000000E+00 0. -1.
</event>
<event>
 4    1  0.1571930E+006  0.2803205E+02  0.7546771E-02  0.1437508E+00
         21   -1    0    0  502  501  0.00000000000E+00  0.00000000000E+00  0.29305045508E+01  0.29305045508E+01  0.00000000000E+00 0. -1.
         21   -1    0    0  504  502 -0.00000000000E+00 -0.00000000000E+00 -0.33602310181E+03  0.33602310181E+03  0.00000000000E+00 0. -1.
         21    1    1    2  503  501 -0.19186446294E+01  0.27966315757E+02 -0.24271824385E+03  0.24433162283E+03  0.00000000000E+00 0. -1.
         21    1    1    2  504  503  0.19186446294E+01 -0.27966315757E+02 -0.90374353403E+02  0.94621983531E+02  0.00000000000E+00 0. -1.
</event>
<event>
 4    1  0.1571930E+006  0.2326424E+02  0.7546771E-02  0.1489206E+00
         21   -1    0    0  503  501  0.00000000000E+00  0.00000000000E+00  0.87764613661E+01  0.87764613661E+01  0.00000000000E+00 0.  1.
         21   -1    0    0  504  502 -0.00000000000E+00 -0.00000000000E+00 -0.80737820286E+02  0.80737820286E+02  0.00000000000E+00 0.  1.
         21    1    1    2  503  502  0.16000201417E+02  0.16888411786E+02 -0.14228658248E+02  0.27270489794E+02  0.00000000000E+00 0.  1.
         21    1    1    2  504  501 -0.16000201417E+02 -0.16888411786E+02 -0.57732700672E+02  0.62243791858E+02  0.00000000000E+00 0.  1.
</event>
<event>
 4    1  0.1571930E+006  0.2412094E+02  0.7546771E-02  0.1478883E+00
         21   -1    0    0  502  501  0.00000000000E+00  0.00000000000E+00  0.60383803551E+02  0.60383803551E+02  0.00000000000E+00 0. -1.
         21   -1    0    0  504  502 -0.00000000000E+00 -0.00000000000E+00 -0.24669739808E+02  0.24669739808E+02  0.00000000000E+00 0.  1.
         21    1    1    2  503  501 -0.23378260111E+02  0.59394026536E+01  0.51055872858E+02  0.56466996582E+02  0.00000000000E+00 0. -1.
         21    1    1    2  504  503  0.23378260111E+02 -0.59394026536E+01 -0.15341809115E+02  0.28586546777E+02  0.00000000000E+00 0.  1.
</event>
<event>
 4    1  0.1571930E+006  0.2244666E+02  0.7546771E-02  0.1499566E+00
         21   -1    0    0  504  501  0.00000000000E+00  0.00000000000E+00  0.44559885971E+01  0.44559885971E+01  0.00000000000E+00 0. -1.
         21   -1    0    0  501  502 -0.00000000000E+00 -0.00000000000E+00 -0.25370531586E+03  0.25370531586E+03  0.00000000000E+00 0.  1.
         21    1    1    2  503  502  0.20189317169E+02 -0.98104094565E+01 -0.22072805248E+03  0.22186645941E+03  0.00000000000E+00 0.  1.
         21    1    1    2  504  503 -0.20189317169E+02  0.98104094565E+01 -0.28521274785E+02  0.36294845045E+02  0.00000000000E+00 0. -1.
</event>
<event>
 4    1  0.1571930E+006  0.2490935E+02  0.7546771E-02  0.1469820E+00
         21   -1    0    0  504  501  0.00000000000E+00  0.00000000000E+00  0.39491587662E+03  0.39491587662E+03  0.00000000000E+00 0.  1.
         21   -1    0    0  503  502 -0.00000000000E+00 -0.00000000000E+00 -0.34055695670E+01  0.34055695670E+01  0.00000000000E+00 0.  1.
         21    1    1    2  503  501 -0.11993661065E+02  0.21831809707E+02  0.49585562462E+02  0.55490574204E+02  0.00000000000E+00 0.  1.
         21    1    1    2  504  502  0.11993661065E+02 -0.21831809707E+02  0.34192474460E+03  0.34283087199E+03  0.00000000000E+00 0.  1.
</event>
<event>
 4    1  0.1571930E+006  0.2024432E+02  0.7546771E-02  0.1530333E+00
         21   -1    0    0  504  501  0.00000000000E+00  0.00000000000E+00  0.71752218505E+02  0.71752218505E+02  0.00000000000E+00 0. -1.
         21   -1    0    0  503  502 -0.00000000000E+00 -0.00000000000E+00 -0.20115041509E+02  0.20115041509E+02  0.00000000000E+00 0. -1.
         21    1    1    2  503  501  0.19191635158E+02  0.64431107391E+01 -0.13050181529E+02  0.24086090882E+02  0.00000000000E+00 0. -1.
         21    1    1    2  504  502 -0.19191635158E+02 -0.64431107391E+01  0.64687358525E+02  0.67781169132E+02  0.00000000000E+00 0. -1.
</event>
<event>
 4    1  0.1571930E+006  0.2215055E+02  0.7546771E-02  0.1503449E+00
         21   -1    0    0  502  501  0.00000000000E+00  0.00000000000E+00  0.57485921845E+01  0.57485921845E+01  0.00000000000E+00 0.  1.
         21   -1    0    0  503  502 -0.00000000000E+00 -0.00000000000E+00 -0.12958149470E+03  0.12958149470E+03  0.00000000000E+00 0. -1.
         21    1    1    2  503  504  0.80380038979E+01 -0.20640671282E+02 -0.10144900397E+03  0.10383904480E+03  0.00000000000E+00 0. -1.
         21    1    1    2  504  501 -0.80380038979E+01  0.20640671282E+02 -0.22383898540E+02  0.31491042083E+02  0.00000000000E+00 0.  1.
</event>
<event>
 4    1  0.1571930E+006  0.3174842E+02  0.7546771E-02  0.1404988E+00
         21   -1    0    0  503  501  0.00000000000E+00  0.00000000000E+00  0.11650962084E+02  0.11650962084E+02  0.00000000000E+00 0.  1.
         21   -1    0    0  504  502 -0.00000000000E+00 -0.00000000000E+00 -0.87128997732E+02  0.87128997732E+02  0.00000000000E+00 0.  1.
         21    1    1    2  503  502  0.29569983736E+02 -0.11557591522E+02 -0.41891245566E+02  0.52562708406E+02  0.00000000000E+00 0.  1.
         21    1    1    2  504  501 -0.29569983736E+02  0.11557591522E+02 -0.33586790082E+02  0.46217251410E+02  0.00000000000E+00 0.  1.
</event>
<event>
 4    1  0.1571930E+006  0.3782678E+02  0.7546771E-02  0.1361714E+00
         21   -1    0    0  503  501  0.00000000000E+00  0.00000000000E+00  0.27716693784E+03  0.27716693784E+03  0.00000000000E+00 0.  1.
         21   -1    0    0  504  502 -0.00000000000E+00 -0.00000000000E+00 -0.52065484693E+01  0.52065484693E+01  0.00000000000E+00 0.  1.
         21    1    1    2  503  502 -0.37236057050E+02  0.66589086974E+01  0.12298897747E+03  0.12867460352E+03  0.00000000000E+00 0.  1.
         21    1    1    2  504  501  0.37236057050E+02 -0.66589086974E+01  0.14897141189E+03  0.15369888279E+03  0.00000000000E+00 0.  1.
</event>
<event>
 4    1  0.1571930E+006  0.2854512E+02  0.7546771E-02  0.1432675E+00
         21   -1    0    0  504  501  0.00000000000E+00  0.00000000000E+00  0.23979181865E+03  0.23979181865E+03  0.00000000000E+00 0. -1.
         21   -1    0    0  501  502 -0.00000000000E+00 -0.00000000000E+00 -0.10458956710E+03  0.10458956710E+03  0.00000000000E+00 0.  1.
         21    1    1    2  503  502 -0.28013761930E+02  0.54820453776E+01 -0.10176928956E+03  0.10569679265E+03  0.00000000000E+00 0.  1.
         21    1    1    2  504  503  0.28013761930E+02 -0.54820453776E+01  0.23697154112E+03  0.23868459310E+03  0.00000000000E+00 0. -1.
</event>
<event>
 4    1  0.1571930E+006  0.2039870E+02  0.7546771E-02  0.1528026E+00
         21   -1    0    0  504  501  0.00000000000E+00  0.00000000000E+00  0.44539937289E+01  0.44539937289E+01  0.00000000000E+00 0.  1.
         21   -1    0    0  503  502 -0.00000000000E+00 -0.00000000000E+00 -0.16610655778E+03  0.16610655778E+03  0.00000000000E+00 0. -1.
         21    1    1    2  503  501  0.20307325885E+02 -0.19285948893E+01 -0.24414179727E+02  0.31814448519E+02  0.00000000000E+00 0.  1.
         21    1    1    2  504  502 -0.20307325885E+02  0.19285948893E+01 -0.13723838432E+03  0.13874610299E+03  0.00000000000E+00 0. -1.
</event>
<event>
 4    1  0.1571930E+006  0.2352400E+02  0.7546771E-02  0.1486021E+00
         21   -1    0    0  504  501  0.00000000000E+00  0.00000000000E+00  0.18089835467E+02  0.18089835467E+02  0.00000000000E+00 0. -1.
         21   -1    0    0  501  502 -0.00000000000E+00 -0.00000000000E+00 -0.39455180799E+03  0.39455180799E+03  0.00000000000E+00 0.  1.
         21    1    1    2  503  502  0.22999866829E+02 -0.49380958743E+01 -0.38639217427E+03  0.38710759616E+03  0.00000000000E+00 0.  1.
         21    1    1    2  504  503 -0.22999866829E+02  0.49380958743E+01  0.99302017436E+01  0.25534047304E+02  0.00000000000E+00 0. -1.
</event>
<event>
 4    1  0.1571930E+006  0.2385322E+02  0.7546771E-02  0.1482053E+00
         21   -1    0    0  503  501  0.00000000000E+00  0.00000000000E+00  0.48835014212E+02  0.48835014212E+02  0.00000000000E+00 0.  1.
         21   -1    0    0  504  502 -0.00000000000E+00 -0.00000000000E+00 -0.48570163475E+03  0.48570163475E+03  0.00000000000E+00 0.  1.
         21    1    1    2  503  502  0.16768184795E+02 -0.16964783995E+02 -0.48247656806E+03  0.48306584918E+03  0.00000000000E+00 0.  1.
         21    1    1    2  504  501 -0.16768184795E+02  0.16964783995E+02  0.45609947521E+02  0.51470799782E+02  0.00000000000E+00 0.  1.
</event>
<event>
 4    1  0.1571930E+006  0.2095863E+02  0.7546771E-02  0.1519856E+00
         21   -1    0    0  503  501  0.00000000000E+00  0.00000000000E+00  0.77055753657E+02  0.77055753657E+02  0.00000000000E+00 0. -1.
         21   -1    0    0  501  502 -0.00000000000E+00 -0.00000000000E+00 -0.57536806990E+01  0.57536806990E+01  0.00000000000E+00 0.  1.
         21    1    1    2  503  504 -0.20522807373E+02  0.42519028908E+01  0.31674263015E+02  0.37980563954E+02  0.00000000000E+00 0.  1.
         21    1    1    2  504  502  0.20522807373E+02 -0.42519028908E+01  0.39627809943E+02  0.44828870402E+02  0.00000000000E+00 0. -1.
</event>
<event>
 4    1  0.1571930E+006  0.2300508E+02  0.7546771E-02  0.1492434E+00
         21   -1    0    0  503  501  0.00000000000E+00  0.00000000000E+00  0.11673343876E+02  0.11673343876E+02  0.00000000000E+00 0.  1.
         21   -1    0    0  501  502 -0.00000000000E+00 -0.00000000000E+00 -0.16059363095E+03  0.16059363095E+03  0.00000000000E+00 0.  1.
         21    1    1    2  503  504 -0.30250184247E+01  0.22805328176E+02 -0.14907158721E+01  0.23053328686E+02  0.00000000000E+00 0.  1.
         21    1    1    2  504  502  0.30250184247E+01 -0.22805328176E+02 -0.14742957120E+03  0.14921364614E+03  0.00000000000E+00 0.  1.
</event>
<event>
 4    1  0.1571930E+006  0.2014831E+02  0.7546771E-02  0.1531781E+00
         21   -1    0    0  504  501  0.00000000000E+00  0.00000000000E+00  0.21992009524E+03  0.21992009524E+03  0.00000000000E+00 0.  1.
         21   -1    0    0  501  502 -0.00000000000E+00 -0.00000000000E+00 -0.69258025368E+01  0.69258025368E+01  0.00000000000E+00 0. -1.
         21    1    1    2  503  502 -0.18318953647E+02 -0.83886980810E+01  0.93583248296E+01  0.22215592763E+02  0.00000000000E+00 0. -1.
         21    1    1    2  504  503  0.18318953647E+02  0.83886980810E+01  0.20363596787E+03  0.20463030501E+03  0.00000000000E+00 0.  1.
</event>
<event>
 4    1  0.1571930E+006  0.2033240E+02  0.7546771E-02  0.1529014E+00
         21   -1    0    0  504  501  0.00000000000E+00  0.00000000000E+00  0.12145053639E+02  0.12145053639E+02  0.00000000000E+00 0.  1.
         21   -1    0    0  503  502 -0.00000000000E+00 -0.00000000000E+00 -0.34108432385E+02  0.34108432385E+02  0.00000000000E+00 0. -1.
         21    1    1    2  503  501 -0.18965002641E+01  0.20243759745E+02 -0.99389005088E+01  0.22631576728E+02  0.00000000000E+00 0. -1.
         21    1    1    2  504  502  0.18965002641E+01 -0.20243759745E+02 -0.12024478238E+02  0.23621909296E+02  0.00000000000E+00 0.  1.
</event>
<event>
 4    1  0.1571930E+006  0.2671047E+02  0.7546771E-02  0.1450538E+00
         21   -1    0    0  502  501  0.00000000000E+00  0.00000000000E+00  0.18700316907E+02  0.18700316907E+02  0.00000000000E+00 0. -1.
         21   -1    0    0  504  502 -0.00000000000E+00 -0.00000000000E+00 -0.60620154672E+02  0.60620154672E+02  0.00000000000E+00 0. -1.
         21    1    1    2  503  501  0.25946334585E+02 -0.63432787148E+01  0.31854070650E+01  0.26899745007E+02  0.00000000000E+00 0. -1.
         21    1    1    2  504  503 -0.25946334585E+02  0.63432787148E+01 -0.45105244829E+02  0.52420726572E+02  0.00000000000E+00 0. -1.
</event>
<event>
 4    1  0.1571930E+006  0.2412094E+02  0.7546771E-02  0.1478883E+00
         21   -1    0    0  502  501  0.00000000000E+00  0.00000000000E+00  0.32256868943E+03  0.32256868943E+03  0.00000000000E+00 0. -1.
         21   -1    0    0  503  502 -0.00000000000E+00 -0.00000000000E+00 -0.19082337630E+01  0.19082337630E+01  0.00000000000E+00 0. -1.
         21    1    1    2  503  504 -0.10889097744E+02 -0.21523179943E+02  0.12235943089E+03  0.12471427365E+03  0.00000000000E+00 0. -1.
         21    1    1    2  504  501  0.10889097744E+02  0.21523179943E+02  0.19830102478E+03  0.19976264954E+03  0.00000000000E+00 0. -1.
</event>
<event>
 4    1  0.1571930E+006  0.2970874E+02  0.7546771E-02  0.1422145E+00
         21   -1    0    0  502  501  0.00000000000E+00  0.00000000000E+00  0.42962491009E+03  0.42962491009E+03  0.00000000000E+00 0.  1.
         21   -1    0    0  504  502 -0.00000000000E+00 -0.00000000000E+00 -0.21986729782E+01  0.21986729782E+01  0.00000000000E+00 0.  1.
         21    1    1    2  503  501  0.25154369619E+02 -0.15807188296E+02  0.26902650325E+03  0.27066190896E+03  0.00000000000E+00 0.  1.
         21    1    1    2  504  503 -0.25154369619E+02  0.15807188296E+02  0.15839973387E+03  0.16116167411E+03  0.00000000000E+00 0.  1.
</event>
<event>
 4    1  0.1571930E+006  0.2152538E+02  0.7546771E-02  0.1511894E+00
         21   -1    0    0  502  501  0.00000000000E+00  0.00000000000E+00  0.78743542713E+01  0.78743542713E+01  0.00000000000E+00 0.  1.
         21   -1    0    0  504  502 -0.00000000000E+00 -0.00000000000E+00 -0.17406675546E+03  0.17406675546E+03  0.00000000000E+00 0.  1.
         21    1    1    2  503  501 -0.21167609010E+02 -0.39082615029E+01 -0.90818451158E+01  0.23362835656E+02  0.00000000000E+00 0.  1.
         21    1    1    2  504  503  0.21167609010E+02  0.39082615029E+01 -0.15711055607E+03  0.15857827407E+03  0.00000000000E+00 0.  1.
</event>
<event>
 4    1  0.1571930E+006  0.2708329E+02  0.7546771E-02  0.1446773E+00
         21   -1    0    0  504  501  0.00000000000E+00  0.00000000000E+00  0.12677581331E+03  0.12677581331E+03  0.00000000000E+00 0. -1.
         21   -1    0    0  503  502 -0.00000000000E+00 -0.00000000000E+00 -0.32521283051E+02  0.32521283051E+02  0.00000000000E+00 0.  1.
         21    1    1    2  503  501  0.10783736627E+02 -0.24843828414E+02 -0.25089446212E+02  0.36918628051E+02  0.00000000000E+00 0.  1.
         21    1    1    2  504  502 -0.10783736627E+02  0.24843828414E+02  0.11934397647E+03  0.12237846831E+03  0.00000000000E+00 0. -1.
</event>
<event>
 4    1  0.1571930E+006  0.2886084E+02  0.7546771E-02  0.1429761E+00
         21   -1    0    0  503  501  0.00000000000E+00  0.00000000000E+00  0.43428688044E+03  0.43428688044E+03  0.00000000000E+00 0. -1.
         21   -1    0    0  504  502 -0.00000000000E+00 -0.00000000000E+00 -0.40303598687E+02  0.40303598687E+02  0.00000000000E+00 0. -1.
         21    1    1    2  503  502  0.28502668341E+02  0.45327742116E+01  0.42857185746E+03  0.42954253008E+03  0.00000000000E+00 0. -1.
         21    1    1    2  504  501 -0.28502668341E+02 -0.45327742116E+01 -0.34588575700E+02  0.45047949049E+02  0.00000000000E+00 0. -1.
</event>
<event>
 4    1  0.1571930E+006  0.2819934E+02  0.7546771E-02  0.1435919E+00
         21   -1    0    0  503  501  0.00000000000E+00  0.00000000000E+00  0.18584597895E+02  0.18584597895E+02  0.00000000000E+00 0. -1.
         21   -1    0    0  504  502 -0.00000000000E+00 -0.00000000000E+00 -0.45449768819E+02  0.45449768819E+02  0.00000000000E+00 0. -1.
         21    1    1    2  503  502 -0.23438170606E+02 -0.15679753898E+02 -0.21180442587E+02  0.35267742652E+02  0.00000000000E+00 0. -1.
         21    1    1    2  504  501  0.23438170606E+02  0.15679753898E+02 -0.56847283383E+01  0.28766624062E+02  0.00000000000E+00 0. -1.
</event>
<event>
 4    1  0.1571930E+006  0.2051881E+02  0.7546771E-02  0.1526247E+00
         21   -1    0    0  503  501  0.00000000000E+00  0.00000000000E+00  0.94128165969E+01  0.94128165969E+01  0.00000000000E+00 0. -1.
         21   -1    0    0  504  502 -0.00000000000E+00 -0.00000000000E+00 -0.45694911731E+02  0.45694911731E+02  0.00000000000E+00 0.  1.
         21    1    1    2  503  502 -0.55605843896E+01 -0.19750991382E+02 -0.22148012593E+02  0.30191989354E+02  0.00000000000E+00 0. -1.
         21    1    1    2  504  501  0.55605843896E+01  0.19750991382E+02 -0.14134082541E+02  0.24915738974E+02  0.00000000000E+00 0.  1.
</event>
<event>
 4    1  0.1571930E+006  0.2106740E+02  0.7546771E-02  0.1518305E+00
         21   -1    0    0  504  501  0.00000000000E+00  0.00000000000E+00  0.25459135412E+03  0.25459135412E+03  0.00000000000E+00 0. -1.
         21   -1    0    0  501  502 -0.00000000000E+00 -0.00000000000E+00 -0.45343579908E+02  0.45343579908E+02  0.00000000000E+00 0. -1.
         21    1    1    2  503  502 -0.20341540557E+02 -0.54824236732E+01 -0.42432425647E+02  0.47374528893E+02  0.00000000000E+00 0. -1.
         21    1    1    2  504  503  0.20341540557E+02  0.54824236732E+01  0.25168019986E+03  0.25256040514E+03  0.00000000000E+00 0. -1.
</event>
<event>
 4    1  0.1571930E+006  0.2150283E+02  0.7546771E-02  0.1512205E+00
         21   -1    0    0  503  501  0.00000000000E+00  0.00000000000E+00  0.45173573771E+03  0.45173573771E+03  0.00000000000E+00 0.  1.
         21   -1    0    0  504  502 -0.00000000000E+00 -0.00000000000E+00 -0.10870027722E+01  0.10870027722E+01  0.00000000000E+00 0.  1.
         21    1    1    2  503  502 -0.13859500215E+02  0.16440369601E+02  0.28002949325E+03  0.28085385628E+03  0.00000000000E+00 0.  1.
         21    1    1    2  504  501  0.13859500215E+02 -0.16440369601E+02  0.17061924169E+03  0.17196888420E+03  0.00000000000E+00 0.  1.
</event>
<event>
 4    1  0.1571930E+006  0.5476114E+02  0.7546771E-02  0.1278752E+00
         21   -1    0    0  502  501  0.00000000000E+00  0.00000000000E+00  0.64342011683E+03  0.64342011683E+03  0.00000000000E+00 0.  1.
         21   -1    0    0  504  502 -0.00000000000E+00 -0.00000000000E+00 -0.13493236193E+03  0.13493236193E+03  0.00000000000E+00 0.  1.
         21    1    1    2  503  501  0.30191604356E+02 -0.45686425725E+02  0.63663979525E+03  0.63899061915E+03  0.00000000000E+00 0.  1.
         21    1    1    2  504  503 -0.30191604356E+02  0.45686425725E+02 -0.12815204035E+03  0.13936185961E+03  0.00000000000E+00 0.  1.
</event>
<event>
 4    1  0.1571930E+006  0.7886318E+02  0.7546771E-02  0.1206512E+00
         21   -1    0    0  504  501  0.00000000000E+00  0.00000000000E+00  0.76089499142E+02  0.76089499142E+02  0.00000000000E+00 0. -1.
         21   -1    0    0  503  502 -0.00000000000E+00 -0.00000000000E+00 -0.75702168017E+03  0.75702168017E+03  0.00000000000E+00 0.  1.
         21    1    1    2  503  501 -0.73669250006E+02 -0.28146812243E+02  0.52958900484E+02  0.94994981848E+02  0.00000000000E+00 0. -1.
         21    1    1    2  504  502  0.73669250006E+02  0.28146812243E+02 -0.73389108151E+03  0.73811619747E+03  0.00000000000E+00 0.  1.
</event>
<event>
 4    1  0.1571930E+006  0.4250516E+02  0.7546771E-02  0.1334399E+00
         21   -1    0    0  504  501  0.00000000000E+00  0.00000000000E+00  0.68703255811E+03  0.68703255811E+03  0.00000000000E+00 0. -1.
         21   -1    0    0  503  502 -0.00000000000E+00 -0.00000000000E+00 -0.49810137874E+01  0.49810137874E+01  0.00000000000E+00 0.  1.
         21    1    1    2  503  501 -0.10833920928E+01 -0.42491351796E+02  0.10329732834E+03  0.11170061217E+03  0.00000000000E+00 0.  1.
         21    1    1    2  504  502  0.10833920928E+01  0.42491351796E+02  0.57875421598E+03  0.58031295973E+03  0.00000000000E+00 0. -1.
</event>
<event>
 4    1  0.1571930E+006  0.2023847E+02  0.7546771E-02  0.1530421E+00
         21   -1    0    0  504  501  0.00000000000E+00  0.00000000000E+00  0.74539946205E+00  0.74539946205E+00  0.00000000000E+00 0.  1.
         21   -1    0    0  501  502 -0.00000000000E+00 -0.00000000000E+00 -0.11156259084E+04  0.11156259084E+04  0.00000000000E+00 0. -1.
         21    1    1    2  503  502 -0.14899517001E+02  0.13696715462E+02 -0.95506792755E+03  0.95528233620E+03  0.00000000000E+00 0. -1.
         21    1    1    2  504  503  0.14899517001E+02 -0.13696715462E+02 -0.15981258143E+03  0.16108897170E+03  0.00000000000E+00 0.  1.
</event>
<event>
 4    1  0.1571930E+006  0.2048529E+02  0.7546771E-02  0.1526742E+00
         21   -1    0    0  502  501  0.00000000000E+00  0.00000000000E+00  0.46775216110E+01  0.46775216110E+01  0.00000000000E+00 0.  1.
         21   -1    0    0  503  502 -0.00000000000E+00 -0.00000000000E+00 -0.13289332063E+03  0.13289332063E+03  0.00000000000E+00 0.  1.
         21    1    1    2  503  504  0.18835208570E+02  0.80549460666E+01 -0.10331584232E+03  0.10532715942E+03  0.00000000000E+00 0.  1.
         21    1    1    2  504  501 -0.18835208570E+02 -0.80549460666E+01 -0.24899956701E+02  0.32243682819E+02  0.00000000000E+00 0.  1.
</event>
<event>
 4    1  0.1571930E+006  0.2356323E+02  0.7546771E-02  0.1485544E+00
         21   -1    0    0  503  501  0.00000000000E+00  0.00000000000E+00  0.47265221909E+02  0.47265221909E+02  0.00000000000E+00 0. -1.
         21   -1    0    0  501  502 -0.00000000000E+00 -0.00000000000E+00 -0.40751604551E+03  0.40751604551E+03  0.00000000000E+00 0. -1.
         21    1    1    2  503  504 -0.19086888037E+02  0.13817249813E+02  0.43963885130E+02  0.49880345659E+02  0.00000000000E+00 0. -1.
         21    1    1    2  504  502  0.19086888037E+02 -0.13817249813E+02 -0.40421470873E+03  0.40490092176E+03  0.00000000000E+00 0. -1.
</event>
<event>
 4    1  0.1571930E+006  0.2137000E+02  0.7546771E-02  0.1514047E+00
         21   -1    0    0  504  501  0.00000000000E+00  0.00000000000E+00  0.14123617235E+03  0.14123617235E+03  0.00000000000E+00 0. -1.
         21   -1    0    0  503  502 -0.00000000000E+00 -0.00000000000E+00 -0.52920029182E+02  0.52920029182E+02  0.00000000000E+00 0. -1.
         21    1    1    2  503  501 -0.21200861314E+02 -0.26833666203E+01 -0.49907539062E+02  0.54290325401E+02  0.00000000000E+00 0. -1.
         21    1    1    2  504  502  0.21200861314E+02  0.26833666203E+01  0.13822368223E+03  0.13986587613E+03  0.00000000000E+00 0. -1.
</event>
<event>
 4    1  0.1571930E+006  0.2517977E+02  0.7546771E-02  0.1466802E+00
         21   -1    0    0  504  501  0.00000000000E+00  0.00000000000E+00  0.35670639198E+02  0.35670639198E+02  0.00000000000E+00 0.  1.
         21   -1    0    0  503  502 -0.00000000000E+00 -0.00000000000E+00 -0.69798273911E+02  0.69798273911E+02  0.00000000000E+00 0.  1.
         21    1    1    2  503  501  0.22685326247E+02  0.10926885618E+02 -0.62591324376E+02  0.67466248920E+02  0.00000000000E+00 0.  1.
         21    1    1    2  504  502 -0.22685326247E+02 -0.10926885618E+02  0.28463689662E+02  0.38002664189E+02  0.00000000000E+00 0.  1.
</event>
<event>
 4    1  0.1571930E+006  0.3082833E+02  0.7546771E-02  0.1412532E+00
         21   -1    0    0  503  501  0.00000000000E+00  0.00000000000E+00  0.27639410266E+02  0.27639410266E+02  0.00000000000E+00 0. -1.
         21   -1    0    0  504  502 -0.00000000000E+00 -0.00000000000E+00 -0.88393068550E+02  0.88393068550E+02  0.00000000000E+00 0. -1.
         21    1    1    2  503  502  0.23271289379E+02 -0.20219616671E+02 -0.75725974909E+02  0.81760681770E+02  0.00000000000E+00 0. -1.
         21    1    1    2  504  501 -0.23271289379E+02  0.20219616671E+02  0.14972316625E+02  0.34271797046E+02  0.00000000000E+00 0. -1.
</event>
<event>
 4    1  0.1571930E+006  0.2429863E+02  0.7546771E-02  0.1476805E+00
         21   -1    0    0  504  501  0.00000000000E+00  0.00000000000E+00  0.16204272407E+01  0.16204272407E+01  0.00000000000E+00 0.  1.
         21   -1    0    0  501  502 -0.00000000000E+00 -0.00000000000E+00 -0.63365833956E+03  0.63365833956E+03  0.00000000000E+00 0. -1.
         21    1    1    2  503  502  0.41023096384E+00 -0.24295170484E+02 -0.52309089576E+03  0.52365495207E+03  0.00000000000E+00 0. -1.
         21    1    1    2  504  503 -0.41023096384E+00  0.24295170484E+02 -0.10894701656E+03  0.11162381473E+03  0.00000000000E+00 0.  1.
</event>
<event>
 4    1  0.1571930E+006  0.3465267E+02  0.7546771E-02  0.1383022E+00
         21   -1    0    0  503  501  0.00000000000E+00  0.00000000000E+00  0.10154356509E+03  0.10154356509E+03  0.00000000000E+00 0. -1.
         21   -1    0    0  504  502 -0.00000000000E+00 -0.00000000000E+00 -0.36281900650E+02  0.36281900650E+02  0.00000000000E+00 0. -1.
         21    1    1    2  503  502  0.16723054798E+02  0.30350399931E+02  0.89209196385E+02  0.95703124595E+02  0.00000000000E+00 0. -1.
         21    1    1    2  504  501 -0.16723054798E+02 -0.30350399931E+02 -0.23947531942E+02  0.42122341148E+02  0.00000000000E+00 0. -1.
</event>
<event>
 4    1  0.1571930E+006  0.3310186E+02  0.7546771E-02  0.1394422E+00
         21   -1    0    0  503  501  0.00000000000E+00  0.00000000000E+00  0.19466096369E+03  0.19466096369E+03  0.00000000000E+00 0. -1.
         21   -1    0    0  504  502 -0.00000000000E+00 -0.00000000000E+00 -0.58668335103E+01  0.58668335103E+01  0.00000000000E+00 0. -1.
         21    1    1    2  503  502 -0.21605155914E+02  0.25078879078E+02  0.74206748314E+02  0.81254996358E+02  0.00000000000E+00 0. -1.
         21    1    1    2  504  501  0.21605155914E+02 -0.25078879078E+02  0.11458738187E+03  0.11927280085E+03  0.00000000000E+00 0. -1.
</event>
<event>
 4    1  0.1571930E+006  0.5662567E+02  0.7546771E-02  0.1271749E+00
         21   -1    0    0  502  501  0.00000000000E+00  0.00000000000E+00  0.65288198978E+01  0.65288198978E+01  0.00000000000E+00 0. -1.
         21   -1    0    0  504  502 -0.00000000000E+00 -0.00000000000E+00 -0.49248373403E+03  0.49248373403E+03  0.00000000000E+00 0. -1.
         21    1    1    2  503  501  0.45567324426E+02  0.33616743864E+02 -0.25608304178E+03  0.26226892842E+03  0.00000000000E+00 0. -1.
         21    1    1    2  504  503 -0.45567324426E+02 -0.33616743864E+02 -0.22987187235E+03  0.23674362551E+03  0.00000000000E+00 0. -1.
</event>
<event>
 4    1  0.1571930E+006  0.2087430E+02  0.7546771E-02  0.1521067E+00
         21   -1    0    0  504  501  0.00000000000E+00  0.00000000000E+00  0.36929473089E+02  0.36929473089E+02  0.00000000000E+00 0. -1.
         21   -1    0    0  503  502 -0.00000000000E+00 -0.00000000000E+00 -0.53194987332E+02  0.53194987332E+02  0.00000000000E+00 0. -1.
         21    1    1    2  503  501 -0.19539043834E+02 -0.73458990809E+01 -0.47884452182E+02  0.52236550691E+02  0.00000000000E+00 0. -1.
         21    1    1    2  504  502  0.19539043834E+02  0.73458990809E+01  0.31618937940E+02  0.37887909730E+02  0.00000000000E+00 0. -1.
</event>
<event>
 4    1  0.1571930E+006  0.2323351E+02  0.7546771E-02  0.1489587E+00
         21   -1    0    0  503  501  0.00000000000E+00  0.00000000000E+00  0.14681467768E+04  0.14681467768E+04  0.00000000000E+00 0. -1.
         21   -1    0    0  501  502 -0.00000000000E+00 -0.00000000000E+00 -0.99370906868E+00  0.99370906868E+00  0.00000000000E+00 0. -1.
         21    1    1    2  503  504 -0.22362199876E+02  0.63030096737E+01  0.13166239280E+04  0.13168289045E+04  0.00000000000E+00 0. -1.
         21    1    1    2  504  502  0.22362199876E+02 -0.63030096737E+01  0.15052913972E+03  0.15231158137E+03  0.00000000000E+00 0. -1.
</event>
<event>
 4    1  0.1571930E+006  0.2040421E+02  0.7546771E-02  0.1527944E+00
         21   -1    0    0  503  501  0.00000000000E+00  0.00000000000E+00  0.74033756781E+02  0.74033756781E+02  0.00000000000E+00 0.  1.
         21   -1    0    0  504  502 -0.00000000000E+00 -0.00000000000E+00 -0.54566443125E+03  0.54566443125E+03  0.00000000000E+00 0. -1.
         21    1    1    2  503  502  0.13501513797E+02 -0.15298400434E+02  0.72432990911E+02  0.75252043846E+02  0.00000000000E+00 0.  1.
         21    1    1    2  504  501 -0.13501513797E+02  0.15298400434E+02 -0.54406366538E+03  0.54444614418E+03  0.00000000000E+00 0. -1.
</event>
<event>
 4    1  0.1571930E+006  0.2292563E+02  0.7546771E-02  0.1493434E+00
         21   -1    0    0  502  501  0.00000000000E+00  0.00000000000E+00  0.10059496567E+03  0.10059496567E+03  0.00000000000E+00 0.  1.
         21   -1    0    0  503  502 -0.00000000000E+00 -0.00000000000E+00 -0.50285683066E+02  0.50285683066E+02  0.00000000000E+00 0.  1.
         21    1    1    2  503  504  0.17018978062E+02 -0.15360304309E+02 -0.46259038445E+02  0.51628317817E+02  0.00000000000E+00 0.  1.
         21    1    1    2  504  501 -0.17018978062E+02  0.15360304309E+02  0.96568321050E+02  0.99252330920E+02  0.00000000000E+00 0.  1.
</event>
<event>
 4    1  0.1571930E+006  0.2467227E+02  0.7546771E-02  0.1472503E+00
         21   -1    0    0  503  501  0.00000000000E+00  0.00000000000E+00  0.61503194003E+02  0.61503194003E+02  0.00000000000E+00 0.  1.
         21   -1    0    0  501  502 -0.00000000000E+00 -0.00000000000E+00 -0.61608000958E+03  0.61608000958E+03  0.00000000000E+00 0. -1.
         21    1    1    2  503  504  0.10088787287E+02 -0.22515262636E+02  0.58770816142E+02  0.63739544323E+02  0.00000000000E+00 0.  1.
         21    1    1    2  504  502 -0.10088787287E+02  0.22515262636E+02 -0.61334763172E+03  0.61384365926E+03  0.00000000000E+00 0. -1.
</event>
<event>
 4    1  0.1571930E+006  0.2095185E+02  0.7546771E-02  0.1519953E+00
         21   -1    0    0  503  501  0.00000000000E+00  0.00000000000E+00  0.57297476360E+02  0.57297476360E+02  0.00000000000E+00 0.  1.
         21   -1    0    0  501  502 -0.00000000000E+00 -0.00000000000E+00 -0.10286038290E+02  0.10286038290E+02  0.00000000000E+00 0.  1.
         21    1    1    2  503  504  0.16953550992E+02 -0.12310856243E+02  0.40575176789E+02  0.45665359346E+02  0.00000000000E+00 0.  1.
         21    1    1    2  504  502 -0.16953550992E+02  0.12310856243E+02  0.64362612814E+01  0.21918155304E+02  0.00000000000E+00 0.  1.
</event>
<event>
 4    1  0.1571930E+006  0.2249453E+02  0.7546771E-02  0.1498945E+00
         21   -1    0    0  502  501  0.00000000000E+00  0.00000000000E+00  0.20492673641E+02  0.20492673641E+02  0.00000000000E+00 0.  1.
         21   -1    0    0  504  502 -0.00000000000E+00 -0.00000000000E+00 -0.50954275284E+03  0.50954275284E+03  0.00000000000E+00 0. -1.
         21    1    1    2  503  501  0.20531969165E+02 -0.91892314233E+01  0.13991690914E+02  0.26490963489E+02  0.00000000000E+00 0.  1.
         21    1    1    2  504  503 -0.20531969165E+02  0.91892314233E+01 -0.50304177011E+03  0.50354446299E+03  0.00000000000E+00 0. -1.
</event>
<event>
 4    1  0.1571930E+006  0.2139363E+02  0.7546771E-02  0.1513718E+00
         21   -1    0    0  502  501  0.00000000000E+00  0.00000000000E+00  0.26338847919E+02  0.26338847919E+02  0.00000000000E+00 0.  1.
         21   -1    0    0  503  502 -0.00000000000E+00 -0.00000000000E+00 -0.21745241187E+02  0.21745241187E+02  0.00000000000E+00 0.  1.
         21    1    1    2  503  504  0.11346502856E+01 -0.21363519421E+02 -0.84789541498E+01  0.23012606475E+02  0.00000000000E+00 0.  1.
         21    1    1    2  504  501 -0.11346502856E+01  0.21363519421E+02  0.13072560881E+02  0.25071482631E+02  0.00000000000E+00 0.  1.
</event>
<event>
 4    1  0.1571930E+006  0.2512196E+02  0.7546771E-02  0.1467444E+00
         21   -1    0    0  503  501  0.00000000000E+00  0.00000000000E+00  0.63595785705E+02  0.63595785705E+02  0.00000000000E+00 0. -1.
         21   -1    0    0  504  502 -0.00000000000E+00 -0.00000000000E+00 -0.23288829263E+02  0.23288829263E+02  0.00000000000E+00 0.  1.
         21    1    1    2  503  502  0.23229535617E+02  0.95656511899E+01  0.53063162815E+02  0.58709558469E+02  0.00000000000E+00 0. -1.
         21    1    1    2  504  501 -0.23229535617E+02 -0.95656511899E+01 -0.12756206374E+02  0.28175056499E+02  0.00000000000E+00 0.  1.
</event>
<event>
 4    1  0.1571930E+006  0.2160673E+02  0.7546771E-02  0.1510776E+00
         21   -1    0    0  504  501  0.00000000000E+00  0.00000000000E+00  0.23371596586E+03  0.23371596586E+03  0.00000000000E+00 0.  1.
         21   -1    0    0  503  502 -0.00000000000E+00 -0.00000000000E+00 -0.81505419254E+01  0.81505419254E+01  0.00000000000E+00 0.  1.
         21    1    1    2  503  501 -0.20978116142E+02  0.51739030478E+01  0.21785712715E+03  0.21892596575E+03  0.00000000000E+00 0.  1.
         21    1    1    2  504  502  0.20978116142E+02 -0.51739030478E+01  0.77082967875E+01  0.22940542038E+02  0.00000000000E+00 0.  1.
</event>
<event>
 4    1  0.1571930E+006  0.3976237E+02  0.7546771E-02  0.1349884E+00
         21   -1    0    0  502  501  0.00000000000E+00  0.00000000000E+00  0.26331438706E+02  0.26331438706E+02  0.00000000000E+00 0.  1.
         21   -1    0    0  504  502 -0.00000000000E+00 -0.00000000000E+00 -0.51679572443E+03  0.51679572443E+03  0.00000000000E+00 0.  1.
         21    1    1    2  503  501  0.38142507364E+02  0.11233659291E+02  0.10068642304E+02  0.41017356411E+02  0.00000000000E+00 0.  1.
         21    1    1    2  504  503 -0.38142507364E+02 -0.11233659291E+02 -0.50053292803E+03  0.50210980672E+03  0.00000000000E+00 0.  1.
</event>
<event>
 4    1  0.1571930E+006  0.4921018E+02  0.7546771E-02  0.1301634E+00
         21   -1    0    0  502  501  0.00000000000E+00  0.00000000000E+00  0.44340316202E+02  0.44340316202E+02  0.00000000000E+00 0. -1.
         21   -1    0    0  504  502 -0.00000000000E+00 -0.00000000000E+00 -0.74415630685E+02  0.74415630685E+02  0.00000000000E+00 0. -1.
         21    1    1    2  503  501 -0.28408875151E+02 -0.40181812832E+02  0.15591412974E+02  0.51621065742E+02  0.00000000000E+00 0. -1.
         21    1    1    2  504  503  0.28408875151E+02  0.40181812832E+02 -0.45666727456E+02  0.67134881145E+02  0.00000000000E+00 0. -1.
</event>
<event>
 4    1  0.1571930E+006  0.2494027E+02  0.7546771E-02  0.1469473E+00
         21   -1    0    0  502  501  0.00000000000E+00  0.00000000000E+00  0.60805326817E+02  0.60805326817E+02  0.00000000000E+00 0.  1.
         21   -1    0    0  504  502 -0.00000000000E+00 -0.00000000000E+00 -0.11273473720E+02  0.11273473720E+02  0.00000000000E+00 0.  1.
         21    1    1    2  503  501  0.19706882628E+02  0.15285800646E+02  0.35732305272E+02  0.43575389434E+02  0.00000000000E+00 0.  1.
         21    1    1    2  504  503 -0.19706882628E+02 -0.15285800646E+02  0.13799547825E+02  0.28503411102E+02  0.00000000000E+00 0.  1.
</event>
<event>
 4    1  0.1571930E+006  0.2028897E+02  0.7546771E-02  0.1529663E+00
         21   -1    0    0  504  501  0.00000000000E+00  0.00000000000E+00  0.33376389494E+03  0.33376389494E+03  0.00000000000E+00 0.  1.
         21   -1    0    0  503  502 -0.00000000000E+00 -0.00000000000E+00 -0.22400897717E+01  0.22400897717E+01  0.00000000000E+00 0.  1.
         21    1    1    2  503  501 -0.21091499270E+01 -0.20179039609E+02  0.27838926618E+03  0.27912761540E+03  0.00000000000E+00 0.  1.
         21    1    1    2  504  502  0.21091499270E+01  0.20179039609E+02  0.53134538990E+02  0.56876369316E+02  0.00000000000E+00 0.  1.
</event>
<event>
 4    1  0.1571930E+006  0.2328699E+02  0.7546771E-02  0.1488926E+00
         21   -1    0    0  504  501  0.00000000000E+00  0.00000000000E+00  0.38601807094E+02  0.38601807094E+02  0.00000000000E+00 0. -1.
         21   -1    0    0  503  502 -0.00000000000E+00 -0.00000000000E+00 -0.18313791918E+02  0.18313791918E+02  0.00000000000E+00 0.  1.
         21    1    1    2  503  501  0.18224264594E+02  0.14496896834E+02 -0.35902300653E+01  0.23562121928E+02  0.00000000000E+00 0.  1.
         21    1    1    2  504  502 -0.18224264594E+02 -0.14496896834E+02  0.23878245241E+02  0.33353477084E+02  0.00000000000E+00 0. -1.
</event>
<event>
 4    1  0.1571930E+006  0.2348939E+02  0.7546771E-02  0.1486443E+00
         21   -1    0    0  504  501  0.00000000000E+00  0.00000000000E+00  0.55475936369E+02  0.55475936369E+02  0.00000000000E+00 0.  1.
         21   -1    0    0  503  502 -0.00000000000E+00 -0.00000000000E+00 -0.20016873104E+02  0.20016873104E+02  0.00000000000E+00 0.  1.
         21    1    1    2  503  501  0.19976452182E+02  0.12356883453E+02  0.44503692976E+02  0.50322260472E+02  0.00000000000E+00 0.  1.
         21    1    1    2  504  502 -0.19976452182E+02 -0.12356883453E+02 -0.90446297113E+01  0.25170549002E+02  0.00000000000E+00 0.  1.
</event>
<event>
 4    1  0.1571930E+006  0.4100189E+02  0.7546771E-02  0.1342713E+00
         21   -1    0    0  504  501  0.00000000000E+00  0.00000000000E+00  0.11344049326E+04  0.11344049326E+04  0.00000000000E+00 0.  1.
         21   -1    0    0  503  502 -0.00000000000E+00 -0.00000000000E+00 -0.17380905695E+01  0.17380905695E+01  0.00000000000E+00 0. -1.
         21    1    1    2  503  501  0.40742389207E+02  0.46057521818E+01  0.34826731125E+03  0.35067260417E+03  0.00000000000E+00 0. -1.
         21    1    1    2  504  502 -0.40742389207E+02 -0.46057521818E+01  0.78439953075E+03  0.78547041897E+03  0.00000000000E+00 0.  1.
</event>
<event>
 4    1  0.1571930E+006  0.8771883E+02  0.7546771E-02  0.1186980E+00
         21   -1    0    0  503  501  0.00000000000E+00  0.00000000000E+00  0.59075387508E+02  0.59075387508E+02  0.00000000000E+00 0.  1.
         21   -1    0    0  501  502 -0.00000000000E+00 -0.00000000000E+00 -0.35046707824E+03  0.35046707824E+03  0.00000000000E+00 0. -1.
         21    1    1    2  503  504  0.47133219347E+02  0.73980078546E+02  0.16623559818E+02  0.89280093686E+02  0.00000000000E+00 0.  1.
         21    1    1    2  504  502 -0.47133219347E+02 -0.73980078546E+02 -0.30801525055E+03  0.32026237206E+03  0.00000000000E+00 0. -1.
</event>
<event>
 4    1  0.1571930E+006  0.2144519E+02  0.7546771E-02  0.1513003E+00
         21   -1    0    0  503  501  0.00000000000E+00  0.00000000000E+00  0.45050620674E+03  0.45050620674E+03  0.00000000000E+00 0. -1.
         21   -1    0    0  504  502 -0.00000000000E+00 -0.00000000000E+00 -0.12101363436E+01  0.12101363436E+01  0.00000000000E+00 0. -1.
         21    1    1    2  503  502  0.63329388143E+01 -0.20488775147E+02  0.13532025383E+03  0.13700900379E+03  0.00000000000E+00 0. -1.
         21    1    1    2  504  501 -0.63329388143E+01  0.20488775147E+02  0.31397581656E+03  0.31470733930E+03  0.00000000000E+00 0. -1.
</event>
<event>
 4    1  0.1571930E+006  0.2660579E+02  0.7546771E-02  0.1451609E+00
         21   -1    0    0  504  501  0.00000000000E+00  0.00000000000E+00  0.37738476047E+02  0.37738476047E+02  0.00000000000E+00 0.  1.
         21   -1    0    0  503  502 -0.00000000000E+00 -0.00000000000E+00 -0.62628154189E+02  0.62628154189E+02  0.00000000000E+00 0.  1.
         21    1    1    2  503  501 -0.61841310266E+01 -0.25877102089E+02  0.29556497899E+02  0.39767505040E+02  0.00000000000E+00 0.  1.
         21    1    1    2  504  502  0.61841310266E+01  0.25877102089E+02 -0.54446176040E+02  0.60599125196E+02  0.00000000000E+00 0.  1.
</event>
<event>
 4    1  0.1571930E+006  0.2644709E+02  0.7546771E-02  0.1453243E+00
         21   -1    0    0  504  501  0.00000000000E+00  0.00000000000E+00  0.45442930683E+03  0.45442930683E+03  0.00000000000E+00 0. -1.
         21   -1    0    0  503  502 -0.00000000000E+00 -0.00000000000E+00 -0.32944983389E+02  0.32944983389E+02  0.00000000000E+00 0. -1.
         21    1    1    2  503  501  0.32452088154E+01  0.26247236256E+02 -0.27184396871E+02  0.37926774508E+02  0.00000000000E+00 0. -1.
         21    1    1    2  504  502 -0.32452088154E+01 -0.26247236256E+02  0.44866872031E+03  0.44944751571E+03  0.00000000000E+00 0. -1.
</event>
<event>
 4    1  0.1571930E+006  0.3528678E+02  0.7546771E-02  0.1378558E+00
         21   -1    0    0  502  501  0.00000000000E+00  0.00000000000E+00  0.10211791388E+02  0.10211791388E+02  0.00000000000E+00 0.  1.
         21   -1    0    0  504  502 -0.00000000000E+00 -0.00000000000E+00 -0.21932334657E+03  0.21932334657E+03  0.00000000000E+00 0.  1.
         21    1    1    2  503  501  0.23480465126E+02 -0.26340545671E+02 -0.28078183092E+02  0.45094799640E+02  0.00000000000E+00 0.  1.
         21    1    1    2  504  503 -0.23480465126E+02  0.26340545671E+02 -0.18103337209E+03  0.18444033832E+03  0.00000000000E+00 0.  1.
</event>
<event>
 4    1  0.1571930E+006  0.2252359E+02  0.7546771E-02  0.1498569E+00
         21   -1    0    0  502  501  0.00000000000E+00  0.00000000000E+00  0.15635432303E+03  0.15635432303E+03  0.00000000000E+00 0.  1.
         21   -1    0    0  504  502 -0.00000000000E+00 -0.00000000000E+00 -0.33143161966E+01  0.33143161966E+01  0.00000000000E+00 0.  1.
         21    1    1    2  503  501 -0.20385399555E+02  0.95785057289E+01  0.88096012718E+02  0.90929751698E+02  0.00000000000E+00 0.  1.
         21    1    1    2  504  503  0.20385399555E+02 -0.95785057289E+01  0.64943994118E+02  0.68738887531E+02  0.00000000000E+00 0.  1.
</event>
<event>
 4    1  0.1571930E+006  0.2057352E+02  0.7546771E-02  0.1525442E+00
         21   -1    0    0  503  501  0.00000000000E+00  0.00000000000E+00  0.12901856634E+02  0.12901856634E+02  0.00000000000E+00 0. -1.
         21   -1    0    0  504  502 -0.00000000000E+00 -0.00000000000E+00 -0.13700754511E+03  0.13700754511E+03  0.00000000000E+00 0. -1.
         21    1    1    2  503  502  0.81350370834E+01 -0.18896844038E+02 -0.12742034758E+03  0.12907057961E+03  0.00000000000E+00 0. -1.
         21    1    1    2  504  501 -0.81350370834E+01  0.18896844038E+02  0.33146591062E+01  0.20838822134E+02  0.00000000000E+00 0. -1.
</event>
<event>
 4    1  0.1571930E+006  0.2152327E+02  0.7546771E-02  0.1511923E+00
         21   -1    0    0  502  501  0.00000000000E+00  0.00000000000E+00  0.29106993851E+02  0.29106993851E+02  0.00000000000E+00 0.  1.
         21   -1    0    0  503  502 -0.00000000000E+00 -0.00000000000E+00 -0.17980207783E+02  0.17980207783E+02  0.00000000000E+00 0.  1.
         21    1    1    2  503  504 -0.12927760688E+01  0.21484414751E+02 -0.24148725995E+01  0.21658323038E+02  0.00000000000E+00 0.  1.
         21    1    1    2  504  501  0.12927760688E+01 -0.21484414751E+02  0.13541658668E+02  0.25428878596E+02  0.00000000000E+00 0.  1.
</event>
<event>
 4    1  0.1571930E+006  0.2090313E+02  0.7546771E-02  0.1520652E+00
         21   -1    0    0  503  501  0.00000000000E+00  0.00000000000E+00  0.15057523099E+01  0.15057523099E+01  0.00000000000E+00 0.  1.
         21   -1    0    0  504  502 -0.00000000000E+00 -0.00000000000E+00 -0.29748412036E+03  0.29748412036E+03  0.00000000000E+00 0.  1.
         21    1    1    2  503  502 -0.10470864437E+02 -0.18091483477E+02 -0.17141245409E+03  0.17268228106E+03  0.00000000000E+00 0.  1.
         21    1    1    2  504  501  0.10470864437E+02  0.18091483477E+02 -0.12456591397E+03  0.12630759161E+03  0.00000000000E+00 0.  1.
</event>
<event>
 4    1  0.1571930E+006  0.2529417E+02  0.7546771E-02  0.1465539E+00
         21   -1    0    0  503  501  0.00000000000E+00  0.00000000000E+00  0.13451976126E+03  0.13451976126E+03  0.00000000000E+00 0. -1.
         21   -1    0    0  501  502 -0.00000000000E+00 -0.00000000000E+00 -0.51402778666E+03  0.51402778666E+03  0.00000000000E+00 0. -1.
         21    1    1    2  503  504 -0.97956542230E+01  0.23320386199E+02  0.13301607143E+03  0.13539966954E+03  0.00000000000E+00 0. -1.
         21    1    1    2  504  502  0.97956542230E+01 -0.23320386199E+02 -0.51252409683E+03  0.51314787838E+03  0.00000000000E+00 0. -1.
</event>
<event>
 4    1  0.1571930E+006  0.2349870E+02  0.7546771E-02  0.1486329E+00
         21   -1    0    0  503  501  0.00000000000E+00  0.00000000000E+00  0.92777031529E+01  0.92777031529E+01  0.00000000000E+00 0. -1.
         21   -1    0    0  504  502 -0.00000000000E+00 -0.00000000000E+00 -0.12773601342E+03  0.12773601342E+03  0.00000000000E+00 0. -1.
         21    1    1    2  503  502  0.18000037380E+02 -0.15105878056E+02 -0.10929336888E+03  0.11179100759E+03  0.00000000000E+00 0. -1.
         21    1    1    2  504  501 -0.18000037380E+02  0.15105878056E+02 -0.91649413833E+01  0.25222708976E+02  0.00000000000E+00 0. -1.
</event>
<event>
 4    1  0.1571930E+006  0.2001665E+02  0.7546771E-02  0.1533781E+00
         21   -1    0    0  504  501  0.00000000000E+00  0.00000000000E+00  0.26441982490E+03  0.26441982490E+03  0.00000000000E+00 0.  1.
         21   -1    0    0  503  502 -0.00000000000E+00 -0.00000000000E+00 -0.36495107576E+01  0.36495107576E+01  0.00000000000E+00 0.  1.
         21    1    1    2  503  501  0.53411474165E+00  0.20009527321E+02  0.23288469195E+03  0.23374333404E+03  0.00000000000E+00 0.  1.
         21    1    1    2  504  502 -0.53411474165E+00 -0.20009527321E+02  0.27885622190E+02  0.34326001618E+02  0.00000000000E+00 0.  1.
</event>
<event>
 4    1  0.1571930E+006  0.2603654E+02  0.7546771E-02  0.1457534E+00
         21   -1    0    0  504  501  0.00000000000E+00  0.00000000000E+00  0.54194500305E+00  0.54194500305E+00  0.00000000000E+00 0.  1.
         21   -1    0    0  501  502 -0.00000000000E+00 -0.00000000000E+00 -0.15232526244E+04  0.15232526244E+04  0.00000000000E+00 0.  1.
         21    1    1    2  503  502 -0.11127856790E+02  0.23538734703E+02 -0.43917251041E+03  0.43994362722E+03  0.00000000000E+00 0.  1.
         21    1    1    2  504  503  0.11127856790E+02 -0.23538734703E+02 -0.10835381690E+04  0.10838509422E+04  0.00000000000E+00 0.  1.
</event>
<event>
 4    1  0.1571930E+006  0.3018856E+02  0.7546771E-02  0.1417965E+00
         21   -1    0    0  504  501  0.00000000000E+00  0.00000000000E+00  0.17170676415E+02  0.17170676415E+02  0.00000000000E+00 0. -1.
         21   -1    0    0  503  502 -0.00000000000E+00 -0.00000000000E+00 -0.24588053146E+03  0.24588053146E+03  0.00000000000E+00 0.  1.
         21    1    1    2  503  501 -0.30093146904E+02 -0.23983115883E+01  0.21131603523E+01  0.30262432746E+02  0.00000000000E+00 0. -1.
         21    1    1    2  504  502  0.30093146904E+02  0.23983115883E+01 -0.23082301540E+03  0.23278877513E+03  0.00000000000E+00 0.  1.
</event>
<event>
 4    1  0.1571930E+006  0.7765696E+02  0.7546771E-02  0.1209394E+00
         21   -1    0    0  504  501  0.00000000000E+00  0.00000000000E+00  0.39120194352E+02  0.39120194352E+02  0.00000000000E+00 0.  1.
         21   -1    0    0  503  502 -0.00000000000E+00 -0.00000000000E+00 -0.15435648383E+03  0.15435648383E+03  0.00000000000E+00 0.  1.
         21    1    1    2  503  501  0.16245662236E+02  0.75938676908E+02 -0.54129869455E+02  0.94660693845E+02  0.00000000000E+00 0.  1.
         21    1    1    2  504  502 -0.16245662236E+02 -0.75938676908E+02 -0.61106420020E+02  0.98815984333E+02  0.00000000000E+00 0.  1.
</event>
<event>
 4    1  0.1571930E+006  0.2005387E+02  0.7546771E-02  0.1533214E+00
         21   -1    0    0  503  501  0.00000000000E+00  0.00000000000E+00  0.83087076226E+02  0.83087076226E+02  0.00000000000E+00 0. -1.
         21   -1    0    0  504  502 -0.00000000000E+00 -0.00000000000E+00 -0.48523060799E+01  0.48523060799E+01  0.00000000000E+00 0. -1.
         21    1    1    2  503  502  0.44441614118E+01 -0.19555234892E+02  0.41313941640E+02  0.45923845180E+02  0.00000000000E+00 0. -1.
         21    1    1    2  504  501 -0.44441614118E+01  0.19555234892E+02  0.36920828506E+02  0.42015537125E+02  0.00000000000E+00 0. -1.
</event>
<event>
 4    1  0.1571930E+006  0.2265969E+02  0.7546771E-02  0.1496816E+00
         21   -1    0    0  503  501  0.00000000000E+00  0.00000000000E+00  0.53631589313E+02  0.53631589313E+02  0.00000000000E+00 0.  1.
         21   -1    0    0  501  502 -0.00000000000E+00 -0.00000000000E+00 -0.69657294678E+02  0.69657294678E+02  0.00000000000E+00 0.  1.
         21    1    1    2  503  504 -0.15323482743E+02  0.16692882574E+02  0.49238795152E+02  0.54202586654E+02  0.00000000000E+00 0.  1.
         21    1    1    2  504  502  0.15323482743E+02 -0.16692882574E+02 -0.65264500517E+02  0.69086297337E+02  0.00000000000E+00 0.  1.
</event>
<event>
 4    1  0.1571930E+006  0.2817193E+02  0.7546771E-02  0.1436178E+00
         21   -1    0    0  504  501  0.00000000000E+00  0.00000000000E+00  0.10032828660E+03  0.10032828660E+03  0.00000000000E+00 0. -1.
         21   -1    0    0  503  502 -0.00000000000E+00 -0.00000000000E+00 -0.31223680594E+02  0.31223680594E+02  0.00000000000E+00 0.  1.
         21    1    1    2  503  501  0.65380444530E+01  0.27402766867E+02  0.91388507693E+02  0.95632196438E+02  0.00000000000E+00 0. -1.
         21    1    1    2  504  502 -0.65380444530E+01 -0.27402766867E+02 -0.22283901683E+02  0.35919770760E+02  0.00000000000E+00 0.  1.
</event>
<event>
 4    1  0.1571930E+006  0.2362703E+02  0.7546771E-02  0.1484771E+00
         21   -1    0    0  504  501  0.00000000000E+00  0.00000000000E+00  0.39964978278E+01  0.39964978278E+01  0.00000000000E+00 0. -1.
         21   -1    0    0  501  502 -0.00000000000E+00 -0.00000000000E+00 -0.16125968655E+03  0.16125968655E+03  0.00000000000E+00 0. -1.
         21    1    1    2  503  502  0.17267785587E+02 -0.16126373950E+02 -0.10885709050E+03  0.11139166265E+03  0.00000000000E+00 0. -1.
         21    1    1    2  504  503 -0.17267785587E+02  0.16126373950E+02 -0.48406098224E+02  0.53864521729E+02  0.00000000000E+00 0. -1.
</event>
<event>
 4    1  0.1571930E+006  0.2194845E+02  0.7546771E-02  0.1506142E+00
         21   -1    0    0  503  501  0.00000000000E+00  0.00000000000E+00  0.12592542588E+02  0.12592542588E+02  0.00000000000E+00 0.  1.
         21   -1    0    0  504  502 -0.00000000000E+00 -0.00000000000E+00 -0.30021044847E+03  0.30021044847E+03  0.00000000000E+00 0. -1.
         21    1    1    2  503  502  0.90755304976E+01  0.19984224174E+02  0.22880387111E+01  0.22067387493E+02  0.00000000000E+00 0.  1.
         21    1    1    2  504  501 -0.90755304976E+01 -0.19984224174E+02 -0.28990594459E+03  0.29073560356E+03  0.00000000000E+00 0. -1.
</event>
<event>
 4    1  0.1571930E+006  0.4595108E+02  0.7546771E-02  0.1316751E+00
         21   -1    0    0  503  501  0.00000000000E+00  0.00000000000E+00  0.13117248661E+03  0.13117248661E+03  0.00000000000E+00 0. -1.
         21   -1    0    0  504  502 -0.00000000000E+00 -0.00000000000E+00 -0.32112749847E+02  0.32112749847E+02  0.00000000000E+00 0.  1.
         21    1    1    2  503  502 -0.23188283667E+02  0.39671216535E+02 -0.81268488886E+01  0.46664200343E+02  0.00000000000E+00 0.  1.
         21    1    1    2  504  501  0.23188283667E+02 -0.39671216535E+02  0.10718658566E+03  0.11662103612E+03  0.00000000000E+00 0. -1.
</event>
<event>
 4    1  0.1571930E+006  0.2301595E+02  0.7546771E-02  0.1492298E+00
         21   -1    0    0  503  501  0.00000000000E+00  0.00000000000E+00  0.96847849419E+03  0.96847849419E+03  0.00000000000E+00 0. -1.
         21   -1    0    0  504  502 -0.00000000000E+00 -0.00000000000E+00 -0.12713814323E+01  0.12713814323E+01  0.00000000000E+00 0. -1.
         21    1    1    2  503  502  0.22301880389E+02 -0.56886103627E+01  0.84960496585E+03  0.84991666189E+03  0.00000000000E+00 0. -1.
         21    1    1    2  504  501 -0.22301880389E+02  0.56886103627E+01  0.11760214691E+03  0.11983321374E+03  0.00000000000E+00 0. -1.
</event>
<event>
 4    1  0.1571930E+006  0.2342943E+02  0.7546771E-02  0.1487175E+00
         21   -1    0    0  503  501  0.00000000000E+00  0.00000000000E+00  0.16590315472E+01  0.16590315472E+01  0.00000000000E+00 0. -1.
         21   -1    0    0  504  502 -0.00000000000E+00 -0.00000000000E+00 -0.47909425570E+03  0.47909425570E+03  0.00000000000E+00 0. -1.
         21    1    1    2  503  502 -0.18468689167E+01 -0.23356522008E+02 -0.10501840966E+03  0.10760020638E+03  0.00000000000E+00 0. -1.
         21    1    1    2  504  501  0.18468689167E+01  0.23356522008E+02 -0.37241681450E+03  0.37315308088E+03  0.00000000000E+00 0. -1.
</event>
<event>
 4    1  0.1571930E+006  0.2190911E+02  0.7546771E-02  0.1506670E+00
         21   -1    0    0  503  501  0.00000000000E+00  0.00000000000E+00  0.17632463864E+03  0.17632463864E+03  0.00000000000E+00 0.  1.
         21   -1    0    0  504  502 -0.00000000000E+00 -0.00000000000E+00 -0.13594487726E+03  0.13594487726E+03  0.00000000000E+00 0.  1.
         21    1    1    2  503  502  0.12518461515E+01  0.21873320773E+02  0.17475342917E+03  0.17612146459E+03  0.00000000000E+00 0.  1.
         21    1    1    2  504  501 -0.12518461515E+01 -0.21873320773E+02 -0.13437366779E+03  0.13614805132E+03  0.00000000000E+00 0.  1.
</event>
<event>
 4    1  0.1571930E+006  0.2843276E+02  0.7546771E-02  0.1433723E+00
         21   -1    0    0  503  501  0.00000000000E+00  0.00000000000E+00  0.32153313387E+03  0.32153313387E+03  0.00000000000E+00 0.  1.
         21   -1    0    0  504  502 -0.00000000000E+00 -0.00000000000E+00 -0.26580526372E+01  0.26580526372E+01  0.00000000000E+00 0.  1.
         21    1    1    2  503  502 -0.11253931197E+02 -0.26110746366E+02  0.12173780794E+03  0.12501406291E+03  0.00000000000E+00 0.  1.
         21    1    1    2  504  501  0.11253931197E+02  0.26110746366E+02  0.19713727329E+03  0.19917712360E+03  0.00000000000E+00 0.  1.
</event>
<event>
 4    1  0.1571930E+006  0.2143950E+02  0.7546771E-02  0.1513082E+00
         21   -1    0    0  503  501  0.00000000000E+00  0.00000000000E+00  0.24488509145E+01  0.24488509145E+01  0.00000000000E+00 0.  1.
         21   -1    0    0  504  502 -0.00000000000E+00 -0.00000000000E+00 -0.66820270874E+03  0.66820270874E+03  0.00000000000E+00 0.  1.
         21    1    1    2  503  502  0.11335133158E+01  0.21409513392E+02 -0.61723151099E+03  0.61760374859E+03  0.00000000000E+00 0.  1.
         21    1    1    2  504  501 -0.11335133158E+01 -0.21409513392E+02 -0.48522346838E+02  0.53047811065E+02  0.00000000000E+00 0.  1.
</event>
<event>
 4    1  0.1571930E+006  0.3711249E+02  0.7546771E-02  0.1366291E+00
         21   -1    0    0  504  501  0.00000000000E+00  0.00000000000E+00  0.43287310478E+02  0.43287310478E+02  0.00000000000E+00 0. -1.
         21   -1    0    0  503  502 -0.00000000000E+00 -0.00000000000E+00 -0.70715202666E+02  0.70715202666E+02  0.00000000000E+00 0. -1.
         21    1    1    2  503  501  0.22138727695E+02 -0.29786133117E+02  0.28561136667E+02  0.46830284194E+02  0.00000000000E+00 0. -1.
         21    1    1    2  504  502 -0.22138727695E+02  0.29786133117E+02 -0.55989028854E+02  0.67172228950E+02  0.00000000000E+00 0. -1.
</event>
<event>
 4    1  0.1571930E+006  0.2474336E+02  0.7546771E-02  0.1471695E+00
         21   -1    0    0  502  501  0.00000000000E+00  0.00000000000E+00  0.85401719527E+02  0.85401719527E+02  0.00000000000E+00 0.  1.
         21   -1    0    0  503  502 -0.00000000000E+00 -0.00000000000E+00 -0.75849970375E+01  0.75849970375E+01  0.00000000000E+00 0.  1.
         21    1    1    2  503  504 -0.24085108737E+02  0.56693475791E+01  0.28018425371E+02  0.37380023076E+02  0.00000000000E+00 0.  1.
         21    1    1    2  504  501  0.24085108737E+02 -0.56693475791E+01  0.49798297118E+02  0.55606693489E+02  0.00000000000E+00 0.  1.
</event>
<event>
 4    1  0.1571930E+006  0.2414898E+02  0.7546771E-02  0.1478553E+00
         21   -1    0    0  502  501  0.00000000000E+00  0.00000000000E+00  0.41819562499E+01  0.41819562499E+01  0.00000000000E+00 0. -1.
         21   -1    0    0  504  502 -0.00000000000E+00 -0.00000000000E+00 -0.72490949015E+03  0.72490949015E+03  0.00000000000E+00 0. -1.
         21    1    1    2  503  501 -0.15418723875E+02 -0.18585909150E+02 -0.32752669130E+02  0.40692878984E+02  0.00000000000E+00 0. -1.
         21    1    1    2  504  503  0.15418723875E+02  0.18585909150E+02 -0.68797486477E+03  0.68839856742E+03  0.00000000000E+00 0. -1.
</event>
<event>
 4    1  0.1571930E+006  0.2045751E+02  0.7546771E-02  0.1527153E+00
         21   -1    0    0  503  501  0.00000000000E+00  0.00000000000E+00  0.69718242555E+03  0.69718242555E+03  0.00000000000E+00 0.  1.
         21   -1    0    0  504  502 -0.00000000000E+00 -0.00000000000E+00 -0.14028372359E+03  0.14028372359E+03  0.00000000000E+00 0.  1.
         21    1    1    2  503  502  0.20237347885E+02  0.29932536804E+01  0.69628556577E+03  0.69658603124E+03  0.00000000000E+00 0.  1.
         21    1    1    2  504  501 -0.20237347885E+02 -0.29932536804E+01 -0.13938686381E+03  0.14088011790E+03  0.00000000000E+00 0.  1.
</event>
<event>
 4    1  0.1571930E+006  0.2032364E+02  0.7546771E-02  0.1529144E+00
         21   -1    0    0  504  501  0.00000000000E+00  0.00000000000E+00  0.12789688690E+01  0.12789688690E+01  0.00000000000E+00 0. -1.
         21   -1    0    0  503  502 -0.00000000000E+00 -0.00000000000E+00 -0.56115454404E+03  0.56115454404E+03  0.00000000000E+00 0.  1.
         21    1    1    2  503  501 -0.14826339323E+02 -0.13900719672E+02 -0.46315646157E+03  0.46360215512E+03  0.00000000000E+00 0.  1.
         21    1    1    2  504  502  0.14826339323E+02  0.13900719672E+02 -0.96719113599E+02  0.98831357779E+02  0.00000000000E+00 0. -1.
</event>
<event>
 4    1  0.1571930E+006  0.2328899E+02  0.7546771E-02  0.1488901E+00
         21   -1    0    0  503  501  0.00000000000E+00  0.00000000000E+00  0.42351906343E+03  0.42351906343E+03  0.00000000000E+00 0.  1.
         21   -1    0    0  504  502 -0.00000000000E+00 -0.00000000000E+00 -0.32903262394E+01  0.32903262394E+01  0.00000000000E+00 0.  1.
         21    1    1    2  503  502 -0.10125851717E+02  0.20972457231E+02  0.43332718636E+02  0.49194525505E+02  0.00000000000E+00 0.  1.
         21    1    1    2  504  501  0.10125851717E+02 -0.20972457231E+02  0.37689601856E+03  0.37761486417E+03  0.00000000000E+00 0.  1.
</event>
<event>
 4    1  0.1571930E+006  0.2621694E+02  0.7546771E-02  0.1455637E+00
         21   -1    0    0  504  501  0.00000000000E+00  0.00000000000E+00  0.20558655440E+03  0.20558655440E+03  0.00000000000E+00 0. -1.
         21   -1    0    0  503  502 -0.00000000000E+00 -0.00000000000E+00 -0.33757131953E+02  0.33757131953E+02  0.00000000000E+00 0. -1.
         21    1    1    2  503  501 -0.21625530504E+02 -0.14821072397E+02  0.19950602426E+03  0.20122122520E+03  0.00000000000E+00 0. -1.
         21    1    1    2  504  502  0.21625530504E+02  0.14821072397E+02 -0.27676601809E+02  0.38122461152E+02  0.00000000000E+00 0. -1.
</event>
<event>
 4    1  0.1571930E+006  0.2873430E+02  0.7546771E-02  0.1430924E+00
         21   -1    0    0  504  501  0.00000000000E+00  0.00000000000E+00  0.29352213335E+03  0.29352213335E+03  0.00000000000E+00 0.  1.
         21   -1    0    0  503  502 -0.00000000000E+00 -0.00000000000E+00 -0.14223193234E+02  0.14223193234E+02  0.00000000000E+00 0.  1.
         21    1    1    2  503  501  0.27420241140E+02  0.85901272628E+01  0.18300009407E+01  0.28792513159E+02  0.00000000000E+00 0.  1.
         21    1    1    2  504  502 -0.27420241140E+02 -0.85901272628E+01  0.27746893918E+03  0.27895281343E+03  0.00000000000E+00 0.  1.
</event>
<event>
 4    1  0.1571930E+006  0.2516719E+02  0.7546771E-02  0.1466942E+00
         21   -1    0    0  502  501  0.00000000000E+00  0.00000000000E+00  0.94998319312E+01  0.94998319312E+01  0.00000000000E+00 0. -1.
         21   -1    0    0  503  502 -0.00000000000E+00 -0.00000000000E+00 -0.14854134569E+04  0.14854134569E+04  0.00000000000E+00 0.  1.
         21    1    1    2  503  504  0.25102563408E+02  0.18023762764E+01 -0.14684458900E+04  0.14686615400E+04  0.00000000000E+00 0.  1.
         21    1    1    2  504  501 -0.25102563408E+02 -0.18023762764E+01 -0.74677349513E+01  0.26251748803E+02  0.00000000000E+00 0. -1.
</event>
<event>
 4    1  0.1571930E+006  0.2190653E+02  0.7546771E-02  0.1506705E+00
         21   -1    0    0  502  501  0.00000000000E+00  0.00000000000E+00  0.35197063493E+03  0.35197063493E+03  0.00000000000E+00 0. -1.
         21   -1    0    0  503  502 -0.00000000000E+00 -0.00000000000E+00 -0.57799595714E+02  0.57799595714E+02  0.00000000000E+00 0.  1.
         21    1    1    2  503  504  0.19896024219E+02  0.91675712201E+01 -0.55368620235E+02  0.59544775157E+02  0.00000000000E+00 0.  1.
         21    1    1    2  504  501 -0.19896024219E+02 -0.91675712201E+01  0.34953965945E+03  0.35022545549E+03  0.00000000000E+00 0. -1.
</event>
<event>
 4    1  0.1571930E+006  0.2084582E+02  0.7546771E-02  0.1521478E+00
         21   -1    0    0  502  501  0.00000000000E+00  0.00000000000E+00  0.16817937261E+02  0.16817937261E+02  0.00000000000E+00 0. -1.
         21   -1    0    0  503  502 -0.00000000000E+00 -0.00000000000E+00 -0.28513098588E+02  0.28513098588E+02  0.00000000000E+00 0.  1.
         21    1    1    2  503  504  0.95859898578E+01  0.18510996441E+02 -0.12789551608E+02  0.24456508768E+02  0.00000000000E+00 0.  1.
         21    1    1    2  504  501 -0.95859898578E+01 -0.18510996441E+02  0.10943902811E+01  0.20874527081E+02  0.00000000000E+00 0. -1.
</event>
<event>
 4    1  0.1571930E+006  0.2595557E+02  0.7546771E-02  0.1458391E+00
         21   -1    0    0  503  501  0.00000000000E+00  0.00000000000E+00  0.46335084415E+00  0.46335084415E+00  0.00000000000E+00 0. -1.
         21   -1    0    0  504  502 -0.00000000000E+00 -0.00000000000E+00 -0.14739550666E+04  0.14739550666E+04  0.00000000000E+00 0. -1.
         21    1    1    2  503  502  0.25813803637E+02 -0.27090890183E+01 -0.65087293053E+03  0.65139025424E+03  0.00000000000E+00 0. -1.
         21    1    1    2  504  501 -0.25813803637E+02  0.27090890183E+01 -0.82261878520E+03  0.82302816318E+03  0.00000000000E+00 0. -1.
</event>
<event>
 4    1  0.1571930E+006  0.2346893E+02  0.7546771E-02  0.1486692E+00
         21   -1    0    0  502  501  0.00000000000E+00  0.00000000000E+00  0.50898703773E+03  0.50898703773E+03  0.00000000000E+00 0. -1.
         21   -1    0    0  503  502 -0.00000000000E+00 -0.00000000000E+00 -0.60157070220E+01  0.60157070220E+01  0.00000000000E+00 0. -1.
         21    1    1    2  503  504  0.23230646838E+02 -0.33358555185E+01  0.18291810470E+02  0.29755356070E+02  0.00000000000E+00 0. -1.
         21    1    1    2  504  501 -0.23230646838E+02  0.33358555185E+01  0.48467952024E+03  0.48524738868E+03  0.00000000000E+00 0. -1.
</event>
<event>
 4    1  0.1571930E+006  0.2158765E+02  0.7546771E-02  0.1511038E+00
         21   -1    0    0  504  501  0.00000000000E+00  0.00000000000E+00  0.29629176828E+03  0.29629176828E+03  0.00000000000E+00 0.  1.
         21   -1    0    0  501  502 -0.00000000000E+00 -0.00000000000E+00 -0.38597739368E+01  0.38597739368E+01  0.00000000000E+00 0. -1.
         21    1    1    2  503  502 -0.67701155859E+01  0.20498584185E+02  0.30696775084E+02  0.37527568789E+02  0.00000000000E+00 0. -1.
         21    1    1    2  504  503  0.67701155859E+01 -0.20498584185E+02  0.26173521926E+03  0.26262397343E+03  0.00000000000E+00 0.  1.
</event>
<event>
 4    1  0.1571930E+006  0.2448386E+02  0.7546771E-02  0.1474661E+00
         21   -1    0    0  504  501  0.00000000000E+00  0.00000000000E+00  0.16317702747E+02  0.16317702747E+02  0.00000000000E+00 0.  1.
         21   -1    0    0  503  502 -0.00000000000E+00 -0.00000000000E+00 -0.38193036293E+02  0.38193036293E+02  0.00000000000E+00 0.  1.
         21    1    1    2  503  501  0.80647699000E+01  0.23117497359E+02 -0.16259789733E+02  0.29391154449E+02  0.00000000000E+00 0.  1.
         21    1    1    2  504  502 -0.80647699000E+01 -0.23117497359E+02 -0.56155438131E+01  0.25119584591E+02  0.00000000000E+00 0.  1.
</event>
<event>
 4    1  0.1571930E+006  0.6852121E+02  0.7546771E-02  0.1233340E+00
         21   -1    0    0  504  501  0.00000000000E+00  0.00000000000E+00  0.11884927867E+04  0.11884927867E+04  0.00000000000E+00 0.  1.
         21   -1    0    0  503  502 -0.00000000000E+00 -0.00000000000E+00 -0.40390242377E+01  0.40390242377E+01  0.00000000000E+00 0.  1.
         21    1    1    2  503  501  0.37452481628E+02 -0.57380026395E+02  0.68049457310E+03  0.68393568398E+03  0.00000000000E+00 0.  1.
         21    1    1    2  504  502 -0.37452481628E+02  0.57380026395E+02  0.50395918939E+03  0.50859612698E+03  0.00000000000E+00 0.  1.
</event>
<event>
 4    1  0.1571930E+006  0.2307709E+02  0.7546771E-02  0.1491532E+00
         21   -1    0    0  502  501  0.00000000000E+00  0.00000000000E+00  0.27794159754E+03  0.27794159754E+03  0.00000000000E+00 0.  1.
         21   -1    0    0  504  502 -0.00000000000E+00 -0.00000000000E+00 -0.27399093350E+01  0.27399093350E+01  0.00000000000E+00 0.  1.
         21    1    1    2  503  501  0.18977442428E+02 -0.13130447699E+02  0.21455646803E+03  0.21579395254E+03  0.00000000000E+00 0.  1.
         21    1    1    2  504  503 -0.18977442428E+02  0.13130447699E+02  0.60645220174E+02  0.64887554337E+02  0.00000000000E+00 0.  1.
</event>
<event>
 4    1  0.1571930E+006  0.2068489E+02  0.7546771E-02  0.1523812E+00
         21   -1    0    0  503  501  0.00000000000E+00  0.00000000000E+00  0.11237407154E+02  0.11237407154E+02  0.00000000000E+00 0.  1.
         21   -1    0    0  501  502 -0.00000000000E+00 -0.00000000000E+00 -0.50624483688E+02  0.50624483688E+02  0.00000000000E+00 0.  1.
         21    1    1    2  503  504 -0.18198465737E+02 -0.98326184116E+01 -0.42933717768E+01  0.21125756347E+02  0.00000000000E+00 0.  1.
         21    1    1    2  504  502  0.18198465737E+02  0.98326184116E+01 -0.35093704758E+02  0.40736134495E+02  0.00000000000E+00 0.  1.
</event>
<event>
 4    1  0.1571930E+006  0.2798634E+02  0.7546771E-02  0.1437944E+00
         21   -1    0    0  504  501  0.00000000000E+00  0.00000000000E+00  0.98239187924E+01  0.98239187924E+01  0.00000000000E+00 0. -1.
         21   -1    0    0  503  502 -0.00000000000E+00 -0.00000000000E+00 -0.24176961654E+03  0.24176961654E+03  0.00000000000E+00 0. -1.
         21    1    1    2  503  501  0.11530462356E+02 -0.25500658743E+02 -0.21895993151E+03  0.22074122127E+03  0.00000000000E+00 0. -1.
         21    1    1    2  504  502 -0.11530462356E+02  0.25500658743E+02 -0.12985766235E+02  0.30852314066E+02  0.00000000000E+00 0. -1.
</event>
<event>
 4    1  0.1571930E+006  0.2697216E+02  0.7546771E-02  0.1447888E+00
         21   -1    0    0  503  501  0.00000000000E+00  0.00000000000E+00  0.59629553767E+01  0.59629553767E+01  0.00000000000E+00 0. -1.
         21   -1    0    0  504  502 -0.00000000000E+00 -0.00000000000E+00 -0.15665682554E+03  0.15665682554E+03  0.00000000000E+00 0. -1.
         21    1    1    2  503  502  0.34044461047E+01 -0.26756437837E+02 -0.11358937522E+03  0.11674777677E+03  0.00000000000E+00 0. -1.
         21    1    1    2  504  501 -0.34044461047E+01  0.26756437837E+02 -0.37104494943E+02  0.45872004141E+02  0.00000000000E+00 0. -1.
</event>
<event>
 4    1  0.1571930E+006  0.2246637E+02  0.7546771E-02  0.1499310E+00
         21   -1    0    0  503  501  0.00000000000E+00  0.00000000000E+00  0.41090400402E+02  0.41090400402E+02  0.00000000000E+00 0. -1.
         21   -1    0    0  501  502 -0.00000000000E+00 -0.00000000000E+00 -0.11887049482E+03  0.11887049482E+03  0.00000000000E+00 0. -1.
         21    1    1    2  503  504 -0.21750704476E+02 -0.56253409824E+01  0.36845317610E+02  0.43154548267E+02  0.00000000000E+00 0. -1.
         21    1    1    2  504  502  0.21750704476E+02  0.56253409824E+01 -0.11462541202E+03  0.11680634695E+03  0.00000000000E+00 0. -1.
</event>
<event>
 4    1  0.1571930E+006  0.2252535E+02  0.7546771E-02  0.1498546E+00
         21   -1    0    0  504  501  0.00000000000E+00  0.00000000000E+00  0.13721418369E+03  0.13721418369E+03  0.00000000000E+00 0. -1.
         21   -1    0    0  503  502 -0.00000000000E+00 -0.00000000000E+00 -0.77383715955E+02  0.77383715955E+02  0.00000000000E+00 0.  1.
         21    1    1    2  503  501  0.22391683025E+02  0.24503056064E+01  0.13461914527E+03  0.13649068005E+03  0.00000000000E+00 0. -1.
         21    1    1    2  504  502 -0.22391683025E+02 -0.24503056064E+01 -0.74788677534E+02  0.78107219599E+02  0.00000000000E+00 0.  1.
</event>
<event>
 4    1  0.1571930E+006  0.4749214E+02  0.7546771E-02  0.1309428E+00
         21   -1    0    0  503  501  0.00000000000E+00  0.00000000000E+00  0.94468453156E+03  0.94468453156E+03  0.00000000000E+00 0.  1.
         21   -1    0    0  504  502 -0.00000000000E+00 -0.00000000000E+00 -0.28106447149E+01  0.28106447149E+01  0.00000000000E+00 0.  1.
         21    1    1    2  503  502  0.25083777703E+02 -0.40327507654E+02  0.65473916746E+03  0.65645935227E+03  0.00000000000E+00 0.  1.
         21    1    1    2  504  501 -0.25083777703E+02  0.40327507654E+02  0.28713471939E+03  0.29103582401E+03  0.00000000000E+00 0.  1.
</event>
<event>
 4    1  0.1571930E+006  0.2267894E+02  0.7546771E-02  0.1496570E+00
         21   -1    0    0  504  501  0.00000000000E+00  0.00000000000E+00  0.18599031800E+01  0.18599031800E+01  0.00000000000E+00 0. -1.
         21   -1    0    0  503  502 -0.00000000000E+00 -0.00000000000E+00 -0.30127361873E+03  0.30127361873E+03  0.00000000000E+00 0. -1.
         21    1    1    2  503  501 -0.22651927703E+02 -0.11066230314E+01 -0.10627761379E+03  0.10867044509E+03  0.00000000000E+00 0. -1.
         21    1    1    2  504  502  0.22651927703E+02  0.11066230314E+01 -0.19313610177E+03  0.19446307683E+03  0.00000000000E+00 0. -1.
</event>
<event>
 4    1  0.1571930E+006  0.2471760E+02  0.7546771E-02  0.1471987E+00
         21   -1    0    0  504  501  0.00000000000E+00  0.00000000000E+00  0.65753980414E+01  0.65753980414E+01  0.00000000000E+00 0. -1.
         21   -1    0    0  503  502 -0.00000000000E+00 -0.00000000000E+00 -0.21006695700E+03  0.21006695700E+03  0.00000000000E+00 0. -1.
         21    1    1    2  503  501  0.15525650933E+02  0.19233151034E+02 -0.20853448568E+02  0.32339237047E+02  0.00000000000E+00 0. -1.
         21    1    1    2  504  502 -0.15525650933E+02 -0.19233151034E+02 -0.18263811039E+03  0.18430311799E+03  0.00000000000E+00 0. -1.
</event>
<event>
 4    1  0.1571930E+006  0.2278478E+02  0.7546771E-02  0.1495219E+00
         21   -1    0    0  503  501  0.00000000000E+00  0.00000000000E+00  0.38262130805E+02  0.38262130805E+02  0.00000000000E+00 0. -1.
         21   -1    0    0  501  502 -0.00000000000E+00 -0.00000000000E+00 -0.19931466487E+02  0.19931466487E+02  0.00000000000E+00 0. -1.
         21    1    1    2  503  504 -0.14136495800E+02  0.17869120646E+02  0.25605931682E+02  0.34275497422E+02  0.00000000000E+00 0. -1.
         21    1    1    2  504  502  0.14136495800E+02 -0.17869120646E+02 -0.72752673639E+01  0.23918099870E+02  0.00000000000E+00 0. -1.
</event>
<event>
 4    1  0.1571930E+006  0.2257893E+02  0.7546771E-02  0.1497854E+00
         21   -1    0    0  503  501  0.00000000000E+00  0.00000000000E+00  0.28760634215E+02  0.28760634215E+02  0.00000000000E+00 0. -1.
         21   -1    0    0  501  502 -0.00000000000E+00 -0.00000000000E+00 -0.19300771277E+03  0.19300771277E+03  0.00000000000E+00 0.  1.
         21    1    1    2  503  504 -0.18691407118E+02  0.12666460091E+02  0.23546208031E+02  0.32622566176E+02  0.00000000000E+00 0. -1.
         21    1    1    2  504  502  0.18691407118E+02 -0.12666460091E+02 -0.18779328659E+03  0.18914578081E+03  0.00000000000E+00 0.  1.
</event>
<event>
 4    1  0.1571930E+006  0.2886119E+02  0.7546771E-02  0.1429758E+00
         21   -1    0    0  503  501  0.00000000000E+00  0.00000000000E+00  0.58028841315E+01  0.58028841315E+01  0.00000000000E+00 0.  1.
         21   -1    0    0  501  502 -0.00000000000E+00 -0.00000000000E+00 -0.34184310035E+03  0.34184310035E+03  0.00000000000E+00 0.  1.
         21    1    1    2  503  504 -0.28768299683E+02 -0.23136492936E+01 -0.35630345554E+02  0.45852912274E+02  0.00000000000E+00 0.  1.
         21    1    1    2  504  502  0.28768299683E+02  0.23136492936E+01 -0.30040987067E+03  0.30179307221E+03  0.00000000000E+00 0.  1.
</event>
<event>
 4    1  0.1571930E+006  0.2113956E+02  0.7546771E-02  0.1517282E+00
         21   -1    0    0  502  501  0.00000000000E+00  0.00000000000E+00  0.47508203881E+02  0.47508203881E+02  0.00000000000E+00 0. -1.
         21   -1    0    0  504  502 -0.00000000000E+00 -0.00000000000E+00 -0.21130534824E+03  0.21130534824E+03  0.00000000000E+00 0. -1.
         21    1    1    2  503  501  0.15281212175E+02 -0.14607030550E+02  0.44595102720E+02  0.49351838604E+02  0.00000000000E+00 0. -1.
         21    1    1    2  504  503 -0.15281212175E+02  0.14607030550E+02 -0.20839224707E+03  0.20946171351E+03  0.00000000000E+00 0. -1.
</event>
<event>
 4    1  0.1571930E+006  0.3428072E+02  0.7546771E-02  0.1385692E+00
         21   -1    0    0  503  501  0.00000000000E+00  0.00000000000E+00  0.60412689668E+02  0.60412689668E+02  0.00000000000E+00 0. -1.
         21   -1    0    0  501  502 -0.00000000000E+00 -0.00000000000E+00 -0.98867163840E+02  0.98867163840E+02  0.00000000000E+00 0. -1.
         21    1    1    2  503  504 -0.33490816672E+02  0.73166076330E+01  0.52149325825E+02  0.62407689691E+02  0.00000000000E+00 0. -1.
         21    1    1    2  504  502  0.33490816672E+02 -0.73166076330E+01 -0.90603799997E+02  0.96872163816E+02  0.00000000000E+00 0. -1.
</event>
<event>
 4    1  0.1571930E+006  0.4312478E+02  0.7546771E-02  0.1331087E+00
         21   -1    0    0  504  501  0.00000000000E+00  0.00000000000E+00  0.61425552062E+02  0.61425552062E+02  0.00000000000E+00 0.  1.
         21   -1    0    0  503  502 -0.00000000000E+00 -0.00000000000E+00 -0.81612846853E+02  0.81612846853E+02  0.00000000000E+00 0.  1.
         21    1    1    2  503  501 -0.98628760998E+01  0.41981786266E+02 -0.66816248553E+02  0.79524573396E+02  0.00000000000E+00 0.  1.
         21    1    1    2  504  502  0.98628760998E+01 -0.41981786266E+02  0.46628953762E+02  0.63513825519E+02  0.00000000000E+00 0.  1.
</event>
<event>
 4    1  0.1571930E+006  0.3233175E+02  0.7546771E-02  0.1400359E+00
         21   -1    0    0  502  501  0.00000000000E+00  0.00000000000E+00  0.56065011412E+03  0.56065011412E+03  0.00000000000E+00 0. -1.
         21   -1    0    0  504  502 -0.00000000000E+00 -0.00000000000E+00 -0.41281418962E+01  0.41281418962E+01  0.00000000000E+00 0. -1.
         21    1    1    2  503  501  0.14174504413E+02  0.29058997664E+02  0.48737004708E+03  0.48844130119E+03  0.00000000000E+00 0. -1.
         21    1    1    2  504  503 -0.14174504413E+02 -0.29058997664E+02  0.69151925148E+02  0.76336954827E+02  0.00000000000E+00 0. -1.
</event>
<event>
 4    1  0.1571930E+006  0.2181605E+02  0.7546771E-02  0.1507925E+00
         21   -1    0    0  503  501  0.00000000000E+00  0.00000000000E+00  0.10312051645E+02  0.10312051645E+02  0.00000000000E+00 0.  1.
         21   -1    0    0  504  502 -0.00000000000E+00 -0.00000000000E+00 -0.96916470148E+03  0.96916470148E+03  0.00000000000E+00 0.  1.
         21    1    1    2  503  502  0.20637953612E+02 -0.70721215289E+01 -0.95736124823E+03  0.95760978464E+03  0.00000000000E+00 0.  1.
         21    1    1    2  504  501 -0.20637953612E+02  0.70721215289E+01 -0.14914016135E+01  0.21866968491E+02  0.00000000000E+00 0.  1.
</event>
<event>
 4    1  0.1571930E+006  0.2003887E+02  0.7546771E-02  0.1533442E+00
         21   -1    0    0  504  501  0.00000000000E+00  0.00000000000E+00  0.15075300909E+02  0.15075300909E+02  0.00000000000E+00 0.  1.
         21   -1    0    0  501  502 -0.00000000000E+00 -0.00000000000E+00 -0.10563235135E+03  0.10563235135E+03  0.00000000000E+00 0.  1.
         21    1    1    2  503  502  0.48641988845E+01 -0.19439545692E+02 -0.97471002137E+02  0.99509560471E+02  0.00000000000E+00 0.  1.
         21    1    1    2  504  503 -0.48641988845E+01  0.19439545692E+02  0.69139516938E+01  0.21198091790E+02  0.00000000000E+00 0.  1.
</event>
<event>
 4    1  0.1571930E+006  0.2387816E+02  0.7546771E-02  0.1481756E+00
         21   -1    0    0  504  501  0.00000000000E+00  0.00000000000E+00  0.58484506927E+01  0.58484506927E+01  0.00000000000E+00 0.  1.
         21   -1    0    0  503  502 -0.00000000000E+00 -0.00000000000E+00 -0.11051064114E+03  0.11051064114E+03  0.00000000000E+00 0.  1.
         21    1    1    2  503  501  0.17951257022E+02  0.15745438141E+02 -0.72301259234E+02  0.76142225721E+02  0.00000000000E+00 0.  1.
         21    1    1    2  504  502 -0.17951257022E+02 -0.15745438141E+02 -0.32360931218E+02  0.40216866116E+02  0.00000000000E+00 0.  1.
</event>
<event>
 4    1  0.1571930E+006  0.2017566E+02  0.7546771E-02  0.1531367E+00
         21   -1    0    0  504  501  0.00000000000E+00  0.00000000000E+00  0.44785552958E+02  0.44785552958E+02  0.00000000000E+00 0. -1.
         21   -1    0    0  501  502 -0.00000000000E+00 -0.00000000000E+00 -0.11872612616E+02  0.11872612616E+02  0.00000000000E+00 0. -1.
         21    1    1    2  503  502 -0.18932982678E+02  0.69713174458E+01  0.27393906444E+01  0.20360779973E+02  0.00000000000E+00 0. -1.
         21    1    1    2  504  503  0.18932982678E+02 -0.69713174458E+01  0.30173549698E+02  0.36297385600E+02  0.00000000000E+00 0. -1.
</event>
<event>
 4    1  0.1571930E+006  0.3039756E+02  0.7546771E-02  0.1416172E+00
         21   -1    0    0  503  501  0.00000000000E+00  0.00000000000E+00  0.33437820529E+03  0.33437820529E+03  0.00000000000E+00 0. -1.
         21   -1    0    0  504  502 -0.00000000000E+00 -0.00000000000E+00 -0.33837255774E+02  0.33837255774E+02  0.00000000000E+00 0. -1.
         21    1    1    2  503  502  0.15846271862E+02 -0.25940457303E+02  0.32670038776E+03  0.32811149785E+03  0.00000000000E+00 0. -1.
         21    1    1    2  504  501 -0.15846271862E+02  0.25940457303E+02 -0.26159438240E+02  0.40103963221E+02  0.00000000000E+00 0. -1.
</event>
<event>
 4    1  0.1571930E+006  0.2792744E+02  0.7546771E-02  0.1438508E+00
         21   -1    0    0  504  501  0.00000000000E+00  0.00000000000E+00  0.12180996887E+02  0.12180996887E+02  0.00000000000E+00 0.  1.
         21   -1    0    0  503  502 -0.00000000000E+00 -0.00000000000E+00 -0.11354162945E+03  0.11354162945E+03  0.00000000000E+00 0. -1.
         21    1    1    2  503  501 -0.18552677832E+02 -0.20874394031E+02 -0.91694271379E+01  0.29394226898E+02  0.00000000000E+00 0.  1.
         21    1    1    2  504  502  0.18552677832E+02  0.20874394031E+02 -0.92191205428E+02  0.96328399442E+02  0.00000000000E+00 0. -1.
</event>
<event>
 4    1  0.1571930E+006  0.4810973E+02  0.7546771E-02  0.1306583E+00
         21   -1    0    0  504  501  0.00000000000E+00  0.00000000000E+00  0.84471864579E+01  0.84471864579E+01  0.00000000000E+00 0. -1.
         21   -1    0    0  503  502 -0.00000000000E+00 -0.00000000000E+00 -0.29431280254E+03  0.29431280254E+03  0.00000000000E+00 0. -1.
         21    1    1    2  503  501  0.13693723900E+02 -0.46119718558E+02 -0.18270016969E+03  0.18892828936E+03  0.00000000000E+00 0. -1.
         21    1    1    2  504  502 -0.13693723900E+02  0.46119718558E+02 -0.10316544639E+03  0.11383169964E+03  0.00000000000E+00 0. -1.
</event>
<event>
 4    1  0.1571930E+006  0.2267583E+02  0.7546771E-02  0.1496609E+00
         21   -1    0    0  502  501  0.00000000000E+00  0.00000000000E+00  0.30076744798E+03  0.30076744798E+03  0.00000000000E+00 0.  1.
         21   -1    0    0  503  502 -0.00000000000E+00 -0.00000000000E+00 -0.51153805320E+01  0.51153805320E+01  0.00000000000E+00 0. -1.
         21    1    1    2  503  504 -0.21336455884E+02  0.76778098048E+01  0.23031883475E+02  0.32321212377E+02  0.00000000000E+00 0. -1.
         21    1    1    2  504  501  0.21336455884E+02 -0.76778098048E+01  0.27262018398E+03  0.27356161614E+03  0.00000000000E+00 0.  1.
</event>
<event>
 4    1  0.1571930E+006  0.2385340E+02  0.7546771E-02  0.1482051E+00
         21   -1    0    0  503  501  0.00000000000E+00  0.00000000000E+00  0.79421915670E+01  0.79421915670E+01  0.00000000000E+00 0.  1.
         21   -1    0    0  504  502 -0.00000000000E+00 -0.00000000000E+00 -0.11470243853E+03  0.11470243853E+03  0.00000000000E+00 0.  1.
         21    1    1    2  503  502  0.62959551414E+01  0.23007509424E+02 -0.15806960480E+02  0.28615459819E+02  0.00000000000E+00 0.  1.
         21    1    1    2  504  501 -0.62959551414E+01 -0.23007509424E+02 -0.90953286481E+02  0.94029170276E+02  0.00000000000E+00 0.  1.
</event>
<event>
 4    1  0.1571930E+006  0.2108493E+02  0.7546771E-02  0.1518056E+00
         21   -1    0    0  502  501  0.00000000000E+00  0.00000000000E+00  0.42088202832E+01  0.42088202832E+01  0.00000000000E+00 0.  1.
         21   -1    0    0  504  502 -0.00000000000E+00 -0.00000000000E+00 -0.41247906266E+03  0.41247906266E+03  0.00000000000E+00 0.  1.
         21    1    1    2  503  501  0.11679891724E+02  0.17554332081E+02 -0.24437276995E+02  0.32276228906E+02  0.00000000000E+00 0.  1.
         21    1    1    2  504  503 -0.11679891724E+02 -0.17554332081E+02 -0.38383296538E+03  0.38441165404E+03  0.00000000000E+00 0.  1.
</event>
<event>
 4    1  0.1571930E+006  0.2872378E+02  0.7546771E-02  0.1431021E+00
         21   -1    0    0  504  501  0.00000000000E+00  0.00000000000E+00  0.32564457658E+03  0.32564457658E+03  0.00000000000E+00 0. -1.
         21   -1    0    0  501  502 -0.00000000000E+00 -0.00000000000E+00 -0.50620267855E+01  0.50620267855E+01  0.00000000000E+00 0. -1.
         21    1    1    2  503  502 -0.11843065707E+02 -0.26168636871E+02  0.43428783479E+02  0.52068368473E+02  0.00000000000E+00 0. -1.
         21    1    1    2  504  503  0.11843065707E+02  0.26168636871E+02  0.27715376631E+03  0.27863823489E+03  0.00000000000E+00 0. -1.
</event>
<event>
 4    1  0.1571930E+006  0.2298095E+02  0.7546771E-02  0.1492738E+00
         21   -1    0    0  502  501  0.00000000000E+00  0.00000000000E+00  0.13655042896E+01  0.13655042896E+01  0.00000000000E+00 0. -1.
         21   -1    0    0  504  502 -0.00000000000E+00 -0.00000000000E+00 -0.39285564312E+03  0.39285564312E+03  0.00000000000E+00 0. -1.
         21    1    1    2  503  501 -0.16223054296E+02  0.16276868148E+02 -0.17119434232E+03  0.17272992436E+03  0.00000000000E+00 0. -1.
         21    1    1    2  504  503  0.16223054296E+02 -0.16276868148E+02 -0.22029579651E+03  0.22149122305E+03  0.00000000000E+00 0. -1.
</event>
<event>
 4    1  0.1571930E+006  0.2570085E+02  0.7546771E-02  0.1461114E+00
         21   -1    0    0  504  501  0.00000000000E+00  0.00000000000E+00  0.68636576384E+02  0.68636576384E+02  0.00000000000E+00 0.  1.
         21   -1    0    0  503  502 -0.00000000000E+00 -0.00000000000E+00 -0.39921861666E+02  0.39921861666E+02  0.00000000000E+00 0.  1.
         21    1    1    2  503  501  0.25560677636E+02 -0.26805595021E+01  0.61643814166E+02  0.66786925857E+02  0.00000000000E+00 0.  1.
         21    1    1    2  504  502 -0.25560677636E+02  0.26805595021E+01 -0.32929099448E+02  0.41771512193E+02  0.00000000000E+00 0.  1.
</event>
<event>
 4    1  0.1571930E+006  0.2535452E+02  0.7546771E-02  0.1464876E+00
         21   -1    0    0  504  501  0.00000000000E+00  0.00000000000E+00  0.39895186891E+02  0.39895186891E+02  0.00000000000E+00 0.  1.
         21   -1    0    0  503  502 -0.00000000000E+00 -0.00000000000E+00 -0.50750471223E+02  0.50750471223E+02  0.00000000000E+00 0.  1.
         21    1    1    2  503  501  0.92952284763E+01  0.23589199157E+02  0.32015031066E+02  0.40838876129E+02  0.00000000000E+00 0.  1.
         21    1    1    2  504  502 -0.92952284763E+01 -0.23589199157E+02 -0.42870315398E+02  0.49806781984E+02  0.00000000000E+00 0.  1.
</event>
<event>
 4    1  0.1571930E+006  0.2579970E+02  0.7546771E-02  0.1460053E+00
         21   -1    0    0  504  501  0.00000000000E+00  0.00000000000E+00  0.36064976767E+02  0.36064976767E+02  0.00000000000E+00 0.  1.
         21   -1    0    0  503  502 -0.00000000000E+00 -0.00000000000E+00 -0.21473008441E+02  0.21473008441E+02  0.00000000000E+00 0.  1.
         21    1    1    2  503  501 -0.17086408830E+02 -0.19330777508E+02  0.18079199532E+02  0.31503678856E+02  0.00000000000E+00 0.  1.
         21    1    1    2  504  502  0.17086408830E+02  0.19330777508E+02 -0.34872312056E+01  0.26034306352E+02  0.00000000000E+00 0.  1.
</event>
<event>
 4    1  0.1571930E+006  0.3406172E+02  0.7546771E-02  0.1387282E+00
         21   -1    0    0  504  501  0.00000000000E+00  0.00000000000E+00  0.12263798071E+03  0.12263798071E+03  0.00000000000E+00 0.  1.
         21   -1    0    0  503  502 -0.00000000000E+00 -0.00000000000E+00 -0.94603719720E+01  0.94603719720E+01  0.00000000000E+00 0.  1.
         21    1    1    2  503  501  0.31511435823E+02  0.12931747688E+02  0.56618182235E+02  0.66074346349E+02  0.00000000000E+00 0.  1.
         21    1    1    2  504  502 -0.31511435823E+02 -0.12931747688E+02  0.56559426504E+02  0.66024006334E+02  0.00000000000E+00 0.  1.
</event>
<event>
 4    1  0.1571930E+006  0.2271670E+02  0.7546771E-02  0.1496086E+00
         21   -1    0    0  504  501  0.00000000000E+00  0.00000000000E+00  0.65039860468E+02  0.65039860468E+02  0.00000000000E+00 0.  1.
         21   -1    0    0  503  502 -0.00000000000E+00 -0.00000000000E+00 -0.54337976002E+03  0.54337976002E+03  0.00000000000E+00 0. -1.
         21    1    1    2  503  501  0.12261216395E+02 -0.19123576887E+02  0.62810681643E+02  0.66792442304E+02  0.00000000000E+00 0.  1.
         21    1    1    2  504  502 -0.12261216395E+02  0.19123576887E+02 -0.54115058120E+03  0.54162717819E+03  0.00000000000E+00 0. -1.
</event>
<event>
 4    1  0.1571930E+006  0.4205170E+02  0.7546771E-02  0.1336865E+00
         21   -1    0    0  502  501  0.00000000000E+00  0.00000000000E+00  0.59121713412E+02  0.59121713412E+02  0.00000000000E+00 0.  1.
         21   -1    0    0  504  502 -0.00000000000E+00 -0.00000000000E+00 -0.33862520016E+02  0.33862520016E+02  0.00000000000E+00 0.  1.
         21    1    1    2  503  501 -0.54567136178E+01  0.41696163870E+02  0.28512959287E+02  0.50806836668E+02  0.00000000000E+00 0.  1.
         21    1    1    2  504  503  0.54567136178E+01 -0.41696163870E+02 -0.32537658911E+01  0.42177396760E+02  0.00000000000E+00 0.  1.
</event>
<event>
 4    1  0.1571930E+006  0.2366496E+02  0.7546771E-02  0.1484313E+00
         21   -1    0    0  503  501  0.00000000000E+00  0.00000000000E+00  0.67787504080E+02  0.67787504080E+02  0.00000000000E+00 0.  1.
         21   -1    0    0  504  502 -0.00000000000E+00 -0.00000000000E+00 -0.12735000290E+02  0.12735000290E+02  0.00000000000E+00 0. -1.
         21    1    1    2  503  502  0.19637588316E+02 -0.13205887565E+02  0.36641466100E+01  0.23946947856E+02  0.00000000000E+00 0. -1.
         21    1    1    2  504  501 -0.19637588316E+02  0.13205887565E+02  0.51388357180E+02  0.56575556514E+02  0.00000000000E+00 0.  1.
</event>
<event>
 4    1  0.1571930E+006  0.2263025E+02  0.7546771E-02  0.1497194E+00
         21   -1    0    0  504  501  0.00000000000E+00  0.00000000000E+00  0.11594921551E+03  0.11594921551E+03  0.00000000000E+00 0.  1.
         21   -1    0    0  503  502 -0.00000000000E+00 -0.00000000000E+00 -0.89301690224E+02  0.89301690224E+02  0.00000000000E+00 0.  1.
         21    1    1    2  503  501 -0.16565658662E+02 -0.15417758027E+02  0.11337912259E+03  0.11561554285E+03  0.00000000000E+00 0.  1.
         21    1    1    2  504  502  0.16565658662E+02  0.15417758027E+02 -0.86731597300E+02  0.89635362886E+02  0.00000000000E+00 0.  1.
</event>
<event>
 4    1  0.1571930E+006  0.3307592E+02  0.7546771E-02  0.1394619E+00
         21   -1    0    0  502  501  0.00000000000E+00  0.00000000000E+00  0.49928098669E+02  0.49928098669E+02  0.00000000000E+00 0.  1.
         21   -1    0    0  503  502 -0.00000000000E+00 -0.00000000000E+00 -0.53816917655E+02  0.53816917655E+02  0.00000000000E+00 0. -1.
         21    1    1    2  503  504 -0.22321096239E+02 -0.24408708250E+02 -0.41884381753E+02  0.53369633787E+02  0.00000000000E+00 0. -1.
         21    1    1    2  504  501  0.22321096239E+02  0.24408708250E+02  0.37995562767E+02  0.50375382537E+02  0.00000000000E+00 0.  1.
</event>
<event>
 4    1  0.1571930E+006  0.2164545E+02  0.7546771E-02  0.1510246E+00
         21   -1    0    0  504  501  0.00000000000E+00  0.00000000000E+00  0.13710733457E+02  0.13710733457E+02  0.00000000000E+00 0.  1.
         21   -1    0    0  503  502 -0.00000000000E+00 -0.00000000000E+00 -0.57534545601E+03  0.57534545601E+03  0.00000000000E+00 0. -1.
         21    1    1    2  503  501 -0.87691410659E+01  0.19789585736E+02  0.48302250777E+01  0.22177840583E+02  0.00000000000E+00 0.  1.
         21    1    1    2  504  502  0.87691410659E+01 -0.19789585736E+02 -0.56646494763E+03  0.56687834889E+03  0.00000000000E+00 0. -1.
</event>
<event>
 4    1  0.1571930E+006  0.2577973E+02  0.7546771E-02  0.1460267E+00
         21   -1    0    0  503  501  0.00000000000E+00  0.00000000000E+00  0.71825698474E+01  0.71825698474E+01  0.00000000000E+00 0. -1.
         21   -1    0    0  504  502 -0.00000000000E+00 -0.00000000000E+00 -0.12347376449E+03  0.12347376449E+03  0.00000000000E+00 0. -1.
         21    1    1    2  503  502  0.63945930520E+00 -0.25771801183E+02 -0.25441056959E+02  0.36219359790E+02  0.00000000000E+00 0. -1.
         21    1    1    2  504  501 -0.63945930520E+00  0.25771801183E+02 -0.90850137687E+02  0.94436974550E+02  0.00000000000E+00 0. -1.
</event>
<event>
 4    1  0.1571930E+006  0.2364239E+02  0.7546771E-02  0.1484585E+00
         21   -1    0    0  503  501  0.00000000000E+00  0.00000000000E+00  0.21588145629E+03  0.21588145629E+03  0.00000000000E+00 0.  1.
         21   -1    0    0  504  502 -0.00000000000E+00 -0.00000000000E+00 -0.73013220652E+01  0.73013220652E+01  0.00000000000E+00 0.  1.
         21    1    1    2  503  502  0.13208531138E+02  0.19608598053E+02  0.14642658711E+02  0.27809528341E+02  0.00000000000E+00 0.  1.
         21    1    1    2  504  501 -0.13208531138E+02 -0.19608598053E+02  0.19393747552E+03  0.19537325002E+03  0.00000000000E+00 0.  1.
</event>
<event>
 4    1  0.1571930E+006  0.2311608E+02  0.7546771E-02  0.1491046E+00
         21   -1    0    0  504  501  0.00000000000E+00  0.00000000000E+00  0.21881615083E+02  0.21881615083E+02  0.00000000000E+00 0. -1.
         21   -1    0    0  501  502 -0.00000000000E+00 -0.00000000000E+00 -0.27184016640E+02  0.27184016640E+02  0.00000000000E+00 0. -1.
         21    1    1    2  503  502 -0.16505687097E+02 -0.16183807537E+02 -0.10473699476E+02  0.25378173963E+02  0.00000000000E+00 0. -1.
         21    1    1    2  504  503  0.16505687097E+02  0.16183807537E+02  0.51712979194E+01  0.23687457760E+02  0.00000000000E+00 0. -1.
</event>
<event>
 4    1  0.1571930E+006  0.2078106E+02  0.7546771E-02  0.1522414E+00
         21   -1    0    0  504  501  0.00000000000E+00  0.00000000000E+00  0.50513160678E+01  0.50513160678E+01  0.00000000000E+00 0. -1.
         21   -1    0    0  503  502 -0.00000000000E+00 -0.00000000000E+00 -0.88743264255E+02  0.88743264255E+02  0.00000000000E+00 0. -1.
         21    1    1    2  503  501 -0.93639732690E+01  0.18551772887E+02 -0.50821046396E+02  0.54905655714E+02  0.00000000000E+00 0. -1.
         21    1    1    2  504  502  0.93639732690E+01 -0.18551772887E+02 -0.32870901791E+02  0.38888924609E+02  0.00000000000E+00 0. -1.
</event>
<event>
 4    1  0.1571930E+006  0.2656434E+02  0.7546771E-02  0.1452034E+00
         21   -1    0    0  503  501  0.00000000000E+00  0.00000000000E+00  0.10807288956E+03  0.10807288956E+03  0.00000000000E+00 0.  1.
         21   -1    0    0  504  502 -0.00000000000E+00 -0.00000000000E+00 -0.14783163034E+02  0.14783163034E+02  0.00000000000E+00 0.  1.
         21    1    1    2  503  502  0.23697577607E+02 -0.12003698436E+02  0.92544130433E+02  0.96281254864E+02  0.00000000000E+00 0.  1.
         21    1    1    2  504  501 -0.23697577607E+02  0.12003698436E+02  0.74559608818E+00  0.26574797725E+02  0.00000000000E+00 0.  1.
</event>
<event>
 4    1  0.1571930E+006  0.2739575E+02  0.7546771E-02  0.1443673E+00
         21   -1    0    0  503  501  0.00000000000E+00  0.00000000000E+00  0.13080762937E+04  0.13080762937E+04  0.00000000000E+00 0. -1.
         21   -1    0    0  501  502 -0.00000000000E+00 -0.00000000000E+00 -0.88982643967E+00  0.88982643967E+00  0.00000000000E+00 0. -1.
         21    1    1    2  503  504  0.26089200205E+02  0.83594598525E+01  0.10436540094E+04  0.10440135145E+04  0.00000000000E+00 0. -1.
         21    1    1    2  504  502 -0.26089200205E+02 -0.83594598525E+01  0.26353245784E+03  0.26495260571E+03  0.00000000000E+00 0. -1.
</event>
<event>
 4    1  0.1571930E+006  0.2055887E+02  0.7546771E-02  0.1525657E+00
         21   -1    0    0  504  501  0.00000000000E+00  0.00000000000E+00  0.15560889477E+03  0.15560889477E+03  0.00000000000E+00 0. -1.
         21   -1    0    0  503  502 -0.00000000000E+00 -0.00000000000E+00 -0.27266936198E+03  0.27266936198E+03  0.00000000000E+00 0. -1.
         21    1    1    2  503  501 -0.17149007088E+01  0.20487221690E+02 -0.27160011167E+03  0.27237710586E+03  0.00000000000E+00 0. -1.
         21    1    1    2  504  502  0.17149007088E+01 -0.20487221690E+02  0.15453964446E+03  0.15590115089E+03  0.00000000000E+00 0. -1.
</event>
<event>
 4    1  0.1571930E+006  0.4705347E+02  0.7546771E-02  0.1311479E+00
         21   -1    0    0  503  501  0.00000000000E+00  0.00000000000E+00  0.32284474785E+01  0.32284474785E+01  0.00000000000E+00 0.  1.
         21   -1    0    0  504  502 -0.00000000000E+00 -0.00000000000E+00 -0.91839953414E+03  0.91839953414E+03  0.00000000000E+00 0. -1.
         21    1    1    2  503  502 -0.22356293041E+02  0.41403203839E+02 -0.22567213415E+03  0.23052535925E+03  0.00000000000E+00 0.  1.
         21    1    1    2  504  501  0.22356293041E+02 -0.41403203839E+02 -0.68949895251E+03  0.69110262237E+03  0.00000000000E+00 0. -1.
</event>
<event>
 4    1  0.1571930E+006  0.2346891E+02  0.7546771E-02  0.1486693E+00
         21   -1    0    0  502  501  0.00000000000E+00  0.00000000000E+00  0.90826073749E+01  0.90826073749E+01  0.00000000000E+00 0. -1.
         21   -1    0    0  503  502 -0.00000000000E+00 -0.00000000000E+00 -0.99226916074E+02  0.99226916074E+02  0.00000000000E+00 0. -1.
         21    1    1    2  503  504  0.16523576128E+02  0.16666163726E+02 -0.78842023515E+02  0.82260891397E+02  0.00000000000E+00 0. -1.
         21    1    1    2  504  501 -0.16523576128E+02 -0.16666163726E+02 -0.11302285184E+02  0.26048632052E+02  0.00000000000E+00 0. -1.
</event>
<event>
 4    1  0.1571930E+006  0.2106450E+02  0.7546771E-02  0.1518346E+00
         21   -1    0    0  504  501  0.00000000000E+00  0.00000000000E+00  0.21331387655E+03  0.21331387655E+03  0.00000000000E+00 0. -1.
         21   -1    0    0  503  502 -0.00000000000E+00 -0.00000000000E+00 -0.74544228203E+01  0.74544228203E+01  0.00000000000E+00 0. -1.
         21    1    1    2  503  501 -0.84028181666E+01 -0.19315944492E+02  0.92033575445E+01  0.22987275934E+02  0.00000000000E+00 0. -1.
         21    1    1    2  504  502  0.84028181666E+01  0.19315944492E+02  0.19665609619E+03  0.19778102344E+03  0.00000000000E+00 0. -1.
</event>
<event>
 4    1  0.1571930E+006  0.2110496E+02  0.7546771E-02  0.1517771E+00
         21   -1    0    0  503  501  0.00000000000E+00  0.00000000000E+00  0.66220061550E+01  0.66220061550E+01  0.00000000000E+00 0.  1.
         21   -1    0    0  504  502 -0.00000000000E+00 -0.00000000000E+00 -0.77567268215E+03  0.77567268215E+03  0.00000000000E+00 0.  1.
         21    1    1    2  503  502  0.87248742901E+00 -0.21086920485E+02 -0.10721959824E+02  0.23672344039E+02  0.00000000000E+00 0.  1.
         21    1    1    2  504  501 -0.87248742901E+00  0.21086920485E+02 -0.75832871617E+03  0.75862234426E+03  0.00000000000E+00 0.  1.
</event>
<event>
 4    1  0.1571930E+006  0.2031020E+02  0.7546771E-02  0.1529345E+00
         21   -1    0    0  502  501  0.00000000000E+00  0.00000000000E+00  0.64088589539E+03  0.64088589539E+03  0.00000000000E+00 0.  1.
         21   -1    0    0  504  502 -0.00000000000E+00 -0.00000000000E+00 -0.10796106766E+01  0.10796106766E+01  0.00000000000E+00 0.  1.
         21    1    1    2  503  501 -0.20132999201E+02 -0.26770722618E+01  0.52387638328E+03  0.52426993937E+03  0.00000000000E+00 0.  1.
         21    1    1    2  504  503  0.20132999201E+02  0.26770722618E+01  0.11592990143E+03  0.11769556669E+03  0.00000000000E+00 0.  1.
</event>
<event>
 4    1  0.1571930E+006  0.2293558E+02  0.7546771E-02  0.1493309E+00
         21   -1    0    0  503  501  0.00000000000E+00  0.00000000000E+00  0.15588858784E+02  0.15588858784E+02  0.00000000000E+00 0. -1.
         21   -1    0    0  504  502 -0.00000000000E+00 -0.00000000000E+00 -0.79067419777E+02  0.79067419777E+02  0.00000000000E+00 0. -1.
         21    1    1    2  503  502  0.10046349979E+02 -0.20618240909E+02 -0.67571914905E+02  0.71358283962E+02  0.00000000000E+00 0. -1.
         21    1    1    2  504  501 -0.10046349979E+02  0.20618240909E+02  0.40933539119E+01  0.23297994599E+02  0.00000000000E+00 0. -1.
</event>
<event>
 4    1  0.1571930E+006  0.2178954E+02  0.7546771E-02  0.1508284E+00
         21   -1    0    0  503  501  0.00000000000E+00  0.00000000000E+00  0.50453346364E+01  0.50453346364E+01  0.00000000000E+00 0. -1.
         21   -1    0    0  501  502 -0.00000000000E+00 -0.00000000000E+00 -0.16921815107E+03  0.16921815107E+03  0.00000000000E+00 0. -1.
         21    1    1    2  503  504  0.10260304997E+02 -0.19222647890E+02 -0.24034697186E+02  0.32441496873E+02  0.00000000000E+00 0. -1.
         21    1    1    2  504  502 -0.10260304997E+02  0.19222647890E+02 -0.14013811924E+03  0.14182198883E+03  0.00000000000E+00 0. -1.
</event>
<event>
 4    1  0.1571930E+006  0.2237562E+02  0.7546771E-02  0.1500491E+00
         21   -1    0    0  504  501  0.00000000000E+00  0.00000000000E+00  0.57717383698E+02  0.57717383698E+02  0.00000000000E+00 0.  1.
         21   -1    0    0  503  502 -0.00000000000E+00 -0.00000000000E+00 -0.10707179239E+02  0.10707179239E+02  0.00000000000E+00 0. -1.
         21    1    1    2  503  501 -0.16542898183E+02 -0.15066545073E+02  0.85984157492E+01  0.23970836742E+02  0.00000000000E+00 0. -1.
         21    1    1    2  504  502  0.16542898183E+02  0.15066545073E+02  0.38411788710E+02  0.44453726195E+02  0.00000000000E+00 0.  1.
</event>
<event>
 4    1  0.1571930E+006  0.3419329E+02  0.7546771E-02  0.1386325E+00
         21   -1    0    0  503  501  0.00000000000E+00  0.00000000000E+00  0.30767238413E+02  0.30767238413E+02  0.00000000000E+00 0.  1.
         21   -1    0    0  501  502 -0.00000000000E+00 -0.00000000000E+00 -0.41827882877E+02  0.41827882877E+02  0.00000000000E+00 0.  1.
         21    1    1    2  503  504  0.10540540009E+02  0.32528108861E+02  0.54490184751E+01  0.34624740463E+02  0.00000000000E+00 0.  1.
         21    1    1    2  504  502 -0.10540540009E+02 -0.32528108861E+02 -0.16509662939E+02  0.37970380827E+02  0.00000000000E+00 0.  1.
</event>
<event>
 4    1  0.1571930E+006  0.2408818E+02  0.7546771E-02  0.1479268E+00
         21   -1    0    0  503  501  0.00000000000E+00  0.00000000000E+00  0.60743501747E+02  0.60743501747E+02  0.00000000000E+00 0. -1.
         21   -1    0    0  504  502 -0.00000000000E+00 -0.00000000000E+00 -0.19103557711E+03  0.19103557711E+03  0.00000000000E+00 0. -1.
         21    1    1    2  503  502  0.65607848716E+00  0.24079239398E+02  0.57555730923E+02  0.62393127595E+02  0.00000000000E+00 0. -1.
         21    1    1    2  504  501 -0.65607848716E+00 -0.24079239398E+02 -0.18784780628E+03  0.18938595126E+03  0.00000000000E+00 0. -1.
</event>
<event>
 4    1  0.1571930E+006  0.3268160E+02  0.7546771E-02  0.1397638E+00
         21   -1    0    0  502  501  0.00000000000E+00  0.00000000000E+00  0.51567031572E+02  0.51567031572E+02  0.00000000000E+00 0.  1.
         21   -1    0    0  504  502 -0.00000000000E+00 -0.00000000000E+00 -0.11376520853E+03  0.11376520853E+03  0.00000000000E+00 0. -1.
         21    1    1    2  503  501  0.32614105234E+02 -0.20993846694E+01  0.43663976589E+02  0.54540169854E+02  0.00000000000E+00 0.  1.
         21    1    1    2  504  503 -0.32614105234E+02  0.20993846694E+01 -0.10586215355E+03  0.11079207025E+03  0.00000000000E+00 0. -1.
</event>
<event>
 4    1  0.1571930E+006  0.2540833E+02  0.7546771E-02  0.1464287E+00
         21   -1    0    0  504  501  0.00000000000E+00  0.00000000000E+00  0.15322629680E+03  0.15322629680E+03  0.00000000000E+00 0.  1.
         21   -1    0    0  501  502 -0.00000000000E+00 -0.00000000000E+00 -0.24546131395E+02  0.24546131395E+02  0.00000000000E+00 0. -1.
         21    1    1    2  503  502  0.17387534325E+02  0.18527197079E+02 -0.16558731884E+02  0.30327792256E+02  0.00000000000E+00 0. -1.
         21    1    1    2  504  503 -0.17387534325E+02 -0.18527197079E+02  0.14523889729E+03  0.14744463594E+03  0.00000000000E+00 0.  1.
</event>
<event>
 4    1  0.1571930E+006  0.2618749E+02  0.7546771E-02  0.1455945E+00
         21   -1    0    0  503  501  0.00000000000E+00  0.00000000000E+00  0.88738778411E+02  0.88738778411E+02  0.00000000000E+00 0. -1.
         21   -1    0    0  501  502 -0.00000000000E+00 -0.00000000000E+00 -0.10754619098E+02  0.10754619098E+02  0.00000000000E+00 0. -1.
         21    1    1    2  503  504 -0.21543757690E+02 -0.14887958858E+02  0.65381892307E+02  0.70431361310E+02  0.00000000000E+00 0. -1.
         21    1    1    2  504  502  0.21543757690E+02  0.14887958858E+02  0.12602267007E+02  0.29062036200E+02  0.00000000000E+00 0. -1.
</event>
<event>
 4    1  0.1571930E+006  0.4556702E+02  0.7546771E-02  0.1318628E+00
         21   -1    0    0  503  501  0.00000000000E+00  0.00000000000E+00  0.21522292811E+03  0.21522292811E+03  0.00000000000E+00 0. -1.
         21   -1    0    0  504  502 -0.00000000000E+00 -0.00000000000E+00 -0.92419196380E+02  0.92419196380E+02  0.00000000000E+00 0. -1.
         21    1    1    2  503  502  0.45402682657E+02  0.38664680853E+01 -0.84169434836E+02  0.95712313359E+02  0.00000000000E+00 0. -1.
         21    1    1    2  504  501 -0.45402682657E+02 -0.38664680853E+01  0.20697316657E+03  0.21192981113E+03  0.00000000000E+00 0. -1.
</event>
<event>
 4    1  0.1571930E+006  0.2645520E+02  0.7546771E-02  0.1453159E+00
         21   -1    0    0  503  501  0.00000000000E+00  0.00000000000E+00  0.92430977756E+01  0.92430977756E+01  0.00000000000E+00 0.  1.
         21   -1    0    0  501  502 -0.00000000000E+00 -0.00000000000E+00 -0.21696707287E+03  0.21696707287E+03  0.00000000000E+00 0.  1.
         21    1    1    2  503  504 -0.25175615821E+02  0.81280999222E+01 -0.12602807533E+02  0.29303726692E+02  0.00000000000E+00 0.  1.
         21    1    1    2  504  502  0.25175615821E+02 -0.81280999222E+01 -0.19512116756E+03  0.19690644395E+03  0.00000000000E+00 0.  1.
</event>
<event>
 4    1  0.1571930E+006  0.2334243E+02  0.7546771E-02  0.1488242E+00
         21   -1    0    0  502  501  0.00000000000E+00  0.00000000000E+00  0.75470843198E+00  0.75470843198E+00  0.00000000000E+00 0.  1.
         21   -1    0    0  504  502 -0.00000000000E+00 -0.00000000000E+00 -0.86386395263E+03  0.86386395263E+03  0.00000000000E+00 0.  1.
         21    1    1    2  503  501  0.22744807651E+02 -0.52481394884E+01 -0.25634042474E+03  0.25740101515E+03  0.00000000000E+00 0.  1.
         21    1    1    2  504  503 -0.22744807651E+02  0.52481394884E+01 -0.60676881946E+03  0.60721764592E+03  0.00000000000E+00 0.  1.
</event>
<event>
 4    1  0.1571930E+006  0.2308932E+02  0.7546771E-02  0.1491380E+00
         21   -1    0    0  503  501  0.00000000000E+00  0.00000000000E+00  0.30511291467E+03  0.30511291467E+03  0.00000000000E+00 0. -1.
         21   -1    0    0  501  502 -0.00000000000E+00 -0.00000000000E+00 -0.21878652181E+01  0.21878652181E+01  0.00000000000E+00 0. -1.
         21    1    1    2  503  504 -0.21616893937E+02 -0.81133548718E+01  0.22041344430E+03  0.22161950063E+03  0.00000000000E+00 0. -1.
         21    1    1    2  504  502  0.21616893937E+02  0.81133548718E+01  0.82511605155E+02  0.85681279262E+02  0.00000000000E+00 0. -1.
</event>
<event>
 4    1  0.1571930E+006  0.2281992E+02  0.7546771E-02  0.1494772E+00
         21   -1    0    0  504  501  0.00000000000E+00  0.00000000000E+00  0.15307764516E+01  0.15307764516E+01  0.00000000000E+00 0.  1.
         21   -1    0    0  503  502 -0.00000000000E+00 -0.00000000000E+00 -0.35507639233E+03  0.35507639233E+03  0.00000000000E+00 0.  1.
         21    1    1    2  503  501 -0.15643892971E+02  0.16613765027E+02 -0.14025929648E+03  0.14210354966E+03  0.00000000000E+00 0.  1.
         21    1    1    2  504  502  0.15643892971E+02 -0.16613765027E+02 -0.21328631940E+03  0.21450361912E+03  0.00000000000E+00 0.  1.
</event>
<event>
 4    1  0.1571930E+006  0.2317189E+02  0.7546771E-02  0.1490351E+00
         21   -1    0    0  503  501  0.00000000000E+00  0.00000000000E+00  0.40148910220E+02  0.40148910220E+02  0.00000000000E+00 0. -1.
         21   -1    0    0  501  502 -0.00000000000E+00 -0.00000000000E+00 -0.21223742853E+02  0.21223742853E+02  0.00000000000E+00 0. -1.
         21    1    1    2  503  504 -0.53811947925E+00  0.23165638489E+02  0.28125180132E+02  0.36441214807E+02  0.00000000000E+00 0. -1.
         21    1    1    2  504  502  0.53811947925E+00 -0.23165638489E+02 -0.92000127649E+01  0.24931438266E+02  0.00000000000E+00 0. -1.
</event>
<event>
 4    1  0.1571930E+006  0.2273718E+02  0.7546771E-02  0.1495825E+00
         21   -1    0    0  503  501  0.00000000000E+00  0.00000000000E+00  0.17773675837E+03  0.17773675837E+03  0.00000000000E+00 0. -1.
         21   -1    0    0  504  502 -0.00000000000E+00 -0.00000000000E+00 -0.23035570819E+02  0.23035570819E+02  0.00000000000E+00 0. -1.
         21    1    1    2  503  502  0.11080338237E+02 -0.19854612241E+02  0.17118512907E+03  0.17268852868E+03  0.00000000000E+00 0. -1.
         21    1    1    2  504  501 -0.11080338237E+02  0.19854612241E+02 -0.16483941524E+02  0.28083800506E+02  0.00000000000E+00 0. -1.
</event>
<event>
 4    1  0.1571930E+006  0.2527286E+02  0.7546771E-02  0.1465774E+00
         21   -1    0    0  503  501  0.00000000000E+00  0.00000000000E+00  0.49393246367E+02  0.49393246367E+02  0.00000000000E+00 0.  1.
         21   -1    0    0  501  502 -0.00000000000E+00 -0.00000000000E+00 -0.15183889177E+02  0.15183889177E+02  0.00000000000E+00 0.  1.
         21    1    1    2  503  504  0.18339158792E+02 -0.17389436512E+02  0.29541272822E+02  0.38876780311E+02  0.00000000000E+00 0.  1.
         21    1    1    2  504  502 -0.18339158792E+02  0.17389436512E+02  0.46680843682E+01  0.25700355232E+02  0.00000000000E+00 0.  1.
</event>
<event>
 4    1  0.1571930E+006  0.2353999E+02  0.7546771E-02  0.1485827E+00
         21   -1    0    0  503  501  0.00000000000E+00  0.00000000000E+00  0.11287967732E+03  0.11287967732E+03  0.00000000000E+00 0. -1.
         21   -1    0    0  504  502 -0.00000000000E+00 -0.00000000000E+00 -0.60308237690E+03  0.60308237690E+03  0.00000000000E+00 0. -1.
         21    1    1    2  503  502  0.13106803282E+02 -0.19553590873E+02 -0.60162243116E+03  0.60208278574E+03  0.00000000000E+00 0. -1.
         21    1    1    2  504  501 -0.13106803282E+02  0.19553590873E+02  0.11141973157E+03  0.11387926849E+03  0.00000000000E+00 0. -1.
</event>
<event>
 4    1  0.1571930E+006  0.2686015E+02  0.7546771E-02  0.1449018E+00
         21   -1    0    0  503  501  0.00000000000E+00  0.00000000000E+00  0.58863250959E+02  0.58863250959E+02  0.00000000000E+00 0.  1.
         21   -1    0    0  501  502 -0.00000000000E+00 -0.00000000000E+00 -0.12303502910E+02  0.12303502910E+02  0.00000000000E+00 0.  1.
         21    1    1    2  503  504 -0.24535649432E+02 -0.10930216363E+02  0.25475135405E+02  0.37019592741E+02  0.00000000000E+00 0.  1.
         21    1    1    2  504  502  0.24535649432E+02  0.10930216363E+02  0.21084612644E+02  0.34147161129E+02  0.00000000000E+00 0.  1.
</event>
<event>
 4    1  0.1571930E+006  0.3719712E+02  0.7546771E-02  0.1365742E+00
         21   -1    0    0  504  501  0.00000000000E+00  0.00000000000E+00  0.29580543463E+02  0.29580543463E+02  0.00000000000E+00 0.  1.
         21   -1    0    0  503  502 -0.00000000000E+00 -0.00000000000E+00 -0.49476649105E+02  0.49476649105E+02  0.00000000000E+00 0.  1.
         21    1    1    2  503  501  0.36634661129E+02  0.64441844288E+01 -0.19185173625E+02  0.41853277004E+02  0.00000000000E+00 0.  1.
         21    1    1    2  504  502 -0.36634661129E+02 -0.64441844288E+01 -0.71093201623E+00  0.37203915564E+02  0.00000000000E+00 0.  1.
</event>
<event>
 4    1  0.1571930E+006  0.2917239E+02  0.7546771E-02  0.1426927E+00
         21   -1    0    0  502  501  0.00000000000E+00  0.00000000000E+00  0.99534113017E+02  0.99534113017E+02  0.00000000000E+00 0. -1.
         21   -1    0    0  503  502 -0.00000000000E+00 -0.00000000000E+00 -0.85833499243E+01  0.85833499243E+01  0.00000000000E+00 0. -1.
         21    1    1    2  503  504 -0.17488756073E+02 -0.23348908102E+02  0.42111538535E+02  0.51228993512E+02  0.00000000000E+00 0. -1.
         21    1    1    2  504  501  0.17488756073E+02  0.23348908102E+02  0.48839224558E+02  0.56888469429E+02  0.00000000000E+00 0. -1.
</event>
<event>
 4    1  0.1571930E+006  0.2416178E+02  0.7546771E-02  0.1478403E+00
         21   -1    0    0  502  501  0.00000000000E+00  0.00000000000E+00  0.88392479185E+01  0.88392479185E+01  0.00000000000E+00 0. -1.
         21   -1    0    0  504  502 -0.00000000000E+00 -0.00000000000E+00 -0.10091276224E+03  0.10091276224E+03  0.00000000000E+00 0. -1.
         21    1    1    2  503  501 -0.83512382573E+01 -0.22672632460E+02 -0.13780115965E+02  0.27815158441E+02  0.00000000000E+00 0. -1.
         21    1    1    2  504  503  0.83512382573E+01  0.22672632460E+02 -0.78293398352E+02  0.81936851713E+02  0.00000000000E+00 0. -1.
</event>
<event>
 4    1  0.1571930E+006  0.2231410E+02  0.7546771E-02  0.1501295E+00
         21   -1    0    0  503  501  0.00000000000E+00  0.00000000000E+00  0.12320270190E+02  0.12320270190E+02  0.00000000000E+00 0. -1.
         21   -1    0    0  504  502 -0.00000000000E+00 -0.00000000000E+00 -0.50836577343E+02  0.50836577343E+02  0.00000000000E+00 0. -1.
         21    1    1    2  503  502  0.12347165294E+02  0.18586734016E+02 -0.33556200420E+02  0.40298111108E+02  0.00000000000E+00 0. -1.
         21    1    1    2  504  501 -0.12347165294E+02 -0.18586734016E+02 -0.49601067326E+01  0.22858736426E+02  0.00000000000E+00 0. -1.
</event>
<event>
 4    1  0.1571930E+006  0.2746927E+02  0.7546771E-02  0.1442950E+00
         21   -1    0    0  502  501  0.00000000000E+00  0.00000000000E+00  0.10603254177E+03  0.10603254177E+03  0.00000000000E+00 0.  1.
         21   -1    0    0  503  502 -0.00000000000E+00 -0.00000000000E+00 -0.14888007292E+02  0.14888007292E+02  0.00000000000E+00 0.  1.
         21    1    1    2  503  504  0.16409346648E+02 -0.22029395282E+02  0.18895504350E+01  0.27534184476E+02  0.00000000000E+00 0.  1.
         21    1    1    2  504  501 -0.16409346648E+02  0.22029395282E+02  0.89254984043E+02  0.93386364585E+02  0.00000000000E+00 0.  1.
</event>
<event>
 4    1  0.1571930E+006  0.2836938E+02  0.7546771E-02  0.1434317E+00
         21   -1    0    0  504  501  0.00000000000E+00  0.00000000000E+00  0.61908846454E+02  0.61908846454E+02  0.00000000000E+00 0.  1.
         21   -1    0    0  503  502 -0.00000000000E+00 -0.00000000000E+00 -0.13623353758E+02  0.13623353758E+02  0.00000000000E+00 0.  1.
         21    1    1    2  503  501  0.19389864958E+01 -0.28303043191E+02  0.32220460497E+02  0.42929942897E+02  0.00000000000E+00 0.  1.
         21    1    1    2  504  502 -0.19389864958E+01  0.28303043191E+02  0.16065032199E+02  0.32602257315E+02  0.00000000000E+00 0.  1.
</event>
<event>
 4    1  0.1571930E+006  0.2163526E+02  0.7546771E-02  0.1510385E+00
         21   -1    0    0  503  501  0.00000000000E+00  0.00000000000E+00  0.24774349457E+02  0.24774349457E+02  0.00000000000E+00 0. -1.
         21   -1    0    0  504  502 -0.00000000000E+00 -0.00000000000E+00 -0.32419449561E+02  0.32419449561E+02  0.00000000000E+00 0. -1.
         21    1    1    2  503  502 -0.14632431191E+02 -0.15936641881E+02 -0.22293671194E+02  0.31065935883E+02  0.00000000000E+00 0. -1.
         21    1    1    2  504  501  0.14632431191E+02  0.15936641881E+02  0.14648571090E+02  0.26127863135E+02  0.00000000000E+00 0. -1.
</event>
<event>
 4    1  0.1571930E+006  0.2757302E+02  0.7546771E-02  0.1441935E+00
         21   -1    0    0  503  501  0.00000000000E+00  0.00000000000E+00  0.78065048595E+03  0.78065048595E+03  0.00000000000E+00 0. -1.
         21   -1    0    0  504  502 -0.00000000000E+00 -0.00000000000E+00 -0.50969939777E+02  0.50969939777E+02  0.00000000000E+00 0.  1.
         21    1    1    2  503  502  0.19923904675E+02  0.19060673911E+02  0.77665883512E+03  0.77714813094E+03  0.00000000000E+00 0. -1.
         21    1    1    2  504  501 -0.19923904675E+02 -0.19060673911E+02 -0.46978288940E+02  0.54472294785E+02  0.00000000000E+00 0.  1.
</event>
<event>
 4    1  0.1571930E+006  0.2062368E+02  0.7546771E-02  0.1524706E+00
         21   -1    0    0  504  501  0.00000000000E+00  0.00000000000E+00  0.15309672201E+03  0.15309672201E+03  0.00000000000E+00 0. -1.
         21   -1    0    0  503  502 -0.00000000000E+00 -0.00000000000E+00 -0.15531858769E+02  0.15531858769E+02  0.00000000000E+00 0.  1.
         21    1    1    2  503  501  0.19461597464E+02 -0.68251276519E+01 -0.76198898190E+01  0.21986333577E+02  0.00000000000E+00 0.  1.
         21    1    1    2  504  502 -0.19461597464E+02  0.68251276519E+01  0.14518475306E+03  0.14664224720E+03  0.00000000000E+00 0. -1.
</event>
<event>
 4    1  0.1571930E+006  0.3847859E+02  0.7546771E-02  0.1357639E+00
         21   -1    0    0  503  501  0.00000000000E+00  0.00000000000E+00  0.74818628890E+01  0.74818628890E+01  0.00000000000E+00 0.  1.
         21   -1    0    0  504  502 -0.00000000000E+00 -0.00000000000E+00 -0.46296595295E+03  0.46296595295E+03  0.00000000000E+00 0. -1.
         21    1    1    2  503  502 -0.36370246275E+02 -0.12562129122E+02 -0.40572988881E+03  0.40755041968E+03  0.00000000000E+00 0. -1.
         21    1    1    2  504  501  0.36370246275E+02  0.12562129122E+02 -0.49754201247E+02  0.62897396162E+02  0.00000000000E+00 0.  1.
</event>
<event>
 4    1  0.1571930E+006  0.2306286E+02  0.7546771E-02  0.1491710E+00
         21   -1    0    0  503  501  0.00000000000E+00  0.00000000000E+00  0.11123984570E+02  0.11123984570E+02  0.00000000000E+00 0. -1.
         21   -1    0    0  504  502 -0.00000000000E+00 -0.00000000000E+00 -0.50206398850E+02  0.50206398850E+02  0.00000000000E+00 0. -1.
         21    1    1    2  503  502 -0.17680961879E+02  0.14808070920E+02 -0.12848907470E+02  0.26400564398E+02  0.00000000000E+00 0. -1.
         21    1    1    2  504  501  0.17680961879E+02 -0.14808070920E+02 -0.26233506810E+02  0.34929819022E+02  0.00000000000E+00 0. -1.
</event>
<event>
 4    1  0.1571930E+006  0.2395735E+02  0.7546771E-02  0.1480814E+00
         21   -1    0    0  504  501  0.00000000000E+00  0.00000000000E+00  0.16320910471E+01  0.16320910471E+01  0.00000000000E+00 0.  1.
         21   -1    0    0  503  502 -0.00000000000E+00 -0.00000000000E+00 -0.38805888781E+03  0.38805888781E+03  0.00000000000E+00 0.  1.
         21    1    1    2  503  501  0.52346727980E+01 -0.23378466148E+02 -0.13354603807E+03  0.13567792290E+03  0.00000000000E+00 0.  1.
         21    1    1    2  504  502 -0.52346727980E+01  0.23378466148E+02 -0.25288075869E+03  0.25401305596E+03  0.00000000000E+00 0.  1.
</event>
<event>
 4    1  0.1571930E+006  0.2184127E+02  0.7546771E-02  0.1507585E+00
         21   -1    0    0  504  501  0.00000000000E+00  0.00000000000E+00  0.53438411206E+03  0.53438411206E+03  0.00000000000E+00 0.  1.
         21   -1    0    0  501  502 -0.00000000000E+00 -0.00000000000E+00 -0.50455771234E+01  0.50455771234E+01  0.00000000000E+00 0.  1.
         21    1    1    2  503  502  0.71600689989E+01 -0.20634300847E+02  0.19974697660E+02  0.29597795630E+02  0.00000000000E+00 0.  1.
         21    1    1    2  504  503 -0.71600689989E+01  0.20634300847E+02  0.50936383728E+03  0.50983189355E+03  0.00000000000E+00 0.  1.
</event>
<event>
 4    1  0.1571930E+006  0.2174720E+02  0.7546771E-02  0.1508859E+00
         21   -1    0    0  504  501  0.00000000000E+00  0.00000000000E+00  0.84474513537E+01  0.84474513537E+01  0.00000000000E+00 0. -1.
         21   -1    0    0  503  502 -0.00000000000E+00 -0.00000000000E+00 -0.14252780914E+03  0.14252780914E+03  0.00000000000E+00 0.  1.
         21    1    1    2  503  501 -0.21307810235E+02  0.43494561557E+01 -0.12586200682E+03  0.12772699522E+03  0.00000000000E+00 0.  1.
         21    1    1    2  504  502  0.21307810235E+02 -0.43494561557E+01 -0.82183509655E+01  0.23248265278E+02  0.00000000000E+00 0. -1.
</event>
<event>
 4    1  0.1571930E+006  0.2614468E+02  0.7546771E-02  0.1456394E+00
         21   -1    0    0  503  501  0.00000000000E+00  0.00000000000E+00  0.56774758364E+01  0.56774758364E+01  0.00000000000E+00 0.  1.
         21   -1    0    0  504  502 -0.00000000000E+00 -0.00000000000E+00 -0.31910208753E+03  0.31910208753E+03  0.00000000000E+00 0. -1.
         21    1    1    2  503  502  0.26107038450E+02  0.14024053649E+01 -0.28485672274E+03  0.28605401009E+03  0.00000000000E+00 0. -1.
         21    1    1    2  504  501 -0.26107038450E+02 -0.14024053649E+01 -0.28567888953E+02  0.38725553278E+02  0.00000000000E+00 0.  1.
</event>
<event>
 4    1  0.1571930E+006  0.3496827E+02  0.7546771E-02  0.1380786E+00
         21   -1    0    0  503  501  0.00000000000E+00  0.00000000000E+00  0.74498114572E+02  0.74498114572E+02  0.00000000000E+00 0.  1.
         21   -1    0    0  501  502 -0.00000000000E+00 -0.00000000000E+00 -0.13469188360E+03  0.13469188360E+03  0.00000000000E+00 0.  1.
         21    1    1    2  503  504 -0.33735578571E+02  0.92027598718E+01  0.67918166069E+02  0.76391474216E+02  0.00000000000E+00 0.  1.
         21    1    1    2  504  502  0.33735578571E+02 -0.92027598718E+01 -0.12811193510E+03  0.13279852396E+03  0.00000000000E+00 0.  1.
</event>
<event>
 4    1  0.1571930E+006  0.2130774E+02  0.7546771E-02  0.1514916E+00
         21   -1    0    0  504  501  0.00000000000E+00  0.00000000000E+00  0.87911285103E+02  0.87911285103E+02  0.00000000000E+00 0. -1.
         21   -1    0    0  503  502 -0.00000000000E+00 -0.00000000000E+00 -0.16313764921E+02  0.16313764921E+02  0.00000000000E+00 0.  1.
         21    1    1    2  503  501  0.84736147847E+01 -0.19550387357E+02 -0.72824307617E+01  0.22517850500E+02  0.00000000000E+00 0.  1.
         21    1    1    2  504  502 -0.84736147847E+01  0.19550387357E+02  0.78879950944E+02  0.81707199525E+02  0.00000000000E+00 0. -1.
</event>
<event>
 4    1  0.1571930E+006  0.4128794E+02  0.7546771E-02  0.1341099E+00
         21   -1    0    0  504  501  0.00000000000E+00  0.00000000000E+00  0.37134103851E+02  0.37134103851E+02  0.00000000000E+00 0.  1.
         21   -1    0    0  503  502 -0.00000000000E+00 -0.00000000000E+00 -0.66005368886E+03  0.66005368886E+03  0.00000000000E+00 0.  1.
         21    1    1    2  503  501  0.32709003359E+02  0.25195535703E+02 -0.64771297879E+03  0.64902757785E+03  0.00000000000E+00 0.  1.
         21    1    1    2  504  502 -0.32709003359E+02 -0.25195535703E+02  0.24793393780E+02  0.48160214859E+02  0.00000000000E+00 0.  1.
</event>
<event>
 4    1  0.1571930E+006  0.2717612E+02  0.7546771E-02  0.1445847E+00
         21   -1    0    0  503  501  0.00000000000E+00  0.00000000000E+00  0.11760634841E+03  0.11760634841E+03  0.00000000000E+00 0.  1.
         21   -1    0    0  504  502 -0.00000000000E+00 -0.00000000000E+00 -0.99929318492E+02  0.99929318492E+02  0.00000000000E+00 0. -1.
         21    1    1    2  503  502 -0.35284653167E+01  0.26946083719E+02  0.11413329597E+03  0.11732412686E+03  0.00000000000E+00 0.  1.
         21    1    1    2  504  501  0.35284653167E+01 -0.26946083719E+02 -0.96456266055E+02  0.10021154004E+03  0.00000000000E+00 0. -1.
</event>
<event>
 4    1  0.1571930E+006  0.2556578E+02  0.7546771E-02  0.1462572E+00
         21   -1    0    0  503  501  0.00000000000E+00  0.00000000000E+00  0.15116998920E+02  0.15116998920E+02  0.00000000000E+00 0. -1.
         21   -1    0    0  504  502 -0.00000000000E+00 -0.00000000000E+00 -0.55679942884E+02  0.55679942884E+02  0.00000000000E+00 0. -1.
         21    1    1    2  503  502  0.15232789301E+02  0.20532203244E+02 -0.35473937923E+01  0.25810719530E+02  0.00000000000E+00 0. -1.
         21    1    1    2  504  501 -0.15232789301E+02 -0.20532203244E+02 -0.37015550172E+02  0.44986222274E+02  0.00000000000E+00 0. -1.
</event>
<event>
 4    1  0.1571930E+006  0.4052880E+02  0.7546771E-02  0.1345415E+00
         21   -1    0    0  503  501  0.00000000000E+00  0.00000000000E+00  0.12149692120E+02  0.12149692120E+02  0.00000000000E+00 0. -1.
         21   -1    0    0  504  502 -0.00000000000E+00 -0.00000000000E+00 -0.14636490010E+03  0.14636490010E+03  0.00000000000E+00 0. -1.
         21    1    1    2  503  502  0.38027586256E+02 -0.14017360582E+02 -0.89002136904E+02  0.97795521818E+02  0.00000000000E+00 0. -1.
         21    1    1    2  504  501 -0.38027586256E+02  0.14017360582E+02 -0.45213071074E+02  0.60719070399E+02  0.00000000000E+00 0. -1.
</event>
<event>
 4    1  0.1571930E+006  0.2242011E+02  0.7546771E-02  0.1499911E+00
         21   -1    0    0  504  501  0.00000000000E+00  0.00000000000E+00  0.38344050334E+03  0.38344050334E+03  0.00000000000E+00 0.  1.
         21   -1    0    0  503  502 -0.00000000000E+00 -0.00000000000E+00 -0.20936392632E+02  0.20936392632E+02  0.00000000000E+00 0.  1.
         21    1    1    2  503  501 -0.12190284369E+02 -0.18816433557E+02 -0.14504103144E+02  0.26702625579E+02  0.00000000000E+00 0.  1.
         21    1    1    2  504  502  0.12190284369E+02  0.18816433557E+02  0.37700821386E+03  0.37767427040E+03  0.00000000000E+00 0.  1.
</event>
<event>
 4    1  0.1571930E+006  0.2478583E+02  0.7546771E-02  0.1471214E+00
         21   -1    0    0  503  501  0.00000000000E+00  0.00000000000E+00  0.18037230186E+01  0.18037230186E+01  0.00000000000E+00 0. -1.
         21   -1    0    0  504  502 -0.00000000000E+00 -0.00000000000E+00 -0.54463275665E+03  0.54463275665E+03  0.00000000000E+00 0. -1.
         21    1    1    2  503  502  0.15444813056E+02  0.19385435444E+02 -0.10418456159E+03  0.10709229772E+03  0.00000000000E+00 0. -1.
         21    1    1    2  504  501 -0.15444813056E+02 -0.19385435444E+02 -0.43864447205E+03  0.43934418195E+03  0.00000000000E+00 0. -1.
</event>
<event>
 4    1  0.1571930E+006  0.2688802E+02  0.7546771E-02  0.1448736E+00
         21   -1    0    0  504  501  0.00000000000E+00  0.00000000000E+00  0.27904336660E+03  0.27904336660E+03  0.00000000000E+00 0.  1.
         21   -1    0    0  503  502 -0.00000000000E+00 -0.00000000000E+00 -0.11606572811E+02  0.11606572811E+02  0.00000000000E+00 0. -1.
         21    1    1    2  503  501 -0.40887235206E+01 -0.26575321819E+02  0.26180036979E+03  0.26317750476E+03  0.00000000000E+00 0.  1.
         21    1    1    2  504  502  0.40887235206E+01  0.26575321819E+02  0.56364239925E+01  0.27472434644E+02  0.00000000000E+00 0. -1.
</event>
<event>
 4    1  0.1571930E+006  0.2690385E+02  0.7546771E-02  0.1448576E+00
         21   -1    0    0  503  501  0.00000000000E+00  0.00000000000E+00  0.39617569487E+03  0.39617569487E+03  0.00000000000E+00 0.  1.
         21   -1    0    0  504  502 -0.00000000000E+00 -0.00000000000E+00 -0.19679858240E+01  0.19679858240E+01  0.00000000000E+00 0. -1.
         21    1    1    2  503  502 -0.69201834501E+01 -0.25998616502E+02  0.14382302187E+03  0.14631773173E+03  0.00000000000E+00 0. -1.
         21    1    1    2  504  501  0.69201834501E+01  0.25998616502E+02  0.25038468718E+03  0.25182594897E+03  0.00000000000E+00 0.  1.
</event>
<event>
 4    1  0.1571930E+006  0.2884953E+02  0.7546771E-02  0.1429864E+00
         21   -1    0    0  503  501  0.00000000000E+00  0.00000000000E+00  0.12075512110E+02  0.12075512110E+02  0.00000000000E+00 0.  1.
         21   -1    0    0  504  502 -0.00000000000E+00 -0.00000000000E+00 -0.93330529779E+02  0.93330529779E+02  0.00000000000E+00 0.  1.
         21    1    1    2  503  502  0.77014840893E+01 -0.27802560428E+02 -0.13676518656E+02  0.31927141841E+02  0.00000000000E+00 0.  1.
         21    1    1    2  504  501 -0.77014840893E+01  0.27802560428E+02 -0.67578499012E+02  0.73478900048E+02  0.00000000000E+00 0.  1.
</event>
<event>
 4    1  0.1571930E+006  0.2596183E+02  0.7546771E-02  0.1458325E+00
         21   -1    0    0  503  501  0.00000000000E+00  0.00000000000E+00  0.39745220503E+03  0.39745220503E+03  0.00000000000E+00 0. -1.
         21   -1    0    0  504  502 -0.00000000000E+00 -0.00000000000E+00 -0.22284028127E+01  0.22284028127E+01  0.00000000000E+00 0.  1.
         21    1    1    2  503  502 -0.23305570028E+02  0.11439710177E+02  0.29530646622E+03  0.29644548496E+03  0.00000000000E+00 0. -1.
         21    1    1    2  504  501  0.23305570028E+02 -0.11439710177E+02  0.99917335997E+02  0.10323512288E+03  0.00000000000E+00 0.  1.
</event>
<event>
 4    1  0.1571930E+006  0.4053364E+02  0.7546771E-02  0.1345387E+00
         21   -1    0    0  503  501  0.00000000000E+00  0.00000000000E+00  0.26928940161E+02  0.26928940161E+02  0.00000000000E+00 0.  1.
         21   -1    0    0  504  502 -0.00000000000E+00 -0.00000000000E+00 -0.61096838955E+02  0.61096838955E+02  0.00000000000E+00 0.  1.
         21    1    1    2  503  502  0.27915542717E+02  0.29388752321E+02 -0.15439481109E+02  0.43374576252E+02  0.00000000000E+00 0.  1.
         21    1    1    2  504  501 -0.27915542717E+02 -0.29388752321E+02 -0.18728417685E+02  0.44651202863E+02  0.00000000000E+00 0.  1.
</event>
<event>
 4    1  0.1571930E+006  0.3360556E+02  0.7546771E-02  0.1390641E+00
         21   -1    0    0  503  501  0.00000000000E+00  0.00000000000E+00  0.17523478192E+02  0.17523478192E+02  0.00000000000E+00 0. -1.
         21   -1    0    0  504  502 -0.00000000000E+00 -0.00000000000E+00 -0.24519648246E+03  0.24519648246E+03  0.00000000000E+00 0. -1.
         21    1    1    2  503  502 -0.16414987610E+02  0.29323738839E+02 -0.22661975951E+03  0.22909790238E+03  0.00000000000E+00 0. -1.
         21    1    1    2  504  501  0.16414987610E+02 -0.29323738839E+02 -0.10532447625E+01  0.33622058269E+02  0.00000000000E+00 0. -1.
</event>
<event>
 4    1  0.1571930E+006  0.2305975E+02  0.7546771E-02  0.1491749E+00
         21   -1    0    0  504  501  0.00000000000E+00  0.00000000000E+00  0.84833952389E+02  0.84833952389E+02  0.00000000000E+00 0.  1.
         21   -1    0    0  503  502 -0.00000000000E+00 -0.00000000000E+00 -0.64064342875E+01  0.64064342875E+01  0.00000000000E+00 0. -1.
         21    1    1    2  503  501 -0.21067894855E+02  0.93752707241E+01  0.32511269211E+02  0.39858932756E+02  0.00000000000E+00 0.  1.
         21    1    1    2  504  502  0.21067894855E+02 -0.93752707241E+01  0.45916248890E+02  0.51381453920E+02  0.00000000000E+00 0. -1.
</event>
<event>
 4    1  0.1571930E+006  0.2032943E+02  0.7546771E-02  0.1529058E+00
         21   -1    0    0  503  501  0.00000000000E+00  0.00000000000E+00  0.82859893408E+02  0.82859893408E+02  0.00000000000E+00 0.  1.
         21   -1    0    0  504  502 -0.00000000000E+00 -0.00000000000E+00 -0.69232803981E+01  0.69232803981E+01  0.00000000000E+00 0.  1.
         21    1    1    2  503  502 -0.15046502580E+02 -0.13670721987E+02  0.14232333611E+02  0.24816228552E+02  0.00000000000E+00 0.  1.
         21    1    1    2  504  501  0.15046502580E+02  0.13670721987E+02  0.61704279399E+02  0.64966945254E+02  0.00000000000E+00 0.  1.
</event>
<event>
 4    1  0.1571930E+006  0.2888770E+02  0.7546771E-02  0.1429515E+00
         21   -1    0    0  502  501  0.00000000000E+00  0.00000000000E+00  0.19271565483E+03  0.19271565483E+03  0.00000000000E+00 0.  1.
         21   -1    0    0  504  502 -0.00000000000E+00 -0.00000000000E+00 -0.70546839743E+01  0.70546839743E+01  0.00000000000E+00 0.  1.
         21    1    1    2  503  501  0.12138953388E+02  0.26213453364E+02  0.15490359916E+03  0.15757418684E+03  0.00000000000E+00 0.  1.
         21    1    1    2  504  503 -0.12138953388E+02 -0.26213453364E+02  0.30757371693E+02  0.42196151958E+02  0.00000000000E+00 0.  1.
</event>
<event>
 4    1  0.1571930E+006  0.2423990E+02  0.7546771E-02  0.1477489E+00
         21   -1    0    0  504  501  0.00000000000E+00  0.00000000000E+00  0.26147902840E+02  0.26147902840E+02  0.00000000000E+00 0.  1.
         21   -1    0    0  503  502 -0.00000000000E+00 -0.00000000000E+00 -0.12227602654E+03  0.12227602654E+03  0.00000000000E+00 0.  1.
         21    1    1    2  503  501  0.23240705378E+02 -0.68878592345E+01 -0.11511103701E+03  0.11763555514E+03  0.00000000000E+00 0.  1.
         21    1    1    2  504  502 -0.23240705378E+02  0.68878592345E+01  0.18982913304E+02  0.30788374247E+02  0.00000000000E+00 0.  1.
</event>
<event>
 4    1  0.1571930E+006  0.4108815E+02  0.7546771E-02  0.1342225E+00
         21   -1    0    0  503  501  0.00000000000E+00  0.00000000000E+00  0.32713394782E+02  0.32713394782E+02  0.00000000000E+00 0. -1.
         21   -1    0    0  501  502 -0.00000000000E+00 -0.00000000000E+00 -0.39055155810E+03  0.39055155810E+03  0.00000000000E+00 0. -1.
         21    1    1    2  503  504 -0.19398781353E+02  0.36220482204E+02  0.18235802265E+02  0.44953092589E+02  0.00000000000E+00 0. -1.
         21    1    1    2  504  502  0.19398781353E+02 -0.36220482204E+02 -0.37607396559E+03  0.37831186030E+03  0.00000000000E+00 0. -1.
</event>
<event>
 4    1  0.1571930E+006  0.2075432E+02  0.7546771E-02  0.1522802E+00
         21   -1    0    0  503  501  0.00000000000E+00  0.00000000000E+00  0.17989862386E+01  0.17989862386E+01  0.00000000000E+00 0. -1.
         21   -1    0    0  504  502 -0.00000000000E+00 -0.00000000000E+00 -0.26536341421E+03  0.26536341421E+03  0.00000000000E+00 0. -1.
         21    1    1    2  503  502  0.11507776233E+02  0.17271740070E+02 -0.90027537789E+02  0.92388849323E+02  0.00000000000E+00 0. -1.
         21    1    1    2  504  501 -0.11507776233E+02 -0.17271740070E+02 -0.17353689018E+03  0.17477355113E+03  0.00000000000E+00 0. -1.
</event>
<event>
 4    1  0.1571930E+006  0.2133514E+02  0.7546771E-02  0.1514533E+00
         21   -1    0    0  504  501  0.00000000000E+00  0.00000000000E+00  0.43562191093E+01  0.43562191093E+01  0.00000000000E+00 0.  1.
         21   -1    0    0  503  502 -0.00000000000E+00 -0.00000000000E+00 -0.32225586269E+03  0.32225586269E+03  0.00000000000E+00 0.  1.
         21    1    1    2  503  501  0.22640195415E+01  0.21214671918E+02 -0.29319391651E+03  0.29396914934E+03  0.00000000000E+00 0.  1.
         21    1    1    2  504  502 -0.22640195415E+01 -0.21214671918E+02 -0.24705727073E+02  0.32642932455E+02  0.00000000000E+00 0.  1.
</event>
<event>
 4    1  0.1571930E+006  0.2039013E+02  0.7546771E-02  0.1528153E+00
         21   -1    0    0  502  501  0.00000000000E+00  0.00000000000E+00  0.44546986265E+01  0.44546986265E+01  0.00000000000E+00 0. -1.
         21   -1    0    0  504  502 -0.00000000000E+00 -0.00000000000E+00 -0.25496351687E+03  0.25496351687E+03  0.00000000000E+00 0. -1.
         21    1    1    2  503  501 -0.12395314751E+02 -0.16189919373E+02 -0.21978964372E+02  0.29980530214E+02  0.00000000000E+00 0. -1.
         21    1    1    2  504  503  0.12395314751E+02  0.16189919373E+02 -0.22852985387E+03  0.22943768528E+03  0.00000000000E+00 0. -1.
</event>
<event>
 4    1  0.1571930E+006  0.2040300E+02  0.7546771E-02  0.1527962E+00
         21   -1    0    0  503  501  0.00000000000E+00  0.00000000000E+00  0.23294676673E+02  0.23294676673E+02  0.00000000000E+00 0. -1.
         21   -1    0    0  504  502 -0.00000000000E+00 -0.00000000000E+00 -0.47047789684E+02  0.47047789684E+02  0.00000000000E+00 0.  1.
         21    1    1    2  503  502 -0.55414714357E+01 -0.19636056156E+02 -0.39574149326E+02  0.44524104729E+02  0.00000000000E+00 0.  1.
         21    1    1    2  504  501  0.55414714357E+01  0.19636056156E+02  0.15821036315E+02  0.25818361627E+02  0.00000000000E+00 0. -1.
</event>
<event>
 4    1  0.1571930E+006  0.2480043E+02  0.7546771E-02  0.1471048E+00
         21   -1    0    0  504  501  0.00000000000E+00  0.00000000000E+00  0.24608518788E+01  0.24608518788E+01  0.00000000000E+00 0. -1.
         21   -1    0    0  503  502 -0.00000000000E+00 -0.00000000000E+00 -0.25074986105E+03  0.25074986105E+03  0.00000000000E+00 0. -1.
         21    1    1    2  503  501 -0.22419824005E+02 -0.10602500664E+02 -0.11694256412E+03  0.11954340145E+03  0.00000000000E+00 0. -1.
         21    1    1    2  504  502  0.22419824005E+02  0.10602500664E+02 -0.13134644506E+03  0.13366731148E+03  0.00000000000E+00 0. -1.
</event>
<event>
 4    1  0.1571930E+006  0.2595116E+02  0.7546771E-02  0.1458438E+00
         21   -1    0    0  504  501  0.00000000000E+00  0.00000000000E+00  0.35699462635E+02  0.35699462635E+02  0.00000000000E+00 0. -1.
         21   -1    0    0  501  502 -0.00000000000E+00 -0.00000000000E+00 -0.57684507796E+03  0.57684507796E+03  0.00000000000E+00 0. -1.
         21    1    1    2  503  502  0.62788364441E+01 -0.25180129872E+02 -0.57179537939E+03  0.57238397830E+03  0.00000000000E+00 0. -1.
         21    1    1    2  504  503 -0.62788364441E+01  0.25180129872E+02  0.30649764057E+02  0.40160562300E+02  0.00000000000E+00 0. -1.
</event>
<event>
 4    1  0.1571930E+006  0.3000716E+02  0.7546771E-02  0.1419534E+00
         21   -1    0    0  504  501  0.00000000000E+00  0.00000000000E+00  0.52100391139E+03  0.52100391139E+03  0.00000000000E+00 0.  1.
         21   -1    0    0  503  502 -0.00000000000E+00 -0.00000000000E+00 -0.51282761689E+01  0.51282761689E+01  0.00000000000E+00 0.  1.
         21    1    1    2  503  501 -0.20592805036E+02  0.21825815912E+02  0.43737697997E+02  0.53041644823E+02  0.00000000000E+00 0.  1.
         21    1    1    2  504  502  0.20592805036E+02 -0.21825815912E+02  0.47213793722E+03  0.47309054273E+03  0.00000000000E+00 0.  1.
</event>
<event>
 4    1  0.1571930E+006  0.3064469E+02  0.7546771E-02  0.1414075E+00
         21   -1    0    0  503  501  0.00000000000E+00  0.00000000000E+00  0.39703177476E+01  0.39703177476E+01  0.00000000000E+00 0.  1.
         21   -1    0    0  504  502 -0.00000000000E+00 -0.00000000000E+00 -0.58986629379E+03  0.58986629379E+03  0.00000000000E+00 0. -1.
         21    1    1    2  503  502 -0.26594765947E+02  0.15225491185E+02 -0.52275042673E+03  0.52364788341E+03  0.00000000000E+00 0. -1.
         21    1    1    2  504  501  0.26594765947E+02 -0.15225491185E+02 -0.63145549307E+02  0.70188728119E+02  0.00000000000E+00 0.  1.
</event>
<event>
 4    1  0.1571930E+006  0.2847340E+02  0.7546771E-02  0.1433344E+00
         21   -1    0    0  502  501  0.00000000000E+00  0.00000000000E+00  0.41527408765E+01  0.41527408765E+01  0.00000000000E+00 0. -1.
         21   -1    0    0  504  502 -0.00000000000E+00 -0.00000000000E+00 -0.26220569998E+03  0.26220569998E+03  0.00000000000E+00 0. -1.
         21    1    1    2  503  501 -0.14012783593E+02  0.24786614804E+02 -0.61716708524E+02  0.67968275604E+02  0.00000000000E+00 0. -1.
         21    1    1    2  504  503  0.14012783593E+02 -0.24786614804E+02 -0.19633625058E+03  0.19839016525E+03  0.00000000000E+00 0. -1.
</event>
<event>
 4    1  0.1571930E+006  0.2544981E+02  0.7546771E-02  0.1463834E+00
         21   -1    0    0  503  501  0.00000000000E+00  0.00000000000E+00  0.60962730034E+02  0.60962730034E+02  0.00000000000E+00 0. -1.
         21   -1    0    0  504  502 -0.00000000000E+00 -0.00000000000E+00 -0.43762720841E+02  0.43762720841E+02  0.00000000000E+00 0. -1.
         21    1    1    2  503  502  0.14708350656E+02 -0.20769138626E+02  0.54165417039E+02  0.59846345764E+02  0.00000000000E+00 0. -1.
         21    1    1    2  504  501 -0.14708350656E+02  0.20769138626E+02 -0.36965407846E+02  0.44879105111E+02  0.00000000000E+00 0. -1.
</event>
<event>
 4    1  0.1571930E+006  0.2302371E+02  0.7546771E-02  0.1492201E+00
         21   -1    0    0  502  501  0.00000000000E+00  0.00000000000E+00  0.92492380368E+02  0.92492380368E+02  0.00000000000E+00 0. -1.
         21   -1    0    0  504  502 -0.00000000000E+00 -0.00000000000E+00 -0.53094053182E+02  0.53094053182E+02  0.00000000000E+00 0.  1.
         21    1    1    2  503  501  0.18441490996E+02  0.13784149424E+02  0.88451418654E+02  0.91398822899E+02  0.00000000000E+00 0. -1.
         21    1    1    2  504  503 -0.18441490996E+02 -0.13784149424E+02 -0.49053091468E+02  0.54187610651E+02  0.00000000000E+00 0.  1.
</event>
<event>
 4    1  0.1571930E+006  0.2325153E+02  0.7546771E-02  0.1489364E+00
         21   -1    0    0  504  501  0.00000000000E+00  0.00000000000E+00  0.13742651090E+02  0.13742651090E+02  0.00000000000E+00 0. -1.
         21   -1    0    0  503  502 -0.00000000000E+00 -0.00000000000E+00 -0.35001659173E+03  0.35001659173E+03  0.00000000000E+00 0. -1.
         21    1    1    2  503  501  0.51950543107E+01 -0.22663741204E+02 -0.33949091263E+03  0.34028622292E+03  0.00000000000E+00 0. -1.
         21    1    1    2  504  502 -0.51950543107E+01  0.22663741204E+02  0.32169719821E+01  0.23473019903E+02  0.00000000000E+00 0. -1.
</event>
<event>
 4    1  0.1571930E+006  0.2396625E+02  0.7546771E-02  0.1480709E+00
         21   -1    0    0  504  501  0.00000000000E+00  0.00000000000E+00  0.53640872362E+01  0.53640872362E+01  0.00000000000E+00 0.  1.
         21   -1    0    0  501  502 -0.00000000000E+00 -0.00000000000E+00 -0.10763939275E+03  0.10763939275E+03  0.00000000000E+00 0.  1.
         21    1    1    2  503  502 -0.15231895858E+02  0.18503252492E+02 -0.55214544462E+02  0.60191585162E+02  0.00000000000E+00 0.  1.
         21    1    1    2  504  503  0.15231895858E+02 -0.18503252492E+02 -0.47060761056E+02  0.52811894829E+02  0.00000000000E+00 0.  1.
</event>
<event>
 4    1  0.1571930E+006  0.2566797E+02  0.7546771E-02  0.1461468E+00
         21   -1    0    0  503  501  0.00000000000E+00  0.00000000000E+00  0.12131588187E+02  0.12131588187E+02  0.00000000000E+00 0. -1.
         21   -1    0    0  504  502 -0.00000000000E+00 -0.00000000000E+00 -0.69572501445E+02  0.69572501445E+02  0.00000000000E+00 0. -1.
         21    1    1    2  503  502 -0.37252239608E+01 -0.25396203451E+02 -0.47855690700E+02  0.54304802510E+02  0.00000000000E+00 0. -1.
         21    1    1    2  504  501  0.37252239608E+01  0.25396203451E+02 -0.95852225585E+01  0.27399287122E+02  0.00000000000E+00 0. -1.
</event>
<event>
 4    1  0.1571930E+006  0.2040943E+02  0.7546771E-02  0.1527866E+00
         21   -1    0    0  504  501  0.00000000000E+00  0.00000000000E+00  0.87951568694E+02  0.87951568694E+02  0.00000000000E+00 0. -1.
         21   -1    0    0  503  502 -0.00000000000E+00 -0.00000000000E+00 -0.32922938690E+02  0.32922938690E+02  0.00000000000E+00 0.  1.
         21    1    1    2  503  501  0.11964288026E+02  0.16534826357E+02 -0.28407190022E+02  0.34978752344E+02  0.00000000000E+00 0.  1.
         21    1    1    2  504  502 -0.11964288026E+02 -0.16534826357E+02  0.83435820025E+02  0.85895755040E+02  0.00000000000E+00 0. -1.
</event>
<event>
 4    1  0.1571930E+006  0.2312915E+02  0.7546771E-02  0.1490883E+00
         21   -1    0    0  502  501  0.00000000000E+00  0.00000000000E+00  0.16895938592E+02  0.16895938592E+02  0.00000000000E+00 0.  1.
         21   -1    0    0  503  502 -0.00000000000E+00 -0.00000000000E+00 -0.76828711042E+02  0.76828711042E+02  0.00000000000E+00 0. -1.
         21    1    1    2  503  504  0.50089336544E+01 -0.22580261428E+02 -0.65897587830E+02  0.69838740712E+02  0.00000000000E+00 0. -1.
         21    1    1    2  504  501 -0.50089336544E+01  0.22580261428E+02  0.59648153799E+01  0.23885908922E+02  0.00000000000E+00 0.  1.
</event>
<event>
 4    1  0.1571930E+006  0.2723234E+02  0.7546771E-02  0.1445288E+00
         21   -1    0    0  504  501  0.00000000000E+00  0.00000000000E+00  0.74372988669E+01  0.74372988669E+01  0.00000000000E+00 0.  1.
         21   -1    0    0  503  502 -0.00000000000E+00 -0.00000000000E+00 -0.10828059250E+03  0.10828059250E+03  0.00000000000E+00 0.  1.
         21    1    1    2  503  501  0.77314832229E+01 -0.26111770675E+02 -0.66696141071E+02  0.72041485509E+02  0.00000000000E+00 0.  1.
         21    1    1    2  504  502 -0.77314832229E+01  0.26111770675E+02 -0.34147152566E+02  0.43676405862E+02  0.00000000000E+00 0.  1.
</event>
<event>
 4    1  0.1571930E+006  0.2293565E+02  0.7546771E-02  0.1493308E+00
         21   -1    0    0  502  501  0.00000000000E+00  0.00000000000E+00  0.56237639096E+02  0.56237639096E+02  0.00000000000E+00 0. -1.
         21   -1    0    0  504  502 -0.00000000000E+00 -0.00000000000E+00 -0.46416943527E+02  0.46416943527E+02  0.00000000000E+00 0.  1.
         21    1    1    2  503  501  0.20720934178E+02  0.98329507107E+01  0.50775234618E+02  0.55715065139E+02  0.00000000000E+00 0. -1.
         21    1    1    2  504  503 -0.20720934178E+02 -0.98329507107E+01 -0.40954539049E+02  0.46939517484E+02  0.00000000000E+00 0.  1.
</event>
<event>
 4    1  0.1571930E+006  0.2883065E+02  0.7546771E-02  0.1430038E+00
         21   -1    0    0  503  501  0.00000000000E+00  0.00000000000E+00  0.18836253845E+01  0.18836253845E+01  0.00000000000E+00 0. -1.
         21   -1    0    0  501  502 -0.00000000000E+00 -0.00000000000E+00 -0.44377321553E+03  0.44377321553E+03  0.00000000000E+00 0. -1.
         21    1    1    2  503  504 -0.26767669955E+02  0.10709730586E+02 -0.20424322638E+03  0.20626803438E+03  0.00000000000E+00 0. -1.
         21    1    1    2  504  502  0.26767669955E+02 -0.10709730586E+02 -0.23764636376E+03  0.23938880653E+03  0.00000000000E+00 0. -1.
</event>
<event>
 4    1  0.1571930E+006  0.2635916E+02  0.7546771E-02  0.1454154E+00
         21   -1    0    0  504  501  0.00000000000E+00  0.00000000000E+00  0.42945574188E+03  0.42945574188E+03  0.00000000000E+00 0. -1.
         21   -1    0    0  503  502 -0.00000000000E+00 -0.00000000000E+00 -0.22151104946E+02  0.22151104946E+02  0.00000000000E+00 0. -1.
         21    1    1    2  503  501  0.25939559258E+02  0.46844792687E+01  0.42105328746E+03  0.42187756040E+03  0.00000000000E+00 0. -1.
         21    1    1    2  504  502 -0.25939559258E+02 -0.46844792687E+01 -0.13748650527E+02  0.29729286433E+02  0.00000000000E+00 0. -1.
</event>
<event>
 4    1  0.1571930E+006  0.2484825E+02  0.7546771E-02  0.1470508E+00
         21   -1    0    0  504  501  0.00000000000E+00  0.00000000000E+00  0.81915260440E+02  0.81915260440E+02  0.00000000000E+00 0. -1.
         21   -1    0    0  503  502 -0.00000000000E+00 -0.00000000000E+00 -0.77232813551E+01  0.77232813551E+01  0.00000000000E+00 0. -1.
         21    1    1    2  503  501  0.15166473302E+02  0.19682822576E+02  0.44047467864E+02  0.50572866660E+02  0.00000000000E+00 0. -1.
         21    1    1    2  504  502 -0.15166473302E+02 -0.19682822576E+02  0.30144511221E+02  0.39065675135E+02  0.00000000000E+00 0. -1.
</event>
<event>
 4    1  0.1571930E+006  0.2102754E+02  0.7546771E-02  0.1518872E+00
         21   -1    0    0  504  501  0.00000000000E+00  0.00000000000E+00  0.70573709367E+02  0.70573709367E+02  0.00000000000E+00 0. -1.
         21   -1    0    0  501  502 -0.00000000000E+00 -0.00000000000E+00 -0.70011289165E+01  0.70011289165E+01  0.00000000000E+00 0. -1.
         21    1    1    2  503  502  0.18954222597E+02  0.91046594370E+01  0.19210679939E+02  0.28481706435E+02  0.00000000000E+00 0. -1.
         21    1    1    2  504  503 -0.18954222597E+02 -0.91046594370E+01  0.44361900511E+02  0.49093131849E+02  0.00000000000E+00 0. -1.
</event>
<event>
 4    1  0.1571930E+006  0.2457857E+02  0.7546771E-02  0.1473573E+00
         21   -1    0    0  503  501  0.00000000000E+00  0.00000000000E+00  0.12425435405E+02  0.12425435405E+02  0.00000000000E+00 0. -1.
         21   -1    0    0  504  502 -0.00000000000E+00 -0.00000000000E+00 -0.18176161769E+04  0.18176161769E+04  0.00000000000E+00 0.  1.
         21    1    1    2  503  502 -0.21667270108E+02  0.11603249262E+02 -0.18052955141E+04  0.18054628213E+04  0.00000000000E+00 0.  1.
         21    1    1    2  504  501  0.21667270108E+02 -0.11603249262E+02  0.10477262369E+00  0.24578790952E+02  0.00000000000E+00 0. -1.
</event>
<event>
 4    1  0.1571930E+006  0.2620242E+02  0.7546771E-02  0.1455789E+00
         21   -1    0    0  504  501  0.00000000000E+00  0.00000000000E+00  0.57847028386E+03  0.57847028386E+03  0.00000000000E+00 0. -1.
         21   -1    0    0  503  502 -0.00000000000E+00 -0.00000000000E+00 -0.18683532433E+02  0.18683532433E+02  0.00000000000E+00 0. -1.
         21    1    1    2  503  501 -0.21343448727E+02  0.15199471451E+02 -0.90444344312E+01  0.27719461217E+02  0.00000000000E+00 0. -1.
         21    1    1    2  504  502  0.21343448727E+02 -0.15199471451E+02  0.56883118586E+03  0.56943435508E+03  0.00000000000E+00 0. -1.
</event>
<event>
 4    1  0.1571930E+006  0.2144232E+02  0.7546771E-02  0.1513043E+00
         21   -1    0    0  502  501  0.00000000000E+00  0.00000000000E+00  0.15113223359E+02  0.15113223359E+02  0.00000000000E+00 0.  1.
         21   -1    0    0  504  502 -0.00000000000E+00 -0.00000000000E+00 -0.52270719367E+02  0.52270719367E+02  0.00000000000E+00 0. -1.
         21    1    1    2  503  501  0.10960829537E+01  0.21414282847E+02  0.32039270182E+01  0.21680361068E+02  0.00000000000E+00 0.  1.
         21    1    1    2  504  503 -0.10960829537E+01 -0.21414282847E+02 -0.40361423025E+02  0.45703581658E+02  0.00000000000E+00 0. -1.
</event>
<event>
 4    1  0.1571930E+006  0.2615565E+02  0.7546771E-02  0.1456279E+00
         21   -1    0    0  502  501  0.00000000000E+00  0.00000000000E+00  0.69003792251E+02  0.69003792251E+02  0.00000000000E+00 0. -1.
         21   -1    0    0  504  502 -0.00000000000E+00 -0.00000000000E+00 -0.11920193973E+02  0.11920193973E+02  0.00000000000E+00 0. -1.
         21    1    1    2  503  501  0.23605840359E+02 -0.11264211181E+02  0.45140314221E+02  0.52170548402E+02  0.00000000000E+00 0. -1.
         21    1    1    2  504  503 -0.23605840359E+02  0.11264211181E+02  0.11943284057E+02  0.28753437823E+02  0.00000000000E+00 0. -1.
</event>
<event>
 4    1  0.1571930E+006  0.2650571E+02  0.7546771E-02  0.1452638E+00
         21   -1    0    0  502  501  0.00000000000E+00  0.00000000000E+00  0.29495178434E+02  0.29495178434E+02  0.00000000000E+00 0.  1.
         21   -1    0    0  504  502 -0.00000000000E+00 -0.00000000000E+00 -0.54219070479E+02  0.54219070479E+02  0.00000000000E+00 0.  1.
         21    1    1    2  503  501  0.48368908068E+00 -0.26501296348E+02  0.18980216157E+02  0.32600632948E+02  0.00000000000E+00 0.  1.
         21    1    1    2  504  503 -0.48368908068E+00  0.26501296348E+02 -0.43704108202E+02  0.51113615965E+02  0.00000000000E+00 0.  1.
</event>
<event>
 4    1  0.1571930E+006  0.2574431E+02  0.7546771E-02  0.1460646E+00
         21   -1    0    0  502  501  0.00000000000E+00  0.00000000000E+00  0.47439248819E+02  0.47439248819E+02  0.00000000000E+00 0.  1.
         21   -1    0    0  503  502 -0.00000000000E+00 -0.00000000000E+00 -0.17655327650E+02  0.17655327650E+02  0.00000000000E+00 0.  1.
         21    1    1    2  503  504 -0.17692060316E+02 -0.18701888052E+02  0.23665448639E-01  0.25744323160E+02  0.00000000000E+00 0.  1.
         21    1    1    2  504  501  0.17692060316E+02  0.18701888052E+02  0.29760255721E+02  0.39350253309E+02  0.00000000000E+00 0.  1.
</event>
<event>
 4    1  0.1571930E+006  0.3953916E+02  0.7546771E-02  0.1351208E+00
         21   -1    0    0  504  501  0.00000000000E+00  0.00000000000E+00  0.12063531291E+03  0.12063531291E+03  0.00000000000E+00 0. -1.
         21   -1    0    0  503  502 -0.00000000000E+00 -0.00000000000E+00 -0.19382296975E+02  0.19382296975E+02  0.00000000000E+00 0. -1.
         21    1    1    2  503  501 -0.33611400874E+02 -0.20823527408E+02  0.10325127400E+02  0.40865068436E+02  0.00000000000E+00 0. -1.
         21    1    1    2  504  502  0.33611400874E+02  0.20823527408E+02  0.90927888538E+02  0.99152541452E+02  0.00000000000E+00 0. -1.
</event>
<event>
 4    1  0.1571930E+006  0.2151425E+02  0.7546771E-02  0.1512048E+00
         21   -1    0    0  504  501  0.00000000000E+00  0.00000000000E+00  0.11101497760E+03  0.11101497760E+03  0.00000000000E+00 0.  1.
         21   -1    0    0  503  502 -0.00000000000E+00 -0.00000000000E+00 -0.73234463842E+01  0.73234463842E+01  0.00000000000E+00 0.  1.
         21    1    1    2  503  501  0.63417442536E+01  0.20558341257E+02  0.90676335511E+02  0.93193674341E+02  0.00000000000E+00 0.  1.
         21    1    1    2  504  502 -0.63417442536E+01 -0.20558341257E+02  0.13015195705E+02  0.25144749644E+02  0.00000000000E+00 0.  1.
</event>
<event>
 4    1  0.1571930E+006  0.2005959E+02  0.7546771E-02  0.1533127E+00
         21   -1    0    0  503  501  0.00000000000E+00  0.00000000000E+00  0.16256933841E+01  0.16256933841E+01  0.00000000000E+00 0.  1.
         21   -1    0    0  504  502 -0.00000000000E+00 -0.00000000000E+00 -0.14909095828E+04  0.14909095828E+04  0.00000000000E+00 0.  1.
         21    1    1    2  503  502  0.79274715693E+01  0.18426674819E+02 -0.14261532254E+04  0.14262942927E+04  0.00000000000E+00 0.  1.
         21    1    1    2  504  501 -0.79274715693E+01 -0.18426674819E+02 -0.63130664059E+02  0.66240983499E+02  0.00000000000E+00 0.  1.
</event>
<event>
 4    1  0.1571930E+006  0.2238181E+02  0.7546771E-02  0.1500410E+00
         21   -1    0    0  504  501  0.00000000000E+00  0.00000000000E+00  0.30442812517E+03  0.30442812517E+03  0.00000000000E+00 0. -1.
         21   -1    0    0  503  502 -0.00000000000E+00 -0.00000000000E+00 -0.11967787240E+03  0.11967787240E+03  0.00000000000E+00 0.  1.
         21    1    1    2  503  501 -0.21916221309E+02  0.45414522996E+01 -0.11821499842E+03  0.12031513370E+03  0.00000000000E+00 0.  1.
         21    1    1    2  504  502  0.21916221309E+02 -0.45414522996E+01  0.30296525119E+03  0.30379086387E+03  0.00000000000E+00 0. -1.
</event>
<event>
 4    1  0.1571930E+006  0.4986021E+02  0.7546771E-02  0.1298780E+00
         21   -1    0    0  504  501  0.00000000000E+00  0.00000000000E+00  0.19471867386E+02  0.19471867386E+02  0.00000000000E+00 0.  1.
         21   -1    0    0  503  502 -0.00000000000E+00 -0.00000000000E+00 -0.13747852038E+03  0.13747852038E+03  0.00000000000E+00 0. -1.
         21    1    1    2  503  501  0.29469271618E+02  0.40219433927E+02 -0.79960848689E+02  0.94232574825E+02  0.00000000000E+00 0. -1.
         21    1    1    2  504  502 -0.29469271618E+02 -0.40219433927E+02 -0.38045804309E+02  0.62717812945E+02  0.00000000000E+00 0.  1.
</event>
<event>
 4    1  0.1571930E+006  0.2156007E+02  0.7546771E-02  0.1511417E+00
         21   -1    0    0  503  501  0.00000000000E+00  0.00000000000E+00  0.36223677810E+02  0.36223677810E+02  0.00000000000E+00 0.  1.
         21   -1    0    0  504  502 -0.00000000000E+00 -0.00000000000E+00 -0.24306478113E+02  0.24306478113E+02  0.00000000000E+00 0.  1.
         21    1    1    2  503  502  0.12904985007E+02 -0.17271310353E+02 -0.14835476780E+02  0.26171132391E+02  0.00000000000E+00 0.  1.
         21    1    1    2  504  501 -0.12904985007E+02  0.17271310353E+02  0.26752676477E+02  0.34359023531E+02  0.00000000000E+00 0.  1.
</event>
<event>
 4    1  0.1571930E+006  0.3534632E+02  0.7546771E-02  0.1378145E+00
         21   -1    0    0  504  501  0.00000000000E+00  0.00000000000E+00  0.11545448158E+03  0.11545448158E+03  0.00000000000E+00 0.  1.
         21   -1    0    0  503  502 -0.00000000000E+00 -0.00000000000E+00 -0.21243968667E+02  0.21243968667E+02  0.00000000000E+00 0.  1.
         21    1    1    2  503  501 -0.24280930336E+02 -0.25686548972E+02 -0.76945555642E+00  0.35354694709E+02  0.00000000000E+00 0.  1.
         21    1    1    2  504  502  0.24280930336E+02  0.25686548972E+02  0.94979968470E+02  0.10134375554E+03  0.00000000000E+00 0.  1.
</event>
<event>
 4    1  0.1571930E+006  0.2403333E+02  0.7546771E-02  0.1479915E+00
         21   -1    0    0  503  501  0.00000000000E+00  0.00000000000E+00  0.10872458802E+02  0.10872458802E+02  0.00000000000E+00 0. -1.
         21   -1    0    0  504  502 -0.00000000000E+00 -0.00000000000E+00 -0.11488857982E+03  0.11488857982E+03  0.00000000000E+00 0. -1.
         21    1    1    2  503  502 -0.33421475529E+01  0.23799814191E+02 -0.98112565032E+02  0.10101324924E+03  0.00000000000E+00 0. -1.
         21    1    1    2  504  501  0.33421475529E+01 -0.23799814191E+02 -0.59035559846E+01  0.24747789377E+02  0.00000000000E+00 0. -1.
</event>
<event>
 4    1  0.1571930E+006  0.2253765E+02  0.7546771E-02  0.1498387E+00
         21   -1    0    0  502  501  0.00000000000E+00  0.00000000000E+00  0.33856365345E+03  0.33856365345E+03  0.00000000000E+00 0. -1.
         21   -1    0    0  504  502 -0.00000000000E+00 -0.00000000000E+00 -0.16074683613E+03  0.16074683613E+03  0.00000000000E+00 0.  1.
         21    1    1    2  503  501  0.13083396311E+02  0.18351302273E+02  0.33739587083E+03  0.33814777717E+03  0.00000000000E+00 0. -1.
         21    1    1    2  504  503 -0.13083396311E+02 -0.18351302273E+02 -0.15957905350E+03  0.16116271241E+03  0.00000000000E+00 0.  1.
</event>
<event>
 4    1  0.1571930E+006  0.2810754E+02  0.7546771E-02  0.1436789E+00
         21   -1    0    0  504  501  0.00000000000E+00  0.00000000000E+00  0.81661459308E+01  0.81661459308E+01  0.00000000000E+00 0. -1.
         21   -1    0    0  503  502 -0.00000000000E+00 -0.00000000000E+00 -0.77331691207E+03  0.77331691207E+03  0.00000000000E+00 0.  1.
         21    1    1    2  503  501 -0.22568195353E+02 -0.16754414343E+02 -0.74805890181E+03  0.74858677147E+03  0.00000000000E+00 0.  1.
         21    1    1    2  504  502  0.22568195353E+02  0.16754414343E+02 -0.17091864335E+02  0.32896286537E+02  0.00000000000E+00 0. -1.
</event>
<event>
 4    1  0.1571930E+006  0.2489475E+02  0.7546771E-02  0.1469984E+00
         21   -1    0    0  502  501  0.00000000000E+00  0.00000000000E+00  0.11131933971E+03  0.11131933971E+03  0.00000000000E+00 0.  1.
         21   -1    0    0  503  502 -0.00000000000E+00 -0.00000000000E+00 -0.59317921931E+01  0.59317921931E+01  0.00000000000E+00 0.  1.
         21    1    1    2  503  504  0.24876811891E+02  0.94492791449E+00  0.67226113105E+02  0.71687508967E+02  0.00000000000E+00 0.  1.
         21    1    1    2  504  501 -0.24876811891E+02 -0.94492791449E+00  0.38161434407E+02  0.45563622931E+02  0.00000000000E+00 0.  1.
</event>
<event>
 4    1  0.1571930E+006  0.2027034E+02  0.7546771E-02  0.1529942E+00
         21   -1    0    0  503  501  0.00000000000E+00  0.00000000000E+00  0.48384125208E+02  0.48384125208E+02  0.00000000000E+00 0.  1.
         21   -1    0    0  501  502 -0.00000000000E+00 -0.00000000000E+00 -0.37428544630E+02  0.37428544630E+02  0.00000000000E+00 0. -1.
         21    1    1    2  503  504  0.17468185341E+02 -0.10283441466E+02  0.43203892547E+02  0.47722772328E+02  0.00000000000E+00 0.  1.
         21    1    1    2  504  502 -0.17468185341E+02  0.10283441466E+02 -0.32248311969E+02  0.38089897510E+02  0.00000000000E+00 0. -1.
</event>
<event>
 4    1  0.1571930E+006  0.2045531E+02  0.7546771E-02  0.1527186E+00
         21   -1    0    0  502  501  0.00000000000E+00  0.00000000000E+00  0.36553322361E+02  0.36553322361E+02  0.00000000000E+00 0.  1.
         21   -1    0    0  504  502 -0.00000000000E+00 -0.00000000000E+00 -0.25176558905E+02  0.25176558905E+02  0.00000000000E+00 0.  1.
         21    1    1    2  503  501 -0.13438513026E+02  0.15421612360E+02  0.28481209097E+02  0.35065638904E+02  0.00000000000E+00 0.  1.
         21    1    1    2  504  503  0.13438513026E+02 -0.15421612360E+02 -0.17104445640E+02  0.26664242363E+02  0.00000000000E+00 0.  1.
</event>
<event>
 4    1  0.1571930E+006  0.2052880E+02  0.7546771E-02  0.1526100E+00
         21   -1    0    0  504  501  0.00000000000E+00  0.00000000000E+00  0.83841007125E+01  0.83841007125E+01  0.00000000000E+00 0.  1.
         21   -1    0    0  501  502 -0.00000000000E+00 -0.00000000000E+00 -0.68710235989E+02  0.68710235989E+02  0.00000000000E+00 0.  1.
         21    1    1    2  503  502 -0.35078249489E+01 -0.20226885822E+02 -0.50134855984E+02  0.54175045274E+02  0.00000000000E+00 0.  1.
         21    1    1    2  504  503  0.35078249489E+01  0.20226885822E+02 -0.10191279293E+02  0.22919291428E+02  0.00000000000E+00 0.  1.
</event>
<event>
 4    1  0.1571930E+006  0.2391161E+02  0.7546771E-02  0.1481358E+00
         21   -1    0    0  504  501  0.00000000000E+00  0.00000000000E+00  0.34636427455E+03  0.34636427455E+03  0.00000000000E+00 0.  1.
         21   -1    0    0  501  502 -0.00000000000E+00 -0.00000000000E+00 -0.13502908194E+02  0.13502908194E+02  0.00000000000E+00 0.  1.
         21    1    1    2  503  502 -0.20001910317E+02  0.13102999883E+02 -0.21458385255E+01  0.24007699708E+02  0.00000000000E+00 0.  1.
         21    1    1    2  504  503  0.20001910317E+02 -0.13102999883E+02  0.33500720488E+03  0.33585948303E+03  0.00000000000E+00 0.  1.
</event>
<event>
 4    1  0.1571930E+006  0.2254912E+02  0.7546771E-02  0.1498239E+00
         21   -1    0    0  502  501  0.00000000000E+00  0.00000000000E+00  0.87049205072E+01  0.87049205072E+01  0.00000000000E+00 0. -1.
         21   -1    0    0  503  502 -0.00000000000E+00 -0.00000000000E+00 -0.26842628340E+03  0.26842628340E+03  0.00000000000E+00 0.  1.
         21    1    1    2  503  504  0.21108494834E+02  0.79305813454E+01 -0.25242623075E+03  0.25343138054E+03  0.00000000000E+00 0.  1.
         21    1    1    2  504  501 -0.21108494834E+02 -0.79305813454E+01 -0.72951321508E+01  0.23699823369E+02  0.00000000000E+00 0. -1.
</event>
<event>
 4    1  0.1571930E+006  0.2308760E+02  0.7546771E-02  0.1491401E+00
         21   -1    0    0  504  501  0.00000000000E+00  0.00000000000E+00  0.37681635072E+03  0.37681635072E+03  0.00000000000E+00 0. -1.
         21   -1    0    0  503  502 -0.00000000000E+00 -0.00000000000E+00 -0.64179988846E+02  0.64179988846E+02  0.00000000000E+00 0. -1.
         21    1    1    2  503  501 -0.28578807881E+01 -0.22910041486E+02 -0.61736465758E+02  0.65912280250E+02  0.00000000000E+00 0. -1.
         21    1    1    2  504  502  0.28578807881E+01  0.22910041486E+02  0.37437282763E+03  0.37508405932E+03  0.00000000000E+00 0. -1.
</event>
<event>
 4    1  0.1571930E+006  0.5355002E+02  0.7546771E-02  0.1283473E+00
         21   -1    0    0  503  501  0.00000000000E+00  0.00000000000E+00  0.12444639986E+02  0.12444639986E+02  0.00000000000E+00 0.  1.
         21   -1    0    0  501  502 -0.00000000000E+00 -0.00000000000E+00 -0.21303938778E+04  0.21303938778E+04  0.00000000000E+00 0. -1.
         21    1    1    2  503  504  0.41161413441E+02 -0.34254087372E+02 -0.47156863898E+02  0.71353866545E+02  0.00000000000E+00 0.  1.
         21    1    1    2  504  502 -0.41161413441E+02  0.34254087372E+02 -0.20707923739E+04  0.20714846513E+04  0.00000000000E+00 0. -1.
</event>
<event>
 4    1  0.1571930E+006  0.2484567E+02  0.7546771E-02  0.1470537E+00
         21   -1    0    0  502  501  0.00000000000E+00  0.00000000000E+00  0.60255065943E+02  0.60255065943E+02  0.00000000000E+00 0.  1.
         21   -1    0    0  503  502 -0.00000000000E+00 -0.00000000000E+00 -0.26353580948E+02  0.26353580948E+02  0.00000000000E+00 0.  1.
         21    1    1    2  503  504  0.19836433396E+02  0.14960720665E+02 -0.16905706170E+02  0.30051791191E+02  0.00000000000E+00 0.  1.
         21    1    1    2  504  501 -0.19836433396E+02 -0.14960720665E+02  0.50807191165E+02  0.56556855701E+02  0.00000000000E+00 0.  1.
</event>
<event>
 4    1  0.1571930E+006  0.2960636E+02  0.7546771E-02  0.1423048E+00
         21   -1    0    0  502  501  0.00000000000E+00  0.00000000000E+00  0.25997433628E+03  0.25997433628E+03  0.00000000000E+00 0.  1.
         21   -1    0    0  504  502 -0.00000000000E+00 -0.00000000000E+00 -0.73762395246E+01  0.73762395246E+01  0.00000000000E+00 0. -1.
         21    1    1    2  503  501 -0.18573028490E+02 -0.23056003816E+02  0.22479396797E+03  0.22673523047E+03  0.00000000000E+00 0.  1.
         21    1    1    2  504  503  0.18573028490E+02  0.23056003816E+02  0.27804128780E+02  0.40615345332E+02  0.00000000000E+00 0. -1.
</event>
<event>
 4    1  0.1571930E+006  0.2047050E+02  0.7546771E-02  0.1526961E+00
         21   -1    0    0  503  501  0.00000000000E+00  0.00000000000E+00  0.46489946064E+02  0.46489946064E+02  0.00000000000E+00 0. -1.
         21   -1    0    0  501  502 -0.00000000000E+00 -0.00000000000E+00 -0.10119971871E+03  0.10119971871E+03  0.00000000000E+00 0.  1.
         21    1    1    2  503  504 -0.20279869301E+02  0.27871574791E+01  0.43124683306E+02  0.47736565188E+02  0.00000000000E+00 0. -1.
         21    1    1    2  504  502  0.20279869301E+02 -0.27871574791E+01 -0.97834455950E+02  0.99953099585E+02  0.00000000000E+00 0.  1.
</event>
<event>
 4    1  0.1571930E+006  0.2374088E+02  0.7546771E-02  0.1483399E+00
         21   -1    0    0  504  501  0.00000000000E+00  0.00000000000E+00  0.42904146994E+02  0.42904146994E+02  0.00000000000E+00 0. -1.
         21   -1    0    0  503  502 -0.00000000000E+00 -0.00000000000E+00 -0.13154267269E+02  0.13154267269E+02  0.00000000000E+00 0. -1.
         21    1    1    2  503  501  0.20862086279E+02 -0.11331498887E+02  0.13857864590E+02  0.27489451103E+02  0.00000000000E+00 0. -1.
         21    1    1    2  504  502 -0.20862086279E+02  0.11331498887E+02  0.15892015135E+02  0.28568963159E+02  0.00000000000E+00 0. -1.
</event>
<event>
 4    1  0.1571930E+006  0.2093108E+02  0.7546771E-02  0.1520251E+00
         21   -1    0    0  503  501  0.00000000000E+00  0.00000000000E+00  0.84886413059E+02  0.84886413059E+02  0.00000000000E+00 0.  1.
         21   -1    0    0  504  502 -0.00000000000E+00 -0.00000000000E+00 -0.87214363233E+01  0.87214363233E+01  0.00000000000E+00 0.  1.
         21    1    1    2  503  502 -0.15533369612E+02 -0.14029416785E+02  0.81783195021E+01  0.22472094177E+02  0.00000000000E+00 0.  1.
         21    1    1    2  504  501  0.15533369612E+02  0.14029416785E+02  0.67986657234E+02  0.71135755205E+02  0.00000000000E+00 0.  1.
</event>
<event>
 4    1  0.1571930E+006  0.2053457E+02  0.7546771E-02  0.1526015E+00
         21   -1    0    0  503  501  0.00000000000E+00  0.00000000000E+00  0.70034481459E+01  0.70034481459E+01  0.00000000000E+00 0.  1.
         21   -1    0    0  504  502 -0.00000000000E+00 -0.00000000000E+00 -0.61756480731E+02  0.61756480731E+02  0.00000000000E+00 0.  1.
         21    1    1    2  503  502  0.60970651118E+00 -0.20525512988E+02 -0.32819293190E+02  0.38714008201E+02  0.00000000000E+00 0.  1.
         21    1    1    2  504  501 -0.60970651118E+00  0.20525512988E+02 -0.21933739394E+02  0.30045920676E+02  0.00000000000E+00 0.  1.
</event>
<event>
 4    1  0.1571930E+006  0.4216774E+02  0.7546771E-02  0.1336231E+00
         21   -1    0    0  504  501  0.00000000000E+00  0.00000000000E+00  0.84873101383E+01  0.84873101383E+01  0.00000000000E+00 0.  1.
         21   -1    0    0  503  502 -0.00000000000E+00 -0.00000000000E+00 -0.24311370686E+03  0.24311370686E+03  0.00000000000E+00 0.  1.
         21    1    1    2  503  501  0.38548883114E+02  0.17090981036E+02 -0.70537996525E+02  0.82181062149E+02  0.00000000000E+00 0.  1.
         21    1    1    2  504  502 -0.38548883114E+02 -0.17090981036E+02 -0.16408840019E+03  0.16941995484E+03  0.00000000000E+00 0.  1.
</event>
<event>
 4    1  0.1571930E+006  0.2774127E+02  0.7546771E-02  0.1440301E+00
         21   -1    0    0  503  501  0.00000000000E+00  0.00000000000E+00  0.53589027702E+01  0.53589027702E+01  0.00000000000E+00 0.  1.
         21   -1    0    0  504  502 -0.00000000000E+00 -0.00000000000E+00 -0.14505293458E+03  0.14505293458E+03  0.00000000000E+00 0.  1.
         21    1    1    2  503  502  0.26679847886E+02 -0.76002550927E+01 -0.77354615871E+02  0.82178554120E+02  0.00000000000E+00 0.  1.
         21    1    1    2  504  501 -0.26679847886E+02  0.76002550927E+01 -0.62339415934E+02  0.68233283225E+02  0.00000000000E+00 0.  1.
</event>
<event>
 4    1  0.1571930E+006  0.2914713E+02  0.7546771E-02  0.1427155E+00
         21   -1    0    0  502  501  0.00000000000E+00  0.00000000000E+00  0.13054214352E+03  0.13054214352E+03  0.00000000000E+00 0.  1.
         21   -1    0    0  504  502 -0.00000000000E+00 -0.00000000000E+00 -0.98323555224E+01  0.98323555224E+01  0.00000000000E+00 0.  1.
         21    1    1    2  503  501  0.27000485972E+02 -0.10978564598E+02  0.10116706961E+03  0.10528214994E+03  0.00000000000E+00 0.  1.
         21    1    1    2  504  503 -0.27000485972E+02  0.10978564598E+02  0.19542718389E+02  0.35092349100E+02  0.00000000000E+00 0.  1.
</event>
<event>
 4    1  0.1571930E+006  0.2091769E+02  0.7546771E-02  0.1520443E+00
         21   -1    0    0  504  501  0.00000000000E+00  0.00000000000E+00  0.13363347296E+02  0.13363347296E+02  0.00000000000E+00 0. -1.
         21   -1    0    0  501  502 -0.00000000000E+00 -0.00000000000E+00 -0.53577814325E+02  0.53577814325E+02  0.00000000000E+00 0. -1.
         21    1    1    2  503  502 -0.17936869856E+02  0.10761894946E+02 -0.40979545559E+02  0.46009486384E+02  0.00000000000E+00 0. -1.
         21    1    1    2  504  503  0.17936869856E+02 -0.10761894946E+02  0.76507852979E+00  0.20931675237E+02  0.00000000000E+00 0. -1.
</event>
<event>
 4    1  0.1571930E+006  0.2621658E+02  0.7546771E-02  0.1455640E+00
         21   -1    0    0  503  501  0.00000000000E+00  0.00000000000E+00  0.24110281194E+02  0.24110281194E+02  0.00000000000E+00 0. -1.
         21   -1    0    0  504  502 -0.00000000000E+00 -0.00000000000E+00 -0.21566865019E+03  0.21566865019E+03  0.00000000000E+00 0.  1.
         21    1    1    2  503  502 -0.54938110946E+01 -0.25634495569E+02 -0.20746449757E+03  0.20911438753E+03  0.00000000000E+00 0.  1.
         21    1    1    2  504  501  0.54938110946E+01  0.25634495569E+02  0.15906128570E+02  0.30664543849E+02  0.00000000000E+00 0. -1.
</event>
<event>
 4    1  0.1571930E+006  0.3564213E+02  0.7546771E-02  0.1376104E+00
         21   -1    0    0  502  501  0.00000000000E+00  0.00000000000E+00  0.99974637277E+03  0.99974637277E+03  0.00000000000E+00 0. -1.
         21   -1    0    0  504  502 -0.00000000000E+00 -0.00000000000E+00 -0.13701395593E+02  0.13701395593E+02  0.00000000000E+00 0.  1.
         21    1    1    2  503  501  0.35448936598E+02 -0.37059727775E+01  0.97567767140E+03  0.97632846922E+03  0.00000000000E+00 0. -1.
         21    1    1    2  504  503 -0.35448936598E+02  0.37059727775E+01  0.10367305782E+02  0.37119299149E+02  0.00000000000E+00 0.  1.
</event>
<event>
 4    1  0.1571930E+006  0.2100866E+02  0.7546771E-02  0.1519141E+00
         21   -1    0    0  503  501  0.00000000000E+00  0.00000000000E+00  0.21018692738E+02  0.21018692738E+02  0.00000000000E+00 0. -1.
         21   -1    0    0  504  502 -0.00000000000E+00 -0.00000000000E+00 -0.77546658425E+02  0.77546658425E+02  0.00000000000E+00 0. -1.
         21    1    1    2  503  502 -0.17016969695E+02 -0.12320162338E+02 -0.70348416271E+02  0.73418412741E+02  0.00000000000E+00 0. -1.
         21    1    1    2  504  501  0.17016969695E+02  0.12320162338E+02  0.13820450584E+02  0.25146938421E+02  0.00000000000E+00 0. -1.
</event>
<event>
 4    1  0.1571930E+006  0.4305722E+02  0.7546771E-02  0.1331445E+00
         21   -1    0    0  504  501  0.00000000000E+00  0.00000000000E+00  0.24198617721E+02  0.24198617721E+02  0.00000000000E+00 0.  1.
         21   -1    0    0  503  502 -0.00000000000E+00 -0.00000000000E+00 -0.83217819912E+02  0.83217819912E+02  0.00000000000E+00 0.  1.
         21    1    1    2  503  501  0.14841326960E+02  0.40418553169E+02 -0.44640644548E+02  0.62021863661E+02  0.00000000000E+00 0.  1.
         21    1    1    2  504  502 -0.14841326960E+02 -0.40418553169E+02 -0.14378557643E+02  0.45394573972E+02  0.00000000000E+00 0.  1.
</event>
<event>
 4    1  0.1571930E+006  0.2082446E+02  0.7546771E-02  0.1521786E+00
         21   -1    0    0  503  501  0.00000000000E+00  0.00000000000E+00  0.70612904987E+01  0.70612904987E+01  0.00000000000E+00 0. -1.
         21   -1    0    0  504  502 -0.00000000000E+00 -0.00000000000E+00 -0.62373934791E+02  0.62373934791E+02  0.00000000000E+00 0. -1.
         21    1    1    2  503  502 -0.73884255675E+01 -0.19469704873E+02 -0.23348154520E+02  0.31285692572E+02  0.00000000000E+00 0. -1.
         21    1    1    2  504  501  0.73884255675E+01  0.19469704873E+02 -0.31964489772E+02  0.38149532718E+02  0.00000000000E+00 0. -1.
</event>
<event>
 4    1  0.1571930E+006  0.3648267E+02  0.7546771E-02  0.1370429E+00
         21   -1    0    0  502  501  0.00000000000E+00  0.00000000000E+00  0.34127277433E+02  0.34127277433E+02  0.00000000000E+00 0. -1.
         21   -1    0    0  504  502 -0.00000000000E+00 -0.00000000000E+00 -0.42600791047E+02  0.42600791047E+02  0.00000000000E+00 0.  1.
         21    1    1    2  503  501  0.67853695906E+01  0.35846111038E+02  0.69158685824E+01  0.37132386879E+02  0.00000000000E+00 0. -1.
         21    1    1    2  504  503 -0.67853695906E+01 -0.35846111038E+02 -0.15389382197E+02  0.39595681601E+02  0.00000000000E+00 0.  1.
</event>
<event>
 4    1  0.1571930E+006  0.2351640E+02  0.7546771E-02  0.1486113E+00
         21   -1    0    0  504  501  0.00000000000E+00  0.00000000000E+00  0.10489627549E+03  0.10489627549E+03  0.00000000000E+00 0. -1.
         21   -1    0    0  503  502 -0.00000000000E+00 -0.00000000000E+00 -0.59766269089E+01  0.59766269089E+01  0.00000000000E+00 0.  1.
         21    1    1    2  503  501  0.23502450460E+02 -0.80994777027E+00  0.30426117642E+02  0.38454776398E+02  0.00000000000E+00 0.  1.
         21    1    1    2  504  502 -0.23502450460E+02  0.80994777027E+00  0.68493530937E+02  0.72418126000E+02  0.00000000000E+00 0. -1.
</event>
<event>
 4    1  0.1571930E+006  0.2117437E+02  0.7546771E-02  0.1516790E+00
         21   -1    0    0  504  501  0.00000000000E+00  0.00000000000E+00  0.68848370475E+01  0.68848370475E+01  0.00000000000E+00 0.  1.
         21   -1    0    0  503  502 -0.00000000000E+00 -0.00000000000E+00 -0.83586540488E+02  0.83586540488E+02  0.00000000000E+00 0. -1.
         21    1    1    2  503  501 -0.20473316312E+02 -0.54034467431E+01 -0.59611819865E+02  0.63260753909E+02  0.00000000000E+00 0. -1.
         21    1    1    2  504  502  0.20473316312E+02  0.54034467431E+01 -0.17089883575E+02  0.27210623626E+02  0.00000000000E+00 0.  1.
</event>
<event>
 4    1  0.1571930E+006  0.2402265E+02  0.7546771E-02  0.1480041E+00
         21   -1    0    0  504  501  0.00000000000E+00  0.00000000000E+00  0.46805698218E+03  0.46805698218E+03  0.00000000000E+00 0.  1.
         21   -1    0    0  501  502 -0.00000000000E+00 -0.00000000000E+00 -0.14713793210E+01  0.14713793210E+01  0.00000000000E+00 0.  1.
         21    1    1    2  503  502  0.20544797834E+02 -0.12449866350E+02  0.32779787250E+03  0.32867694337E+03  0.00000000000E+00 0.  1.
         21    1    1    2  504  503 -0.20544797834E+02  0.12449866350E+02  0.13878773036E+03  0.14085141813E+03  0.00000000000E+00 0.  1.
</event>
<event>
 4    1  0.1571930E+006  0.2395808E+02  0.7546771E-02  0.1480806E+00
         21   -1    0    0  503  501  0.00000000000E+00  0.00000000000E+00  0.10609265288E+03  0.10609265288E+03  0.00000000000E+00 0.  1.
         21   -1    0    0  504  502 -0.00000000000E+00 -0.00000000000E+00 -0.11801682159E+03  0.11801682159E+03  0.00000000000E+00 0.  1.
         21    1    1    2  503  502  0.20841556506E+02  0.11816050328E+02  0.10349404865E+03  0.10623091654E+03  0.00000000000E+00 0.  1.
         21    1    1    2  504  501 -0.20841556506E+02 -0.11816050328E+02 -0.11541821736E+03  0.11787855794E+03  0.00000000000E+00 0.  1.
</event>
<event>
 4    1  0.1571930E+006  0.2074223E+02  0.7546771E-02  0.1522977E+00
         21   -1    0    0  504  501  0.00000000000E+00  0.00000000000E+00  0.16262891382E+02  0.16262891382E+02  0.00000000000E+00 0. -1.
         21   -1    0    0  501  502 -0.00000000000E+00 -0.00000000000E+00 -0.47940938128E+02  0.47940938128E+02  0.00000000000E+00 0.  1.
         21    1    1    2  503  502  0.20636417381E+02 -0.20924134029E+01 -0.37329777165E+02  0.42705411593E+02  0.00000000000E+00 0.  1.
         21    1    1    2  504  503 -0.20636417381E+02  0.20924134029E+01  0.56517304191E+01  0.21498417916E+02  0.00000000000E+00 0. -1.
</event>
<event>
 4    1  0.1571930E+006  0.4325032E+02  0.7546771E-02  0.1330424E+00
         21   -1    0    0  503  501  0.00000000000E+00  0.00000000000E+00  0.29030258362E+03  0.29030258362E+03  0.00000000000E+00 0.  1.
         21   -1    0    0  501  502 -0.00000000000E+00 -0.00000000000E+00 -0.22640529412E+02  0.22640529412E+02  0.00000000000E+00 0. -1.
         21    1    1    2  503  504 -0.17151656376E+02  0.39704039184E+02  0.26617635939E+03  0.26966728453E+03  0.00000000000E+00 0.  1.
         21    1    1    2  504  502  0.17151656376E+02 -0.39704039184E+02  0.14856948164E+01  0.43275828508E+02  0.00000000000E+00 0. -1.
</event>
<event>
 4    1  0.1571930E+006  0.2111410E+02  0.7546771E-02  0.1517642E+00
         21   -1    0    0  503  501  0.00000000000E+00  0.00000000000E+00  0.32805538208E+02  0.32805538208E+02  0.00000000000E+00 0. -1.
         21   -1    0    0  501  502 -0.00000000000E+00 -0.00000000000E+00 -0.38354838230E+02  0.38354838230E+02  0.00000000000E+00 0. -1.
         21    1    1    2  503  504  0.41830918022E+01  0.20695577861E+02  0.25815853807E+02  0.33350614804E+02  0.00000000000E+00 0. -1.
         21    1    1    2  504  502 -0.41830918022E+01 -0.20695577861E+02 -0.31365153830E+02  0.37809761633E+02  0.00000000000E+00 0. -1.
</event>
<event>
 4    1  0.1571930E+006  0.2167019E+02  0.7546771E-02  0.1509908E+00
         21   -1    0    0  504  501  0.00000000000E+00  0.00000000000E+00  0.11049017270E+02  0.11049017270E+02  0.00000000000E+00 0. -1.
         21   -1    0    0  503  502 -0.00000000000E+00 -0.00000000000E+00 -0.73106222793E+02  0.73106222793E+02  0.00000000000E+00 0. -1.
         21    1    1    2  503  501 -0.10099925339E+02  0.19172598460E+02 -0.58253735604E+02  0.62153799042E+02  0.00000000000E+00 0. -1.
         21    1    1    2  504  502  0.10099925339E+02 -0.19172598460E+02 -0.38034699191E+01  0.22001441020E+02  0.00000000000E+00 0. -1.
</event>
<event>
 4    1  0.1571930E+006  0.2927186E+02  0.7546771E-02  0.1426031E+00
         21   -1    0    0  503  501  0.00000000000E+00  0.00000000000E+00  0.10408372497E+02  0.10408372497E+02  0.00000000000E+00 0.  1.
         21   -1    0    0  501  502 -0.00000000000E+00 -0.00000000000E+00 -0.11838980848E+03  0.11838980848E+03  0.00000000000E+00 0.  1.
         21    1    1    2  503  504  0.26858583672E+02  0.11638663717E+02 -0.18445583948E+02  0.34598866704E+02  0.00000000000E+00 0.  1.
         21    1    1    2  504  502 -0.26858583672E+02 -0.11638663717E+02 -0.89535852038E+02  0.94199314276E+02  0.00000000000E+00 0.  1.
</event>
<event>
 4    1  0.1571930E+006  0.3785413E+02  0.7546771E-02  0.1361541E+00
         21   -1    0    0  503  501  0.00000000000E+00  0.00000000000E+00  0.18003471353E+02  0.18003471353E+02  0.00000000000E+00 0. -1.
         21   -1    0    0  504  502 -0.00000000000E+00 -0.00000000000E+00 -0.97435302677E+02  0.97435302677E+02  0.00000000000E+00 0. -1.
         21    1    1    2  503  502 -0.37435085419E+02 -0.56169132513E+01 -0.64416038056E+02  0.74715201222E+02  0.00000000000E+00 0. -1.
         21    1    1    2  504  501  0.37435085419E+02  0.56169132513E+01 -0.15015793269E+02  0.40723572808E+02  0.00000000000E+00 0. -1.
</event>
<event>
 4    1  0.1571930E+006  0.2610041E+02  0.7546771E-02  0.1456860E+00
         21   -1    0    0  503  501  0.00000000000E+00  0.00000000000E+00  0.16111910145E+02  0.16111910145E+02  0.00000000000E+00 0. -1.
         21   -1    0    0  504  502 -0.00000000000E+00 -0.00000000000E+00 -0.33903397148E+03  0.33903397148E+03  0.00000000000E+00 0.  1.
         21    1    1    2  503  502 -0.64009398813E+01  0.25303346845E+02 -0.32759274548E+03  0.32863085412E+03  0.00000000000E+00 0.  1.
         21    1    1    2  504  501  0.64009398813E+01 -0.25303346845E+02  0.46706841436E+01  0.26515027499E+02  0.00000000000E+00 0. -1.
</event>
<event>
 4    1  0.1571930E+006  0.2048454E+02  0.7546771E-02  0.1526753E+00
         21   -1    0    0  502  501  0.00000000000E+00  0.00000000000E+00  0.21142022947E+01  0.21142022947E+01  0.00000000000E+00 0. -1.
         21   -1    0    0  503  502 -0.00000000000E+00 -0.00000000000E+00 -0.84867020393E+03  0.84867020393E+03  0.00000000000E+00 0. -1.
         21    1    1    2  503  504 -0.19230647784E+02 -0.70568085996E+01 -0.79561990836E+03  0.79588356871E+03  0.00000000000E+00 0. -1.
         21    1    1    2  504  501  0.19230647784E+02  0.70568085996E+01 -0.50936093275E+02  0.54900837516E+02  0.00000000000E+00 0. -1.
</event>
<event>
 4    1  0.1571930E+006  0.2054709E+02  0.7546771E-02  0.1525830E+00
         21   -1    0    0  503  501  0.00000000000E+00  0.00000000000E+00  0.20241003047E+03  0.20241003047E+03  0.00000000000E+00 0.  1.
         21   -1    0    0  504  502 -0.00000000000E+00 -0.00000000000E+00 -0.21199715888E+01  0.21199715888E+01  0.00000000000E+00 0. -1.
         21    1    1    2  503  502 -0.13245276234E+02  0.15708143326E+02  0.87157942909E+02  0.89547139102E+02  0.00000000000E+00 0. -1.
         21    1    1    2  504  501  0.13245276234E+02 -0.15708143326E+02  0.11313211597E+03  0.11498286295E+03  0.00000000000E+00 0.  1.
</event>
<event>
 4    1  0.1571930E+006  0.3385947E+02  0.7546771E-02  0.1388764E+00
         21   -1    0    0  504  501  0.00000000000E+00  0.00000000000E+00  0.14029246348E+02  0.14029246348E+02  0.00000000000E+00 0.  1.
         21   -1    0    0  503  502 -0.00000000000E+00 -0.00000000000E+00 -0.15026153411E+03  0.15026153411E+03  0.00000000000E+00 0. -1.
         21    1    1    2  503  501  0.19702769763E+02  0.27536603893E+02 -0.12635994006E+02  0.36140448736E+02  0.00000000000E+00 0.  1.
         21    1    1    2  504  502 -0.19702769763E+02 -0.27536603893E+02 -0.12359629375E+03  0.12815033172E+03  0.00000000000E+00 0. -1.
</event>
<event>
 4    1  0.1571930E+006  0.3258187E+02  0.7546771E-02  0.1398410E+00
         21   -1    0    0  504  501  0.00000000000E+00  0.00000000000E+00  0.21391790678E+02  0.21391790678E+02  0.00000000000E+00 0. -1.
         21   -1    0    0  503  502 -0.00000000000E+00 -0.00000000000E+00 -0.19424065414E+03  0.19424065414E+03  0.00000000000E+00 0. -1.
         21    1    1    2  503  501 -0.32234731432E+02  0.47434716764E+01 -0.17945398573E+03  0.18238780504E+03  0.00000000000E+00 0. -1.
         21    1    1    2  504  502  0.32234731432E+02 -0.47434716764E+01  0.66051222622E+01  0.33244639781E+02  0.00000000000E+00 0. -1.
</event>
<event>
 4    1  0.1571930E+006  0.2169706E+02  0.7546771E-02  0.1509541E+00
         21   -1    0    0  504  501  0.00000000000E+00  0.00000000000E+00  0.10409364513E+03  0.10409364513E+03  0.00000000000E+00 0.  1.
         21   -1    0    0  503  502 -0.00000000000E+00 -0.00000000000E+00 -0.12184760173E+02  0.12184760173E+02  0.00000000000E+00 0.  1.
         21    1    1    2  503  501  0.19655126929E+02  0.91890422859E+01 -0.14963084855E+00  0.21697578254E+02  0.00000000000E+00 0.  1.
         21    1    1    2  504  502 -0.19655126929E+02 -0.91890422859E+01  0.92058515804E+02  0.94580827046E+02  0.00000000000E+00 0.  1.
</event>
<event>
 4    1  0.1571930E+006  0.2488031E+02  0.7546771E-02  0.1470147E+00
         21   -1    0    0  504  501  0.00000000000E+00  0.00000000000E+00  0.69840282928E+01  0.69840282928E+01  0.00000000000E+00 0.  1.
         21   -1    0    0  503  502 -0.00000000000E+00 -0.00000000000E+00 -0.11613775810E+03  0.11613775810E+03  0.00000000000E+00 0.  1.
         21    1    1    2  503  501  0.18627500702E+02 -0.16493825355E+02 -0.84534361298E+02  0.88119738409E+02  0.00000000000E+00 0.  1.
         21    1    1    2  504  502 -0.18627500702E+02  0.16493825355E+02 -0.24619368509E+02  0.35002047984E+02  0.00000000000E+00 0.  1.
</event>
<event>
 4    1  0.1571930E+006  0.3185585E+02  0.7546771E-02  0.1404126E+00
         21   -1    0    0  504  501  0.00000000000E+00  0.00000000000E+00  0.88250882511E+02  0.88250882511E+02  0.00000000000E+00 0.  1.
         21   -1    0    0  503  502 -0.00000000000E+00 -0.00000000000E+00 -0.13265817183E+02  0.13265817183E+02  0.00000000000E+00 0. -1.
         21    1    1    2  503  501  0.29639609644E+02  0.11674288948E+02  0.18968383498E+02  0.37075531754E+02  0.00000000000E+00 0. -1.
         21    1    1    2  504  502 -0.29639609644E+02 -0.11674288948E+02  0.56016681830E+02  0.64441167940E+02  0.00000000000E+00 0.  1.
</event>
<event>
 4    1  0.1571930E+006  0.2051411E+02  0.7546771E-02  0.1526316E+00
         21   -1    0    0  503  501  0.00000000000E+00  0.00000000000E+00  0.20673591691E+02  0.20673591691E+02  0.00000000000E+00 0. -1.
         21   -1    0    0  501  502 -0.00000000000E+00 -0.00000000000E+00 -0.21851947546E+03  0.21851947546E+03  0.00000000000E+00 0.  1.
         21    1    1    2  503  504  0.15797122292E+02  0.13087387451E+02  0.14967026841E+02  0.25393713305E+02  0.00000000000E+00 0. -1.
         21    1    1    2  504  502 -0.15797122292E+02 -0.13087387451E+02 -0.21281291061E+03  0.21379935385E+03  0.00000000000E+00 0.  1.
</event>
<event>
 4    1  0.1571930E+006  0.2100188E+02  0.7546771E-02  0.1519238E+00
         21   -1    0    0  504  501  0.00000000000E+00  0.00000000000E+00  0.55939793781E+03  0.55939793781E+03  0.00000000000E+00 0. -1.
         21   -1    0    0  501  502 -0.00000000000E+00 -0.00000000000E+00 -0.39161045282E+02  0.39161045282E+02  0.00000000000E+00 0.  1.
         21    1    1    2  503  502 -0.16500187605E+02  0.12993179910E+02 -0.36132801089E+02  0.41793040446E+02  0.00000000000E+00 0.  1.
         21    1    1    2  504  503  0.16500187605E+02 -0.12993179910E+02  0.55636969361E+03  0.55676594264E+03  0.00000000000E+00 0. -1.
</event>
<event>
 4    1  0.1571930E+006  0.3402442E+02  0.7546771E-02  0.1387555E+00
         21   -1    0    0  502  501  0.00000000000E+00  0.00000000000E+00  0.36045489269E+02  0.36045489269E+02  0.00000000000E+00 0. -1.
         21   -1    0    0  504  502 -0.00000000000E+00 -0.00000000000E+00 -0.78525515713E+02  0.78525515713E+02  0.00000000000E+00 0.  1.
         21    1    1    2  503  501 -0.10744545845E+02 -0.32283369072E+02  0.22799214919E+02  0.40956872256E+02  0.00000000000E+00 0. -1.
         21    1    1    2  504  503  0.10744545845E+02  0.32283369072E+02 -0.65279241363E+02  0.73614132726E+02  0.00000000000E+00 0.  1.
</event>
<event>
 4    1  0.1571930E+006  0.2508929E+02  0.7546771E-02  0.1467807E+00
         21   -1    0    0  503  501  0.00000000000E+00  0.00000000000E+00  0.65419860988E+01  0.65419860988E+01  0.00000000000E+00 0.  1.
         21   -1    0    0  501  502 -0.00000000000E+00 -0.00000000000E+00 -0.20567324317E+03  0.20567324317E+03  0.00000000000E+00 0.  1.
         21    1    1    2  503  504  0.72540418564E+01 -0.24017731176E+02 -0.22160244005E+02  0.33474601543E+02  0.00000000000E+00 0.  1.
         21    1    1    2  504  502 -0.72540418564E+01  0.24017731176E+02 -0.17697101307E+03  0.17874062773E+03  0.00000000000E+00 0.  1.
</event>
<event>
 4    1  0.1571930E+006  0.2035839E+02  0.7546771E-02  0.1528626E+00
         21   -1    0    0  504  501  0.00000000000E+00  0.00000000000E+00  0.27277451380E+03  0.27277451380E+03  0.00000000000E+00 0. -1.
         21   -1    0    0  501  502 -0.00000000000E+00 -0.00000000000E+00 -0.61725985738E+01  0.61725985738E+01  0.00000000000E+00 0. -1.
         21    1    1    2  503  502 -0.62289153236E+01  0.19382072236E+02  0.12204384955E+02  0.23736282826E+02  0.00000000000E+00 0. -1.
         21    1    1    2  504  503  0.62289153236E+01 -0.19382072236E+02  0.25439753027E+03  0.25521082955E+03  0.00000000000E+00 0. -1.
</event>
<event>
 4    1  0.1571930E+006  0.2247814E+02  0.7546771E-02  0.1499157E+00
         21   -1    0    0  504  501  0.00000000000E+00  0.00000000000E+00  0.76401425059E+01  0.76401425059E+01  0.00000000000E+00 0.  1.
         21   -1    0    0  501  502 -0.00000000000E+00 -0.00000000000E+00 -0.91023411818E+02  0.91023411818E+02  0.00000000000E+00 0.  1.
         21    1    1    2  503  502  0.21123460430E+02  0.76854612023E+01 -0.67488367464E+02  0.71133301888E+02  0.00000000000E+00 0.  1.
         21    1    1    2  504  503 -0.21123460430E+02 -0.76854612023E+01 -0.15894901848E+02  0.27530252436E+02  0.00000000000E+00 0.  1.
</event>
<event>
 4    1  0.1571930E+006  0.3347729E+02  0.7546771E-02  0.1391596E+00
         21   -1    0    0  504  501  0.00000000000E+00  0.00000000000E+00  0.20752198213E+01  0.20752198213E+01  0.00000000000E+00 0.  1.
         21   -1    0    0  503  502 -0.00000000000E+00 -0.00000000000E+00 -0.71405629125E+03  0.71405629125E+03  0.00000000000E+00 0. -1.
         21    1    1    2  503  501 -0.69396424867E+01 -0.32750121643E+02 -0.17923417750E+03  0.18233381335E+03  0.00000000000E+00 0.  1.
         21    1    1    2  504  502  0.69396424867E+01  0.32750121643E+02 -0.53274689393E+03  0.53379769773E+03  0.00000000000E+00 0. -1.
</event>
<event>
 4    1  0.1571930E+006  0.2568229E+02  0.7546771E-02  0.1461313E+00
         21   -1    0    0  503  501  0.00000000000E+00  0.00000000000E+00  0.31002449603E+02  0.31002449603E+02  0.00000000000E+00 0. -1.
         21   -1    0    0  504  502 -0.00000000000E+00 -0.00000000000E+00 -0.57290670817E+02  0.57290670817E+02  0.00000000000E+00 0. -1.
         21    1    1    2  503  502  0.25606875197E+02  0.19667777933E+01 -0.48146690580E+02  0.54568160002E+02  0.00000000000E+00 0. -1.
         21    1    1    2  504  501 -0.25606875197E+02 -0.19667777933E+01  0.21858469365E+02  0.33724960418E+02  0.00000000000E+00 0. -1.
</event>
<event>
 4    1  0.1571930E+006  0.3188391E+02  0.7546771E-02  0.1403902E+00
         21   -1    0    0  504  501  0.00000000000E+00  0.00000000000E+00  0.13812885413E+03  0.13812885413E+03  0.00000000000E+00 0.  1.
         21   -1    0    0  503  502 -0.00000000000E+00 -0.00000000000E+00 -0.98914252692E+01  0.98914252692E+01  0.00000000000E+00 0.  1.
         21    1    1    2  503  501  0.21651585616E+02  0.23404974528E+02  0.10156182305E+03  0.10644899198E+03  0.00000000000E+00 0.  1.
         21    1    1    2  504  502 -0.21651585616E+02 -0.23404974528E+02  0.26675605813E+02  0.41571287421E+02  0.00000000000E+00 0.  1.
</event>
<event>
 4    1  0.1571930E+006  0.5965245E+02  0.7546771E-02  0.1261018E+00
         21   -1    0    0  502  501  0.00000000000E+00  0.00000000000E+00  0.20167569148E+03  0.20167569148E+03  0.00000000000E+00 0. -1.
         21   -1    0    0  504  502 -0.00000000000E+00 -0.00000000000E+00 -0.13156015515E+03  0.13156015515E+03  0.00000000000E+00 0.  1.
         21    1    1    2  503  501 -0.18736547710E+02 -0.56633528073E+02  0.19010061227E+03  0.19924020053E+03  0.00000000000E+00 0. -1.
         21    1    1    2  504  503  0.18736547710E+02  0.56633528073E+02 -0.11998507594E+03  0.13399564609E+03  0.00000000000E+00 0.  1.
</event>
<event>
 4    1  0.1571930E+006  0.3008830E+02  0.7546771E-02  0.1418831E+00
         21   -1    0    0  504  501  0.00000000000E+00  0.00000000000E+00  0.29125542195E+02  0.29125542195E+02  0.00000000000E+00 0.  1.
         21   -1    0    0  503  502 -0.00000000000E+00 -0.00000000000E+00 -0.31103385713E+02  0.31103385713E+02  0.00000000000E+00 0.  1.
         21    1    1    2  503  501 -0.66155361367E+01  0.29352013069E+02 -0.21585780317E+00  0.30089077490E+02  0.00000000000E+00 0.  1.
         21    1    1    2  504  502  0.66155361367E+01 -0.29352013069E+02 -0.17619857142E+01  0.30139850418E+02  0.00000000000E+00 0.  1.
</event>
<event>
 4    1  0.1571930E+006  0.2761262E+02  0.7546771E-02  0.1441549E+00
         21   -1    0    0  504  501  0.00000000000E+00  0.00000000000E+00  0.73568321250E+00  0.73568321250E+00  0.00000000000E+00 0.  1.
         21   -1    0    0  503  502 -0.00000000000E+00 -0.00000000000E+00 -0.15713318154E+04  0.15713318154E+04  0.00000000000E+00 0.  1.
         21    1    1    2  503  501  0.26103191674E+02 -0.90044657335E+01 -0.32667145626E+03  0.32783638808E+03  0.00000000000E+00 0.  1.
         21    1    1    2  504  502 -0.26103191674E+02  0.90044657335E+01 -0.12439246759E+04  0.12442311105E+04  0.00000000000E+00 0.  1.
</event>
<event>
 4    1  0.1571930E+006  0.4652866E+02  0.7546771E-02  0.1313968E+00
         21   -1    0    0  504  501  0.00000000000E+00  0.00000000000E+00  0.43665027274E+02  0.43665027274E+02  0.00000000000E+00 0. -1.
         21   -1    0    0  503  502 -0.00000000000E+00 -0.00000000000E+00 -0.15219374541E+03  0.15219374541E+03  0.00000000000E+00 0.  1.
         21    1    1    2  503  501  0.88887160013E+01  0.45671725210E+02 -0.13467568455E+03  0.14248668627E+03  0.00000000000E+00 0.  1.
         21    1    1    2  504  502 -0.88887160013E+01 -0.45671725210E+02  0.26146966410E+02  0.53372086415E+02  0.00000000000E+00 0. -1.
</event>
<event>
 4    1  0.1571930E+006  0.2040369E+02  0.7546771E-02  0.1527951E+00
         21   -1    0    0  504  501  0.00000000000E+00  0.00000000000E+00  0.16795728832E+01  0.16795728832E+01  0.00000000000E+00 0.  1.
         21   -1    0    0  503  502 -0.00000000000E+00 -0.00000000000E+00 -0.34822782481E+03  0.34822782481E+03  0.00000000000E+00 0.  1.
         21    1    1    2  503  501  0.91127782697E+01 -0.18255626921E+02 -0.26719747475E+03  0.26797537416E+03  0.00000000000E+00 0.  1.
         21    1    1    2  504  502 -0.91127782697E+01  0.18255626921E+02 -0.79350777169E+02  0.81932023528E+02  0.00000000000E+00 0.  1.
</event>
<event>
 4    1  0.1571930E+006  0.2372003E+02  0.7546771E-02  0.1483649E+00
         21   -1    0    0  502  501  0.00000000000E+00  0.00000000000E+00  0.41262456909E+03  0.41262456909E+03  0.00000000000E+00 0. -1.
         21   -1    0    0  504  502 -0.00000000000E+00 -0.00000000000E+00 -0.24171329275E+03  0.24171329275E+03  0.00000000000E+00 0.  1.
         21    1    1    2  503  501  0.23592335265E+02 -0.24579061799E+01  0.41170044452E+03  0.41238319026E+03  0.00000000000E+00 0. -1.
         21    1    1    2  504  503 -0.23592335265E+02  0.24579061799E+01 -0.24078916818E+03  0.24195467158E+03  0.00000000000E+00 0.  1.
</event>
<event>
 4    1  0.1571930E+006  0.2672169E+02  0.7546771E-02  0.1450424E+00
         21   -1    0    0  502  501  0.00000000000E+00  0.00000000000E+00  0.28928570018E+03  0.28928570018E+03  0.00000000000E+00 0. -1.
         21   -1    0    0  503  502 -0.00000000000E+00 -0.00000000000E+00 -0.23144201497E+02  0.23144201497E+02  0.00000000000E+00 0. -1.
         21    1    1    2  503  504 -0.20151125668E+02  0.17549386790E+02 -0.14579281903E+02  0.30440175808E+02  0.00000000000E+00 0. -1.
         21    1    1    2  504  501  0.20151125668E+02 -0.17549386790E+02  0.28072078059E+03  0.28198972587E+03  0.00000000000E+00 0. -1.
</event>
<event>
 4    1  0.1571930E+006  0.2135032E+02  0.7546771E-02  0.1514322E+00
         21   -1    0    0  502  501  0.00000000000E+00  0.00000000000E+00  0.26345559035E+02  0.26345559035E+02  0.00000000000E+00 0.  1.
         21   -1    0    0  503  502 -0.00000000000E+00 -0.00000000000E+00 -0.74841033400E+02  0.74841033400E+02  0.00000000000E+00 0. -1.
         21    1    1    2  503  504 -0.20954425621E+02 -0.40924561284E+01 -0.68608970407E+02  0.71854206353E+02  0.00000000000E+00 0. -1.
         21    1    1    2  504  501  0.20954425621E+02  0.40924561284E+01  0.20113496042E+02  0.29332386082E+02  0.00000000000E+00 0.  1.
</event>
<event>
 4    1  0.1571930E+006  0.2860025E+02  0.7546771E-02  0.1432163E+00
         21   -1    0    0  504  501  0.00000000000E+00  0.00000000000E+00  0.50684408156E+01  0.50684408156E+01  0.00000000000E+00 0.  1.
         21   -1    0    0  503  502 -0.00000000000E+00 -0.00000000000E+00 -0.16447670516E+03  0.16447670516E+03  0.00000000000E+00 0. -1.
         21    1    1    2  503  501  0.68451433332E+01 -0.27769018989E+02 -0.68083075200E+02  0.73846323752E+02  0.00000000000E+00 0.  1.
         21    1    1    2  504  502 -0.68451433332E+01  0.27769018989E+02 -0.91325189145E+02  0.95698822225E+02  0.00000000000E+00 0. -1.
</event>
<event>
 4    1  0.1571930E+006  0.2081345E+02  0.7546771E-02  0.1521945E+00
         21   -1    0    0  502  501  0.00000000000E+00  0.00000000000E+00  0.35015807384E+02  0.35015807384E+02  0.00000000000E+00 0.  1.
         21   -1    0    0  503  502 -0.00000000000E+00 -0.00000000000E+00 -0.11094957311E+03  0.11094957311E+03  0.00000000000E+00 0.  1.
         21    1    1    2  503  504  0.15968757391E+02 -0.13349100978E+02 -0.10676033588E+03  0.10877025801E+03  0.00000000000E+00 0.  1.
         21    1    1    2  504  501 -0.15968757391E+02  0.13349100978E+02  0.30826570153E+02  0.37195122489E+02  0.00000000000E+00 0.  1.
</event>
<event>
 4    1  0.1571930E+006  0.2378544E+02  0.7546771E-02  0.1482864E+00
         21   -1    0    0  504  501  0.00000000000E+00  0.00000000000E+00  0.21813490691E+02  0.21813490691E+02  0.00000000000E+00 0. -1.
         21   -1    0    0  503  502 -0.00000000000E+00 -0.00000000000E+00 -0.68385542722E+02  0.68385542722E+02  0.00000000000E+00 0.  1.
         21    1    1    2  503  501 -0.23709566472E+02 -0.18983718427E+01 -0.58818706248E+02  0.63445942050E+02  0.00000000000E+00 0.  1.
         21    1    1    2  504  502  0.23709566472E+02  0.18983718427E+01  0.12246654217E+02  0.26753091362E+02  0.00000000000E+00 0. -1.
</event>
<event>
 4    1  0.1571930E+006  0.2349758E+02  0.7546771E-02  0.1486343E+00
         21   -1    0    0  504  501  0.00000000000E+00  0.00000000000E+00  0.11243391725E+02  0.11243391725E+02  0.00000000000E+00 0.  1.
         21   -1    0    0  501  502 -0.00000000000E+00 -0.00000000000E+00 -0.17928578878E+03  0.17928578878E+03  0.00000000000E+00 0. -1.
         21    1    1    2  503  502  0.15114051382E+02 -0.17991716008E+02 -0.16519719382E+03  0.16685996896E+03  0.00000000000E+00 0. -1.
         21    1    1    2  504  503 -0.15114051382E+02  0.17991716008E+02 -0.28452032388E+01  0.23669211553E+02  0.00000000000E+00 0.  1.
</event>
<event>
 4    1  0.1571930E+006  0.3381909E+02  0.7546771E-02  0.1389061E+00
         21   -1    0    0  504  501  0.00000000000E+00  0.00000000000E+00  0.18485201571E+03  0.18485201571E+03  0.00000000000E+00 0.  1.
         21   -1    0    0  501  502 -0.00000000000E+00 -0.00000000000E+00 -0.26240576879E+02  0.26240576879E+02  0.00000000000E+00 0.  1.
         21    1    1    2  503  502 -0.51500192472E+01  0.33424662311E+02 -0.12961880941E+02  0.36217966624E+02  0.00000000000E+00 0.  1.
         21    1    1    2  504  503  0.51500192472E+01 -0.33424662311E+02  0.17157331977E+03  0.17487462596E+03  0.00000000000E+00 0.  1.
</event>
<event>
 4    1  0.1571930E+006  0.2142283E+02  0.7546771E-02  0.1513313E+00
         21   -1    0    0  503  501  0.00000000000E+00  0.00000000000E+00  0.61830876279E+03  0.61830876279E+03  0.00000000000E+00 0.  1.
         21   -1    0    0  504  502 -0.00000000000E+00 -0.00000000000E+00 -0.45704557004E+02  0.45704557004E+02  0.00000000000E+00 0. -1.
         21    1    1    2  503  502  0.21398768317E+02 -0.10151425583E+01  0.61560181544E+03  0.61597445806E+03  0.00000000000E+00 0.  1.
         21    1    1    2  504  501 -0.21398768317E+02  0.10151425583E+01 -0.42997609663E+02  0.48038861733E+02  0.00000000000E+00 0. -1.
</event>
<event>
 4    1  0.1571930E+006  0.2843146E+02  0.7546771E-02  0.1433735E+00
         21   -1    0    0  502  501  0.00000000000E+00  0.00000000000E+00  0.10404268100E+03  0.10404268100E+03  0.00000000000E+00 0. -1.
         21   -1    0    0  504  502 -0.00000000000E+00 -0.00000000000E+00 -0.20481930880E+02  0.20481930880E+02  0.00000000000E+00 0.  1.
         21    1    1    2  503  501  0.15437159562E+02  0.23875557319E+02  0.90832286964E+02  0.95178004223E+02  0.00000000000E+00 0. -1.
         21    1    1    2  504  503 -0.15437159562E+02 -0.23875557319E+02 -0.72715368483E+01  0.29346607654E+02  0.00000000000E+00 0.  1.
</event>
<event>
 4    1  0.1571930E+006  0.2227794E+02  0.7546771E-02  0.1501770E+00
         21   -1    0    0  502  501  0.00000000000E+00  0.00000000000E+00  0.23144315333E+03  0.23144315333E+03  0.00000000000E+00 0. -1.
         21   -1    0    0  504  502 -0.00000000000E+00 -0.00000000000E+00 -0.24905334817E+03  0.24905334817E+03  0.00000000000E+00 0.  1.
         21    1    1    2  503  501 -0.11994813322E+02  0.18773146421E+02  0.23040662443E+03  0.23148114211E+03  0.00000000000E+00 0. -1.
         21    1    1    2  504  503  0.11994813322E+02 -0.18773146421E+02 -0.24801681926E+03  0.24901535939E+03  0.00000000000E+00 0.  1.
</event>
<event>
 4    1  0.1571930E+006  0.2584684E+02  0.7546771E-02  0.1459549E+00
         21   -1    0    0  502  501  0.00000000000E+00  0.00000000000E+00  0.17924024618E+03  0.17924024618E+03  0.00000000000E+00 0. -1.
         21   -1    0    0  503  502 -0.00000000000E+00 -0.00000000000E+00 -0.29916061741E+02  0.29916061741E+02  0.00000000000E+00 0. -1.
         21    1    1    2  503  504  0.25182662111E+01 -0.25723870529E+02 -0.23184860911E+02  0.34721707262E+02  0.00000000000E+00 0. -1.
         21    1    1    2  504  501 -0.25182662111E+01  0.25723870529E+02  0.17250904535E+03  0.17443460066E+03  0.00000000000E+00 0. -1.
</event>
<event>
 4    1  0.1571930E+006  0.2902063E+02  0.7546771E-02  0.1428302E+00
         21   -1    0    0  504  501  0.00000000000E+00  0.00000000000E+00  0.17280776667E+02  0.17280776667E+02  0.00000000000E+00 0.  1.
         21   -1    0    0  501  502 -0.00000000000E+00 -0.00000000000E+00 -0.10968463664E+03  0.10968463664E+03  0.00000000000E+00 0.  1.
         21    1    1    2  503  502 -0.85763429778E+00 -0.29007958677E+02 -0.93524058444E+02  0.97923167387E+02  0.00000000000E+00 0.  1.
         21    1    1    2  504  503  0.85763429778E+00  0.29007958677E+02  0.11201984756E+01  0.29042245916E+02  0.00000000000E+00 0.  1.
</event>
<event>
 4    1  0.1571930E+006  0.2061950E+02  0.7546771E-02  0.1524767E+00
         21   -1    0    0  504  501  0.00000000000E+00  0.00000000000E+00  0.63467707894E+02  0.63467707894E+02  0.00000000000E+00 0. -1.
         21   -1    0    0  501  502 -0.00000000000E+00 -0.00000000000E+00 -0.35154807315E+02  0.35154807315E+02  0.00000000000E+00 0.  1.
         21    1    1    2  503  502  0.16992465224E+02  0.11679900350E+02 -0.30208492142E+02  0.36574812974E+02  0.00000000000E+00 0.  1.
         21    1    1    2  504  503 -0.16992465224E+02 -0.11679900350E+02  0.58521392721E+02  0.62047702234E+02  0.00000000000E+00 0. -1.
</event>
<event>
 4    1  0.1571930E+006  0.3157384E+02  0.7546771E-02  0.1406396E+00
         21   -1    0    0  503  501  0.00000000000E+00  0.00000000000E+00  0.14090236384E+03  0.14090236384E+03  0.00000000000E+00 0. -1.
         21   -1    0    0  504  502 -0.00000000000E+00 -0.00000000000E+00 -0.43748332056E+02  0.43748332056E+02  0.00000000000E+00 0.  1.
         21    1    1    2  503  502  0.31498992914E+02 -0.21727238509E+01  0.13310770696E+03  0.13680120225E+03  0.00000000000E+00 0. -1.
         21    1    1    2  504  501 -0.31498992914E+02  0.21727238509E+01 -0.35953675179E+02  0.47849493648E+02  0.00000000000E+00 0.  1.
</event>
<event>
 4    1  0.1571930E+006  0.2108738E+03  0.7546771E-02  0.1047684E+00
         21   -1    0    0  503  501  0.00000000000E+00  0.00000000000E+00  0.10051548146E+04  0.10051548146E+04  0.00000000000E+00 0. -1.
         21   -1    0    0  501  502 -0.00000000000E+00 -0.00000000000E+00 -0.17582096544E+03  0.17582096544E+03  0.00000000000E+00 0. -1.
         21    1    1    2  503  504  0.14659124414E+03  0.15158751088E+03  0.92549253604E+03  0.94921241068E+03  0.00000000000E+00 0. -1.
         21    1    1    2  504  502 -0.14659124414E+03 -0.15158751088E+03 -0.96158686880E+02  0.23176336936E+03  0.00000000000E+00 0. -1.
</event>
<event>
 4    1  0.1571930E+006  0.2163287E+02  0.7546771E-02  0.1510418E+00
         21   -1    0    0  504  501  0.00000000000E+00  0.00000000000E+00  0.85914076155E+02  0.85914076155E+02  0.00000000000E+00 0. -1.
         21   -1    0    0  501  502 -0.00000000000E+00 -0.00000000000E+00 -0.14964100469E+02  0.14964100469E+02  0.00000000000E+00 0.  1.
         21    1    1    2  503  502 -0.87241584305E+01 -0.19795707619E+02 -0.47496725703E+01  0.22148145972E+02  0.00000000000E+00 0.  1.
         21    1    1    2  504  503  0.87241584305E+01  0.19795707619E+02  0.75699648256E+02  0.78730030653E+02  0.00000000000E+00 0. -1.
</event>
<event>
 4    1  0.1571930E+006  0.2037766E+02  0.7546771E-02  0.1528339E+00
         21   -1    0    0  503  501  0.00000000000E+00  0.00000000000E+00  0.97880065098E+02  0.97880065098E+02  0.00000000000E+00 0.  1.
         21   -1    0    0  504  502 -0.00000000000E+00 -0.00000000000E+00 -0.10063601946E+02  0.10063601946E+02  0.00000000000E+00 0.  1.
         21    1    1    2  503  502  0.20376884652E+02  0.17736432435E+00  0.84956593210E+02  0.87366307099E+02  0.00000000000E+00 0.  1.
         21    1    1    2  504  501 -0.20376884652E+02 -0.17736432435E+00  0.28598699421E+01  0.20577359945E+02  0.00000000000E+00 0.  1.
</event>
<event>
 4    1  0.1571930E+006  0.2621634E+02  0.7546771E-02  0.1455643E+00
         21   -1    0    0  504  501  0.00000000000E+00  0.00000000000E+00  0.42742981754E+01  0.42742981754E+01  0.00000000000E+00 0.  1.
         21   -1    0    0  503  502 -0.00000000000E+00 -0.00000000000E+00 -0.16333328396E+03  0.16333328396E+03  0.00000000000E+00 0.  1.
         21    1    1    2  503  501  0.26124052607E+02  0.21978241106E+01 -0.69087568378E+02  0.73894442685E+02  0.00000000000E+00 0.  1.
         21    1    1    2  504  502 -0.26124052607E+02 -0.21978241106E+01 -0.89971417410E+02  0.93713139454E+02  0.00000000000E+00 0.  1.
</event>
<event>
 4    1  0.1571930E+006  0.3450479E+02  0.7546771E-02  0.1384078E+00
         21   -1    0    0  504  501  0.00000000000E+00  0.00000000000E+00  0.10759922885E+03  0.10759922885E+03  0.00000000000E+00 0. -1.
         21   -1    0    0  503  502 -0.00000000000E+00 -0.00000000000E+00 -0.11131002876E+02  0.11131002876E+02  0.00000000000E+00 0.  1.
         21    1    1    2  503  501  0.70069674778E+01  0.33785843672E+02  0.43661257579E+02  0.55649674206E+02  0.00000000000E+00 0.  1.
         21    1    1    2  504  502 -0.70069674778E+01 -0.33785843672E+02  0.52806968390E+02  0.63080557515E+02  0.00000000000E+00 0. -1.
</event>
<event>
 4    1  0.1571930E+006  0.3351781E+02  0.7546771E-02  0.1391294E+00
         21   -1    0    0  504  501  0.00000000000E+00  0.00000000000E+00  0.12224622133E+03  0.12224622133E+03  0.00000000000E+00 0.  1.
         21   -1    0    0  503  502 -0.00000000000E+00 -0.00000000000E+00 -0.28286242991E+02  0.28286242991E+02  0.00000000000E+00 0.  1.
         21    1    1    2  503  501  0.10538686550E+01  0.33501234678E+02 -0.14862427571E+02  0.36665175813E+02  0.00000000000E+00 0.  1.
         21    1    1    2  504  502 -0.10538686550E+01 -0.33501234678E+02  0.10882240591E+03  0.11386728851E+03  0.00000000000E+00 0.  1.
</event>
<event>
 4    1  0.1571930E+006  0.2303083E+02  0.7546771E-02  0.1492111E+00
         21   -1    0    0  504  501  0.00000000000E+00  0.00000000000E+00  0.20975993375E+01  0.20975993375E+01  0.00000000000E+00 0. -1.
         21   -1    0    0  503  502 -0.00000000000E+00 -0.00000000000E+00 -0.32224477657E+03  0.32224477657E+03  0.00000000000E+00 0. -1.
         21    1    1    2  503  501 -0.15136124286E+01 -0.22981042046E+02 -0.23531942802E+03  0.23644376185E+03  0.00000000000E+00 0. -1.
         21    1    1    2  504  502  0.15136124286E+01  0.22981042046E+02 -0.84827749220E+02  0.87898614061E+02  0.00000000000E+00 0. -1.
</event>
<event>
 4    1  0.1571930E+006  0.3194698E+02  0.7546771E-02  0.1403399E+00
         21   -1    0    0  503  501  0.00000000000E+00  0.00000000000E+00  0.28997178768E+02  0.28997178768E+02  0.00000000000E+00 0. -1.
         21   -1    0    0  504  502 -0.00000000000E+00 -0.00000000000E+00 -0.37040137491E+02  0.37040137491E+02  0.00000000000E+00 0. -1.
         21    1    1    2  503  502  0.40660244137E+01 -0.31687169885E+02 -0.11387279199E+02  0.33915769451E+02  0.00000000000E+00 0. -1.
         21    1    1    2  504  501 -0.40660244137E+01  0.31687169885E+02  0.33443204758E+01  0.32121546808E+02  0.00000000000E+00 0. -1.
</event>
<event>
 4    1  0.1571930E+006  0.2523368E+02  0.7546771E-02  0.1466206E+00
         21   -1    0    0  504  501  0.00000000000E+00  0.00000000000E+00  0.12813338521E+02  0.12813338521E+02  0.00000000000E+00 0. -1.
         21   -1    0    0  503  502 -0.00000000000E+00 -0.00000000000E+00 -0.70121274248E+02  0.70121274248E+02  0.00000000000E+00 0. -1.
         21    1    1    2  503  501  0.47046721245E+01  0.24791224836E+02 -0.62723141710E+01  0.26001551756E+02  0.00000000000E+00 0. -1.
         21    1    1    2  504  502 -0.47046721245E+01 -0.24791224836E+02 -0.51035621556E+02  0.56933061013E+02  0.00000000000E+00 0. -1.
</event>
<event>
 4    1  0.1571930E+006  0.2406532E+02  0.7546771E-02  0.1479537E+00
         21   -1    0    0  504  501  0.00000000000E+00  0.00000000000E+00  0.15009533251E+02  0.15009533251E+02  0.00000000000E+00 0.  1.
         21   -1    0    0  503  502 -0.00000000000E+00 -0.00000000000E+00 -0.72827895331E+02  0.72827895331E+02  0.00000000000E+00 0. -1.
         21    1    1    2  503  501  0.24061444417E+02 -0.43172928810E+00 -0.59024494614E+02  0.63741905070E+02  0.00000000000E+00 0. -1.
         21    1    1    2  504  502 -0.24061444417E+02  0.43172928810E+00  0.12061325329E+01  0.24095523511E+02  0.00000000000E+00 0.  1.
</event>
<event>
 4    1  0.1571930E+006  0.2277088E+02  0.7546771E-02  0.1495395E+00
         21   -1    0    0  504  501  0.00000000000E+00  0.00000000000E+00  0.20711322038E+02  0.20711322038E+02  0.00000000000E+00 0. -1.
         21   -1    0    0  503  502 -0.00000000000E+00 -0.00000000000E+00 -0.30313645305E+02  0.30313645305E+02  0.00000000000E+00 0. -1.
         21    1    1    2  503  501  0.39900038362E+01 -0.22418577870E+02 -0.15447133887E+02  0.27515935558E+02  0.00000000000E+00 0. -1.
         21    1    1    2  504  502 -0.39900038362E+01  0.22418577870E+02  0.58448106187E+01  0.23509031785E+02  0.00000000000E+00 0. -1.
</event>
<event>
 4    1  0.1571930E+006  0.2572427E+02  0.7546771E-02  0.1460862E+00
         21   -1    0    0  504  501  0.00000000000E+00  0.00000000000E+00  0.62635026300E+02  0.62635026300E+02  0.00000000000E+00 0.  1.
         21   -1    0    0  501  502 -0.00000000000E+00 -0.00000000000E+00 -0.26685504695E+02  0.26685504695E+02  0.00000000000E+00 0.  1.
         21    1    1    2  503  502 -0.18400326387E+02 -0.17976823528E+02 -0.16736716046E+02  0.30689670238E+02  0.00000000000E+00 0.  1.
         21    1    1    2  504  503  0.18400326387E+02  0.17976823528E+02  0.52686237650E+02  0.58630860757E+02  0.00000000000E+00 0.  1.
</event>
<event>
 4    1  0.1571930E+006  0.2200888E+02  0.7546771E-02  0.1505333E+00
         21   -1    0    0  503  501  0.00000000000E+00  0.00000000000E+00  0.19744310231E+02  0.19744310231E+02  0.00000000000E+00 0. -1.
         21   -1    0    0  504  502 -0.00000000000E+00 -0.00000000000E+00 -0.25619854899E+02  0.25619854899E+02  0.00000000000E+00 0. -1.
         21    1    1    2  503  502  0.71027472532E+01  0.20831264296E+02 -0.76091576203E+01  0.23287118122E+02  0.00000000000E+00 0. -1.
         21    1    1    2  504  501 -0.71027472532E+01 -0.20831264296E+02  0.17336129515E+01  0.22077047008E+02  0.00000000000E+00 0. -1.
</event>
<event>
 4    1  0.1571930E+006  0.2008223E+02  0.7546771E-02  0.1532782E+00
         21   -1    0    0  504  501  0.00000000000E+00  0.00000000000E+00  0.12967672261E+04  0.12967672261E+04  0.00000000000E+00 0. -1.
         21   -1    0    0  501  502 -0.00000000000E+00 -0.00000000000E+00 -0.52573228048E+00  0.52573228048E+00  0.00000000000E+00 0. -1.
         21    1    1    2  503  502  0.62319787918E+01 -0.19090793786E+02  0.23357415317E+03  0.23443587822E+03  0.00000000000E+00 0. -1.
         21    1    1    2  504  503 -0.62319787918E+01  0.19090793786E+02  0.10626673406E+04  0.10628570801E+04  0.00000000000E+00 0. -1.
</event>
<event>
 4    1  0.1571930E+006  0.2174962E+02  0.7546771E-02  0.1508826E+00
         21   -1    0    0  504  501  0.00000000000E+00  0.00000000000E+00  0.44555754840E+02  0.44555754840E+02  0.00000000000E+00 0. -1.
         21   -1    0    0  501  502 -0.00000000000E+00 -0.00000000000E+00 -0.51851178082E+02  0.51851178082E+02  0.00000000000E+00 0. -1.
         21    1    1    2  503  502  0.65118288100E+01 -0.20751912335E+02 -0.46633801589E+02  0.51456362392E+02  0.00000000000E+00 0. -1.
         21    1    1    2  504  503 -0.65118288100E+01  0.20751912335E+02  0.39338378347E+02  0.44950570530E+02  0.00000000000E+00 0. -1.
</event>
<event>
 4    1  0.1571930E+006  0.4267799E+02  0.7546771E-02  0.1333469E+00
         21   -1    0    0  504  501  0.00000000000E+00  0.00000000000E+00  0.16379381551E+04  0.16379381551E+04  0.00000000000E+00 0.  1.
         21   -1    0    0  503  502 -0.00000000000E+00 -0.00000000000E+00 -0.13630207185E+01  0.13630207185E+01  0.00000000000E+00 0.  1.
         21    1    1    2  503  501  0.63174443632E+00  0.42673317289E+02  0.46654923711E+03  0.46849717369E+03  0.00000000000E+00 0.  1.
         21    1    1    2  504  502 -0.63174443632E+00 -0.42673317289E+02  0.11700258973E+04  0.11708040021E+04  0.00000000000E+00 0.  1.
</event>
<event>
 4    1  0.1571930E+006  0.2095224E+02  0.7546771E-02  0.1519948E+00
         21   -1    0    0  503  501  0.00000000000E+00  0.00000000000E+00  0.20100110038E+02  0.20100110038E+02  0.00000000000E+00 0. -1.
         21   -1    0    0  504  502 -0.00000000000E+00 -0.00000000000E+00 -0.30955267053E+02  0.30955267053E+02  0.00000000000E+00 0. -1.
         21    1    1    2  503  502 -0.20914755323E+02 -0.12527193417E+01  0.84245715788E+01  0.22582508768E+02  0.00000000000E+00 0. -1.
         21    1    1    2  504  501  0.20914755323E+02  0.12527193417E+01 -0.19279728594E+02  0.28472868324E+02  0.00000000000E+00 0. -1.
</event>
<event>
 4    1  0.1571930E+006  0.2587051E+02  0.7546771E-02  0.1459296E+00
         21   -1    0    0  504  501  0.00000000000E+00  0.00000000000E+00  0.74016683071E+02  0.74016683071E+02  0.00000000000E+00 0. -1.
         21   -1    0    0  501  502 -0.00000000000E+00 -0.00000000000E+00 -0.42993927236E+02  0.42993927236E+02  0.00000000000E+00 0. -1.
         21    1    1    2  503  502  0.22567232566E+02 -0.12649231620E+02 -0.36478861230E+02  0.44721251804E+02  0.00000000000E+00 0. -1.
         21    1    1    2  504  503 -0.22567232566E+02  0.12649231620E+02  0.67501617065E+02  0.72289358502E+02  0.00000000000E+00 0. -1.
</event>
<event>
 4    1  0.1571930E+006  0.2376326E+02  0.7546771E-02  0.1483130E+00
         21   -1    0    0  503  501  0.00000000000E+00  0.00000000000E+00  0.12056384705E+03  0.12056384705E+03  0.00000000000E+00 0. -1.
         21   -1    0    0  504  502 -0.00000000000E+00 -0.00000000000E+00 -0.47026125153E+01  0.47026125153E+01  0.00000000000E+00 0. -1.
         21    1    1    2  503  502  0.18806561428E+02  0.14526031733E+02  0.61896119779E+02  0.66300995425E+02  0.00000000000E+00 0. -1.
         21    1    1    2  504  501 -0.18806561428E+02 -0.14526031733E+02  0.53965114751E+02  0.58965464135E+02  0.00000000000E+00 0. -1.
</event>
<event>
 4    1  0.1571930E+006  0.2042113E+02  0.7546771E-02  0.1527692E+00
         21   -1    0    0  504  501  0.00000000000E+00  0.00000000000E+00  0.42860087762E+02  0.42860087762E+02  0.00000000000E+00 0.  1.
         21   -1    0    0  503  502 -0.00000000000E+00 -0.00000000000E+00 -0.14772976154E+02  0.14772976154E+02  0.00000000000E+00 0.  1.
         21    1    1    2  503  501 -0.19961018368E+02  0.43104662279E+01 -0.27931638753E+01  0.20611262402E+02  0.00000000000E+00 0.  1.
         21    1    1    2  504  502  0.19961018368E+02 -0.43104662279E+01  0.30880275484E+02  0.37021801514E+02  0.00000000000E+00 0.  1.
</event>
<event>
 4    1  0.1571930E+006  0.4933144E+02  0.7546771E-02  0.1301097E+00
         21   -1    0    0  502  501  0.00000000000E+00  0.00000000000E+00  0.37426766743E+03  0.37426766743E+03  0.00000000000E+00 0.  1.
         21   -1    0    0  504  502 -0.00000000000E+00 -0.00000000000E+00 -0.14442643398E+03  0.14442643398E+03  0.00000000000E+00 0. -1.
         21    1    1    2  503  501 -0.48864484723E+02 -0.67714968051E+01  0.36836235742E+03  0.37165093488E+03  0.00000000000E+00 0.  1.
         21    1    1    2  504  503  0.48864484723E+02  0.67714968051E+01 -0.13852112397E+03  0.14704316652E+03  0.00000000000E+00 0. -1.
</event>
<event>
 4    1  0.1571930E+006  0.1123807E+03  0.7546771E-02  0.1143928E+00
         21   -1    0    0  503  501  0.00000000000E+00  0.00000000000E+00  0.37170369325E+03  0.37170369325E+03  0.00000000000E+00 0.  1.
         21   -1    0    0  504  502 -0.00000000000E+00 -0.00000000000E+00 -0.13580417504E+03  0.13580417504E+03  0.00000000000E+00 0. -1.
         21    1    1    2  503  502  0.20448835981E+02 -0.11050465158E+03  0.33767894505E+03  0.35588832917E+03  0.00000000000E+00 0.  1.
         21    1    1    2  504  501 -0.20448835981E+02  0.11050465158E+03 -0.10177942683E+03  0.15161953911E+03  0.00000000000E+00 0. -1.
</event>
<event>
 4    1  0.1571930E+006  0.2449584E+02  0.7546771E-02  0.1474523E+00
         21   -1    0    0  504  501  0.00000000000E+00  0.00000000000E+00  0.23897187476E+02  0.23897187476E+02  0.00000000000E+00 0.  1.
         21   -1    0    0  503  502 -0.00000000000E+00 -0.00000000000E+00 -0.36338539832E+02  0.36338539832E+02  0.00000000000E+00 0.  1.
         21    1    1    2  503  501  0.17589002298E+02 -0.17049142694E+02  0.10521498460E+02  0.26659861183E+02  0.00000000000E+00 0.  1.
         21    1    1    2  504  502 -0.17589002298E+02  0.17049142694E+02 -0.22962850816E+02  0.33575866125E+02  0.00000000000E+00 0.  1.
</event>
<event>
 4    1  0.1571930E+006  0.2603232E+02  0.7546771E-02  0.1457578E+00
         21   -1    0    0  502  501  0.00000000000E+00  0.00000000000E+00  0.10183392272E+01  0.10183392272E+01  0.00000000000E+00 0. -1.
         21   -1    0    0  503  502 -0.00000000000E+00 -0.00000000000E+00 -0.20466988594E+04  0.20466988594E+04  0.00000000000E+00 0. -1.
         21    1    1    2  503  504  0.25689208831E+02  0.42126103179E+01 -0.18639345774E+04  0.18641163564E+04  0.00000000000E+00 0. -1.
         21    1    1    2  504  501 -0.25689208831E+02 -0.42126103179E+01 -0.18174594282E+03  0.18360084223E+03  0.00000000000E+00 0. -1.
</event>
<event>
 4    1  0.1571930E+006  0.1246104E+03  0.7546771E-02  0.1126910E+00
         21   -1    0    0  503  501  0.00000000000E+00  0.00000000000E+00  0.54287590592E+03  0.54287590592E+03  0.00000000000E+00 0. -1.
         21   -1    0    0  504  502 -0.00000000000E+00 -0.00000000000E+00 -0.51908959592E+02  0.51908959592E+02  0.00000000000E+00 0. -1.
         21    1    1    2  503  502 -0.12249224743E+03 -0.22877826020E+02  0.44475467705E+03  0.46188144406E+03  0.00000000000E+00 0. -1.
         21    1    1    2  504  501  0.12249224743E+03  0.22877826020E+02  0.46212269279E+02  0.13290342146E+03  0.00000000000E+00 0. -1.
</event>
<event>
 4    1  0.1571930E+006  0.2832937E+02  0.7546771E-02  0.1434693E+00
         21   -1    0    0  503  501  0.00000000000E+00  0.00000000000E+00  0.60041591254E+03  0.60041591254E+03  0.00000000000E+00 0. -1.
         21   -1    0    0  504  502 -0.00000000000E+00 -0.00000000000E+00 -0.36765336310E+01  0.36765336310E+01  0.00000000000E+00 0. -1.
         21    1    1    2  503  502  0.28173032071E+02  0.29721230720E+01  0.57406814664E+02  0.64016369950E+02  0.00000000000E+00 0. -1.
         21    1    1    2  504  501 -0.28173032071E+02 -0.29721230720E+01  0.53933256425E+03  0.54007607622E+03  0.00000000000E+00 0. -1.
</event>
<event>
 4    1  0.1571930E+006  0.2005614E+02  0.7546771E-02  0.1533179E+00
         21   -1    0    0  504  501  0.00000000000E+00  0.00000000000E+00  0.15343433144E+04  0.15343433144E+04  0.00000000000E+00 0.  1.
         21   -1    0    0  503  502 -0.00000000000E+00 -0.00000000000E+00 -0.79127543768E+00  0.79127543768E+00  0.00000000000E+00 0.  1.
         21    1    1    2  503  501 -0.14690711714E+02  0.13653997096E+02  0.13944388974E+04  0.13945831231E+04  0.00000000000E+00 0.  1.
         21    1    1    2  504  502  0.14690711714E+02 -0.13653997096E+02  0.13911314155E+03  0.14055146673E+03  0.00000000000E+00 0.  1.
</event>
<event>
 4    1  0.1571930E+006  0.2154479E+02  0.7546771E-02  0.1511627E+00
         21   -1    0    0  504  501  0.00000000000E+00  0.00000000000E+00  0.53398254698E+02  0.53398254698E+02  0.00000000000E+00 0.  1.
         21   -1    0    0  503  502 -0.00000000000E+00 -0.00000000000E+00 -0.11050415477E+02  0.11050415477E+02  0.00000000000E+00 0. -1.
         21    1    1    2  503  501 -0.64536285089E+01  0.20555499149E+02  0.62893791887E+01  0.22444022741E+02  0.00000000000E+00 0. -1.
         21    1    1    2  504  502  0.64536285089E+01 -0.20555499149E+02  0.36058460032E+02  0.42004647434E+02  0.00000000000E+00 0.  1.
</event>
<event>
 4    1  0.1571930E+006  0.2413591E+02  0.7546771E-02  0.1478707E+00
         21   -1    0    0  503  501  0.00000000000E+00  0.00000000000E+00  0.64169326004E+02  0.64169326004E+02  0.00000000000E+00 0.  1.
         21   -1    0    0  504  502 -0.00000000000E+00 -0.00000000000E+00 -0.10623016449E+02  0.10623016449E+02  0.00000000000E+00 0. -1.
         21    1    1    2  503  502  0.22039267822E+02 -0.98393444536E+01  0.12512431738E+02  0.27186448341E+02  0.00000000000E+00 0. -1.
         21    1    1    2  504  501 -0.22039267822E+02  0.98393444536E+01  0.41033877817E+02  0.47605894112E+02  0.00000000000E+00 0.  1.
</event>
<event>
 4    1  0.1571930E+006  0.2143841E+02  0.7546771E-02  0.1513097E+00
         21   -1    0    0  503  501  0.00000000000E+00  0.00000000000E+00  0.74615118966E+02  0.74615118966E+02  0.00000000000E+00 0.  1.
         21   -1    0    0  501  502 -0.00000000000E+00 -0.00000000000E+00 -0.13065908130E+02  0.13065908130E+02  0.00000000000E+00 0.  1.
         21    1    1    2  503  504 -0.18476083950E+02 -0.10873814080E+02  0.62647843399E+02  0.66214483259E+02  0.00000000000E+00 0.  1.
         21    1    1    2  504  502  0.18476083950E+02  0.10873814080E+02 -0.10986325626E+01  0.21466543836E+02  0.00000000000E+00 0.  1.
</event>
<event>
 4    1  0.1571930E+006  0.2217684E+02  0.7546771E-02  0.1503102E+00
         21   -1    0    0  504  501  0.00000000000E+00  0.00000000000E+00  0.20874503402E+03  0.20874503402E+03  0.00000000000E+00 0.  1.
         21   -1    0    0  503  502 -0.00000000000E+00 -0.00000000000E+00 -0.21636010367E+02  0.21636010367E+02  0.00000000000E+00 0.  1.
         21    1    1    2  503  501  0.21631337024E+02 -0.48884937552E+01  0.20229250478E+03  0.20350447072E+03  0.00000000000E+00 0.  1.
         21    1    1    2  504  502 -0.21631337024E+02  0.48884937552E+01 -0.15183481131E+02  0.26876573664E+02  0.00000000000E+00 0.  1.
</event>
<event>
 4    1  0.1571930E+006  0.2707561E+02  0.7546771E-02  0.1446850E+00
         21   -1    0    0  504  501  0.00000000000E+00  0.00000000000E+00  0.10695432756E+03  0.10695432756E+03  0.00000000000E+00 0. -1.
         21   -1    0    0  503  502 -0.00000000000E+00 -0.00000000000E+00 -0.30196573729E+02  0.30196573729E+02  0.00000000000E+00 0. -1.
         21    1    1    2  503  501 -0.17114196643E+00 -0.27075068955E+02  0.98671217735E+02  0.10231860954E+03  0.00000000000E+00 0. -1.
         21    1    1    2  504  502  0.17114196643E+00  0.27075068955E+02 -0.21913463902E+02  0.34832291752E+02  0.00000000000E+00 0. -1.
</event>
<event>
 4    1  0.1571930E+006  0.2289478E+02  0.7546771E-02  0.1493824E+00
         21   -1    0    0  502  501  0.00000000000E+00  0.00000000000E+00  0.22564453381E+02  0.22564453381E+02  0.00000000000E+00 0.  1.
         21   -1    0    0  504  502 -0.00000000000E+00 -0.00000000000E+00 -0.54426369619E+02  0.54426369619E+02  0.00000000000E+00 0.  1.
         21    1    1    2  503  501 -0.79410774784E+01  0.21473476287E+02  0.13213550015E+02  0.26434235366E+02  0.00000000000E+00 0.  1.
         21    1    1    2  504  503  0.79410774784E+01 -0.21473476287E+02 -0.45075466253E+02  0.50556587635E+02  0.00000000000E+00 0.  1.
</event>
<event>
 4    1  0.1571930E+006  0.2055037E+02  0.7546771E-02  0.1525782E+00
         21   -1    0    0  504  501  0.00000000000E+00  0.00000000000E+00  0.29284119544E+01  0.29284119544E+01  0.00000000000E+00 0. -1.
         21   -1    0    0  503  502 -0.00000000000E+00 -0.00000000000E+00 -0.15526190688E+03  0.15526190688E+03  0.00000000000E+00 0. -1.
         21    1    1    2  503  501  0.14354621577E+02 -0.14705872965E+02 -0.55067916207E+02  0.58777489362E+02  0.00000000000E+00 0. -1.
         21    1    1    2  504  502 -0.14354621577E+02  0.14705872965E+02 -0.97265578717E+02  0.99412829471E+02  0.00000000000E+00 0. -1.
</event>
<event>
 4    1  0.1571930E+006  0.3142406E+02  0.7546771E-02  0.1407612E+00
         21   -1    0    0  503  501  0.00000000000E+00  0.00000000000E+00  0.15904496098E+02  0.15904496098E+02  0.00000000000E+00 0.  1.
         21   -1    0    0  504  502 -0.00000000000E+00 -0.00000000000E+00 -0.90221970009E+02  0.90221970009E+02  0.00000000000E+00 0.  1.
         21    1    1    2  503  502  0.27514743948E+02  0.15179276468E+02 -0.75270513438E+01  0.32312970624E+02  0.00000000000E+00 0.  1.
         21    1    1    2  504  501 -0.27514743948E+02 -0.15179276468E+02 -0.66790422567E+02  0.73813495482E+02  0.00000000000E+00 0.  1.
</event>
<event>
 4    1  0.1571930E+006  0.2301059E+02  0.7546771E-02  0.1492365E+00
         21   -1    0    0  503  501  0.00000000000E+00  0.00000000000E+00  0.51147116537E+01  0.51147116537E+01  0.00000000000E+00 0. -1.
         21   -1    0    0  504  502 -0.00000000000E+00 -0.00000000000E+00 -0.33758701462E+03  0.33758701462E+03  0.00000000000E+00 0. -1.
         21    1    1    2  503  502  0.10996052980E+02  0.20213218678E+02 -0.23556749135E+02  0.32930348014E+02  0.00000000000E+00 0. -1.
         21    1    1    2  504  501 -0.10996052980E+02 -0.20213218678E+02 -0.30891555383E+03  0.30977137826E+03  0.00000000000E+00 0. -1.
</event>
<event>
 4    1  0.1571930E+006  0.4495309E+02  0.7546771E-02  0.1321674E+00
         21   -1    0    0  504  501  0.00000000000E+00  0.00000000000E+00  0.77844852619E+02  0.77844852619E+02  0.00000000000E+00 0.  1.
         21   -1    0    0  503  502 -0.00000000000E+00 -0.00000000000E+00 -0.49038393453E+02  0.49038393453E+02  0.00000000000E+00 0.  1.
         21    1    1    2  503  501  0.36913033708E+02  0.25655574850E+02  0.57926110253E+02  0.73322676080E+02  0.00000000000E+00 0.  1.
         21    1    1    2  504  502 -0.36913033708E+02 -0.25655574850E+02 -0.29119651088E+02  0.53560569992E+02  0.00000000000E+00 0.  1.
</event>
<event>
 4    1  0.1571930E+006  0.2116052E+02  0.7546771E-02  0.1516985E+00
         21   -1    0    0  503  501  0.00000000000E+00  0.00000000000E+00  0.52396711452E+02  0.52396711452E+02  0.00000000000E+00 0.  1.
         21   -1    0    0  504  502 -0.00000000000E+00 -0.00000000000E+00 -0.52485716659E+02  0.52485716659E+02  0.00000000000E+00 0.  1.
         21    1    1    2  503  502  0.21102118276E+02 -0.15709999850E+01 -0.48026928266E+02  0.52481932847E+02  0.00000000000E+00 0.  1.
         21    1    1    2  504  501 -0.21102118276E+02  0.15709999850E+01  0.47937923059E+02  0.52400495263E+02  0.00000000000E+00 0.  1.
</event>
<event>
 4    1  0.1571930E+006  0.2537181E+02  0.7546771E-02  0.1464687E+00
         21   -1    0    0  504  501  0.00000000000E+00  0.00000000000E+00  0.10032699889E+03  0.10032699889E+03  0.00000000000E+00 0. -1.
         21   -1    0    0  501  502 -0.00000000000E+00 -0.00000000000E+00 -0.40558162012E+02  0.40558162012E+02  0.00000000000E+00 0. -1.
         21    1    1    2  503  502 -0.67636824280E+00 -0.25362791065E+02 -0.34746405440E+02  0.43023729913E+02  0.00000000000E+00 0. -1.
         21    1    1    2  504  503  0.67636824280E+00  0.25362791065E+02  0.94515242317E+02  0.97861430987E+02  0.00000000000E+00 0. -1.
</event>
<event>
 4    1  0.1571930E+006  0.2620191E+02  0.7546771E-02  0.1455794E+00
         21   -1    0    0  503  501  0.00000000000E+00  0.00000000000E+00  0.13210000171E+02  0.13210000171E+02  0.00000000000E+00 0.  1.
         21   -1    0    0  504  502 -0.00000000000E+00 -0.00000000000E+00 -0.53644944896E+02  0.53644944896E+02  0.00000000000E+00 0.  1.
         21    1    1    2  503  502 -0.21811267329E+02 -0.14519248334E+02 -0.26121928546E+02  0.36998582482E+02  0.00000000000E+00 0.  1.
         21    1    1    2  504  501  0.21811267329E+02  0.14519248334E+02 -0.14313016179E+02  0.29856362585E+02  0.00000000000E+00 0.  1.
</event>
<event>
 4    1  0.1571930E+006  0.2072517E+02  0.7546771E-02  0.1523225E+00
         21   -1    0    0  503  501  0.00000000000E+00  0.00000000000E+00  0.18708495166E+01  0.18708495166E+01  0.00000000000E+00 0.  1.
         21   -1    0    0  504  502 -0.00000000000E+00 -0.00000000000E+00 -0.26377503072E+03  0.26377503072E+03  0.00000000000E+00 0. -1.
         21    1    1    2  503  502  0.81780374429E+01 -0.19043436656E+02 -0.17876654172E+03  0.17996391087E+03  0.00000000000E+00 0. -1.
         21    1    1    2  504  501 -0.81780374429E+01  0.19043436656E+02 -0.83137639475E+02  0.85681969361E+02  0.00000000000E+00 0.  1.
</event>
<event>
 4    1  0.1571930E+006  0.2353410E+02  0.7546771E-02  0.1485898E+00
         21   -1    0    0  504  501  0.00000000000E+00  0.00000000000E+00  0.48813481079E+02  0.48813481079E+02  0.00000000000E+00 0. -1.
         21   -1    0    0  503  502 -0.00000000000E+00 -0.00000000000E+00 -0.13867964859E+02  0.13867964859E+02  0.00000000000E+00 0. -1.
         21    1    1    2  503  501 -0.21449125445E+02  0.96844663557E+01  0.41085345128E+01  0.23890038233E+02  0.00000000000E+00 0. -1.
         21    1    1    2  504  502  0.21449125445E+02 -0.96844663557E+01  0.30836981708E+02  0.38791407705E+02  0.00000000000E+00 0. -1.
</event>
<event>
 4    1  0.1571930E+006  0.2453345E+02  0.7546771E-02  0.1474091E+00
         21   -1    0    0  503  501  0.00000000000E+00  0.00000000000E+00  0.12249942074E+03  0.12249942074E+03  0.00000000000E+00 0.  1.
         21   -1    0    0  504  502 -0.00000000000E+00 -0.00000000000E+00 -0.20917172555E+02  0.20917172555E+02  0.00000000000E+00 0.  1.
         21    1    1    2  503  502  0.13336787984E+02 -0.20591750781E+02 -0.11932181836E+02  0.27281258719E+02  0.00000000000E+00 0.  1.
         21    1    1    2  504  501 -0.13336787984E+02  0.20591750781E+02  0.11351443002E+03  0.11613533458E+03  0.00000000000E+00 0.  1.
</event>
<event>
 4    1  0.1571930E+006  0.3288475E+02  0.7546771E-02  0.1396077E+00
         21   -1    0    0  504  501  0.00000000000E+00  0.00000000000E+00  0.75670431228E+01  0.75670431228E+01  0.00000000000E+00 0.  1.
         21   -1    0    0  503  502 -0.00000000000E+00 -0.00000000000E+00 -0.31179110460E+03  0.31179110460E+03  0.00000000000E+00 0.  1.
         21    1    1    2  503  501 -0.32489673822E+02  0.50821160316E+01 -0.34593443915E+02  0.47729583806E+02  0.00000000000E+00 0.  1.
         21    1    1    2  504  502  0.32489673822E+02 -0.50821160316E+01 -0.26963061756E+03  0.27162856392E+03  0.00000000000E+00 0.  1.
</event>
<event>
 4    1  0.1571930E+006  0.3002091E+02  0.7546771E-02  0.1419415E+00
         21   -1    0    0  502  501  0.00000000000E+00  0.00000000000E+00  0.43761289654E+02  0.43761289654E+02  0.00000000000E+00 0.  1.
         21   -1    0    0  504  502 -0.00000000000E+00 -0.00000000000E+00 -0.10608357132E+03  0.10608357132E+03  0.00000000000E+00 0.  1.
         21    1    1    2  503  501 -0.15895861787E+02  0.25467163140E+02  0.36096610011E+02  0.46949122193E+02  0.00000000000E+00 0.  1.
         21    1    1    2  504  503  0.15895861787E+02 -0.25467163140E+02 -0.98418891680E+02  0.10289573878E+03  0.00000000000E+00 0.  1.
</event>
<event>
 4    1  0.1571930E+006  0.3527380E+02  0.7546771E-02  0.1378648E+00
         21   -1    0    0  503  501  0.00000000000E+00  0.00000000000E+00  0.37557144077E+03  0.37557144077E+03  0.00000000000E+00 0.  1.
         21   -1    0    0  501  502 -0.00000000000E+00 -0.00000000000E+00 -0.54481045781E+01  0.54481045781E+01  0.00000000000E+00 0.  1.
         21    1    1    2  503  504  0.33888608016E+02 -0.97879233392E+01  0.30432623207E+03  0.30636366743E+03  0.00000000000E+00 0.  1.
         21    1    1    2  504  502 -0.33888608016E+02  0.97879233392E+01  0.65797104121E+02  0.74655877915E+02  0.00000000000E+00 0.  1.
</event>
<event>
 4    1  0.1571930E+006  0.2588258E+02  0.7546771E-02  0.1459168E+00
         21   -1    0    0  503  501  0.00000000000E+00  0.00000000000E+00  0.13228314812E+03  0.13228314812E+03  0.00000000000E+00 0.  1.
         21   -1    0    0  501  502 -0.00000000000E+00 -0.00000000000E+00 -0.31046314054E+02  0.31046314054E+02  0.00000000000E+00 0.  1.
         21    1    1    2  503  504  0.25182729063E+02 -0.59781486766E+01  0.12532635837E+03  0.12797110692E+03  0.00000000000E+00 0.  1.
         21    1    1    2  504  502 -0.25182729063E+02  0.59781486766E+01 -0.24089524306E+02  0.35358355249E+02  0.00000000000E+00 0.  1.
</event>
<event>
 4    1  0.1571930E+006  0.2743591E+02  0.7546771E-02  0.1443278E+00
         21   -1    0    0  504  501  0.00000000000E+00  0.00000000000E+00  0.50067650817E+03  0.50067650817E+03  0.00000000000E+00 0. -1.
         21   -1    0    0  503  502 -0.00000000000E+00 -0.00000000000E+00 -0.23655509027E+01  0.23655509027E+01  0.00000000000E+00 0.  1.
         21    1    1    2  503  501  0.27093283756E+02 -0.43224031420E+01  0.97312856790E+02  0.10110648491E+03  0.00000000000E+00 0.  1.
         21    1    1    2  504  502 -0.27093283756E+02  0.43224031420E+01  0.40099810048E+03  0.40193557416E+03  0.00000000000E+00 0. -1.
</event>
<event>
 4    1  0.1571930E+006  0.2123094E+02  0.7546771E-02  0.1515993E+00
         21   -1    0    0  503  501  0.00000000000E+00  0.00000000000E+00  0.28561881693E+02  0.28561881693E+02  0.00000000000E+00 0.  1.
         21   -1    0    0  504  502 -0.00000000000E+00 -0.00000000000E+00 -0.19940613753E+03  0.19940613753E+03  0.00000000000E+00 0.  1.
         21    1    1    2  503  502 -0.34615891910E+01 -0.20946843344E+02  0.23958396143E+02  0.32011835180E+02  0.00000000000E+00 0.  1.
         21    1    1    2  504  501  0.34615891910E+01  0.20946843344E+02 -0.19480265198E+03  0.19595618404E+03  0.00000000000E+00 0.  1.
</event>
<event>
 4    1  0.1571930E+006  0.2455715E+02  0.7546771E-02  0.1473819E+00
         21   -1    0    0  503  501  0.00000000000E+00  0.00000000000E+00  0.14568651850E+03  0.14568651850E+03  0.00000000000E+00 0. -1.
         21   -1    0    0  501  502 -0.00000000000E+00 -0.00000000000E+00 -0.13245166305E+03  0.13245166305E+03  0.00000000000E+00 0. -1.
         21    1    1    2  503  504  0.40785346012E+01 -0.24216096183E+02  0.14349616862E+03  0.14558229346E+03  0.00000000000E+00 0. -1.
         21    1    1    2  504  502 -0.40785346012E+01  0.24216096183E+02 -0.13026131317E+03  0.13255588809E+03  0.00000000000E+00 0. -1.
</event>
<event>
 4    1  0.1571930E+006  0.2024793E+02  0.7546771E-02  0.1530279E+00
         21   -1    0    0  502  501  0.00000000000E+00  0.00000000000E+00  0.98675483700E+00  0.98675483700E+00  0.00000000000E+00 0. -1.
         21   -1    0    0  503  502 -0.00000000000E+00 -0.00000000000E+00 -0.11019067640E+04  0.11019067640E+04  0.00000000000E+00 0.  1.
         21    1    1    2  503  504 -0.17273259714E+02  0.10564716109E+02 -0.98569888313E+03  0.98590682467E+03  0.00000000000E+00 0.  1.
         21    1    1    2  504  501  0.17273259714E+02 -0.10564716109E+02 -0.11522112600E+03  0.11698669413E+03  0.00000000000E+00 0. -1.
</event>
<event>
 4    1  0.1571930E+006  0.3557579E+02  0.7546771E-02  0.1376560E+00
         21   -1    0    0  503  501  0.00000000000E+00  0.00000000000E+00  0.88099403923E+02  0.88099403923E+02  0.00000000000E+00 0. -1.
         21   -1    0    0  504  502 -0.00000000000E+00 -0.00000000000E+00 -0.62808342057E+02  0.62808342057E+02  0.00000000000E+00 0. -1.
         21    1    1    2  503  502 -0.35497899619E+02 -0.23528759303E+01  0.78910712739E+02  0.86559444820E+02  0.00000000000E+00 0. -1.
         21    1    1    2  504  501  0.35497899619E+02  0.23528759303E+01 -0.53619650873E+02  0.64348301160E+02  0.00000000000E+00 0. -1.
</event>
<event>
 4    1  0.1571930E+006  0.2727835E+02  0.7546771E-02  0.1444832E+00
         21   -1    0    0  503  501  0.00000000000E+00  0.00000000000E+00  0.64508059252E+01  0.64508059252E+01  0.00000000000E+00 0. -1.
         21   -1    0    0  504  502 -0.00000000000E+00 -0.00000000000E+00 -0.24709240849E+03  0.24709240849E+03  0.00000000000E+00 0. -1.
         21    1    1    2  503  502  0.21064050522E+02 -0.17332462453E+02 -0.27754471099E+02  0.38915538607E+02  0.00000000000E+00 0. -1.
         21    1    1    2  504  501 -0.21064050522E+02  0.17332462453E+02 -0.21288713146E+03  0.21462767580E+03  0.00000000000E+00 0. -1.
</event>
<event>
 4    1  0.1571930E+006  0.3174384E+02  0.7546771E-02  0.1405024E+00
         21   -1    0    0  504  501  0.00000000000E+00  0.00000000000E+00  0.39602902615E+03  0.39602902615E+03  0.00000000000E+00 0.  1.
         21   -1    0    0  503  502 -0.00000000000E+00 -0.00000000000E+00 -0.42978125391E+02  0.42978125391E+02  0.00000000000E+00 0. -1.
         21    1    1    2  503  501 -0.31169448428E+02 -0.60114039576E+01 -0.36381351839E+02  0.48283270959E+02  0.00000000000E+00 0. -1.
         21    1    1    2  504  502  0.31169448428E+02  0.60114039576E+01  0.38943225260E+03  0.39072388058E+03  0.00000000000E+00 0.  1.
</event>
<event>
 4    1  0.1571930E+006  0.2025304E+02  0.7546771E-02  0.1530202E+00
         21   -1    0    0  502  501  0.00000000000E+00  0.00000000000E+00  0.16780583766E+03  0.16780583766E+03  0.00000000000E+00 0. -1.
         21   -1    0    0  503  502 -0.00000000000E+00 -0.00000000000E+00 -0.21386260724E+02  0.21386260724E+02  0.00000000000E+00 0.  1.
         21    1    1    2  503  504 -0.15056873769E+02  0.13545335819E+02 -0.15816203693E+02  0.25697040090E+02  0.00000000000E+00 0.  1.
         21    1    1    2  504  501  0.15056873769E+02 -0.13545335819E+02  0.16223578063E+03  0.16349505829E+03  0.00000000000E+00 0. -1.
</event>
<event>
 4    1  0.1571930E+006  0.2439542E+02  0.7546771E-02  0.1475682E+00
         21   -1    0    0  502  501  0.00000000000E+00  0.00000000000E+00  0.23958387176E+02  0.23958387176E+02  0.00000000000E+00 0. -1.
         21   -1    0    0  504  502 -0.00000000000E+00 -0.00000000000E+00 -0.47676835203E+02  0.47676835203E+02  0.00000000000E+00 0.  1.
         21    1    1    2  503  501 -0.19335373644E+01  0.24318676797E+02  0.12929649471E+02  0.27610006218E+02  0.00000000000E+00 0. -1.
         21    1    1    2  504  503  0.19335373644E+01 -0.24318676797E+02 -0.36648097497E+02  0.44025216162E+02  0.00000000000E+00 0.  1.
</event>
<event>
 4    1  0.1571930E+006  0.2910336E+02  0.7546771E-02  0.1427551E+00
         21   -1    0    0  502  501  0.00000000000E+00  0.00000000000E+00  0.14311591127E+03  0.14311591127E+03  0.00000000000E+00 0. -1.
         21   -1    0    0  503  502 -0.00000000000E+00 -0.00000000000E+00 -0.15437771748E+02  0.15437771748E+02  0.00000000000E+00 0. -1.
         21    1    1    2  503  504 -0.11645819728E+02  0.26671720931E+02  0.15861119257E+01  0.29146553237E+02  0.00000000000E+00 0. -1.
         21    1    1    2  504  501  0.11645819728E+02 -0.26671720931E+02  0.12609202759E+03  0.12940712978E+03  0.00000000000E+00 0. -1.
</event>
<event>
 4    1  0.1571930E+006  0.2086507E+02  0.7546771E-02  0.1521200E+00
         21   -1    0    0  503  501  0.00000000000E+00  0.00000000000E+00  0.33266423265E+01  0.33266423265E+01  0.00000000000E+00 0. -1.
         21   -1    0    0  504  502 -0.00000000000E+00 -0.00000000000E+00 -0.38009144170E+03  0.38009144170E+03  0.00000000000E+00 0. -1.
         21    1    1    2  503  502 -0.15513427504E+02 -0.13952944075E+02 -0.34361859217E+03  0.34425148942E+03  0.00000000000E+00 0. -1.
         21    1    1    2  504  501  0.15513427504E+02  0.13952944075E+02 -0.33146207203E+02  0.39166594608E+02  0.00000000000E+00 0. -1.
</event>
<event>
 4    1  0.1571930E+006  0.2202157E+02  0.7546771E-02  0.1505164E+00
         21   -1    0    0  503  501  0.00000000000E+00  0.00000000000E+00  0.27926123244E+02  0.27926123244E+02  0.00000000000E+00 0.  1.
         21   -1    0    0  504  502 -0.00000000000E+00 -0.00000000000E+00 -0.31701004142E+02  0.31701004142E+02  0.00000000000E+00 0.  1.
         21    1    1    2  503  502 -0.21068655571E+02  0.64079125065E+01  0.18161188700E+02  0.28544322820E+02  0.00000000000E+00 0.  1.
         21    1    1    2  504  501  0.21068655571E+02 -0.64079125065E+01 -0.21936069597E+02  0.31082804565E+02  0.00000000000E+00 0.  1.
</event>
<event>
 4    1  0.1571930E+006  0.2162074E+02  0.7546771E-02  0.1510584E+00
         21   -1    0    0  504  501  0.00000000000E+00  0.00000000000E+00  0.51594539100E+02  0.51594539100E+02  0.00000000000E+00 0. -1.
         21   -1    0    0  501  502 -0.00000000000E+00 -0.00000000000E+00 -0.15826823974E+02  0.15826823974E+02  0.00000000000E+00 0. -1.
         21    1    1    2  503  502  0.10234437816E+02 -0.19045021718E+02 -0.41584388596E+01  0.22017020311E+02  0.00000000000E+00 0. -1.
         21    1    1    2  504  503 -0.10234437816E+02  0.19045021718E+02  0.39926153986E+02  0.45404342763E+02  0.00000000000E+00 0. -1.
</event>
<event>
 4    1  0.1571930E+006  0.2256900E+02  0.7546771E-02  0.1497982E+00
         21   -1    0    0  504  501  0.00000000000E+00  0.00000000000E+00  0.21655565621E+03  0.21655565621E+03  0.00000000000E+00 0.  1.
         21   -1    0    0  501  502 -0.00000000000E+00 -0.00000000000E+00 -0.17824740994E+02  0.17824740994E+02  0.00000000000E+00 0. -1.
         21    1    1    2  503  502  0.21305917555E+02  0.74442986351E+01 -0.98192853572E+01  0.24612559192E+02  0.00000000000E+00 0. -1.
         21    1    1    2  504  503 -0.21305917555E+02 -0.74442986351E+01  0.20855020057E+03  0.20976783801E+03  0.00000000000E+00 0.  1.
</event>
<event>
 4    1  0.1571930E+006  0.2437142E+02  0.7546771E-02  0.1475960E+00
         21   -1    0    0  503  501  0.00000000000E+00  0.00000000000E+00  0.85360053343E+02  0.85360053343E+02  0.00000000000E+00 0.  1.
         21   -1    0    0  504  502 -0.00000000000E+00 -0.00000000000E+00 -0.57981920076E+02  0.57981920076E+02  0.00000000000E+00 0.  1.
         21    1    1    2  503  502 -0.14040693592E+02  0.19920467916E+02 -0.53543928504E+02  0.58829570780E+02  0.00000000000E+00 0.  1.
         21    1    1    2  504  501  0.14040693592E+02 -0.19920467916E+02  0.80922061771E+02  0.84512402639E+02  0.00000000000E+00 0.  1.
</event>
<event>
 4    1  0.1571930E+006  0.2089989E+02  0.7546771E-02  0.1520699E+00
         21   -1    0    0  503  501  0.00000000000E+00  0.00000000000E+00  0.44550911216E+02  0.44550911216E+02  0.00000000000E+00 0.  1.
         21   -1    0    0  504  502 -0.00000000000E+00 -0.00000000000E+00 -0.11642500363E+02  0.11642500363E+02  0.00000000000E+00 0.  1.
         21    1    1    2  503  502 -0.17444493441E+02 -0.11510656454E+02  0.27617406537E+02  0.34634184085E+02  0.00000000000E+00 0.  1.
         21    1    1    2  504  501  0.17444493441E+02  0.11510656454E+02  0.52910043163E+01  0.21559227493E+02  0.00000000000E+00 0.  1.
</event>
<event>
 4    1  0.1571930E+006  0.4872825E+02  0.7546771E-02  0.1303782E+00
         21   -1    0    0  503  501  0.00000000000E+00  0.00000000000E+00  0.14848543020E+04  0.14848543020E+04  0.00000000000E+00 0. -1.
         21   -1    0    0  504  502 -0.00000000000E+00 -0.00000000000E+00 -0.51180833799E+01  0.51180833799E+01  0.00000000000E+00 0. -1.
         21    1    1    2  503  502  0.14360403187E+02  0.46564161632E+02  0.13576037546E+04  0.13584779707E+04  0.00000000000E+00 0. -1.
         21    1    1    2  504  501 -0.14360403187E+02 -0.46564161632E+02  0.12213246399E+03  0.13149441467E+03  0.00000000000E+00 0. -1.
</event>
<event>
 4    1  0.1571930E+006  0.2015647E+02  0.7546771E-02  0.1531657E+00
         21   -1    0    0  502  501  0.00000000000E+00  0.00000000000E+00  0.47692026894E+02  0.47692026894E+02  0.00000000000E+00 0. -1.
         21   -1    0    0  504  502 -0.00000000000E+00 -0.00000000000E+00 -0.10258806765E+03  0.10258806765E+03  0.00000000000E+00 0. -1.
         21    1    1    2  503  501  0.19544296283E+02  0.49298974515E+01  0.44504614059E+02  0.48856361700E+02  0.00000000000E+00 0. -1.
         21    1    1    2  504  503 -0.19544296283E+02 -0.49298974515E+01 -0.99400654813E+02  0.10142373284E+03  0.00000000000E+00 0. -1.
</event>
<event>
 4    1  0.1571930E+006  0.2016545E+02  0.7546771E-02  0.1531521E+00
         21   -1    0    0  502  501  0.00000000000E+00  0.00000000000E+00  0.83663349846E+01  0.83663349846E+01  0.00000000000E+00 0. -1.
         21   -1    0    0  503  502 -0.00000000000E+00 -0.00000000000E+00 -0.81672052959E+02  0.81672052959E+02  0.00000000000E+00 0. -1.
         21    1    1    2  503  504  0.12920158980E+02 -0.15482730112E+02 -0.65298525916E+02  0.68341370535E+02  0.00000000000E+00 0. -1.
         21    1    1    2  504  501 -0.12920158980E+02  0.15482730112E+02 -0.80071920584E+01  0.21697017409E+02  0.00000000000E+00 0. -1.
</event>
<event>
 4    1  0.1571930E+006  0.2382146E+02  0.7546771E-02  0.1482433E+00
         21   -1    0    0  502  501  0.00000000000E+00  0.00000000000E+00  0.20428028739E+02  0.20428028739E+02  0.00000000000E+00 0. -1.
         21   -1    0    0  503  502 -0.00000000000E+00 -0.00000000000E+00 -0.13132674272E+03  0.13132674272E+03  0.00000000000E+00 0.  1.
         21    1    1    2  503  504  0.15931683266E+02  0.17709978656E+02 -0.12282562423E+03  0.12511433108E+03  0.00000000000E+00 0.  1.
         21    1    1    2  504  501 -0.15931683266E+02 -0.17709978656E+02  0.11926910243E+02  0.26640440379E+02  0.00000000000E+00 0. -1.
</event>
<event>
 4    1  0.1571930E+006  0.2310998E+02  0.7546771E-02  0.1491122E+00
         21   -1    0    0  502  501  0.00000000000E+00  0.00000000000E+00  0.10589205306E+03  0.10589205306E+03  0.00000000000E+00 0. -1.
         21   -1    0    0  504  502 -0.00000000000E+00 -0.00000000000E+00 -0.11972237429E+02  0.11972237429E+02  0.00000000000E+00 0.  1.
         21    1    1    2  503  501  0.22559297735E+02 -0.50149152519E+01  0.91792127837E+02  0.94656568827E+02  0.00000000000E+00 0. -1.
         21    1    1    2  504  503 -0.22559297735E+02  0.50149152519E+01  0.21276877909E+01  0.23207721659E+02  0.00000000000E+00 0.  1.
</event>
<event>
 4    1  0.1571930E+006  0.2472757E+02  0.7546771E-02  0.1471874E+00
         21   -1    0    0  504  501  0.00000000000E+00  0.00000000000E+00  0.59071811063E+03  0.59071811063E+03  0.00000000000E+00 0.  1.
         21   -1    0    0  503  502 -0.00000000000E+00 -0.00000000000E+00 -0.46997786837E+01  0.46997786837E+01  0.00000000000E+00 0. -1.
         21    1    1    2  503  501  0.23103656275E+02 -0.88132710391E+01  0.55589736683E+03  0.55644706408E+03  0.00000000000E+00 0.  1.
         21    1    1    2  504  502 -0.23103656275E+02  0.88132710391E+01  0.30120965125E+02  0.38970825238E+02  0.00000000000E+00 0. -1.
</event>
<event>
 4    1  0.1571930E+006  0.2451240E+02  0.7546771E-02  0.1474333E+00
         21   -1    0    0  502  501  0.00000000000E+00  0.00000000000E+00  0.20740091304E+02  0.20740091304E+02  0.00000000000E+00 0. -1.
         21   -1    0    0  504  502 -0.00000000000E+00 -0.00000000000E+00 -0.28981880563E+02  0.28981880563E+02  0.00000000000E+00 0. -1.
         21    1    1    2  503  501 -0.12796619721E+02  0.20907036879E+02 -0.46063392335E+01  0.24941452013E+02  0.00000000000E+00 0. -1.
         21    1    1    2  504  503  0.12796619721E+02 -0.20907036879E+02 -0.36354500246E+01  0.24780519854E+02  0.00000000000E+00 0. -1.
</event>
<event>
 4    1  0.1571930E+006  0.3846961E+02  0.7546771E-02  0.1357695E+00
         21   -1    0    0  503  501  0.00000000000E+00  0.00000000000E+00  0.13624667066E+04  0.13624667066E+04  0.00000000000E+00 0.  1.
         21   -1    0    0  504  502 -0.00000000000E+00 -0.00000000000E+00 -0.15085323058E+01  0.15085323058E+01  0.00000000000E+00 0.  1.
         21    1    1    2  503  502  0.24398244779E+02 -0.29742841141E+02  0.31962927645E+03  0.32193599568E+03  0.00000000000E+00 0.  1.
         21    1    1    2  504  501 -0.24398244779E+02  0.29742841141E+02  0.10413288978E+04  0.10420392432E+04  0.00000000000E+00 0.  1.
</event>
<event>
 4    1  0.1571930E+006  0.2412296E+02  0.7546771E-02  0.1478859E+00
         21   -1    0    0  504  501  0.00000000000E+00  0.00000000000E+00  0.20737922819E+02  0.20737922819E+02  0.00000000000E+00 0. -1.
         21   -1    0    0  501  502 -0.00000000000E+00 -0.00000000000E+00 -0.58662626456E+02  0.58662626456E+02  0.00000000000E+00 0.  1.
         21    1    1    2  503  502 -0.71857191704E+01  0.23027863369E+02 -0.47636357554E+02  0.53396063640E+02  0.00000000000E+00 0.  1.
         21    1    1    2  504  503  0.71857191704E+01 -0.23027863369E+02  0.97116539172E+01  0.26004485635E+02  0.00000000000E+00 0. -1.
</event>
<event>
 4    1  0.1571930E+006  0.2643917E+02  0.7546771E-02  0.1453325E+00
         21   -1    0    0  504  501  0.00000000000E+00  0.00000000000E+00  0.21458569775E+01  0.21458569775E+01  0.00000000000E+00 0.  1.
         21   -1    0    0  501  502 -0.00000000000E+00 -0.00000000000E+00 -0.45268040391E+03  0.45268040391E+03  0.00000000000E+00 0.  1.
         21    1    1    2  503  502  0.23880351187E+02  0.11347178343E+02 -0.34568465823E+03  0.34669426382E+03  0.00000000000E+00 0.  1.
         21    1    1    2  504  503 -0.23880351187E+02 -0.11347178343E+02 -0.10484988870E+03  0.10813199707E+03  0.00000000000E+00 0.  1.
</event>
<event>
 4    1  0.1571930E+006  0.2625409E+02  0.7546771E-02  0.1455248E+00
         21   -1    0    0  503  501  0.00000000000E+00  0.00000000000E+00  0.10226933033E+03  0.10226933033E+03  0.00000000000E+00 0. -1.
         21   -1    0    0  504  502 -0.00000000000E+00 -0.00000000000E+00 -0.12065242113E+03  0.12065242113E+03  0.00000000000E+00 0.  1.
         21    1    1    2  503  502 -0.24805034288E+02  0.86015941615E+01 -0.11749450123E+03  0.12039200541E+03  0.00000000000E+00 0.  1.
         21    1    1    2  504  501  0.24805034288E+02 -0.86015941615E+01  0.99111410423E+02  0.10252974605E+03  0.00000000000E+00 0. -1.
</event>
<event>
 4    1  0.1571930E+006  0.2360892E+02  0.7546771E-02  0.1484990E+00
         21   -1    0    0  503  501  0.00000000000E+00  0.00000000000E+00  0.15243333386E+03  0.15243333386E+03  0.00000000000E+00 0.  1.
         21   -1    0    0  504  502 -0.00000000000E+00 -0.00000000000E+00 -0.32955789613E+02  0.32955789613E+02  0.00000000000E+00 0. -1.
         21    1    1    2  503  502 -0.23508806278E+02  0.21719249419E+01  0.14713979487E+03  0.14902181205E+03  0.00000000000E+00 0.  1.
         21    1    1    2  504  501  0.23508806278E+02 -0.21719249419E+01 -0.27662250626E+02  0.36367311425E+02  0.00000000000E+00 0. -1.
</event>
<event>
 4    1  0.1571930E+006  0.2541137E+02  0.7546771E-02  0.1464254E+00
         21   -1    0    0  504  501  0.00000000000E+00  0.00000000000E+00  0.11264462501E+03  0.11264462501E+03  0.00000000000E+00 0. -1.
         21   -1    0    0  501  502 -0.00000000000E+00 -0.00000000000E+00 -0.81974673821E+01  0.81974673821E+01  0.00000000000E+00 0. -1.
         21    1    1    2  503  502  0.25405279284E+02  0.55646514882E+00  0.19091248561E+02  0.31783858177E+02  0.00000000000E+00 0. -1.
         21    1    1    2  504  503 -0.25405279284E+02 -0.55646514882E+00  0.85355909071E+02  0.89058234219E+02  0.00000000000E+00 0. -1.
</event>
<event>
 4    1  0.1571930E+006  0.2004954E+02  0.7546771E-02  0.1533280E+00
         21   -1    0    0  503  501  0.00000000000E+00  0.00000000000E+00  0.94696073397E+02  0.94696073397E+02  0.00000000000E+00 0. -1.
         21   -1    0    0  501  502 -0.00000000000E+00 -0.00000000000E+00 -0.13201026077E+02  0.13201026077E+02  0.00000000000E+00 0. -1.
         21    1    1    2  503  504 -0.19552397452E+02  0.44371100289E+01  0.85183401938E+02  0.87511120192E+02  0.00000000000E+00 0. -1.
         21    1    1    2  504  502  0.19552397452E+02 -0.44371100289E+01 -0.36883546169E+01  0.20385979282E+02  0.00000000000E+00 0. -1.
</event>
<event>
 4    1  0.1571930E+006  0.2408821E+02  0.7546771E-02  0.1479268E+00
         21   -1    0    0  502  501  0.00000000000E+00  0.00000000000E+00  0.21316626508E+02  0.21316626508E+02  0.00000000000E+00 0. -1.
         21   -1    0    0  503  502 -0.00000000000E+00 -0.00000000000E+00 -0.11898236069E+03  0.11898236069E+03  0.00000000000E+00 0. -1.
         21    1    1    2  503  504 -0.80916289005E+01  0.22688489177E+02 -0.11043775308E+03  0.11303423952E+03  0.00000000000E+00 0. -1.
         21    1    1    2  504  501  0.80916289005E+01 -0.22688489177E+02  0.12772018893E+02  0.27264747679E+02  0.00000000000E+00 0. -1.
</event>
<event>
 4    1  0.1571930E+006  0.3389900E+02  0.7546771E-02  0.1388473E+00
         21   -1    0    0  503  501  0.00000000000E+00  0.00000000000E+00  0.69450643371E+02  0.69450643371E+02  0.00000000000E+00 0. -1.
         21   -1    0    0  501  502 -0.00000000000E+00 -0.00000000000E+00 -0.51138492205E+02  0.51138492205E+02  0.00000000000E+00 0.  1.
         21    1    1    2  503  504 -0.27626951579E+02  0.19644183793E+02  0.58746070325E+02  0.67825092621E+02  0.00000000000E+00 0. -1.
         21    1    1    2  504  502  0.27626951579E+02 -0.19644183793E+02 -0.40433919159E+02  0.52764042955E+02  0.00000000000E+00 0.  1.
</event>
<event>
 4    1  0.1571930E+006  0.3411835E+02  0.7546771E-02  0.1386870E+00
         21   -1    0    0  504  501  0.00000000000E+00  0.00000000000E+00  0.12329594845E+02  0.12329594845E+02  0.00000000000E+00 0. -1.
         21   -1    0    0  501  502 -0.00000000000E+00 -0.00000000000E+00 -0.10538370507E+03  0.10538370507E+03  0.00000000000E+00 0. -1.
         21    1    1    2  503  502 -0.90681418486E+01 -0.32891191962E+02 -0.65517969459E+02  0.73869249538E+02  0.00000000000E+00 0. -1.
         21    1    1    2  504  503  0.90681418486E+01  0.32891191962E+02 -0.27536140769E+02  0.43844050380E+02  0.00000000000E+00 0. -1.
</event>
<event>
 4    1  0.1571930E+006  0.2418477E+02  0.7546771E-02  0.1478134E+00
         21   -1    0    0  503  501  0.00000000000E+00  0.00000000000E+00  0.13332016453E+01  0.13332016453E+01  0.00000000000E+00 0.  1.
         21   -1    0    0  504  502 -0.00000000000E+00 -0.00000000000E+00 -0.49843328966E+03  0.49843328966E+03  0.00000000000E+00 0.  1.
         21    1    1    2  503  502 -0.13415523053E+02  0.20122791740E+02 -0.33504026128E+03  0.33591201182E+03  0.00000000000E+00 0.  1.
         21    1    1    2  504  501  0.13415523053E+02 -0.20122791740E+02 -0.16205982673E+03  0.16385447948E+03  0.00000000000E+00 0.  1.
</event>
<event>
 4    1  0.1571930E+006  0.2346568E+02  0.7546771E-02  0.1486732E+00
         21   -1    0    0  504  501  0.00000000000E+00  0.00000000000E+00  0.34095789779E+02  0.34095789779E+02  0.00000000000E+00 0. -1.
         21   -1    0    0  503  502 -0.00000000000E+00 -0.00000000000E+00 -0.26806190139E+03  0.26806190139E+03  0.00000000000E+00 0.  1.
         21    1    1    2  503  501 -0.18787424704E+02 -0.14059543968E+02  0.29474127949E+02  0.37674425303E+02  0.00000000000E+00 0. -1.
         21    1    1    2  504  502  0.18787424704E+02  0.14059543968E+02 -0.26344023956E+03  0.26448326586E+03  0.00000000000E+00 0.  1.
</event>
<event>
 4    1  0.1571930E+006  0.3255138E+02  0.7546771E-02  0.1398646E+00
         21   -1    0    0  503  501  0.00000000000E+00  0.00000000000E+00  0.19725663106E+03  0.19725663106E+03  0.00000000000E+00 0.  1.
         21   -1    0    0  501  502 -0.00000000000E+00 -0.00000000000E+00 -0.11895765324E+02  0.11895765324E+02  0.00000000000E+00 0.  1.
         21    1    1    2  503  504 -0.94065201631E+01  0.31162633382E+02  0.17012619881E+03  0.17321234328E+03  0.00000000000E+00 0.  1.
         21    1    1    2  504  502  0.94065201631E+01 -0.31162633382E+02  0.15234666919E+02  0.35940053103E+02  0.00000000000E+00 0.  1.
</event>
<event>
 4    1  0.1571930E+006  0.2371636E+02  0.7546771E-02  0.1483693E+00
         21   -1    0    0  504  501  0.00000000000E+00  0.00000000000E+00  0.49733552613E+02  0.49733552613E+02  0.00000000000E+00 0.  1.
         21   -1    0    0  501  502 -0.00000000000E+00 -0.00000000000E+00 -0.11862959061E+02  0.11862959061E+02  0.00000000000E+00 0.  1.
         21    1    1    2  503  502  0.18484431874E+02  0.14859055516E+02  0.12283488845E+02  0.26708610049E+02  0.00000000000E+00 0.  1.
         21    1    1    2  504  503 -0.18484431874E+02 -0.14859055516E+02  0.25587104707E+02  0.34887901625E+02  0.00000000000E+00 0.  1.
</event>
<event>
 4    1  0.1571930E+006  0.2846284E+02  0.7546771E-02  0.1433442E+00
         21   -1    0    0  504  501  0.00000000000E+00  0.00000000000E+00  0.12011090990E+04  0.12011090990E+04  0.00000000000E+00 0.  1.
         21   -1    0    0  501  502 -0.00000000000E+00 -0.00000000000E+00 -0.84222370663E+00  0.84222370663E+00  0.00000000000E+00 0.  1.
         21    1    1    2  503  502  0.16901465032E+02 -0.22901393520E+02  0.33193498452E+03  0.33315306886E+03  0.00000000000E+00 0.  1.
         21    1    1    2  504  503 -0.16901465032E+02  0.22901393520E+02  0.86833189074E+03  0.86879825381E+03  0.00000000000E+00 0.  1.
</event>
<event>
 4    1  0.1571930E+006  0.5273659E+02  0.7546771E-02  0.1286724E+00
         21   -1    0    0  504  501  0.00000000000E+00  0.00000000000E+00  0.10864695095E+02  0.10864695095E+02  0.00000000000E+00 0. -1.
         21   -1    0    0  501  502 -0.00000000000E+00 -0.00000000000E+00 -0.42006814821E+03  0.42006814821E+03  0.00000000000E+00 0. -1.
         21    1    1    2  503  502  0.39744390571E+02 -0.34663109991E+02 -0.33926772310E+03  0.34334200983E+03  0.00000000000E+00 0. -1.
         21    1    1    2  504  503 -0.39744390571E+02  0.34663109991E+02 -0.69935730014E+02  0.87590833474E+02  0.00000000000E+00 0. -1.
</event>
<event>
 4    1  0.1571930E+006  0.2197316E+02  0.7546771E-02  0.1505811E+00
         21   -1    0    0  502  501  0.00000000000E+00  0.00000000000E+00  0.15404708977E+03  0.15404708977E+03  0.00000000000E+00 0.  1.
         21   -1    0    0  503  502 -0.00000000000E+00 -0.00000000000E+00 -0.40616410402E+01  0.40616410402E+01  0.00000000000E+00 0. -1.
         21    1    1    2  503  504 -0.20881561761E+02 -0.68396148987E+01  0.37217262382E+02  0.43219724349E+02  0.00000000000E+00 0. -1.
         21    1    1    2  504  501  0.20881561761E+02  0.68396148987E+01  0.11276818635E+03  0.11488900646E+03  0.00000000000E+00 0.  1.
</event>
<event>
 4    1  0.1571930E+006  0.2405368E+02  0.7546771E-02  0.1479675E+00
         21   -1    0    0  502  501  0.00000000000E+00  0.00000000000E+00  0.69184518571E+02  0.69184518571E+02  0.00000000000E+00 0.  1.
         21   -1    0    0  504  502 -0.00000000000E+00 -0.00000000000E+00 -0.27148607112E+02  0.27148607112E+02  0.00000000000E+00 0.  1.
         21    1    1    2  503  501  0.23625267161E+02 -0.45195531102E+01  0.61084903065E+02  0.65650171296E+02  0.00000000000E+00 0.  1.
         21    1    1    2  504  503 -0.23625267161E+02  0.45195531102E+01 -0.19048991605E+02  0.30682954387E+02  0.00000000000E+00 0.  1.
</event>
<event>
 4    1  0.1571930E+006  0.2052494E+02  0.7546771E-02  0.1526157E+00
         21   -1    0    0  504  501  0.00000000000E+00  0.00000000000E+00  0.77341721836E+00  0.77341721836E+00  0.00000000000E+00 0.  1.
         21   -1    0    0  501  502 -0.00000000000E+00 -0.00000000000E+00 -0.71180187976E+03  0.71180187976E+03  0.00000000000E+00 0.  1.
         21    1    1    2  503  502  0.16754446191E+02  0.11855875335E+02 -0.52814723135E+03  0.52854590267E+03  0.00000000000E+00 0.  1.
         21    1    1    2  504  503 -0.16754446191E+02 -0.11855875335E+02 -0.18288123119E+03  0.18402939431E+03  0.00000000000E+00 0.  1.
</event>
<event>
 4    1  0.1571930E+006  0.2101701E+02  0.7546771E-02  0.1519022E+00
         21   -1    0    0  503  501  0.00000000000E+00  0.00000000000E+00  0.37150911201E+02  0.37150911201E+02  0.00000000000E+00 0.  1.
         21   -1    0    0  504  502 -0.00000000000E+00 -0.00000000000E+00 -0.35507292524E+02  0.35507292524E+02  0.00000000000E+00 0. -1.
         21    1    1    2  503  502  0.16505442236E+02  0.13010961757E+02 -0.28806939245E+02  0.35658862825E+02  0.00000000000E+00 0. -1.
         21    1    1    2  504  501 -0.16505442236E+02 -0.13010961757E+02  0.30450557923E+02  0.36999340900E+02  0.00000000000E+00 0.  1.
</event>
<event>
 4    1  0.1571930E+006  0.2307437E+02  0.7546771E-02  0.1491566E+00
         21   -1    0    0  504  501  0.00000000000E+00  0.00000000000E+00  0.30618730912E+02  0.30618730912E+02  0.00000000000E+00 0.  1.
         21   -1    0    0  503  502 -0.00000000000E+00 -0.00000000000E+00 -0.24958547822E+02  0.24958547822E+02  0.00000000000E+00 0.  1.
         21    1    1    2  503  501  0.65803300722E+01 -0.22116188881E+02 -0.12473557259E+02  0.26230062623E+02  0.00000000000E+00 0.  1.
         21    1    1    2  504  502 -0.65803300722E+01  0.22116188881E+02  0.18133740348E+02  0.29347216112E+02  0.00000000000E+00 0.  1.
</event>
<event>
 4    1  0.1571930E+006  0.2206244E+02  0.7546771E-02  0.1504619E+00
         21   -1    0    0  503  501  0.00000000000E+00  0.00000000000E+00  0.13275383712E+02  0.13275383712E+02  0.00000000000E+00 0.  1.
         21   -1    0    0  504  502 -0.00000000000E+00 -0.00000000000E+00 -0.12221026923E+03  0.12221026923E+03  0.00000000000E+00 0. -1.
         21    1    1    2  503  502 -0.25071713698E+01 -0.21919515553E+02 -0.11114429423E+03  0.11331286427E+03  0.00000000000E+00 0. -1.
         21    1    1    2  504  501  0.25071713698E+01  0.21919515553E+02  0.22094087128E+01  0.22172788666E+02  0.00000000000E+00 0.  1.
</event>
<event>
 4    1  0.1571930E+006  0.2753354E+02  0.7546771E-02  0.1442321E+00
         21   -1    0    0  503  501  0.00000000000E+00  0.00000000000E+00  0.16592526919E+01  0.16592526919E+01  0.00000000000E+00 0. -1.
         21   -1    0    0  504  502 -0.00000000000E+00 -0.00000000000E+00 -0.51260382411E+03  0.51260382411E+03  0.00000000000E+00 0. -1.
         21    1    1    2  503  502 -0.32010028177E+01  0.27346833355E+02 -0.17070144386E+03  0.17290771715E+03  0.00000000000E+00 0. -1.
         21    1    1    2  504  501  0.32010028177E+01 -0.27346833355E+02 -0.34024312756E+03  0.34135535966E+03  0.00000000000E+00 0. -1.
</event>
<event>
 4    1  0.1571930E+006  0.2484999E+02  0.7546771E-02  0.1470489E+00
         21   -1    0    0  504  501  0.00000000000E+00  0.00000000000E+00  0.51241597256E+03  0.51241597256E+03  0.00000000000E+00 0.  1.
         21   -1    0    0  503  502 -0.00000000000E+00 -0.00000000000E+00 -0.14509183009E+02  0.14509183009E+02  0.00000000000E+00 0. -1.
         21    1    1    2  503  501 -0.20318511511E+02 -0.14306651954E+02 -0.33305546201E+01  0.25072191652E+02  0.00000000000E+00 0. -1.
         21    1    1    2  504  502  0.20318511511E+02  0.14306651954E+02  0.50123734417E+03  0.50185296392E+03  0.00000000000E+00 0.  1.
</event>
<event>
 4    1  0.1571930E+006  0.3298152E+02  0.7546771E-02  0.1395337E+00
         21   -1    0    0  502  501  0.00000000000E+00  0.00000000000E+00  0.38055092500E+03  0.38055092500E+03  0.00000000000E+00 0.  1.
         21   -1    0    0  504  502 -0.00000000000E+00 -0.00000000000E+00 -0.10063290090E+02  0.10063290090E+02  0.00000000000E+00 0.  1.
         21    1    1    2  503  501 -0.16117346117E+02 -0.28775193155E+02  0.35050111160E+03  0.35204944229E+03  0.00000000000E+00 0.  1.
         21    1    1    2  504  503  0.16117346117E+02  0.28775193155E+02  0.19986523314E+02  0.38564772800E+02  0.00000000000E+00 0.  1.
</event>
<event>
 4    1  0.1571930E+006  0.2895978E+02  0.7546771E-02  0.1428856E+00
         21   -1    0    0  503  501  0.00000000000E+00  0.00000000000E+00  0.53940936357E+03  0.53940936357E+03  0.00000000000E+00 0. -1.
         21   -1    0    0  504  502 -0.00000000000E+00 -0.00000000000E+00 -0.31515037472E+02  0.31515037472E+02  0.00000000000E+00 0. -1.
         21    1    1    2  503  502 -0.28959690300E+02  0.73319613581E-01  0.53227867796E+03  0.53306590591E+03  0.00000000000E+00 0. -1.
         21    1    1    2  504  501  0.28959690300E+02 -0.73319613581E-01 -0.24384351858E+02  0.37858495131E+02  0.00000000000E+00 0. -1.
</event>
<event>
 4    1  0.1571930E+006  0.2115059E+02  0.7546771E-02  0.1517126E+00
         21   -1    0    0  502  501  0.00000000000E+00  0.00000000000E+00  0.21163726760E+02  0.21163726760E+02  0.00000000000E+00 0.  1.
         21   -1    0    0  503  502 -0.00000000000E+00 -0.00000000000E+00 -0.21556522250E+02  0.21556522250E+02  0.00000000000E+00 0.  1.
         21    1    1    2  503  504  0.17154803823E+02  0.12371740579E+02 -0.31746249864E+01  0.21387508106E+02  0.00000000000E+00 0.  1.
         21    1    1    2  504  501 -0.17154803823E+02 -0.12371740579E+02  0.27818294968E+01  0.21332740905E+02  0.00000000000E+00 0.  1.
</event>
<event>
 4    1  0.1571930E+006  0.2318407E+02  0.7546771E-02  0.1490200E+00
         21   -1    0    0  503  501  0.00000000000E+00  0.00000000000E+00  0.29006279452E+02  0.29006279452E+02  0.00000000000E+00 0. -1.
         21   -1    0    0  501  502 -0.00000000000E+00 -0.00000000000E+00 -0.19226753312E+02  0.19226753312E+02  0.00000000000E+00 0. -1.
         21    1    1    2  503  504  0.50132118559E+01  0.22635564455E+02  0.94790263949E+01  0.25047016044E+02  0.00000000000E+00 0. -1.
         21    1    1    2  504  502 -0.50132118559E+01 -0.22635564455E+02  0.30049974505E+00  0.23186016721E+02  0.00000000000E+00 0. -1.
</event>
<event>
 4    1  0.1571930E+006  0.3184430E+02  0.7546771E-02  0.1404219E+00
         21   -1    0    0  504  501  0.00000000000E+00  0.00000000000E+00  0.35593553527E+03  0.35593553527E+03  0.00000000000E+00 0. -1.
         21   -1    0    0  503  502 -0.00000000000E+00 -0.00000000000E+00 -0.29289208029E+01  0.29289208029E+01  0.00000000000E+00 0. -1.
         21    1    1    2  503  501 -0.31375278901E+02  0.54453259122E+01  0.20614352818E+03  0.20858862364E+03  0.00000000000E+00 0. -1.
         21    1    1    2  504  502  0.31375278901E+02 -0.54453259122E+01  0.14686308629E+03  0.15027583243E+03  0.00000000000E+00 0. -1.
</event>
<event>
 4    1  0.1571930E+006  0.3466864E+02  0.7546771E-02  0.1382908E+00
         21   -1    0    0  504  501  0.00000000000E+00  0.00000000000E+00  0.25172043849E+03  0.25172043849E+03  0.00000000000E+00 0.  1.
         21   -1    0    0  503  502 -0.00000000000E+00 -0.00000000000E+00 -0.29974542387E+03  0.29974542387E+03  0.00000000000E+00 0. -1.
         21    1    1    2  503  501  0.33533099256E+02  0.88003266567E+01 -0.29754046181E+03  0.29955340243E+03  0.00000000000E+00 0. -1.
         21    1    1    2  504  502 -0.33533099256E+02 -0.88003266567E+01  0.24951547642E+03  0.25191245993E+03  0.00000000000E+00 0.  1.
</event>
<event>
 4    1  0.1571930E+006  0.2584872E+02  0.7546771E-02  0.1459529E+00
         21   -1    0    0  502  501  0.00000000000E+00  0.00000000000E+00  0.52682332097E+02  0.52682332097E+02  0.00000000000E+00 0.  1.
         21   -1    0    0  504  502 -0.00000000000E+00 -0.00000000000E+00 -0.21100358736E+02  0.21100358736E+02  0.00000000000E+00 0.  1.
         21    1    1    2  503  501 -0.34994375489E+01  0.25610746602E+02  0.39091965172E+02  0.46865105843E+02  0.00000000000E+00 0.  1.
         21    1    1    2  504  503  0.34994375489E+01 -0.25610746602E+02 -0.75099918112E+01  0.26917584990E+02  0.00000000000E+00 0.  1.
</event>
<event>
 4    1  0.1571930E+006  0.2657864E+02  0.7546771E-02  0.1451887E+00
         21   -1    0    0  504  501  0.00000000000E+00  0.00000000000E+00  0.22817801535E+02  0.22817801535E+02  0.00000000000E+00 0.  1.
         21   -1    0    0  503  502 -0.00000000000E+00 -0.00000000000E+00 -0.13022233481E+04  0.13022233481E+04  0.00000000000E+00 0. -1.
         21    1    1    2  503  501  0.19754560035E+02  0.17781485886E+02  0.14894976869E+02  0.30467757030E+02  0.00000000000E+00 0.  1.
         21    1    1    2  504  502 -0.19754560035E+02 -0.17781485886E+02 -0.12943005235E+04  0.12945733926E+04  0.00000000000E+00 0. -1.
</event>
<event>
 4    1  0.1571930E+006  0.2748719E+02  0.7546771E-02  0.1442775E+00
         21   -1    0    0  504  501  0.00000000000E+00  0.00000000000E+00  0.10268224408E+03  0.10268224408E+03  0.00000000000E+00 0. -1.
         21   -1    0    0  501  502 -0.00000000000E+00 -0.00000000000E+00 -0.89916653403E+02  0.89916653403E+02  0.00000000000E+00 0.  1.
         21    1    1    2  503  502  0.24915682756E+02  0.11608373427E+02 -0.85892360525E+02  0.90183386371E+02  0.00000000000E+00 0.  1.
         21    1    1    2  504  503 -0.24915682756E+02 -0.11608373427E+02  0.98657951205E+02  0.10241551111E+03  0.00000000000E+00 0. -1.
</event>
<event>
 4    1  0.1571930E+006  0.3845962E+02  0.7546771E-02  0.1357757E+00
         21   -1    0    0  504  501  0.00000000000E+00  0.00000000000E+00  0.24317959559E+04  0.24317959559E+04  0.00000000000E+00 0.  1.
         21   -1    0    0  503  502 -0.00000000000E+00 -0.00000000000E+00 -0.27557164037E+02  0.27557164037E+02  0.00000000000E+00 0. -1.
         21    1    1    2  503  501  0.19656298584E+02 -0.33057102901E+02 -0.13910524898E+02  0.40897980746E+02  0.00000000000E+00 0. -1.
         21    1    1    2  504  502 -0.19656298584E+02  0.33057102901E+02  0.24181493167E+04  0.24184551392E+04  0.00000000000E+00 0.  1.
</event>
<event>
 4    1  0.1571930E+006  0.4474649E+02  0.7546771E-02  0.1322712E+00
         21   -1    0    0  504  501  0.00000000000E+00  0.00000000000E+00  0.19117015018E+03  0.19117015018E+03  0.00000000000E+00 0.  1.
         21   -1    0    0  503  502 -0.00000000000E+00 -0.00000000000E+00 -0.10537126797E+02  0.10537126797E+02  0.00000000000E+00 0.  1.
         21    1    1    2  503  501 -0.14927846605E+02 -0.42183024510E+02  0.98144629200E+02  0.10786387904E+03  0.00000000000E+00 0.  1.
         21    1    1    2  504  502  0.14927846605E+02  0.42183024510E+02  0.82488394185E+02  0.93843397937E+02  0.00000000000E+00 0.  1.
</event>
<event>
 4    1  0.1571930E+006  0.2927120E+02  0.7546771E-02  0.1426037E+00
         21   -1    0    0  503  501  0.00000000000E+00  0.00000000000E+00  0.18078153871E+03  0.18078153871E+03  0.00000000000E+00 0. -1.
         21   -1    0    0  504  502 -0.00000000000E+00 -0.00000000000E+00 -0.15755065759E+02  0.15755065759E+02  0.00000000000E+00 0. -1.
         21    1    1    2  503  502 -0.15848344511E+02  0.24609615121E+02  0.16468222435E+03  0.16726337972E+03  0.00000000000E+00 0. -1.
         21    1    1    2  504  501  0.15848344511E+02 -0.24609615121E+02  0.34424860654E+00  0.29273224750E+02  0.00000000000E+00 0. -1.
</event>
<event>
 4    1  0.1571930E+006  0.2564758E+02  0.7546771E-02  0.1461688E+00
         21   -1    0    0  503  501  0.00000000000E+00  0.00000000000E+00  0.15449132628E+03  0.15449132628E+03  0.00000000000E+00 0.  1.
         21   -1    0    0  504  502 -0.00000000000E+00 -0.00000000000E+00 -0.25673954747E+02  0.25673954747E+02  0.00000000000E+00 0. -1.
         21    1    1    2  503  502  0.12373677828E+02 -0.22465314622E+02 -0.17865792291E+02  0.31256756041E+02  0.00000000000E+00 0. -1.
         21    1    1    2  504  501 -0.12373677828E+02  0.22465314622E+02  0.14668316382E+03  0.14890852498E+03  0.00000000000E+00 0.  1.
</event>
<event>
 4    1  0.1571930E+006  0.2417788E+02  0.7546771E-02  0.1478214E+00
         21   -1    0    0  504  501  0.00000000000E+00  0.00000000000E+00  0.17449066412E+02  0.17449066412E+02  0.00000000000E+00 0. -1.
         21   -1    0    0  503  502 -0.00000000000E+00 -0.00000000000E+00 -0.26589832519E+03  0.26589832519E+03  0.00000000000E+00 0. -1.
         21    1    1    2  503  501 -0.15043869485E+02  0.18927546571E+02  0.82237079610E+01  0.25538194942E+02  0.00000000000E+00 0. -1.
         21    1    1    2  504  502  0.15043869485E+02 -0.18927546571E+02 -0.25667296674E+03  0.25780919666E+03  0.00000000000E+00 0. -1.
</event>
<event>
 4    1  0.1571930E+006  0.2127478E+02  0.7546771E-02  0.1515378E+00
         21   -1    0    0  502  501  0.00000000000E+00  0.00000000000E+00  0.96981810416E+00  0.96981810416E+00  0.00000000000E+00 0. -1.
         21   -1    0    0  504  502 -0.00000000000E+00 -0.00000000000E+00 -0.10557152708E+04  0.10557152708E+04  0.00000000000E+00 0. -1.
         21    1    1    2  503  501  0.17381395343E+02 -0.12267983230E+02 -0.13272953025E+03  0.13442374982E+03  0.00000000000E+00 0. -1.
         21    1    1    2  504  503 -0.17381395343E+02  0.12267983230E+02 -0.92201592247E+03  0.92226133911E+03  0.00000000000E+00 0. -1.
</event>
<event>
 4    1  0.1571930E+006  0.2216532E+02  0.7546771E-02  0.1503254E+00
         21   -1    0    0  504  501  0.00000000000E+00  0.00000000000E+00  0.32794387195E+01  0.32794387195E+01  0.00000000000E+00 0.  1.
         21   -1    0    0  503  502 -0.00000000000E+00 -0.00000000000E+00 -0.20485701030E+03  0.20485701030E+03  0.00000000000E+00 0.  1.
         21    1    1    2  503  501  0.15028199818E+02  0.16292784012E+02 -0.15473350157E+03  0.15631301324E+03  0.00000000000E+00 0.  1.
         21    1    1    2  504  502 -0.15028199818E+02 -0.16292784012E+02 -0.46844070009E+02  0.51823435776E+02  0.00000000000E+00 0.  1.
</event>
<event>
 4    1  0.1571930E+006  0.2530866E+02  0.7546771E-02  0.1465380E+00
         21   -1    0    0  503  501  0.00000000000E+00  0.00000000000E+00  0.63374915008E+01  0.63374915008E+01  0.00000000000E+00 0.  1.
         21   -1    0    0  504  502 -0.00000000000E+00 -0.00000000000E+00 -0.10115512632E+03  0.10115512632E+03  0.00000000000E+00 0.  1.
         21    1    1    2  503  502  0.25113927919E+02 -0.31335297973E+01 -0.45846955565E+02  0.52368613874E+02  0.00000000000E+00 0.  1.
         21    1    1    2  504  501 -0.25113927919E+02  0.31335297973E+01 -0.48970679258E+02  0.55124003950E+02  0.00000000000E+00 0.  1.
</event>
<event>
 4    1  0.1571930E+006  0.3339508E+02  0.7546771E-02  0.1392211E+00
         21   -1    0    0  504  501  0.00000000000E+00  0.00000000000E+00  0.35782492680E+02  0.35782492680E+02  0.00000000000E+00 0.  1.
         21   -1    0    0  503  502 -0.00000000000E+00 -0.00000000000E+00 -0.35283815932E+02  0.35283815932E+02  0.00000000000E+00 0.  1.
         21    1    1    2  503  501 -0.27886168695E+01 -0.33278450586E+02  0.12386820884E+02  0.35618323783E+02  0.00000000000E+00 0.  1.
         21    1    1    2  504  502  0.27886168695E+01  0.33278450586E+02 -0.11888144136E+02  0.35447984829E+02  0.00000000000E+00 0.  1.
</event>
<event>
 4    1  0.1571930E+006  0.2116426E+02  0.7546771E-02  0.1516932E+00
         21   -1    0    0  504  501  0.00000000000E+00  0.00000000000E+00  0.59269261362E+02  0.59269261362E+02  0.00000000000E+00 0.  1.
         21   -1    0    0  503  502 -0.00000000000E+00 -0.00000000000E+00 -0.13854575247E+02  0.13854575247E+02  0.00000000000E+00 0.  1.
         21    1    1    2  503  501 -0.21013428222E+02 -0.25222390082E+01  0.47356537523E+02  0.51870680557E+02  0.00000000000E+00 0.  1.
         21    1    1    2  504  502  0.21013428222E+02  0.25222390082E+01 -0.19418514073E+01  0.21253156052E+02  0.00000000000E+00 0.  1.
</event>
<event>
 4    1  0.1571930E+006  0.2348088E+02  0.7546771E-02  0.1486546E+00
         21   -1    0    0  502  501  0.00000000000E+00  0.00000000000E+00  0.49303806892E+02  0.49303806892E+02  0.00000000000E+00 0. -1.
         21   -1    0    0  503  502 -0.00000000000E+00 -0.00000000000E+00 -0.50183906320E+03  0.50183906320E+03  0.00000000000E+00 0. -1.
         21    1    1    2  503  504 -0.46224086840E+01  0.23021402160E+02 -0.49875141499E+03  0.49930384094E+03  0.00000000000E+00 0. -1.
         21    1    1    2  504  501  0.46224086840E+01 -0.23021402160E+02  0.46216158687E+02  0.51839029150E+02  0.00000000000E+00 0. -1.
</event>
<event>
 4    1  0.1571930E+006  0.3482634E+02  0.7546771E-02  0.1381788E+00
         21   -1    0    0  504  501  0.00000000000E+00  0.00000000000E+00  0.53355405330E+03  0.53355405330E+03  0.00000000000E+00 0. -1.
         21   -1    0    0  503  502 -0.00000000000E+00 -0.00000000000E+00 -0.23991288119E+01  0.23991288119E+01  0.00000000000E+00 0. -1.
         21    1    1    2  503  501 -0.12133287830E+02 -0.32644408014E+02  0.32697287777E+03  0.32882234846E+03  0.00000000000E+00 0. -1.
         21    1    1    2  504  502  0.12133287830E+02  0.32644408014E+02  0.20418204671E+03  0.20713083365E+03  0.00000000000E+00 0. -1.
</event>
<event>
 4    1  0.1571930E+006  0.2425536E+02  0.7546771E-02  0.1477309E+00
         21   -1    0    0  502  501  0.00000000000E+00  0.00000000000E+00  0.54724518069E+03  0.54724518069E+03  0.00000000000E+00 0.  1.
         21   -1    0    0  503  502 -0.00000000000E+00 -0.00000000000E+00 -0.11663073975E+01  0.11663073975E+01  0.00000000000E+00 0.  1.
         21    1    1    2  503  504  0.24164890014E+02 -0.20930024426E+01  0.19634299564E+03  0.19783552387E+03  0.00000000000E+00 0.  1.
         21    1    1    2  504  501 -0.24164890014E+02  0.20930024426E+01  0.34973587765E+03  0.35057596422E+03  0.00000000000E+00 0.  1.
</event>
<event>
 4    1  0.1571930E+006  0.4226306E+02  0.7546771E-02  0.1335711E+00
         21   -1    0    0  502  501  0.00000000000E+00  0.00000000000E+00  0.94126868557E+03  0.94126868557E+03  0.00000000000E+00 0.  1.
         21   -1    0    0  503  502 -0.00000000000E+00 -0.00000000000E+00 -0.27665047175E+01  0.27665047175E+01  0.00000000000E+00 0.  1.
         21    1    1    2  503  504 -0.10099330585E+02  0.41038634980E+02  0.20472123996E+03  0.20903815951E+03  0.00000000000E+00 0.  1.
         21    1    1    2  504  501  0.10099330585E+02 -0.41038634980E+02  0.73378094089E+03  0.73499703078E+03  0.00000000000E+00 0.  1.
</event>
<event>
 4    1  0.1571930E+006  0.2947553E+02  0.7546771E-02  0.1424210E+00
         21   -1    0    0  503  501  0.00000000000E+00  0.00000000000E+00  0.15470633209E+02  0.15470633209E+02  0.00000000000E+00 0. -1.
         21   -1    0    0  501  502 -0.00000000000E+00 -0.00000000000E+00 -0.66376003971E+03  0.66376003971E+03  0.00000000000E+00 0. -1.
         21    1    1    2  503  504  0.21082598982E+02  0.20599291806E+02  0.78633087190E+00  0.29486015651E+02  0.00000000000E+00 0. -1.
         21    1    1    2  504  502 -0.21082598982E+02 -0.20599291806E+02 -0.64907573737E+03  0.64974465727E+03  0.00000000000E+00 0. -1.
</event>
<event>
 4    1  0.1571930E+006  0.2683219E+02  0.7546771E-02  0.1449301E+00
         21   -1    0    0  503  501  0.00000000000E+00  0.00000000000E+00  0.93988342848E+02  0.93988342848E+02  0.00000000000E+00 0.  1.
         21   -1    0    0  504  502 -0.00000000000E+00 -0.00000000000E+00 -0.64777554257E+03  0.64777554257E+03  0.00000000000E+00 0.  1.
         21    1    1    2  503  502 -0.25594092465E+02 -0.80566020033E+01 -0.64557611818E+03  0.64613349299E+03  0.00000000000E+00 0.  1.
         21    1    1    2  504  501  0.25594092465E+02  0.80566020033E+01  0.91788918454E+02  0.95630392428E+02  0.00000000000E+00 0.  1.
</event>
<event>
 4    1  0.1571930E+006  0.2242855E+02  0.7546771E-02  0.1499801E+00
         21   -1    0    0  504  501  0.00000000000E+00  0.00000000000E+00  0.46416902127E+02  0.46416902127E+02  0.00000000000E+00 0. -1.
         21   -1    0    0  503  502 -0.00000000000E+00 -0.00000000000E+00 -0.41592145700E+02  0.41592145700E+02  0.00000000000E+00 0. -1.
         21    1    1    2  503  501  0.16913624927E+02  0.14729878949E+02 -0.35427306120E+02  0.41930109241E+02  0.00000000000E+00 0. -1.
         21    1    1    2  504  502 -0.16913624927E+02 -0.14729878949E+02  0.40252062546E+02  0.46078938587E+02  0.00000000000E+00 0. -1.
</event>
<event>
 4    1  0.1571930E+006  0.2257649E+02  0.7546771E-02  0.1497886E+00
         21   -1    0    0  502  501  0.00000000000E+00  0.00000000000E+00  0.18424252397E+02  0.18424252397E+02  0.00000000000E+00 0. -1.
         21   -1    0    0  504  502 -0.00000000000E+00 -0.00000000000E+00 -0.65618017852E+03  0.65618017852E+03  0.00000000000E+00 0. -1.
         21    1    1    2  503  501 -0.14082402219E+02  0.17646075752E+02  0.11237366473E+02  0.25218573452E+02  0.00000000000E+00 0. -1.
         21    1    1    2  504  503  0.14082402219E+02 -0.17646075752E+02 -0.64899329259E+03  0.64938585746E+03  0.00000000000E+00 0. -1.
</event>
<event>
 4    1  0.1571930E+006  0.2834479E+02  0.7546771E-02  0.1434548E+00
         21   -1    0    0  502  501  0.00000000000E+00  0.00000000000E+00  0.30677651747E+02  0.30677651747E+02  0.00000000000E+00 0.  1.
         21   -1    0    0  503  502 -0.00000000000E+00 -0.00000000000E+00 -0.47860037848E+02  0.47860037848E+02  0.00000000000E+00 0.  1.
         21    1    1    2  503  504  0.19844224341E+02 -0.20239420572E+02 -0.35015163622E+02  0.45049850923E+02  0.00000000000E+00 0.  1.
         21    1    1    2  504  501 -0.19844224341E+02  0.20239420572E+02  0.17832777520E+02  0.33487838671E+02  0.00000000000E+00 0.  1.
</event>
<event>
 4    1  0.1571930E+006  0.2302373E+02  0.7546771E-02  0.1492200E+00
         21   -1    0    0  503  501  0.00000000000E+00  0.00000000000E+00  0.19874032166E+03  0.19874032166E+03  0.00000000000E+00 0.  1.
         21   -1    0    0  504  502 -0.00000000000E+00 -0.00000000000E+00 -0.20354261211E+02  0.20354261211E+02  0.00000000000E+00 0.  1.
         21    1    1    2  503  502  0.19360302269E+02  0.12460766309E+02 -0.12924683220E+02  0.26403398215E+02  0.00000000000E+00 0.  1.
         21    1    1    2  504  501 -0.19360302269E+02 -0.12460766309E+02  0.19131074366E+03  0.19269118465E+03  0.00000000000E+00 0.  1.
</event>
<event>
 4    1  0.1571930E+006  0.2370371E+02  0.7546771E-02  0.1483846E+00
         21   -1    0    0  503  501  0.00000000000E+00  0.00000000000E+00  0.33938332267E+03  0.33938332267E+03  0.00000000000E+00 0.  1.
         21   -1    0    0  504  502 -0.00000000000E+00 -0.00000000000E+00 -0.54738442352E+02  0.54738442352E+02  0.00000000000E+00 0. -1.
         21    1    1    2  503  502  0.23685371863E+02 -0.93229504097E+00  0.33638041539E+03  0.33721454576E+03  0.00000000000E+00 0.  1.
         21    1    1    2  504  501 -0.23685371863E+02  0.93229504097E+00 -0.51735535075E+02  0.56907219259E+02  0.00000000000E+00 0. -1.
</event>
<event>
 4    1  0.1571930E+006  0.3581325E+02  0.7546771E-02  0.1374934E+00
         21   -1    0    0  503  501  0.00000000000E+00  0.00000000000E+00  0.23749978047E+02  0.23749978047E+02  0.00000000000E+00 0.  1.
         21   -1    0    0  504  502 -0.00000000000E+00 -0.00000000000E+00 -0.56196862658E+03  0.56196862658E+03  0.00000000000E+00 0.  1.
         21    1    1    2  503  502 -0.35047026979E+02 -0.73685129422E+01  0.93230997468E+01  0.37006881413E+02  0.00000000000E+00 0.  1.
         21    1    1    2  504  501  0.35047026979E+02  0.73685129422E+01 -0.54754174828E+03  0.54871172322E+03  0.00000000000E+00 0.  1.
</event>
<event>
 4    1  0.1571930E+006  0.3688370E+02  0.7546771E-02  0.1367783E+00
         21   -1    0    0  504  501  0.00000000000E+00  0.00000000000E+00  0.30131702070E+01  0.30131702070E+01  0.00000000000E+00 0.  1.
         21   -1    0    0  501  502 -0.00000000000E+00 -0.00000000000E+00 -0.45517987195E+03  0.45517987195E+03  0.00000000000E+00 0. -1.
         21    1    1    2  503  502 -0.25446423969E+02 -0.26699935152E+02 -0.20544799474E+03  0.20873256950E+03  0.00000000000E+00 0. -1.
         21    1    1    2  504  503  0.25446423969E+02  0.26699935152E+02 -0.24671870701E+03  0.24946047266E+03  0.00000000000E+00 0.  1.
</event>
<event>
 4    1  0.1571930E+006  0.3805280E+02  0.7546771E-02  0.1360290E+00
         21   -1    0    0  503  501  0.00000000000E+00  0.00000000000E+00  0.15167322411E+04  0.15167322411E+04  0.00000000000E+00 0. -1.
         21   -1    0    0  504  502 -0.00000000000E+00 -0.00000000000E+00 -0.15671915116E+01  0.15671915116E+01  0.00000000000E+00 0. -1.
         21    1    1    2  503  502 -0.97963871925E+01  0.36770187799E+02  0.12321723133E+04  0.12327597599E+04  0.00000000000E+00 0. -1.
         21    1    1    2  504  501  0.97963871925E+01 -0.36770187799E+02  0.28299273635E+03  0.28553967279E+03  0.00000000000E+00 0. -1.
</event>
<event>
 4    1  0.1571930E+006  0.3441254E+02  0.7546771E-02  0.1384741E+00
         21   -1    0    0  504  501  0.00000000000E+00  0.00000000000E+00  0.94795447365E+02  0.94795447365E+02  0.00000000000E+00 0.  1.
         21   -1    0    0  503  502 -0.00000000000E+00 -0.00000000000E+00 -0.32341906401E+02  0.32341906401E+02  0.00000000000E+00 0. -1.
         21    1    1    2  503  501  0.34256312875E+02  0.32754052562E+01  0.81027436417E+02  0.88032202652E+02  0.00000000000E+00 0.  1.
         21    1    1    2  504  502 -0.34256312875E+02 -0.32754052562E+01 -0.18573895454E+02  0.39105151115E+02  0.00000000000E+00 0. -1.
</event>
<event>
 4    1  0.1571930E+006  0.2024458E+02  0.7546771E-02  0.1530329E+00
         21   -1    0    0  504  501  0.00000000000E+00  0.00000000000E+00  0.39766466332E+01  0.39766466332E+01  0.00000000000E+00 0. -1.
         21   -1    0    0  503  502 -0.00000000000E+00 -0.00000000000E+00 -0.12147484960E+03  0.12147484960E+03  0.00000000000E+00 0. -1.
         21    1    1    2  503  501 -0.43421741877E+01  0.19773432942E+02 -0.34328445807E+02  0.39853297461E+02  0.00000000000E+00 0. -1.
         21    1    1    2  504  502  0.43421741877E+01 -0.19773432942E+02 -0.83169757155E+02  0.85598198768E+02  0.00000000000E+00 0. -1.
</event>
<event>
 4    1  0.1571930E+006  0.2146928E+02  0.7546771E-02  0.1512669E+00
         21   -1    0    0  504  501  0.00000000000E+00  0.00000000000E+00  0.48667741870E+02  0.48667741870E+02  0.00000000000E+00 0. -1.
         21   -1    0    0  501  502 -0.00000000000E+00 -0.00000000000E+00 -0.12865883212E+03  0.12865883212E+03  0.00000000000E+00 0. -1.
         21    1    1    2  503  502  0.19765853355E+02  0.83809874211E+01 -0.12533307556E+03  0.12715860072E+03  0.00000000000E+00 0. -1.
         21    1    1    2  504  503 -0.19765853355E+02 -0.83809874211E+01  0.45341985314E+02  0.50167973262E+02  0.00000000000E+00 0. -1.
</event>
<event>
 4    1  0.1571930E+006  0.2621404E+02  0.7546771E-02  0.1455667E+00
         21   -1    0    0  503  501  0.00000000000E+00  0.00000000000E+00  0.45178609750E+02  0.45178609750E+02  0.00000000000E+00 0. -1.
         21   -1    0    0  504  502 -0.00000000000E+00 -0.00000000000E+00 -0.22507208055E+02  0.22507208055E+02  0.00000000000E+00 0. -1.
         21    1    1    2  503  502 -0.47602917321E+01 -0.25778195496E+02 -0.79341898726E+01  0.27388448466E+02  0.00000000000E+00 0. -1.
         21    1    1    2  504  501  0.47602917321E+01  0.25778195496E+02  0.30605591568E+02  0.40297369339E+02  0.00000000000E+00 0. -1.
</event>
<event>
 4    1  0.1571930E+006  0.3847665E+02  0.7546771E-02  0.1357651E+00
         21   -1    0    0  502  501  0.00000000000E+00  0.00000000000E+00  0.15445996519E+03  0.15445996519E+03  0.00000000000E+00 0.  1.
         21   -1    0    0  504  502 -0.00000000000E+00 -0.00000000000E+00 -0.11405122603E+03  0.11405122603E+03  0.00000000000E+00 0. -1.
         21    1    1    2  503  501  0.61269361184E+01 -0.37985695989E+02  0.14869486175E+03  0.15359236426E+03  0.00000000000E+00 0.  1.
         21    1    1    2  504  503 -0.61269361184E+01  0.37985695989E+02 -0.10828612259E+03  0.11491882697E+03  0.00000000000E+00 0. -1.
</event>
<event>
 4    1  0.1571930E+006  0.3449247E+02  0.7546771E-02  0.1384167E+00
         21   -1    0    0  503  501  0.00000000000E+00  0.00000000000E+00  0.68954025030E+03  0.68954025030E+03  0.00000000000E+00 0.  1.
         21   -1    0    0  504  502 -0.00000000000E+00 -0.00000000000E+00 -0.34994251068E+01  0.34994251068E+01  0.00000000000E+00 0. -1.
         21    1    1    2  503  502  0.23758202751E+02 -0.25005565020E+02  0.58974363814E+03  0.59075146145E+03  0.00000000000E+00 0.  1.
         21    1    1    2  504  501 -0.23758202751E+02  0.25005565020E+02  0.96297187057E+02  0.10228821396E+03  0.00000000000E+00 0. -1.
</event>
<event>
 4    1  0.1571930E+006  0.2309329E+02  0.7546771E-02  0.1491330E+00
         21   -1    0    0  502  501  0.00000000000E+00  0.00000000000E+00  0.49961530861E+02  0.49961530861E+02  0.00000000000E+00 0. -1.
         21   -1    0    0  503  502 -0.00000000000E+00 -0.00000000000E+00 -0.48931188058E+02  0.48931188058E+02  0.00000000000E+00 0.  1.
         21    1    1    2  503  504  0.16682872703E+02  0.15968154305E+02 -0.43206497980E+02  0.48990832421E+02  0.00000000000E+00 0.  1.
         21    1    1    2  504  501 -0.16682872703E+02 -0.15968154305E+02  0.44236840784E+02  0.49901886498E+02  0.00000000000E+00 0. -1.
</event>
<event>
 4    1  0.1571930E+006  0.3156251E+02  0.7546771E-02  0.1406487E+00
         21   -1    0    0  502  501  0.00000000000E+00  0.00000000000E+00  0.22474495310E+03  0.22474495310E+03  0.00000000000E+00 0.  1.
         21   -1    0    0  504  502 -0.00000000000E+00 -0.00000000000E+00 -0.76226117236E+01  0.76226117236E+01  0.00000000000E+00 0. -1.
         21    1    1    2  503  501  0.31557857508E+02 -0.54198820378E+00  0.18372233414E+03  0.18641375535E+03  0.00000000000E+00 0.  1.
         21    1    1    2  504  503 -0.31557857508E+02  0.54198820378E+00  0.33400007234E+02  0.45953809471E+02  0.00000000000E+00 0. -1.
</event>
<event>
 4    1  0.1571930E+006  0.3017486E+02  0.7546771E-02  0.1418083E+00
         21   -1    0    0  504  501  0.00000000000E+00  0.00000000000E+00  0.30954033248E+03  0.30954033248E+03  0.00000000000E+00 0. -1.
         21   -1    0    0  503  502 -0.00000000000E+00 -0.00000000000E+00 -0.29428309316E+01  0.29428309316E+01  0.00000000000E+00 0. -1.
         21    1    1    2  503  501  0.30125039047E+02 -0.17332883319E+01  0.15001408136E+03  0.15301877947E+03  0.00000000000E+00 0. -1.
         21    1    1    2  504  502 -0.30125039047E+02  0.17332883319E+01  0.15658342019E+03  0.15946438393E+03  0.00000000000E+00 0. -1.
</event>
<event>
 4    1  0.1571930E+006  0.2691754E+02  0.7546771E-02  0.1448438E+00
         21   -1    0    0  502  501  0.00000000000E+00  0.00000000000E+00  0.51073025074E+01  0.51073025074E+01  0.00000000000E+00 0.  1.
         21   -1    0    0  503  502 -0.00000000000E+00 -0.00000000000E+00 -0.23837969287E+03  0.23837969287E+03  0.00000000000E+00 0.  1.
         21    1    1    2  503  504  0.48627104550E+01  0.26474671115E+02 -0.19410108630E+03  0.19595863305E+03  0.00000000000E+00 0.  1.
         21    1    1    2  504  501 -0.48627104550E+01 -0.26474671115E+02 -0.39171304060E+02  0.47528362326E+02  0.00000000000E+00 0.  1.
</event>
<event>
 4    1  0.1571930E+006  0.2319664E+02  0.7546771E-02  0.1490044E+00
         21   -1    0    0  504  501  0.00000000000E+00  0.00000000000E+00  0.33207827702E+01  0.33207827702E+01  0.00000000000E+00 0. -1.
         21   -1    0    0  503  502 -0.00000000000E+00 -0.00000000000E+00 -0.16213665706E+03  0.16213665706E+03  0.00000000000E+00 0. -1.
         21    1    1    2  503  501 -0.20880999076E+02 -0.10102870328E+02 -0.77339740543E+02  0.80743542024E+02  0.00000000000E+00 0. -1.
         21    1    1    2  504  502  0.20880999076E+02  0.10102870328E+02 -0.81476133750E+02  0.84713897809E+02  0.00000000000E+00 0. -1.
</event>
<event>
 4    1  0.1571930E+006  0.2266699E+02  0.7546771E-02  0.1496723E+00
         21   -1    0    0  503  501  0.00000000000E+00  0.00000000000E+00  0.91175342525E+03  0.91175342525E+03  0.00000000000E+00 0. -1.
         21   -1    0    0  504  502 -0.00000000000E+00 -0.00000000000E+00 -0.10759705479E+03  0.10759705479E+03  0.00000000000E+00 0.  1.
         21    1    1    2  503  502  0.98300304531E+01  0.20424570663E+02  0.91041700410E+03  0.91069913469E+03  0.00000000000E+00 0. -1.
         21    1    1    2  504  501 -0.98300304531E+01 -0.20424570663E+02 -0.10626063363E+03  0.10865134534E+03  0.00000000000E+00 0.  1.
</event>
<event>
 4    1  0.1571930E+006  0.2300656E+02  0.7546771E-02  0.1492416E+00
         21   -1    0    0  503  501  0.00000000000E+00  0.00000000000E+00  0.96514179940E+02  0.96514179940E+02  0.00000000000E+00 0.  1.
         21   -1    0    0  504  502 -0.00000000000E+00 -0.00000000000E+00 -0.59225782822E+01  0.59225782822E+01  0.00000000000E+00 0.  1.
         21    1    1    2  503  502  0.69524735075E+01  0.21930907769E+02  0.59230655543E+02  0.63541892949E+02  0.00000000000E+00 0.  1.
         21    1    1    2  504  501 -0.69524735075E+01 -0.21930907769E+02  0.31360946115E+02  0.38894865273E+02  0.00000000000E+00 0.  1.
</event>
<event>
 4    1  0.1571930E+006  0.2330711E+02  0.7546771E-02  0.1488677E+00
         21   -1    0    0  503  501  0.00000000000E+00  0.00000000000E+00  0.72274656483E+01  0.72274656483E+01  0.00000000000E+00 0.  1.
         21   -1    0    0  504  502 -0.00000000000E+00 -0.00000000000E+00 -0.10367840034E+03  0.10367840034E+03  0.00000000000E+00 0.  1.
         21    1    1    2  503  502 -0.21272579351E+02  0.95235830171E+01 -0.19142564942E+02  0.30160554675E+02  0.00000000000E+00 0.  1.
         21    1    1    2  504  501  0.21272579351E+02 -0.95235830171E+01 -0.77308369745E+02  0.80745311309E+02  0.00000000000E+00 0.  1.
</event>
<event>
 4    1  0.1571930E+006  0.4806744E+02  0.7546771E-02  0.1306776E+00
         21   -1    0    0  504  501  0.00000000000E+00  0.00000000000E+00  0.12011007959E+03  0.12011007959E+03  0.00000000000E+00 0. -1.
         21   -1    0    0  503  502 -0.00000000000E+00 -0.00000000000E+00 -0.25662896659E+02  0.25662896659E+02  0.00000000000E+00 0. -1.
         21    1    1    2  503  501  0.44988287081E+02  0.16927277870E+02  0.10749603495E+02  0.49254773229E+02  0.00000000000E+00 0. -1.
         21    1    1    2  504  502 -0.44988287081E+02 -0.16927277870E+02  0.83697579440E+02  0.96518203022E+02  0.00000000000E+00 0. -1.
</event>
<event>
 4    1  0.1571930E+006  0.3058553E+02  0.7546771E-02  0.1414575E+00
         21   -1    0    0  504  501  0.00000000000E+00  0.00000000000E+00  0.30992545509E+02  0.30992545509E+02  0.00000000000E+00 0.  1.
         21   -1    0    0  503  502 -0.00000000000E+00 -0.00000000000E+00 -0.30419845491E+02  0.30419845491E+02  0.00000000000E+00 0.  1.
         21    1    1    2  503  501 -0.30151586556E+02  0.51338838074E+01 -0.24181179633E+01  0.30680975038E+02  0.00000000000E+00 0.  1.
         21    1    1    2  504  502  0.30151586556E+02 -0.51338838074E+01  0.29908179812E+01  0.30731415961E+02  0.00000000000E+00 0.  1.
</event>
<event>
 4    1  0.1571930E+006  0.2011711E+02  0.7546771E-02  0.1532253E+00
         21   -1    0    0  503  501  0.00000000000E+00  0.00000000000E+00  0.89774910417E+02  0.89774910417E+02  0.00000000000E+00 0.  1.
         21   -1    0    0  504  502 -0.00000000000E+00 -0.00000000000E+00 -0.56663127734E+01  0.56663127734E+01  0.00000000000E+00 0.  1.
         21    1    1    2  503  502 -0.19362367017E+02 -0.54586596475E+01  0.63630919402E+02  0.66735239009E+02  0.00000000000E+00 0.  1.
         21    1    1    2  504  501  0.19362367017E+02  0.54586596475E+01  0.20477678242E+02  0.28705984181E+02  0.00000000000E+00 0.  1.
</event>
<event>
 4    1  0.1571930E+006  0.2860175E+02  0.7546771E-02  0.1432149E+00
         21   -1    0    0  504  501  0.00000000000E+00  0.00000000000E+00  0.65502414927E+01  0.65502414927E+01  0.00000000000E+00 0. -1.
         21   -1    0    0  503  502 -0.00000000000E+00 -0.00000000000E+00 -0.13333698451E+03  0.13333698451E+03  0.00000000000E+00 0. -1.
         21    1    1    2  503  501 -0.15686633478E+02 -0.23916302204E+02 -0.80997816473E+02  0.85899396124E+02  0.00000000000E+00 0. -1.
         21    1    1    2  504  502  0.15686633478E+02  0.23916302204E+02 -0.45788926545E+02  0.53987829880E+02  0.00000000000E+00 0. -1.
</event>
<event>
 4    1  0.1571930E+006  0.2206870E+02  0.7546771E-02  0.1504536E+00
         21   -1    0    0  503  501  0.00000000000E+00  0.00000000000E+00  0.11146795218E+01  0.11146795218E+01  0.00000000000E+00 0.  1.
         21   -1    0    0  504  502 -0.00000000000E+00 -0.00000000000E+00 -0.49182549201E+03  0.49182549201E+03  0.00000000000E+00 0.  1.
         21    1    1    2  503  502 -0.13272486849E+02  0.17631470451E+02 -0.32770470768E+03  0.32844695629E+03  0.00000000000E+00 0.  1.
         21    1    1    2  504  501  0.13272486849E+02 -0.17631470451E+02 -0.16300610481E+03  0.16449321525E+03  0.00000000000E+00 0.  1.
</event>
<event>
 4    1  0.1571930E+006  0.2271669E+02  0.7546771E-02  0.1496087E+00
         21   -1    0    0  503  501  0.00000000000E+00  0.00000000000E+00  0.28266372756E+03  0.28266372756E+03  0.00000000000E+00 0. -1.
         21   -1    0    0  501  502 -0.00000000000E+00 -0.00000000000E+00 -0.11424949334E+02  0.11424949334E+02  0.00000000000E+00 0. -1.
         21    1    1    2  503  504  0.12735495812E+02  0.18811035485E+02  0.27040412238E+03  0.27135666070E+03  0.00000000000E+00 0. -1.
         21    1    1    2  504  502 -0.12735495812E+02 -0.18811035485E+02  0.83465584642E+00  0.22732016188E+02  0.00000000000E+00 0. -1.
</event>
<event>
 4    1  0.1571930E+006  0.2800474E+02  0.7546771E-02  0.1437768E+00
         21   -1    0    0  503  501  0.00000000000E+00  0.00000000000E+00  0.38062593341E+01  0.38062593341E+01  0.00000000000E+00 0.  1.
         21   -1    0    0  504  502 -0.00000000000E+00 -0.00000000000E+00 -0.29508045330E+03  0.29508045330E+03  0.00000000000E+00 0. -1.
         21    1    1    2  503  502 -0.23413053772E+02 -0.15365369559E+02 -0.63548147480E+02  0.69445177779E+02  0.00000000000E+00 0.  1.
         21    1    1    2  504  501  0.23413053772E+02  0.15365369559E+02 -0.22772604649E+03  0.22944153486E+03  0.00000000000E+00 0. -1.
</event>
<event>
 4    1  0.1571930E+006  0.4188351E+02  0.7546771E-02  0.1337788E+00
         21   -1    0    0  504  501  0.00000000000E+00  0.00000000000E+00  0.54838568186E+02  0.54838568186E+02  0.00000000000E+00 0. -1.
         21   -1    0    0  503  502 -0.00000000000E+00 -0.00000000000E+00 -0.35439986740E+02  0.35439986740E+02  0.00000000000E+00 0. -1.
         21    1    1    2  503  501  0.40799905677E+02 -0.94655316345E+01  0.23785112434E+02  0.48165964808E+02  0.00000000000E+00 0. -1.
         21    1    1    2  504  502 -0.40799905677E+02  0.94655316345E+01 -0.43865309888E+01  0.42112590118E+02  0.00000000000E+00 0. -1.
</event>
<event>
 4    1  0.1571930E+006  0.5600606E+02  0.7546771E-02  0.1274042E+00
         21   -1    0    0  502  501  0.00000000000E+00  0.00000000000E+00  0.33211221563E+03  0.33211221563E+03  0.00000000000E+00 0.  1.
         21   -1    0    0  503  502 -0.00000000000E+00 -0.00000000000E+00 -0.17947020863E+03  0.17947020863E+03  0.00000000000E+00 0.  1.
         21    1    1    2  503  504  0.33807821963E+02 -0.44650983623E+02 -0.17264873234E+03  0.18150554796E+03  0.00000000000E+00 0.  1.
         21    1    1    2  504  501 -0.33807821963E+02  0.44650983623E+02  0.32529073934E+03  0.33007687629E+03  0.00000000000E+00 0.  1.
</event>
<event>
 4    1  0.1571930E+006  0.2046217E+02  0.7546771E-02  0.1527084E+00
         21   -1    0    0  504  501  0.00000000000E+00  0.00000000000E+00  0.17364210362E+03  0.17364210362E+03  0.00000000000E+00 0.  1.
         21   -1    0    0  501  502 -0.00000000000E+00 -0.00000000000E+00 -0.38294801551E+01  0.38294801551E+01  0.00000000000E+00 0.  1.
         21    1    1    2  503  502  0.20446717391E+02  0.79509422868E+00  0.30905900282E+02  0.37065821171E+02  0.00000000000E+00 0.  1.
         21    1    1    2  504  503 -0.20446717391E+02 -0.79509422868E+00  0.13890672318E+03  0.14040576260E+03  0.00000000000E+00 0.  1.
</event>
<event>
 4    1  0.1571930E+006  0.2392875E+02  0.7546771E-02  0.1481154E+00
         21   -1    0    0  504  501  0.00000000000E+00  0.00000000000E+00  0.37195569744E+02  0.37195569744E+02  0.00000000000E+00 0.  1.
         21   -1    0    0  503  502 -0.00000000000E+00 -0.00000000000E+00 -0.17072982058E+03  0.17072982058E+03  0.00000000000E+00 0. -1.
         21    1    1    2  503  501 -0.77095693685E+01 -0.22652766541E+02  0.32397955396E+02  0.40276703013E+02  0.00000000000E+00 0.  1.
         21    1    1    2  504  502  0.77095693685E+01  0.22652766541E+02 -0.16593220623E+03  0.16764868731E+03  0.00000000000E+00 0. -1.
</event>
<event>
 4    1  0.1571930E+006  0.2458415E+02  0.7546771E-02  0.1473510E+00
         21   -1    0    0  503  501  0.00000000000E+00  0.00000000000E+00  0.16550951731E+02  0.16550951731E+02  0.00000000000E+00 0.  1.
         21   -1    0    0  504  502 -0.00000000000E+00 -0.00000000000E+00 -0.38410443964E+02  0.38410443964E+02  0.00000000000E+00 0. -1.
         21    1    1    2  503  502 -0.12469642746E+02  0.21186992144E+02 -0.48273286612E+01  0.25053617070E+02  0.00000000000E+00 0.  1.
         21    1    1    2  504  501  0.12469642746E+02 -0.21186992144E+02 -0.17032163572E+02  0.29907778624E+02  0.00000000000E+00 0. -1.
</event>
<event>
 4    1  0.1571930E+006  0.2219541E+02  0.7546771E-02  0.1502856E+00
         21   -1    0    0  504  501  0.00000000000E+00  0.00000000000E+00  0.67542438029E+02  0.67542438029E+02  0.00000000000E+00 0.  1.
         21   -1    0    0  501  502 -0.00000000000E+00 -0.00000000000E+00 -0.73564314701E+01  0.73564314701E+01  0.00000000000E+00 0.  1.
         21    1    1    2  503  502  0.19122415742E+02  0.11268063929E+02  0.26635490765E+02  0.34671103484E+02  0.00000000000E+00 0.  1.
         21    1    1    2  504  503 -0.19122415742E+02 -0.11268063929E+02  0.33550515793E+02  0.40227766014E+02  0.00000000000E+00 0.  1.
</event>
<event>
 4    1  0.1571930E+006  0.2094080E+02  0.7546771E-02  0.1520112E+00
         21   -1    0    0  503  501  0.00000000000E+00  0.00000000000E+00  0.60372149856E+03  0.60372149856E+03  0.00000000000E+00 0.  1.
         21   -1    0    0  504  502 -0.00000000000E+00 -0.00000000000E+00 -0.11347616488E+01  0.11347616488E+01  0.00000000000E+00 0.  1.
         21    1    1    2  503  502 -0.40301197828E+01  0.20549339583E+02  0.48272595755E+03  0.48317995334E+03  0.00000000000E+00 0.  1.
         21    1    1    2  504  501  0.40301197828E+01 -0.20549339583E+02  0.11986077937E+03  0.12167630687E+03  0.00000000000E+00 0.  1.
</event>
<event>
 4    1  0.1571930E+006  0.2586715E+02  0.7546771E-02  0.1459332E+00
         21   -1    0    0  503  501  0.00000000000E+00  0.00000000000E+00  0.59738896390E+02  0.59738896390E+02  0.00000000000E+00 0.  1.
         21   -1    0    0  504  502 -0.00000000000E+00 -0.00000000000E+00 -0.42100560643E+03  0.42100560643E+03  0.00000000000E+00 0.  1.
         21    1    1    2  503  502  0.92975811636E+01  0.24138448350E+02  0.56519871247E+02  0.62157908186E+02  0.00000000000E+00 0.  1.
         21    1    1    2  504  501 -0.92975811636E+01 -0.24138448350E+02 -0.41778658129E+03  0.41858659463E+03  0.00000000000E+00 0.  1.
</event>
<event>
 4    1  0.1571930E+006  0.2257579E+02  0.7546771E-02  0.1497895E+00
         21   -1    0    0  503  501  0.00000000000E+00  0.00000000000E+00  0.49389560080E+00  0.49389560080E+00  0.00000000000E+00 0. -1.
         21   -1    0    0  504  502 -0.00000000000E+00 -0.00000000000E+00 -0.10825306588E+04  0.10825306588E+04  0.00000000000E+00 0. -1.
         21    1    1    2  503  502 -0.22472429025E+02  0.21578596869E+01 -0.65809222695E+03  0.65847934333E+03  0.00000000000E+00 0. -1.
         21    1    1    2  504  501  0.22472429025E+02 -0.21578596869E+01 -0.42394453622E+03  0.42454521104E+03  0.00000000000E+00 0. -1.
</event>
<event>
 4    1  0.1571930E+006  0.2750729E+02  0.7546771E-02  0.1442578E+00
         21   -1    0    0  503  501  0.00000000000E+00  0.00000000000E+00  0.33575813921E+02  0.33575813921E+02  0.00000000000E+00 0. -1.
         21   -1    0    0  501  502 -0.00000000000E+00 -0.00000000000E+00 -0.69011677801E+02  0.69011677801E+02  0.00000000000E+00 0.  1.
         21    1    1    2  503  504  0.17239917774E+02  0.21434458397E+02  0.24375845948E+02  0.36753675153E+02  0.00000000000E+00 0. -1.
         21    1    1    2  504  502 -0.17239917774E+02 -0.21434458397E+02 -0.59811709827E+02  0.65833816569E+02  0.00000000000E+00 0.  1.
</event>
<event>
 4    1  0.1571930E+006  0.2174987E+02  0.7546771E-02  0.1508822E+00
         21   -1    0    0  503  501  0.00000000000E+00  0.00000000000E+00  0.35046996862E+03  0.35046996862E+03  0.00000000000E+00 0. -1.
         21   -1    0    0  504  502 -0.00000000000E+00 -0.00000000000E+00 -0.15895999565E+01  0.15895999565E+01  0.00000000000E+00 0. -1.
         21    1    1    2  503  502 -0.29534095886E+01  0.21548412523E+02  0.24281348708E+03  0.24378565630E+03  0.00000000000E+00 0. -1.
         21    1    1    2  504  501  0.29534095886E+01 -0.21548412523E+02  0.10606688158E+03  0.10827391227E+03  0.00000000000E+00 0. -1.
</event>
<event>
 4    1  0.1571930E+006  0.2423847E+02  0.7546771E-02  0.1477506E+00
         21   -1    0    0  502  501  0.00000000000E+00  0.00000000000E+00  0.10019713811E+04  0.10019713811E+04  0.00000000000E+00 0.  1.
         21   -1    0    0  503  502 -0.00000000000E+00 -0.00000000000E+00 -0.27078082777E+01  0.27078082777E+01  0.00000000000E+00 0.  1.
         21    1    1    2  503  504 -0.90115620530E+01 -0.22501004636E+02  0.54994423409E+02  0.60099002208E+02  0.00000000000E+00 0.  1.
         21    1    1    2  504  501  0.90115620530E+01  0.22501004636E+02  0.94426914943E+03  0.94458018719E+03  0.00000000000E+00 0.  1.
</event>
<event>
 4    1  0.1571930E+006  0.2015324E+02  0.7546771E-02  0.1531706E+00
         21   -1    0    0  502  501  0.00000000000E+00  0.00000000000E+00  0.28006000613E+02  0.28006000613E+02  0.00000000000E+00 0. -1.
         21   -1    0    0  504  502 -0.00000000000E+00 -0.00000000000E+00 -0.14718919165E+03  0.14718919165E+03  0.00000000000E+00 0.  1.
         21    1    1    2  503  501  0.18859227567E+02  0.71051217933E+01  0.23578678699E+02  0.31017854686E+02  0.00000000000E+00 0. -1.
         21    1    1    2  504  503 -0.18859227567E+02 -0.71051217933E+01 -0.14276186974E+03  0.14417733758E+03  0.00000000000E+00 0.  1.
</event>
<event>
 4    1  0.1571930E+006  0.2639216E+02  0.7546771E-02  0.1453811E+00
         21   -1    0    0  503  501  0.00000000000E+00  0.00000000000E+00  0.17198043489E+02  0.17198043489E+02  0.00000000000E+00 0. -1.
         21   -1    0    0  504  502 -0.00000000000E+00 -0.00000000000E+00 -0.23930129237E+03  0.23930129237E+03  0.00000000000E+00 0.  1.
         21    1    1    2  503  502  0.43774910243E+01  0.26026595258E+02  0.58422410657E+01  0.27031053791E+02  0.00000000000E+00 0. -1.
         21    1    1    2  504  501 -0.43774910243E+01 -0.26026595258E+02 -0.22794548995E+03  0.22946828207E+03  0.00000000000E+00 0.  1.
</event>
<event>
 4    1  0.1571930E+006  0.3374062E+02  0.7546771E-02  0.1389640E+00
         21   -1    0    0  503  501  0.00000000000E+00  0.00000000000E+00  0.98488581837E+03  0.98488581837E+03  0.00000000000E+00 0. -1.
         21   -1    0    0  501  502 -0.00000000000E+00 -0.00000000000E+00 -0.56128102481E+01  0.56128102481E+01  0.00000000000E+00 0.  1.
         21    1    1    2  503  504 -0.11508327861E+02 -0.31717308054E+02  0.93095350758E+03  0.93156473876E+03  0.00000000000E+00 0. -1.
         21    1    1    2  504  502  0.11508327861E+02  0.31717308054E+02  0.48319500547E+02  0.58933889855E+02  0.00000000000E+00 0.  1.
</event>
<event>
 4    1  0.1571930E+006  0.2723571E+02  0.7546771E-02  0.1445255E+00
         21   -1    0    0  503  501  0.00000000000E+00  0.00000000000E+00  0.60723687920E+03  0.60723687920E+03  0.00000000000E+00 0.  1.
         21   -1    0    0  504  502 -0.00000000000E+00 -0.00000000000E+00 -0.14500215213E+02  0.14500215213E+02  0.00000000000E+00 0.  1.
         21    1    1    2  503  502 -0.39046500217E+01  0.26954362203E+02  0.59385424190E+03  0.59447846434E+03  0.00000000000E+00 0.  1.
         21    1    1    2  504  501  0.39046500217E+01 -0.26954362203E+02 -0.11175779109E+01  0.27258630082E+02  0.00000000000E+00 0.  1.
</event>
<event>
 4    1  0.1571930E+006  0.4223246E+02  0.7546771E-02  0.1335878E+00
         21   -1    0    0  504  501  0.00000000000E+00  0.00000000000E+00  0.34469240828E+02  0.34469240828E+02  0.00000000000E+00 0. -1.
         21   -1    0    0  503  502 -0.00000000000E+00 -0.00000000000E+00 -0.13068760204E+03  0.13068760204E+03  0.00000000000E+00 0.  1.
         21    1    1    2  503  501 -0.10550076877E+02 -0.40893473937E+02 -0.11229033692E+03  0.11996957989E+03  0.00000000000E+00 0.  1.
         21    1    1    2  504  502  0.10550076877E+02  0.40893473937E+02  0.16071975705E+02  0.45187262982E+02  0.00000000000E+00 0. -1.
</event>
<event>
 4    1  0.1571930E+006  0.2119357E+02  0.7546771E-02  0.1516519E+00
         21   -1    0    0  502  501  0.00000000000E+00  0.00000000000E+00  0.45352255229E+02  0.45352255229E+02  0.00000000000E+00 0.  1.
         21   -1    0    0  504  502 -0.00000000000E+00 -0.00000000000E+00 -0.22637419515E+02  0.22637419515E+02  0.00000000000E+00 0. -1.
         21    1    1    2  503  501  0.15133807678E+02 -0.14836950109E+02  0.36853450163E+02  0.42512868784E+02  0.00000000000E+00 0.  1.
         21    1    1    2  504  503 -0.15133807678E+02  0.14836950109E+02 -0.14138614449E+02  0.25476805960E+02  0.00000000000E+00 0. -1.
</event>
<event>
 4    1  0.1571930E+006  0.2793844E+02  0.7546771E-02  0.1438402E+00
         21   -1    0    0  503  501  0.00000000000E+00  0.00000000000E+00  0.22710952891E+02  0.22710952891E+02  0.00000000000E+00 0. -1.
         21   -1    0    0  504  502 -0.00000000000E+00 -0.00000000000E+00 -0.10267049858E+03  0.10267049858E+03  0.00000000000E+00 0.  1.
         21    1    1    2  503  502 -0.14878110284E+02  0.23647377640E+02  0.11152492379E+02  0.30082132922E+02  0.00000000000E+00 0. -1.
         21    1    1    2  504  501  0.14878110284E+02 -0.23647377640E+02 -0.91112038063E+02  0.95299318544E+02  0.00000000000E+00 0.  1.
</event>
<event>
 4    1  0.1571930E+006  0.2051162E+02  0.7546771E-02  0.1526353E+00
         21   -1    0    0  503  501  0.00000000000E+00  0.00000000000E+00  0.15474078009E+04  0.15474078009E+04  0.00000000000E+00 0. -1.
         21   -1    0    0  504  502 -0.00000000000E+00 -0.00000000000E+00 -0.30278573399E+00  0.30278573399E+00  0.00000000000E+00 0. -1.
         21    1    1    2  503  502 -0.15048864173E+02  0.13937658056E+02  0.52636153867E+03  0.52676104262E+03  0.00000000000E+00 0. -1.
         21    1    1    2  504  501  0.15048864173E+02 -0.13937658056E+02  0.10207434765E+04  0.10209495440E+04  0.00000000000E+00 0. -1.
</event>
<event>
 4    1  0.1571930E+006  0.2172720E+02  0.7546771E-02  0.1509131E+00
         21   -1    0    0  503  501  0.00000000000E+00  0.00000000000E+00  0.52921272842E+02  0.52921272842E+02  0.00000000000E+00 0. -1.
         21   -1    0    0  501  502 -0.00000000000E+00 -0.00000000000E+00 -0.10654843337E+03  0.10654843337E+03  0.00000000000E+00 0. -1.
         21    1    1    2  503  504 -0.21002173668E+02  0.55659643890E+01  0.49510619018E+02  0.54068222219E+02  0.00000000000E+00 0. -1.
         21    1    1    2  504  502  0.21002173668E+02 -0.55659643890E+01 -0.10313777954E+03  0.10540148399E+03  0.00000000000E+00 0. -1.
</event>
<event>
 4    1  0.1571930E+006  0.2492123E+02  0.7546771E-02  0.1469687E+00
         21   -1    0    0  504  501  0.00000000000E+00  0.00000000000E+00  0.19332739554E+02  0.19332739554E+02  0.00000000000E+00 0. -1.
         21   -1    0    0  501  502 -0.00000000000E+00 -0.00000000000E+00 -0.20435231382E+03  0.20435231382E+03  0.00000000000E+00 0. -1.
         21    1    1    2  503  502  0.10963716134E+02  0.22380007560E+02 -0.19518555810E+03  0.19677009402E+03  0.00000000000E+00 0. -1.
         21    1    1    2  504  503 -0.10963716134E+02 -0.22380007560E+02  0.10165983832E+02  0.26914959356E+02  0.00000000000E+00 0. -1.
</event>
<event>
 4    1  0.1571930E+006  0.3335729E+02  0.7546771E-02  0.1392495E+00
         21   -1    0    0  502  501  0.00000000000E+00  0.00000000000E+00  0.12233420152E+03  0.12233420152E+03  0.00000000000E+00 0. -1.
         21   -1    0    0  504  502 -0.00000000000E+00 -0.00000000000E+00 -0.10885373822E+02  0.10885373822E+02  0.00000000000E+00 0. -1.
         21    1    1    2  503  501 -0.26644109702E+02 -0.20069890055E+02  0.82733469258E+02  0.89205022303E+02  0.00000000000E+00 0. -1.
         21    1    1    2  504  503  0.26644109702E+02  0.20069890055E+02  0.28715358435E+02  0.44014553033E+02  0.00000000000E+00 0. -1.
</event>
<event>
 4    1  0.1571930E+006  0.2607433E+02  0.7546771E-02  0.1457135E+00
         21   -1    0    0  503  501  0.00000000000E+00  0.00000000000E+00  0.19761252024E+03  0.19761252024E+03  0.00000000000E+00 0.  1.
         21   -1    0    0  501  502 -0.00000000000E+00 -0.00000000000E+00 -0.19996129801E+02  0.19996129801E+02  0.00000000000E+00 0. -1.
         21    1    1    2  503  504 -0.25477295517E+02 -0.55477996432E+01  0.18781089736E+03  0.18961224600E+03  0.00000000000E+00 0.  1.
         21    1    1    2  504  502  0.25477295517E+02  0.55477996432E+01 -0.10194506919E+02  0.27996404038E+02  0.00000000000E+00 0. -1.
</event>
<event>
 4    1  0.1571930E+006  0.2424270E+02  0.7546771E-02  0.1477456E+00
         21   -1    0    0  503  501  0.00000000000E+00  0.00000000000E+00  0.13652726748E+02  0.13652726748E+02  0.00000000000E+00 0. -1.
         21   -1    0    0  501  502 -0.00000000000E+00 -0.00000000000E+00 -0.58286378827E+02  0.58286378827E+02  0.00000000000E+00 0. -1.
         21    1    1    2  503  504  0.11857295412E+02  0.21145047094E+02 -0.39245443150E+01  0.24558308557E+02  0.00000000000E+00 0. -1.
         21    1    1    2  504  502 -0.11857295412E+02 -0.21145047094E+02 -0.40709107764E+02  0.47380797018E+02  0.00000000000E+00 0. -1.
</event>
<event>
 4    1  0.1571930E+006  0.4046466E+02  0.7546771E-02  0.1345784E+00
         21   -1    0    0  502  501  0.00000000000E+00  0.00000000000E+00  0.12125347727E+03  0.12125347727E+03  0.00000000000E+00 0. -1.
         21   -1    0    0  503  502 -0.00000000000E+00 -0.00000000000E+00 -0.25944652809E+02  0.25944652809E+02  0.00000000000E+00 0. -1.
         21    1    1    2  503  504  0.46535229258E+01  0.40196187437E+02 -0.33106513303E+01  0.40599866654E+02  0.00000000000E+00 0. -1.
         21    1    1    2  504  501 -0.46535229258E+01 -0.40196187437E+02  0.98619475790E+02  0.10659826342E+03  0.00000000000E+00 0. -1.
</event>
<event>
 4    1  0.1571930E+006  0.4772606E+02  0.7546771E-02  0.1308344E+00
         21   -1    0    0  503  501  0.00000000000E+00  0.00000000000E+00  0.15125130044E+02  0.15125130044E+02  0.00000000000E+00 0. -1.
         21   -1    0    0  501  502 -0.00000000000E+00 -0.00000000000E+00 -0.16440093149E+03  0.16440093149E+03  0.00000000000E+00 0. -1.
         21    1    1    2  503  504  0.32780487644E+02  0.34687406329E+02 -0.48626103690E+02  0.68134238736E+02  0.00000000000E+00 0. -1.
         21    1    1    2  504  502 -0.32780487644E+02 -0.34687406329E+02 -0.10064969776E+03  0.11139182280E+03  0.00000000000E+00 0. -1.
</event>
<event>
 4    1  0.1571930E+006  0.2016605E+02  0.7546771E-02  0.1531512E+00
         21   -1    0    0  503  501  0.00000000000E+00  0.00000000000E+00  0.34232575803E+01  0.34232575803E+01  0.00000000000E+00 0. -1.
         21   -1    0    0  504  502 -0.00000000000E+00 -0.00000000000E+00 -0.27652172139E+03  0.27652172139E+03  0.00000000000E+00 0. -1.
         21    1    1    2  503  502  0.18720828779E+02 -0.74966677370E+01 -0.30836021553E+02  0.36844669663E+02  0.00000000000E+00 0. -1.
         21    1    1    2  504  501 -0.18720828779E+02  0.74966677370E+01 -0.24226244225E+03  0.24310030930E+03  0.00000000000E+00 0. -1.
</event>
<event>
 4    1  0.1571930E+006  0.2024784E+02  0.7546771E-02  0.1530280E+00
         21   -1    0    0  502  501  0.00000000000E+00  0.00000000000E+00  0.74630824030E+02  0.74630824030E+02  0.00000000000E+00 0. -1.
         21   -1    0    0  503  502 -0.00000000000E+00 -0.00000000000E+00 -0.27373189547E+02  0.27373189547E+02  0.00000000000E+00 0.  1.
         21    1    1    2  503  504  0.15143055249E+02  0.13441096147E+02 -0.21969243143E+02  0.29876794209E+02  0.00000000000E+00 0.  1.
         21    1    1    2  504  501 -0.15143055249E+02 -0.13441096147E+02  0.69226877626E+02  0.72127219368E+02  0.00000000000E+00 0. -1.
</event>
<event>
 4    1  0.1571930E+006  0.2082639E+02  0.7546771E-02  0.1521758E+00
         21   -1    0    0  504  501  0.00000000000E+00  0.00000000000E+00  0.60819483676E+02  0.60819483676E+02  0.00000000000E+00 0. -1.
         21   -1    0    0  503  502 -0.00000000000E+00 -0.00000000000E+00 -0.96994166363E+01  0.96994166363E+01  0.00000000000E+00 0. -1.
         21    1    1    2  503  501  0.19847995377E+02 -0.63083855395E+01  0.43702107382E+02  0.48410875206E+02  0.00000000000E+00 0. -1.
         21    1    1    2  504  502 -0.19847995377E+02  0.63083855395E+01  0.74179596582E+01  0.22108025106E+02  0.00000000000E+00 0. -1.
</event>
<event>
 4    1  0.1571930E+006  0.2273616E+02  0.7546771E-02  0.1495838E+00
         21   -1    0    0  504  501  0.00000000000E+00  0.00000000000E+00  0.43552100433E+01  0.43552100433E+01  0.00000000000E+00 0.  1.
         21   -1    0    0  503  502 -0.00000000000E+00 -0.00000000000E+00 -0.12077634950E+03  0.12077634950E+03  0.00000000000E+00 0.  1.
         21    1    1    2  503  501  0.13495304897E+02 -0.18297803968E+02 -0.49993282898E+02  0.54920499080E+02  0.00000000000E+00 0.  1.
         21    1    1    2  504  502 -0.13495304897E+02  0.18297803968E+02 -0.66427856554E+02  0.70211060459E+02  0.00000000000E+00 0.  1.
</event>
<event>
 4    1  0.1571930E+006  0.2082784E+02  0.7546771E-02  0.1521737E+00
         21   -1    0    0  504  501  0.00000000000E+00  0.00000000000E+00  0.27447848409E+02  0.27447848409E+02  0.00000000000E+00 0.  1.
         21   -1    0    0  503  502 -0.00000000000E+00 -0.00000000000E+00 -0.46278938983E+02  0.46278938983E+02  0.00000000000E+00 0.  1.
         21    1    1    2  503  501 -0.19625729489E+02 -0.69735054062E+01 -0.39329346489E+02  0.44503893435E+02  0.00000000000E+00 0.  1.
         21    1    1    2  504  502  0.19625729489E+02  0.69735054062E+01  0.20498255915E+02  0.29222893956E+02  0.00000000000E+00 0.  1.
</event>
<event>
 4    1  0.1571930E+006  0.2075457E+02  0.7546771E-02  0.1522798E+00
         21   -1    0    0  503  501  0.00000000000E+00  0.00000000000E+00  0.22978238099E+03  0.22978238099E+03  0.00000000000E+00 0. -1.
         21   -1    0    0  504  502 -0.00000000000E+00 -0.00000000000E+00 -0.38857413900E+02  0.38857413900E+02  0.00000000000E+00 0. -1.
         21    1    1    2  503  502 -0.36078781338E+01 -0.20438573794E+02  0.22650231595E+03  0.22745120623E+03  0.00000000000E+00 0. -1.
         21    1    1    2  504  501  0.36078781338E+01  0.20438573794E+02 -0.35577348865E+02  0.41188588658E+02  0.00000000000E+00 0. -1.
</event>
<event>
 4    1  0.1571930E+006  0.3960510E+02  0.7546771E-02  0.1350816E+00
         21   -1    0    0  504  501  0.00000000000E+00  0.00000000000E+00  0.21036249492E+02  0.21036249492E+02  0.00000000000E+00 0.  1.
         21   -1    0    0  503  502 -0.00000000000E+00 -0.00000000000E+00 -0.12634895271E+03  0.12634895271E+03  0.00000000000E+00 0.  1.
         21    1    1    2  503  501  0.86610751221E+01  0.38646469951E+02 -0.99834020164E+02  0.10740295827E+03  0.00000000000E+00 0.  1.
         21    1    1    2  504  502 -0.86610751221E+01 -0.38646469951E+02 -0.54786830484E+01  0.39982243932E+02  0.00000000000E+00 0.  1.
</event>
<event>
 4    1  0.1571930E+006  0.3205865E+02  0.7546771E-02  0.1402512E+00
         21   -1    0    0  504  501  0.00000000000E+00  0.00000000000E+00  0.40043676665E+02  0.40043676665E+02  0.00000000000E+00 0. -1.
         21   -1    0    0  503  502 -0.00000000000E+00 -0.00000000000E+00 -0.34875864301E+02  0.34875864301E+02  0.00000000000E+00 0.  1.
         21    1    1    2  503  501  0.29476307858E+02  0.12605727361E+02  0.21833942141E+02  0.38787602615E+02  0.00000000000E+00 0. -1.
         21    1    1    2  504  502 -0.29476307858E+02 -0.12605727361E+02 -0.16666129776E+02  0.36131938350E+02  0.00000000000E+00 0.  1.
</event>
<event>
 4    1  0.1571930E+006  0.2227402E+02  0.7546771E-02  0.1501821E+00
         21   -1    0    0  503  501  0.00000000000E+00  0.00000000000E+00  0.23264093104E+03  0.23264093104E+03  0.00000000000E+00 0. -1.
         21   -1    0    0  504  502 -0.00000000000E+00 -0.00000000000E+00 -0.12804017918E+02  0.12804017918E+02  0.00000000000E+00 0.  1.
         21    1    1    2  503  502  0.95460404299E+01 -0.20124742875E+02 -0.21186401263E+01  0.22374556971E+02  0.00000000000E+00 0.  1.
         21    1    1    2  504  501 -0.95460404299E+01  0.20124742875E+02  0.22195555325E+03  0.22307039199E+03  0.00000000000E+00 0. -1.
</event>
<event>
 4    1  0.1571930E+006  0.2027616E+02  0.7546771E-02  0.1529855E+00
         21   -1    0    0  503  501  0.00000000000E+00  0.00000000000E+00  0.61594079107E+02  0.61594079107E+02  0.00000000000E+00 0.  1.
         21   -1    0    0  501  502 -0.00000000000E+00 -0.00000000000E+00 -0.82714655617E+01  0.82714655617E+01  0.00000000000E+00 0.  1.
         21    1    1    2  503  504 -0.68886542735E+00 -0.20264458920E+02  0.42009616841E+02  0.46646872757E+02  0.00000000000E+00 0.  1.
         21    1    1    2  504  502  0.68886542735E+00  0.20264458920E+02  0.11312996704E+02  0.23218671911E+02  0.00000000000E+00 0.  1.
</event>
<event>
 4    1  0.1571930E+006  0.2924051E+02  0.7546771E-02  0.1426313E+00
         21   -1    0    0  502  501  0.00000000000E+00  0.00000000000E+00  0.32688280033E+01  0.32688280033E+01  0.00000000000E+00 0. -1.
         21   -1    0    0  504  502 -0.00000000000E+00 -0.00000000000E+00 -0.44128583694E+03  0.44128583694E+03  0.00000000000E+00 0. -1.
         21    1    1    2  503  501  0.29091214736E+02 -0.29510554763E+01 -0.77156430717E+02  0.82511346518E+02  0.00000000000E+00 0. -1.
         21    1    1    2  504  503 -0.29091214736E+02  0.29510554763E+01 -0.36086057822E+03  0.36204331843E+03  0.00000000000E+00 0. -1.
</event>
<event>
 4    1  0.1571930E+006  0.3691146E+02  0.7546771E-02  0.1367601E+00
         21   -1    0    0  504  501  0.00000000000E+00  0.00000000000E+00  0.65984830895E+03  0.65984830895E+03  0.00000000000E+00 0.  1.
         21   -1    0    0  503  502 -0.00000000000E+00 -0.00000000000E+00 -0.33028823538E+01  0.33028823538E+01  0.00000000000E+00 0. -1.
         21    1    1    2  503  501 -0.35378292052E+02 -0.10527708445E+02  0.12526600026E+03  0.13059106790E+03  0.00000000000E+00 0. -1.
         21    1    1    2  504  502  0.35378292052E+02  0.10527708445E+02  0.53127942633E+03  0.53256012340E+03  0.00000000000E+00 0.  1.
</event>
<event>
 4    1  0.1571930E+006  0.2823711E+02  0.7546771E-02  0.1435562E+00
         21   -1    0    0  504  501  0.00000000000E+00  0.00000000000E+00  0.34478093568E+02  0.34478093568E+02  0.00000000000E+00 0. -1.
         21   -1    0    0  503  502 -0.00000000000E+00 -0.00000000000E+00 -0.33275100219E+02  0.33275100219E+02  0.00000000000E+00 0. -1.
         21    1    1    2  503  501 -0.21553989840E+02 -0.18241707658E+02  0.19310799040E+02  0.34208790331E+02  0.00000000000E+00 0. -1.
         21    1    1    2  504  502  0.21553989840E+02  0.18241707658E+02 -0.18107805692E+02  0.33544403457E+02  0.00000000000E+00 0. -1.
</event>
<event>
 4    1  0.1571930E+006  0.2024759E+02  0.7546771E-02  0.1530284E+00
         21   -1    0    0  503  501  0.00000000000E+00  0.00000000000E+00  0.21815047212E+03  0.21815047212E+03  0.00000000000E+00 0. -1.
         21   -1    0    0  504  502 -0.00000000000E+00 -0.00000000000E+00 -0.16804881557E+02  0.16804881557E+02  0.00000000000E+00 0. -1.
         21    1    1    2  503  502 -0.19641400732E+02  0.49173495925E+01 -0.10041474907E+02  0.22600800164E+02  0.00000000000E+00 0. -1.
         21    1    1    2  504  501  0.19641400732E+02 -0.49173495925E+01  0.21138706547E+03  0.21235455352E+03  0.00000000000E+00 0. -1.
</event>
<event>
 4    1  0.1571930E+006  0.2052702E+02  0.7546771E-02  0.1526126E+00
         21   -1    0    0  503  501  0.00000000000E+00  0.00000000000E+00  0.25247636237E+02  0.25247636237E+02  0.00000000000E+00 0. -1.
         21   -1    0    0  504  502 -0.00000000000E+00 -0.00000000000E+00 -0.17407076227E+02  0.17407076227E+02  0.00000000000E+00 0. -1.
         21    1    1    2  503  502  0.13762844683E+02 -0.15229663447E+02 -0.41134151727E+00  0.20531140843E+02  0.00000000000E+00 0. -1.
         21    1    1    2  504  501 -0.13762844683E+02  0.15229663447E+02  0.82519015267E+01  0.22123571621E+02  0.00000000000E+00 0. -1.
</event>
<event>
 4    1  0.1571930E+006  0.2131811E+02  0.7546771E-02  0.1514771E+00
         21   -1    0    0  503  501  0.00000000000E+00  0.00000000000E+00  0.14801325861E+02  0.14801325861E+02  0.00000000000E+00 0. -1.
         21   -1    0    0  501  502 -0.00000000000E+00 -0.00000000000E+00 -0.11822683772E+03  0.11822683772E+03  0.00000000000E+00 0. -1.
         21    1    1    2  503  504  0.20385612025E+02 -0.62360792935E+01  0.55162142676E+01  0.22020228937E+02  0.00000000000E+00 0. -1.
         21    1    1    2  504  502 -0.20385612025E+02  0.62360792935E+01 -0.10894172613E+03  0.11100793465E+03  0.00000000000E+00 0. -1.
</event>
<event>
 4    1  0.1571930E+006  0.2137277E+02  0.7546771E-02  0.1514009E+00
         21   -1    0    0  504  501  0.00000000000E+00  0.00000000000E+00  0.47278794979E+02  0.47278794979E+02  0.00000000000E+00 0.  1.
         21   -1    0    0  503  502 -0.00000000000E+00 -0.00000000000E+00 -0.50159010289E+02  0.50159010289E+02  0.00000000000E+00 0.  1.
         21    1    1    2  503  501 -0.13708358560E+02  0.16397440237E+02 -0.45216092535E+02  0.50012899985E+02  0.00000000000E+00 0.  1.
         21    1    1    2  504  502  0.13708358560E+02 -0.16397440237E+02  0.42335877225E+02  0.47424905283E+02  0.00000000000E+00 0.  1.
</event>
<event>
 4    1  0.1571930E+006  0.2269345E+02  0.7546771E-02  0.1496384E+00
         21   -1    0    0  503  501  0.00000000000E+00  0.00000000000E+00  0.20410681835E+02  0.20410681835E+02  0.00000000000E+00 0. -1.
         21   -1    0    0  504  502 -0.00000000000E+00 -0.00000000000E+00 -0.37309625837E+02  0.37309625837E+02  0.00000000000E+00 0. -1.
         21    1    1    2  503  502 -0.22490995593E+02 -0.30245581419E+01 -0.24870008376E+02  0.33667642497E+02  0.00000000000E+00 0. -1.
         21    1    1    2  504  501  0.22490995593E+02  0.30245581419E+01  0.79710643735E+01  0.24052665174E+02  0.00000000000E+00 0. -1.
</event>
<event>
 4    1  0.1571930E+006  0.2904863E+02  0.7546771E-02  0.1428048E+00
         21   -1    0    0  504  501  0.00000000000E+00  0.00000000000E+00  0.41232017846E+01  0.41232017846E+01  0.00000000000E+00 0.  1.
         21   -1    0    0  503  502 -0.00000000000E+00 -0.00000000000E+00 -0.21375048852E+03  0.21375048852E+03  0.00000000000E+00 0.  1.
         21    1    1    2  503  501  0.23646548109E+02 -0.16871976438E+02 -0.82338724361E+02  0.87312589904E+02  0.00000000000E+00 0.  1.
         21    1    1    2  504  502 -0.23646548109E+02  0.16871976438E+02 -0.12728856237E+03  0.13056110040E+03  0.00000000000E+00 0.  1.
</event>
<event>
 4    1  0.1571930E+006  0.2179359E+02  0.7546771E-02  0.1508229E+00
         21   -1    0    0  503  501  0.00000000000E+00  0.00000000000E+00  0.14281749128E+01  0.14281749128E+01  0.00000000000E+00 0. -1.
         21   -1    0    0  504  502 -0.00000000000E+00 -0.00000000000E+00 -0.10258522086E+04  0.10258522086E+04  0.00000000000E+00 0.  1.
         21    1    1    2  503  502  0.20401685326E+02  0.76636660018E+01 -0.93446555059E+03  0.93471965090E+03  0.00000000000E+00 0.  1.
         21    1    1    2  504  501 -0.20401685326E+02 -0.76636660018E+01 -0.89958483139E+02  0.92560732653E+02  0.00000000000E+00 0. -1.
</event>
<event>
 4    1  0.1571930E+006  0.2876118E+02  0.7546771E-02  0.1430676E+00
         21   -1    0    0  504  501  0.00000000000E+00  0.00000000000E+00  0.92153199893E+02  0.92153199893E+02  0.00000000000E+00 0.  1.
         21   -1    0    0  503  502 -0.00000000000E+00 -0.00000000000E+00 -0.45534649646E+02  0.45534649646E+02  0.00000000000E+00 0. -1.
         21    1    1    2  503  501 -0.16605479330E+02 -0.23483260792E+02 -0.38376811902E+02  0.47958160650E+02  0.00000000000E+00 0. -1.
         21    1    1    2  504  502  0.16605479330E+02  0.23483260792E+02  0.84995362149E+02  0.89729688889E+02  0.00000000000E+00 0.  1.
</event>
<event>
 4    1  0.1571930E+006  0.2975059E+02  0.7546771E-02  0.1421776E+00
         21   -1    0    0  503  501  0.00000000000E+00  0.00000000000E+00  0.51651516343E+03  0.51651516343E+03  0.00000000000E+00 0. -1.
         21   -1    0    0  504  502 -0.00000000000E+00 -0.00000000000E+00 -0.47603803867E+01  0.47603803867E+01  0.00000000000E+00 0.  1.
         21    1    1    2  503  502 -0.28139426088E+02  0.96576633931E+01  0.46439246867E+03  0.46534445599E+03  0.00000000000E+00 0. -1.
         21    1    1    2  504  501  0.28139426088E+02 -0.96576633931E+01  0.47362314376E+02  0.55931087830E+02  0.00000000000E+00 0.  1.
</event>
<event>
 4    1  0.1571930E+006  0.3708261E+02  0.7546771E-02  0.1366485E+00
         21   -1    0    0  503  501  0.00000000000E+00  0.00000000000E+00  0.14762114555E+04  0.14762114555E+04  0.00000000000E+00 0.  1.
         21   -1    0    0  501  502 -0.00000000000E+00 -0.00000000000E+00 -0.16248755965E+01  0.16248755965E+01  0.00000000000E+00 0.  1.
         21    1    1    2  503  504  0.31375033778E+02 -0.19766816419E+02  0.12199790099E+04  0.12205424631E+04  0.00000000000E+00 0.  1.
         21    1    1    2  504  502 -0.31375033778E+02  0.19766816419E+02  0.25460757008E+03  0.25729386801E+03  0.00000000000E+00 0.  1.
</event>
<event>
 4    1  0.1571930E+006  0.2002449E+02  0.7546771E-02  0.1533662E+00
         21   -1    0    0  503  501  0.00000000000E+00  0.00000000000E+00  0.14882152520E+03  0.14882152520E+03  0.00000000000E+00 0. -1.
         21   -1    0    0  504  502 -0.00000000000E+00 -0.00000000000E+00 -0.44348376679E+01  0.44348376679E+01  0.00000000000E+00 0.  1.
         21    1    1    2  503  502  0.11347743884E+02  0.16498760790E+02  0.12019790589E+03  0.12185449101E+03  0.00000000000E+00 0. -1.
         21    1    1    2  504  501 -0.11347743884E+02 -0.16498760790E+02  0.24188781641E+02  0.31401871857E+02  0.00000000000E+00 0.  1.
</event>
<event>
 4    1  0.1571930E+006  0.4324609E+02  0.7546771E-02  0.1330446E+00
         21   -1    0    0  504  501  0.00000000000E+00  0.00000000000E+00  0.24120852388E+02  0.24120852388E+02  0.00000000000E+00 0.  1.
         21   -1    0    0  503  502 -0.00000000000E+00 -0.00000000000E+00 -0.82092895283E+02  0.82092895283E+02  0.00000000000E+00 0. -1.
         21    1    1    2  503  501 -0.43000152666E+02  0.46055647193E+01 -0.41498759095E+02  0.59936394303E+02  0.00000000000E+00 0.  1.
         21    1    1    2  504  502  0.43000152666E+02 -0.46055647193E+01 -0.16473283800E+02  0.46277353369E+02  0.00000000000E+00 0. -1.
</event>
<event>
 4    1  0.1571930E+006  0.3183693E+02  0.7546771E-02  0.1404278E+00
         21   -1    0    0  502  501  0.00000000000E+00  0.00000000000E+00  0.20883427779E+03  0.20883427779E+03  0.00000000000E+00 0. -1.
         21   -1    0    0  503  502 -0.00000000000E+00 -0.00000000000E+00 -0.13367426039E+04  0.13367426039E+04  0.00000000000E+00 0.  1.
         21    1    1    2  503  504  0.11600372999E+02  0.29648298541E+02 -0.13353383739E+04  0.13357178456E+04  0.00000000000E+00 0.  1.
         21    1    1    2  504  501 -0.11600372999E+02 -0.29648298541E+02  0.20743004784E+03  0.20985903603E+03  0.00000000000E+00 0. -1.
</event>
<event>
 4    1  0.1571930E+006  0.2045036E+02  0.7546771E-02  0.1527259E+00
         21   -1    0    0  504  501  0.00000000000E+00  0.00000000000E+00  0.52125578968E+02  0.52125578968E+02  0.00000000000E+00 0.  1.
         21   -1    0    0  503  502 -0.00000000000E+00 -0.00000000000E+00 -0.11672070968E+02  0.11672070968E+02  0.00000000000E+00 0.  1.
         21    1    1    2  503  501 -0.89284032464E+00 -0.20430857602E+02  0.38061887726E+02  0.43207920610E+02  0.00000000000E+00 0.  1.
         21    1    1    2  504  502  0.89284032464E+00  0.20430857602E+02  0.23916202741E+01  0.20589729326E+02  0.00000000000E+00 0.  1.
</event>
<event>
 4    1  0.1571930E+006  0.2013184E+02  0.7546771E-02  0.1532030E+00
         21   -1    0    0  503  501  0.00000000000E+00  0.00000000000E+00  0.32302402081E+02  0.32302402081E+02  0.00000000000E+00 0. -1.
         21   -1    0    0  501  502 -0.00000000000E+00 -0.00000000000E+00 -0.15131284924E+02  0.15131284924E+02  0.00000000000E+00 0. -1.
         21    1    1    2  503  504 -0.12408171184E+02  0.15853342479E+02  0.18387397058E+02  0.27265134338E+02  0.00000000000E+00 0. -1.
         21    1    1    2  504  502  0.12408171184E+02 -0.15853342479E+02 -0.12162799005E+01  0.20168552667E+02  0.00000000000E+00 0. -1.
</event>
<event>
 4    1  0.1571930E+006  0.4283232E+02  0.7546771E-02  0.1332643E+00
         21   -1    0    0  503  501  0.00000000000E+00  0.00000000000E+00  0.17375547750E+03  0.17375547750E+03  0.00000000000E+00 0. -1.
         21   -1    0    0  501  502 -0.00000000000E+00 -0.00000000000E+00 -0.10909596831E+03  0.10909596831E+03  0.00000000000E+00 0.  1.
         21    1    1    2  503  504  0.32634632739E+02  0.27741449737E+02  0.16673760295E+03  0.17215119960E+03  0.00000000000E+00 0. -1.
         21    1    1    2  504  502 -0.32634632739E+02 -0.27741449737E+02 -0.10207809376E+03  0.11070024622E+03  0.00000000000E+00 0.  1.
</event>
<event>
 4    1  0.1571930E+006  0.2626066E+02  0.7546771E-02  0.1455180E+00
         21   -1    0    0  503  501  0.00000000000E+00  0.00000000000E+00  0.70734100574E+02  0.70734100574E+02  0.00000000000E+00 0. -1.
         21   -1    0    0  504  502 -0.00000000000E+00 -0.00000000000E+00 -0.41818529183E+02  0.41818529183E+02  0.00000000000E+00 0.  1.
         21    1    1    2  503  502  0.16029144477E+02 -0.20801170278E+02 -0.34823743582E+02  0.43615539371E+02  0.00000000000E+00 0.  1.
         21    1    1    2  504  501 -0.16029144477E+02  0.20801170278E+02  0.63739314973E+02  0.68937090386E+02  0.00000000000E+00 0. -1.
</event>
<event>
 4    1  0.1571930E+006  0.2070749E+02  0.7546771E-02  0.1523482E+00
         21   -1    0    0  503  501  0.00000000000E+00  0.00000000000E+00  0.66159264463E+03  0.66159264463E+03  0.00000000000E+00 0. -1.
         21   -1    0    0  501  502 -0.00000000000E+00 -0.00000000000E+00 -0.80869115660E+00  0.80869115660E+00  0.00000000000E+00 0.  1.
         21    1    1    2  503  504 -0.17792328378E+02 -0.10594016516E+02  0.47796800562E+03  0.47841636106E+03  0.00000000000E+00 0. -1.
         21    1    1    2  504  502  0.17792328378E+02  0.10594016516E+02  0.18281594786E+03  0.18398497473E+03  0.00000000000E+00 0.  1.
</event>
<event>
 4    1  0.1571930E+006  0.2213692E+02  0.7546771E-02  0.1503630E+00
         21   -1    0    0  504  501  0.00000000000E+00  0.00000000000E+00  0.10636188800E+02  0.10636188800E+02  0.00000000000E+00 0. -1.
         21   -1    0    0  503  502 -0.00000000000E+00 -0.00000000000E+00 -0.27113563830E+03  0.27113563830E+03  0.00000000000E+00 0. -1.
         21    1    1    2  503  501  0.21531679068E+02 -0.51410146041E+01 -0.25860856406E+03  0.25955429613E+03  0.00000000000E+00 0. -1.
         21    1    1    2  504  502 -0.21531679068E+02  0.51410146041E+01 -0.18908854408E+01  0.22217530970E+02  0.00000000000E+00 0. -1.
</event>
<event>
 4    1  0.1571930E+006  0.2135962E+02  0.7546771E-02  0.1514192E+00
         21   -1    0    0  504  501  0.00000000000E+00  0.00000000000E+00  0.51076362014E+01  0.51076362014E+01  0.00000000000E+00 0.  1.
         21   -1    0    0  503  502 -0.00000000000E+00 -0.00000000000E+00 -0.13233525285E+03  0.13233525285E+03  0.00000000000E+00 0.  1.
         21    1    1    2  503  501 -0.20014408959E+02  0.74603471621E+01 -0.24435409080E+02  0.32454931254E+02  0.00000000000E+00 0.  1.
         21    1    1    2  504  502  0.20014408959E+02 -0.74603471621E+01 -0.10279220757E+03  0.10498795780E+03  0.00000000000E+00 0.  1.
</event>
<event>
 4    1  0.1571930E+006  0.4993019E+02  0.7546771E-02  0.1298475E+00
         21   -1    0    0  504  501  0.00000000000E+00  0.00000000000E+00  0.65381625983E+02  0.65381625983E+02  0.00000000000E+00 0.  1.
         21   -1    0    0  503  502 -0.00000000000E+00 -0.00000000000E+00 -0.50033542797E+02  0.50033542797E+02  0.00000000000E+00 0.  1.
         21    1    1    2  503  501  0.30758133637E+02  0.39331423094E+02 -0.20473092636E+02  0.53964536035E+02  0.00000000000E+00 0.  1.
         21    1    1    2  504  502 -0.30758133637E+02 -0.39331423094E+02  0.35821175822E+02  0.61450632744E+02  0.00000000000E+00 0.  1.
</event>
<event>
 4    1  0.1571930E+006  0.2567540E+02  0.7546771E-02  0.1461388E+00
         21   -1    0    0  504  501  0.00000000000E+00  0.00000000000E+00  0.27711821383E+03  0.27711821383E+03  0.00000000000E+00 0.  1.
         21   -1    0    0  503  502 -0.00000000000E+00 -0.00000000000E+00 -0.47238872504E+01  0.47238872504E+01  0.00000000000E+00 0.  1.
         21    1    1    2  503  501  0.22998690161E+02 -0.11414310926E+02  0.23548585474E+03  0.23688143453E+03  0.00000000000E+00 0.  1.
         21    1    1    2  504  502 -0.22998690161E+02  0.11414310926E+02  0.36908471841E+02  0.44960666551E+02  0.00000000000E+00 0.  1.
</event>
<event>
 4    1  0.1571930E+006  0.2560609E+02  0.7546771E-02  0.1462136E+00
         21   -1    0    0  503  501  0.00000000000E+00  0.00000000000E+00  0.15920793786E+02  0.15920793786E+02  0.00000000000E+00 0. -1.
         21   -1    0    0  504  502 -0.00000000000E+00 -0.00000000000E+00 -0.31917007049E+03  0.31917007049E+03  0.00000000000E+00 0. -1.
         21    1    1    2  503  502  0.23768411856E+02  0.95254550242E+01 -0.30798747251E+03  0.30905008481E+03  0.00000000000E+00 0. -1.
         21    1    1    2  504  501 -0.23768411856E+02 -0.95254550242E+01  0.47381958110E+01  0.26040779464E+02  0.00000000000E+00 0. -1.
</event>
<event>
 4    1  0.1571930E+006  0.2785168E+02  0.7546771E-02  0.1439235E+00
         21   -1    0    0  503  501  0.00000000000E+00  0.00000000000E+00  0.60195171939E+00  0.60195171939E+00  0.00000000000E+00 0. -1.
         21   -1    0    0  504  502 -0.00000000000E+00 -0.00000000000E+00 -0.16463300703E+04  0.16463300703E+04  0.00000000000E+00 0. -1.
         21    1    1    2  503  502 -0.61315322664E+01 -0.27168375364E+02 -0.12066802342E+04  0.12070016172E+04  0.00000000000E+00 0. -1.
         21    1    1    2  504  501  0.61315322664E+01  0.27168375364E+02 -0.43904788438E+03  0.43993040482E+03  0.00000000000E+00 0. -1.
</event>
<event>
 4    1  0.1571930E+006  0.2051521E+02  0.7546771E-02  0.1526300E+00
         21   -1    0    0  504  501  0.00000000000E+00  0.00000000000E+00  0.45406176453E+01  0.45406176453E+01  0.00000000000E+00 0.  1.
         21   -1    0    0  503  502 -0.00000000000E+00 -0.00000000000E+00 -0.11269824823E+03  0.11269824823E+03  0.00000000000E+00 0. -1.
         21    1    1    2  503  501 -0.11558872202E+02 -0.16948934645E+02 -0.29379901578E+02  0.35833678697E+02  0.00000000000E+00 0.  1.
         21    1    1    2  504  502  0.11558872202E+02  0.16948934645E+02 -0.78777729009E+02  0.81405187181E+02  0.00000000000E+00 0. -1.
</event>
<event>
 4    1  0.1571930E+006  0.2930133E+02  0.7546771E-02  0.1425767E+00
         21   -1    0    0  504  501  0.00000000000E+00  0.00000000000E+00  0.52349758997E+02  0.52349758997E+02  0.00000000000E+00 0.  1.
         21   -1    0    0  503  502 -0.00000000000E+00 -0.00000000000E+00 -0.25390836355E+02  0.25390836355E+02  0.00000000000E+00 0.  1.
         21    1    1    2  503  501  0.17712496825E+02 -0.23341709132E+02 -0.96499564498E+01  0.30849466583E+02  0.00000000000E+00 0.  1.
         21    1    1    2  504  502 -0.17712496825E+02  0.23341709132E+02  0.36608879091E+02  0.46891128769E+02  0.00000000000E+00 0.  1.
</event>
<event>
 4    1  0.1571930E+006  0.3042053E+02  0.7546771E-02  0.1415977E+00
         21   -1    0    0  503  501  0.00000000000E+00  0.00000000000E+00  0.87456266938E+01  0.87456266938E+01  0.00000000000E+00 0. -1.
         21   -1    0    0  504  502 -0.00000000000E+00 -0.00000000000E+00 -0.18961588674E+03  0.18961588674E+03  0.00000000000E+00 0. -1.
         21    1    1    2  503  502 -0.28121023390E+02 -0.11602455813E+02 -0.15637030967E+03  0.15930186026E+03  0.00000000000E+00 0. -1.
         21    1    1    2  504  501  0.28121023390E+02  0.11602455813E+02 -0.24499950379E+02  0.39059653173E+02  0.00000000000E+00 0. -1.
</event>
<event>
 4    1  0.1571930E+006  0.3178197E+02  0.7546771E-02  0.1404718E+00
         21   -1    0    0  502  501  0.00000000000E+00  0.00000000000E+00  0.15355269988E+03  0.15355269988E+03  0.00000000000E+00 0. -1.
         21   -1    0    0  504  502 -0.00000000000E+00 -0.00000000000E+00 -0.14676060994E+02  0.14676060994E+02  0.00000000000E+00 0.  1.
         21    1    1    2  503  501 -0.29082351054E+02 -0.12818368434E+02  0.13191987278E+03  0.13569431287E+03  0.00000000000E+00 0. -1.
         21    1    1    2  504  503  0.29082351054E+02  0.12818368434E+02  0.69567661091E+01  0.32534448002E+02  0.00000000000E+00 0.  1.
</event>
<event>
 4    1  0.1571930E+006  0.2565694E+02  0.7546771E-02  0.1461587E+00
         21   -1    0    0  504  501  0.00000000000E+00  0.00000000000E+00  0.37350067235E+01  0.37350067235E+01  0.00000000000E+00 0. -1.
         21   -1    0    0  503  502 -0.00000000000E+00 -0.00000000000E+00 -0.33138436444E+03  0.33138436444E+03  0.00000000000E+00 0. -1.
         21    1    1    2  503  501  0.15182872272E+02  0.20682334970E+02 -0.49177423897E+02  0.55467987266E+02  0.00000000000E+00 0. -1.
         21    1    1    2  504  502 -0.15182872272E+02 -0.20682334970E+02 -0.27847193382E+03  0.27965138390E+03  0.00000000000E+00 0. -1.
</event>
<event>
 4    1  0.1571930E+006  0.2593805E+02  0.7546771E-02  0.1458577E+00
         21   -1    0    0  503  501  0.00000000000E+00  0.00000000000E+00  0.14107262455E+04  0.14107262455E+04  0.00000000000E+00 0.  1.
         21   -1    0    0  501  502 -0.00000000000E+00 -0.00000000000E+00 -0.13929911606E+01  0.13929911606E+01  0.00000000000E+00 0. -1.
         21    1    1    2  503  504 -0.86298969723E+01 -0.24460318709E+02  0.12772455657E+04  0.12775089109E+04  0.00000000000E+00 0.  1.
         21    1    1    2  504  502  0.86298969723E+01  0.24460318709E+02  0.13208768868E+03  0.13461032581E+03  0.00000000000E+00 0. -1.
</event>
<event>
 4    1  0.1571930E+006  0.2269539E+02  0.7546771E-02  0.1496359E+00
         21   -1    0    0  504  501  0.00000000000E+00  0.00000000000E+00  0.45799314404E+01  0.45799314404E+01  0.00000000000E+00 0.  1.
         21   -1    0    0  501  502 -0.00000000000E+00 -0.00000000000E+00 -0.12162449680E+03  0.12162449680E+03  0.00000000000E+00 0.  1.
         21    1    1    2  503  502  0.22867170036E+01  0.22579894985E+02 -0.41205134014E+02  0.47041936623E+02  0.00000000000E+00 0.  1.
         21    1    1    2  504  503 -0.22867170036E+01 -0.22579894985E+02 -0.75839431345E+02  0.79162491616E+02  0.00000000000E+00 0.  1.
</event>
<event>
 4    1  0.1571930E+006  0.3065358E+02  0.7546771E-02  0.1414000E+00
         21   -1    0    0  502  501  0.00000000000E+00  0.00000000000E+00  0.84226704088E+03  0.84226704088E+03  0.00000000000E+00 0.  1.
         21   -1    0    0  503  502 -0.00000000000E+00 -0.00000000000E+00 -0.31421322577E+02  0.31421322577E+02  0.00000000000E+00 0.  1.
         21    1    1    2  503  504  0.13291903475E+02  0.27621867241E+02 -0.23596183145E+02  0.38683615483E+02  0.00000000000E+00 0.  1.
         21    1    1    2  504  501 -0.13291903475E+02 -0.27621867241E+02  0.83444190145E+03  0.83500474798E+03  0.00000000000E+00 0.  1.
</event>
<event>
 4    1  0.1571930E+006  0.3015784E+02  0.7546771E-02  0.1418230E+00
         21   -1    0    0  504  501  0.00000000000E+00  0.00000000000E+00  0.58433686241E+01  0.58433686241E+01  0.00000000000E+00 0.  1.
         21   -1    0    0  503  502 -0.00000000000E+00 -0.00000000000E+00 -0.16244084731E+03  0.16244084731E+03  0.00000000000E+00 0.  1.
         21    1    1    2  503  501  0.23823877026E+02 -0.18491033009E+02 -0.95508071155E+02  0.10015631320E+03  0.00000000000E+00 0.  1.
         21    1    1    2  504  502 -0.23823877026E+02  0.18491033009E+02 -0.61089407526E+02  0.68127902729E+02  0.00000000000E+00 0.  1.
</event>
<event>
 4    1  0.1571930E+006  0.2676841E+02  0.7546771E-02  0.1449948E+00
         21   -1    0    0  504  501  0.00000000000E+00  0.00000000000E+00  0.41803339552E+02  0.41803339552E+02  0.00000000000E+00 0.  1.
         21   -1    0    0  501  502 -0.00000000000E+00 -0.00000000000E+00 -0.32453085360E+02  0.32453085360E+02  0.00000000000E+00 0. -1.
         21    1    1    2  503  502  0.11073137928E+02 -0.24370744174E+02 -0.20828056570E+02  0.33916891008E+02  0.00000000000E+00 0. -1.
         21    1    1    2  504  503 -0.11073137928E+02  0.24370744174E+02  0.30178310762E+02  0.40339533904E+02  0.00000000000E+00 0.  1.
</event>
<event>
 4    1  0.1571930E+006  0.2876049E+02  0.7546771E-02  0.1430682E+00
         21   -1    0    0  503  501  0.00000000000E+00  0.00000000000E+00  0.23801677234E+03  0.23801677234E+03  0.00000000000E+00 0. -1.
         21   -1    0    0  504  502 -0.00000000000E+00 -0.00000000000E+00 -0.24171189330E+03  0.24171189330E+03  0.00000000000E+00 0.  1.
         21    1    1    2  503  502  0.28363891113E+02  0.47597663301E+01  0.23628619057E+03  0.23803010219E+03  0.00000000000E+00 0. -1.
         21    1    1    2  504  501 -0.28363891113E+02 -0.47597663301E+01 -0.23998131153E+03  0.24169856346E+03  0.00000000000E+00 0.  1.
</event>
<event>
 4    1  0.1571930E+006  0.2519923E+02  0.7546771E-02  0.1466587E+00
         21   -1    0    0  504  501  0.00000000000E+00  0.00000000000E+00  0.61293442476E+00  0.61293442476E+00  0.00000000000E+00 0. -1.
         21   -1    0    0  503  502 -0.00000000000E+00 -0.00000000000E+00 -0.11165501262E+04  0.11165501262E+04  0.00000000000E+00 0.  1.
         21    1    1    2  503  501  0.19978594222E+02 -0.15357640708E+02 -0.40793970699E+03  0.40871726889E+03  0.00000000000E+00 0. -1.
         21    1    1    2  504  502 -0.19978594222E+02  0.15357640708E+02 -0.70799748483E+03  0.70844579177E+03  0.00000000000E+00 0.  1.
</event>
<event>
 4    1  0.1571930E+006  0.2265704E+02  0.7546771E-02  0.1496850E+00
         21   -1    0    0  502  501  0.00000000000E+00  0.00000000000E+00  0.61815971904E+02  0.61815971904E+02  0.00000000000E+00 0. -1.
         21   -1    0    0  504  502 -0.00000000000E+00 -0.00000000000E+00 -0.37828208158E+03  0.37828208158E+03  0.00000000000E+00 0.  1.
         21    1    1    2  503  501 -0.19273463256E+02 -0.11911125542E+02  0.59387223397E+02  0.63562438596E+02  0.00000000000E+00 0. -1.
         21    1    1    2  504  503  0.19273463256E+02  0.11911125542E+02 -0.37585333308E+03  0.37653561489E+03  0.00000000000E+00 0.  1.
</event>
<event>
 4    1  0.1571930E+006  0.2026831E+02  0.7546771E-02  0.1529973E+00
         21   -1    0    0  503  501  0.00000000000E+00  0.00000000000E+00  0.18926195885E+01  0.18926195885E+01  0.00000000000E+00 0.  1.
         21   -1    0    0  504  502 -0.00000000000E+00 -0.00000000000E+00 -0.56356451484E+03  0.56356451484E+03  0.00000000000E+00 0.  1.
         21    1    1    2  503  502 -0.11024149081E+01 -0.20238305462E+02 -0.59141475277E+02  0.62518144763E+02  0.00000000000E+00 0.  1.
         21    1    1    2  504  501  0.11024149081E+01  0.20238305462E+02 -0.50253041997E+03  0.50293898966E+03  0.00000000000E+00 0.  1.
</event>
<event>
 4    1  0.1571930E+006  0.2729953E+02  0.7546771E-02  0.1444622E+00
         21   -1    0    0  504  501  0.00000000000E+00  0.00000000000E+00  0.31962443773E+02  0.31962443773E+02  0.00000000000E+00 0.  1.
         21   -1    0    0  501  502 -0.00000000000E+00 -0.00000000000E+00 -0.62931790020E+02  0.62931790020E+02  0.00000000000E+00 0.  1.
         21    1    1    2  503  502  0.15647860296E+02 -0.22369819317E+02 -0.53129399303E+02  0.59732716482E+02  0.00000000000E+00 0.  1.
         21    1    1    2  504  503 -0.15647860296E+02  0.22369819317E+02  0.22160053056E+02  0.35161517310E+02  0.00000000000E+00 0.  1.
</event>
<event>
 4    1  0.1571930E+006  0.3081610E+02  0.7546771E-02  0.1412634E+00
         21   -1    0    0  503  501  0.00000000000E+00  0.00000000000E+00  0.91433080418E+01  0.91433080418E+01  0.00000000000E+00 0. -1.
         21   -1    0    0  504  502 -0.00000000000E+00 -0.00000000000E+00 -0.14284298708E+03  0.14284298708E+03  0.00000000000E+00 0.  1.
         21    1    1    2  503  502  0.30722391527E+02  0.24014457273E+01 -0.27151031609E+02  0.41070802283E+02  0.00000000000E+00 0. -1.
         21    1    1    2  504  501 -0.30722391527E+02 -0.24014457273E+01 -0.10654864743E+03  0.11091549284E+03  0.00000000000E+00 0.  1.
</event>
<event>
 4    1  0.1571930E+006  0.2402078E+02  0.7546771E-02  0.1480063E+00
         21   -1    0    0  503  501  0.00000000000E+00  0.00000000000E+00  0.15850217436E+03  0.15850217436E+03  0.00000000000E+00 0. -1.
         21   -1    0    0  504  502 -0.00000000000E+00 -0.00000000000E+00 -0.20158535925E+02  0.20158535925E+02  0.00000000000E+00 0. -1.
         21    1    1    2  503  502  0.12232627202E+02  0.20672698752E+02  0.15003507420E+03  0.15194578352E+03  0.00000000000E+00 0. -1.
         21    1    1    2  504  501 -0.12232627202E+02 -0.20672698752E+02 -0.11691435757E+02  0.26714926764E+02  0.00000000000E+00 0. -1.
</event>
<event>
 4    1  0.1571930E+006  0.2253426E+02  0.7546771E-02  0.1498431E+00
         21   -1    0    0  504  501  0.00000000000E+00  0.00000000000E+00  0.84792214249E+02  0.84792214249E+02  0.00000000000E+00 0. -1.
         21   -1    0    0  503  502 -0.00000000000E+00 -0.00000000000E+00 -0.28138350728E+02  0.28138350728E+02  0.00000000000E+00 0. -1.
         21    1    1    2  503  501 -0.21505713120E+02 -0.67303032307E+01 -0.21770551744E+02  0.31332883711E+02  0.00000000000E+00 0. -1.
         21    1    1    2  504  502  0.21505713120E+02  0.67303032307E+01  0.78424415265E+02  0.81597681267E+02  0.00000000000E+00 0. -1.
</event>
<event>
 4    1  0.1571930E+006  0.2033621E+02  0.7546771E-02  0.1528957E+00
         21   -1    0    0  504  501  0.00000000000E+00  0.00000000000E+00  0.42231052953E+01  0.42231052953E+01  0.00000000000E+00 0.  1.
         21   -1    0    0  503  502 -0.00000000000E+00 -0.00000000000E+00 -0.47785078937E+03  0.47785078937E+03  0.00000000000E+00 0. -1.
         21    1    1    2  503  501 -0.14301601974E+02 -0.14457712851E+02 -0.21889800575E+02  0.29878498107E+02  0.00000000000E+00 0.  1.
         21    1    1    2  504  502  0.14301601974E+02  0.14457712851E+02 -0.45173788350E+03  0.45219539656E+03  0.00000000000E+00 0. -1.
</event>
<event>
 4    1  0.1571930E+006  0.2049472E+02  0.7546771E-02  0.1526603E+00
         21   -1    0    0  503  501  0.00000000000E+00  0.00000000000E+00  0.74545371386E+02  0.74545371386E+02  0.00000000000E+00 0.  1.
         21   -1    0    0  501  502 -0.00000000000E+00 -0.00000000000E+00 -0.11709943883E+03  0.11709943883E+03  0.00000000000E+00 0.  1.
         21    1    1    2  503  504 -0.14167284560E+02 -0.14809507075E+02  0.72211555016E+02  0.75063587241E+02  0.00000000000E+00 0.  1.
         21    1    1    2  504  502  0.14167284560E+02  0.14809507075E+02 -0.11476562246E+03  0.11658122297E+03  0.00000000000E+00 0.  1.
</event>
<event>
 4    1  0.1571930E+006  0.2098864E+02  0.7546771E-02  0.1519427E+00
         21   -1    0    0  504  501  0.00000000000E+00  0.00000000000E+00  0.23875690735E+02  0.23875690735E+02  0.00000000000E+00 0. -1.
         21   -1    0    0  503  502 -0.00000000000E+00 -0.00000000000E+00 -0.18653176850E+02  0.18653176850E+02  0.00000000000E+00 0. -1.
         21    1    1    2  503  501 -0.82142452669E+01 -0.19314481686E+02  0.39574984772E+00  0.20992371139E+02  0.00000000000E+00 0. -1.
         21    1    1    2  504  502  0.82142452669E+01  0.19314481686E+02  0.48267640376E+01  0.21536496446E+02  0.00000000000E+00 0. -1.
</event>
<event>
 4    1  0.1571930E+006  0.3231077E+02  0.7546771E-02  0.1400524E+00
         21   -1    0    0  503  501  0.00000000000E+00  0.00000000000E+00  0.32639662748E+02  0.32639662748E+02  0.00000000000E+00 0.  1.
         21   -1    0    0  504  502 -0.00000000000E+00 -0.00000000000E+00 -0.35034354381E+02  0.35034354381E+02  0.00000000000E+00 0.  1.
         21    1    1    2  503  502 -0.47556315825E+01  0.31958874860E+02  0.87850673271E+01  0.33483774011E+02  0.00000000000E+00 0.  1.
         21    1    1    2  504  501  0.47556315825E+01 -0.31958874860E+02 -0.11179758961E+02  0.34190243118E+02  0.00000000000E+00 0.  1.
</event>
<event>
 4    1  0.1571930E+006  0.2343771E+02  0.7546771E-02  0.1487074E+00
         21   -1    0    0  503  501  0.00000000000E+00  0.00000000000E+00  0.99338616507E+02  0.99338616507E+02  0.00000000000E+00 0.  1.
         21   -1    0    0  504  502 -0.00000000000E+00 -0.00000000000E+00 -0.61881414363E+01  0.61881414363E+01  0.00000000000E+00 0.  1.
         21    1    1    2  503  502  0.18500760538E+02  0.14389166666E+02  0.63784656387E+02  0.67954460105E+02  0.00000000000E+00 0.  1.
         21    1    1    2  504  501 -0.18500760538E+02 -0.14389166666E+02  0.29365818683E+02  0.37572297838E+02  0.00000000000E+00 0.  1.
</event>
<event>
 4    1  0.1571930E+006  0.2166688E+02  0.7546771E-02  0.1509953E+00
         21   -1    0    0  503  501  0.00000000000E+00  0.00000000000E+00  0.10065546183E+02  0.10065546183E+02  0.00000000000E+00 0.  1.
         21   -1    0    0  504  502 -0.00000000000E+00 -0.00000000000E+00 -0.83724379469E+02  0.83724379469E+02  0.00000000000E+00 0.  1.
         21    1    1    2  503  502  0.68891259974E+01  0.20542485935E+02 -0.68039695463E+02  0.71406259838E+02  0.00000000000E+00 0.  1.
         21    1    1    2  504  501 -0.68891259974E+01 -0.20542485935E+02 -0.56191378234E+01  0.22383665814E+02  0.00000000000E+00 0.  1.
</event>
<event>
 4    1  0.1571930E+006  0.2624017E+02  0.7546771E-02  0.1455394E+00
         21   -1    0    0  504  501  0.00000000000E+00  0.00000000000E+00  0.39000971749E+02  0.39000971749E+02  0.00000000000E+00 0.  1.
         21   -1    0    0  503  502 -0.00000000000E+00 -0.00000000000E+00 -0.28310816922E+02  0.28310816922E+02  0.00000000000E+00 0. -1.
         21    1    1    2  503  501  0.83168312768E+01 -0.24887287504E+02 -0.15303320152E+02  0.30376608920E+02  0.00000000000E+00 0. -1.
         21    1    1    2  504  502 -0.83168312768E+01  0.24887287504E+02  0.25993474980E+02  0.36935179752E+02  0.00000000000E+00 0.  1.
</event>
<event>
 4    1  0.1571930E+006  0.2309107E+02  0.7546771E-02  0.1491358E+00
         21   -1    0    0  503  501  0.00000000000E+00  0.00000000000E+00  0.60017164966E+02  0.60017164966E+02  0.00000000000E+00 0. -1.
         21   -1    0    0  504  502 -0.00000000000E+00 -0.00000000000E+00 -0.20439535041E+02  0.20439535041E+02  0.00000000000E+00 0. -1.
         21    1    1    2  503  502  0.77103026003E-01  0.23090945775E+02 -0.10458728288E+02  0.25349215354E+02  0.00000000000E+00 0. -1.
         21    1    1    2  504  501 -0.77103026003E-01 -0.23090945775E+02  0.50036358213E+02  0.55107484654E+02  0.00000000000E+00 0. -1.
</event>
<event>
 4    1  0.1571930E+006  0.2121329E+02  0.7546771E-02  0.1516241E+00
         21   -1    0    0  503  501  0.00000000000E+00  0.00000000000E+00  0.92982064982E+02  0.92982064982E+02  0.00000000000E+00 0. -1.
         21   -1    0    0  504  502 -0.00000000000E+00 -0.00000000000E+00 -0.13745822105E+02  0.13745822105E+02  0.00000000000E+00 0.  1.
         21    1    1    2  503  502 -0.13657743146E+01 -0.21169274999E+02 -0.33362471647E+01  0.21474032891E+02  0.00000000000E+00 0.  1.
         21    1    1    2  504  501  0.13657743146E+01  0.21169274999E+02  0.82572490042E+02  0.85253854195E+02  0.00000000000E+00 0. -1.
</event>
<event>
 4    1  0.1571930E+006  0.2731909E+02  0.7546771E-02  0.1444429E+00
         21   -1    0    0  503  501  0.00000000000E+00  0.00000000000E+00  0.27924160376E+02  0.27924160376E+02  0.00000000000E+00 0. -1.
         21   -1    0    0  504  502 -0.00000000000E+00 -0.00000000000E+00 -0.11587139093E+03  0.11587139093E+03  0.00000000000E+00 0.  1.
         21    1    1    2  503  502 -0.22393715207E+02  0.15647821088E+02  0.19089297781E+02  0.33327677317E+02  0.00000000000E+00 0. -1.
         21    1    1    2  504  501  0.22393715207E+02 -0.15647821088E+02 -0.10703652834E+03  0.11046787399E+03  0.00000000000E+00 0.  1.
</event>
<event>
 4    1  0.1571930E+006  0.2095388E+02  0.7546771E-02  0.1519924E+00
         21   -1    0    0  504  501  0.00000000000E+00  0.00000000000E+00  0.24852336850E+02  0.24852336850E+02  0.00000000000E+00 0. -1.
         21   -1    0    0  503  502 -0.00000000000E+00 -0.00000000000E+00 -0.54204546267E+02  0.54204546267E+02  0.00000000000E+00 0. -1.
         21    1    1    2  503  501  0.20875549378E+02 -0.18101643379E+01 -0.47129620987E+02  0.51577770707E+02  0.00000000000E+00 0. -1.
         21    1    1    2  504  502 -0.20875549378E+02  0.18101643379E+01  0.17777411570E+02  0.27479112411E+02  0.00000000000E+00 0. -1.
</event>
<event>
 4    1  0.1571930E+006  0.2035016E+02  0.7546771E-02  0.1528748E+00
         21   -1    0    0  503  501  0.00000000000E+00  0.00000000000E+00  0.33332763535E+02  0.33332763535E+02  0.00000000000E+00 0.  1.
         21   -1    0    0  501  502 -0.00000000000E+00 -0.00000000000E+00 -0.42020244778E+02  0.42020244778E+02  0.00000000000E+00 0.  1.
         21    1    1    2  503  504  0.45263022781E+01 -0.19840405832E+02  0.27276049724E+02  0.34031044716E+02  0.00000000000E+00 0.  1.
         21    1    1    2  504  502 -0.45263022781E+01  0.19840405832E+02 -0.35963530968E+02  0.41321963598E+02  0.00000000000E+00 0.  1.
</event>
<event>
 4    1  0.1571930E+006  0.3583611E+02  0.7546771E-02  0.1374779E+00
         21   -1    0    0  503  501  0.00000000000E+00  0.00000000000E+00  0.28215528996E+02  0.28215528996E+02  0.00000000000E+00 0.  1.
         21   -1    0    0  501  502 -0.00000000000E+00 -0.00000000000E+00 -0.86692016410E+02  0.86692016410E+02  0.00000000000E+00 0.  1.
         21    1    1    2  503  504  0.20319453643E+02  0.29518583121E+02  0.10358271942E+02  0.37303092948E+02  0.00000000000E+00 0.  1.
         21    1    1    2  504  502 -0.20319453643E+02 -0.29518583121E+02 -0.68834759355E+02  0.77604452458E+02  0.00000000000E+00 0.  1.
</event>
<event>
 4    1  0.1571930E+006  0.3044128E+02  0.7546771E-02  0.1415800E+00
         21   -1    0    0  504  501  0.00000000000E+00  0.00000000000E+00  0.66564210187E+02  0.66564210187E+02  0.00000000000E+00 0.  1.
         21   -1    0    0  503  502 -0.00000000000E+00 -0.00000000000E+00 -0.50412951323E+03  0.50412951323E+03  0.00000000000E+00 0. -1.
         21    1    1    2  503  501  0.15547820509E+02  0.26171296359E+02  0.62596720808E+02  0.69606184579E+02  0.00000000000E+00 0.  1.
         21    1    1    2  504  502 -0.15547820509E+02 -0.26171296359E+02 -0.50016202385E+03  0.50108753884E+03  0.00000000000E+00 0. -1.
</event>
<event>
 4    1  0.1571930E+006  0.2337537E+02  0.7546771E-02  0.1487838E+00
         21   -1    0    0  504  501  0.00000000000E+00  0.00000000000E+00  0.67232087022E+02  0.67232087022E+02  0.00000000000E+00 0.  1.
         21   -1    0    0  503  502 -0.00000000000E+00 -0.00000000000E+00 -0.13028963380E+02  0.13028963380E+02  0.00000000000E+00 0.  1.
         21    1    1    2  503  501 -0.17535115311E+02 -0.15457288881E+02  0.24867534967E+01  0.23507275288E+02  0.00000000000E+00 0.  1.
         21    1    1    2  504  502  0.17535115311E+02  0.15457288881E+02  0.51716370146E+02  0.56753775113E+02  0.00000000000E+00 0.  1.
</event>
<event>
 4    1  0.1571930E+006  0.3261326E+02  0.7546771E-02  0.1398167E+00
         21   -1    0    0  503  501  0.00000000000E+00  0.00000000000E+00  0.79434276726E+02  0.79434276726E+02  0.00000000000E+00 0. -1.
         21   -1    0    0  501  502 -0.00000000000E+00 -0.00000000000E+00 -0.33059277546E+02  0.33059277546E+02  0.00000000000E+00 0.  1.
         21    1    1    2  503  504 -0.28053781783E+02  0.16631595895E+02  0.66573059964E+02  0.74132293687E+02  0.00000000000E+00 0. -1.
         21    1    1    2  504  502  0.28053781783E+02 -0.16631595895E+02 -0.20198060783E+02  0.38361260586E+02  0.00000000000E+00 0.  1.
</event>
<event>
 4    1  0.1571930E+006  0.2831653E+02  0.7546771E-02  0.1434813E+00
         21   -1    0    0  502  501  0.00000000000E+00  0.00000000000E+00  0.47706937068E+03  0.47706937068E+03  0.00000000000E+00 0. -1.
         21   -1    0    0  503  502 -0.00000000000E+00 -0.00000000000E+00 -0.23691228168E+01  0.23691228168E+01  0.00000000000E+00 0. -1.
         21    1    1    2  503  504 -0.19960220899E+02 -0.20085201175E+02  0.10813103564E+03  0.11177721858E+03  0.00000000000E+00 0. -1.
         21    1    1    2  504  501  0.19960220899E+02  0.20085201175E+02  0.36656921223E+03  0.36766127492E+03  0.00000000000E+00 0. -1.
</event>
<event>
 4    1  0.1571930E+006  0.2068303E+02  0.7546771E-02  0.1523839E+00
         21   -1    0    0  503  501  0.00000000000E+00  0.00000000000E+00  0.41614679805E+02  0.41614679805E+02  0.00000000000E+00 0.  1.
         21   -1    0    0  501  502 -0.00000000000E+00 -0.00000000000E+00 -0.23206928957E+03  0.23206928957E+03  0.00000000000E+00 0.  1.
         21    1    1    2  503  504 -0.15450426252E+02 -0.13750342034E+02  0.38549580204E+02  0.43747659496E+02  0.00000000000E+00 0.  1.
         21    1    1    2  504  502  0.15450426252E+02  0.13750342034E+02 -0.22900418997E+03  0.22993630988E+03  0.00000000000E+00 0.  1.
</event>
<event>
 4    1  0.1571930E+006  0.3886626E+02  0.7546771E-02  0.1355261E+00
         21   -1    0    0  504  501  0.00000000000E+00  0.00000000000E+00  0.32704771682E+03  0.32704771682E+03  0.00000000000E+00 0. -1.
         21   -1    0    0  503  502 -0.00000000000E+00 -0.00000000000E+00 -0.29542534154E+02  0.29542534154E+02  0.00000000000E+00 0.  1.
         21    1    1    2  503  501  0.11923361816E+02  0.36992158780E+02  0.31251780735E+03  0.31492533445E+03  0.00000000000E+00 0. -1.
         21    1    1    2  504  502 -0.11923361816E+02 -0.36992158780E+02 -0.15012624690E+02  0.41664916516E+02  0.00000000000E+00 0.  1.
</event>
<event>
 4    1  0.1571930E+006  0.2694633E+02  0.7546771E-02  0.1448148E+00
         21   -1    0    0  503  501  0.00000000000E+00  0.00000000000E+00  0.20612410861E+02  0.20612410861E+02  0.00000000000E+00 0. -1.
         21   -1    0    0  501  502 -0.00000000000E+00 -0.00000000000E+00 -0.10981295871E+03  0.10981295871E+03  0.00000000000E+00 0.  1.
         21    1    1    2  503  504  0.47492012312E+01  0.26524510042E+02  0.91443554546E+01  0.28455645872E+02  0.00000000000E+00 0. -1.
         21    1    1    2  504  502 -0.47492012312E+01 -0.26524510042E+02 -0.98344903300E+02  0.10196972370E+03  0.00000000000E+00 0.  1.
</event>
<event>
 4    1  0.1571930E+006  0.2528541E+02  0.7546771E-02  0.1465636E+00
         21   -1    0    0  502  501  0.00000000000E+00  0.00000000000E+00  0.30098376104E+01  0.30098376104E+01  0.00000000000E+00 0. -1.
         21   -1    0    0  503  502 -0.00000000000E+00 -0.00000000000E+00 -0.27777785187E+03  0.27777785187E+03  0.00000000000E+00 0. -1.
         21    1    1    2  503  504  0.21394547088E+02 -0.13476845948E+02 -0.20548376811E+03  0.20703364697E+03  0.00000000000E+00 0. -1.
         21    1    1    2  504  501 -0.21394547088E+02  0.13476845948E+02 -0.69284246145E+02  0.73754042504E+02  0.00000000000E+00 0. -1.
</event>
<event>
 4    1  0.1571930E+006  0.4833947E+02  0.7546771E-02  0.1305537E+00
         21   -1    0    0  504  501  0.00000000000E+00  0.00000000000E+00  0.35581989626E+03  0.35581989626E+03  0.00000000000E+00 0. -1.
         21   -1    0    0  503  502 -0.00000000000E+00 -0.00000000000E+00 -0.15899624380E+02  0.15899624380E+02  0.00000000000E+00 0. -1.
         21    1    1    2  503  501  0.62872203052E+01 -0.47928855514E+02  0.31235408692E+03  0.31607242832E+03  0.00000000000E+00 0. -1.
         21    1    1    2  504  502 -0.62872203052E+01  0.47928855514E+02  0.27566184958E+02  0.55647092315E+02  0.00000000000E+00 0. -1.
</event>
<event>
 4    1  0.1571930E+006  0.3419678E+02  0.7546771E-02  0.1386300E+00
         21   -1    0    0  503  501  0.00000000000E+00  0.00000000000E+00  0.55364667188E+02  0.55364667188E+02  0.00000000000E+00 0. -1.
         21   -1    0    0  504  502 -0.00000000000E+00 -0.00000000000E+00 -0.41465802400E+02  0.41465802400E+02  0.00000000000E+00 0. -1.
         21    1    1    2  503  502  0.11963696587E+02 -0.32035758708E+02  0.40861295365E+02  0.53282880279E+02  0.00000000000E+00 0. -1.
         21    1    1    2  504  501 -0.11963696587E+02  0.32035758708E+02 -0.26962430577E+02  0.43547589309E+02  0.00000000000E+00 0. -1.
</event>
<event>
 4    1  0.1571930E+006  0.2212247E+02  0.7546771E-02  0.1503821E+00
         21   -1    0    0  503  501  0.00000000000E+00  0.00000000000E+00  0.83219050063E+01  0.83219050063E+01  0.00000000000E+00 0. -1.
         21   -1    0    0  504  502 -0.00000000000E+00 -0.00000000000E+00 -0.61660835294E+02  0.61660835294E+02  0.00000000000E+00 0. -1.
         21    1    1    2  503  502  0.10600503294E+02  0.19417338412E+02 -0.34194547231E+02  0.40726781869E+02  0.00000000000E+00 0. -1.
         21    1    1    2  504  501 -0.10600503294E+02 -0.19417338412E+02 -0.19144383056E+02  0.29255958431E+02  0.00000000000E+00 0. -1.
</event>
<event>
 4    1  0.1571930E+006  0.2107627E+02  0.7546771E-02  0.1518179E+00
         21   -1    0    0  504  501  0.00000000000E+00  0.00000000000E+00  0.98822612077E+02  0.98822612077E+02  0.00000000000E+00 0.  1.
         21   -1    0    0  503  502 -0.00000000000E+00 -0.00000000000E+00 -0.59753489277E+01  0.59753489277E+01  0.00000000000E+00 0.  1.
         21    1    1    2  503  501  0.20659632637E+02  0.41699983110E+01  0.20342839508E+02  0.29292327081E+02  0.00000000000E+00 0.  1.
         21    1    1    2  504  502 -0.20659632637E+02 -0.41699983110E+01  0.72504423641E+02  0.75505633923E+02  0.00000000000E+00 0.  1.
</event>
<event>
 4    1  0.1571930E+006  0.3875692E+02  0.7546771E-02  0.1355928E+00
         21   -1    0    0  504  501  0.00000000000E+00  0.00000000000E+00  0.59873372803E+02  0.59873372803E+02  0.00000000000E+00 0.  1.
         21   -1    0    0  501  502 -0.00000000000E+00 -0.00000000000E+00 -0.25875279399E+03  0.25875279399E+03  0.00000000000E+00 0.  1.
         21    1    1    2  503  502  0.38405006138E+02 -0.52109852958E+01 -0.25083265218E+03  0.25380921627E+03  0.00000000000E+00 0.  1.
         21    1    1    2  504  503 -0.38405006138E+02  0.52109852958E+01  0.51953230994E+02  0.64816950521E+02  0.00000000000E+00 0.  1.
</event>
<event>
 4    1  0.1571930E+006  0.2280349E+02  0.7546771E-02  0.1494981E+00
         21   -1    0    0  504  501  0.00000000000E+00  0.00000000000E+00  0.11885348878E+04  0.11885348878E+04  0.00000000000E+00 0. -1.
         21   -1    0    0  503  502 -0.00000000000E+00 -0.00000000000E+00 -0.12110361481E+02  0.12110361481E+02  0.00000000000E+00 0.  1.
         21    1    1    2  503  501  0.87901604868E+00  0.22786539136E+02  0.11775911696E+04  0.11778119382E+04  0.00000000000E+00 0. -1.
         21    1    1    2  504  502 -0.87901604868E+00 -0.22786539136E+02 -0.11666433566E+01  0.22833311011E+02  0.00000000000E+00 0.  1.
</event>
<event>
 4    1  0.1571930E+006  0.3851511E+02  0.7546771E-02  0.1357414E+00
         21   -1    0    0  503  501  0.00000000000E+00  0.00000000000E+00  0.13142317677E+03  0.13142317677E+03  0.00000000000E+00 0. -1.
         21   -1    0    0  504  502 -0.00000000000E+00 -0.00000000000E+00 -0.15466002954E+02  0.15466002954E+02  0.00000000000E+00 0. -1.
         21    1    1    2  503  502 -0.32305797847E+02  0.20970194054E+02  0.19802518238E+02  0.43307659158E+02  0.00000000000E+00 0. -1.
         21    1    1    2  504  501  0.32305797847E+02 -0.20970194054E+02  0.96154655573E+02  0.10358152056E+03  0.00000000000E+00 0. -1.
</event>
<event>
 4    1  0.1571930E+006  0.2008928E+02  0.7546771E-02  0.1532675E+00
         21   -1    0    0  504  501  0.00000000000E+00  0.00000000000E+00  0.54005313549E+03  0.54005313549E+03  0.00000000000E+00 0. -1.
         21   -1    0    0  503  502 -0.00000000000E+00 -0.00000000000E+00 -0.46998980254E+02  0.46998980254E+02  0.00000000000E+00 0.  1.
         21    1    1    2  503  501  0.13799455450E+02  0.14599800932E+02 -0.44656061646E+02  0.48966754024E+02  0.00000000000E+00 0.  1.
         21    1    1    2  504  502 -0.13799455450E+02 -0.14599800932E+02  0.53771021688E+03  0.53808536172E+03  0.00000000000E+00 0. -1.
</event>
<event>
 4    1  0.1571930E+006  0.2053298E+02  0.7546771E-02  0.1526038E+00
         21   -1    0    0  504  501  0.00000000000E+00  0.00000000000E+00  0.23679021640E+03  0.23679021640E+03  0.00000000000E+00 0.  1.
         21   -1    0    0  503  502 -0.00000000000E+00 -0.00000000000E+00 -0.18635083546E+01  0.18635083546E+01  0.00000000000E+00 0.  1.
         21    1    1    2  503  501 -0.16037002305E+02  0.12822546240E+02  0.92277664985E+02  0.94534494181E+02  0.00000000000E+00 0.  1.
         21    1    1    2  504  502  0.16037002305E+02 -0.12822546240E+02  0.14264904306E+03  0.14411923058E+03  0.00000000000E+00 0.  1.
</event>
<event>
 4    1  0.1571930E+006  0.2382236E+02  0.7546771E-02  0.1482422E+00
         21   -1    0    0  503  501  0.00000000000E+00  0.00000000000E+00  0.15236435392E+01  0.15236435392E+01  0.00000000000E+00 0. -1.
         21   -1    0    0  504  502 -0.00000000000E+00 -0.00000000000E+00 -0.68006859187E+03  0.68006859187E+03  0.00000000000E+00 0. -1.
         21    1    1    2  503  502  0.21302214018E+02 -0.10663988562E+02 -0.11007307278E+03  0.11262142925E+03  0.00000000000E+00 0. -1.
         21    1    1    2  504  501 -0.21302214018E+02  0.10663988562E+02 -0.56847187555E+03  0.56897080616E+03  0.00000000000E+00 0. -1.
</event>
<event>
 4    1  0.1571930E+006  0.2060859E+02  0.7546771E-02  0.1524927E+00
         21   -1    0    0  504  501  0.00000000000E+00  0.00000000000E+00  0.88774443063E+01  0.88774443063E+01  0.00000000000E+00 0.  1.
         21   -1    0    0  501  502 -0.00000000000E+00 -0.00000000000E+00 -0.10804474446E+03  0.10804474446E+03  0.00000000000E+00 0. -1.
         21    1    1    2  503  502 -0.19537757580E+02  0.65566753235E+01 -0.93222526314E+02  0.95473312370E+02  0.00000000000E+00 0. -1.
         21    1    1    2  504  503  0.19537757580E+02 -0.65566753235E+01 -0.59447738363E+01  0.21448876393E+02  0.00000000000E+00 0.  1.
</event>
<event>
 4    1  0.1571930E+006  0.3473853E+02  0.7546771E-02  0.1382411E+00
         21   -1    0    0  502  501  0.00000000000E+00  0.00000000000E+00  0.44256762286E+01  0.44256762286E+01  0.00000000000E+00 0.  1.
         21   -1    0    0  504  502 -0.00000000000E+00 -0.00000000000E+00 -0.38957340086E+03  0.38957340086E+03  0.00000000000E+00 0.  1.
         21    1    1    2  503  501  0.34363779622E+02  0.50888042403E+01 -0.84659969673E+02  0.91509976196E+02  0.00000000000E+00 0.  1.
         21    1    1    2  504  503 -0.34363779622E+02 -0.50888042403E+01 -0.30048775496E+03  0.30248910089E+03  0.00000000000E+00 0.  1.
</event>
<event>
 4    1  0.1571930E+006  0.1360327E+03  0.7546771E-02  0.1112862E+00
         21   -1    0    0  504  501  0.00000000000E+00  0.00000000000E+00  0.46186551179E+03  0.46186551179E+03  0.00000000000E+00 0. -1.
         21   -1    0    0  503  502 -0.00000000000E+00 -0.00000000000E+00 -0.84360042687E+03  0.84360042687E+03  0.00000000000E+00 0. -1.
         21    1    1    2  503  501 -0.83515277972E+02 -0.10737831109E+03 -0.82791158322E+03  0.83901280859E+03  0.00000000000E+00 0. -1.
         21    1    1    2  504  502  0.83515277972E+02  0.10737831109E+03  0.44617666815E+03  0.46645313007E+03  0.00000000000E+00 0. -1.
</event>
<event>
 4    1  0.1571930E+006  0.2138286E+02  0.7546771E-02  0.1513868E+00
         21   -1    0    0  503  501  0.00000000000E+00  0.00000000000E+00  0.16660158977E+03  0.16660158977E+03  0.00000000000E+00 0.  1.
         21   -1    0    0  504  502 -0.00000000000E+00 -0.00000000000E+00 -0.56158341789E+01  0.56158341789E+01  0.00000000000E+00 0. -1.
         21    1    1    2  503  502  0.15735600857E+00  0.21382282758E+02  0.18920354938E+02  0.28551823196E+02  0.00000000000E+00 0. -1.
         21    1    1    2  504  501 -0.15735600857E+00 -0.21382282758E+02  0.14206540065E+03  0.14366560075E+03  0.00000000000E+00 0.  1.
</event>
<event>
 4    1  0.1571930E+006  0.2547543E+02  0.7546771E-02  0.1463554E+00
         21   -1    0    0  502  501  0.00000000000E+00  0.00000000000E+00  0.90021128772E+03  0.90021128772E+03  0.00000000000E+00 0. -1.
         21   -1    0    0  503  502 -0.00000000000E+00 -0.00000000000E+00 -0.50066535981E+03  0.50066535981E+03  0.00000000000E+00 0.  1.
         21    1    1    2  503  504 -0.12552662683E+02  0.22168177978E+02 -0.50016087589E+03  0.50080924435E+03  0.00000000000E+00 0.  1.
         21    1    1    2  504  501  0.12552662683E+02 -0.22168177978E+02  0.89970680380E+03  0.90006740317E+03  0.00000000000E+00 0. -1.
</event>
<event>
 4    1  0.1571930E+006  0.2695356E+02  0.7546771E-02  0.1448075E+00
         21   -1    0    0  502  501  0.00000000000E+00  0.00000000000E+00  0.37023489421E+02  0.37023489421E+02  0.00000000000E+00 0. -1.
         21   -1    0    0  503  502 -0.00000000000E+00 -0.00000000000E+00 -0.25860650017E+02  0.25860650017E+02  0.00000000000E+00 0. -1.
         21    1    1    2  503  504  0.17739316871E+02  0.20293128041E+02 -0.98611079164E+01  0.28700798910E+02  0.00000000000E+00 0. -1.
         21    1    1    2  504  501 -0.17739316871E+02 -0.20293128041E+02  0.21023947320E+02  0.34183340528E+02  0.00000000000E+00 0. -1.
</event>
<event>
 4    1  0.1571930E+006  0.2252081E+02  0.7546771E-02  0.1498605E+00
         21   -1    0    0  503  501  0.00000000000E+00  0.00000000000E+00  0.24640072197E+03  0.24640072197E+03  0.00000000000E+00 0.  1.
         21   -1    0    0  504  502 -0.00000000000E+00 -0.00000000000E+00 -0.39005643870E+02  0.39005643870E+02  0.00000000000E+00 0. -1.
         21    1    1    2  503  502 -0.40289422330E+01 -0.22157492746E+02 -0.35189289979E+02  0.41778858164E+02  0.00000000000E+00 0. -1.
         21    1    1    2  504  501  0.40289422330E+01  0.22157492746E+02  0.24258436807E+03  0.24362750767E+03  0.00000000000E+00 0.  1.
</event>
<event>
 4    1  0.1571930E+006  0.3220788E+02  0.7546771E-02  0.1401332E+00
         21   -1    0    0  502  501  0.00000000000E+00  0.00000000000E+00  0.18150588982E+02  0.18150588982E+02  0.00000000000E+00 0.  1.
         21   -1    0    0  503  502 -0.00000000000E+00 -0.00000000000E+00 -0.11576552925E+03  0.11576552925E+03  0.00000000000E+00 0. -1.
         21    1    1    2  503  504  0.15834651557E+02  0.28046588165E+02 -0.96451794703E+02  0.10168724600E+03  0.00000000000E+00 0. -1.
         21    1    1    2  504  501 -0.15834651557E+02 -0.28046588165E+02 -0.11631455629E+01  0.32228872231E+02  0.00000000000E+00 0.  1.
</event>
<event>
 4    1  0.1571930E+006  0.2830877E+02  0.7546771E-02  0.1434886E+00
         21   -1    0    0  504  501  0.00000000000E+00  0.00000000000E+00  0.14373819518E+02  0.14373819518E+02  0.00000000000E+00 0. -1.
         21   -1    0    0  503  502 -0.00000000000E+00 -0.00000000000E+00 -0.57378824910E+02  0.57378824910E+02  0.00000000000E+00 0. -1.
         21    1    1    2  503  501 -0.65424022759E+01 -0.27542395295E+02 -0.27541169106E+02  0.39495601804E+02  0.00000000000E+00 0. -1.
         21    1    1    2  504  502  0.65424022759E+01  0.27542395295E+02 -0.15463836286E+02  0.32257042624E+02  0.00000000000E+00 0. -1.
</event>
<event>
 4    1  0.1571930E+006  0.2144623E+02  0.7546771E-02  0.1512988E+00
         21   -1    0    0  503  501  0.00000000000E+00  0.00000000000E+00  0.50880605179E+02  0.50880605179E+02  0.00000000000E+00 0.  1.
         21   -1    0    0  504  502 -0.00000000000E+00 -0.00000000000E+00 -0.68305537093E+02  0.68305537093E+02  0.00000000000E+00 0. -1.
         21    1    1    2  503  502  0.21148964027E+02 -0.35583920850E+01  0.46797422275E+02  0.51477563707E+02  0.00000000000E+00 0.  1.
         21    1    1    2  504  501 -0.21148964027E+02  0.35583920850E+01 -0.64222354189E+02  0.67708578565E+02  0.00000000000E+00 0. -1.
</event>
<event>
 4    1  0.1571930E+006  0.2179666E+02  0.7546771E-02  0.1508188E+00
         21   -1    0    0  502  501  0.00000000000E+00  0.00000000000E+00  0.89305413595E+03  0.89305413595E+03  0.00000000000E+00 0. -1.
         21   -1    0    0  503  502 -0.00000000000E+00 -0.00000000000E+00 -0.64744236905E+03  0.64744236905E+03  0.00000000000E+00 0. -1.
         21    1    1    2  503  504  0.21452262506E+02  0.38593730200E+01 -0.64712585652E+03  0.64749283278E+03  0.00000000000E+00 0. -1.
         21    1    1    2  504  501 -0.21452262506E+02 -0.38593730200E+01  0.89273762342E+03  0.89300367222E+03  0.00000000000E+00 0. -1.
</event>
<event>
 4    1  0.1571930E+006  0.3032805E+02  0.7546771E-02  0.1416767E+00
         21   -1    0    0  503  501  0.00000000000E+00  0.00000000000E+00  0.93644360150E+02  0.93644360150E+02  0.00000000000E+00 0.  1.
         21   -1    0    0  504  502 -0.00000000000E+00 -0.00000000000E+00 -0.56643695900E+02  0.56643695900E+02  0.00000000000E+00 0. -1.
         21    1    1    2  503  502  0.20705804854E+02  0.22159879505E+02 -0.49818663337E+02  0.58324007330E+02  0.00000000000E+00 0. -1.
         21    1    1    2  504  501 -0.20705804854E+02 -0.22159879505E+02  0.86819327587E+02  0.91964048721E+02  0.00000000000E+00 0.  1.
</event>
<event>
 4    1  0.1571930E+006  0.2363302E+02  0.7546771E-02  0.1484699E+00
         21   -1    0    0  503  501  0.00000000000E+00  0.00000000000E+00  0.37880485535E+01  0.37880485535E+01  0.00000000000E+00 0.  1.
         21   -1    0    0  504  502 -0.00000000000E+00 -0.00000000000E+00 -0.22056373997E+03  0.22056373997E+03  0.00000000000E+00 0.  1.
         21    1    1    2  503  502  0.14304122673E+02 -0.18812535820E+02 -0.43799495366E+02  0.49768616855E+02  0.00000000000E+00 0.  1.
         21    1    1    2  504  501 -0.14304122673E+02  0.18812535820E+02 -0.17297619605E+03  0.17458317167E+03  0.00000000000E+00 0.  1.
</event>
<event>
 4    1  0.1571930E+006  0.7824788E+02  0.7546771E-02  0.1207975E+00
         21   -1    0    0  504  501  0.00000000000E+00  0.00000000000E+00  0.78942507708E+03  0.78942507708E+03  0.00000000000E+00 0. -1.
         21   -1    0    0  503  502 -0.00000000000E+00 -0.00000000000E+00 -0.11006062404E+02  0.11006062404E+02  0.00000000000E+00 0. -1.
         21    1    1    2  503  501 -0.62225217639E+02 -0.47442106260E+02  0.17172513553E+03  0.18871209110E+03  0.00000000000E+00 0. -1.
         21    1    1    2  504  502  0.62225217639E+02  0.47442106260E+02  0.60669387914E+03  0.61171904838E+03  0.00000000000E+00 0. -1.
</event>
<event>
 4    1  0.1571930E+006  0.3064436E+02  0.7546771E-02  0.1414078E+00
         21   -1    0    0  503  501  0.00000000000E+00  0.00000000000E+00  0.57927643323E+02  0.57927643323E+02  0.00000000000E+00 0. -1.
         21   -1    0    0  501  502 -0.00000000000E+00 -0.00000000000E+00 -0.35767398282E+02  0.35767398282E+02  0.00000000000E+00 0.  1.
         21    1    1    2  503  504  0.11677399767E+02  0.28332229874E+02  0.45720697750E+02  0.55040522506E+02  0.00000000000E+00 0. -1.
         21    1    1    2  504  502 -0.11677399767E+02 -0.28332229874E+02 -0.23560452709E+02  0.38654519100E+02  0.00000000000E+00 0.  1.
</event>
<event>
 4    1  0.1571930E+006  0.2896303E+02  0.7546771E-02  0.1428827E+00
         21   -1    0    0  502  501  0.00000000000E+00  0.00000000000E+00  0.80173852938E+02  0.80173852938E+02  0.00000000000E+00 0. -1.
         21   -1    0    0  503  502 -0.00000000000E+00 -0.00000000000E+00 -0.20957998863E+02  0.20957998863E+02  0.00000000000E+00 0. -1.
         21    1    1    2  503  504  0.20952718422E+02  0.19996016877E+02 -0.61749084607E+01  0.29613959457E+02  0.00000000000E+00 0. -1.
         21    1    1    2  504  501 -0.20952718422E+02 -0.19996016877E+02  0.65390762536E+02  0.71517892344E+02  0.00000000000E+00 0. -1.
</event>
<event>
 4    1  0.1571930E+006  0.2344220E+02  0.7546771E-02  0.1487019E+00
         21   -1    0    0  503  501  0.00000000000E+00  0.00000000000E+00  0.43498355713E+03  0.43498355713E+03  0.00000000000E+00 0.  1.
         21   -1    0    0  504  502 -0.00000000000E+00 -0.00000000000E+00 -0.74218452693E+01  0.74218452693E+01  0.00000000000E+00 0.  1.
         21    1    1    2  503  502  0.80274011411E+00 -0.23428449850E+02  0.12282378078E+02  0.26464947861E+02  0.00000000000E+00 0.  1.
         21    1    1    2  504  501 -0.80274011411E+00  0.23428449850E+02  0.41527933378E+03  0.41594045453E+03  0.00000000000E+00 0.  1.
</event>
<event>
 4    1  0.1571930E+006  0.4451376E+02  0.7546771E-02  0.1323889E+00
         21   -1    0    0  503  501  0.00000000000E+00  0.00000000000E+00  0.24538490898E+02  0.24538490898E+02  0.00000000000E+00 0. -1.
         21   -1    0    0  504  502 -0.00000000000E+00 -0.00000000000E+00 -0.15426609623E+03  0.15426609623E+03  0.00000000000E+00 0.  1.
         21    1    1    2  503  502  0.38742886368E+02 -0.21919488268E+02 -0.12658091376E+03  0.13417974116E+03  0.00000000000E+00 0.  1.
         21    1    1    2  504  501 -0.38742886368E+02  0.21919488268E+02 -0.31466915760E+01  0.44624845971E+02  0.00000000000E+00 0. -1.
</event>
<event>
 4    1  0.1571930E+006  0.2303670E+02  0.7546771E-02  0.1492038E+00
         21   -1    0    0  504  501  0.00000000000E+00  0.00000000000E+00  0.72018182556E+01  0.72018182556E+01  0.00000000000E+00 0.  1.
         21   -1    0    0  503  502 -0.00000000000E+00 -0.00000000000E+00 -0.12726232208E+03  0.12726232208E+03  0.00000000000E+00 0. -1.
         21    1    1    2  503  501  0.23035473661E+02  0.23774540230E+00 -0.16408431375E+02  0.28282966426E+02  0.00000000000E+00 0.  1.
         21    1    1    2  504  502 -0.23035473661E+02 -0.23774540230E+00 -0.10365207245E+03  0.10618117391E+03  0.00000000000E+00 0. -1.
</event>
<event>
 4    1  0.1571930E+006  0.2322387E+02  0.7546771E-02  0.1489706E+00
         21   -1    0    0  503  501  0.00000000000E+00  0.00000000000E+00  0.56964635107E+00  0.56964635107E+00  0.00000000000E+00 0. -1.
         21   -1    0    0  504  502 -0.00000000000E+00 -0.00000000000E+00 -0.94754788191E+03  0.94754788191E+03  0.00000000000E+00 0. -1.
         21    1    1    2  503  502 -0.10925424174E+02 -0.20493496465E+02 -0.46028268611E+03  0.46086820179E+03  0.00000000000E+00 0. -1.
         21    1    1    2  504  501  0.10925424174E+02  0.20493496465E+02 -0.48669554945E+03  0.48724932647E+03  0.00000000000E+00 0. -1.
</event>
<event>
 4    1  0.1571930E+006  0.2945009E+02  0.7546771E-02  0.1424436E+00
         21   -1    0    0  504  501  0.00000000000E+00  0.00000000000E+00  0.85834872584E+02  0.85834872584E+02  0.00000000000E+00 0. -1.
         21   -1    0    0  501  502 -0.00000000000E+00 -0.00000000000E+00 -0.14195893686E+02  0.14195893686E+02  0.00000000000E+00 0. -1.
         21    1    1    2  503  502  0.25999552924E+02 -0.13832242304E+02  0.89682375874E+01  0.30785336848E+02  0.00000000000E+00 0. -1.
         21    1    1    2  504  503 -0.25999552924E+02  0.13832242304E+02  0.62670741310E+02  0.69245429422E+02  0.00000000000E+00 0. -1.
</event>
<event>
 4    1  0.1571930E+006  0.2590848E+02  0.7546771E-02  0.1458892E+00
         21   -1    0    0  504  501  0.00000000000E+00  0.00000000000E+00  0.56549738084E+03  0.56549738084E+03  0.00000000000E+00 0. -1.
         21   -1    0    0  501  502 -0.00000000000E+00 -0.00000000000E+00 -0.84213508114E+01  0.84213508114E+01  0.00000000000E+00 0. -1.
         21    1    1    2  503  502 -0.52564517537E+01 -0.25369646677E+02  0.12570190201E+02  0.28796856412E+02  0.00000000000E+00 0. -1.
         21    1    1    2  504  503  0.52564517537E+01  0.25369646677E+02  0.54450583982E+03  0.54512187523E+03  0.00000000000E+00 0. -1.
</event>
<event>
 4    1  0.1571930E+006  0.3325966E+02  0.7546771E-02  0.1393229E+00
         21   -1    0    0  503  501  0.00000000000E+00  0.00000000000E+00  0.82278985598E+01  0.82278985598E+01  0.00000000000E+00 0. -1.
         21   -1    0    0  501  502 -0.00000000000E+00 -0.00000000000E+00 -0.16558189920E+04  0.16558189920E+04  0.00000000000E+00 0. -1.
         21    1    1    2  503  504  0.33057022356E+02 -0.36658471485E+01 -0.26265533538E+02  0.42380224331E+02  0.00000000000E+00 0. -1.
         21    1    1    2  504  502 -0.33057022356E+02  0.36658471485E+01 -0.16213255599E+04  0.16216666662E+04  0.00000000000E+00 0. -1.
</event>
<event>
 4    1  0.1571930E+006  0.5362996E+02  0.7546771E-02  0.1283157E+00
         21   -1    0    0  504  501  0.00000000000E+00  0.00000000000E+00  0.34219362715E+02  0.34219362715E+02  0.00000000000E+00 0. -1.
         21   -1    0    0  503  502 -0.00000000000E+00 -0.00000000000E+00 -0.10332209044E+03  0.10332209044E+03  0.00000000000E+00 0. -1.
         21    1    1    2  503  501 -0.29266736527E+02  0.44940304351E+02 -0.64251591726E+02  0.83692531694E+02  0.00000000000E+00 0. -1.
         21    1    1    2  504  502  0.29266736527E+02 -0.44940304351E+02 -0.48511359996E+01  0.53848921462E+02  0.00000000000E+00 0. -1.
</event>
<event>
 4    1  0.1571930E+006  0.2869211E+02  0.7546771E-02  0.1431313E+00
         21   -1    0    0  503  501  0.00000000000E+00  0.00000000000E+00  0.42154275186E+01  0.42154275186E+01  0.00000000000E+00 0.  1.
         21   -1    0    0  504  502 -0.00000000000E+00 -0.00000000000E+00 -0.74131360847E+03  0.74131360847E+03  0.00000000000E+00 0.  1.
         21    1    1    2  503  502  0.26858848333E+02 -0.10091564439E+02 -0.48631093933E+02  0.56464331251E+02  0.00000000000E+00 0.  1.
         21    1    1    2  504  501 -0.26858848333E+02  0.10091564439E+02 -0.68846708702E+03  0.68906470474E+03  0.00000000000E+00 0.  1.
</event>
<event>
 4    1  0.1571930E+006  0.2747894E+02  0.7546771E-02  0.1442855E+00
         21   -1    0    0  503  501  0.00000000000E+00  0.00000000000E+00  0.79898997476E+01  0.79898997476E+01  0.00000000000E+00 0.  1.
         21   -1    0    0  504  502 -0.00000000000E+00 -0.00000000000E+00 -0.10378751131E+03  0.10378751131E+03  0.00000000000E+00 0. -1.
         21    1    1    2  503  502  0.27398307196E+02  0.21036024716E+01 -0.64612175782E+02  0.70212717081E+02  0.00000000000E+00 0. -1.
         21    1    1    2  504  501 -0.27398307196E+02 -0.21036024716E+01 -0.31185435780E+02  0.41564693977E+02  0.00000000000E+00 0.  1.
</event>
<event>
 4    1  0.1571930E+006  0.2502238E+02  0.7546771E-02  0.1468553E+00
         21   -1    0    0  502  501  0.00000000000E+00  0.00000000000E+00  0.63729214457E+02  0.63729214457E+02  0.00000000000E+00 0.  1.
         21   -1    0    0  503  502 -0.00000000000E+00 -0.00000000000E+00 -0.15789776398E+02  0.15789776398E+02  0.00000000000E+00 0. -1.
         21    1    1    2  503  504  0.24198512249E+02 -0.63679943361E+01 -0.46804621712E+00  0.25026753968E+02  0.00000000000E+00 0. -1.
         21    1    1    2  504  501 -0.24198512249E+02  0.63679943361E+01  0.48407484276E+02  0.54492236886E+02  0.00000000000E+00 0.  1.
</event>
<event>
 4    1  0.1571930E+006  0.3447328E+02  0.7546771E-02  0.1384304E+00
         21   -1    0    0  504  501  0.00000000000E+00  0.00000000000E+00  0.19525805591E+04  0.19525805591E+04  0.00000000000E+00 0. -1.
         21   -1    0    0  501  502 -0.00000000000E+00 -0.00000000000E+00 -0.13840137149E+03  0.13840137149E+03  0.00000000000E+00 0.  1.
         21    1    1    2  503  502 -0.19030870497E+02  0.28744268006E+02 -0.13610001246E+03  0.14039807821E+03  0.00000000000E+00 0.  1.
         21    1    1    2  504  503  0.19030870497E+02 -0.28744268006E+02  0.19502792001E+04  0.19505838524E+04  0.00000000000E+00 0. -1.
</event>
<event>
 4    1  0.1571930E+006  0.2649720E+02  0.7546771E-02  0.1452725E+00
         21   -1    0    0  504  501  0.00000000000E+00  0.00000000000E+00  0.10385711897E+01  0.10385711897E+01  0.00000000000E+00 0.  1.
         21   -1    0    0  503  502 -0.00000000000E+00 -0.00000000000E+00 -0.68924734120E+03  0.68924734120E+03  0.00000000000E+00 0.  1.
         21    1    1    2  503  501  0.26121570196E+02  0.44458156538E+01 -0.29630304619E+03  0.29748545660E+03  0.00000000000E+00 0.  1.
         21    1    1    2  504  502 -0.26121570196E+02 -0.44458156538E+01 -0.39190572381E+03  0.39280045578E+03  0.00000000000E+00 0.  1.
</event>
<event>
 4    1  0.1571930E+006  0.2029269E+02  0.7546771E-02  0.1529607E+00
         21   -1    0    0  504  501  0.00000000000E+00  0.00000000000E+00  0.25172723336E+02  0.25172723336E+02  0.00000000000E+00 0.  1.
         21   -1    0    0  503  502 -0.00000000000E+00 -0.00000000000E+00 -0.16575379923E+02  0.16575379923E+02  0.00000000000E+00 0.  1.
         21    1    1    2  503  501  0.80368160092E+01 -0.18633383269E+02  0.66852200434E+01  0.21365522476E+02  0.00000000000E+00 0.  1.
         21    1    1    2  504  502 -0.80368160092E+01  0.18633383269E+02  0.19121233701E+01  0.20382580784E+02  0.00000000000E+00 0.  1.
</event>
<event>
 4    1  0.1571930E+006  0.5156057E+02  0.7546771E-02  0.1291545E+00
         21   -1    0    0  503  501  0.00000000000E+00  0.00000000000E+00  0.19854663384E+03  0.19854663384E+03  0.00000000000E+00 0.  1.
         21   -1    0    0  501  502 -0.00000000000E+00 -0.00000000000E+00 -0.33765398826E+02  0.33765398826E+02  0.00000000000E+00 0.  1.
         21    1    1    2  503  504  0.14587680212E+02  0.49453932612E+02  0.17262278282E+03  0.18015858851E+03  0.00000000000E+00 0.  1.
         21    1    1    2  504  502 -0.14587680212E+02 -0.49453932612E+02 -0.78415478132E+01  0.52153444152E+02  0.00000000000E+00 0.  1.
</event>
<event>
 4    1  0.1571930E+006  0.1537005E+03  0.7546771E-02  0.1093884E+00
         21   -1    0    0  504  501  0.00000000000E+00  0.00000000000E+00  0.25876548360E+03  0.25876548360E+03  0.00000000000E+00 0.  1.
         21   -1    0    0  501  502 -0.00000000000E+00 -0.00000000000E+00 -0.25463707335E+03  0.25463707335E+03  0.00000000000E+00 0. -1.
         21    1    1    2  503  502  0.31359961501E+02  0.15046728891E+03 -0.20353289234E+03  0.25504801603E+03  0.00000000000E+00 0. -1.
         21    1    1    2  504  503 -0.31359961501E+02 -0.15046728891E+03  0.20766130259E+03  0.25835454092E+03  0.00000000000E+00 0.  1.
</event>
<event>
 4    1  0.1571930E+006  0.2005876E+02  0.7546771E-02  0.1533139E+00
         21   -1    0    0  503  501  0.00000000000E+00  0.00000000000E+00  0.14810059906E+02  0.14810059906E+02  0.00000000000E+00 0. -1.
         21   -1    0    0  501  502 -0.00000000000E+00 -0.00000000000E+00 -0.12806847817E+03  0.12806847817E+03  0.00000000000E+00 0.  1.
         21    1    1    2  503  504  0.10935863239E+02  0.16815488770E+02  0.67816085100E+01  0.21174134725E+02  0.00000000000E+00 0. -1.
         21    1    1    2  504  502 -0.10935863239E+02 -0.16815488770E+02 -0.12004002678E+03  0.12170440336E+03  0.00000000000E+00 0.  1.
</event>
<event>
 4    1  0.1571930E+006  0.2674082E+02  0.7546771E-02  0.1450229E+00
         21   -1    0    0  502  501  0.00000000000E+00  0.00000000000E+00  0.59489837791E+02  0.59489837791E+02  0.00000000000E+00 0.  1.
         21   -1    0    0  504  502 -0.00000000000E+00 -0.00000000000E+00 -0.17634759362E+02  0.17634759362E+02  0.00000000000E+00 0.  1.
         21    1    1    2  503  501 -0.26353864304E+02  0.45326694777E+01  0.42686668051E+02  0.50370853533E+02  0.00000000000E+00 0.  1.
         21    1    1    2  504  503  0.26353864304E+02 -0.45326694777E+01 -0.83158962218E+00  0.26753743619E+02  0.00000000000E+00 0.  1.
</event>
<event>
 4    1  0.1571930E+006  0.2839882E+02  0.7546771E-02  0.1434041E+00
         21   -1    0    0  504  501  0.00000000000E+00  0.00000000000E+00  0.27569864426E+03  0.27569864426E+03  0.00000000000E+00 0. -1.
         21   -1    0    0  503  502 -0.00000000000E+00 -0.00000000000E+00 -0.97490374108E+01  0.97490374108E+01  0.00000000000E+00 0.  1.
         21    1    1    2  503  501 -0.27296187371E+02  0.78365288680E+01  0.13568361568E+02  0.31473694815E+02  0.00000000000E+00 0.  1.
         21    1    1    2  504  502  0.27296187371E+02 -0.78365288680E+01  0.25238124529E+03  0.25397398686E+03  0.00000000000E+00 0. -1.
</event>
<event>
 4    1  0.1571930E+006  0.2392000E+02  0.7546771E-02  0.1481258E+00
         21   -1    0    0  503  501  0.00000000000E+00  0.00000000000E+00  0.64437951916E+03  0.64437951916E+03  0.00000000000E+00 0.  1.
         21   -1    0    0  504  502 -0.00000000000E+00 -0.00000000000E+00 -0.84230519227E+01  0.84230519227E+01  0.00000000000E+00 0.  1.
         21    1    1    2  503  502  0.17982176199E+02 -0.15773647879E+02  0.62669636854E+03  0.62715269670E+03  0.00000000000E+00 0.  1.
         21    1    1    2  504  501 -0.17982176199E+02  0.15773647879E+02  0.92600986954E+01  0.25649874388E+02  0.00000000000E+00 0.  1.
</event>
<event>
 4    1  0.1571930E+006  0.2475615E+02  0.7546771E-02  0.1471550E+00
         21   -1    0    0  503  501  0.00000000000E+00  0.00000000000E+00  0.81500163926E+01  0.81500163926E+01  0.00000000000E+00 0.  1.
         21   -1    0    0  501  502 -0.00000000000E+00 -0.00000000000E+00 -0.87691984490E+02  0.87691984490E+02  0.00000000000E+00 0. -1.
         21    1    1    2  503  504 -0.14071932083E+02 -0.20367807338E+02 -0.21682910173E+02  0.32909199958E+02  0.00000000000E+00 0.  1.
         21    1    1    2  504  502  0.14071932083E+02  0.20367807338E+02 -0.57859057925E+02  0.62932800925E+02  0.00000000000E+00 0. -1.
</event>
<event>
 4    1  0.1571930E+006  0.2843423E+02  0.7546771E-02  0.1433710E+00
         21   -1    0    0  503  501  0.00000000000E+00  0.00000000000E+00  0.29312089833E+02  0.29312089833E+02  0.00000000000E+00 0.  1.
         21   -1    0    0  501  502 -0.00000000000E+00 -0.00000000000E+00 -0.93833058002E+02  0.93833058002E+02  0.00000000000E+00 0.  1.
         21    1    1    2  503  504 -0.27376781862E+00  0.28432909842E+02  0.19476800404E+02  0.34465215289E+02  0.00000000000E+00 0.  1.
         21    1    1    2  504  502  0.27376781862E+00 -0.28432909842E+02 -0.83997768574E+02  0.88679932545E+02  0.00000000000E+00 0.  1.
</event>
<event>
 4    1  0.1571930E+006  0.2454289E+02  0.7546771E-02  0.1473983E+00
         21   -1    0    0  503  501  0.00000000000E+00  0.00000000000E+00  0.11794508996E+02  0.11794508996E+02  0.00000000000E+00 0.  1.
         21   -1    0    0  504  502 -0.00000000000E+00 -0.00000000000E+00 -0.10150117314E+03  0.10150117314E+03  0.00000000000E+00 0. -1.
         21    1    1    2  503  502  0.10756527085E+02 -0.22060154417E+02 -0.49237695925E+01  0.25031915525E+02  0.00000000000E+00 0.  1.
         21    1    1    2  504  501 -0.10756527085E+02  0.22060154417E+02 -0.84782894546E+02  0.88263766606E+02  0.00000000000E+00 0. -1.
</event>
<event>
 4    1  0.1571930E+006  0.2142854E+02  0.7546771E-02  0.1513233E+00
         21   -1    0    0  504  501  0.00000000000E+00  0.00000000000E+00  0.24213309536E+03  0.24213309536E+03  0.00000000000E+00 0.  1.
         21   -1    0    0  503  502 -0.00000000000E+00 -0.00000000000E+00 -0.34157218133E+02  0.34157218133E+02  0.00000000000E+00 0.  1.
         21    1    1    2  503  501  0.93582946443E+01 -0.19277053517E+02  0.23824343359E+03  0.23920517578E+03  0.00000000000E+00 0.  1.
         21    1    1    2  504  502 -0.93582946443E+01  0.19277053517E+02 -0.30267556364E+02  0.37085137713E+02  0.00000000000E+00 0.  1.
</event>
<event>
 4    1  0.1571930E+006  0.2178341E+02  0.7546771E-02  0.1508367E+00
         21   -1    0    0  503  501  0.00000000000E+00  0.00000000000E+00  0.33313594344E+02  0.33313594344E+02  0.00000000000E+00 0. -1.
         21   -1    0    0  501  502 -0.00000000000E+00 -0.00000000000E+00 -0.23762287484E+02  0.23762287484E+02  0.00000000000E+00 0.  1.
         21    1    1    2  503  504 -0.15161070438E+02  0.15641570065E+02  0.22837383016E+02  0.31560463145E+02  0.00000000000E+00 0. -1.
         21    1    1    2  504  502  0.15161070438E+02 -0.15641570065E+02 -0.13286076156E+02  0.25515418683E+02  0.00000000000E+00 0.  1.
</event>
<event>
 4    1  0.1571930E+006  0.2047321E+02  0.7546771E-02  0.1526921E+00
         21   -1    0    0  503  501  0.00000000000E+00  0.00000000000E+00  0.74147639678E+02  0.74147639678E+02  0.00000000000E+00 0. -1.
         21   -1    0    0  504  502 -0.00000000000E+00 -0.00000000000E+00 -0.37403666357E+02  0.37403666357E+02  0.00000000000E+00 0. -1.
         21    1    1    2  503  502  0.47658665486E+01 -0.19910769323E+02 -0.33016331391E+02  0.38848814107E+02  0.00000000000E+00 0. -1.
         21    1    1    2  504  501 -0.47658665486E+01  0.19910769323E+02  0.69760304712E+02  0.72702491928E+02  0.00000000000E+00 0. -1.
</event>
<event>
 4    1  0.1571930E+006  0.4404855E+02  0.7546771E-02  0.1326266E+00
         21   -1    0    0  503  501  0.00000000000E+00  0.00000000000E+00  0.38507149701E+03  0.38507149701E+03  0.00000000000E+00 0.  1.
         21   -1    0    0  504  502 -0.00000000000E+00 -0.00000000000E+00 -0.11770729334E+02  0.11770729334E+02  0.00000000000E+00 0.  1.
         21    1    1    2  503  502 -0.43104643423E+02 -0.90699950639E+01  0.33670795399E+03  0.33957697415E+03  0.00000000000E+00 0.  1.
         21    1    1    2  504  501  0.43104643423E+02  0.90699950639E+01  0.36592813688E+02  0.57265252193E+02  0.00000000000E+00 0.  1.
</event>
<event>
 4    1  0.1571930E+006  0.2283128E+02  0.7546771E-02  0.1494628E+00
         21   -1    0    0  502  501  0.00000000000E+00  0.00000000000E+00  0.29231646297E+03  0.29231646297E+03  0.00000000000E+00 0. -1.
         21   -1    0    0  504  502 -0.00000000000E+00 -0.00000000000E+00 -0.46550417133E+01  0.46550417133E+01  0.00000000000E+00 0. -1.
         21    1    1    2  503  501  0.16513571702E+02 -0.15766076277E+02  0.26045823246E+03  0.26145699086E+03  0.00000000000E+00 0. -1.
         21    1    1    2  504  503 -0.16513571702E+02  0.15766076277E+02  0.27203188790E+02  0.35514513820E+02  0.00000000000E+00 0. -1.
</event>
<event>
 4    1  0.1571930E+006  0.3431831E+02  0.7546771E-02  0.1385420E+00
         21   -1    0    0  504  501  0.00000000000E+00  0.00000000000E+00  0.30223943529E+02  0.30223943529E+02  0.00000000000E+00 0.  1.
         21   -1    0    0  503  502 -0.00000000000E+00 -0.00000000000E+00 -0.15732096606E+03  0.15732096606E+03  0.00000000000E+00 0. -1.
         21    1    1    2  503  501  0.26840250204E+02  0.21385689156E+02  0.17785607220E+02  0.38653260611E+02  0.00000000000E+00 0.  1.
         21    1    1    2  504  502 -0.26840250204E+02 -0.21385689156E+02 -0.14488262975E+03  0.14889164898E+03  0.00000000000E+00 0. -1.
</event>
<event>
 4    1  0.1571930E+006  0.3018201E+02  0.7546771E-02  0.1418021E+00
         21   -1    0    0  503  501  0.00000000000E+00  0.00000000000E+00  0.21047388385E+03  0.21047388385E+03  0.00000000000E+00 0. -1.
         21   -1    0    0  504  502 -0.00000000000E+00 -0.00000000000E+00 -0.54475726344E+01  0.54475726344E+01  0.00000000000E+00 0. -1.
         21    1    1    2  503  502  0.27140482309E+02  0.13204096331E+02  0.53572559029E+02  0.61489617179E+02  0.00000000000E+00 0. -1.
         21    1    1    2  504  501 -0.27140482309E+02 -0.13204096331E+02  0.15145375218E+03  0.15443183930E+03  0.00000000000E+00 0. -1.
</event>
<event>
 4    1  0.1571930E+006  0.2286203E+02  0.7546771E-02  0.1494238E+00
         21   -1    0    0  503  501  0.00000000000E+00  0.00000000000E+00  0.41439931769E+02  0.41439931769E+02  0.00000000000E+00 0. -1.
         21   -1    0    0  501  502 -0.00000000000E+00 -0.00000000000E+00 -0.30013611779E+02  0.30013611779E+02  0.00000000000E+00 0.  1.
         21    1    1    2  503  504 -0.21665170979E+01 -0.22759142647E+02  0.32916345412E+02  0.40076903145E+02  0.00000000000E+00 0. -1.
         21    1    1    2  504  502  0.21665170979E+01  0.22759142647E+02 -0.21490025422E+02  0.31376640403E+02  0.00000000000E+00 0.  1.
</event>
<event>
 4    1  0.1571930E+006  0.3367520E+02  0.7546771E-02  0.1390124E+00
         21   -1    0    0  504  501  0.00000000000E+00  0.00000000000E+00  0.86709832451E+01  0.86709832451E+01  0.00000000000E+00 0. -1.
         21   -1    0    0  503  502 -0.00000000000E+00 -0.00000000000E+00 -0.70630760343E+03  0.70630760343E+03  0.00000000000E+00 0.  1.
         21    1    1    2  503  501  0.33099817507E+02  0.61985019388E+01 -0.67151755746E+03  0.67236139786E+03  0.00000000000E+00 0.  1.
         21    1    1    2  504  502 -0.33099817507E+02 -0.61985019388E+01 -0.26119062719E+02  0.42617188817E+02  0.00000000000E+00 0. -1.
</event>
<event>
 4    1  0.1571930E+006  0.3376808E+02  0.7546771E-02  0.1389437E+00
         21   -1    0    0  502  501  0.00000000000E+00  0.00000000000E+00  0.17138881050E+02  0.17138881050E+02  0.00000000000E+00 0.  1.
         21   -1    0    0  504  502 -0.00000000000E+00 -0.00000000000E+00 -0.16743712638E+03  0.16743712638E+03  0.00000000000E+00 0. -1.
         21    1    1    2  503  501 -0.23342620922E+02 -0.24400927674E+02 -0.35057391603E+01  0.33949571866E+02  0.00000000000E+00 0.  1.
         21    1    1    2  504  503  0.23342620922E+02  0.24400927674E+02 -0.14679250617E+03  0.15062643557E+03  0.00000000000E+00 0. -1.
</event>
<event>
 4    1  0.1571930E+006  0.2705650E+02  0.7546771E-02  0.1447041E+00
         21   -1    0    0  503  501  0.00000000000E+00  0.00000000000E+00  0.35771160225E+02  0.35771160225E+02  0.00000000000E+00 0.  1.
         21   -1    0    0  501  502 -0.00000000000E+00 -0.00000000000E+00 -0.26629068175E+02  0.26629068175E+02  0.00000000000E+00 0.  1.
         21    1    1    2  503  504  0.27053365274E+02  0.41168673074E+00  0.19582218309E+02  0.33399361259E+02  0.00000000000E+00 0.  1.
         21    1    1    2  504  502 -0.27053365274E+02 -0.41168673074E+00 -0.10440126259E+02  0.29000867140E+02  0.00000000000E+00 0.  1.
</event>
<event>
 4    1  0.1571930E+006  0.2261016E+02  0.7546771E-02  0.1497452E+00
         21   -1    0    0  502  501  0.00000000000E+00  0.00000000000E+00  0.22563532042E+03  0.22563532042E+03  0.00000000000E+00 0.  1.
         21   -1    0    0  503  502 -0.00000000000E+00 -0.00000000000E+00 -0.12678885538E+03  0.12678885538E+03  0.00000000000E+00 0. -1.
         21    1    1    2  503  504  0.21627489599E+02  0.65932660328E+01 -0.12520732247E+03  0.12723243715E+03  0.00000000000E+00 0. -1.
         21    1    1    2  504  501 -0.21627489599E+02 -0.65932660328E+01  0.22405378750E+03  0.22519173865E+03  0.00000000000E+00 0.  1.
</event>
<event>
 4    1  0.1571930E+006  0.2502368E+02  0.7546771E-02  0.1468539E+00
         21   -1    0    0  502  501  0.00000000000E+00  0.00000000000E+00  0.13141422173E+01  0.13141422173E+01  0.00000000000E+00 0. -1.
         21   -1    0    0  504  502 -0.00000000000E+00 -0.00000000000E+00 -0.67633201294E+03  0.67633201294E+03  0.00000000000E+00 0. -1.
         21    1    1    2  503  501 -0.24823083128E+02 -0.31621410770E+01 -0.15333464976E+03  0.15536312114E+03  0.00000000000E+00 0. -1.
         21    1    1    2  504  503  0.24823083128E+02  0.31621410770E+01 -0.52168322096E+03  0.52228303402E+03  0.00000000000E+00 0. -1.
</event>
<event>
 4    1  0.1571930E+006  0.2265345E+02  0.7546771E-02  0.1496896E+00
         21   -1    0    0  503  501  0.00000000000E+00  0.00000000000E+00  0.20160907202E+03  0.20160907202E+03  0.00000000000E+00 0.  1.
         21   -1    0    0  501  502 -0.00000000000E+00 -0.00000000000E+00 -0.79701925397E+03  0.79701925397E+03  0.00000000000E+00 0. -1.
         21    1    1    2  503  504 -0.22507572401E+02  0.25667317953E+01  0.20081111228E+03  0.20208483798E+03  0.00000000000E+00 0.  1.
         21    1    1    2  504  502  0.22507572401E+02 -0.25667317953E+01 -0.79622129422E+03  0.79654348802E+03  0.00000000000E+00 0. -1.
</event>
<event>
 4    1  0.1571930E+006  0.2476125E+02  0.7546771E-02  0.1471492E+00
         21   -1    0    0  503  501  0.00000000000E+00  0.00000000000E+00  0.50989900650E+03  0.50989900650E+03  0.00000000000E+00 0. -1.
         21   -1    0    0  504  502 -0.00000000000E+00 -0.00000000000E+00 -0.12026546679E+01  0.12026546679E+01  0.00000000000E+00 0. -1.
         21    1    1    2  503  502 -0.75170612652E-01 -0.24761136826E+02  0.25088113173E+03  0.25210010274E+03  0.00000000000E+00 0. -1.
         21    1    1    2  504  501  0.75170612652E-01  0.24761136826E+02  0.25781522010E+03  0.25900155842E+03  0.00000000000E+00 0. -1.
</event>
<event>
 4    1  0.1571930E+006  0.2650054E+02  0.7546771E-02  0.1452691E+00
         21   -1    0    0  503  501  0.00000000000E+00  0.00000000000E+00  0.42383819652E+02  0.42383819652E+02  0.00000000000E+00 0.  1.
         21   -1    0    0  504  502 -0.00000000000E+00 -0.00000000000E+00 -0.16742457933E+02  0.16742457933E+02  0.00000000000E+00 0.  1.
         21    1    1    2  503  502 -0.13542611000E+02  0.22778856809E+02  0.15825464705E+02  0.30866226905E+02  0.00000000000E+00 0.  1.
         21    1    1    2  504  501  0.13542611000E+02 -0.22778856809E+02  0.98158970135E+01  0.28260050680E+02  0.00000000000E+00 0.  1.
</event>
<event>
 4    1  0.1571930E+006  0.2775363E+02  0.7546771E-02  0.1440181E+00
         21   -1    0    0  504  501  0.00000000000E+00  0.00000000000E+00  0.34551668018E+01  0.34551668018E+01  0.00000000000E+00 0.  1.
         21   -1    0    0  503  502 -0.00000000000E+00 -0.00000000000E+00 -0.96745339429E+03  0.96745339429E+03  0.00000000000E+00 0. -1.
         21    1    1    2  503  501  0.66648938501E+01  0.26941481224E+02 -0.56133911620E+02  0.62620126591E+02  0.00000000000E+00 0.  1.
         21    1    1    2  504  502 -0.66648938501E+01 -0.26941481224E+02 -0.90786431587E+03  0.90828843450E+03  0.00000000000E+00 0. -1.
</event>
<event>
 4    1  0.1571930E+006  0.2843196E+02  0.7546771E-02  0.1433731E+00
         21   -1    0    0  504  501  0.00000000000E+00  0.00000000000E+00  0.73739918048E+01  0.73739918048E+01  0.00000000000E+00 0. -1.
         21   -1    0    0  503  502 -0.00000000000E+00 -0.00000000000E+00 -0.11796864963E+03  0.11796864963E+03  0.00000000000E+00 0. -1.
         21    1    1    2  503  501 -0.19181650826E+02 -0.20986683656E+02 -0.71964189549E+02  0.77377136137E+02  0.00000000000E+00 0. -1.
         21    1    1    2  504  502  0.19181650826E+02  0.20986683656E+02 -0.38630468280E+02  0.47965505301E+02  0.00000000000E+00 0. -1.
</event>
<event>
 4    1  0.1571930E+006  0.2291097E+02  0.7546771E-02  0.1493619E+00
         21   -1    0    0  502  501  0.00000000000E+00  0.00000000000E+00  0.19325459257E+02  0.19325459257E+02  0.00000000000E+00 0. -1.
         21   -1    0    0  504  502 -0.00000000000E+00 -0.00000000000E+00 -0.30184537655E+03  0.30184537655E+03  0.00000000000E+00 0.  1.
         21    1    1    2  503  501  0.63899498535E+01  0.22001842027E+02  0.11929986441E+02  0.25830932778E+02  0.00000000000E+00 0. -1.
         21    1    1    2  504  503 -0.63899498535E+01 -0.22001842027E+02 -0.29444990373E+03  0.29533990303E+03  0.00000000000E+00 0.  1.
</event>
<event>
 4    1  0.1571930E+006  0.2085664E+02  0.7546771E-02  0.1521322E+00
         21   -1    0    0  503  501  0.00000000000E+00  0.00000000000E+00  0.27163059302E+03  0.27163059302E+03  0.00000000000E+00 0. -1.
         21   -1    0    0  504  502 -0.00000000000E+00 -0.00000000000E+00 -0.38294698099E+01  0.38294698099E+01  0.00000000000E+00 0.  1.
         21    1    1    2  503  502  0.18483124279E+02  0.96630063499E+01  0.28844768098E+02  0.35595227510E+02  0.00000000000E+00 0.  1.
         21    1    1    2  504  501 -0.18483124279E+02 -0.96630063499E+01  0.23895635512E+03  0.23986483532E+03  0.00000000000E+00 0. -1.
</event>
<event>
 4    1  0.1571930E+006  0.2401277E+02  0.7546771E-02  0.1480158E+00
         21   -1    0    0  503  501  0.00000000000E+00  0.00000000000E+00  0.95548340385E+02  0.95548340385E+02  0.00000000000E+00 0.  1.
         21   -1    0    0  501  502 -0.00000000000E+00 -0.00000000000E+00 -0.59330593090E+02  0.59330593090E+02  0.00000000000E+00 0. -1.
         21    1    1    2  503  504 -0.69264079413E+01  0.22992128481E+02  0.91504395012E+02  0.94602681809E+02  0.00000000000E+00 0.  1.
         21    1    1    2  504  502  0.69264079413E+01 -0.22992128481E+02 -0.55286647717E+02  0.60276251665E+02  0.00000000000E+00 0. -1.
</event>
<event>
 4    1  0.1571930E+006  0.2054079E+02  0.7546771E-02  0.1525923E+00
         21   -1    0    0  504  501  0.00000000000E+00  0.00000000000E+00  0.22725013636E+01  0.22725013636E+01  0.00000000000E+00 0.  1.
         21   -1    0    0  503  502 -0.00000000000E+00 -0.00000000000E+00 -0.18614046432E+03  0.18614046432E+03  0.00000000000E+00 0.  1.
         21    1    1    2  503  501 -0.20115992325E+02  0.41558302260E+01 -0.87172983785E+02  0.89560332593E+02  0.00000000000E+00 0.  1.
         21    1    1    2  504  502  0.20115992325E+02 -0.41558302260E+01 -0.96694979168E+02  0.98852633088E+02  0.00000000000E+00 0.  1.
</event>
<event>
 4    1  0.1571930E+006  0.2125053E+02  0.7546771E-02  0.1515718E+00
         21   -1    0    0  503  501  0.00000000000E+00  0.00000000000E+00  0.23060657941E+02  0.23060657941E+02  0.00000000000E+00 0. -1.
         21   -1    0    0  504  502 -0.00000000000E+00 -0.00000000000E+00 -0.32075051803E+02  0.32075051803E+02  0.00000000000E+00 0. -1.
         21    1    1    2  503  502 -0.20101550101E+02 -0.68929493175E+01 -0.21711816410E+02  0.30380718204E+02  0.00000000000E+00 0. -1.
         21    1    1    2  504  501  0.20101550101E+02  0.68929493175E+01  0.12697422549E+02  0.24754991540E+02  0.00000000000E+00 0. -1.
</event>
<event>
 4    1  0.1571930E+006  0.3275392E+02  0.7546771E-02  0.1397081E+00
         21   -1    0    0  503  501  0.00000000000E+00  0.00000000000E+00  0.24581336311E+02  0.24581336311E+02  0.00000000000E+00 0.  1.
         21   -1    0    0  504  502 -0.00000000000E+00 -0.00000000000E+00 -0.44287226932E+02  0.44287226932E+02  0.00000000000E+00 0.  1.
         21    1    1    2  503  502 -0.13366150080E+01  0.32726633803E+02 -0.57019339453E+01  0.33246520877E+02  0.00000000000E+00 0.  1.
         21    1    1    2  504  501  0.13366150080E+01 -0.32726633803E+02 -0.14003956676E+02  0.35622042366E+02  0.00000000000E+00 0.  1.
</event>
<event>
 4    1  0.1571930E+006  0.2290208E+02  0.7546771E-02  0.1493731E+00
         21   -1    0    0  504  501  0.00000000000E+00  0.00000000000E+00  0.29031953767E+01  0.29031953767E+01  0.00000000000E+00 0. -1.
         21   -1    0    0  503  502 -0.00000000000E+00 -0.00000000000E+00 -0.23329036785E+03  0.23329036785E+03  0.00000000000E+00 0. -1.
         21    1    1    2  503  501  0.22074977023E+02 -0.60992294280E+01 -0.59103248034E+02  0.63385322736E+02  0.00000000000E+00 0. -1.
         21    1    1    2  504  502 -0.22074977023E+02  0.60992294280E+01 -0.17128392444E+03  0.17280824049E+03  0.00000000000E+00 0. -1.
</event>
<event>
 4    1  0.1571930E+006  0.2101089E+02  0.7546771E-02  0.1519109E+00
         21   -1    0    0  504  501  0.00000000000E+00  0.00000000000E+00  0.78040026249E+03  0.78040026249E+03  0.00000000000E+00 0. -1.
         21   -1    0    0  501  502 -0.00000000000E+00 -0.00000000000E+00 -0.46163460894E+01  0.46163460894E+01  0.00000000000E+00 0.  1.
         21    1    1    2  503  502  0.75886005734E+01 -0.19592621569E+02  0.20218032271E+02  0.29158643788E+02  0.00000000000E+00 0.  1.
         21    1    1    2  504  503 -0.75886005734E+01  0.19592621569E+02  0.75556588413E+03  0.75585796479E+03  0.00000000000E+00 0. -1.
</event>
<event>
 4    1  0.1571930E+006  0.2962243E+02  0.7546771E-02  0.1422906E+00
         21   -1    0    0  504  501  0.00000000000E+00  0.00000000000E+00  0.11797697423E+02  0.11797697423E+02  0.00000000000E+00 0. -1.
         21   -1    0    0  503  502 -0.00000000000E+00 -0.00000000000E+00 -0.37403612686E+03  0.37403612686E+03  0.00000000000E+00 0. -1.
         21    1    1    2  503  501 -0.27216037198E+01 -0.29497142492E+02 -0.35379307302E+03  0.35503102267E+03  0.00000000000E+00 0. -1.
         21    1    1    2  504  502  0.27216037198E+01  0.29497142492E+02 -0.84453564147E+01  0.30802801609E+02  0.00000000000E+00 0. -1.
</event>
<event>
 4    1  0.1571930E+006  0.2224480E+02  0.7546771E-02  0.1502205E+00
         21   -1    0    0  504  501  0.00000000000E+00  0.00000000000E+00  0.16710196565E+02  0.16710196565E+02  0.00000000000E+00 0. -1.
         21   -1    0    0  503  502 -0.00000000000E+00 -0.00000000000E+00 -0.43537519437E+02  0.43537519437E+02  0.00000000000E+00 0.  1.
         21    1    1    2  503  501  0.10066162568E+02 -0.19836917190E+02 -0.30450007518E+02  0.37709864363E+02  0.00000000000E+00 0.  1.
         21    1    1    2  504  502 -0.10066162568E+02  0.19836917190E+02  0.36226846461E+01  0.22537851639E+02  0.00000000000E+00 0. -1.
</event>
<event>
 4    1  0.1571930E+006  0.2311736E+02  0.7546771E-02  0.1491030E+00
         21   -1    0    0  504  501  0.00000000000E+00  0.00000000000E+00  0.19817665382E+01  0.19817665382E+01  0.00000000000E+00 0.  1.
         21   -1    0    0  503  502 -0.00000000000E+00 -0.00000000000E+00 -0.26999003245E+03  0.26999003245E+03  0.00000000000E+00 0. -1.
         21    1    1    2  503  501 -0.17264157381E+02  0.15374041388E+02 -0.13872531955E+03  0.14063828271E+03  0.00000000000E+00 0.  1.
         21    1    1    2  504  502  0.17264157381E+02 -0.15374041388E+02 -0.12928294636E+03  0.13133351628E+03  0.00000000000E+00 0. -1.
</event>
<event>
 4    1  0.1571930E+006  0.4142249E+02  0.7546771E-02  0.1340346E+00
         21   -1    0    0  504  501  0.00000000000E+00  0.00000000000E+00  0.80739864976E+01  0.80739864976E+01  0.00000000000E+00 0. -1.
         21   -1    0    0  503  502 -0.00000000000E+00 -0.00000000000E+00 -0.29162601478E+03  0.29162601478E+03  0.00000000000E+00 0.  1.
         21    1    1    2  503  501  0.40839377507E+02  0.69258768888E+01 -0.63726691675E+02  0.76006011326E+02  0.00000000000E+00 0. -1.
         21    1    1    2  504  502 -0.40839377507E+02 -0.69258768888E+01 -0.21982533661E+03  0.22369398995E+03  0.00000000000E+00 0.  1.
</event>
<event>
 4    1  0.1571930E+006  0.2778324E+02  0.7546771E-02  0.1439895E+00
         21   -1    0    0  502  501  0.00000000000E+00  0.00000000000E+00  0.82797106159E+01  0.82797106159E+01  0.00000000000E+00 0. -1.
         21   -1    0    0  504  502 -0.00000000000E+00 -0.00000000000E+00 -0.11717984607E+04  0.11717984607E+04  0.00000000000E+00 0.  1.
         21    1    1    2  503  501  0.90416900985E+01 -0.26270822235E+02 -0.15678606594E+02  0.31901833261E+02  0.00000000000E+00 0. -1.
         21    1    1    2  504  503 -0.90416900985E+01  0.26270822235E+02 -0.11478401435E+04  0.11481763380E+04  0.00000000000E+00 0.  1.
</event>
<event>
 4    1  0.1571930E+006  0.2734525E+02  0.7546771E-02  0.1444171E+00
         21   -1    0    0  502  501  0.00000000000E+00  0.00000000000E+00  0.53830734107E+01  0.53830734107E+01  0.00000000000E+00 0. -1.
         21   -1    0    0  503  502 -0.00000000000E+00 -0.00000000000E+00 -0.16946987644E+03  0.16946987644E+03  0.00000000000E+00 0.  1.
         21    1    1    2  503  504 -0.54855231623E+01  0.26789396116E+02 -0.11916892048E+03  0.12226608000E+03  0.00000000000E+00 0.  1.
         21    1    1    2  504  501  0.54855231623E+01 -0.26789396116E+02 -0.44917882544E+02  0.52586869853E+02  0.00000000000E+00 0. -1.
</event>
<event>
 4    1  0.1571930E+006  0.3388271E+02  0.7546771E-02  0.1388593E+00
         21   -1    0    0  502  501  0.00000000000E+00  0.00000000000E+00  0.30819689974E+03  0.30819689974E+03  0.00000000000E+00 0.  1.
         21   -1    0    0  504  502 -0.00000000000E+00 -0.00000000000E+00 -0.11488422183E+02  0.11488422183E+02  0.00000000000E+00 0.  1.
         21    1    1    2  503  501 -0.32789573887E+02  0.85370918168E+01  0.27975221862E+03  0.28179663219E+03  0.00000000000E+00 0.  1.
         21    1    1    2  504  503  0.32789573887E+02 -0.85370918168E+01  0.16956258940E+02  0.37888689732E+02  0.00000000000E+00 0.  1.
</event>
<event>
 4    1  0.1571930E+006  0.2677156E+02  0.7546771E-02  0.1449916E+00
         21   -1    0    0  504  501  0.00000000000E+00  0.00000000000E+00  0.47780553188E+03  0.47780553188E+03  0.00000000000E+00 0.  1.
         21   -1    0    0  501  502 -0.00000000000E+00 -0.00000000000E+00 -0.61251845879E+01  0.61251845879E+01  0.00000000000E+00 0.  1.
         21    1    1    2  503  502  0.24085235751E+02 -0.11688362432E+02  0.25579843634E+02  0.37027622093E+02  0.00000000000E+00 0.  1.
         21    1    1    2  504  503 -0.24085235751E+02  0.11688362432E+02  0.44610050366E+03  0.44690309438E+03  0.00000000000E+00 0.  1.
</event>
<event>
 4    1  0.1571930E+006  0.2649323E+02  0.7546771E-02  0.1452766E+00
         21   -1    0    0  504  501  0.00000000000E+00  0.00000000000E+00  0.15838610537E+03  0.15838610537E+03  0.00000000000E+00 0.  1.
         21   -1    0    0  503  502 -0.00000000000E+00 -0.00000000000E+00 -0.71076416333E+03  0.71076416333E+03  0.00000000000E+00 0.  1.
         21    1    1    2  503  501  0.96419252698E+01  0.24676396933E+02  0.15702922781E+03  0.15924845267E+03  0.00000000000E+00 0.  1.
         21    1    1    2  504  502 -0.96419252698E+01 -0.24676396933E+02 -0.70940728578E+03  0.70990181603E+03  0.00000000000E+00 0.  1.
</event>
<event>
 4    1  0.1571930E+006  0.2123596E+02  0.7546771E-02  0.1515922E+00
         21   -1    0    0  502  501  0.00000000000E+00  0.00000000000E+00  0.25934835675E+03  0.25934835675E+03  0.00000000000E+00 0. -1.
         21   -1    0    0  504  502 -0.00000000000E+00 -0.00000000000E+00 -0.21268289271E+02  0.21268289271E+02  0.00000000000E+00 0.  1.
         21    1    1    2  503  501 -0.17775001590E+02 -0.11619615231E+02  0.25349043933E+03  0.25437839722E+03  0.00000000000E+00 0. -1.
         21    1    1    2  504  503  0.17775001590E+02  0.11619615231E+02 -0.15410371851E+02  0.26238248803E+02  0.00000000000E+00 0.  1.
</event>
<event>
 4    1  0.1571930E+006  0.2358606E+02  0.7546771E-02  0.1485267E+00
         21   -1    0    0  503  501  0.00000000000E+00  0.00000000000E+00  0.68527844623E+02  0.68527844623E+02  0.00000000000E+00 0.  1.
         21   -1    0    0  501  502 -0.00000000000E+00 -0.00000000000E+00 -0.14719264472E+02  0.14719264472E+02  0.00000000000E+00 0.  1.
         21    1    1    2  503  504  0.21608797758E+01 -0.23486864411E+02  0.54779167164E+02  0.59641087821E+02  0.00000000000E+00 0.  1.
         21    1    1    2  504  502 -0.21608797758E+01  0.23486864411E+02 -0.97058701282E+00  0.23606021274E+02  0.00000000000E+00 0.  1.
</event>
<event>
 4    1  0.1571930E+006  0.2289332E+02  0.7546771E-02  0.1493842E+00
         21   -1    0    0  504  501  0.00000000000E+00  0.00000000000E+00  0.10158871067E+03  0.10158871067E+03  0.00000000000E+00 0.  1.
         21   -1    0    0  503  502 -0.00000000000E+00 -0.00000000000E+00 -0.58158527316E+01  0.58158527316E+01  0.00000000000E+00 0.  1.
         21    1    1    2  503  501 -0.22749654962E+02  0.25607274640E+01  0.65932975816E+02  0.69794422600E+02  0.00000000000E+00 0.  1.
         21    1    1    2  504  502  0.22749654962E+02 -0.25607274640E+01  0.29839882117E+02  0.37610140797E+02  0.00000000000E+00 0.  1.
</event>
<event>
 4    1  0.1571930E+006  0.2606188E+02  0.7546771E-02  0.1457266E+00
         21   -1    0    0  503  501  0.00000000000E+00  0.00000000000E+00  0.13752504951E+01  0.13752504951E+01  0.00000000000E+00 0.  1.
         21   -1    0    0  504  502 -0.00000000000E+00 -0.00000000000E+00 -0.65958582516E+03  0.65958582516E+03  0.00000000000E+00 0. -1.
         21    1    1    2  503  502  0.24539870873E+02 -0.87758958042E+01 -0.16346467325E+03  0.16552921498E+03  0.00000000000E+00 0.  1.
         21    1    1    2  504  501 -0.24539870873E+02  0.87758958042E+01 -0.49474590141E+03  0.49543186067E+03  0.00000000000E+00 0. -1.
</event>
<event>
 4    1  0.1571930E+006  0.2678827E+02  0.7546771E-02  0.1449747E+00
         21   -1    0    0  503  501  0.00000000000E+00  0.00000000000E+00  0.18646107146E+02  0.18646107146E+02  0.00000000000E+00 0. -1.
         21   -1    0    0  501  502 -0.00000000000E+00 -0.00000000000E+00 -0.65331060982E+02  0.65331060982E+02  0.00000000000E+00 0. -1.
         21    1    1    2  503  504 -0.20731396984E+02 -0.16965270879E+02  0.35731688905E+01  0.27025520769E+02  0.00000000000E+00 0. -1.
         21    1    1    2  504  502  0.20731396984E+02  0.16965270879E+02 -0.50258122726E+02  0.56951647359E+02  0.00000000000E+00 0. -1.
</event>
<event>
 4    1  0.1571930E+006  0.2122706E+02  0.7546771E-02  0.1516048E+00
         21   -1    0    0  503  501  0.00000000000E+00  0.00000000000E+00  0.70766366075E+03  0.70766366075E+03  0.00000000000E+00 0.  1.
         21   -1    0    0  504  502 -0.00000000000E+00 -0.00000000000E+00 -0.65037323275E+00  0.65037323275E+00  0.00000000000E+00 0.  1.
         21    1    1    2  503  502  0.19833067913E+02 -0.75655329241E+01  0.40480889091E+03  0.40536505280E+03  0.00000000000E+00 0.  1.
         21    1    1    2  504  501 -0.19833067913E+02  0.75655329241E+01  0.30220439661E+03  0.30294898118E+03  0.00000000000E+00 0.  1.
</event>
<event>
 4    1  0.1571930E+006  0.2498170E+02  0.7546771E-02  0.1469008E+00
         21   -1    0    0  504  501  0.00000000000E+00  0.00000000000E+00  0.13269552516E+03  0.13269552516E+03  0.00000000000E+00 0.  1.
         21   -1    0    0  503  502 -0.00000000000E+00 -0.00000000000E+00 -0.50240077689E+01  0.50240077689E+01  0.00000000000E+00 0. -1.
         21    1    1    2  503  501  0.83177482834E+01  0.23556321341E+02  0.46433501356E+02  0.52727177620E+02  0.00000000000E+00 0. -1.
         21    1    1    2  504  502 -0.83177482834E+01 -0.23556321341E+02  0.81238016034E+02  0.84992355307E+02  0.00000000000E+00 0.  1.
</event>
<event>
 4    1  0.1571930E+006  0.2826406E+02  0.7546771E-02  0.1435308E+00
         21   -1    0    0  504  501  0.00000000000E+00  0.00000000000E+00  0.34391162951E+03  0.34391162951E+03  0.00000000000E+00 0. -1.
         21   -1    0    0  503  502 -0.00000000000E+00 -0.00000000000E+00 -0.49514511475E+01  0.49514511475E+01  0.00000000000E+00 0.  1.
         21    1    1    2  503  501  0.45669357052E+01 -0.27892651741E+02  0.42387366914E+02  0.50946499358E+02  0.00000000000E+00 0.  1.
         21    1    1    2  504  502 -0.45669357052E+01  0.27892651741E+02  0.29657281145E+03  0.29791658130E+03  0.00000000000E+00 0. -1.
</event>
<event>
 4    1  0.1571930E+006  0.2199891E+02  0.7546771E-02  0.1505467E+00
         21   -1    0    0  504  501  0.00000000000E+00  0.00000000000E+00  0.15697286068E+02  0.15697286068E+02  0.00000000000E+00 0.  1.
         21   -1    0    0  503  502 -0.00000000000E+00 -0.00000000000E+00 -0.44034726604E+02  0.44034726604E+02  0.00000000000E+00 0. -1.
         21    1    1    2  503  501  0.21979724519E+02 -0.91855076825E+00 -0.30523296219E+02  0.37624774252E+02  0.00000000000E+00 0. -1.
         21    1    1    2  504  502 -0.21979724519E+02  0.91855076825E+00  0.21858556825E+01  0.22107238419E+02  0.00000000000E+00 0.  1.
</event>
<event>
 4    1  0.1571930E+006  0.3476828E+02  0.7546771E-02  0.1382200E+00
         21   -1    0    0  504  501  0.00000000000E+00  0.00000000000E+00  0.16421914549E+01  0.16421914549E+01  0.00000000000E+00 0. -1.
         21   -1    0    0  503  502 -0.00000000000E+00 -0.00000000000E+00 -0.75541765165E+03  0.75541765165E+03  0.00000000000E+00 0. -1.
         21    1    1    2  503  501 -0.40624464576E+01  0.34530127690E+02 -0.31637122219E+03  0.31827595482E+03  0.00000000000E+00 0. -1.
         21    1    1    2  504  502  0.40624464576E+01 -0.34530127690E+02 -0.43740423801E+03  0.43878388829E+03  0.00000000000E+00 0. -1.
</event>
<event>
 4    1  0.1571930E+006  0.2224948E+02  0.7546771E-02  0.1502144E+00
         21   -1    0    0  502  501  0.00000000000E+00  0.00000000000E+00  0.24624598140E+03  0.24624598140E+03  0.00000000000E+00 0.  1.
         21   -1    0    0  504  502 -0.00000000000E+00 -0.00000000000E+00 -0.14468827657E+03  0.14468827657E+03  0.00000000000E+00 0.  1.
         21    1    1    2  503  501  0.34595626020E+01 -0.21978868461E+02  0.24488329055E+03  0.24589197877E+03  0.00000000000E+00 0.  1.
         21    1    1    2  504  503 -0.34595626020E+01  0.21978868461E+02 -0.14332558572E+03  0.14504227920E+03  0.00000000000E+00 0.  1.
</event>
<event>
 4    1  0.1571930E+006  0.2132103E+02  0.7546771E-02  0.1514730E+00
         21   -1    0    0  504  501  0.00000000000E+00  0.00000000000E+00  0.34145622847E+02  0.34145622847E+02  0.00000000000E+00 0.  1.
         21   -1    0    0  503  502 -0.00000000000E+00 -0.00000000000E+00 -0.30774519516E+02  0.30774519516E+02  0.00000000000E+00 0. -1.
         21    1    1    2  503  501 -0.10798879318E+02 -0.18383972147E+02 -0.22765234249E+02  0.31190417068E+02  0.00000000000E+00 0. -1.
         21    1    1    2  504  502  0.10798879318E+02  0.18383972147E+02  0.26136337580E+02  0.33729725296E+02  0.00000000000E+00 0.  1.
</event>
<event>
 4    1  0.1571930E+006  0.2154422E+02  0.7546771E-02  0.1511635E+00
         21   -1    0    0  503  501  0.00000000000E+00  0.00000000000E+00  0.51049589158E+03  0.51049589158E+03  0.00000000000E+00 0.  1.
         21   -1    0    0  504  502 -0.00000000000E+00 -0.00000000000E+00 -0.53851325044E+02  0.53851325044E+02  0.00000000000E+00 0. -1.
         21    1    1    2  503  502 -0.17558637575E+02  0.12483893168E+02 -0.51459088635E+02  0.55787015920E+02  0.00000000000E+00 0. -1.
         21    1    1    2  504  501  0.17558637575E+02 -0.12483893168E+02  0.50810365517E+03  0.50856020070E+03  0.00000000000E+00 0.  1.
</event>
<event>
 4    1  0.1571930E+006  0.2335049E+02  0.7546771E-02  0.1488143E+00
         21   -1    0    0  503  501  0.00000000000E+00  0.00000000000E+00  0.29549893086E+02  0.29549893086E+02  0.00000000000E+00 0.  1.
         21   -1    0    0  504  502 -0.00000000000E+00 -0.00000000000E+00 -0.23455411825E+03  0.23455411825E+03  0.00000000000E+00 0.  1.
         21    1    1    2  503  502  0.76006941892E+01  0.22078827059E+02 -0.22925367008E+03  0.23043977608E+03  0.00000000000E+00 0.  1.
         21    1    1    2  504  501 -0.76006941892E+01 -0.22078827059E+02  0.24249444916E+02  0.33664235253E+02  0.00000000000E+00 0.  1.
</event>
<event>
 4    1  0.1571930E+006  0.4422047E+02  0.7546771E-02  0.1325384E+00
         21   -1    0    0  503  501  0.00000000000E+00  0.00000000000E+00  0.21852349497E+03  0.21852349497E+03  0.00000000000E+00 0.  1.
         21   -1    0    0  504  502 -0.00000000000E+00 -0.00000000000E+00 -0.30842675296E+02  0.30842675296E+02  0.00000000000E+00 0.  1.
         21    1    1    2  503  502 -0.49003545371E+01  0.43948110142E+02  0.19889043505E+03  0.20374703682E+03  0.00000000000E+00 0.  1.
         21    1    1    2  504  501  0.49003545371E+01 -0.43948110142E+02 -0.11209615372E+02  0.45619133447E+02  0.00000000000E+00 0.  1.
</event>
<event>
 4    1  0.1571930E+006  0.2947319E+02  0.7546771E-02  0.1424230E+00
         21   -1    0    0  503  501  0.00000000000E+00  0.00000000000E+00  0.62672790394E+02  0.62672790394E+02  0.00000000000E+00 0. -1.
         21   -1    0    0  504  502 -0.00000000000E+00 -0.00000000000E+00 -0.58938791385E+02  0.58938791385E+02  0.00000000000E+00 0.  1.
         21    1    1    2  503  502 -0.25220596115E+02 -0.15250913702E+02  0.55044585521E+02  0.62438571671E+02  0.00000000000E+00 0. -1.
         21    1    1    2  504  501  0.25220596115E+02  0.15250913702E+02 -0.51310586512E+02  0.59173010109E+02  0.00000000000E+00 0.  1.
</event>
<event>
 4    1  0.1571930E+006  0.2050097E+02  0.7546771E-02  0.1526510E+00
         21   -1    0    0  503  501  0.00000000000E+00  0.00000000000E+00  0.24787822648E+03  0.24787822648E+03  0.00000000000E+00 0. -1.
         21   -1    0    0  501  502 -0.00000000000E+00 -0.00000000000E+00 -0.19798730671E+01  0.19798730671E+01  0.00000000000E+00 0. -1.
         21    1    1    2  503  504  0.86203376326E+01  0.18600525550E+02  0.17029168772E+03  0.17152127763E+03  0.00000000000E+00 0. -1.
         21    1    1    2  504  502 -0.86203376326E+01 -0.18600525550E+02  0.75606665689E+02  0.78336821918E+02  0.00000000000E+00 0. -1.
</event>
<event>
 4    1  0.1571930E+006  0.2613950E+02  0.7546771E-02  0.1456449E+00
         21   -1    0    0  503  501  0.00000000000E+00  0.00000000000E+00  0.11790924688E+03  0.11790924688E+03  0.00000000000E+00 0. -1.
         21   -1    0    0  504  502 -0.00000000000E+00 -0.00000000000E+00 -0.45317896213E+02  0.45317896213E+02  0.00000000000E+00 0. -1.
         21    1    1    2  503  502 -0.24237888143E+02  0.97876576797E+01  0.11251276992E+03  0.11550929339E+03  0.00000000000E+00 0. -1.
         21    1    1    2  504  501  0.24237888143E+02 -0.97876576797E+01 -0.39921419257E+02  0.47717849699E+02  0.00000000000E+00 0. -1.
</event>
<event>
 4    1  0.1571930E+006  0.2854341E+02  0.7546771E-02  0.1432691E+00
         21   -1    0    0  503  501  0.00000000000E+00  0.00000000000E+00  0.57615842103E+03  0.57615842103E+03  0.00000000000E+00 0.  1.
         21   -1    0    0  504  502 -0.00000000000E+00 -0.00000000000E+00 -0.47103045926E+01  0.47103045926E+01  0.00000000000E+00 0.  1.
         21    1    1    2  503  502  0.24867940430E+02 -0.14011135024E+02  0.52868294264E+03  0.52945290650E+03  0.00000000000E+00 0.  1.
         21    1    1    2  504  501 -0.24867940430E+02  0.14011135024E+02  0.42765173801E+02  0.51415819124E+02  0.00000000000E+00 0.  1.
</event>
<event>
 4    1  0.1571930E+006  0.2726956E+02  0.7546771E-02  0.1444919E+00
         21   -1    0    0  503  501  0.00000000000E+00  0.00000000000E+00  0.88816561763E+02  0.88816561763E+02  0.00000000000E+00 0.  1.
         21   -1    0    0  501  502 -0.00000000000E+00 -0.00000000000E+00 -0.11860291061E+03  0.11860291061E+03  0.00000000000E+00 0.  1.
         21    1    1    2  503  504  0.16111395787E+02  0.22001183325E+02  0.85088934200E+02  0.89351865482E+02  0.00000000000E+00 0.  1.
         21    1    1    2  504  502 -0.16111395787E+02 -0.22001183325E+02 -0.11487528304E+03  0.11806760689E+03  0.00000000000E+00 0.  1.
</event>
<event>
 4    1  0.1571930E+006  0.2598298E+02  0.7546771E-02  0.1458101E+00
         21   -1    0    0  503  501  0.00000000000E+00  0.00000000000E+00  0.14531141705E+02  0.14531141705E+02  0.00000000000E+00 0. -1.
         21   -1    0    0  504  502 -0.00000000000E+00 -0.00000000000E+00 -0.26883936186E+03  0.26883936186E+03  0.00000000000E+00 0.  1.
         21    1    1    2  503  502  0.18187768305E+02  0.18555867959E+02 -0.25601631907E+03  0.25733144149E+03  0.00000000000E+00 0.  1.
         21    1    1    2  504  501 -0.18187768305E+02 -0.18555867959E+02  0.17080989140E+01  0.26039062071E+02  0.00000000000E+00 0. -1.
</event>
<event>
 4    1  0.1571930E+006  0.2340950E+02  0.7546771E-02  0.1487419E+00
         21   -1    0    0  503  501  0.00000000000E+00  0.00000000000E+00  0.21856556563E+03  0.21856556563E+03  0.00000000000E+00 0. -1.
         21   -1    0    0  504  502 -0.00000000000E+00 -0.00000000000E+00 -0.25211588347E+01  0.25211588347E+01  0.00000000000E+00 0. -1.
         21    1    1    2  503  502  0.10059272086E+02  0.21138017471E+02  0.99819954072E+02  0.10252818134E+03  0.00000000000E+00 0. -1.
         21    1    1    2  504  501 -0.10059272086E+02 -0.21138017471E+02  0.11622445273E+03  0.11855854313E+03  0.00000000000E+00 0. -1.
</event>
<event>
 4    1  0.1571930E+006  0.6399143E+02  0.7546771E-02  0.1246842E+00
         21   -1    0    0  502  501  0.00000000000E+00  0.00000000000E+00  0.46048247550E+02  0.46048247550E+02  0.00000000000E+00 0. -1.
         21   -1    0    0  503  502 -0.00000000000E+00 -0.00000000000E+00 -0.10800581783E+03  0.10800581783E+03  0.00000000000E+00 0. -1.
         21    1    1    2  503  504 -0.36922741633E+02  0.52264842057E+02 -0.63353259423E+02  0.90047421087E+02  0.00000000000E+00 0. -1.
         21    1    1    2  504  501  0.36922741633E+02 -0.52264842057E+02  0.13956891466E+01  0.64006644289E+02  0.00000000000E+00 0. -1.
</event>
<event>
 4    1  0.1571930E+006  0.2028924E+02  0.7546771E-02  0.1529659E+00
         21   -1    0    0  502  501  0.00000000000E+00  0.00000000000E+00  0.57089040440E+03  0.57089040440E+03  0.00000000000E+00 0.  1.
         21   -1    0    0  504  502 -0.00000000000E+00 -0.00000000000E+00 -0.34977645040E+03  0.34977645040E+03  0.00000000000E+00 0. -1.
         21    1    1    2  503  501 -0.17750415582E+02 -0.98273165082E+01  0.57041566539E+03  0.57077638767E+03  0.00000000000E+00 0.  1.
         21    1    1    2  504  503  0.17750415582E+02  0.98273165082E+01 -0.34930171139E+03  0.34989046712E+03  0.00000000000E+00 0. -1.
</event>
<event>
 4    1  0.1571930E+006  0.2141506E+02  0.7546771E-02  0.1513421E+00
         21   -1    0    0  504  501  0.00000000000E+00  0.00000000000E+00  0.12483250404E+02  0.12483250404E+02  0.00000000000E+00 0. -1.
         21   -1    0    0  503  502 -0.00000000000E+00 -0.00000000000E+00 -0.76681181279E+02  0.76681181279E+02  0.00000000000E+00 0. -1.
         21    1    1    2  503  501  0.18826624439E+00 -0.21414232622E+02 -0.64275605385E+02  0.67749230627E+02  0.00000000000E+00 0. -1.
         21    1    1    2  504  502 -0.18826624439E+00  0.21414232622E+02  0.77674509437E-01  0.21415201057E+02  0.00000000000E+00 0. -1.
</event>
<event>
 4    1  0.1571930E+006  0.2500102E+02  0.7546771E-02  0.1468792E+00
         21   -1    0    0  503  501  0.00000000000E+00  0.00000000000E+00  0.30494923101E+02  0.30494923101E+02  0.00000000000E+00 0.  1.
         21   -1    0    0  501  502 -0.00000000000E+00 -0.00000000000E+00 -0.16434451326E+04  0.16434451326E+04  0.00000000000E+00 0. -1.
         21    1    1    2  503  504 -0.23176319820E+02 -0.93759835709E+01  0.25259244030E+02  0.35539840705E+02  0.00000000000E+00 0.  1.
         21    1    1    2  504  502  0.23176319820E+02  0.93759835709E+01 -0.16382094535E+04  0.16384002150E+04  0.00000000000E+00 0. -1.
</event>
<event>
 4    1  0.1571930E+006  0.3557269E+02  0.7546771E-02  0.1376581E+00
         21   -1    0    0  502  501  0.00000000000E+00  0.00000000000E+00  0.10003954647E+02  0.10003954647E+02  0.00000000000E+00 0.  1.
         21   -1    0    0  503  502 -0.00000000000E+00 -0.00000000000E+00 -0.54500687139E+03  0.54500687139E+03  0.00000000000E+00 0. -1.
         21    1    1    2  503  504  0.35465731827E+02  0.27565306184E+01 -0.51068047947E+03  0.51191793161E+03  0.00000000000E+00 0. -1.
         21    1    1    2  504  501 -0.35465731827E+02 -0.27565306184E+01 -0.24322437277E+02  0.43092894428E+02  0.00000000000E+00 0.  1.
</event>
<event>
 4    1  0.1571930E+006  0.2338682E+02  0.7546771E-02  0.1487697E+00
         21   -1    0    0  502  501  0.00000000000E+00  0.00000000000E+00  0.14900196624E+01  0.14900196624E+01  0.00000000000E+00 0. -1.
         21   -1    0    0  503  502 -0.00000000000E+00 -0.00000000000E+00 -0.36820002612E+03  0.36820002612E+03  0.00000000000E+00 0. -1.
         21    1    1    2  503  504  0.59737161054E+01 -0.22611020604E+02 -0.19358909975E+03  0.19499662325E+03  0.00000000000E+00 0. -1.
         21    1    1    2  504  501 -0.59737161054E+01  0.22611020604E+02 -0.17312090671E+03  0.17469342254E+03  0.00000000000E+00 0. -1.
</event>
<event>
 4    1  0.1571930E+006  0.2580122E+02  0.7546771E-02  0.1460036E+00
         21   -1    0    0  504  501  0.00000000000E+00  0.00000000000E+00  0.34051560951E+03  0.34051560951E+03  0.00000000000E+00 0.  1.
         21   -1    0    0  503  502 -0.00000000000E+00 -0.00000000000E+00 -0.38495763172E+01  0.38495763172E+01  0.00000000000E+00 0. -1.
         21    1    1    2  503  501  0.22089470989E+02  0.13332603695E+02  0.47540368979E+02  0.54090569718E+02  0.00000000000E+00 0. -1.
         21    1    1    2  504  502 -0.22089470989E+02 -0.13332603695E+02  0.28912566422E+03  0.29027461611E+03  0.00000000000E+00 0.  1.
</event>
<event>
 4    1  0.1571930E+006  0.2642230E+02  0.7546771E-02  0.1453499E+00
         21   -1    0    0  502  501  0.00000000000E+00  0.00000000000E+00  0.32287846874E+01  0.32287846874E+01  0.00000000000E+00 0. -1.
         21   -1    0    0  503  502 -0.00000000000E+00 -0.00000000000E+00 -0.11997036597E+04  0.11997036597E+04  0.00000000000E+00 0. -1.
         21    1    1    2  503  504 -0.18194518555E+02  0.19159790996E+02 -0.11428117137E+04  0.11431171204E+04  0.00000000000E+00 0. -1.
         21    1    1    2  504  501  0.18194518555E+02 -0.19159790996E+02 -0.53663161378E+02  0.59815324002E+02  0.00000000000E+00 0. -1.
</event>
<event>
 4    1  0.1571930E+006  0.2639869E+02  0.7546771E-02  0.1453744E+00
         21   -1    0    0  504  501  0.00000000000E+00  0.00000000000E+00  0.60947704441E+01  0.60947704441E+01  0.00000000000E+00 0.  1.
         21   -1    0    0  503  502 -0.00000000000E+00 -0.00000000000E+00 -0.31891190422E+03  0.31891190422E+03  0.00000000000E+00 0.  1.
         21    1    1    2  503  501  0.14697326414E+02 -0.21928967105E+02 -0.26257626799E+02  0.37233774548E+02  0.00000000000E+00 0.  1.
         21    1    1    2  504  502 -0.14697326414E+02  0.21928967105E+02 -0.28655950698E+03  0.28777290012E+03  0.00000000000E+00 0.  1.
</event>
<event>
 4    1  0.1571930E+006  0.2412920E+02  0.7546771E-02  0.1478785E+00
         21   -1    0    0  504  501  0.00000000000E+00  0.00000000000E+00  0.10126892567E+02  0.10126892567E+02  0.00000000000E+00 0. -1.
         21   -1    0    0  503  502 -0.00000000000E+00 -0.00000000000E+00 -0.58521324796E+02  0.58521324796E+02  0.00000000000E+00 0. -1.
         21    1    1    2  503  501 -0.23579511129E+02 -0.51210246334E+01 -0.19645686773E+02  0.31115450297E+02  0.00000000000E+00 0. -1.
         21    1    1    2  504  502  0.23579511129E+02  0.51210246334E+01 -0.28748745456E+02  0.37532767067E+02  0.00000000000E+00 0. -1.
</event>
<event>
 4    1  0.1571930E+006  0.2908271E+02  0.7546771E-02  0.1427739E+00
         21   -1    0    0  503  501  0.00000000000E+00  0.00000000000E+00  0.37843591442E+03  0.37843591442E+03  0.00000000000E+00 0. -1.
         21   -1    0    0  504  502 -0.00000000000E+00 -0.00000000000E+00 -0.42822088362E+02  0.42822088362E+02  0.00000000000E+00 0.  1.
         21    1    1    2  503  502 -0.29082555744E+02  0.93375984149E-01  0.37286561440E+03  0.37399808845E+03  0.00000000000E+00 0. -1.
         21    1    1    2  504  501  0.29082555744E+02 -0.93375984149E-01 -0.37251788340E+02  0.47259914327E+02  0.00000000000E+00 0.  1.
</event>
<event>
 4    1  0.1571930E+006  0.2164857E+02  0.7546771E-02  0.1510203E+00
         21   -1    0    0  503  501  0.00000000000E+00  0.00000000000E+00  0.54339913354E+03  0.54339913354E+03  0.00000000000E+00 0. -1.
         21   -1    0    0  504  502 -0.00000000000E+00 -0.00000000000E+00 -0.19246751681E+01  0.19246751681E+01  0.00000000000E+00 0.  1.
         21    1    1    2  503  502  0.16554788862E+02 -0.13949890661E+02  0.47329635578E+03  0.47379119967E+03  0.00000000000E+00 0. -1.
         21    1    1    2  504  501 -0.16554788862E+02  0.13949890661E+02  0.68178102587E+02  0.71532609040E+02  0.00000000000E+00 0.  1.
</event>
<event>
 4    1  0.1571930E+006  0.2374457E+02  0.7546771E-02  0.1483354E+00
         21   -1    0    0  504  501  0.00000000000E+00  0.00000000000E+00  0.74512707370E+01  0.74512707370E+01  0.00000000000E+00 0.  1.
         21   -1    0    0  503  502 -0.00000000000E+00 -0.00000000000E+00 -0.96988140527E+02  0.96988140527E+02  0.00000000000E+00 0.  1.
         21    1    1    2  503  501  0.47120278785E+01  0.23272330633E+02 -0.20283724298E+02  0.31228737586E+02  0.00000000000E+00 0.  1.
         21    1    1    2  504  502 -0.47120278785E+01 -0.23272330633E+02 -0.69253145492E+02  0.73210673678E+02  0.00000000000E+00 0.  1.
</event>
<event>
 4    1  0.1571930E+006  0.2411086E+02  0.7546771E-02  0.1479001E+00
         21   -1    0    0  503  501  0.00000000000E+00  0.00000000000E+00  0.19554259445E+02  0.19554259445E+02  0.00000000000E+00 0. -1.
         21   -1    0    0  504  502 -0.00000000000E+00 -0.00000000000E+00 -0.37912595969E+03  0.37912595969E+03  0.00000000000E+00 0. -1.
         21    1    1    2  503  502 -0.21368651225E+02  0.11167554080E+02  0.11579072923E+02  0.26747120388E+02  0.00000000000E+00 0. -1.
         21    1    1    2  504  501  0.21368651225E+02 -0.11167554080E+02 -0.37115077317E+03  0.37193309875E+03  0.00000000000E+00 0. -1.
</event>
<event>
 4    1  0.1571930E+006  0.3928573E+02  0.7546771E-02  0.1352723E+00
         21   -1    0    0  502  501  0.00000000000E+00  0.00000000000E+00  0.10469105959E+03  0.10469105959E+03  0.00000000000E+00 0.  1.
         21   -1    0    0  504  502 -0.00000000000E+00 -0.00000000000E+00 -0.28875304899E+02  0.28875304899E+02  0.00000000000E+00 0.  1.
         21    1    1    2  503  501 -0.29178980982E+02  0.26305053928E+02  0.84630127261E+02  0.93303950792E+02  0.00000000000E+00 0.  1.
         21    1    1    2  504  503  0.29178980982E+02 -0.26305053928E+02 -0.88143725650E+01  0.40262413701E+02  0.00000000000E+00 0.  1.
</event>
<event>
 4    1  0.1571930E+006  0.2079327E+02  0.7546771E-02  0.1522237E+00
         21   -1    0    0  503  501  0.00000000000E+00  0.00000000000E+00  0.16749682263E+03  0.16749682263E+03  0.00000000000E+00 0.  1.
         21   -1    0    0  504  502 -0.00000000000E+00 -0.00000000000E+00 -0.54278750507E+01  0.54278750507E+01  0.00000000000E+00 0. -1.
         21    1    1    2  503  502  0.18717028574E+02 -0.90572039425E+01  0.14364872276E+03  0.14514584269E+03  0.00000000000E+00 0.  1.
         21    1    1    2  504  501 -0.18717028574E+02  0.90572039425E+01  0.18420224828E+02  0.27778854991E+02  0.00000000000E+00 0. -1.
</event>
<event>
 4    1  0.1571930E+006  0.2962919E+02  0.7546771E-02  0.1422847E+00
         21   -1    0    0  503  501  0.00000000000E+00  0.00000000000E+00  0.25507012796E+03  0.25507012796E+03  0.00000000000E+00 0.  1.
         21   -1    0    0  504  502 -0.00000000000E+00 -0.00000000000E+00 -0.38912088126E+01  0.38912088126E+01  0.00000000000E+00 0.  1.
         21    1    1    2  503  502 -0.77887404981E+00  0.29618949198E+02  0.81584120404E+02  0.86797796622E+02  0.00000000000E+00 0.  1.
         21    1    1    2  504  501  0.77887404981E+00 -0.29618949198E+02  0.16959479875E+03  0.17216354015E+03  0.00000000000E+00 0.  1.
</event>
<event>
 4    1  0.1571930E+006  0.2287230E+02  0.7546771E-02  0.1494108E+00
         21   -1    0    0  502  501  0.00000000000E+00  0.00000000000E+00  0.25263222903E+03  0.25263222903E+03  0.00000000000E+00 0.  1.
         21   -1    0    0  503  502 -0.00000000000E+00 -0.00000000000E+00 -0.83972758497E+01  0.83972758497E+01  0.00000000000E+00 0. -1.
         21    1    1    2  503  504 -0.22675313027E+02  0.29954068080E+01  0.88324577800E+01  0.24518454137E+02  0.00000000000E+00 0. -1.
         21    1    1    2  504  501  0.22675313027E+02 -0.29954068080E+01  0.23540249541E+03  0.23651105075E+03  0.00000000000E+00 0.  1.
</event>
<event>
 4    1  0.1571930E+006  0.2256487E+02  0.7546771E-02  0.1498036E+00
         21   -1    0    0  504  501  0.00000000000E+00  0.00000000000E+00  0.14339888226E+01  0.14339888226E+01  0.00000000000E+00 0. -1.
         21   -1    0    0  503  502 -0.00000000000E+00 -0.00000000000E+00 -0.35852274709E+03  0.35852274709E+03  0.00000000000E+00 0. -1.
         21    1    1    2  503  501 -0.20871594721E+02 -0.85761162497E+01 -0.16089437522E+03  0.16246899154E+03  0.00000000000E+00 0. -1.
         21    1    1    2  504  502  0.20871594721E+02  0.85761162497E+01 -0.19619438305E+03  0.19748774437E+03  0.00000000000E+00 0. -1.
</event>
<event>
 4    1  0.1571930E+006  0.2118981E+02  0.7546771E-02  0.1516572E+00
         21   -1    0    0  504  501  0.00000000000E+00  0.00000000000E+00  0.10016161812E+03  0.10016161812E+03  0.00000000000E+00 0.  1.
         21   -1    0    0  503  502 -0.00000000000E+00 -0.00000000000E+00 -0.55038064503E+01  0.55038064503E+01  0.00000000000E+00 0.  1.
         21    1    1    2  503  501 -0.80933997173E+01 -0.19583282199E+02  0.24573844205E+02  0.32448141390E+02  0.00000000000E+00 0.  1.
         21    1    1    2  504  502  0.80933997173E+01  0.19583282199E+02  0.70083967460E+02  0.73217283176E+02  0.00000000000E+00 0.  1.
</event>
<event>
 4    1  0.1571930E+006  0.2345174E+02  0.7546771E-02  0.1486902E+00
         21   -1    0    0  502  501  0.00000000000E+00  0.00000000000E+00  0.57072231048E+02  0.57072231048E+02  0.00000000000E+00 0.  1.
         21   -1    0    0  503  502 -0.00000000000E+00 -0.00000000000E+00 -0.18702841525E+03  0.18702841525E+03  0.00000000000E+00 0.  1.
         21    1    1    2  503  504  0.21810423531E+02  0.86191434049E+01 -0.18384251437E+03  0.18533228077E+03  0.00000000000E+00 0.  1.
         21    1    1    2  504  501 -0.21810423531E+02 -0.86191434049E+01  0.53886330166E+02  0.58768365524E+02  0.00000000000E+00 0.  1.
</event>
<event>
 4    1  0.1571930E+006  0.2107571E+02  0.7546771E-02  0.1518187E+00
         21   -1    0    0  504  501  0.00000000000E+00  0.00000000000E+00  0.34238415955E+01  0.34238415955E+01  0.00000000000E+00 0.  1.
         21   -1    0    0  503  502 -0.00000000000E+00 -0.00000000000E+00 -0.28190982868E+03  0.28190982868E+03  0.00000000000E+00 0. -1.
         21    1    1    2  503  501  0.28218477426E+01  0.20885948551E+02 -0.24406247425E+03  0.24497076766E+03  0.00000000000E+00 0. -1.
         21    1    1    2  504  502 -0.28218477426E+01 -0.20885948551E+02 -0.34423512832E+02  0.40362902612E+02  0.00000000000E+00 0.  1.
</event>
<event>
 4    1  0.1571930E+006  0.3666285E+02  0.7546771E-02  0.1369235E+00
         21   -1    0    0  503  501  0.00000000000E+00  0.00000000000E+00  0.81875172046E+03  0.81875172046E+03  0.00000000000E+00 0.  1.
         21   -1    0    0  504  502 -0.00000000000E+00 -0.00000000000E+00 -0.50270818194E+01  0.50270818194E+01  0.00000000000E+00 0.  1.
         21    1    1    2  503  502 -0.36448524569E+02 -0.39585247089E+01  0.68855946107E+02  0.78008372470E+02  0.00000000000E+00 0.  1.
         21    1    1    2  504  501  0.36448524569E+02  0.39585247089E+01  0.74486869253E+03  0.74577042981E+03  0.00000000000E+00 0.  1.
</event>
<event>
 4    1  0.1571930E+006  0.3301507E+02  0.7546771E-02  0.1395082E+00
         21   -1    0    0  502  501  0.00000000000E+00  0.00000000000E+00  0.17052446720E+04  0.17052446720E+04  0.00000000000E+00 0.  1.
         21   -1    0    0  504  502 -0.00000000000E+00 -0.00000000000E+00 -0.46935162957E+01  0.46935162957E+01  0.00000000000E+00 0. -1.
         21    1    1    2  503  501  0.30435929217E+02 -0.12792533623E+02  0.16448964929E+04  0.16452277858E+04  0.00000000000E+00 0.  1.
         21    1    1    2  504  503 -0.30435929217E+02  0.12792533623E+02  0.55654662814E+02  0.64710402539E+02  0.00000000000E+00 0. -1.
</event>
<event>
 4    1  0.1571930E+006  0.3397307E+02  0.7546771E-02  0.1387930E+00
         21   -1    0    0  503  501  0.00000000000E+00  0.00000000000E+00  0.13117923122E+03  0.13117923122E+03  0.00000000000E+00 0. -1.
         21   -1    0    0  501  502 -0.00000000000E+00 -0.00000000000E+00 -0.11383083280E+02  0.11383083280E+02  0.00000000000E+00 0. -1.
         21    1    1    2  503  504  0.15365927900E+02 -0.30299469086E+02  0.93864279308E+02  0.99823206206E+02  0.00000000000E+00 0. -1.
         21    1    1    2  504  502 -0.15365927900E+02  0.30299469086E+02  0.25931868632E+02  0.42739108295E+02  0.00000000000E+00 0. -1.
</event>
<event>
 4    1  0.1571930E+006  0.2338318E+02  0.7546771E-02  0.1487742E+00
         21   -1    0    0  503  501  0.00000000000E+00  0.00000000000E+00  0.41058141479E+02  0.41058141479E+02  0.00000000000E+00 0. -1.
         21   -1    0    0  504  502 -0.00000000000E+00 -0.00000000000E+00 -0.13450251793E+02  0.13450251793E+02  0.00000000000E+00 0. -1.
         21    1    1    2  503  502  0.19878508468E+02 -0.12313322446E+02  0.16516232177E+02  0.28627939742E+02  0.00000000000E+00 0. -1.
         21    1    1    2  504  501 -0.19878508468E+02  0.12313322446E+02  0.11091657509E+02  0.25880453529E+02  0.00000000000E+00 0. -1.
</event>
<event>
 4    1  0.1571930E+006  0.2253155E+02  0.7546771E-02  0.1498466E+00
         21   -1    0    0  504  501  0.00000000000E+00  0.00000000000E+00  0.87569397103E+02  0.87569397103E+02  0.00000000000E+00 0. -1.
         21   -1    0    0  503  502 -0.00000000000E+00 -0.00000000000E+00 -0.11740682787E+02  0.11740682787E+02  0.00000000000E+00 0.  1.
         21    1    1    2  503  501 -0.20372268953E+02 -0.96250517851E+01  0.73243367004E+02  0.76630684287E+02  0.00000000000E+00 0. -1.
         21    1    1    2  504  502  0.20372268953E+02  0.96250517851E+01  0.25853473113E+01  0.22679395602E+02  0.00000000000E+00 0.  1.
</event>
<event>
 4    1  0.1571930E+006  0.2931952E+02  0.7546771E-02  0.1425603E+00
         21   -1    0    0  503  501  0.00000000000E+00  0.00000000000E+00  0.17782890107E+03  0.17782890107E+03  0.00000000000E+00 0.  1.
         21   -1    0    0  504  502 -0.00000000000E+00 -0.00000000000E+00 -0.85566940976E+01  0.85566940976E+01  0.00000000000E+00 0. -1.
         21    1    1    2  503  502  0.21554059458E+02  0.19876036135E+02  0.14610493300E+03  0.14901773632E+03  0.00000000000E+00 0.  1.
         21    1    1    2  504  501 -0.21554059458E+02 -0.19876036135E+02  0.23167273977E+02  0.37367858850E+02  0.00000000000E+00 0. -1.
</event>
<event>
 4    1  0.1571930E+006  0.3263882E+02  0.7546771E-02  0.1397969E+00
         21   -1    0    0  504  501  0.00000000000E+00  0.00000000000E+00  0.22865591544E+02  0.22865591544E+02  0.00000000000E+00 0. -1.
         21   -1    0    0  503  502 -0.00000000000E+00 -0.00000000000E+00 -0.50087892195E+02  0.50087892195E+02  0.00000000000E+00 0.  1.
         21    1    1    2  503  501 -0.31951334078E+02 -0.66637129511E+01 -0.23251523336E+02  0.40074008498E+02  0.00000000000E+00 0.  1.
         21    1    1    2  504  502  0.31951334078E+02  0.66637129511E+01 -0.39707773149E+01  0.32879475241E+02  0.00000000000E+00 0. -1.
</event>
<event>
 4    1  0.1571930E+006  0.2417788E+02  0.7546771E-02  0.1478214E+00
         21   -1    0    0  502  501  0.00000000000E+00  0.00000000000E+00  0.27672240639E+03  0.27672240639E+03  0.00000000000E+00 0.  1.
         21   -1    0    0  504  502 -0.00000000000E+00 -0.00000000000E+00 -0.19302880831E+02  0.19302880831E+02  0.00000000000E+00 0. -1.
         21    1    1    2  503  501  0.25928572132E+01 -0.24038447811E+02  0.26838865527E+03  0.26947549083E+03  0.00000000000E+00 0.  1.
         21    1    1    2  504  503 -0.25928572132E+01  0.24038447811E+02 -0.10969129710E+02  0.26549796389E+02  0.00000000000E+00 0. -1.
</event>
<event>
 4    1  0.1571930E+006  0.2177038E+02  0.7546771E-02  0.1508544E+00
         21   -1    0    0  503  501  0.00000000000E+00  0.00000000000E+00  0.45458982644E+01  0.45458982644E+01  0.00000000000E+00 0. -1.
         21   -1    0    0  504  502 -0.00000000000E+00 -0.00000000000E+00 -0.10440971644E+03  0.10440971644E+03  0.00000000000E+00 0.  1.
         21    1    1    2  503  502  0.13954371990E+02 -0.16710031053E+02 -0.47860334733E+02  0.52579095429E+02  0.00000000000E+00 0. -1.
         21    1    1    2  504  501 -0.13954371990E+02  0.16710031053E+02 -0.52003483445E+02  0.56376519277E+02  0.00000000000E+00 0.  1.
</event>
<event>
 4    1  0.1571930E+006  0.2758490E+02  0.7546771E-02  0.1441819E+00
         21   -1    0    0  504  501  0.00000000000E+00  0.00000000000E+00  0.39310449074E+01  0.39310449074E+01  0.00000000000E+00 0.  1.
         21   -1    0    0  503  502 -0.00000000000E+00 -0.00000000000E+00 -0.32428956654E+03  0.32428956654E+03  0.00000000000E+00 0.  1.
         21    1    1    2  503  501  0.37718721108E+00  0.27582324108E+02 -0.55985434815E+02  0.62412304755E+02  0.00000000000E+00 0.  1.
         21    1    1    2  504  502 -0.37718721108E+00 -0.27582324108E+02 -0.26437308681E+03  0.26580830669E+03  0.00000000000E+00 0.  1.
</event>
<event>
 4    1  0.1571930E+006  0.2962612E+02  0.7546771E-02  0.1422874E+00
         21   -1    0    0  504  501  0.00000000000E+00  0.00000000000E+00  0.91085621626E+01  0.91085621626E+01  0.00000000000E+00 0.  1.
         21   -1    0    0  503  502 -0.00000000000E+00 -0.00000000000E+00 -0.15198453146E+04  0.15198453146E+04  0.00000000000E+00 0. -1.
         21    1    1    2  503  501  0.10847595221E+02 -0.27568765814E+02 -0.15522789801E+02  0.33446437385E+02  0.00000000000E+00 0.  1.
         21    1    1    2  504  502 -0.10847595221E+02  0.27568765814E+02 -0.14952139626E+04  0.14955074394E+04  0.00000000000E+00 0. -1.
</event>
<event>
 4    1  0.1571930E+006  0.2143371E+02  0.7546771E-02  0.1513162E+00
         21   -1    0    0  503  501  0.00000000000E+00  0.00000000000E+00  0.34011140899E+02  0.34011140899E+02  0.00000000000E+00 0.  1.
         21   -1    0    0  504  502 -0.00000000000E+00 -0.00000000000E+00 -0.21984280671E+02  0.21984280671E+02  0.00000000000E+00 0. -1.
         21    1    1    2  503  502  0.77992425586E+01 -0.19964363363E+02  0.23398762307E+02  0.31731783222E+02  0.00000000000E+00 0.  1.
         21    1    1    2  504  501 -0.77992425586E+01  0.19964363363E+02 -0.11371902079E+02  0.24263638348E+02  0.00000000000E+00 0. -1.
</event>
<event>
 4    1  0.1571930E+006  0.3610365E+02  0.7546771E-02  0.1372966E+00
         21   -1    0    0  504  501  0.00000000000E+00  0.00000000000E+00  0.12365609947E+02  0.12365609947E+02  0.00000000000E+00 0.  1.
         21   -1    0    0  503  502 -0.00000000000E+00 -0.00000000000E+00 -0.14818749078E+03  0.14818749078E+03  0.00000000000E+00 0.  1.
         21    1    1    2  503  501 -0.35722233263E+02  0.52341095996E+01 -0.11104143743E+03  0.11676332763E+03  0.00000000000E+00 0.  1.
         21    1    1    2  504  502  0.35722233263E+02 -0.52341095996E+01 -0.24780443402E+02  0.43789773096E+02  0.00000000000E+00 0.  1.
</event>
<event>
 4    1  0.1571930E+006  0.2114019E+02  0.7546771E-02  0.1517273E+00
         21   -1    0    0  504  501  0.00000000000E+00  0.00000000000E+00  0.27272856216E+03  0.27272856216E+03  0.00000000000E+00 0. -1.
         21   -1    0    0  503  502 -0.00000000000E+00 -0.00000000000E+00 -0.12250507271E+02  0.12250507271E+02  0.00000000000E+00 0.  1.
         21    1    1    2  503  501  0.51703582717E+01 -0.20498171932E+02  0.26285674748E+03  0.26370547463E+03  0.00000000000E+00 0. -1.
         21    1    1    2  504  502 -0.51703582717E+01  0.20498171932E+02 -0.23786925882E+01  0.21273594798E+02  0.00000000000E+00 0.  1.
</event>
<event>
 4    1  0.1571930E+006  0.2409995E+02  0.7546771E-02  0.1479129E+00
         21   -1    0    0  503  501  0.00000000000E+00  0.00000000000E+00  0.23396781400E+03  0.23396781400E+03  0.00000000000E+00 0.  1.
         21   -1    0    0  504  502 -0.00000000000E+00 -0.00000000000E+00 -0.25733072619E+01  0.25733072619E+01  0.00000000000E+00 0.  1.
         21    1    1    2  503  502  0.67346883561E+01  0.23139822321E+02  0.13792379490E+03  0.14001350150E+03  0.00000000000E+00 0.  1.
         21    1    1    2  504  501 -0.67346883561E+01 -0.23139822321E+02  0.93470711846E+02  0.96527619764E+02  0.00000000000E+00 0.  1.
</event>
<event>
 4    1  0.1571930E+006  0.2855452E+02  0.7546771E-02  0.1432588E+00
         21   -1    0    0  503  501  0.00000000000E+00  0.00000000000E+00  0.86019709284E+02  0.86019709284E+02  0.00000000000E+00 0.  1.
         21   -1    0    0  504  502 -0.00000000000E+00 -0.00000000000E+00 -0.14811852754E+03  0.14811852754E+03  0.00000000000E+00 0. -1.
         21    1    1    2  503  502 -0.13138623688E+02 -0.25352265423E+02  0.82211894095E+02  0.87029629008E+02  0.00000000000E+00 0.  1.
         21    1    1    2  504  501  0.13138623688E+02  0.25352265423E+02 -0.14431071235E+03  0.14710860782E+03  0.00000000000E+00 0. -1.
</event>
<event>
 4    1  0.1571930E+006  0.2021232E+02  0.7546771E-02  0.1530814E+00
         21   -1    0    0  503  501  0.00000000000E+00  0.00000000000E+00  0.62412704084E+01  0.62412704084E+01  0.00000000000E+00 0. -1.
         21   -1    0    0  504  502 -0.00000000000E+00 -0.00000000000E+00 -0.16362730181E+03  0.16362730181E+03  0.00000000000E+00 0.  1.
         21    1    1    2  503  502  0.31258159843E+01  0.19969157939E+02 -0.14448062437E+03  0.14588758965E+03  0.00000000000E+00 0.  1.
         21    1    1    2  504  501 -0.31258159843E+01 -0.19969157939E+02 -0.12905407027E+02  0.23980982567E+02  0.00000000000E+00 0. -1.
</event>
<event>
 4    1  0.1571930E+006  0.3857540E+02  0.7546771E-02  0.1357042E+00
         21   -1    0    0  504  501  0.00000000000E+00  0.00000000000E+00  0.11104047585E+02  0.11104047585E+02  0.00000000000E+00 0.  1.
         21   -1    0    0  501  502 -0.00000000000E+00 -0.00000000000E+00 -0.15968017497E+03  0.15968017497E+03  0.00000000000E+00 0.  1.
         21    1    1    2  503  502 -0.38154493274E+02 -0.56829712706E+01 -0.10852544134E+03  0.11517739769E+03  0.00000000000E+00 0.  1.
         21    1    1    2  504  503  0.38154493274E+02  0.56829712706E+01 -0.40050686044E+02  0.55606824869E+02  0.00000000000E+00 0.  1.
</event>
<event>
 4    1  0.1571930E+006  0.4028574E+02  0.7546771E-02  0.1346819E+00
         21   -1    0    0  502  501  0.00000000000E+00  0.00000000000E+00  0.28102849862E+02  0.28102849862E+02  0.00000000000E+00 0. -1.
         21   -1    0    0  504  502 -0.00000000000E+00 -0.00000000000E+00 -0.17911235379E+03  0.17911235379E+03  0.00000000000E+00 0.  1.
         21    1    1    2  503  501 -0.38272645888E+02  0.12575576966E+02  0.97798808169E+01  0.41455839494E+02  0.00000000000E+00 0. -1.
         21    1    1    2  504  503  0.38272645888E+02 -0.12575576966E+02 -0.16078938475E+03  0.16575936416E+03  0.00000000000E+00 0.  1.
</event>
<event>
 4    1  0.1571930E+006  0.2206377E+02  0.7546771E-02  0.1504601E+00
         21   -1    0    0  502  501  0.00000000000E+00  0.00000000000E+00  0.39235896130E+01  0.39235896130E+01  0.00000000000E+00 0.  1.
         21   -1    0    0  503  502 -0.00000000000E+00 -0.00000000000E+00 -0.63356551366E+03  0.63356551366E+03  0.00000000000E+00 0. -1.
         21    1    1    2  503  504 -0.21751750276E+02  0.36974660149E+01 -0.60065640985E+03  0.60106150483E+03  0.00000000000E+00 0. -1.
         21    1    1    2  504  501  0.21751750276E+02 -0.36974660149E+01 -0.28985514195E+02  0.36427598440E+02  0.00000000000E+00 0.  1.
</event>
<event>
 4    1  0.1571930E+006  0.5617834E+02  0.7546771E-02  0.1273401E+00
         21   -1    0    0  502  501  0.00000000000E+00  0.00000000000E+00  0.16903058133E+03  0.16903058133E+03  0.00000000000E+00 0. -1.
         21   -1    0    0  504  502 -0.00000000000E+00 -0.00000000000E+00 -0.18987473372E+02  0.18987473372E+02  0.00000000000E+00 0. -1.
         21    1    1    2  503  501  0.37712379021E+00  0.56177070972E+02  0.87154331554E+02  0.10369128717E+03  0.00000000000E+00 0. -1.
         21    1    1    2  504  503 -0.37712379021E+00 -0.56177070972E+02  0.62888776403E+02  0.84326767535E+02  0.00000000000E+00 0. -1.
</event>
<event>
 4    1  0.1571930E+006  0.3787353E+02  0.7546771E-02  0.1361418E+00
         21   -1    0    0  504  501  0.00000000000E+00  0.00000000000E+00  0.93676596549E+01  0.93676596549E+01  0.00000000000E+00 0.  1.
         21   -1    0    0  503  502 -0.00000000000E+00 -0.00000000000E+00 -0.16247672081E+03  0.16247672081E+03  0.00000000000E+00 0.  1.
         21    1    1    2  503  501 -0.12572567170E+02  0.35725831920E+02 -0.55938688916E+02  0.67553988996E+02  0.00000000000E+00 0.  1.
         21    1    1    2  504  502  0.12572567170E+02 -0.35725831920E+02 -0.97170372240E+02  0.10429039147E+03  0.00000000000E+00 0.  1.
</event>
<event>
 4    1  0.1571930E+006  0.2449349E+02  0.7546771E-02  0.1474550E+00
         21   -1    0    0  503  501  0.00000000000E+00  0.00000000000E+00  0.18615656089E+03  0.18615656089E+03  0.00000000000E+00 0. -1.
         21   -1    0    0  504  502 -0.00000000000E+00 -0.00000000000E+00 -0.63645657470E+01  0.63645657470E+01  0.00000000000E+00 0. -1.
         21    1    1    2  503  502 -0.22206757498E+02  0.10333969623E+02  0.15752862215E+03  0.15942144713E+03  0.00000000000E+00 0. -1.
         21    1    1    2  504  501  0.22206757498E+02 -0.10333969623E+02  0.22263372990E+02  0.33099679510E+02  0.00000000000E+00 0. -1.
</event>
<event>
 4    1  0.1571930E+006  0.2860745E+02  0.7546771E-02  0.1432096E+00
         21   -1    0    0  504  501  0.00000000000E+00  0.00000000000E+00  0.83118836416E+03  0.83118836416E+03  0.00000000000E+00 0. -1.
         21   -1    0    0  503  502 -0.00000000000E+00 -0.00000000000E+00 -0.98469299071E+00  0.98469299071E+00  0.00000000000E+00 0. -1.
         21    1    1    2  503  501  0.13677643727E+02  0.25125847368E+02  0.41919519261E+03  0.42017019843E+03  0.00000000000E+00 0. -1.
         21    1    1    2  504  502 -0.13677643727E+02 -0.25125847368E+02  0.41100847855E+03  0.41200285871E+03  0.00000000000E+00 0. -1.
</event>
<event>
 4    1  0.1571930E+006  0.3023317E+02  0.7546771E-02  0.1417581E+00
         21   -1    0    0  504  501  0.00000000000E+00  0.00000000000E+00  0.13519591957E+03  0.13519591957E+03  0.00000000000E+00 0. -1.
         21   -1    0    0  501  502 -0.00000000000E+00 -0.00000000000E+00 -0.65739839270E+02  0.65739839270E+02  0.00000000000E+00 0. -1.
         21    1    1    2  503  502 -0.15201467160E+02 -0.26133500964E+02 -0.60433495006E+02  0.67574046757E+02  0.00000000000E+00 0. -1.
         21    1    1    2  504  503  0.15201467160E+02  0.26133500964E+02  0.12988957531E+03  0.13336171208E+03  0.00000000000E+00 0. -1.
</event>
<event>
 4    1  0.1571930E+006  0.3187775E+02  0.7546771E-02  0.1403951E+00
         21   -1    0    0  504  501  0.00000000000E+00  0.00000000000E+00  0.40006974602E+01  0.40006974602E+01  0.00000000000E+00 0.  1.
         21   -1    0    0  503  502 -0.00000000000E+00 -0.00000000000E+00 -0.10882559278E+04  0.10882559278E+04  0.00000000000E+00 0.  1.
         21    1    1    2  503  501  0.17643891416E+02  0.26549657651E+02 -0.63962480501E+02  0.71466006868E+02  0.00000000000E+00 0.  1.
         21    1    1    2  504  502 -0.17643891416E+02 -0.26549657651E+02 -0.10202927498E+04  0.10207906184E+04  0.00000000000E+00 0.  1.
</event>
<event>
 4    1  0.1571930E+006  0.2259253E+02  0.7546771E-02  0.1497679E+00
         21   -1    0    0  503  501  0.00000000000E+00  0.00000000000E+00  0.61945222338E+02  0.61945222338E+02  0.00000000000E+00 0. -1.
         21   -1    0    0  501  502 -0.00000000000E+00 -0.00000000000E+00 -0.11534669986E+02  0.11534669986E+02  0.00000000000E+00 0. -1.
         21    1    1    2  503  504 -0.25946333846E+01 -0.22443047928E+02  0.44841066626E+02  0.50210992609E+02  0.00000000000E+00 0. -1.
         21    1    1    2  504  502  0.25946333846E+01  0.22443047928E+02  0.55694857263E+01  0.23268899715E+02  0.00000000000E+00 0. -1.
</event>
<event>
 4    1  0.1571930E+006  0.3216748E+02  0.7546771E-02  0.1401651E+00
         21   -1    0    0  504  501  0.00000000000E+00  0.00000000000E+00  0.37767462757E+01  0.37767462757E+01  0.00000000000E+00 0.  1.
         21   -1    0    0  503  502 -0.00000000000E+00 -0.00000000000E+00 -0.44933684445E+03  0.44933684445E+03  0.00000000000E+00 0.  1.
         21    1    1    2  503  501  0.24388912270E+02  0.20974450407E+02 -0.81248091124E+02  0.87384202936E+02  0.00000000000E+00 0.  1.
         21    1    1    2  504  502 -0.24388912270E+02 -0.20974450407E+02 -0.36431200705E+03  0.36572938779E+03  0.00000000000E+00 0.  1.
</event>
<event>
 4    1  0.1571930E+006  0.2404738E+02  0.7546771E-02  0.1479749E+00
         21   -1    0    0  504  501  0.00000000000E+00  0.00000000000E+00  0.62381090855E+02  0.62381090855E+02  0.00000000000E+00 0.  1.
         21   -1    0    0  503  502 -0.00000000000E+00 -0.00000000000E+00 -0.27126898709E+02  0.27126898709E+02  0.00000000000E+00 0. -1.
         21    1    1    2  503  501  0.19412893128E+02 -0.14192120716E+02  0.53937741805E+02  0.59055539123E+02  0.00000000000E+00 0.  1.
         21    1    1    2  504  502 -0.19412893128E+02  0.14192120716E+02 -0.18683549659E+02  0.30452450441E+02  0.00000000000E+00 0. -1.
</event>
<event>
 4    1  0.1571930E+006  0.2141018E+02  0.7546771E-02  0.1513488E+00
         21   -1    0    0  503  501  0.00000000000E+00  0.00000000000E+00  0.42188844969E+02  0.42188844969E+02  0.00000000000E+00 0.  1.
         21   -1    0    0  504  502 -0.00000000000E+00 -0.00000000000E+00 -0.27662474735E+03  0.27662474735E+03  0.00000000000E+00 0.  1.
         21    1    1    2  503  502 -0.21227368275E+02 -0.27919088074E+01  0.39026875176E+02  0.44513963031E+02  0.00000000000E+00 0.  1.
         21    1    1    2  504  501  0.21227368275E+02  0.27919088074E+01 -0.27346277756E+03  0.27429962929E+03  0.00000000000E+00 0.  1.
</event>
<event>
 4    1  0.1571930E+006  0.2107274E+02  0.7546771E-02  0.1518229E+00
         21   -1    0    0  504  501  0.00000000000E+00  0.00000000000E+00  0.51154204988E+02  0.51154204988E+02  0.00000000000E+00 0.  1.
         21   -1    0    0  503  502 -0.00000000000E+00 -0.00000000000E+00 -0.55435230097E+02  0.55435230097E+02  0.00000000000E+00 0. -1.
         21    1    1    2  503  501 -0.12902280372E+02  0.16661080104E+02 -0.51084858579E+02  0.55260503120E+02  0.00000000000E+00 0. -1.
         21    1    1    2  504  502  0.12902280372E+02 -0.16661080104E+02  0.46803833471E+02  0.51328931964E+02  0.00000000000E+00 0.  1.
</event>
<event>
 4    1  0.1571930E+006  0.2798672E+02  0.7546771E-02  0.1437940E+00
         21   -1    0    0  503  501  0.00000000000E+00  0.00000000000E+00  0.68367889743E+02  0.68367889743E+02  0.00000000000E+00 0.  1.
         21   -1    0    0  504  502 -0.00000000000E+00 -0.00000000000E+00 -0.13647353219E+02  0.13647353219E+02  0.00000000000E+00 0.  1.
         21    1    1    2  503  502  0.27178085300E+02  0.66789347445E+01  0.43790638564E+02  0.51969957819E+02  0.00000000000E+00 0.  1.
         21    1    1    2  504  501 -0.27178085300E+02 -0.66789347445E+01  0.10929897960E+02  0.30045285143E+02  0.00000000000E+00 0.  1.
</event>
<event>
 4    1  0.1571930E+006  0.2100330E+02  0.7546771E-02  0.1519218E+00
         21   -1    0    0  504  501  0.00000000000E+00  0.00000000000E+00  0.23289093922E+02  0.23289093922E+02  0.00000000000E+00 0. -1.
         21   -1    0    0  503  502 -0.00000000000E+00 -0.00000000000E+00 -0.27018593173E+02  0.27018593173E+02  0.00000000000E+00 0. -1.
         21    1    1    2  503  501 -0.75901829789E+01  0.19583859980E+02  0.11888053050E+02  0.24134296233E+02  0.00000000000E+00 0. -1.
         21    1    1    2  504  502  0.75901829789E+01 -0.19583859980E+02 -0.15617552301E+02  0.26173390862E+02  0.00000000000E+00 0. -1.
</event>
<event>
 4    1  0.1571930E+006  0.2163909E+02  0.7546771E-02  0.1510333E+00
         21   -1    0    0  502  501  0.00000000000E+00  0.00000000000E+00  0.48186213430E+03  0.48186213430E+03  0.00000000000E+00 0.  1.
         21   -1    0    0  503  502 -0.00000000000E+00 -0.00000000000E+00 -0.36284839178E+01  0.36284839178E+01  0.00000000000E+00 0.  1.
         21    1    1    2  503  504 -0.11969352001E+02 -0.18027334182E+02  0.31404547906E+02  0.38137852512E+02  0.00000000000E+00 0.  1.
         21    1    1    2  504  501  0.11969352001E+02  0.18027334182E+02  0.44682910248E+03  0.44735276571E+03  0.00000000000E+00 0.  1.
</event>
<event>
 4    1  0.1571930E+006  0.2295949E+02  0.7546771E-02  0.1493007E+00
         21   -1    0    0  503  501  0.00000000000E+00  0.00000000000E+00  0.26642980875E+01  0.26642980875E+01  0.00000000000E+00 0. -1.
         21   -1    0    0  501  502 -0.00000000000E+00 -0.00000000000E+00 -0.36171969065E+03  0.36171969065E+03  0.00000000000E+00 0. -1.
         21    1    1    2  503  504 -0.12464420837E+02 -0.19281502002E+02 -0.56899826413E+02  0.61357382214E+02  0.00000000000E+00 0. -1.
         21    1    1    2  504  502  0.12464420837E+02  0.19281502002E+02 -0.30215556615E+03  0.30302660653E+03  0.00000000000E+00 0. -1.
</event>
<event>
 4    1  0.1571930E+006  0.2096830E+02  0.7546771E-02  0.1519718E+00
         21   -1    0    0  502  501  0.00000000000E+00  0.00000000000E+00  0.73831918687E+02  0.73831918687E+02  0.00000000000E+00 0. -1.
         21   -1    0    0  503  502 -0.00000000000E+00 -0.00000000000E+00 -0.17660415566E+02  0.17660415566E+02  0.00000000000E+00 0.  1.
         21    1    1    2  503  504 -0.15899525499E+02 -0.13670213742E+02 -0.91574944468E+01  0.22880763960E+02  0.00000000000E+00 0.  1.
         21    1    1    2  504  501  0.15899525499E+02  0.13670213742E+02  0.65328997568E+02  0.68611570293E+02  0.00000000000E+00 0. -1.
</event>
<event>
 4    1  0.1571930E+006  0.2360439E+02  0.7546771E-02  0.1485045E+00
         21   -1    0    0  503  501  0.00000000000E+00  0.00000000000E+00  0.54994813160E+03  0.54994813160E+03  0.00000000000E+00 0. -1.
         21   -1    0    0  501  502 -0.00000000000E+00 -0.00000000000E+00 -0.10133152768E+01  0.10133152768E+01  0.00000000000E+00 0. -1.
         21    1    1    2  503  504 -0.23099323167E+02 -0.48568052065E+01  0.27822271058E+03  0.27922221253E+03  0.00000000000E+00 0. -1.
         21    1    1    2  504  502  0.23099323167E+02  0.48568052065E+01  0.27071210574E+03  0.27173923435E+03  0.00000000000E+00 0. -1.
</event>
<event>
 4    1  0.1571930E+006  0.2598621E+02  0.7546771E-02  0.1458066E+00
         21   -1    0    0  502  501  0.00000000000E+00  0.00000000000E+00  0.21314355691E+02  0.21314355691E+02  0.00000000000E+00 0.  1.
         21   -1    0    0  503  502 -0.00000000000E+00 -0.00000000000E+00 -0.41952213779E+03  0.41952213779E+03  0.00000000000E+00 0.  1.
         21    1    1    2  503  504  0.22896070858E+02  0.12290369958E+02 -0.41103583904E+03  0.41185646071E+03  0.00000000000E+00 0.  1.
         21    1    1    2  504  501 -0.22896070858E+02 -0.12290369958E+02  0.12828056941E+02  0.28980032770E+02  0.00000000000E+00 0.  1.
</event>
<event>
 4    1  0.1571930E+006  0.2038407E+02  0.7546771E-02  0.1528243E+00
         21   -1    0    0  503  501  0.00000000000E+00  0.00000000000E+00  0.79974069291E+03  0.79974069291E+03  0.00000000000E+00 0.  1.
         21   -1    0    0  504  502 -0.00000000000E+00 -0.00000000000E+00 -0.57204425437E+01  0.57204425437E+01  0.00000000000E+00 0.  1.
         21    1    1    2  503  502  0.20217005607E+02 -0.26044518025E+01  0.13003737237E+02  0.24178661399E+02  0.00000000000E+00 0.  1.
         21    1    1    2  504  501 -0.20217005607E+02  0.26044518025E+01  0.78101651313E+03  0.78128247405E+03  0.00000000000E+00 0.  1.
</event>
<event>
 4    1  0.1571930E+006  0.2559070E+02  0.7546771E-02  0.1462303E+00
         21   -1    0    0  502  501  0.00000000000E+00  0.00000000000E+00  0.11653270972E+03  0.11653270972E+03  0.00000000000E+00 0.  1.
         21   -1    0    0  504  502 -0.00000000000E+00 -0.00000000000E+00 -0.21911977384E+02  0.21911977384E+02  0.00000000000E+00 0. -1.
         21    1    1    2  503  501 -0.70049498314E+01  0.24613296901E+02  0.10699957980E+03  0.11001724312E+03  0.00000000000E+00 0.  1.
         21    1    1    2  504  503  0.70049498314E+01 -0.24613296901E+02 -0.12378847469E+02  0.28427443979E+02  0.00000000000E+00 0. -1.
</event>
<event>
 4    1  0.1571930E+006  0.2069594E+02  0.7546771E-02  0.1523651E+00
         21   -1    0    0  502  501  0.00000000000E+00  0.00000000000E+00  0.80733636930E+01  0.80733636930E+01  0.00000000000E+00 0.  1.
         21   -1    0    0  504  502 -0.00000000000E+00 -0.00000000000E+00 -0.97250055974E+02  0.97250055974E+02  0.00000000000E+00 0.  1.
         21    1    1    2  503  501  0.94237396252E+01  0.18425933182E+02 -0.90871311472E+01  0.22603049233E+02  0.00000000000E+00 0.  1.
         21    1    1    2  504  503 -0.94237396252E+01 -0.18425933182E+02 -0.80089561134E+02  0.82720370434E+02  0.00000000000E+00 0.  1.
</event>
<event>
 4    1  0.1571930E+006  0.2724022E+02  0.7546771E-02  0.1445210E+00
         21   -1    0    0  503  501  0.00000000000E+00  0.00000000000E+00  0.51640659692E+02  0.51640659692E+02  0.00000000000E+00 0. -1.
         21   -1    0    0  504  502 -0.00000000000E+00 -0.00000000000E+00 -0.51236890939E+02  0.51236890939E+02  0.00000000000E+00 0.  1.
         21    1    1    2  503  502  0.41108216844E+01  0.26928254511E+02  0.43835660627E+02  0.51610027016E+02  0.00000000000E+00 0. -1.
         21    1    1    2  504  501 -0.41108216844E+01 -0.26928254511E+02 -0.43431891874E+02  0.51267523616E+02  0.00000000000E+00 0.  1.
</event>
<event>
 4    1  0.1571930E+006  0.2118508E+02  0.7546771E-02  0.1516639E+00
         21   -1    0    0  504  501  0.00000000000E+00  0.00000000000E+00  0.16097084535E+01  0.16097084535E+01  0.00000000000E+00 0.  1.
         21   -1    0    0  503  502 -0.00000000000E+00 -0.00000000000E+00 -0.29368482665E+03  0.29368482665E+03  0.00000000000E+00 0.  1.
         21    1    1    2  503  501  0.60488879158E+01 -0.20303164680E+02 -0.11281234851E+03  0.11478429125E+03  0.00000000000E+00 0.  1.
         21    1    1    2  504  502 -0.60488879158E+01  0.20303164680E+02 -0.17926276968E+03  0.18051024385E+03  0.00000000000E+00 0.  1.
</event>
<event>
 4    1  0.1571930E+006  0.2114776E+02  0.7546771E-02  0.1517166E+00
         21   -1    0    0  503  501  0.00000000000E+00  0.00000000000E+00  0.33211733849E+01  0.33211733849E+01  0.00000000000E+00 0. -1.
         21   -1    0    0  501  502 -0.00000000000E+00 -0.00000000000E+00 -0.31090059439E+03  0.31090059439E+03  0.00000000000E+00 0.  1.
         21    1    1    2  503  504 -0.20418487782E+02 -0.55057461900E+01 -0.35499457357E+02  0.41321173230E+02  0.00000000000E+00 0. -1.
         21    1    1    2  504  502  0.20418487782E+02  0.55057461900E+01 -0.27207996364E+03  0.27290059454E+03  0.00000000000E+00 0.  1.
</event>
<event>
 4    1  0.1571930E+006  0.2051445E+02  0.7546771E-02  0.1526311E+00
         21   -1    0    0  503  501  0.00000000000E+00  0.00000000000E+00  0.37835340890E+01  0.37835340890E+01  0.00000000000E+00 0. -1.
         21   -1    0    0  504  502 -0.00000000000E+00 -0.00000000000E+00 -0.33163419566E+03  0.33163419566E+03  0.00000000000E+00 0. -1.
         21    1    1    2  503  502  0.20496730894E+02  0.85246492453E+00 -0.30064665291E+03  0.30134573596E+03  0.00000000000E+00 0. -1.
         21    1    1    2  504  501 -0.20496730894E+02 -0.85246492453E+00 -0.27204008666E+02  0.34071993797E+02  0.00000000000E+00 0. -1.
</event>
<event>
 4    1  0.1571930E+006  0.2164791E+02  0.7546771E-02  0.1510212E+00
         21   -1    0    0  502  501  0.00000000000E+00  0.00000000000E+00  0.15300080885E+02  0.15300080885E+02  0.00000000000E+00 0.  1.
         21   -1    0    0  503  502 -0.00000000000E+00 -0.00000000000E+00 -0.28422094966E+03  0.28422094966E+03  0.00000000000E+00 0. -1.
         21    1    1    2  503  504 -0.43257029697E+01  0.21211320770E+02 -0.27592142573E+03  0.27676933539E+03  0.00000000000E+00 0. -1.
         21    1    1    2  504  501  0.43257029697E+01 -0.21211320770E+02  0.70005569515E+01  0.22751695159E+02  0.00000000000E+00 0.  1.
</event>
<event>
 4    1  0.1571930E+006  0.4169447E+02  0.7546771E-02  0.1338832E+00
         21   -1    0    0  504  501  0.00000000000E+00  0.00000000000E+00  0.48418679818E+02  0.48418679818E+02  0.00000000000E+00 0.  1.
         21   -1    0    0  503  502 -0.00000000000E+00 -0.00000000000E+00 -0.38022520282E+02  0.38022520282E+02  0.00000000000E+00 0.  1.
         21    1    1    2  503  501  0.38656412606E+02  0.15624046954E+02 -0.50037129808E+01  0.41993645023E+02  0.00000000000E+00 0.  1.
         21    1    1    2  504  502 -0.38656412606E+02 -0.15624046954E+02  0.15399872518E+02  0.44447555077E+02  0.00000000000E+00 0.  1.
</event>
<event>
 4    1  0.1571930E+006  0.2033339E+02  0.7546771E-02  0.1528999E+00
         21   -1    0    0  503  501  0.00000000000E+00  0.00000000000E+00  0.11185914536E+02  0.11185914536E+02  0.00000000000E+00 0. -1.
         21   -1    0    0  504  502 -0.00000000000E+00 -0.00000000000E+00 -0.39099634266E+02  0.39099634266E+02  0.00000000000E+00 0. -1.
         21    1    1    2  503  502  0.19849774900E+02  0.44083117927E+01 -0.80771339474E+01  0.21878913804E+02  0.00000000000E+00 0. -1.
         21    1    1    2  504  501 -0.19849774900E+02 -0.44083117927E+01 -0.19836585783E+02  0.28406634999E+02  0.00000000000E+00 0. -1.
</event>
<event>
 4    1  0.1571930E+006  0.2003670E+02  0.7546771E-02  0.1533475E+00
         21   -1    0    0  504  501  0.00000000000E+00  0.00000000000E+00  0.14946149302E+02  0.14946149302E+02  0.00000000000E+00 0.  1.
         21   -1    0    0  503  502 -0.00000000000E+00 -0.00000000000E+00 -0.74521916354E+02  0.74521916354E+02  0.00000000000E+00 0. -1.
         21    1    1    2  503  501 -0.29434240486E+01  0.19819325929E+02  0.59868956631E+01  0.20912014372E+02  0.00000000000E+00 0.  1.
         21    1    1    2  504  502  0.29434240486E+01 -0.19819325929E+02 -0.65562662715E+02  0.68556051284E+02  0.00000000000E+00 0. -1.
</event>
<event>
 4    1  0.1571930E+006  0.2741799E+02  0.7546771E-02  0.1443454E+00
         21   -1    0    0  503  501  0.00000000000E+00  0.00000000000E+00  0.45450110429E+03  0.45450110429E+03  0.00000000000E+00 0. -1.
         21   -1    0    0  504  502 -0.00000000000E+00 -0.00000000000E+00 -0.44298461517E+01  0.44298461517E+01  0.00000000000E+00 0. -1.
         21    1    1    2  503  502  0.20172711263E+02 -0.18568997783E+02  0.40667940928E+03  0.40760261026E+03  0.00000000000E+00 0. -1.
         21    1    1    2  504  501 -0.20172711263E+02  0.18568997783E+02  0.43391848853E+02  0.51328340176E+02  0.00000000000E+00 0. -1.
</event>
<event>
 4    1  0.1571930E+006  0.2022583E+02  0.7546771E-02  0.1530611E+00
         21   -1    0    0  504  501  0.00000000000E+00  0.00000000000E+00  0.25287826217E+03  0.25287826217E+03  0.00000000000E+00 0.  1.
         21   -1    0    0  503  502 -0.00000000000E+00 -0.00000000000E+00 -0.16175002757E+02  0.16175002757E+02  0.00000000000E+00 0.  1.
         21    1    1    2  503  501 -0.31044635821E+01 -0.19986153390E+02  0.24597387407E+03  0.24680403309E+03  0.00000000000E+00 0.  1.
         21    1    1    2  504  502  0.31044635821E+01  0.19986153390E+02 -0.92706146582E+01  0.22249231843E+02  0.00000000000E+00 0.  1.
</event>
<event>
 4    1  0.1571930E+006  0.3173673E+02  0.7546771E-02  0.1405082E+00
         21   -1    0    0  503  501  0.00000000000E+00  0.00000000000E+00  0.28747679227E+02  0.28747679227E+02  0.00000000000E+00 0. -1.
         21   -1    0    0  501  502 -0.00000000000E+00 -0.00000000000E+00 -0.54392155833E+03  0.54392155833E+03  0.00000000000E+00 0.  1.
         21    1    1    2  503  504  0.67960684633E+00 -0.31729449184E+02  0.19372101224E+02  0.37181959562E+02  0.00000000000E+00 0. -1.
         21    1    1    2  504  502 -0.67960684633E+00  0.31729449184E+02 -0.53454598033E+03  0.53548727800E+03  0.00000000000E+00 0.  1.
</event>
<event>
 4    1  0.1571930E+006  0.2461399E+02  0.7546771E-02  0.1473168E+00
         21   -1    0    0  504  501  0.00000000000E+00  0.00000000000E+00  0.13055246543E+04  0.13055246543E+04  0.00000000000E+00 0.  1.
         21   -1    0    0  503  502 -0.00000000000E+00 -0.00000000000E+00 -0.22493797258E+01  0.22493797258E+01  0.00000000000E+00 0.  1.
         21    1    1    2  503  501  0.23141051716E+02  0.83868944312E+01  0.69093652369E+02  0.73346990875E+02  0.00000000000E+00 0.  1.
         21    1    1    2  504  502 -0.23141051716E+02 -0.83868944312E+01  0.12341816222E+04  0.12344270431E+04  0.00000000000E+00 0.  1.
</event>
<event>
 4    1  0.1571930E+006  0.2589006E+02  0.7546771E-02  0.1459088E+00
         21   -1    0    0  502  501  0.00000000000E+00  0.00000000000E+00  0.34159026573E+02  0.34159026573E+02  0.00000000000E+00 0.  1.
         21   -1    0    0  504  502 -0.00000000000E+00 -0.00000000000E+00 -0.30809441951E+02  0.30809441951E+02  0.00000000000E+00 0.  1.
         21    1    1    2  503  501  0.80931786246E+01  0.24592589673E+02  0.21248856446E+02  0.33493415880E+02  0.00000000000E+00 0.  1.
         21    1    1    2  504  503 -0.80931786246E+01 -0.24592589673E+02 -0.17899271824E+02  0.31475052644E+02  0.00000000000E+00 0.  1.
</event>
<event>
 4    1  0.1571930E+006  0.2276043E+02  0.7546771E-02  0.1495529E+00
         21   -1    0    0  504  501  0.00000000000E+00  0.00000000000E+00  0.20117449002E+03  0.20117449002E+03  0.00000000000E+00 0.  1.
         21   -1    0    0  503  502 -0.00000000000E+00 -0.00000000000E+00 -0.54431036527E+01  0.54431036527E+01  0.00000000000E+00 0. -1.
         21    1    1    2  503  501 -0.12570855723E+02 -0.18973947208E+02  0.17285625633E+03  0.17434827914E+03  0.00000000000E+00 0.  1.
         21    1    1    2  504  502  0.12570855723E+02  0.18973947208E+02  0.22875130039E+02  0.32269314535E+02  0.00000000000E+00 0. -1.
</event>
<event>
 4    1  0.1571930E+006  0.2728254E+02  0.7546771E-02  0.1444790E+00
         21   -1    0    0  504  501  0.00000000000E+00  0.00000000000E+00  0.33281995635E+03  0.33281995635E+03  0.00000000000E+00 0. -1.
         21   -1    0    0  503  502 -0.00000000000E+00 -0.00000000000E+00 -0.27390123839E+01  0.27390123839E+01  0.00000000000E+00 0. -1.
         21    1    1    2  503  501  0.22388885955E+02 -0.15590846805E+02  0.23690835704E+03  0.23847412094E+03  0.00000000000E+00 0. -1.
         21    1    1    2  504  502 -0.22388885955E+02  0.15590846805E+02  0.93172586922E+02  0.97084847798E+02  0.00000000000E+00 0. -1.
</event>
<event>
 4    1  0.1571930E+006  0.2022336E+02  0.7546771E-02  0.1530648E+00
         21   -1    0    0  503  501  0.00000000000E+00  0.00000000000E+00  0.12457219714E+03  0.12457219714E+03  0.00000000000E+00 0.  1.
         21   -1    0    0  504  502 -0.00000000000E+00 -0.00000000000E+00 -0.68296772538E+02  0.68296772538E+02  0.00000000000E+00 0.  1.
         21    1    1    2  503  502  0.42571223759E+01  0.19770211374E+02 -0.65950363610E+02  0.68981409154E+02  0.00000000000E+00 0.  1.
         21    1    1    2  504  501 -0.42571223759E+01 -0.19770211374E+02  0.12222578821E+03  0.12388756052E+03  0.00000000000E+00 0.  1.
</event>
<event>
 4    1  0.1571930E+006  0.2071741E+02  0.7546771E-02  0.1523338E+00
         21   -1    0    0  503  501  0.00000000000E+00  0.00000000000E+00  0.41056080162E+01  0.41056080162E+01  0.00000000000E+00 0.  1.
         21   -1    0    0  504  502 -0.00000000000E+00 -0.00000000000E+00 -0.15299802570E+03  0.15299802570E+03  0.00000000000E+00 0.  1.
         21    1    1    2  503  502  0.12698253117E+02 -0.16369647114E+02 -0.11865254091E+03  0.12044765022E+03  0.00000000000E+00 0.  1.
         21    1    1    2  504  501 -0.12698253117E+02  0.16369647114E+02 -0.30239876775E+02  0.36655983498E+02  0.00000000000E+00 0.  1.
</event>
<event>
 4    1  0.1571930E+006  0.2039530E+02  0.7546771E-02  0.1528076E+00
         21   -1    0    0  504  501  0.00000000000E+00  0.00000000000E+00  0.42321055341E+02  0.42321055341E+02  0.00000000000E+00 0. -1.
         21   -1    0    0  503  502 -0.00000000000E+00 -0.00000000000E+00 -0.27643026662E+02  0.27643026662E+02  0.00000000000E+00 0.  1.
         21    1    1    2  503  501  0.14597256656E+02  0.14243894899E+02  0.35421458082E+02  0.40873562806E+02  0.00000000000E+00 0. -1.
         21    1    1    2  504  502 -0.14597256656E+02 -0.14243894899E+02 -0.20743429402E+02  0.29090519197E+02  0.00000000000E+00 0.  1.
</event>
<event>
 4    1  0.1571930E+006  0.2885915E+02  0.7546771E-02  0.1429776E+00
         21   -1    0    0  503  501  0.00000000000E+00  0.00000000000E+00  0.37110363255E+03  0.37110363255E+03  0.00000000000E+00 0.  1.
         21   -1    0    0  501  502 -0.00000000000E+00 -0.00000000000E+00 -0.36699997699E+01  0.36699997699E+01  0.00000000000E+00 0.  1.
         21    1    1    2  503  504  0.28773873321E+02 -0.22169655982E+01  0.30051258159E+03  0.30189511824E+03  0.00000000000E+00 0.  1.
         21    1    1    2  504  502 -0.28773873321E+02  0.22169655982E+01  0.66921051192E+02  0.72878514083E+02  0.00000000000E+00 0.  1.
</event>
<event>
 4    1  0.1571930E+006  0.2194002E+02  0.7546771E-02  0.1506255E+00
         21   -1    0    0  504  501  0.00000000000E+00  0.00000000000E+00  0.28078517551E+03  0.28078517551E+03  0.00000000000E+00 0. -1.
         21   -1    0    0  501  502 -0.00000000000E+00 -0.00000000000E+00 -0.44713905423E+02  0.44713905423E+02  0.00000000000E+00 0.  1.
         21    1    1    2  503  502 -0.13008526038E+02 -0.17667566393E+02 -0.41563466138E+02  0.46998791147E+02  0.00000000000E+00 0.  1.
         21    1    1    2  504  503  0.13008526038E+02  0.17667566393E+02  0.27763473623E+03  0.27850028979E+03  0.00000000000E+00 0. -1.
</event>
<event>
 4    1  0.1571930E+006  0.2282454E+02  0.7546771E-02  0.1494713E+00
         21   -1    0    0  503  501  0.00000000000E+00  0.00000000000E+00  0.34017085461E+02  0.34017085461E+02  0.00000000000E+00 0. -1.
         21   -1    0    0  504  502 -0.00000000000E+00 -0.00000000000E+00 -0.17095156196E+02  0.17095156196E+02  0.00000000000E+00 0. -1.
         21    1    1    2  503  502  0.10084113218E+01 -0.22802252710E+02  0.16708622323E+02  0.28286705039E+02  0.00000000000E+00 0. -1.
         21    1    1    2  504  501 -0.10084113218E+01  0.22802252710E+02  0.21330694191E+00  0.22825536618E+02  0.00000000000E+00 0. -1.
</event>
<event>
 4    1  0.1571930E+006  0.2485206E+02  0.7546771E-02  0.1470465E+00
         21   -1    0    0  504  501  0.00000000000E+00  0.00000000000E+00  0.41452132123E+02  0.41452132123E+02  0.00000000000E+00 0.  1.
         21   -1    0    0  503  502 -0.00000000000E+00 -0.00000000000E+00 -0.20273181984E+03  0.20273181984E+03  0.00000000000E+00 0. -1.
         21    1    1    2  503  501 -0.22897551803E+02  0.96605919141E+01 -0.19815965284E+03  0.19971197492E+03  0.00000000000E+00 0. -1.
         21    1    1    2  504  502  0.22897551803E+02 -0.96605919141E+01  0.36879965120E+02  0.44471977042E+02  0.00000000000E+00 0.  1.
</event>
<event>
 4    1  0.1571930E+006  0.2117406E+02  0.7546771E-02  0.1516794E+00
         21   -1    0    0  503  501  0.00000000000E+00  0.00000000000E+00  0.33917392714E+02  0.33917392714E+02  0.00000000000E+00 0.  1.
         21   -1    0    0  504  502 -0.00000000000E+00 -0.00000000000E+00 -0.17207501578E+02  0.17207501578E+02  0.00000000000E+00 0.  1.
         21    1    1    2  503  502  0.92635801957E+01  0.19040141690E+02 -0.39525426959E+01  0.21539812148E+02  0.00000000000E+00 0.  1.
         21    1    1    2  504  501 -0.92635801957E+01 -0.19040141690E+02  0.20662433832E+02  0.29585082144E+02  0.00000000000E+00 0.  1.
</event>
<event>
 4    1  0.1571930E+006  0.3217414E+02  0.7546771E-02  0.1401598E+00
         21   -1    0    0  503  501  0.00000000000E+00  0.00000000000E+00  0.82246558546E+01  0.82246558546E+01  0.00000000000E+00 0.  1.
         21   -1    0    0  504  502 -0.00000000000E+00 -0.00000000000E+00 -0.50723845453E+03  0.50723845453E+03  0.00000000000E+00 0. -1.
         21    1    1    2  503  502 -0.15170265218E+02 -0.28373197836E+02 -0.47298665799E+03  0.47407969155E+03  0.00000000000E+00 0. -1.
         21    1    1    2  504  501  0.15170265218E+02  0.28373197836E+02 -0.26027140683E+02  0.41383418834E+02  0.00000000000E+00 0.  1.
</event>
<event>
 4    1  0.1571930E+006  0.2287688E+02  0.7546771E-02  0.1494050E+00
         21   -1    0    0  502  501  0.00000000000E+00  0.00000000000E+00  0.88266117736E+02  0.88266117736E+02  0.00000000000E+00 0. -1.
         21   -1    0    0  504  502 -0.00000000000E+00 -0.00000000000E+00 -0.11443751206E+02  0.11443751206E+02  0.00000000000E+00 0. -1.
         21    1    1    2  503  501 -0.11867095807E+02  0.19558211016E+02  0.73019238626E+02  0.76519022409E+02  0.00000000000E+00 0. -1.
         21    1    1    2  504  503  0.11867095807E+02 -0.19558211016E+02  0.38031279037E+01  0.23190846533E+02  0.00000000000E+00 0. -1.
</event>
<event>
 4    1  0.1571930E+006  0.4225417E+02  0.7546771E-02  0.1335760E+00
         21   -1    0    0  503  501  0.00000000000E+00  0.00000000000E+00  0.10314929306E+02  0.10314929306E+02  0.00000000000E+00 0. -1.
         21   -1    0    0  504  502 -0.00000000000E+00 -0.00000000000E+00 -0.22153661312E+03  0.22153661312E+03  0.00000000000E+00 0.  1.
         21    1    1    2  503  502  0.40883905446E+02 -0.10673381064E+02 -0.51399850240E+02  0.66538405395E+02  0.00000000000E+00 0. -1.
         21    1    1    2  504  501 -0.40883905446E+02  0.10673381064E+02 -0.15982183358E+03  0.16531313703E+03  0.00000000000E+00 0.  1.
</event>
<event>
 4    1  0.1571930E+006  0.2301174E+02  0.7546771E-02  0.1492351E+00
         21   -1    0    0  504  501  0.00000000000E+00  0.00000000000E+00  0.58211660966E+03  0.58211660966E+03  0.00000000000E+00 0. -1.
         21   -1    0    0  501  502 -0.00000000000E+00 -0.00000000000E+00 -0.99786005978E+00  0.99786005978E+00  0.00000000000E+00 0. -1.
         21    1    1    2  503  502 -0.12469756724E+02  0.19340254312E+02  0.20388866184E+03  0.20518315402E+03  0.00000000000E+00 0. -1.
         21    1    1    2  504  503  0.12469756724E+02 -0.19340254312E+02  0.37723008776E+03  0.37793131570E+03  0.00000000000E+00 0. -1.
</event>
<event>
 4    1  0.1571930E+006  0.4348421E+02  0.7546771E-02  0.1329195E+00
         21   -1    0    0  503  501  0.00000000000E+00  0.00000000000E+00  0.22203093223E+03  0.22203093223E+03  0.00000000000E+00 0. -1.
         21   -1    0    0  504  502 -0.00000000000E+00 -0.00000000000E+00 -0.19039825454E+02  0.19039825454E+02  0.00000000000E+00 0. -1.
         21    1    1    2  503  502 -0.45019093609E+01 -0.43250540945E+02  0.11883960042E+02  0.45078875166E+02  0.00000000000E+00 0. -1.
         21    1    1    2  504  501  0.45019093609E+01  0.43250540945E+02  0.19110714673E+03  0.19599188252E+03  0.00000000000E+00 0. -1.
</event>
<event>
 4    1  0.1571930E+006  0.4451487E+02  0.7546771E-02  0.1323883E+00
         21   -1    0    0  504  501  0.00000000000E+00  0.00000000000E+00  0.27263486671E+01  0.27263486671E+01  0.00000000000E+00 0. -1.
         21   -1    0    0  503  502 -0.00000000000E+00 -0.00000000000E+00 -0.20929256289E+04  0.20929256289E+04  0.00000000000E+00 0.  1.
         21    1    1    2  503  501 -0.38346162415E+02 -0.22608517428E+02 -0.18916521720E+04  0.18921758674E+04  0.00000000000E+00 0.  1.
         21    1    1    2  504  502  0.38346162415E+02  0.22608517428E+02 -0.19854710820E+03  0.20347611016E+03  0.00000000000E+00 0. -1.
</event>
<event>
 4    1  0.1571930E+006  0.2149758E+02  0.7546771E-02  0.1512278E+00
         21   -1    0    0  503  501  0.00000000000E+00  0.00000000000E+00  0.77661380538E+01  0.77661380538E+01  0.00000000000E+00 0. -1.
         21   -1    0    0  501  502 -0.00000000000E+00 -0.00000000000E+00 -0.20907637237E+03  0.20907637237E+03  0.00000000000E+00 0.  1.
         21    1    1    2  503  504 -0.98349364305E+01 -0.19115956302E+02 -0.89524150838E+01  0.23287153020E+02  0.00000000000E+00 0. -1.
         21    1    1    2  504  502  0.98349364305E+01  0.19115956302E+02 -0.19235781923E+03  0.19355535740E+03  0.00000000000E+00 0.  1.
</event>
<event>
 4    1  0.1571930E+006  0.3169071E+02  0.7546771E-02  0.1405452E+00
         21   -1    0    0  503  501  0.00000000000E+00  0.00000000000E+00  0.37732628957E+03  0.37732628957E+03  0.00000000000E+00 0. -1.
         21   -1    0    0  501  502 -0.00000000000E+00 -0.00000000000E+00 -0.30094979676E+01  0.30094979676E+01  0.00000000000E+00 0. -1.
         21    1    1    2  503  504  0.30250130714E+02 -0.94461957470E+01  0.25181317231E+03  0.25379947748E+03  0.00000000000E+00 0. -1.
         21    1    1    2  504  502 -0.30250130714E+02  0.94461957470E+01  0.12250361930E+03  0.12653631006E+03  0.00000000000E+00 0. -1.
</event>
<event>
 4    1  0.1571930E+006  0.2110242E+02  0.7546771E-02  0.1517807E+00
         21   -1    0    0  503  501  0.00000000000E+00  0.00000000000E+00  0.17981148022E+02  0.17981148022E+02  0.00000000000E+00 0.  1.
         21   -1    0    0  501  502 -0.00000000000E+00 -0.00000000000E+00 -0.51118898507E+02  0.51118898507E+02  0.00000000000E+00 0. -1.
         21    1    1    2  503  504 -0.17845945497E+02  0.11262085363E+02  0.82382144098E+01  0.22653487901E+02  0.00000000000E+00 0.  1.
         21    1    1    2  504  502  0.17845945497E+02 -0.11262085363E+02 -0.41375964894E+02  0.46446558628E+02  0.00000000000E+00 0. -1.
</event>
<event>
 4    1  0.1571930E+006  0.2024260E+02  0.7546771E-02  0.1530359E+00
         21   -1    0    0  503  501  0.00000000000E+00  0.00000000000E+00  0.33911743185E+03  0.33911743185E+03  0.00000000000E+00 0.  1.
         21   -1    0    0  501  502 -0.00000000000E+00 -0.00000000000E+00 -0.37482186081E+03  0.37482186081E+03  0.00000000000E+00 0. -1.
         21    1    1    2  503  504  0.20218152543E+02 -0.99453152438E+00  0.33854158205E+03  0.33914623036E+03  0.00000000000E+00 0.  1.
         21    1    1    2  504  502 -0.20218152543E+02  0.99453152438E+00 -0.37424601101E+03  0.37479306230E+03  0.00000000000E+00 0. -1.
</event>
<event>
 4    1  0.1571930E+006  0.2534070E+02  0.7546771E-02  0.1465028E+00
         21   -1    0    0  502  501  0.00000000000E+00  0.00000000000E+00  0.18526766408E+02  0.18526766408E+02  0.00000000000E+00 0.  1.
         21   -1    0    0  503  502 -0.00000000000E+00 -0.00000000000E+00 -0.38416757832E+02  0.38416757832E+02  0.00000000000E+00 0.  1.
         21    1    1    2  503  504 -0.25123113475E+02 -0.33136414243E+01 -0.18847639781E+02  0.31581396034E+02  0.00000000000E+00 0.  1.
         21    1    1    2  504  501  0.25123113475E+02  0.33136414243E+01 -0.10423516423E+01  0.25362128206E+02  0.00000000000E+00 0.  1.
</event>
<event>
 4    1  0.1571930E+006  0.2959764E+02  0.7546771E-02  0.1423126E+00
         21   -1    0    0  503  501  0.00000000000E+00  0.00000000000E+00  0.29960039855E+02  0.29960039855E+02  0.00000000000E+00 0.  1.
         21   -1    0    0  504  502 -0.00000000000E+00 -0.00000000000E+00 -0.29746949785E+02  0.29746949785E+02  0.00000000000E+00 0.  1.
         21    1    1    2  503  502  0.15746576169E+02  0.25061238879E+02 -0.37921264745E+01  0.29839580734E+02  0.00000000000E+00 0.  1.
         21    1    1    2  504  501 -0.15746576169E+02 -0.25061238879E+02  0.40052165442E+01  0.29867408906E+02  0.00000000000E+00 0.  1.
</event>
<event>
 4    1  0.1571930E+006  0.2572018E+02  0.7546771E-02  0.1460906E+00
         21   -1    0    0  503  501  0.00000000000E+00  0.00000000000E+00  0.38070786032E+01  0.38070786032E+01  0.00000000000E+00 0.  1.
         21   -1    0    0  504  502 -0.00000000000E+00 -0.00000000000E+00 -0.20289217156E+03  0.20289217156E+03  0.00000000000E+00 0.  1.
         21    1    1    2  503  502  0.23496195307E+02  0.10462151094E+02 -0.13870261651E+03  0.14106715998E+03  0.00000000000E+00 0.  1.
         21    1    1    2  504  501 -0.23496195307E+02 -0.10462151094E+02 -0.60382476454E+02  0.65632090186E+02  0.00000000000E+00 0.  1.
</event>
<event>
 4    1  0.1571930E+006  0.2074643E+02  0.7546771E-02  0.1522916E+00
         21   -1    0    0  502  501  0.00000000000E+00  0.00000000000E+00  0.17701156214E+03  0.17701156214E+03  0.00000000000E+00 0.  1.
         21   -1    0    0  504  502 -0.00000000000E+00 -0.00000000000E+00 -0.80526822440E+01  0.80526822440E+01  0.00000000000E+00 0.  1.
         21    1    1    2  503  501 -0.16662146880E+02 -0.12360704723E+02  0.16178910164E+03  0.16311384849E+03  0.00000000000E+00 0.  1.
         21    1    1    2  504  503  0.16662146880E+02  0.12360704723E+02  0.71697782650E+01  0.21950395902E+02  0.00000000000E+00 0.  1.
</event>
<event>
 4    1  0.1571930E+006  0.2233195E+02  0.7546771E-02  0.1501062E+00
         21   -1    0    0  503  501  0.00000000000E+00  0.00000000000E+00  0.54965133625E+02  0.54965133625E+02  0.00000000000E+00 0.  1.
         21   -1    0    0  504  502 -0.00000000000E+00 -0.00000000000E+00 -0.15424942833E+02  0.15424942833E+02  0.00000000000E+00 0.  1.
         21    1    1    2  503  502 -0.19042087176E+02  0.11666833017E+02 -0.28144896628E+01  0.22508607881E+02  0.00000000000E+00 0.  1.
         21    1    1    2  504  501  0.19042087176E+02 -0.11666833017E+02  0.42354680455E+02  0.47881468577E+02  0.00000000000E+00 0.  1.
</event>
<event>
 4    1  0.1571930E+006  0.4430634E+02  0.7546771E-02  0.1324945E+00
         21   -1    0    0  504  501  0.00000000000E+00  0.00000000000E+00  0.95110706206E+02  0.95110706206E+02  0.00000000000E+00 0. -1.
         21   -1    0    0  503  502 -0.00000000000E+00 -0.00000000000E+00 -0.28783585809E+02  0.28783585809E+02  0.00000000000E+00 0. -1.
         21    1    1    2  503  501  0.15178907743E+02 -0.41625138959E+02  0.66114370307E+02  0.79587444956E+02  0.00000000000E+00 0. -1.
         21    1    1    2  504  502 -0.15178907743E+02  0.41625138959E+02  0.21275009003E+00  0.44306847058E+02  0.00000000000E+00 0. -1.
</event>
<event>
 4    1  0.1571930E+006  0.2155644E+02  0.7546771E-02  0.1511467E+00
         21   -1    0    0  503  501  0.00000000000E+00  0.00000000000E+00  0.21902198820E+03  0.21902198820E+03  0.00000000000E+00 0.  1.
         21   -1    0    0  504  502 -0.00000000000E+00 -0.00000000000E+00 -0.10447816755E+02  0.10447816755E+02  0.00000000000E+00 0.  1.
         21    1    1    2  503  502 -0.57740763435E+01 -0.20768725953E+02  0.18620108364E+01  0.21636705380E+02  0.00000000000E+00 0.  1.
         21    1    1    2  504  501  0.57740763435E+01  0.20768725953E+02  0.20671216061E+03  0.20783309958E+03  0.00000000000E+00 0.  1.
</event>
<event>
 4    1  0.1571930E+006  0.2353881E+02  0.7546771E-02  0.1485841E+00
         21   -1    0    0  503  501  0.00000000000E+00  0.00000000000E+00  0.21880505963E+01  0.21880505963E+01  0.00000000000E+00 0. -1.
         21   -1    0    0  504  502 -0.00000000000E+00 -0.00000000000E+00 -0.28123638174E+03  0.28123638174E+03  0.00000000000E+00 0. -1.
         21    1    1    2  503  502  0.26071471942E+01  0.23393982850E+02 -0.94802739821E+02  0.97681293643E+02  0.00000000000E+00 0. -1.
         21    1    1    2  504  501 -0.26071471942E+01 -0.23393982850E+02 -0.18424559132E+03  0.18574313870E+03  0.00000000000E+00 0. -1.
</event>
<event>
 4    1  0.1571930E+006  0.2058045E+02  0.7546771E-02  0.1525340E+00
         21   -1    0    0  502  501  0.00000000000E+00  0.00000000000E+00  0.47108364335E+01  0.47108364335E+01  0.00000000000E+00 0. -1.
         21   -1    0    0  503  502 -0.00000000000E+00 -0.00000000000E+00 -0.97045150046E+02  0.97045150046E+02  0.00000000000E+00 0.  1.
         21    1    1    2  503  504 -0.19334623595E+02 -0.70517622838E+01 -0.59962121568E+02  0.63395670545E+02  0.00000000000E+00 0.  1.
         21    1    1    2  504  501  0.19334623595E+02  0.70517622838E+01 -0.32372192044E+02  0.38360315935E+02  0.00000000000E+00 0. -1.
</event>
<event>
 4    1  0.1571930E+006  0.2021412E+02  0.7546771E-02  0.1530787E+00
         21   -1    0    0  503  501  0.00000000000E+00  0.00000000000E+00  0.11935857822E+03  0.11935857822E+03  0.00000000000E+00 0.  1.
         21   -1    0    0  504  502 -0.00000000000E+00 -0.00000000000E+00 -0.38749047077E+01  0.38749047077E+01  0.00000000000E+00 0.  1.
         21    1    1    2  503  502  0.18205952062E+02  0.87837293885E+01  0.36708621898E+02  0.41906246719E+02  0.00000000000E+00 0.  1.
         21    1    1    2  504  501 -0.18205952062E+02 -0.87837293885E+01  0.78775051610E+02  0.81327236204E+02  0.00000000000E+00 0.  1.
</event>
<event>
 4    1  0.1571930E+006  0.2129574E+02  0.7546771E-02  0.1515084E+00
         21   -1    0    0  503  501  0.00000000000E+00  0.00000000000E+00  0.61733573774E+01  0.61733573774E+01  0.00000000000E+00 0. -1.
         21   -1    0    0  504  502 -0.00000000000E+00 -0.00000000000E+00 -0.13606037455E+03  0.13606037455E+03  0.00000000000E+00 0. -1.
         21    1    1    2  503  502  0.21261592525E+02 -0.12054522457E+01 -0.16705696316E+02  0.27066376211E+02  0.00000000000E+00 0. -1.
         21    1    1    2  504  501 -0.21261592525E+02  0.12054522457E+01 -0.11318132086E+03  0.11516735572E+03  0.00000000000E+00 0. -1.
</event>
<event>
 4    1  0.1571930E+006  0.2228068E+02  0.7546771E-02  0.1501734E+00
         21   -1    0    0  503  501  0.00000000000E+00  0.00000000000E+00  0.12659600382E+02  0.12659600382E+02  0.00000000000E+00 0.  1.
         21   -1    0    0  504  502 -0.00000000000E+00 -0.00000000000E+00 -0.48161781155E+02  0.48161781155E+02  0.00000000000E+00 0.  1.
         21    1    1    2  503  502 -0.88767535366E+00  0.22262993326E+02 -0.46429296213E+01  0.22759297767E+02  0.00000000000E+00 0.  1.
         21    1    1    2  504  501  0.88767535366E+00 -0.22262993326E+02 -0.30859251151E+02  0.38062083771E+02  0.00000000000E+00 0.  1.
</event>
<event>
 4    1  0.1571930E+006  0.2253068E+02  0.7546771E-02  0.1498477E+00
         21   -1    0    0  504  501  0.00000000000E+00  0.00000000000E+00  0.49614840984E+01  0.49614840984E+01  0.00000000000E+00 0.  1.
         21   -1    0    0  503  502 -0.00000000000E+00 -0.00000000000E+00 -0.10347705109E+03  0.10347705109E+03  0.00000000000E+00 0.  1.
         21    1    1    2  503  501  0.17141848055E+02 -0.14621504129E+02 -0.55004949282E+02  0.59440523074E+02  0.00000000000E+00 0.  1.
         21    1    1    2  504  502 -0.17141848055E+02  0.14621504129E+02 -0.43510617714E+02  0.48998012119E+02  0.00000000000E+00 0.  1.
</event>
<event>
 4    1  0.1571930E+006  0.3562708E+02  0.7546771E-02  0.1376208E+00
         21   -1    0    0  504  501  0.00000000000E+00  0.00000000000E+00  0.28385384663E+02  0.28385384663E+02  0.00000000000E+00 0.  1.
         21   -1    0    0  503  502 -0.00000000000E+00 -0.00000000000E+00 -0.57822544638E+02  0.57822544638E+02  0.00000000000E+00 0.  1.
         21    1    1    2  503  501  0.35170738835E+02 -0.56839830670E+01  0.58028795040E+01  0.36096564161E+02  0.00000000000E+00 0.  1.
         21    1    1    2  504  502 -0.35170738835E+02  0.56839830670E+01 -0.35240039479E+02  0.50111365140E+02  0.00000000000E+00 0.  1.
</event>
<event>
 4    1  0.1571930E+006  0.2381713E+02  0.7546771E-02  0.1482485E+00
         21   -1    0    0  503  501  0.00000000000E+00  0.00000000000E+00  0.10047293749E+04  0.10047293749E+04  0.00000000000E+00 0.  1.
         21   -1    0    0  501  502 -0.00000000000E+00 -0.00000000000E+00 -0.19978396272E+02  0.19978396272E+02  0.00000000000E+00 0.  1.
         21    1    1    2  503  504 -0.22443452459E+02  0.79716438266E+01  0.99743798264E+03  0.99772229847E+03  0.00000000000E+00 0.  1.
         21    1    1    2  504  502  0.22443452459E+02 -0.79716438266E+01 -0.12687004040E+02  0.26985472668E+02  0.00000000000E+00 0.  1.
</event>
<event>
 4    1  0.1571930E+006  0.2934594E+02  0.7546771E-02  0.1425367E+00
         21   -1    0    0  502  501  0.00000000000E+00  0.00000000000E+00  0.18344376883E+03  0.18344376883E+03  0.00000000000E+00 0.  1.
         21   -1    0    0  503  502 -0.00000000000E+00 -0.00000000000E+00 -0.61445925005E+02  0.61445925005E+02  0.00000000000E+00 0. -1.
         21    1    1    2  503  504  0.28274413996E+02 -0.78575799592E+01 -0.56675535113E+02  0.63822412442E+02  0.00000000000E+00 0. -1.
         21    1    1    2  504  501 -0.28274413996E+02  0.78575799592E+01  0.17867337894E+03  0.18106728140E+03  0.00000000000E+00 0.  1.
</event>
<event>
 4    1  0.1571930E+006  0.2141819E+02  0.7546771E-02  0.1513377E+00
         21   -1    0    0  504  501  0.00000000000E+00  0.00000000000E+00  0.55310489927E+02  0.55310489927E+02  0.00000000000E+00 0.  1.
         21   -1    0    0  503  502 -0.00000000000E+00 -0.00000000000E+00 -0.97031399604E+01  0.97031399604E+01  0.00000000000E+00 0.  1.
         21    1    1    2  503  501 -0.39155695688E+01 -0.21057236144E+02  0.10415339555E+02  0.23816342648E+02  0.00000000000E+00 0.  1.
         21    1    1    2  504  502  0.39155695688E+01  0.21057236144E+02  0.35192010411E+02  0.41197287239E+02  0.00000000000E+00 0.  1.
</event>
<event>
 4    1  0.1571930E+006  0.4974908E+02  0.7546771E-02  0.1299264E+00
         21   -1    0    0  504  501  0.00000000000E+00  0.00000000000E+00  0.36790270637E+03  0.36790270637E+03  0.00000000000E+00 0. -1.
         21   -1    0    0  503  502 -0.00000000000E+00 -0.00000000000E+00 -0.11042423241E+02  0.11042423241E+02  0.00000000000E+00 0. -1.
         21    1    1    2  503  501  0.34932899952E+02  0.35421235117E+02  0.59986011449E+02  0.77931334942E+02  0.00000000000E+00 0. -1.
         21    1    1    2  504  502 -0.34932899952E+02 -0.35421235117E+02  0.29687427168E+03  0.30101379467E+03  0.00000000000E+00 0. -1.
</event>
<event>
 4    1  0.1571930E+006  0.3857095E+02  0.7546771E-02  0.1357070E+00
         21   -1    0    0  502  501  0.00000000000E+00  0.00000000000E+00  0.18463154867E+03  0.18463154867E+03  0.00000000000E+00 0.  1.
         21   -1    0    0  504  502 -0.00000000000E+00 -0.00000000000E+00 -0.37071920420E+02  0.37071920420E+02  0.00000000000E+00 0.  1.
         21    1    1    2  503  501 -0.30827375584E+02  0.23181700631E+02  0.17184726560E+03  0.17612268742E+03  0.00000000000E+00 0.  1.
         21    1    1    2  504  503  0.30827375584E+02 -0.23181700631E+02 -0.24287637351E+02  0.45580781669E+02  0.00000000000E+00 0.  1.
</event>
<event>
 4    1  0.1571930E+006  0.3104958E+02  0.7546771E-02  0.1410690E+00
         21   -1    0    0  503  501  0.00000000000E+00  0.00000000000E+00  0.30326652019E+01  0.30326652019E+01  0.00000000000E+00 0. -1.
         21   -1    0    0  501  502 -0.00000000000E+00 -0.00000000000E+00 -0.35653988313E+03  0.35653988313E+03  0.00000000000E+00 0. -1.
         21    1    1    2  503  504 -0.26441955676E+02  0.16275729813E+02 -0.11756543348E+03  0.12159649481E+03  0.00000000000E+00 0. -1.
         21    1    1    2  504  502  0.26441955676E+02 -0.16275729813E+02 -0.23594178445E+03  0.23797605352E+03  0.00000000000E+00 0. -1.
</event>
<event>
 4    1  0.1571930E+006  0.2480404E+02  0.7546771E-02  0.1471008E+00
         21   -1    0    0  502  501  0.00000000000E+00  0.00000000000E+00  0.72761885928E+03  0.72761885928E+03  0.00000000000E+00 0. -1.
         21   -1    0    0  503  502 -0.00000000000E+00 -0.00000000000E+00 -0.72582076906E+01  0.72582076906E+01  0.00000000000E+00 0.  1.
         21    1    1    2  503  504  0.13895371011E+02  0.20546507037E+02  0.14806889356E+02  0.28887441205E+02  0.00000000000E+00 0.  1.
         21    1    1    2  504  501 -0.13895371011E+02 -0.20546507037E+02  0.70555376223E+03  0.70598962576E+03  0.00000000000E+00 0. -1.
</event>
<event>
 4    1  0.1571930E+006  0.2446376E+02  0.7546771E-02  0.1474893E+00
         21   -1    0    0  502  501  0.00000000000E+00  0.00000000000E+00  0.20731093719E+02  0.20731093719E+02  0.00000000000E+00 0.  1.
         21   -1    0    0  504  502 -0.00000000000E+00 -0.00000000000E+00 -0.38440251114E+02  0.38440251114E+02  0.00000000000E+00 0. -1.
         21    1    1    2  503  501 -0.24443802225E+02 -0.98793290097E+00  0.59087450926E+01  0.25167215722E+02  0.00000000000E+00 0.  1.
         21    1    1    2  504  503  0.24443802225E+02  0.98793290097E+00 -0.23617902488E+02  0.34004129110E+02  0.00000000000E+00 0. -1.
</event>
<event>
 4    1  0.1571930E+006  0.2479252E+02  0.7546771E-02  0.1471138E+00
         21   -1    0    0  503  501  0.00000000000E+00  0.00000000000E+00  0.71980557043E+03  0.71980557043E+03  0.00000000000E+00 0. -1.
         21   -1    0    0  504  502 -0.00000000000E+00 -0.00000000000E+00 -0.10614154742E+02  0.10614154742E+02  0.00000000000E+00 0.  1.
         21    1    1    2  503  502 -0.23832002900E+02 -0.68340950823E+01  0.70480649922E+03  0.70524241972E+03  0.00000000000E+00 0. -1.
         21    1    1    2  504  501  0.23832002900E+02  0.68340950823E+01  0.43849164667E+01  0.25177305460E+02  0.00000000000E+00 0.  1.
</event>
<event>
 4    1  0.1571930E+006  0.4421418E+02  0.7546771E-02  0.1325416E+00
         21   -1    0    0  503  501  0.00000000000E+00  0.00000000000E+00  0.72011979656E+03  0.72011979656E+03  0.00000000000E+00 0. -1.
         21   -1    0    0  504  502 -0.00000000000E+00 -0.00000000000E+00 -0.95214284183E+01  0.95214284183E+01  0.00000000000E+00 0. -1.
         21    1    1    2  503  502 -0.44048772284E+02  0.38209079195E+01  0.46839638478E+02  0.64411531652E+02  0.00000000000E+00 0. -1.
         21    1    1    2  504  501  0.44048772284E+02 -0.38209079195E+01  0.66375872966E+03  0.66522969333E+03  0.00000000000E+00 0. -1.
</event>
<event>
 4    1  0.1571930E+006  0.2483756E+02  0.7546771E-02  0.1470629E+00
         21   -1    0    0  502  501  0.00000000000E+00  0.00000000000E+00  0.11485959705E+03  0.11485959705E+03  0.00000000000E+00 0.  1.
         21   -1    0    0  504  502 -0.00000000000E+00 -0.00000000000E+00 -0.28618037674E+02  0.28618037674E+02  0.00000000000E+00 0. -1.
         21    1    1    2  503  501 -0.22799042372E+02  0.98543311024E+01  0.10777824027E+03  0.11060313400E+03  0.00000000000E+00 0.  1.
         21    1    1    2  504  503  0.22799042372E+02 -0.98543311024E+01 -0.21536680889E+02  0.32874500731E+02  0.00000000000E+00 0. -1.
</event>
<event>
 4    1  0.1571930E+006  0.2428991E+02  0.7546771E-02  0.1476906E+00
         21   -1    0    0  504  501  0.00000000000E+00  0.00000000000E+00  0.28650658447E+03  0.28650658447E+03  0.00000000000E+00 0.  1.
         21   -1    0    0  503  502 -0.00000000000E+00 -0.00000000000E+00 -0.96293479887E+01  0.96293479887E+01  0.00000000000E+00 0. -1.
         21    1    1    2  503  501  0.23760154083E+02  0.50452954609E+01  0.71544686915E+01  0.25321657738E+02  0.00000000000E+00 0. -1.
         21    1    1    2  504  502 -0.23760154083E+02 -0.50452954609E+01  0.26972276779E+03  0.27081427472E+03  0.00000000000E+00 0.  1.
</event>
<event>
 4    1  0.1571930E+006  0.2175450E+02  0.7546771E-02  0.1508760E+00
         21   -1    0    0  504  501  0.00000000000E+00  0.00000000000E+00  0.28028112429E+02  0.28028112429E+02  0.00000000000E+00 0.  1.
         21   -1    0    0  501  502 -0.00000000000E+00 -0.00000000000E+00 -0.25776322464E+03  0.25776322464E+03  0.00000000000E+00 0. -1.
         21    1    1    2  503  502  0.21684143665E+02 -0.17481598642E+01 -0.25300367369E+03  0.25393723053E+03  0.00000000000E+00 0. -1.
         21    1    1    2  504  503 -0.21684143665E+02  0.17481598642E+01  0.23268561484E+02  0.31854106532E+02  0.00000000000E+00 0.  1.
</event>
<event>
 4    1  0.1571930E+006  0.2883615E+02  0.7546771E-02  0.1429987E+00
         21   -1    0    0  504  501  0.00000000000E+00  0.00000000000E+00  0.90995816647E+02  0.90995816647E+02  0.00000000000E+00 0.  1.
         21   -1    0    0  501  502 -0.00000000000E+00 -0.00000000000E+00 -0.24584825118E+02  0.24584825118E+02  0.00000000000E+00 0. -1.
         21    1    1    2  503  502  0.14583766049E+02  0.24876440103E+02 -0.12602425327E+02  0.31469741475E+02  0.00000000000E+00 0. -1.
         21    1    1    2  504  503 -0.14583766049E+02 -0.24876440103E+02  0.79013416856E+02  0.84110900290E+02  0.00000000000E+00 0.  1.
</event>
<event>
 4    1  0.1571930E+006  0.2391258E+02  0.7546771E-02  0.1481346E+00
         21   -1    0    0  504  501  0.00000000000E+00  0.00000000000E+00  0.37445911808E+01  0.37445911808E+01  0.00000000000E+00 0. -1.
         21   -1    0    0  503  502 -0.00000000000E+00 -0.00000000000E+00 -0.40754120301E+03  0.40754120301E+03  0.00000000000E+00 0. -1.
         21    1    1    2  503  501 -0.23754913078E+02  0.27414770723E+01 -0.36451305249E+03  0.36529656038E+03  0.00000000000E+00 0. -1.
         21    1    1    2  504  502  0.23754913078E+02 -0.27414770723E+01 -0.39283559339E+02  0.45989233808E+02  0.00000000000E+00 0. -1.
</event>
<event>
 4    1  0.1571930E+006  0.3974063E+02  0.7546771E-02  0.1350012E+00
         21   -1    0    0  504  501  0.00000000000E+00  0.00000000000E+00  0.31481960938E+02  0.31481960938E+02  0.00000000000E+00 0. -1.
         21   -1    0    0  501  502 -0.00000000000E+00 -0.00000000000E+00 -0.17968529253E+03  0.17968529253E+03  0.00000000000E+00 0. -1.
         21    1    1    2  503  502 -0.35582699026E+02 -0.17697154880E+02 -0.16374291024E+03  0.16849646410E+03  0.00000000000E+00 0. -1.
         21    1    1    2  504  503  0.35582699026E+02  0.17697154880E+02  0.15539578647E+02  0.42670789369E+02  0.00000000000E+00 0. -1.
</event>
<event>
 4    1  0.1571930E+006  0.2715917E+02  0.7546771E-02  0.1446016E+00
         21   -1    0    0  503  501  0.00000000000E+00  0.00000000000E+00  0.32042726747E+02  0.32042726747E+02  0.00000000000E+00 0.  1.
         21   -1    0    0  504  502 -0.00000000000E+00 -0.00000000000E+00 -0.41568472346E+02  0.41568472346E+02  0.00000000000E+00 0.  1.
         21    1    1    2  503  502  0.18999476661E+02 -0.19407219226E+02  0.19823085626E+02  0.33624024078E+02  0.00000000000E+00 0.  1.
         21    1    1    2  504  501 -0.18999476661E+02  0.19407219226E+02 -0.29348831225E+02  0.39987175016E+02  0.00000000000E+00 0.  1.
</event>
<event>
 4    1  0.1571930E+006  0.2222886E+02  0.7546771E-02  0.1502415E+00
         21   -1    0    0  503  501  0.00000000000E+00  0.00000000000E+00  0.12123661883E+03  0.12123661883E+03  0.00000000000E+00 0. -1.
         21   -1    0    0  504  502 -0.00000000000E+00 -0.00000000000E+00 -0.57173812683E+01  0.57173812683E+01  0.00000000000E+00 0. -1.
         21    1    1    2  503  502 -0.21778923665E+02 -0.44498025801E+01  0.23745107720E+02  0.32526180219E+02  0.00000000000E+00 0. -1.
         21    1    1    2  504  501  0.21778923665E+02  0.44498025801E+01  0.91774129845E+02  0.94427819883E+02  0.00000000000E+00 0. -1.
</event>
<event>
 4    1  0.1571930E+006  0.3314445E+02  0.7546771E-02  0.1394099E+00
         21   -1    0    0  503  501  0.00000000000E+00  0.00000000000E+00  0.24803889219E+03  0.24803889219E+03  0.00000000000E+00 0.  1.
         21   -1    0    0  501  502 -0.00000000000E+00 -0.00000000000E+00 -0.31489854903E+02  0.31489854903E+02  0.00000000000E+00 0. -1.
         21    1    1    2  503  504  0.31854610632E+02  0.91563223059E+01  0.23783788568E+03  0.24013624117E+03  0.00000000000E+00 0.  1.
         21    1    1    2  504  502 -0.31854610632E+02 -0.91563223059E+01 -0.21288848398E+02  0.39392505922E+02  0.00000000000E+00 0. -1.
</event>
<event>
 4    1  0.1571930E+006  0.5453185E+02  0.7546771E-02  0.1279635E+00
         21   -1    0    0  504  501  0.00000000000E+00  0.00000000000E+00  0.54606878541E+02  0.54606878541E+02  0.00000000000E+00 0. -1.
         21   -1    0    0  503  502 -0.00000000000E+00 -0.00000000000E+00 -0.76330861699E+02  0.76330861699E+02  0.00000000000E+00 0. -1.
         21    1    1    2  503  501 -0.54442675348E+02  0.31173082363E+01 -0.45908783603E+02  0.71283510867E+02  0.00000000000E+00 0. -1.
         21    1    1    2  504  502  0.54442675348E+02 -0.31173082363E+01  0.24184800445E+02  0.59654229374E+02  0.00000000000E+00 0. -1.
</event>
<event>
 4    1  0.1571930E+006  0.2219521E+02  0.7546771E-02  0.1502859E+00
         21   -1    0    0  503  501  0.00000000000E+00  0.00000000000E+00  0.43212822334E+02  0.43212822334E+02  0.00000000000E+00 0. -1.
         21   -1    0    0  504  502 -0.00000000000E+00 -0.00000000000E+00 -0.13266844949E+02  0.13266844949E+02  0.00000000000E+00 0. -1.
         21    1    1    2  503  502 -0.21522685015E+02  0.54223236959E+01  0.43797516518E+01  0.22623213499E+02  0.00000000000E+00 0. -1.
         21    1    1    2  504  501  0.21522685015E+02 -0.54223236959E+01  0.25566225734E+02  0.33856453784E+02  0.00000000000E+00 0. -1.
</event>
<event>
 4    1  0.1571930E+006  0.2736082E+02  0.7546771E-02  0.1444017E+00
         21   -1    0    0  503  501  0.00000000000E+00  0.00000000000E+00  0.18130835263E+03  0.18130835263E+03  0.00000000000E+00 0.  1.
         21   -1    0    0  504  502 -0.00000000000E+00 -0.00000000000E+00 -0.12255335007E+02  0.12255335007E+02  0.00000000000E+00 0.  1.
         21    1    1    2  503  502 -0.14579045992E+02  0.23153097045E+02  0.57167870317E+01  0.27951675063E+02  0.00000000000E+00 0.  1.
         21    1    1    2  504  501  0.14579045992E+02 -0.23153097045E+02  0.16333623059E+03  0.16561201257E+03  0.00000000000E+00 0.  1.
</event>
<event>
 4    1  0.1571930E+006  0.3389516E+02  0.7546771E-02  0.1388501E+00
         21   -1    0    0  504  501  0.00000000000E+00  0.00000000000E+00  0.62357442921E+02  0.62357442921E+02  0.00000000000E+00 0. -1.
         21   -1    0    0  503  502 -0.00000000000E+00 -0.00000000000E+00 -0.28480104995E+02  0.28480104995E+02  0.00000000000E+00 0.  1.
         21    1    1    2  503  501  0.94752886122E+01  0.32543830277E+02  0.43927034598E+02  0.55483928772E+02  0.00000000000E+00 0. -1.
         21    1    1    2  504  502 -0.94752886122E+01 -0.32543830277E+02 -0.10049696672E+02  0.35353619144E+02  0.00000000000E+00 0.  1.
</event>
<event>
 4    1  0.1571930E+006  0.2104112E+02  0.7546771E-02  0.1518678E+00
         21   -1    0    0  504  501  0.00000000000E+00  0.00000000000E+00  0.11502353713E+03  0.11502353713E+03  0.00000000000E+00 0.  1.
         21   -1    0    0  501  502 -0.00000000000E+00 -0.00000000000E+00 -0.80693791861E+01  0.80693791861E+01  0.00000000000E+00 0.  1.
         21    1    1    2  503  502  0.83376861345E+01 -0.19318691461E+02  0.89671108111E+01  0.22872208597E+02  0.00000000000E+00 0.  1.
         21    1    1    2  504  503 -0.83376861345E+01  0.19318691461E+02  0.97987047136E+02  0.10022070772E+03  0.00000000000E+00 0.  1.
</event>
<event>
 4    1  0.1571930E+006  0.2247145E+02  0.7546771E-02  0.1499244E+00
         21   -1    0    0  504  501  0.00000000000E+00  0.00000000000E+00  0.33825860907E+02  0.33825860907E+02  0.00000000000E+00 0. -1.
         21   -1    0    0  503  502 -0.00000000000E+00 -0.00000000000E+00 -0.29278013162E+02  0.29278013162E+02  0.00000000000E+00 0. -1.
         21    1    1    2  503  501 -0.46402089469E+01 -0.21987144268E+02  0.24362885008E+02  0.33143871501E+02  0.00000000000E+00 0. -1.
         21    1    1    2  504  502  0.46402089469E+01  0.21987144268E+02 -0.19815037264E+02  0.29960002569E+02  0.00000000000E+00 0. -1.
</event>
<event>
 4    1  0.1571930E+006  0.3755072E+02  0.7546771E-02  0.1363469E+00
         21   -1    0    0  502  501  0.00000000000E+00  0.00000000000E+00  0.85091142377E+01  0.85091142377E+01  0.00000000000E+00 0.  1.
         21   -1    0    0  504  502 -0.00000000000E+00 -0.00000000000E+00 -0.21744548653E+03  0.21744548653E+03  0.00000000000E+00 0.  1.
         21    1    1    2  503  501 -0.25570655153E+02 -0.27499059679E+02 -0.49361454302E+02  0.62021043678E+02  0.00000000000E+00 0.  1.
         21    1    1    2  504  503  0.25570655153E+02  0.27499059679E+02 -0.15957491799E+03  0.16393355708E+03  0.00000000000E+00 0.  1.
</event>
<event>
 4    1  0.1571930E+006  0.2946522E+02  0.7546771E-02  0.1424301E+00
         21   -1    0    0  503  501  0.00000000000E+00  0.00000000000E+00  0.21675762213E+01  0.21675762213E+01  0.00000000000E+00 0.  1.
         21   -1    0    0  504  502 -0.00000000000E+00 -0.00000000000E+00 -0.40512070722E+03  0.40512070722E+03  0.00000000000E+00 0.  1.
         21    1    1    2  503  502 -0.27626099390E+02 -0.10246844289E+02 -0.22313291266E+03  0.22506998000E+03  0.00000000000E+00 0.  1.
         21    1    1    2  504  501  0.27626099390E+02  0.10246844289E+02 -0.17982021834E+03  0.18221830344E+03  0.00000000000E+00 0.  1.
</event>
<event>
 4    1  0.1571930E+006  0.2025337E+02  0.7546771E-02  0.1530197E+00
         21   -1    0    0  502  501  0.00000000000E+00  0.00000000000E+00  0.43976013492E+01  0.43976013492E+01  0.00000000000E+00 0. -1.
         21   -1    0    0  503  502 -0.00000000000E+00 -0.00000000000E+00 -0.11027487001E+03  0.11027487001E+03  0.00000000000E+00 0.  1.
         21    1    1    2  503  504  0.19912254910E+02 -0.37014784692E+01 -0.75448721547E+02  0.78119833727E+02  0.00000000000E+00 0. -1.
         21    1    1    2  504  501 -0.19912254910E+02  0.37014784692E+01 -0.30428547117E+02  0.36552637635E+02  0.00000000000E+00 0.  1.
</event>
<event>
 4    1  0.1571930E+006  0.2373957E+02  0.7546771E-02  0.1483414E+00
         21   -1    0    0  502  501  0.00000000000E+00  0.00000000000E+00  0.22413676713E+02  0.22413676713E+02  0.00000000000E+00 0.  1.
         21   -1    0    0  504  502 -0.00000000000E+00 -0.00000000000E+00 -0.12605261498E+03  0.12605261498E+03  0.00000000000E+00 0.  1.
         21    1    1    2  503  501  0.16573581937E+02 -0.16996580318E+02  0.14598602533E+02  0.27869096804E+02  0.00000000000E+00 0.  1.
         21    1    1    2  504  503 -0.16573581937E+02  0.16996580318E+02 -0.11823754080E+03  0.12059719489E+03  0.00000000000E+00 0.  1.
</event>
<event>
 4    1  0.1571930E+006  0.2195415E+02  0.7546771E-02  0.1506066E+00
         21   -1    0    0  504  501  0.00000000000E+00  0.00000000000E+00  0.71202479045E+02  0.71202479045E+02  0.00000000000E+00 0. -1.
         21   -1    0    0  501  502 -0.00000000000E+00 -0.00000000000E+00 -0.19039390051E+02  0.19039390051E+02  0.00000000000E+00 0. -1.
         21    1    1    2  503  502 -0.21808401537E+02 -0.25255450216E+01 -0.10140835577E+02  0.24183078825E+02  0.00000000000E+00 0. -1.
         21    1    1    2  504  503  0.21808401537E+02  0.25255450216E+01  0.62303924571E+02  0.66058790271E+02  0.00000000000E+00 0. -1.
</event>
<event>
 4    1  0.1571930E+006  0.2228516E+02  0.7546771E-02  0.1501675E+00
         21   -1    0    0  504  501  0.00000000000E+00  0.00000000000E+00  0.25972748315E+02  0.25972748315E+02  0.00000000000E+00 0.  1.
         21   -1    0    0  501  502 -0.00000000000E+00 -0.00000000000E+00 -0.52377607067E+02  0.52377607067E+02  0.00000000000E+00 0. -1.
         21    1    1    2  503  502 -0.21963248971E+02  0.37741560525E+01 -0.44418353989E+02  0.49695258630E+02  0.00000000000E+00 0. -1.
         21    1    1    2  504  503  0.21963248971E+02 -0.37741560525E+01  0.18013495236E+02  0.28655096752E+02  0.00000000000E+00 0.  1.
</event>
<event>
 4    1  0.1571930E+006  0.2920716E+02  0.7546771E-02  0.1426614E+00
         21   -1    0    0  504  501  0.00000000000E+00  0.00000000000E+00  0.77522563958E+03  0.77522563958E+03  0.00000000000E+00 0. -1.
         21   -1    0    0  503  502 -0.00000000000E+00 -0.00000000000E+00 -0.25523936836E+01  0.25523936836E+01  0.00000000000E+00 0.  1.
         21    1    1    2  503  501 -0.18602244088E+02  0.22516985221E+02  0.93021641127E+02  0.97499147825E+02  0.00000000000E+00 0.  1.
         21    1    1    2  504  502  0.18602244088E+02 -0.22516985221E+02  0.67965160477E+03  0.68027888544E+03  0.00000000000E+00 0. -1.
</event>
<event>
 4    1  0.1571930E+006  0.2472939E+02  0.7546771E-02  0.1471854E+00
         21   -1    0    0  502  501  0.00000000000E+00  0.00000000000E+00  0.66824704777E+02  0.66824704777E+02  0.00000000000E+00 0.  1.
         21   -1    0    0  503  502 -0.00000000000E+00 -0.00000000000E+00 -0.11012285349E+02  0.11012285349E+02  0.00000000000E+00 0.  1.
         21    1    1    2  503  504  0.20615810696E+02 -0.13657644583E+02  0.11908001282E+02  0.27447101864E+02  0.00000000000E+00 0.  1.
         21    1    1    2  504  501 -0.20615810696E+02  0.13657644583E+02  0.43904418147E+02  0.50389888262E+02  0.00000000000E+00 0.  1.
</event>
<event>
 4    1  0.1571930E+006  0.2143269E+02  0.7546771E-02  0.1513176E+00
         21   -1    0    0  503  501  0.00000000000E+00  0.00000000000E+00  0.23472320205E+03  0.23472320205E+03  0.00000000000E+00 0. -1.
         21   -1    0    0  504  502 -0.00000000000E+00 -0.00000000000E+00 -0.77331260476E+01  0.77331260476E+01  0.00000000000E+00 0.  1.
         21    1    1    2  503  502 -0.91923152229E+01 -0.19361344123E+02  0.87235303471E+01  0.23140014847E+02  0.00000000000E+00 0.  1.
         21    1    1    2  504  501  0.91923152229E+01  0.19361344123E+02  0.21826654566E+03  0.21931631325E+03  0.00000000000E+00 0. -1.
</event>
<event>
 4    1  0.1571930E+006  0.5324895E+02  0.7546771E-02  0.1284669E+00
         21   -1    0    0  503  501  0.00000000000E+00  0.00000000000E+00  0.26969942222E+03  0.26969942222E+03  0.00000000000E+00 0. -1.
         21   -1    0    0  504  502 -0.00000000000E+00 -0.00000000000E+00 -0.14225364915E+02  0.14225364915E+02  0.00000000000E+00 0. -1.
         21    1    1    2  503  502  0.25548458121E+01  0.53187627836E+02  0.55219159210E+02  0.76711189117E+02  0.00000000000E+00 0. -1.
         21    1    1    2  504  501 -0.25548458121E+01 -0.53187627836E+02  0.20025489810E+03  0.20721359802E+03  0.00000000000E+00 0. -1.
</event>
<event>
 4    1  0.1571930E+006  0.2053955E+02  0.7546771E-02  0.1525942E+00
         21   -1    0    0  502  501  0.00000000000E+00  0.00000000000E+00  0.10725270415E+03  0.10725270415E+03  0.00000000000E+00 0. -1.
         21   -1    0    0  503  502 -0.00000000000E+00 -0.00000000000E+00 -0.11875490679E+02  0.11875490679E+02  0.00000000000E+00 0.  1.
         21    1    1    2  503  504 -0.16850529289E+02 -0.11744476914E+02 -0.10221477091E+01  0.20564966843E+02  0.00000000000E+00 0.  1.
         21    1    1    2  504  501  0.16850529289E+02  0.11744476914E+02  0.96399361181E+02  0.98563227988E+02  0.00000000000E+00 0. -1.
</event>
<event>
 4    1  0.1571930E+006  0.2588803E+02  0.7546771E-02  0.1459110E+00
         21   -1    0    0  504  501  0.00000000000E+00  0.00000000000E+00  0.10973710785E+03  0.10973710785E+03  0.00000000000E+00 0.  1.
         21   -1    0    0  503  502 -0.00000000000E+00 -0.00000000000E+00 -0.69677317510E+01  0.69677317510E+01  0.00000000000E+00 0.  1.
         21    1    1    2  503  501  0.21055441268E+02  0.15061815233E+02  0.71891055925E+02  0.76410168218E+02  0.00000000000E+00 0.  1.
         21    1    1    2  504  502 -0.21055441268E+02 -0.15061815233E+02  0.30878320173E+02  0.40294671382E+02  0.00000000000E+00 0.  1.
</event>
<event>
 4    1  0.1571930E+006  0.2189475E+02  0.7546771E-02  0.1506864E+00
         21   -1    0    0  504  501  0.00000000000E+00  0.00000000000E+00  0.17363276396E+04  0.17363276396E+04  0.00000000000E+00 0.  1.
         21   -1    0    0  503  502 -0.00000000000E+00 -0.00000000000E+00 -0.27680053357E+00  0.27680053357E+00  0.00000000000E+00 0. -1.
         21    1    1    2  503  501  0.19917269768E+02 -0.90929786651E+01  0.82398287791E+03  0.82427371849E+03  0.00000000000E+00 0.  1.
         21    1    1    2  504  502 -0.19917269768E+02  0.90929786651E+01  0.91206796117E+03  0.91233072166E+03  0.00000000000E+00 0. -1.
</event>
<event>
 4    1  0.1571930E+006  0.2298554E+02  0.7546771E-02  0.1492680E+00
         21   -1    0    0  503  501  0.00000000000E+00  0.00000000000E+00  0.10258686142E+02  0.10258686142E+02  0.00000000000E+00 0. -1.
         21   -1    0    0  504  502 -0.00000000000E+00 -0.00000000000E+00 -0.75426863276E+02  0.75426863276E+02  0.00000000000E+00 0. -1.
         21    1    1    2  503  502 -0.70774465719E+01 -0.21868813375E+02 -0.56713461029E+02  0.61194378094E+02  0.00000000000E+00 0. -1.
         21    1    1    2  504  501  0.70774465719E+01  0.21868813375E+02 -0.84547161051E+01  0.24491171324E+02  0.00000000000E+00 0. -1.
</event>
<event>
 4    1  0.1571930E+006  0.2222772E+02  0.7546771E-02  0.1502430E+00
         21   -1    0    0  503  501  0.00000000000E+00  0.00000000000E+00  0.50222693239E+03  0.50222693239E+03  0.00000000000E+00 0.  1.
         21   -1    0    0  504  502 -0.00000000000E+00 -0.00000000000E+00 -0.11411061127E+01  0.11411061127E+01  0.00000000000E+00 0. -1.
         21    1    1    2  503  502 -0.19895019088E+02  0.99126168655E+01  0.15708460566E+03  0.15864944088E+03  0.00000000000E+00 0. -1.
         21    1    1    2  504  501  0.19895019088E+02 -0.99126168655E+01  0.34400122061E+03  0.34471859761E+03  0.00000000000E+00 0.  1.
</event>
<event>
 4    1  0.1571930E+006  0.3481361E+02  0.7546771E-02  0.1381878E+00
         21   -1    0    0  504  501  0.00000000000E+00  0.00000000000E+00  0.18379323789E+03  0.18379323789E+03  0.00000000000E+00 0. -1.
         21   -1    0    0  503  502 -0.00000000000E+00 -0.00000000000E+00 -0.66000114681E+01  0.66000114681E+01  0.00000000000E+00 0. -1.
         21    1    1    2  503  501 -0.44250422616E+01 -0.34531242880E+02  0.85796174061E+02  0.92590340843E+02  0.00000000000E+00 0. -1.
         21    1    1    2  504  502  0.44250422616E+01  0.34531242880E+02  0.91397052360E+02  0.97802908514E+02  0.00000000000E+00 0. -1.
</event>
<event>
 4    1  0.1571930E+006  0.2204993E+02  0.7546771E-02  0.1504786E+00
         21   -1    0    0  502  501  0.00000000000E+00  0.00000000000E+00  0.14230402819E+02  0.14230402819E+02  0.00000000000E+00 0.  1.
         21   -1    0    0  503  502 -0.00000000000E+00 -0.00000000000E+00 -0.35206391518E+02  0.35206391518E+02  0.00000000000E+00 0.  1.
         21    1    1    2  503  504 -0.19041819831E+02  0.11117931874E+02 -0.14736718478E+02  0.26521127109E+02  0.00000000000E+00 0.  1.
         21    1    1    2  504  501  0.19041819831E+02 -0.11117931874E+02 -0.62392702220E+01  0.22915667228E+02  0.00000000000E+00 0.  1.
</event>
<event>
 4    1  0.1571930E+006  0.2335579E+02  0.7546771E-02  0.1488078E+00
         21   -1    0    0  504  501  0.00000000000E+00  0.00000000000E+00  0.22640999111E+02  0.22640999111E+02  0.00000000000E+00 0. -1.
         21   -1    0    0  501  502 -0.00000000000E+00 -0.00000000000E+00 -0.70107030040E+02  0.70107030040E+02  0.00000000000E+00 0. -1.
         21    1    1    2  503  502 -0.19098581495E+02 -0.13443854816E+02 -0.61302767182E+02  0.65601237120E+02  0.00000000000E+00 0. -1.
         21    1    1    2  504  503  0.19098581495E+02  0.13443854816E+02  0.13836736254E+02  0.27146792031E+02  0.00000000000E+00 0. -1.
</event>
<event>
 4    1  0.1571930E+006  0.2036837E+02  0.7546771E-02  0.1528477E+00
         21   -1    0    0  503  501  0.00000000000E+00  0.00000000000E+00  0.24213498810E+02  0.24213498810E+02  0.00000000000E+00 0.  1.
         21   -1    0    0  504  502 -0.00000000000E+00 -0.00000000000E+00 -0.11305237010E+03  0.11305237010E+03  0.00000000000E+00 0. -1.
         21    1    1    2  503  502  0.38561707862E+01  0.20000008063E+02  0.18799033409E+02  0.27717756633E+02  0.00000000000E+00 0.  1.
         21    1    1    2  504  501 -0.38561707862E+01 -0.20000008063E+02 -0.10763790470E+03  0.10954811228E+03  0.00000000000E+00 0. -1.
</event>
<event>
 4    1  0.1571930E+006  0.2485546E+02  0.7546771E-02  0.1470427E+00
         21   -1    0    0  504  501  0.00000000000E+00  0.00000000000E+00  0.41006659084E+02  0.41006659084E+02  0.00000000000E+00 0. -1.
         21   -1    0    0  501  502 -0.00000000000E+00 -0.00000000000E+00 -0.38049451982E+03  0.38049451982E+03  0.00000000000E+00 0.  1.
         21    1    1    2  503  502  0.82957628272E+01 -0.23430200765E+02 -0.37628004039E+03  0.37710006999E+03  0.00000000000E+00 0.  1.
         21    1    1    2  504  503 -0.82957628272E+01  0.23430200765E+02  0.36792179658E+02  0.44401108913E+02  0.00000000000E+00 0. -1.
</event>
<event>
 4    1  0.1571930E+006  0.2341515E+02  0.7546771E-02  0.1487350E+00
         21   -1    0    0  502  501  0.00000000000E+00  0.00000000000E+00  0.19927036155E+03  0.19927036155E+03  0.00000000000E+00 0.  1.
         21   -1    0    0  503  502 -0.00000000000E+00 -0.00000000000E+00 -0.10736270052E+02  0.10736270052E+02  0.00000000000E+00 0.  1.
         21    1    1    2  503  504  0.18733644991E+02  0.14047052890E+02  0.37124116848E+01  0.23707617975E+02  0.00000000000E+00 0.  1.
         21    1    1    2  504  501 -0.18733644991E+02 -0.14047052890E+02  0.18482167981E+03  0.18629901363E+03  0.00000000000E+00 0.  1.
</event>
<event>
 4    1  0.1571930E+006  0.2499282E+02  0.7546771E-02  0.1468884E+00
         21   -1    0    0  502  501  0.00000000000E+00  0.00000000000E+00  0.71296974556E+01  0.71296974556E+01  0.00000000000E+00 0.  1.
         21   -1    0    0  503  502 -0.00000000000E+00 -0.00000000000E+00 -0.51061223704E+03  0.51061223704E+03  0.00000000000E+00 0.  1.
         21    1    1    2  503  504  0.24968727440E+02  0.10971836102E+01 -0.48735927057E+03  0.48799969239E+03  0.00000000000E+00 0.  1.
         21    1    1    2  504  501 -0.24968727440E+02 -0.10971836102E+01 -0.16123269017E+02  0.29742242108E+02  0.00000000000E+00 0.  1.
</event>
<event>
 4    1  0.1571930E+006  0.2135205E+02  0.7546771E-02  0.1514297E+00
         21   -1    0    0  504  501  0.00000000000E+00  0.00000000000E+00  0.13894159260E+04  0.13894159260E+04  0.00000000000E+00 0.  1.
         21   -1    0    0  503  502 -0.00000000000E+00 -0.00000000000E+00 -0.80998918259E+00  0.80998918259E+00  0.00000000000E+00 0. -1.
         21    1    1    2  503  501  0.97739929296E+01 -0.18983653039E+02  0.15816627799E+03  0.15960100725E+03  0.00000000000E+00 0. -1.
         21    1    1    2  504  502 -0.97739929296E+01  0.18983653039E+02  0.12304396589E+04  0.12306249080E+04  0.00000000000E+00 0.  1.
</event>
<event>
 4    1  0.1571930E+006  0.2048742E+02  0.7546771E-02  0.1526711E+00
         21   -1    0    0  502  501  0.00000000000E+00  0.00000000000E+00  0.18331431703E+01  0.18331431703E+01  0.00000000000E+00 0.  1.
         21   -1    0    0  504  502 -0.00000000000E+00 -0.00000000000E+00 -0.66263076225E+03  0.66263076225E+03  0.00000000000E+00 0. -1.
         21    1    1    2  503  501 -0.12282968476E+02  0.16397041298E+02 -0.61628800070E+02  0.64944924944E+02  0.00000000000E+00 0.  1.
         21    1    1    2  504  503  0.12282968476E+02 -0.16397041298E+02 -0.59916881901E+03  0.59951898048E+03  0.00000000000E+00 0. -1.
</event>
<event>
 4    1  0.1571930E+006  0.3193839E+02  0.7546771E-02  0.1403467E+00
         21   -1    0    0  503  501  0.00000000000E+00  0.00000000000E+00  0.38802688484E+01  0.38802688484E+01  0.00000000000E+00 0.  1.
         21   -1    0    0  504  502 -0.00000000000E+00 -0.00000000000E+00 -0.35213611459E+03  0.35213611459E+03  0.00000000000E+00 0.  1.
         21    1    1    2  503  502 -0.31936620745E+02  0.33596835060E+00 -0.84510191248E+02  0.90343970713E+02  0.00000000000E+00 0.  1.
         21    1    1    2  504  501  0.31936620745E+02 -0.33596835060E+00 -0.26374565449E+03  0.26567241273E+03  0.00000000000E+00 0.  1.
</event>
<event>
 4    1  0.1571930E+006  0.2021834E+02  0.7546771E-02  0.1530724E+00
         21   -1    0    0  504  501  0.00000000000E+00  0.00000000000E+00  0.52215297494E+02  0.52215297494E+02  0.00000000000E+00 0. -1.
         21   -1    0    0  501  502 -0.00000000000E+00 -0.00000000000E+00 -0.13386542159E+03  0.13386542159E+03  0.00000000000E+00 0. -1.
         21    1    1    2  503  502  0.37697248620E+01 -0.19863801167E+02 -0.13110382670E+03  0.13265366485E+03  0.00000000000E+00 0. -1.
         21    1    1    2  504  503 -0.37697248620E+01  0.19863801167E+02  0.49453702607E+02  0.53427054232E+02  0.00000000000E+00 0. -1.
</event>
<event>
 4    1  0.1571930E+006  0.2817437E+02  0.7546771E-02  0.1436155E+00
         21   -1    0    0  502  501  0.00000000000E+00  0.00000000000E+00  0.77559668398E+03  0.77559668398E+03  0.00000000000E+00 0.  1.
         21   -1    0    0  504  502 -0.00000000000E+00 -0.00000000000E+00 -0.19151566088E+01  0.19151566088E+01  0.00000000000E+00 0. -1.
         21    1    1    2  503  501  0.20081879294E+02  0.19761410982E+02  0.65210729993E+03  0.65271565467E+03  0.00000000000E+00 0.  1.
         21    1    1    2  504  503 -0.20081879294E+02 -0.19761410982E+02  0.12157422745E+03  0.12479618592E+03  0.00000000000E+00 0. -1.
</event>
<event>
 4    1  0.1571930E+006  0.2265319E+02  0.7546771E-02  0.1496900E+00
         21   -1    0    0  503  501  0.00000000000E+00  0.00000000000E+00  0.51360547126E+03  0.51360547126E+03  0.00000000000E+00 0.  1.
         21   -1    0    0  501  502 -0.00000000000E+00 -0.00000000000E+00 -0.23554492625E+03  0.23554492625E+03  0.00000000000E+00 0.  1.
         21    1    1    2  503  504 -0.31753786042E+01 -0.22429529468E+02  0.51281018132E+03  0.51331028520E+03  0.00000000000E+00 0.  1.
         21    1    1    2  504  502  0.31753786042E+01  0.22429529468E+02 -0.23474963631E+03  0.23584011230E+03  0.00000000000E+00 0.  1.
</event>
<event>
 4    1  0.1571930E+006  0.2995269E+02  0.7546771E-02  0.1420008E+00
         21   -1    0    0  503  501  0.00000000000E+00  0.00000000000E+00  0.77793073368E+01  0.77793073368E+01  0.00000000000E+00 0.  1.
         21   -1    0    0  504  502 -0.00000000000E+00 -0.00000000000E+00 -0.65532522000E+03  0.65532522000E+03  0.00000000000E+00 0.  1.
         21    1    1    2  503  502  0.28226782265E+02  0.10020595092E+02 -0.62474056131E+03  0.62545817807E+03  0.00000000000E+00 0.  1.
         21    1    1    2  504  501 -0.28226782265E+02 -0.10020595092E+02 -0.22805351350E+02  0.37646349268E+02  0.00000000000E+00 0.  1.
</event>
<event>
 4    1  0.1571930E+006  0.2135686E+02  0.7546771E-02  0.1514230E+00
         21   -1    0    0  503  501  0.00000000000E+00  0.00000000000E+00  0.95646275350E+02  0.95646275350E+02  0.00000000000E+00 0.  1.
         21   -1    0    0  504  502 -0.00000000000E+00 -0.00000000000E+00 -0.63747385548E+01  0.63747385548E+01  0.00000000000E+00 0.  1.
         21    1    1    2  503  502 -0.15664355384E+02  0.14517006171E+02  0.19032442111E+02  0.28606806017E+02  0.00000000000E+00 0.  1.
         21    1    1    2  504  501  0.15664355384E+02 -0.14517006171E+02  0.70239094684E+02  0.73414207888E+02  0.00000000000E+00 0.  1.
</event>
<event>
 4    1  0.1571930E+006  0.2249569E+02  0.7546771E-02  0.1498930E+00
         21   -1    0    0  502  501  0.00000000000E+00  0.00000000000E+00  0.69222739335E+02  0.69222739335E+02  0.00000000000E+00 0.  1.
         21   -1    0    0  503  502 -0.00000000000E+00 -0.00000000000E+00 -0.13343737102E+03  0.13343737102E+03  0.00000000000E+00 0.  1.
         21    1    1    2  503  504  0.70941781384E+01 -0.21347800489E+02 -0.13062252282E+03  0.13254546170E+03  0.00000000000E+00 0.  1.
         21    1    1    2  504  501 -0.70941781384E+01  0.21347800489E+02  0.66407891143E+02  0.70114648649E+02  0.00000000000E+00 0.  1.
</event>
<event>
 4    1  0.1571930E+006  0.2060172E+02  0.7546771E-02  0.1525028E+00
         21   -1    0    0  504  501  0.00000000000E+00  0.00000000000E+00  0.72199168034E+02  0.72199168034E+02  0.00000000000E+00 0. -1.
         21   -1    0    0  503  502 -0.00000000000E+00 -0.00000000000E+00 -0.59037979814E+01  0.59037979814E+01  0.00000000000E+00 0. -1.
         21    1    1    2  503  501  0.20325494942E+02 -0.33623296392E+01  0.35698260219E+02  0.41216462584E+02  0.00000000000E+00 0. -1.
         21    1    1    2  504  502 -0.20325494942E+02  0.33623296392E+01  0.30597109833E+02  0.36886503432E+02  0.00000000000E+00 0. -1.
</event>
<event>
 4    1  0.1571930E+006  0.2173986E+02  0.7546771E-02  0.1508958E+00
         21   -1    0    0  502  501  0.00000000000E+00  0.00000000000E+00  0.96984443463E+02  0.96984443463E+02  0.00000000000E+00 0. -1.
         21   -1    0    0  503  502 -0.00000000000E+00 -0.00000000000E+00 -0.80310476207E+01  0.80310476207E+01  0.00000000000E+00 0. -1.
         21    1    1    2  503  504  0.60734250875E+01  0.20874267093E+02  0.11550996653E+02  0.24618022720E+02  0.00000000000E+00 0. -1.
         21    1    1    2  504  501 -0.60734250875E+01 -0.20874267093E+02  0.77402399189E+02  0.80397468363E+02  0.00000000000E+00 0. -1.
</event>
<event>
 4    1  0.1571930E+006  0.4340514E+02  0.7546771E-02  0.1329610E+00
         21   -1    0    0  503  501  0.00000000000E+00  0.00000000000E+00  0.49374438532E+02  0.49374438532E+02  0.00000000000E+00 0.  1.
         21   -1    0    0  501  502 -0.00000000000E+00 -0.00000000000E+00 -0.40240864041E+03  0.40240864041E+03  0.00000000000E+00 0.  1.
         21    1    1    2  503  504 -0.37036564571E+02 -0.22634015981E+02  0.38397919145E+02  0.57951755705E+02  0.00000000000E+00 0.  1.
         21    1    1    2  504  502  0.37036564571E+02  0.22634015981E+02 -0.39143212102E+03  0.39383132324E+03  0.00000000000E+00 0.  1.
</event>
<event>
 4    1  0.1571930E+006  0.2597712E+02  0.7546771E-02  0.1458163E+00
         21   -1    0    0  504  501  0.00000000000E+00  0.00000000000E+00  0.27824896784E+02  0.27824896784E+02  0.00000000000E+00 0.  1.
         21   -1    0    0  503  502 -0.00000000000E+00 -0.00000000000E+00 -0.46077260210E+02  0.46077260210E+02  0.00000000000E+00 0. -1.
         21    1    1    2  503  501 -0.25938586931E+02  0.14144566931E+01 -0.34557152795E+02  0.43232022726E+02  0.00000000000E+00 0. -1.
         21    1    1    2  504  502  0.25938586931E+02 -0.14144566931E+01  0.16304789369E+02  0.30670134269E+02  0.00000000000E+00 0.  1.
</event>
<event>
 4    1  0.1571930E+006  0.2775892E+02  0.7546771E-02  0.1440130E+00
         21   -1    0    0  503  501  0.00000000000E+00  0.00000000000E+00  0.35254014596E+02  0.35254014596E+02  0.00000000000E+00 0. -1.
         21   -1    0    0  501  502 -0.00000000000E+00 -0.00000000000E+00 -0.50119042313E+02  0.50119042313E+02  0.00000000000E+00 0. -1.
         21    1    1    2  503  504  0.15879857279E+02  0.22768135763E+02  0.24621974956E+02  0.37105249279E+02  0.00000000000E+00 0. -1.
         21    1    1    2  504  502 -0.15879857279E+02 -0.22768135763E+02 -0.39487002673E+02  0.48267807630E+02  0.00000000000E+00 0. -1.
</event>
<event>
 4    1  0.1571930E+006  0.2625879E+02  0.7546771E-02  0.1455199E+00
         21   -1    0    0  504  501  0.00000000000E+00  0.00000000000E+00  0.18613207511E+03  0.18613207511E+03  0.00000000000E+00 0. -1.
         21   -1    0    0  503  502 -0.00000000000E+00 -0.00000000000E+00 -0.48332410870E+01  0.48332410870E+01  0.00000000000E+00 0. -1.
         21    1    1    2  503  501  0.79607347117E+01  0.25023000522E+02  0.13679232273E+03  0.13928985393E+03  0.00000000000E+00 0. -1.
         21    1    1    2  504  502 -0.79607347117E+01 -0.25023000522E+02  0.44506511298E+02  0.51675462264E+02  0.00000000000E+00 0. -1.
</event>
<event>
 4    1  0.1571930E+006  0.3095336E+02  0.7546771E-02  0.1411489E+00
         21   -1    0    0  504  501  0.00000000000E+00  0.00000000000E+00  0.30731003001E+02  0.30731003001E+02  0.00000000000E+00 0. -1.
         21   -1    0    0  503  502 -0.00000000000E+00 -0.00000000000E+00 -0.13055752026E+03  0.13055752026E+03  0.00000000000E+00 0.  1.
         21    1    1    2  503  501  0.15626214180E+01 -0.30913890421E+02 -0.12027271103E+03  0.12419192979E+03  0.00000000000E+00 0.  1.
         21    1    1    2  504  502 -0.15626214180E+01  0.30913890421E+02  0.20446193777E+02  0.37096593464E+02  0.00000000000E+00 0. -1.
</event>
<event>
 4    1  0.1571930E+006  0.3130734E+02  0.7546771E-02  0.1408566E+00
         21   -1    0    0  503  501  0.00000000000E+00  0.00000000000E+00  0.10977670208E+03  0.10977670208E+03  0.00000000000E+00 0.  1.
         21   -1    0    0  501  502 -0.00000000000E+00 -0.00000000000E+00 -0.89569074374E+01  0.89569074374E+01  0.00000000000E+00 0.  1.
         21    1    1    2  503  504  0.30914703383E+02 -0.49427414407E+01  0.47071005234E+02  0.56531664684E+02  0.00000000000E+00 0.  1.
         21    1    1    2  504  502 -0.30914703383E+02  0.49427414407E+01  0.53748789413E+02  0.62201944838E+02  0.00000000000E+00 0.  1.
</event>
<event>
 4    1  0.1571930E+006  0.4162667E+02  0.7546771E-02  0.1339208E+00
         21   -1    0    0  503  501  0.00000000000E+00  0.00000000000E+00  0.63294234232E+02  0.63294234232E+02  0.00000000000E+00 0. -1.
         21   -1    0    0  504  502 -0.00000000000E+00 -0.00000000000E+00 -0.30131425928E+02  0.30131425928E+02  0.00000000000E+00 0.  1.
         21    1    1    2  503  502 -0.97602230883E+00 -0.41615227831E+02  0.30705960660E+02  0.51726548571E+02  0.00000000000E+00 0. -1.
         21    1    1    2  504  501  0.97602230883E+00  0.41615227831E+02  0.24568476438E+01  0.41699111589E+02  0.00000000000E+00 0.  1.
</event>
<event>
 4    1  0.1571930E+006  0.3676900E+02  0.7546771E-02  0.1368536E+00
         21   -1    0    0  504  501  0.00000000000E+00  0.00000000000E+00  0.94520109633E+03  0.94520109633E+03  0.00000000000E+00 0. -1.
         21   -1    0    0  501  502 -0.00000000000E+00 -0.00000000000E+00 -0.99555474218E+01  0.99555474218E+01  0.00000000000E+00 0.  1.
         21    1    1    2  503  502  0.35656265948E+02 -0.89771881718E+01  0.25681562528E+02  0.44849769929E+02  0.00000000000E+00 0.  1.
         21    1    1    2  504  503 -0.35656265948E+02  0.89771881718E+01  0.90956398638E+03  0.91030687382E+03  0.00000000000E+00 0. -1.
</event>
<event>
 4    1  0.1571930E+006  0.2126206E+02  0.7546771E-02  0.1515556E+00
         21   -1    0    0  503  501  0.00000000000E+00  0.00000000000E+00  0.38515099428E+02  0.38515099428E+02  0.00000000000E+00 0.  1.
         21   -1    0    0  501  502 -0.00000000000E+00 -0.00000000000E+00 -0.11907340983E+02  0.11907340983E+02  0.00000000000E+00 0. -1.
         21    1    1    2  503  504  0.20839744678E+02  0.42166747777E+01  0.10293895811E+02  0.23622861711E+02  0.00000000000E+00 0. -1.
         21    1    1    2  504  502 -0.20839744678E+02 -0.42166747777E+01  0.16313862634E+02  0.26799578700E+02  0.00000000000E+00 0.  1.
</event>
<event>
 4    1  0.1571930E+006  0.2518489E+02  0.7546771E-02  0.1466746E+00
         21   -1    0    0  504  501  0.00000000000E+00  0.00000000000E+00  0.17844340330E+03  0.17844340330E+03  0.00000000000E+00 0.  1.
         21   -1    0    0  501  502 -0.00000000000E+00 -0.00000000000E+00 -0.81793330698E+01  0.81793330698E+01  0.00000000000E+00 0.  1.
         21    1    1    2  503  502  0.20740473307E+02 -0.14286754680E+02  0.14966596752E+02  0.29296375384E+02  0.00000000000E+00 0.  1.
         21    1    1    2  504  503 -0.20740473307E+02  0.14286754680E+02  0.15529747348E+03  0.15732636098E+03  0.00000000000E+00 0.  1.
</event>
<event>
 4    1  0.1571930E+006  0.2099575E+02  0.7546771E-02  0.1519325E+00
         21   -1    0    0  504  501  0.00000000000E+00  0.00000000000E+00  0.85231209974E+01  0.85231209974E+01  0.00000000000E+00 0.  1.
         21   -1    0    0  501  502 -0.00000000000E+00 -0.00000000000E+00 -0.65220982107E+03  0.65220982107E+03  0.00000000000E+00 0. -1.
         21    1    1    2  503  502 -0.22599298064E+01 -0.20873768099E+02 -0.63884015289E+03  0.63918507681E+03  0.00000000000E+00 0. -1.
         21    1    1    2  504  503  0.22599298064E+01  0.20873768099E+02 -0.48465471821E+01  0.21547865253E+02  0.00000000000E+00 0.  1.
</event>
<event>
 4    1  0.1571930E+006  0.2348854E+02  0.7546771E-02  0.1486453E+00
         21   -1    0    0  503  501  0.00000000000E+00  0.00000000000E+00  0.15546589104E+01  0.15546589104E+01  0.00000000000E+00 0.  1.
         21   -1    0    0  504  502 -0.00000000000E+00 -0.00000000000E+00 -0.12102393715E+04  0.12102393715E+04  0.00000000000E+00 0.  1.
         21    1    1    2  503  502 -0.22387671486E+02  0.71065815886E+01 -0.94966371119E+02  0.97828027579E+02  0.00000000000E+00 0.  1.
         21    1    1    2  504  501  0.22387671486E+02 -0.71065815886E+01 -0.11137183415E+04  0.11139660028E+04  0.00000000000E+00 0.  1.
</event>
<event>
 4    1  0.1571930E+006  0.2267670E+02  0.7546771E-02  0.1496598E+00
         21   -1    0    0  503  501  0.00000000000E+00  0.00000000000E+00  0.23182554581E+02  0.23182554581E+02  0.00000000000E+00 0.  1.
         21   -1    0    0  504  502 -0.00000000000E+00 -0.00000000000E+00 -0.13240685761E+03  0.13240685761E+03  0.00000000000E+00 0.  1.
         21    1    1    2  503  502  0.27369966106E+01  0.22510921079E+02 -0.12559195758E+03  0.12762277433E+03  0.00000000000E+00 0.  1.
         21    1    1    2  504  501 -0.27369966106E+01 -0.22510921079E+02  0.16367654547E+02  0.27966637868E+02  0.00000000000E+00 0.  1.
</event>
<event>
 4    1  0.1571930E+006  0.2703869E+02  0.7546771E-02  0.1447220E+00
         21   -1    0    0  503  501  0.00000000000E+00  0.00000000000E+00  0.17494552244E+02  0.17494552244E+02  0.00000000000E+00 0.  1.
         21   -1    0    0  504  502 -0.00000000000E+00 -0.00000000000E+00 -0.18736165497E+03  0.18736165497E+03  0.00000000000E+00 0. -1.
         21    1    1    2  503  502  0.24145318944E+02 -0.12169399821E+02  0.53518949546E+01  0.27563263568E+02  0.00000000000E+00 0.  1.
         21    1    1    2  504  501 -0.24145318944E+02  0.12169399821E+02 -0.17521899768E+03  0.17729294364E+03  0.00000000000E+00 0. -1.
</event>
<event>
 4    1  0.1571930E+006  0.2740794E+02  0.7546771E-02  0.1443553E+00
         21   -1    0    0  503  501  0.00000000000E+00  0.00000000000E+00  0.20834104880E+03  0.20834104880E+03  0.00000000000E+00 0. -1.
         21   -1    0    0  501  502 -0.00000000000E+00 -0.00000000000E+00 -0.40286052100E+03  0.40286052100E+03  0.00000000000E+00 0. -1.
         21    1    1    2  503  504  0.10517267717E+02  0.25309730488E+02  0.20697041060E+03  0.20877726466E+03  0.00000000000E+00 0. -1.
         21    1    1    2  504  502 -0.10517267717E+02 -0.25309730488E+02 -0.40148988280E+03  0.40242430514E+03  0.00000000000E+00 0. -1.
</event>
<event>
 4    1  0.1571930E+006  0.2855619E+02  0.7546771E-02  0.1432572E+00
         21   -1    0    0  503  501  0.00000000000E+00  0.00000000000E+00  0.14315605107E+03  0.14315605107E+03  0.00000000000E+00 0.  1.
         21   -1    0    0  504  502 -0.00000000000E+00 -0.00000000000E+00 -0.73305662298E+01  0.73305662298E+01  0.00000000000E+00 0.  1.
         21    1    1    2  503  502 -0.94252275814E+01  0.26955911479E+02  0.32385295969E+02  0.43177117476E+02  0.00000000000E+00 0.  1.
         21    1    1    2  504  501  0.94252275814E+01 -0.26955911479E+02  0.10344018888E+03  0.10730949983E+03  0.00000000000E+00 0.  1.
</event>
<event>
 4    1  0.1571930E+006  0.2333758E+02  0.7546771E-02  0.1488302E+00
         21   -1    0    0  504  501  0.00000000000E+00  0.00000000000E+00  0.20608681146E+03  0.20608681146E+03  0.00000000000E+00 0. -1.
         21   -1    0    0  503  502 -0.00000000000E+00 -0.00000000000E+00 -0.93495939382E+02  0.93495939382E+02  0.00000000000E+00 0. -1.
         21    1    1    2  503  501  0.91143715527E+01  0.21484196437E+02 -0.91363742096E+02  0.94297273742E+02  0.00000000000E+00 0. -1.
         21    1    1    2  504  502 -0.91143715527E+01 -0.21484196437E+02  0.20395461417E+03  0.20528547710E+03  0.00000000000E+00 0. -1.
</event>
<event>
 4    1  0.1571930E+006  0.2488680E+02  0.7546771E-02  0.1470074E+00
         21   -1    0    0  504  501  0.00000000000E+00  0.00000000000E+00  0.12242155519E+04  0.12242155519E+04  0.00000000000E+00 0.  1.
         21   -1    0    0  503  502 -0.00000000000E+00 -0.00000000000E+00 -0.81857726514E+00  0.81857726514E+00  0.00000000000E+00 0.  1.
         21    1    1    2  503  501  0.51184908481E+01  0.24354747868E+02  0.23314783426E+03  0.23447231247E+03  0.00000000000E+00 0.  1.
         21    1    1    2  504  502 -0.51184908481E+01 -0.24354747868E+02  0.99024914036E+03  0.99056181669E+03  0.00000000000E+00 0.  1.
</event>
<event>
 4    1  0.1571930E+006  0.4323597E+02  0.7546771E-02  0.1330500E+00
         21   -1    0    0  503  501  0.00000000000E+00  0.00000000000E+00  0.13646918399E+04  0.13646918399E+04  0.00000000000E+00 0.  1.
         21   -1    0    0  504  502 -0.00000000000E+00 -0.00000000000E+00 -0.10457432496E+02  0.10457432496E+02  0.00000000000E+00 0. -1.
         21    1    1    2  503  502 -0.30213118408E+02 -0.30927601922E+02  0.13180799557E+04  0.13187888833E+04  0.00000000000E+00 0.  1.
         21    1    1    2  504  501  0.30213118408E+02  0.30927601922E+02  0.36154451777E+02  0.56360389175E+02  0.00000000000E+00 0. -1.
</event>
<event>
 4    1  0.1571930E+006  0.2259385E+02  0.7546771E-02  0.1497662E+00
         21   -1    0    0  504  501  0.00000000000E+00  0.00000000000E+00  0.35762694506E+01  0.35762694506E+01  0.00000000000E+00 0. -1.
         21   -1    0    0  503  502 -0.00000000000E+00 -0.00000000000E+00 -0.14774856960E+03  0.14774856960E+03  0.00000000000E+00 0. -1.
         21    1    1    2  503  501 -0.16139382988E+02 -0.15811462714E+02 -0.86014855494E+02  0.88932769000E+02  0.00000000000E+00 0. -1.
         21    1    1    2  504  502  0.16139382988E+02  0.15811462714E+02 -0.58157444660E+02  0.62392070055E+02  0.00000000000E+00 0. -1.
</event>
<event>
 4    1  0.1571930E+006  0.4302110E+02  0.7546771E-02  0.1331637E+00
         21   -1    0    0  504  501  0.00000000000E+00  0.00000000000E+00  0.49489134503E+03  0.49489134503E+03  0.00000000000E+00 0.  1.
         21   -1    0    0  503  502 -0.00000000000E+00 -0.00000000000E+00 -0.73573470654E+01  0.73573470654E+01  0.00000000000E+00 0.  1.
         21    1    1    2  503  501  0.43003350549E+02  0.12356067032E+01  0.67677751117E+02  0.80194095035E+02  0.00000000000E+00 0.  1.
         21    1    1    2  504  502 -0.43003350549E+02 -0.12356067032E+01  0.41985624685E+03  0.42205459706E+03  0.00000000000E+00 0.  1.
</event>
<event>
 4    1  0.1571930E+006  0.3753982E+02  0.7546771E-02  0.1363538E+00
         21   -1    0    0  504  501  0.00000000000E+00  0.00000000000E+00  0.72399025368E+02  0.72399025368E+02  0.00000000000E+00 0.  1.
         21   -1    0    0  503  502 -0.00000000000E+00 -0.00000000000E+00 -0.71015533830E+02  0.71015533830E+02  0.00000000000E+00 0. -1.
         21    1    1    2  503  501  0.18639645633E+02  0.32585301026E+02  0.61786463693E+02  0.72296648110E+02  0.00000000000E+00 0.  1.
         21    1    1    2  504  502 -0.18639645633E+02 -0.32585301026E+02 -0.60402972156E+02  0.71117911088E+02  0.00000000000E+00 0. -1.
</event>
<event>
 4    1  0.1571930E+006  0.2065994E+02  0.7546771E-02  0.1524176E+00
         21   -1    0    0  503  501  0.00000000000E+00  0.00000000000E+00  0.83655793127E+01  0.83655793127E+01  0.00000000000E+00 0.  1.
         21   -1    0    0  504  502 -0.00000000000E+00 -0.00000000000E+00 -0.11975228031E+04  0.11975228031E+04  0.00000000000E+00 0. -1.
         21    1    1    2  503  502 -0.63361359645E+01  0.19664347180E+02 -0.46189780012E+01  0.21169981737E+02  0.00000000000E+00 0.  1.
         21    1    1    2  504  501  0.63361359645E+01 -0.19664347180E+02 -0.11845382458E+04  0.11847184007E+04  0.00000000000E+00 0. -1.
</event>
<event>
 4    1  0.1571930E+006  0.2007501E+02  0.7546771E-02  0.1532892E+00
         21   -1    0    0  503  501  0.00000000000E+00  0.00000000000E+00  0.14215094729E+02  0.14215094729E+02  0.00000000000E+00 0.  1.
         21   -1    0    0  504  502 -0.00000000000E+00 -0.00000000000E+00 -0.34522808232E+02  0.34522808232E+02  0.00000000000E+00 0. -1.
         21    1    1    2  503  502 -0.12913389658E+02 -0.15370436553E+02 -0.20457844605E+02  0.28662333439E+02  0.00000000000E+00 0. -1.
         21    1    1    2  504  501  0.12913389658E+02  0.15370436553E+02  0.15013110215E+00  0.20075569522E+02  0.00000000000E+00 0.  1.
</event>
<event>
 4    1  0.1571930E+006  0.2113922E+02  0.7546771E-02  0.1517286E+00
         21   -1    0    0  503  501  0.00000000000E+00  0.00000000000E+00  0.38940862076E+01  0.38940862076E+01  0.00000000000E+00 0.  1.
         21   -1    0    0  504  502 -0.00000000000E+00 -0.00000000000E+00 -0.12754553322E+03  0.12754553322E+03  0.00000000000E+00 0.  1.
         21    1    1    2  503  502  0.14030315497E+02  0.15811921120E+02 -0.41014157032E+02  0.46141387924E+02  0.00000000000E+00 0.  1.
         21    1    1    2  504  501 -0.14030315497E+02 -0.15811921120E+02 -0.82637289980E+02  0.85298231504E+02  0.00000000000E+00 0.  1.
</event>
<event>
 4    1  0.1571930E+006  0.2416714E+02  0.7546771E-02  0.1478340E+00
         21   -1    0    0  503  501  0.00000000000E+00  0.00000000000E+00  0.43856564662E+02  0.43856564662E+02  0.00000000000E+00 0. -1.
         21   -1    0    0  501  502 -0.00000000000E+00 -0.00000000000E+00 -0.38992230291E+02  0.38992230291E+02  0.00000000000E+00 0. -1.
         21    1    1    2  503  504 -0.22210517678E+02 -0.95259449073E+01  0.36046295810E+02  0.43397997229E+02  0.00000000000E+00 0. -1.
         21    1    1    2  504  502  0.22210517678E+02  0.95259449073E+01 -0.31181961438E+02  0.39450797724E+02  0.00000000000E+00 0. -1.
</event>
<event>
 4    1  0.1571930E+006  0.2308759E+02  0.7546771E-02  0.1491401E+00
         21   -1    0    0  502  501  0.00000000000E+00  0.00000000000E+00  0.62743697066E+01  0.62743697066E+01  0.00000000000E+00 0.  1.
         21   -1    0    0  503  502 -0.00000000000E+00 -0.00000000000E+00 -0.11620949046E+03  0.11620949046E+03  0.00000000000E+00 0.  1.
         21    1    1    2  503  504  0.22672478531E+02 -0.43583887959E+01 -0.86728019057E+02  0.89748460294E+02  0.00000000000E+00 0.  1.
         21    1    1    2  504  501 -0.22672478531E+02  0.43583887959E+01 -0.23207101696E+02  0.32735399872E+02  0.00000000000E+00 0.  1.
</event>
<event>
 4    1  0.1571930E+006  0.4927110E+02  0.7546771E-02  0.1301364E+00
         21   -1    0    0  502  501  0.00000000000E+00  0.00000000000E+00  0.15753655821E+02  0.15753655821E+02  0.00000000000E+00 0.  1.
         21   -1    0    0  504  502 -0.00000000000E+00 -0.00000000000E+00 -0.20789746620E+04  0.20789746620E+04  0.00000000000E+00 0.  1.
         21    1    1    2  503  501  0.39320613633E+02 -0.29690583029E+02 -0.23810590693E+02  0.54722807002E+02  0.00000000000E+00 0.  1.
         21    1    1    2  504  503 -0.39320613633E+02  0.29690583029E+02 -0.20394104155E+04  0.20400055108E+04  0.00000000000E+00 0.  1.
</event>
<event>
 4    1  0.1571930E+006  0.2898398E+02  0.7546771E-02  0.1428636E+00
         21   -1    0    0  504  501  0.00000000000E+00  0.00000000000E+00  0.10884805083E+03  0.10884805083E+03  0.00000000000E+00 0. -1.
         21   -1    0    0  503  502 -0.00000000000E+00 -0.00000000000E+00 -0.26695883314E+02  0.26695883314E+02  0.00000000000E+00 0.  1.
         21    1    1    2  503  501  0.25496442819E+02  0.13784134205E+02  0.98217862287E+02  0.10240517284E+03  0.00000000000E+00 0. -1.
         21    1    1    2  504  502 -0.25496442819E+02 -0.13784134205E+02 -0.16065694771E+02  0.33138761303E+02  0.00000000000E+00 0.  1.
</event>
<event>
 4    1  0.1571930E+006  0.2014157E+02  0.7546771E-02  0.1531882E+00
         21   -1    0    0  502  501  0.00000000000E+00  0.00000000000E+00  0.14253142686E+02  0.14253142686E+02  0.00000000000E+00 0. -1.
         21   -1    0    0  504  502 -0.00000000000E+00 -0.00000000000E+00 -0.20430228217E+03  0.20430228217E+03  0.00000000000E+00 0. -1.
         21    1    1    2  503  501  0.98409320285E+01 -0.17573818527E+02  0.63556661904E+01  0.21120547662E+02  0.00000000000E+00 0. -1.
         21    1    1    2  504  503 -0.98409320285E+01  0.17573818527E+02 -0.19640480567E+03  0.19743487719E+03  0.00000000000E+00 0. -1.
</event>
<event>
 4    1  0.1571930E+006  0.2856023E+02  0.7546771E-02  0.1432535E+00
         21   -1    0    0  503  501  0.00000000000E+00  0.00000000000E+00  0.60920015395E+02  0.60920015395E+02  0.00000000000E+00 0. -1.
         21   -1    0    0  504  502 -0.00000000000E+00 -0.00000000000E+00 -0.31299913378E+03  0.31299913378E+03  0.00000000000E+00 0. -1.
         21    1    1    2  503  502  0.26275861774E+02 -0.11192233952E+02 -0.30895655014E+03  0.31027380954E+03  0.00000000000E+00 0. -1.
         21    1    1    2  504  501 -0.26275861774E+02  0.11192233952E+02  0.56877431761E+02  0.63645339629E+02  0.00000000000E+00 0. -1.
</event>
<event>
 4    1  0.1571930E+006  0.2536664E+02  0.7546771E-02  0.1464743E+00
         21   -1    0    0  503  501  0.00000000000E+00  0.00000000000E+00  0.30019845307E+02  0.30019845307E+02  0.00000000000E+00 0. -1.
         21   -1    0    0  504  502 -0.00000000000E+00 -0.00000000000E+00 -0.12702688472E+03  0.12702688472E+03  0.00000000000E+00 0.  1.
         21    1    1    2  503  502  0.22724500169E+02  0.11272241546E+02 -0.12009592758E+03  0.12274566452E+03  0.00000000000E+00 0.  1.
         21    1    1    2  504  501 -0.22724500169E+02 -0.11272241546E+02  0.23088888173E+02  0.34301065500E+02  0.00000000000E+00 0. -1.
</event>
<event>
 4    1  0.1571930E+006  0.2492833E+02  0.7546771E-02  0.1469607E+00
         21   -1    0    0  503  501  0.00000000000E+00  0.00000000000E+00  0.28306960885E+03  0.28306960885E+03  0.00000000000E+00 0. -1.
         21   -1    0    0  504  502 -0.00000000000E+00 -0.00000000000E+00 -0.59715431659E+01  0.59715431659E+01  0.00000000000E+00 0. -1.
         21    1    1    2  503  502  0.18015646207E+01  0.24863146849E+02  0.23623486670E+02  0.34343716001E+02  0.00000000000E+00 0. -1.
         21    1    1    2  504  501 -0.18015646207E+01 -0.24863146849E+02  0.25347457901E+03  0.25469743601E+03  0.00000000000E+00 0. -1.
</event>
<event>
 4    1  0.1571930E+006  0.2635559E+02  0.7546771E-02  0.1454191E+00
         21   -1    0    0  504  501  0.00000000000E+00  0.00000000000E+00  0.11023482199E+03  0.11023482199E+03  0.00000000000E+00 0.  1.
         21   -1    0    0  501  502 -0.00000000000E+00 -0.00000000000E+00 -0.19072936938E+02  0.19072936938E+02  0.00000000000E+00 0.  1.
         21    1    1    2  503  502 -0.86632960365E+01  0.24891056303E+02 -0.73256635413E+01  0.27354756961E+02  0.00000000000E+00 0.  1.
         21    1    1    2  504  503  0.86632960365E+01 -0.24891056303E+02  0.98487548594E+02  0.10195300197E+03  0.00000000000E+00 0.  1.
</event>
<event>
 4    1  0.1571930E+006  0.2772525E+02  0.7546771E-02  0.1440456E+00
         21   -1    0    0  504  501  0.00000000000E+00  0.00000000000E+00  0.13465279651E+03  0.13465279651E+03  0.00000000000E+00 0. -1.
         21   -1    0    0  503  502 -0.00000000000E+00 -0.00000000000E+00 -0.24371924460E+02  0.24371924460E+02  0.00000000000E+00 0.  1.
         21    1    1    2  503  501 -0.18780153415E+02  0.20395958034E+02  0.12472026340E+03  0.12776475793E+03  0.00000000000E+00 0. -1.
         21    1    1    2  504  502  0.18780153415E+02 -0.20395958034E+02 -0.14439391353E+02  0.31259963037E+02  0.00000000000E+00 0.  1.
</event>
<event>
 4    1  0.1571930E+006  0.2072132E+02  0.7546771E-02  0.1523281E+00
         21   -1    0    0  504  501  0.00000000000E+00  0.00000000000E+00  0.10424888899E+03  0.10424888899E+03  0.00000000000E+00 0. -1.
         21   -1    0    0  501  502 -0.00000000000E+00 -0.00000000000E+00 -0.23352359216E+02  0.23352359216E+02  0.00000000000E+00 0. -1.
         21    1    1    2  503  502  0.16070443482E+01 -0.20658913631E+02 -0.17453277877E+02  0.27092253738E+02  0.00000000000E+00 0. -1.
         21    1    1    2  504  503 -0.16070443482E+01  0.20658913631E+02  0.98349807654E+02  0.10050899447E+03  0.00000000000E+00 0. -1.
</event>
<event>
 4    1  0.1571930E+006  0.3155280E+02  0.7546771E-02  0.1406566E+00
         21   -1    0    0  502  501  0.00000000000E+00  0.00000000000E+00  0.48704390390E+02  0.48704390390E+02  0.00000000000E+00 0.  1.
         21   -1    0    0  504  502 -0.00000000000E+00 -0.00000000000E+00 -0.92981542019E+02  0.92981542019E+02  0.00000000000E+00 0.  1.
         21    1    1    2  503  501 -0.26212831264E+02  0.17563218713E+02  0.40434568715E+02  0.51288727042E+02  0.00000000000E+00 0.  1.
         21    1    1    2  504  503  0.26212831264E+02 -0.17563218713E+02 -0.84711720344E+02  0.90397205366E+02  0.00000000000E+00 0.  1.
</event>
<event>
 4    1  0.1571930E+006  0.2383165E+02  0.7546771E-02  0.1482311E+00
         21   -1    0    0  503  501  0.00000000000E+00  0.00000000000E+00  0.20039562425E+03  0.20039562425E+03  0.00000000000E+00 0.  1.
         21   -1    0    0  504  502 -0.00000000000E+00 -0.00000000000E+00 -0.44517388936E+01  0.44517388936E+01  0.00000000000E+00 0.  1.
         21    1    1    2  503  502 -0.23745829328E+02 -0.20206472677E+01  0.36231152143E+02  0.43366390344E+02  0.00000000000E+00 0.  1.
         21    1    1    2  504  501  0.23745829328E+02  0.20206472677E+01  0.15971273321E+03  0.16148097280E+03  0.00000000000E+00 0.  1.
</event>
<event>
 4    1  0.1571930E+006  0.2498945E+02  0.7546771E-02  0.1468921E+00
         21   -1    0    0  503  501  0.00000000000E+00  0.00000000000E+00  0.50152678274E+02  0.50152678274E+02  0.00000000000E+00 0.  1.
         21   -1    0    0  504  502 -0.00000000000E+00 -0.00000000000E+00 -0.13520213443E+02  0.13520213443E+02  0.00000000000E+00 0.  1.
         21    1    1    2  503  502 -0.18396999933E+02  0.16912211138E+02  0.27267364167E+02  0.36986235828E+02  0.00000000000E+00 0.  1.
         21    1    1    2  504  501  0.18396999933E+02 -0.16912211138E+02  0.93651006644E+01  0.26686655889E+02  0.00000000000E+00 0.  1.
</event>
<event>
 4    1  0.1571930E+006  0.2978421E+02  0.7546771E-02  0.1421481E+00
         21   -1    0    0  503  501  0.00000000000E+00  0.00000000000E+00  0.11349436222E+02  0.11349436222E+02  0.00000000000E+00 0. -1.
         21   -1    0    0  504  502 -0.00000000000E+00 -0.00000000000E+00 -0.13016704384E+04  0.13016704384E+04  0.00000000000E+00 0. -1.
         21    1    1    2  503  502  0.29103683531E+02  0.63304729429E+01 -0.86666755361E+01  0.31019518817E+02  0.00000000000E+00 0. -1.
         21    1    1    2  504  501 -0.29103683531E+02 -0.63304729429E+01 -0.12816543266E+04  0.12820003558E+04  0.00000000000E+00 0. -1.
</event>
<event>
 4    1  0.1571930E+006  0.2187352E+02  0.7546771E-02  0.1507149E+00
         21   -1    0    0  502  501  0.00000000000E+00  0.00000000000E+00  0.34307551047E+03  0.34307551047E+03  0.00000000000E+00 0.  1.
         21   -1    0    0  503  502 -0.00000000000E+00 -0.00000000000E+00 -0.13230070839E+02  0.13230070839E+02  0.00000000000E+00 0. -1.
         21    1    1    2  503  504  0.15650776394E+02 -0.15280846882E+02 -0.35790330313E+01  0.22164398494E+02  0.00000000000E+00 0. -1.
         21    1    1    2  504  501 -0.15650776394E+02  0.15280846882E+02  0.33342447266E+03  0.33414118281E+03  0.00000000000E+00 0.  1.
</event>
<event>
 4    1  0.1571930E+006  0.4027283E+02  0.7546771E-02  0.1346894E+00
         21   -1    0    0  503  501  0.00000000000E+00  0.00000000000E+00  0.10188912533E+03  0.10188912533E+03  0.00000000000E+00 0.  1.
         21   -1    0    0  504  502 -0.00000000000E+00 -0.00000000000E+00 -0.20314119973E+02  0.20314119973E+02  0.00000000000E+00 0. -1.
         21    1    1    2  503  502  0.38865332574E+02  0.10553980039E+02  0.69210784168E+02  0.80075172281E+02  0.00000000000E+00 0.  1.
         21    1    1    2  504  501 -0.38865332574E+02 -0.10553980039E+02  0.12364221186E+02  0.42128073019E+02  0.00000000000E+00 0. -1.
</event>
<event>
 4    1  0.1571930E+006  0.2586745E+02  0.7546771E-02  0.1459329E+00
         21   -1    0    0  504  501  0.00000000000E+00  0.00000000000E+00  0.89107653787E+02  0.89107653787E+02  0.00000000000E+00 0.  1.
         21   -1    0    0  503  502 -0.00000000000E+00 -0.00000000000E+00 -0.45904349428E+02  0.45904349428E+02  0.00000000000E+00 0. -1.
         21    1    1    2  503  501  0.41996388899E+01 -0.25524260428E+02 -0.40136524270E+02  0.47750030552E+02  0.00000000000E+00 0. -1.
         21    1    1    2  504  502 -0.41996388899E+01  0.25524260428E+02  0.83339828629E+02  0.87261972663E+02  0.00000000000E+00 0.  1.
</event>
<event>
 4    1  0.1571930E+006  0.4227490E+02  0.7546771E-02  0.1335647E+00
         21   -1    0    0  504  501  0.00000000000E+00  0.00000000000E+00  0.14627593846E+02  0.14627593846E+02  0.00000000000E+00 0.  1.
         21   -1    0    0  503  502 -0.00000000000E+00 -0.00000000000E+00 -0.29908365140E+03  0.29908365140E+03  0.00000000000E+00 0.  1.
         21    1    1    2  503  501 -0.41572175274E+02 -0.76760120014E+01 -0.21592597933E+02  0.47470066386E+02  0.00000000000E+00 0.  1.
         21    1    1    2  504  502  0.41572175274E+02  0.76760120014E+01 -0.26286345963E+03  0.26624117886E+03  0.00000000000E+00 0.  1.
</event>
<event>
 4    1  0.1571930E+006  0.3297059E+02  0.7546771E-02  0.1395421E+00
         21   -1    0    0  504  501  0.00000000000E+00  0.00000000000E+00  0.35885556034E+02  0.35885556034E+02  0.00000000000E+00 0.  1.
         21   -1    0    0  503  502 -0.00000000000E+00 -0.00000000000E+00 -0.28889844197E+03  0.28889844197E+03  0.00000000000E+00 0.  1.
         21    1    1    2  503  501  0.57661653460E+01 -0.32462461285E+02  0.27136052178E+02  0.42701585255E+02  0.00000000000E+00 0.  1.
         21    1    1    2  504  502 -0.57661653460E+01  0.32462461285E+02 -0.28014893812E+03  0.28208241275E+03  0.00000000000E+00 0.  1.
</event>
<event>
 4    1  0.1571930E+006  0.2111199E+02  0.7546771E-02  0.1517672E+00
         21   -1    0    0  503  501  0.00000000000E+00  0.00000000000E+00  0.45404713011E+01  0.45404713011E+01  0.00000000000E+00 0. -1.
         21   -1    0    0  504  502 -0.00000000000E+00 -0.00000000000E+00 -0.26245840739E+03  0.26245840739E+03  0.00000000000E+00 0.  1.
         21    1    1    2  503  502  0.20919850974E+02 -0.28418481511E+01 -0.23458209086E+03  0.23553019683E+03  0.00000000000E+00 0.  1.
         21    1    1    2  504  501 -0.20919850974E+02  0.28418481511E+01 -0.23335845232E+02  0.31468681866E+02  0.00000000000E+00 0. -1.
</event>
<event>
 4    1  0.1571930E+006  0.2324965E+02  0.7546771E-02  0.1489387E+00
         21   -1    0    0  504  501  0.00000000000E+00  0.00000000000E+00  0.18507168729E+02  0.18507168729E+02  0.00000000000E+00 0. -1.
         21   -1    0    0  503  502 -0.00000000000E+00 -0.00000000000E+00 -0.30770038246E+02  0.30770038246E+02  0.00000000000E+00 0. -1.
         21    1    1    2  503  501  0.11399659145E+01 -0.23221687114E+02 -0.57902723019E+00  0.23256860219E+02  0.00000000000E+00 0. -1.
         21    1    1    2  504  502 -0.11399659145E+01  0.23221687114E+02 -0.11683842287E+02  0.26020346756E+02  0.00000000000E+00 0. -1.
</event>
<event>
 4    1  0.1571930E+006  0.5627455E+02  0.7546771E-02  0.1273044E+00
         21   -1    0    0  504  501  0.00000000000E+00  0.00000000000E+00  0.38829905758E+03  0.38829905758E+03  0.00000000000E+00 0. -1.
         21   -1    0    0  503  502 -0.00000000000E+00 -0.00000000000E+00 -0.96695751250E+01  0.96695751250E+01  0.00000000000E+00 0. -1.
         21    1    1    2  503  501 -0.53092642214E+02  0.18654665061E+02  0.11057942528E+03  0.12407511629E+03  0.00000000000E+00 0. -1.
         21    1    1    2  504  502  0.53092642214E+02 -0.18654665061E+02  0.26805005717E+03  0.27389351641E+03  0.00000000000E+00 0. -1.
</event>
<event>
 4    1  0.1571930E+006  0.2094468E+02  0.7546771E-02  0.1520056E+00
         21   -1    0    0  503  501  0.00000000000E+00  0.00000000000E+00  0.49893097386E+01  0.49893097386E+01  0.00000000000E+00 0.  1.
         21   -1    0    0  504  502 -0.00000000000E+00 -0.00000000000E+00 -0.95701924824E+02  0.95701924824E+02  0.00000000000E+00 0.  1.
         21    1    1    2  503  502 -0.71615653371E+00  0.20932430126E+02 -0.31003517621E+02  0.37415205680E+02  0.00000000000E+00 0.  1.
         21    1    1    2  504  501  0.71615653371E+00 -0.20932430126E+02 -0.59709097464E+02  0.63276028883E+02  0.00000000000E+00 0.  1.
</event>
<event>
 4    1  0.1571930E+006  0.2341479E+02  0.7546771E-02  0.1487354E+00
         21   -1    0    0  503  501  0.00000000000E+00  0.00000000000E+00  0.36977813769E+03  0.36977813769E+03  0.00000000000E+00 0. -1.
         21   -1    0    0  504  502 -0.00000000000E+00 -0.00000000000E+00 -0.64894420229E+02  0.64894420229E+02  0.00000000000E+00 0. -1.
         21    1    1    2  503  502  0.73271403673E+01  0.22238829249E+02  0.36728103502E+03  0.36802664469E+03  0.00000000000E+00 0. -1.
         21    1    1    2  504  501 -0.73271403673E+01 -0.22238829249E+02 -0.62397317558E+02  0.66645913234E+02  0.00000000000E+00 0. -1.
</event>
<event>
 4    1  0.1571930E+006  0.2280671E+02  0.7546771E-02  0.1494940E+00
         21   -1    0    0  503  501  0.00000000000E+00  0.00000000000E+00  0.16475958582E+03  0.16475958582E+03  0.00000000000E+00 0. -1.
         21   -1    0    0  501  502 -0.00000000000E+00 -0.00000000000E+00 -0.87294492411E+01  0.87294492411E+01  0.00000000000E+00 0. -1.
         21    1    1    2  503  504 -0.10457134577E+02  0.20268062965E+02  0.14732120133E+03  0.14907609601E+03  0.00000000000E+00 0. -1.
         21    1    1    2  504  502  0.10457134577E+02 -0.20268062965E+02  0.87089352466E+01  0.24412939050E+02  0.00000000000E+00 0. -1.
</event>
<event>
 4    1  0.1571930E+006  0.2045644E+02  0.7546771E-02  0.1527169E+00
         21   -1    0    0  502  501  0.00000000000E+00  0.00000000000E+00  0.79779928628E+00  0.79779928628E+00  0.00000000000E+00 0.  1.
         21   -1    0    0  503  502 -0.00000000000E+00 -0.00000000000E+00 -0.61858358816E+03  0.61858358816E+03  0.00000000000E+00 0.  1.
         21    1    1    2  503  504  0.18423948955E+02  0.88895547655E+01 -0.42965397883E+03  0.43014068350E+03  0.00000000000E+00 0.  1.
         21    1    1    2  504  501 -0.18423948955E+02 -0.88895547655E+01 -0.18813181004E+03  0.18924070394E+03  0.00000000000E+00 0.  1.
</event>
<event>
 4    1  0.1571930E+006  0.2540315E+02  0.7546771E-02  0.1464344E+00
         21   -1    0    0  503  501  0.00000000000E+00  0.00000000000E+00  0.10558525940E+03  0.10558525940E+03  0.00000000000E+00 0.  1.
         21   -1    0    0  504  502 -0.00000000000E+00 -0.00000000000E+00 -0.64087756020E+01  0.64087756020E+01  0.00000000000E+00 0.  1.
         21    1    1    2  503  502  0.74059834707E+01  0.24299614353E+02  0.61641681985E+02  0.66670959246E+02  0.00000000000E+00 0.  1.
         21    1    1    2  504  501 -0.74059834707E+01 -0.24299614353E+02  0.37534801818E+02  0.45323075760E+02  0.00000000000E+00 0.  1.
</event>
<event>
 4    1  0.1571930E+006  0.2925336E+02  0.7546771E-02  0.1426198E+00
         21   -1    0    0  504  501  0.00000000000E+00  0.00000000000E+00  0.40427648108E+02  0.40427648108E+02  0.00000000000E+00 0. -1.
         21   -1    0    0  503  502 -0.00000000000E+00 -0.00000000000E+00 -0.21379684922E+02  0.21379684922E+02  0.00000000000E+00 0. -1.
         21    1    1    2  503  501  0.26513336387E+02 -0.12361323661E+02  0.12601404105E+02  0.31852075512E+02  0.00000000000E+00 0. -1.
         21    1    1    2  504  502 -0.26513336387E+02  0.12361323661E+02  0.64465590806E+01  0.29955257518E+02  0.00000000000E+00 0. -1.
</event>
<event>
 4    1  0.1571930E+006  0.2008856E+02  0.7546771E-02  0.1532686E+00
         21   -1    0    0  504  501  0.00000000000E+00  0.00000000000E+00  0.13017115311E+03  0.13017115311E+03  0.00000000000E+00 0. -1.
         21   -1    0    0  503  502 -0.00000000000E+00 -0.00000000000E+00 -0.60078157164E+01  0.60078157164E+01  0.00000000000E+00 0. -1.
         21    1    1    2  503  501  0.17785067169E+02 -0.93403304858E+01  0.10945062515E+03  0.11127888269E+03  0.00000000000E+00 0. -1.
         21    1    1    2  504  502 -0.17785067169E+02  0.93403304858E+01  0.14712712241E+02  0.24900086130E+02  0.00000000000E+00 0. -1.
</event>
<event>
 4    1  0.1571930E+006  0.2033800E+02  0.7546771E-02  0.1528930E+00
         21   -1    0    0  503  501  0.00000000000E+00  0.00000000000E+00  0.95535931376E+02  0.95535931376E+02  0.00000000000E+00 0. -1.
         21   -1    0    0  504  502 -0.00000000000E+00 -0.00000000000E+00 -0.48992818779E+01  0.48992818779E+01  0.00000000000E+00 0. -1.
         21    1    1    2  503  502 -0.87394622575E+01  0.18364536248E+02  0.28194612359E+02  0.34764501409E+02  0.00000000000E+00 0. -1.
         21    1    1    2  504  501  0.87394622575E+01 -0.18364536248E+02  0.62442037139E+02  0.65670711845E+02  0.00000000000E+00 0. -1.
</event>
<event>
 4    1  0.1571930E+006  0.2083380E+02  0.7546771E-02  0.1521651E+00
         21   -1    0    0  504  501  0.00000000000E+00  0.00000000000E+00  0.29720072328E+03  0.29720072328E+03  0.00000000000E+00 0. -1.
         21   -1    0    0  503  502 -0.00000000000E+00 -0.00000000000E+00 -0.13035556237E+03  0.13035556237E+03  0.00000000000E+00 0.  1.
         21    1    1    2  503  501  0.19213705610E+02  0.80548468529E+01 -0.12915464747E+03  0.13082419503E+03  0.00000000000E+00 0.  1.
         21    1    1    2  504  502 -0.19213705610E+02 -0.80548468529E+01  0.29599980839E+03  0.29673209062E+03  0.00000000000E+00 0. -1.
</event>
<event>
 4    1  0.1571930E+006  0.2149749E+02  0.7546771E-02  0.1512279E+00
         21   -1    0    0  504  501  0.00000000000E+00  0.00000000000E+00  0.17781896084E+03  0.17781896084E+03  0.00000000000E+00 0. -1.
         21   -1    0    0  501  502 -0.00000000000E+00 -0.00000000000E+00 -0.32260266649E+01  0.32260266649E+01  0.00000000000E+00 0. -1.
         21    1    1    2  503  502 -0.17147800230E+02 -0.12965144522E+02  0.47386262906E+02  0.52034603270E+02  0.00000000000E+00 0. -1.
         21    1    1    2  504  503  0.17147800230E+02  0.12965144522E+02  0.12720667127E+03  0.12901038424E+03  0.00000000000E+00 0. -1.
</event>
<event>
 4    1  0.1571930E+006  0.2993122E+02  0.7546771E-02  0.1420195E+00
         21   -1    0    0  504  501  0.00000000000E+00  0.00000000000E+00  0.72240513729E+01  0.72240513729E+01  0.00000000000E+00 0. -1.
         21   -1    0    0  501  502 -0.00000000000E+00 -0.00000000000E+00 -0.17314424950E+03  0.17314424950E+03  0.00000000000E+00 0.  1.
         21    1    1    2  503  502  0.22171087748E+02 -0.20107728820E+02 -0.13100022128E+03  0.13437609856E+03  0.00000000000E+00 0.  1.
         21    1    1    2  504  503 -0.22171087748E+02  0.20107728820E+02 -0.34919976855E+02  0.45992202315E+02  0.00000000000E+00 0. -1.
</event>
<event>
 4    1  0.1571930E+006  0.2662199E+02  0.7546771E-02  0.1451443E+00
         21   -1    0    0  502  501  0.00000000000E+00  0.00000000000E+00  0.38676884975E+03  0.38676884975E+03  0.00000000000E+00 0. -1.
         21   -1    0    0  504  502 -0.00000000000E+00 -0.00000000000E+00 -0.58048695061E+01  0.58048695061E+01  0.00000000000E+00 0.  1.
         21    1    1    2  503  501 -0.24002614168E+02 -0.11515412710E+02  0.35285848624E+03  0.35386133093E+03  0.00000000000E+00 0. -1.
         21    1    1    2  504  503  0.24002614168E+02  0.11515412710E+02  0.28105494012E+02  0.38712388333E+02  0.00000000000E+00 0.  1.
</event>
<event>
 4    1  0.1571930E+006  0.2100124E+02  0.7546771E-02  0.1519247E+00
         21   -1    0    0  504  501  0.00000000000E+00  0.00000000000E+00  0.38784066408E+03  0.38784066408E+03  0.00000000000E+00 0. -1.
         21   -1    0    0  503  502 -0.00000000000E+00 -0.00000000000E+00 -0.68342625312E+01  0.68342625312E+01  0.00000000000E+00 0.  1.
         21    1    1    2  503  501 -0.10576274792E+02  0.18143714357E+02  0.37067600962E+03  0.37127046216E+03  0.00000000000E+00 0. -1.
         21    1    1    2  504  502  0.10576274792E+02 -0.18143714357E+02  0.10330391926E+02  0.23404464456E+02  0.00000000000E+00 0.  1.
</event>
<event>
 4    1  0.1571930E+006  0.2168561E+02  0.7546771E-02  0.1509697E+00
         21   -1    0    0  502  501  0.00000000000E+00  0.00000000000E+00  0.12420408883E+04  0.12420408883E+04  0.00000000000E+00 0.  1.
         21   -1    0    0  503  502 -0.00000000000E+00 -0.00000000000E+00 -0.31069226570E+01  0.31069226570E+01  0.00000000000E+00 0.  1.
         21    1    1    2  503  504 -0.12309372534E+02 -0.17853428136E+02  0.36059886271E+02  0.42078271664E+02  0.00000000000E+00 0.  1.
         21    1    1    2  504  501  0.12309372534E+02  0.17853428136E+02  0.12028740794E+04  0.12030695393E+04  0.00000000000E+00 0.  1.
</event>
<event>
 4    1  0.1571930E+006  0.2699245E+02  0.7546771E-02  0.1447684E+00
         21   -1    0    0  503  501  0.00000000000E+00  0.00000000000E+00  0.40931837155E+01  0.40931837155E+01  0.00000000000E+00 0. -1.
         21   -1    0    0  504  502 -0.00000000000E+00 -0.00000000000E+00 -0.27879566337E+03  0.27879566337E+03  0.00000000000E+00 0.  1.
         21    1    1    2  503  502  0.65270428184E+01  0.26191411089E+02 -0.52303887360E+02  0.58858210437E+02  0.00000000000E+00 0. -1.
         21    1    1    2  504  501 -0.65270428184E+01 -0.26191411089E+02 -0.22239859230E+03  0.22403063665E+03  0.00000000000E+00 0.  1.
</event>
<event>
 4    1  0.1571930E+006  0.2067925E+02  0.7546771E-02  0.1523894E+00
         21   -1    0    0  504  501  0.00000000000E+00  0.00000000000E+00  0.37598446909E+03  0.37598446909E+03  0.00000000000E+00 0. -1.
         21   -1    0    0  503  502 -0.00000000000E+00 -0.00000000000E+00 -0.74702359226E+01  0.74702359226E+01  0.00000000000E+00 0.  1.
         21    1    1    2  503  501  0.55408659794E+01  0.19923104507E+02  0.77276289550E+01  0.22075949317E+02  0.00000000000E+00 0.  1.
         21    1    1    2  504  502 -0.55408659794E+01 -0.19923104507E+02  0.36078660421E+03  0.36137875570E+03  0.00000000000E+00 0. -1.
</event>
<event>
 4    1  0.1571930E+006  0.2075214E+02  0.7546771E-02  0.1522833E+00
         21   -1    0    0  504  501  0.00000000000E+00  0.00000000000E+00  0.22280699241E+01  0.22280699241E+01  0.00000000000E+00 0. -1.
         21   -1    0    0  503  502 -0.00000000000E+00 -0.00000000000E+00 -0.20498297738E+03  0.20498297738E+03  0.00000000000E+00 0. -1.
         21    1    1    2  503  501  0.14406568175E+02  0.14936603934E+02 -0.12612823968E+03  0.12782403604E+03  0.00000000000E+00 0. -1.
         21    1    1    2  504  502 -0.14406568175E+02 -0.14936603934E+02 -0.76626667772E+02  0.79387011264E+02  0.00000000000E+00 0. -1.
</event>
<event>
 4    1  0.1571930E+006  0.2278571E+02  0.7546771E-02  0.1495207E+00
         21   -1    0    0  502  501  0.00000000000E+00  0.00000000000E+00  0.62902559135E+02  0.62902559135E+02  0.00000000000E+00 0. -1.
         21   -1    0    0  504  502 -0.00000000000E+00 -0.00000000000E+00 -0.23700829179E+02  0.23700829179E+02  0.00000000000E+00 0.  1.
         21    1    1    2  503  501  0.13423094835E+02 -0.18412205650E+02  0.54558720737E+02  0.59125652641E+02  0.00000000000E+00 0. -1.
         21    1    1    2  504  503 -0.13423094835E+02  0.18412205650E+02 -0.15356990782E+02  0.27477735673E+02  0.00000000000E+00 0.  1.
</event>
<event>
 4    1  0.1571930E+006  0.2387460E+02  0.7546771E-02  0.1481798E+00
         21   -1    0    0  504  501  0.00000000000E+00  0.00000000000E+00  0.21932811078E+03  0.21932811078E+03  0.00000000000E+00 0.  1.
         21   -1    0    0  503  502 -0.00000000000E+00 -0.00000000000E+00 -0.22946804892E+03  0.22946804892E+03  0.00000000000E+00 0. -1.
         21    1    1    2  503  501  0.52455281440E+01  0.23291217163E+02  0.21805378754E+03  0.21935690238E+03  0.00000000000E+00 0.  1.
         21    1    1    2  504  502 -0.52455281440E+01 -0.23291217163E+02 -0.22819372567E+03  0.22943925732E+03  0.00000000000E+00 0. -1.
</event>
<event>
 4    1  0.1571930E+006  0.2155480E+02  0.7546771E-02  0.1511489E+00
         21   -1    0    0  502  501  0.00000000000E+00  0.00000000000E+00  0.51061318799E+03  0.51061318799E+03  0.00000000000E+00 0.  1.
         21   -1    0    0  503  502 -0.00000000000E+00 -0.00000000000E+00 -0.11623562306E+03  0.11623562306E+03  0.00000000000E+00 0.  1.
         21    1    1    2  503  504  0.21401382756E+02  0.25671803725E+01 -0.11500645250E+03  0.11700894716E+03  0.00000000000E+00 0.  1.
         21    1    1    2  504  501 -0.21401382756E+02 -0.25671803725E+01  0.50938401743E+03  0.50983986389E+03  0.00000000000E+00 0.  1.
</event>
<event>
 4    1  0.1571930E+006  0.2029397E+02  0.7546771E-02  0.1529588E+00
         21   -1    0    0  504  501  0.00000000000E+00  0.00000000000E+00  0.27313663715E+03  0.27313663715E+03  0.00000000000E+00 0.  1.
         21   -1    0    0  503  502 -0.00000000000E+00 -0.00000000000E+00 -0.77177209050E+01  0.77177209050E+01  0.00000000000E+00 0.  1.
         21    1    1    2  503  501 -0.79493227243E+01  0.18672265148E+02  0.67448855843E+01  0.21385478696E+02  0.00000000000E+00 0.  1.
         21    1    1    2  504  502  0.79493227243E+01 -0.18672265148E+02  0.25867403066E+03  0.25946887936E+03  0.00000000000E+00 0.  1.
</event>
<event>
 4    1  0.1571930E+006  0.4572454E+02  0.7546771E-02  0.1317856E+00
         21   -1    0    0  503  501  0.00000000000E+00  0.00000000000E+00  0.13876592621E+04  0.13876592621E+04  0.00000000000E+00 0.  1.
         21   -1    0    0  504  502 -0.00000000000E+00 -0.00000000000E+00 -0.17690551581E+01  0.17690551581E+01  0.00000000000E+00 0.  1.
         21    1    1    2  503  502 -0.27063060699E+02 -0.36855449927E+02  0.96049928168E+03  0.96158702339E+03  0.00000000000E+00 0.  1.
         21    1    1    2  504  501  0.27063060699E+02  0.36855449927E+02  0.42539092524E+03  0.42784129385E+03  0.00000000000E+00 0.  1.
</event>
<event>
 4    1  0.1571930E+006  0.2012236E+02  0.7546771E-02  0.1532173E+00
         21   -1    0    0  502  501  0.00000000000E+00  0.00000000000E+00  0.32575017158E+02  0.32575017158E+02  0.00000000000E+00 0.  1.
         21   -1    0    0  503  502 -0.00000000000E+00 -0.00000000000E+00 -0.60283243172E+02  0.60283243172E+02  0.00000000000E+00 0. -1.
         21    1    1    2  503  504  0.16964190435E+02  0.10822461157E+02 -0.55220506456E+02  0.58772559548E+02  0.00000000000E+00 0. -1.
         21    1    1    2  504  501 -0.16964190435E+02 -0.10822461157E+02  0.27512280442E+02  0.34085700781E+02  0.00000000000E+00 0.  1.
</event>
<event>
 4    1  0.1571930E+006  0.3554780E+02  0.7546771E-02  0.1376752E+00
         21   -1    0    0  504  501  0.00000000000E+00  0.00000000000E+00  0.69562206116E+03  0.69562206116E+03  0.00000000000E+00 0. -1.
         21   -1    0    0  503  502 -0.00000000000E+00 -0.00000000000E+00 -0.24730609025E+01  0.24730609025E+01  0.00000000000E+00 0. -1.
         21    1    1    2  503  501  0.17186362922E+02 -0.31117113921E+02  0.52641260169E+03  0.52761147928E+03  0.00000000000E+00 0. -1.
         21    1    1    2  504  502 -0.17186362922E+02  0.31117113921E+02  0.16673639856E+03  0.17048364277E+03  0.00000000000E+00 0. -1.
</event>
<event>
 4    1  0.1571930E+006  0.2348639E+02  0.7546771E-02  0.1486479E+00
         21   -1    0    0  502  501  0.00000000000E+00  0.00000000000E+00  0.63347275507E+03  0.63347275507E+03  0.00000000000E+00 0.  1.
         21   -1    0    0  503  502 -0.00000000000E+00 -0.00000000000E+00 -0.77670024608E+01  0.77670024608E+01  0.00000000000E+00 0. -1.
         21    1    1    2  503  504  0.22758003983E+02 -0.58037620753E+01  0.10739743520E+02  0.25825423335E+02  0.00000000000E+00 0. -1.
         21    1    1    2  504  501 -0.22758003983E+02  0.58037620753E+01  0.61496600909E+03  0.61541433419E+03  0.00000000000E+00 0.  1.
</event>
<event>
 4    1  0.1571930E+006  0.2275948E+02  0.7546771E-02  0.1495541E+00
         21   -1    0    0  504  501  0.00000000000E+00  0.00000000000E+00  0.18136572222E+03  0.18136572222E+03  0.00000000000E+00 0. -1.
         21   -1    0    0  503  502 -0.00000000000E+00 -0.00000000000E+00 -0.31968711787E+01  0.31968711787E+01  0.00000000000E+00 0.  1.
         21    1    1    2  503  501 -0.36799206265E+01  0.22460014577E+02  0.11921438861E+03  0.12136747720E+03  0.00000000000E+00 0. -1.
         21    1    1    2  504  502  0.36799206265E+01 -0.22460014577E+02  0.58954462436E+02  0.63195116202E+02  0.00000000000E+00 0.  1.
</event>
<event>
 4    1  0.1571930E+006  0.3138118E+02  0.7546771E-02  0.1407962E+00
         21   -1    0    0  502  501  0.00000000000E+00  0.00000000000E+00  0.69824444298E+02  0.69824444298E+02  0.00000000000E+00 0.  1.
         21   -1    0    0  504  502 -0.00000000000E+00 -0.00000000000E+00 -0.24181423771E+03  0.24181423771E+03  0.00000000000E+00 0.  1.
         21    1    1    2  503  501 -0.25532446728E+02 -0.18244800937E+02  0.65212157999E+02  0.72369911897E+02  0.00000000000E+00 0.  1.
         21    1    1    2  504  503  0.25532446728E+02  0.18244800937E+02 -0.23720195141E+03  0.23926877011E+03  0.00000000000E+00 0.  1.
</event>
<event>
 4    1  0.1571930E+006  0.2076456E+02  0.7546771E-02  0.1522653E+00
         21   -1    0    0  502  501  0.00000000000E+00  0.00000000000E+00  0.79924369216E+02  0.79924369216E+02  0.00000000000E+00 0. -1.
         21   -1    0    0  503  502 -0.00000000000E+00 -0.00000000000E+00 -0.20568912243E+02  0.20568912243E+02  0.00000000000E+00 0.  1.
         21    1    1    2  503  504 -0.67712901368E+01  0.19629480192E+02 -0.13479609534E+02  0.24756145417E+02  0.00000000000E+00 0.  1.
         21    1    1    2  504  501  0.67712901368E+01 -0.19629480192E+02  0.72835066508E+02  0.75737136042E+02  0.00000000000E+00 0. -1.
</event>
<event>
 4    1  0.1571930E+006  0.2060945E+02  0.7546771E-02  0.1524915E+00
         21   -1    0    0  504  501  0.00000000000E+00  0.00000000000E+00  0.29963572009E+03  0.29963572009E+03  0.00000000000E+00 0.  1.
         21   -1    0    0  503  502 -0.00000000000E+00 -0.00000000000E+00 -0.33628498639E+02  0.33628498639E+02  0.00000000000E+00 0.  1.
         21    1    1    2  503  501  0.19216801258E+02 -0.74474129728E+01 -0.30078638482E+02  0.36461951449E+02  0.00000000000E+00 0.  1.
         21    1    1    2  504  502 -0.19216801258E+02  0.74474129728E+01  0.29608585993E+03  0.29680226728E+03  0.00000000000E+00 0.  1.
</event>
<event>
 4    1  0.1571930E+006  0.2760932E+02  0.7546771E-02  0.1441582E+00
         21   -1    0    0  504  501  0.00000000000E+00  0.00000000000E+00  0.10231290254E+04  0.10231290254E+04  0.00000000000E+00 0. -1.
         21   -1    0    0  501  502 -0.00000000000E+00 -0.00000000000E+00 -0.28466085118E+01  0.28466085118E+01  0.00000000000E+00 0. -1.
         21    1    1    2  503  502 -0.15702808993E+02  0.22708947076E+02  0.69368486671E+02  0.74660976625E+02  0.00000000000E+00 0. -1.
         21    1    1    2  504  503  0.15702808993E+02 -0.22708947076E+02  0.95091393019E+03  0.95131465726E+03  0.00000000000E+00 0. -1.
</event>
<event>
 4    1  0.1571930E+006  0.2285611E+02  0.7546771E-02  0.1494313E+00
         21   -1    0    0  504  501  0.00000000000E+00  0.00000000000E+00  0.20254544520E+02  0.20254544520E+02  0.00000000000E+00 0.  1.
         21   -1    0    0  503  502 -0.00000000000E+00 -0.00000000000E+00 -0.24260623042E+03  0.24260623042E+03  0.00000000000E+00 0.  1.
         21    1    1    2  503  501  0.21494938101E+02 -0.77697730537E+01  0.13072005455E+02  0.26330193009E+02  0.00000000000E+00 0.  1.
         21    1    1    2  504  502 -0.21494938101E+02  0.77697730537E+01 -0.23542369135E+03  0.23653058193E+03  0.00000000000E+00 0.  1.
</event>
<event>
 4    1  0.1571930E+006  0.2394414E+02  0.7546771E-02  0.1480971E+00
         21   -1    0    0  503  501  0.00000000000E+00  0.00000000000E+00  0.11184193452E+03  0.11184193452E+03  0.00000000000E+00 0. -1.
         21   -1    0    0  504  502 -0.00000000000E+00 -0.00000000000E+00 -0.18256058097E+02  0.18256058097E+02  0.00000000000E+00 0.  1.
         21    1    1    2  503  502 -0.16816681419E+02 -0.17044679746E+02 -0.83725471047E+01  0.25365753026E+02  0.00000000000E+00 0.  1.
         21    1    1    2  504  501  0.16816681419E+02  0.17044679746E+02  0.10195842353E+03  0.10473223960E+03  0.00000000000E+00 0. -1.
</event>
<event>
 4    1  0.1571930E+006  0.2329831E+02  0.7546771E-02  0.1488786E+00
         21   -1    0    0  504  501  0.00000000000E+00  0.00000000000E+00  0.73735498110E+01  0.73735498110E+01  0.00000000000E+00 0. -1.
         21   -1    0    0  503  502 -0.00000000000E+00 -0.00000000000E+00 -0.10315131126E+03  0.10315131126E+03  0.00000000000E+00 0. -1.
         21    1    1    2  503  501  0.16419532709E+02  0.16529066680E+02 -0.18318050065E+02  0.29637173581E+02  0.00000000000E+00 0. -1.
         21    1    1    2  504  502 -0.16419532709E+02 -0.16529066680E+02 -0.77459711380E+02  0.80887687486E+02  0.00000000000E+00 0. -1.
</event>
<event>
 4    1  0.1571930E+006  0.2772073E+02  0.7546771E-02  0.1440500E+00
         21   -1    0    0  503  501  0.00000000000E+00  0.00000000000E+00  0.23015553305E+03  0.23015553305E+03  0.00000000000E+00 0. -1.
         21   -1    0    0  504  502 -0.00000000000E+00 -0.00000000000E+00 -0.48879689807E+01  0.48879689807E+01  0.00000000000E+00 0.  1.
         21    1    1    2  503  502 -0.27663989181E+02 -0.17727163020E+01  0.46472158542E+02  0.54111924195E+02  0.00000000000E+00 0.  1.
         21    1    1    2  504  501  0.27663989181E+02  0.17727163020E+01  0.17879540553E+03  0.18093157784E+03  0.00000000000E+00 0. -1.
</event>
<event>
 4    1  0.1571930E+006  0.2049564E+02  0.7546771E-02  0.1526589E+00
         21   -1    0    0  502  501  0.00000000000E+00  0.00000000000E+00  0.30386282825E+02  0.30386282825E+02  0.00000000000E+00 0. -1.
         21   -1    0    0  503  502 -0.00000000000E+00 -0.00000000000E+00 -0.19522460294E+02  0.19522460294E+02  0.00000000000E+00 0. -1.
         21    1    1    2  503  504  0.19501427880E+02 -0.63059993847E+01 -0.80497651797E+01  0.22019764691E+02  0.00000000000E+00 0. -1.
         21    1    1    2  504  501 -0.19501427880E+02  0.63059993847E+01  0.18913587711E+02  0.27888978427E+02  0.00000000000E+00 0. -1.
</event>
<event>
 4    1  0.1571930E+006  0.2268719E+02  0.7546771E-02  0.1496464E+00
         21   -1    0    0  504  501  0.00000000000E+00  0.00000000000E+00  0.12411314689E+02  0.12411314689E+02  0.00000000000E+00 0. -1.
         21   -1    0    0  503  502 -0.00000000000E+00 -0.00000000000E+00 -0.41773067082E+02  0.41773067082E+02  0.00000000000E+00 0. -1.
         21    1    1    2  503  501  0.22657395445E+02  0.11624248493E+01 -0.12376805473E+02  0.25843647452E+02  0.00000000000E+00 0. -1.
         21    1    1    2  504  502 -0.22657395445E+02 -0.11624248493E+01 -0.16984946919E+02  0.28340734319E+02  0.00000000000E+00 0. -1.
</event>
<event>
 4    1  0.1571930E+006  0.2064045E+02  0.7546771E-02  0.1524461E+00
         21   -1    0    0  503  501  0.00000000000E+00  0.00000000000E+00  0.10761123713E+03  0.10761123713E+03  0.00000000000E+00 0. -1.
         21   -1    0    0  501  502 -0.00000000000E+00 -0.00000000000E+00 -0.14152966938E+02  0.14152966938E+02  0.00000000000E+00 0. -1.
         21    1    1    2  503  504 -0.19973083694E+02  0.52061721160E+01  0.98399129080E+02  0.10054062315E+03  0.00000000000E+00 0. -1.
         21    1    1    2  504  502  0.19973083694E+02 -0.52061721160E+01 -0.49408588866E+01  0.21223580916E+02  0.00000000000E+00 0. -1.
</event>
<event>
 4    1  0.1571930E+006  0.2171588E+02  0.7546771E-02  0.1509285E+00
         21   -1    0    0  504  501  0.00000000000E+00  0.00000000000E+00  0.72302282658E+02  0.72302282658E+02  0.00000000000E+00 0. -1.
         21   -1    0    0  503  502 -0.00000000000E+00 -0.00000000000E+00 -0.10804249662E+02  0.10804249662E+02  0.00000000000E+00 0.  1.
         21    1    1    2  503  501  0.21693635192E+02 -0.98256289517E+00  0.45896516921E+01  0.22195588308E+02  0.00000000000E+00 0.  1.
         21    1    1    2  504  502 -0.21693635192E+02  0.98256289517E+00  0.56908381304E+02  0.60910944011E+02  0.00000000000E+00 0. -1.
</event>
<event>
 4    1  0.1571930E+006  0.2407816E+02  0.7546771E-02  0.1479386E+00
         21   -1    0    0  503  501  0.00000000000E+00  0.00000000000E+00  0.64329623576E+00  0.64329623576E+00  0.00000000000E+00 0. -1.
         21   -1    0    0  501  502 -0.00000000000E+00 -0.00000000000E+00 -0.10666113155E+04  0.10666113155E+04  0.00000000000E+00 0. -1.
         21    1    1    2  503  504  0.17363842369E+02 -0.16680969490E+02 -0.32285869364E+03  0.32375529930E+03  0.00000000000E+00 0. -1.
         21    1    1    2  504  502 -0.17363842369E+02  0.16680969490E+02 -0.74310932561E+03  0.74349931243E+03  0.00000000000E+00 0. -1.
</event>
<event>
 4    1  0.1571930E+006  0.2506110E+02  0.7546771E-02  0.1468121E+00
         21   -1    0    0  502  501  0.00000000000E+00  0.00000000000E+00  0.32767191830E+02  0.32767191830E+02  0.00000000000E+00 0. -1.
         21   -1    0    0  504  502 -0.00000000000E+00 -0.00000000000E+00 -0.30493450950E+03  0.30493450950E+03  0.00000000000E+00 0.  1.
         21    1    1    2  503  501 -0.79974632203E+01 -0.23750778202E+02  0.27374331499E+02  0.37113513821E+02  0.00000000000E+00 0. -1.
         21    1    1    2  504  503  0.79974632203E+01  0.23750778202E+02 -0.29954164917E+03  0.30058818751E+03  0.00000000000E+00 0.  1.
</event>
<event>
 4    1  0.1571930E+006  0.3929288E+02  0.7546771E-02  0.1352680E+00
         21   -1    0    0  504  501  0.00000000000E+00  0.00000000000E+00  0.85606781952E+01  0.85606781952E+01  0.00000000000E+00 0.  1.
         21   -1    0    0  503  502 -0.00000000000E+00 -0.00000000000E+00 -0.55230866061E+03  0.55230866061E+03  0.00000000000E+00 0.  1.
         21    1    1    2  503  501 -0.39134805214E+02  0.35210342245E+01 -0.50201142820E+03  0.50354682474E+03  0.00000000000E+00 0.  1.
         21    1    1    2  504  502  0.39134805214E+02 -0.35210342245E+01 -0.41736554214E+02  0.57322514066E+02  0.00000000000E+00 0.  1.
</event>
<event>
 4    1  0.1571930E+006  0.5436203E+02  0.7546771E-02  0.1280293E+00
         21   -1    0    0  503  501  0.00000000000E+00  0.00000000000E+00  0.16121569976E+03  0.16121569976E+03  0.00000000000E+00 0. -1.
         21   -1    0    0  504  502 -0.00000000000E+00 -0.00000000000E+00 -0.48700884331E+02  0.48700884331E+02  0.00000000000E+00 0.  1.
         21    1    1    2  503  502  0.81467074290E+01 -0.53748129526E+02  0.13914137930E+03  0.14938391380E+03  0.00000000000E+00 0. -1.
         21    1    1    2  504  501 -0.81467074290E+01  0.53748129526E+02 -0.26626563866E+02  0.60532670293E+02  0.00000000000E+00 0.  1.
</event>
<event>
 4    1  0.1571930E+006  0.2862317E+02  0.7546771E-02  0.1431951E+00
         21   -1    0    0  502  501  0.00000000000E+00  0.00000000000E+00  0.66208396190E+01  0.66208396190E+01  0.00000000000E+00 0. -1.
         21   -1    0    0  504  502 -0.00000000000E+00 -0.00000000000E+00 -0.21095168487E+03  0.21095168487E+03  0.00000000000E+00 0. -1.
         21    1    1    2  503  501  0.28621391698E+02 -0.31939586972E+00 -0.32219709714E+02  0.43097514668E+02  0.00000000000E+00 0. -1.
         21    1    1    2  504  503 -0.28621391698E+02  0.31939586972E+00 -0.17211113553E+03  0.17447500982E+03  0.00000000000E+00 0. -1.
</event>
<event>
 4    1  0.1571930E+006  0.2111108E+02  0.7546771E-02  0.1517685E+00
         21   -1    0    0  504  501  0.00000000000E+00  0.00000000000E+00  0.58022923243E+02  0.58022923243E+02  0.00000000000E+00 0.  1.
         21   -1    0    0  501  502 -0.00000000000E+00 -0.00000000000E+00 -0.16224921478E+02  0.16224921478E+02  0.00000000000E+00 0.  1.
         21    1    1    2  503  502 -0.20956236287E+02  0.25522088855E+01 -0.60405052139E+01  0.21958262972E+02  0.00000000000E+00 0.  1.
         21    1    1    2  504  503  0.20956236287E+02 -0.25522088855E+01  0.47838506979E+02  0.52289581749E+02  0.00000000000E+00 0.  1.
</event>
<event>
 4    1  0.1571930E+006  0.2232690E+02  0.7546771E-02  0.1501128E+00
         21   -1    0    0  503  501  0.00000000000E+00  0.00000000000E+00  0.75020848680E+02  0.75020848680E+02  0.00000000000E+00 0.  1.
         21   -1    0    0  504  502 -0.00000000000E+00 -0.00000000000E+00 -0.78313438890E+01  0.78313438890E+01  0.00000000000E+00 0.  1.
         21    1    1    2  503  502 -0.13225998975E+02 -0.17987870823E+02  0.17469101425E+02  0.28348898572E+02  0.00000000000E+00 0.  1.
         21    1    1    2  504  501  0.13225998975E+02  0.17987870823E+02  0.49720403367E+02  0.54503293998E+02  0.00000000000E+00 0.  1.
</event>
<event>
 4    1  0.1571930E+006  0.3039605E+02  0.7546771E-02  0.1416185E+00
         21   -1    0    0  503  501  0.00000000000E+00  0.00000000000E+00  0.69260972452E+02  0.69260972452E+02  0.00000000000E+00 0.  1.
         21   -1    0    0  504  502 -0.00000000000E+00 -0.00000000000E+00 -0.14192797945E+02  0.14192797945E+02  0.00000000000E+00 0.  1.
         21    1    1    2  503  502 -0.27598691763E+02 -0.12737030454E+02  0.37764297855E+02  0.48477437270E+02  0.00000000000E+00 0.  1.
         21    1    1    2  504  501  0.27598691763E+02  0.12737030454E+02  0.17303876653E+02  0.34976333127E+02  0.00000000000E+00 0.  1.
</event>
<event>
 4    1  0.1571930E+006  0.3326400E+02  0.7546771E-02  0.1393196E+00
         21   -1    0    0  502  501  0.00000000000E+00  0.00000000000E+00  0.54023380471E+02  0.54023380471E+02  0.00000000000E+00 0. -1.
         21   -1    0    0  503  502 -0.00000000000E+00 -0.00000000000E+00 -0.45114364852E+02  0.45114364852E+02  0.00000000000E+00 0. -1.
         21    1    1    2  503  504 -0.27480535533E+02 -0.18743373245E+02 -0.32172951508E+02  0.46277345241E+02  0.00000000000E+00 0. -1.
         21    1    1    2  504  501  0.27480535533E+02  0.18743373245E+02  0.41081967127E+02  0.52860400082E+02  0.00000000000E+00 0. -1.
</event>
<event>
 4    1  0.1571930E+006  0.3198593E+02  0.7546771E-02  0.1403089E+00
         21   -1    0    0  502  501  0.00000000000E+00  0.00000000000E+00  0.19375811215E+03  0.19375811215E+03  0.00000000000E+00 0. -1.
         21   -1    0    0  504  502 -0.00000000000E+00 -0.00000000000E+00 -0.36222769671E+02  0.36222769671E+02  0.00000000000E+00 0. -1.
         21    1    1    2  503  501 -0.12203867115E+02 -0.29566285723E+02  0.18504691302E+03  0.18779099989E+03  0.00000000000E+00 0. -1.
         21    1    1    2  504  503  0.12203867115E+02  0.29566285723E+02 -0.27511570535E+02  0.42189881930E+02  0.00000000000E+00 0. -1.
</event>
<event>
 4    1  0.1571930E+006  0.2215800E+02  0.7546771E-02  0.1503351E+00
         21   -1    0    0  503  501  0.00000000000E+00  0.00000000000E+00  0.23500979673E+02  0.23500979673E+02  0.00000000000E+00 0. -1.
         21   -1    0    0  501  502 -0.00000000000E+00 -0.00000000000E+00 -0.24995198413E+02  0.24995198413E+02  0.00000000000E+00 0. -1.
         21    1    1    2  503  504 -0.22154193134E+02  0.41086185157E+00  0.90776656083E+01  0.23945377294E+02  0.00000000000E+00 0. -1.
         21    1    1    2  504  502  0.22154193134E+02 -0.41086185157E+00 -0.10571884348E+02  0.24550800792E+02  0.00000000000E+00 0. -1.
</event>
<event>
 4    1  0.1571930E+006  0.2937838E+02  0.7546771E-02  0.1425076E+00
         21   -1    0    0  502  501  0.00000000000E+00  0.00000000000E+00  0.20496337648E+02  0.20496337648E+02  0.00000000000E+00 0. -1.
         21   -1    0    0  504  502 -0.00000000000E+00 -0.00000000000E+00 -0.55643819057E+02  0.55643819057E+02  0.00000000000E+00 0. -1.
         21    1    1    2  503  501  0.51833252351E+01 -0.28917509545E+02  0.12018901234E+01  0.29402954931E+02  0.00000000000E+00 0. -1.
         21    1    1    2  504  503 -0.51833252351E+01  0.28917509545E+02 -0.36349371533E+02  0.46737201774E+02  0.00000000000E+00 0. -1.
</event>
<event>
 4    1  0.1571930E+006  0.3589427E+02  0.7546771E-02  0.1374383E+00
         21   -1    0    0  503  501  0.00000000000E+00  0.00000000000E+00  0.44917426382E+02  0.44917426382E+02  0.00000000000E+00 0. -1.
         21   -1    0    0  504  502 -0.00000000000E+00 -0.00000000000E+00 -0.37564460528E+02  0.37564460528E+02  0.00000000000E+00 0. -1.
         21    1    1    2  503  502 -0.62020592589E+01  0.35354396829E+02 -0.16375835230E+02  0.39453350855E+02  0.00000000000E+00 0. -1.
         21    1    1    2  504  501  0.62020592589E+01 -0.35354396829E+02  0.23728801084E+02  0.43028536055E+02  0.00000000000E+00 0. -1.
</event>
<event>
 4    1  0.1571930E+006  0.2271935E+02  0.7546771E-02  0.1496053E+00
         21   -1    0    0  503  501  0.00000000000E+00  0.00000000000E+00  0.93600405918E+01  0.93600405918E+01  0.00000000000E+00 0. -1.
         21   -1    0    0  501  502 -0.00000000000E+00 -0.00000000000E+00 -0.17609876550E+03  0.17609876550E+03  0.00000000000E+00 0.  1.
         21    1    1    2  503  504 -0.14432199359E+02  0.17546521073E+02 -0.65187712029E+01  0.23636056315E+02  0.00000000000E+00 0. -1.
         21    1    1    2  504  502  0.14432199359E+02 -0.17546521073E+02 -0.16021995370E+03  0.16182274978E+03  0.00000000000E+00 0.  1.
</event>
<event>
 4    1  0.1571930E+006  0.3549588E+02  0.7546771E-02  0.1377110E+00
         21   -1    0    0  504  501  0.00000000000E+00  0.00000000000E+00  0.25907862911E+03  0.25907862911E+03  0.00000000000E+00 0. -1.
         21   -1    0    0  501  502 -0.00000000000E+00 -0.00000000000E+00 -0.51212646465E+02  0.51212646465E+02  0.00000000000E+00 0.  1.
         21    1    1    2  503  502  0.24550148270E+02  0.25636846616E+02 -0.43662509173E+02  0.56270528625E+02  0.00000000000E+00 0.  1.
         21    1    1    2  504  503 -0.24550148270E+02 -0.25636846616E+02  0.25152849182E+03  0.25402074695E+03  0.00000000000E+00 0. -1.
</event>
<event>
 4    1  0.1571930E+006  0.3296001E+02  0.7546771E-02  0.1395501E+00
         21   -1    0    0  502  501  0.00000000000E+00  0.00000000000E+00  0.10176342335E+04  0.10176342335E+04  0.00000000000E+00 0. -1.
         21   -1    0    0  503  502 -0.00000000000E+00 -0.00000000000E+00 -0.17843447527E+01  0.17843447527E+01  0.00000000000E+00 0. -1.
         21    1    1    2  503  504  0.19507066557E+02  0.26567581616E+02  0.18486392555E+03  0.18777921346E+03  0.00000000000E+00 0. -1.
         21    1    1    2  504  501 -0.19507066557E+02 -0.26567581616E+02  0.83098596321E+03  0.83163936481E+03  0.00000000000E+00 0. -1.
</event>
<event>
 4    1  0.1571930E+006  0.3071601E+02  0.7546771E-02  0.1413474E+00
         21   -1    0    0  503  501  0.00000000000E+00  0.00000000000E+00  0.28050807890E+03  0.28050807890E+03  0.00000000000E+00 0.  1.
         21   -1    0    0  504  502 -0.00000000000E+00 -0.00000000000E+00 -0.36306439636E+01  0.36306439636E+01  0.00000000000E+00 0.  1.
         21    1    1    2  503  502  0.21702579792E+02 -0.21736400266E+02  0.17698009435E+03  0.17962579677E+03  0.00000000000E+00 0.  1.
         21    1    1    2  504  501 -0.21702579792E+02  0.21736400266E+02  0.99897340584E+02  0.10451292610E+03  0.00000000000E+00 0.  1.
</event>
<event>
 4    1  0.1571930E+006  0.2014749E+02  0.7546771E-02  0.1531793E+00
         21   -1    0    0  504  501  0.00000000000E+00  0.00000000000E+00  0.57233384981E+02  0.57233384981E+02  0.00000000000E+00 0. -1.
         21   -1    0    0  503  502 -0.00000000000E+00 -0.00000000000E+00 -0.18089366232E+02  0.18089366232E+02  0.00000000000E+00 0. -1.
         21    1    1    2  503  501 -0.11961091974E+02  0.16212756227E+02 -0.97923986734E+01  0.22401166431E+02  0.00000000000E+00 0. -1.
         21    1    1    2  504  502  0.11961091974E+02 -0.16212756227E+02  0.48936417423E+02  0.52921584782E+02  0.00000000000E+00 0. -1.
</event>
<event>
 4    1  0.1571930E+006  0.2007920E+02  0.7546771E-02  0.1532828E+00
         21   -1    0    0  504  501  0.00000000000E+00  0.00000000000E+00  0.18337230893E+03  0.18337230893E+03  0.00000000000E+00 0.  1.
         21   -1    0    0  503  502 -0.00000000000E+00 -0.00000000000E+00 -0.22063136090E+01  0.22063136090E+01  0.00000000000E+00 0.  1.
         21    1    1    2  503  501 -0.19562854608E+02  0.45242531362E+01  0.85119436585E+02  0.87455660945E+02  0.00000000000E+00 0.  1.
         21    1    1    2  504  502  0.19562854608E+02 -0.45242531362E+01  0.96046558736E+02  0.98122961594E+02  0.00000000000E+00 0.  1.
</event>
<event>
 4    1  0.1571930E+006  0.2194452E+02  0.7546771E-02  0.1506195E+00
         21   -1    0    0  502  501  0.00000000000E+00  0.00000000000E+00  0.22856874723E+03  0.22856874723E+03  0.00000000000E+00 0.  1.
         21   -1    0    0  503  502 -0.00000000000E+00 -0.00000000000E+00 -0.70488827235E+01  0.70488827235E+01  0.00000000000E+00 0.  1.
         21    1    1    2  503  504 -0.15010800299E+02 -0.16007431609E+02  0.12116066635E+02  0.25067131128E+02  0.00000000000E+00 0.  1.
         21    1    1    2  504  501  0.15010800299E+02  0.16007431609E+02  0.20940379787E+03  0.21055049882E+03  0.00000000000E+00 0.  1.
</event>
<event>
 4    1  0.1571930E+006  0.3888410E+02  0.7546771E-02  0.1355152E+00
         21   -1    0    0  503  501  0.00000000000E+00  0.00000000000E+00  0.25510266950E+02  0.25510266950E+02  0.00000000000E+00 0. -1.
         21   -1    0    0  504  502 -0.00000000000E+00 -0.00000000000E+00 -0.73475919411E+02  0.73475919411E+02  0.00000000000E+00 0. -1.
         21    1    1    2  503  502 -0.27573676385E+02  0.27416521838E+02 -0.45745831782E+02  0.60038774342E+02  0.00000000000E+00 0. -1.
         21    1    1    2  504  501  0.27573676385E+02 -0.27416521838E+02 -0.22198206794E+01  0.38947412019E+02  0.00000000000E+00 0. -1.
</event>
<event>
 4    1  0.1571930E+006  0.2267150E+02  0.7546771E-02  0.1496665E+00
         21   -1    0    0  502  501  0.00000000000E+00  0.00000000000E+00  0.15753525507E+03  0.15753525507E+03  0.00000000000E+00 0. -1.
         21   -1    0    0  504  502 -0.00000000000E+00 -0.00000000000E+00 -0.34948198509E+01  0.34948198509E+01  0.00000000000E+00 0. -1.
         21    1    1    2  503  501  0.22542493664E+02  0.24150980807E+01  0.97768515859E+02  0.10036273916E+03  0.00000000000E+00 0. -1.
         21    1    1    2  504  503 -0.22542493664E+02 -0.24150980807E+01  0.56271919359E+02  0.60667335756E+02  0.00000000000E+00 0. -1.
</event>
<event>
 4    1  0.1571930E+006  0.2105981E+02  0.7546771E-02  0.1518413E+00
         21   -1    0    0  503  501  0.00000000000E+00  0.00000000000E+00  0.16860984318E+04  0.16860984318E+04  0.00000000000E+00 0.  1.
         21   -1    0    0  504  502 -0.00000000000E+00 -0.00000000000E+00 -0.38090794989E+00  0.38090794989E+00  0.00000000000E+00 0.  1.
         21    1    1    2  503  502  0.19880312774E+02 -0.69490011394E+01  0.37379231002E+03  0.37438510452E+03  0.00000000000E+00 0.  1.
         21    1    1    2  504  501 -0.19880312774E+02  0.69490011394E+01  0.13119252138E+04  0.13120942352E+04  0.00000000000E+00 0.  1.
</event>
<event>
 4    1  0.1571930E+006  0.2112571E+02  0.7546771E-02  0.1517478E+00
         21   -1    0    0  504  501  0.00000000000E+00  0.00000000000E+00  0.66086698999E+02  0.66086698999E+02  0.00000000000E+00 0.  1.
         21   -1    0    0  503  502 -0.00000000000E+00 -0.00000000000E+00 -0.93182954237E+01  0.93182954237E+01  0.00000000000E+00 0. -1.
         21    1    1    2  503  501  0.19349238891E+02  0.84795383143E+01  0.48165510711E+02  0.52594790975E+02  0.00000000000E+00 0.  1.
         21    1    1    2  504  502 -0.19349238891E+02 -0.84795383143E+01  0.86028928646E+01  0.22810203448E+02  0.00000000000E+00 0. -1.
</event>
<event>
 4    1  0.1571930E+006  0.3760662E+02  0.7546771E-02  0.1363112E+00
         21   -1    0    0  503  501  0.00000000000E+00  0.00000000000E+00  0.11738673632E+03  0.11738673632E+03  0.00000000000E+00 0. -1.
         21   -1    0    0  501  502 -0.00000000000E+00 -0.00000000000E+00 -0.38501515861E+02  0.38501515861E+02  0.00000000000E+00 0.  1.
         21    1    1    2  503  504 -0.31501905928E+02  0.20539912147E+02  0.10405077283E+03  0.11063824562E+03  0.00000000000E+00 0. -1.
         21    1    1    2  504  502  0.31501905928E+02 -0.20539912147E+02 -0.25165552366E+02  0.45250006563E+02  0.00000000000E+00 0.  1.
</event>
<event>
 4    1  0.1571930E+006  0.4030643E+02  0.7546771E-02  0.1346699E+00
         21   -1    0    0  503  501  0.00000000000E+00  0.00000000000E+00  0.54605631265E+03  0.54605631265E+03  0.00000000000E+00 0.  1.
         21   -1    0    0  504  502 -0.00000000000E+00 -0.00000000000E+00 -0.36029513553E+01  0.36029513553E+01  0.00000000000E+00 0.  1.
         21    1    1    2  503  502  0.36782237203E+02 -0.16482578830E+02  0.38594686036E+03  0.38804585734E+03  0.00000000000E+00 0.  1.
         21    1    1    2  504  501 -0.36782237203E+02  0.16482578830E+02  0.15650650094E+03  0.16161340667E+03  0.00000000000E+00 0.  1.
</event>
<event>
 4    1  0.1571930E+006  0.2034199E+02  0.7546771E-02  0.1528870E+00
         21   -1    0    0  504  501  0.00000000000E+00  0.00000000000E+00  0.34180116561E+03  0.34180116561E+03  0.00000000000E+00 0. -1.
         21   -1    0    0  503  502 -0.00000000000E+00 -0.00000000000E+00 -0.92454097094E+02  0.92454097094E+02  0.00000000000E+00 0.  1.
         21    1    1    2  503  501  0.15268540235E+02 -0.13441284213E+02 -0.91027829898E+02  0.93273052154E+02  0.00000000000E+00 0.  1.
         21    1    1    2  504  502 -0.15268540235E+02  0.13441284213E+02  0.34037489841E+03  0.34098221055E+03  0.00000000000E+00 0. -1.
</event>
<event>
 4    1  0.1571930E+006  0.2787481E+02  0.7546771E-02  0.1439013E+00
         21   -1    0    0  503  501  0.00000000000E+00  0.00000000000E+00  0.16365812896E+02  0.16365812896E+02  0.00000000000E+00 0. -1.
         21   -1    0    0  504  502 -0.00000000000E+00 -0.00000000000E+00 -0.76880419287E+02  0.76880419287E+02  0.00000000000E+00 0. -1.
         21    1    1    2  503  502 -0.22806475137E+02 -0.16027157882E+02 -0.59090308181E+02  0.65335056585E+02  0.00000000000E+00 0. -1.
         21    1    1    2  504  501  0.22806475137E+02  0.16027157882E+02 -0.14242982092E+01  0.27911175599E+02  0.00000000000E+00 0. -1.
</event>
<event>
 4    1  0.1571930E+006  0.2166388E+02  0.7546771E-02  0.1509994E+00
         21   -1    0    0  504  501  0.00000000000E+00  0.00000000000E+00  0.20998738723E+02  0.20998738723E+02  0.00000000000E+00 0.  1.
         21   -1    0    0  503  502 -0.00000000000E+00 -0.00000000000E+00 -0.22977683474E+02  0.22977683474E+02  0.00000000000E+00 0.  1.
         21    1    1    2  503  501 -0.18230925562E+02  0.11702862759E+02  0.26444606663E+01  0.21824683636E+02  0.00000000000E+00 0.  1.
         21    1    1    2  504  502  0.18230925562E+02 -0.11702862759E+02 -0.46234054165E+01  0.22151738560E+02  0.00000000000E+00 0.  1.
</event>
<event>
 4    1  0.1571930E+006  0.2447751E+02  0.7546771E-02  0.1474734E+00
         21   -1    0    0  504  501  0.00000000000E+00  0.00000000000E+00  0.15231413789E+02  0.15231413789E+02  0.00000000000E+00 0. -1.
         21   -1    0    0  503  502 -0.00000000000E+00 -0.00000000000E+00 -0.19372592743E+03  0.19372592743E+03  0.00000000000E+00 0. -1.
         21    1    1    2  503  501 -0.24458250659E+02  0.97085018477E+00  0.40229028938E+01  0.24805892910E+02  0.00000000000E+00 0. -1.
         21    1    1    2  504  502  0.24458250659E+02 -0.97085018477E+00 -0.18251741653E+03  0.18415144831E+03  0.00000000000E+00 0. -1.
</event>
<event>
 4    1  0.1571930E+006  0.4175982E+02  0.7546771E-02  0.1338471E+00
         21   -1    0    0  503  501  0.00000000000E+00  0.00000000000E+00  0.94519242408E+02  0.94519242408E+02  0.00000000000E+00 0. -1.
         21   -1    0    0  501  502 -0.00000000000E+00 -0.00000000000E+00 -0.48030041446E+03  0.48030041446E+03  0.00000000000E+00 0. -1.
         21    1    1    2  503  504 -0.21896809308E+02  0.35558570310E+02  0.88944976856E+02  0.98260323062E+02  0.00000000000E+00 0. -1.
         21    1    1    2  504  502  0.21896809308E+02 -0.35558570310E+02 -0.47472614891E+03  0.47655933381E+03  0.00000000000E+00 0. -1.
</event>
<event>
 4    1  0.1571930E+006  0.3055162E+02  0.7546771E-02  0.1414862E+00
         21   -1    0    0  504  501  0.00000000000E+00  0.00000000000E+00  0.25495296103E+02  0.25495296103E+02  0.00000000000E+00 0. -1.
         21   -1    0    0  501  502 -0.00000000000E+00 -0.00000000000E+00 -0.36625521837E+02  0.36625521837E+02  0.00000000000E+00 0. -1.
         21    1    1    2  503  502  0.13762385157E+02 -0.27276325592E+02 -0.49407280843E+01  0.30948537558E+02  0.00000000000E+00 0. -1.
         21    1    1    2  504  503 -0.13762385157E+02  0.27276325592E+02 -0.61894976496E+01  0.31172280381E+02  0.00000000000E+00 0. -1.
</event>
<event>
 4    1  0.1571930E+006  0.2361882E+02  0.7546771E-02  0.1484870E+00
         21   -1    0    0  504  501  0.00000000000E+00  0.00000000000E+00  0.15489362352E+01  0.15489362352E+01  0.00000000000E+00 0.  1.
         21   -1    0    0  503  502 -0.00000000000E+00 -0.00000000000E+00 -0.37977724963E+03  0.37977724963E+03  0.00000000000E+00 0.  1.
         21    1    1    2  503  501 -0.18370399819E+02 -0.14845100386E+02 -0.14576930435E+03  0.14767037172E+03  0.00000000000E+00 0.  1.
         21    1    1    2  504  502  0.18370399819E+02  0.14845100386E+02 -0.23245900904E+03  0.23365581414E+03  0.00000000000E+00 0.  1.
</event>
<event>
 4    1  0.1571930E+006  0.4648332E+02  0.7546771E-02  0.1314185E+00
         21   -1    0    0  504  501  0.00000000000E+00  0.00000000000E+00  0.23158924324E+02  0.23158924324E+02  0.00000000000E+00 0.  1.
         21   -1    0    0  503  502 -0.00000000000E+00 -0.00000000000E+00 -0.93827271066E+02  0.93827271066E+02  0.00000000000E+00 0.  1.
         21    1    1    2  503  501  0.69231288538E+01  0.45964870821E+02 -0.30944172242E+02  0.55841211112E+02  0.00000000000E+00 0.  1.
         21    1    1    2  504  502 -0.69231288538E+01 -0.45964870821E+02 -0.39724174500E+02  0.61144984278E+02  0.00000000000E+00 0.  1.
</event>
<event>
 4    1  0.1571930E+006  0.2902107E+02  0.7546771E-02  0.1428298E+00
         21   -1    0    0  502  501  0.00000000000E+00  0.00000000000E+00  0.32205118211E+02  0.32205118211E+02  0.00000000000E+00 0. -1.
         21   -1    0    0  503  502 -0.00000000000E+00 -0.00000000000E+00 -0.34660663914E+02  0.34660663914E+02  0.00000000000E+00 0. -1.
         21    1    1    2  503  504  0.27966514603E+02 -0.77521841674E+01 -0.17792752125E+02  0.34041215116E+02  0.00000000000E+00 0. -1.
         21    1    1    2  504  501 -0.27966514603E+02  0.77521841674E+01  0.15337206422E+02  0.32824567008E+02  0.00000000000E+00 0. -1.
</event>
<event>
 4    1  0.1571930E+006  0.2142575E+02  0.7546771E-02  0.1513272E+00
         21   -1    0    0  502  501  0.00000000000E+00  0.00000000000E+00  0.11152128821E+02  0.11152128821E+02  0.00000000000E+00 0. -1.
         21   -1    0    0  503  502 -0.00000000000E+00 -0.00000000000E+00 -0.89228773955E+02  0.89228773955E+02  0.00000000000E+00 0. -1.
         21    1    1    2  503  504  0.84283560533E+01  0.19698360844E+02 -0.75875263641E+02  0.78842363221E+02  0.00000000000E+00 0. -1.
         21    1    1    2  504  501 -0.84283560533E+01 -0.19698360844E+02 -0.22013814927E+01  0.21538539556E+02  0.00000000000E+00 0. -1.
</event>
<event>
 4    1  0.1571930E+006  0.3199398E+02  0.7546771E-02  0.1403025E+00
         21   -1    0    0  504  501  0.00000000000E+00  0.00000000000E+00  0.18253888655E+01  0.18253888655E+01  0.00000000000E+00 0.  1.
         21   -1    0    0  503  502 -0.00000000000E+00 -0.00000000000E+00 -0.58562842852E+03  0.58562842852E+03  0.00000000000E+00 0.  1.
         21    1    1    2  503  501  0.31504351490E+02  0.55758823467E+01 -0.23137982749E+03  0.23358133315E+03  0.00000000000E+00 0.  1.
         21    1    1    2  504  502 -0.31504351490E+02 -0.55758823467E+01 -0.35242321216E+03  0.35387248423E+03  0.00000000000E+00 0.  1.
</event>
<event>
 4    1  0.1571930E+006  0.2090826E+02  0.7546771E-02  0.1520579E+00
         21   -1    0    0  503  501  0.00000000000E+00  0.00000000000E+00  0.22839033113E+01  0.22839033113E+01  0.00000000000E+00 0.  1.
         21   -1    0    0  501  502 -0.00000000000E+00 -0.00000000000E+00 -0.56475042982E+03  0.56475042982E+03  0.00000000000E+00 0. -1.
         21    1    1    2  503  504  0.20807682269E+02  0.20483833475E+01 -0.50715062767E+02  0.54855930466E+02  0.00000000000E+00 0.  1.
         21    1    1    2  504  502 -0.20807682269E+02 -0.20483833475E+01 -0.51175146374E+03  0.51217840266E+03  0.00000000000E+00 0. -1.
</event>
<event>
 4    1  0.1571930E+006  0.2545178E+02  0.7546771E-02  0.1463812E+00
         21   -1    0    0  504  501  0.00000000000E+00  0.00000000000E+00  0.35091364051E+01  0.35091364051E+01  0.00000000000E+00 0. -1.
         21   -1    0    0  503  502 -0.00000000000E+00 -0.00000000000E+00 -0.18465805106E+03  0.18465805106E+03  0.00000000000E+00 0. -1.
         21    1    1    2  503  501 -0.25347215973E+02 -0.23046790216E+01 -0.88932399749E+02  0.92502781732E+02  0.00000000000E+00 0. -1.
         21    1    1    2  504  502  0.25347215973E+02  0.23046790216E+01 -0.92216514905E+02  0.95664405733E+02  0.00000000000E+00 0. -1.
</event>
<event>
 4    1  0.1571930E+006  0.2088072E+02  0.7546771E-02  0.1520975E+00
         21   -1    0    0  503  501  0.00000000000E+00  0.00000000000E+00  0.97224314160E+03  0.97224314160E+03  0.00000000000E+00 0.  1.
         21   -1    0    0  501  502 -0.00000000000E+00 -0.00000000000E+00 -0.59825393145E+00  0.59825393145E+00  0.00000000000E+00 0.  1.
         21    1    1    2  503  504  0.20841677474E+02 -0.12762672506E+01  0.72922659303E+03  0.72952548164E+03  0.00000000000E+00 0.  1.
         21    1    1    2  504  502 -0.20841677474E+02  0.12762672506E+01  0.24241829464E+03  0.24331591389E+03  0.00000000000E+00 0.  1.
</event>
<event>
 4    1  0.1571930E+006  0.3525084E+02  0.7546771E-02  0.1378808E+00
         21   -1    0    0  503  501  0.00000000000E+00  0.00000000000E+00  0.38748154053E+02  0.38748154053E+02  0.00000000000E+00 0.  1.
         21   -1    0    0  504  502 -0.00000000000E+00 -0.00000000000E+00 -0.33846777641E+02  0.33846777641E+02  0.00000000000E+00 0.  1.
         21    1    1    2  503  502 -0.21125495896E+02  0.28219408146E+02  0.10768981498E+02  0.36859090269E+02  0.00000000000E+00 0.  1.
         21    1    1    2  504  501  0.21125495896E+02 -0.28219408146E+02 -0.58676050857E+01  0.35735841425E+02  0.00000000000E+00 0.  1.
</event>
<event>
 4    1  0.1571930E+006  0.2717967E+02  0.7546771E-02  0.1445812E+00
         21   -1    0    0  502  501  0.00000000000E+00  0.00000000000E+00  0.13446781168E+03  0.13446781168E+03  0.00000000000E+00 0. -1.
         21   -1    0    0  503  502 -0.00000000000E+00 -0.00000000000E+00 -0.51200332495E+02  0.51200332495E+02  0.00000000000E+00 0.  1.
         21    1    1    2  503  504 -0.27174365542E+02 -0.53687575516E+00 -0.46078524261E+02  0.53497334291E+02  0.00000000000E+00 0.  1.
         21    1    1    2  504  501  0.27174365542E+02  0.53687575516E+00  0.12934600345E+03  0.13217080989E+03  0.00000000000E+00 0. -1.
</event>
<event>
 4    1  0.1571930E+006  0.2018414E+02  0.7546771E-02  0.1531239E+00
         21   -1    0    0  503  501  0.00000000000E+00  0.00000000000E+00  0.70917097489E+03  0.70917097489E+03  0.00000000000E+00 0. -1.
         21   -1    0    0  501  502 -0.00000000000E+00 -0.00000000000E+00 -0.42802567321E+02  0.42802567321E+02  0.00000000000E+00 0. -1.
         21    1    1    2  503  504 -0.26638816296E+01  0.20007584163E+02  0.70663930487E+03  0.70692751176E+03  0.00000000000E+00 0. -1.
         21    1    1    2  504  502  0.26638816296E+01 -0.20007584163E+02 -0.40270897307E+02  0.45046030450E+02  0.00000000000E+00 0. -1.
</event>
<event>
 4    1  0.1571930E+006  0.2983548E+02  0.7546771E-02  0.1421032E+00
         21   -1    0    0  503  501  0.00000000000E+00  0.00000000000E+00  0.90890249928E+02  0.90890249928E+02  0.00000000000E+00 0. -1.
         21   -1    0    0  501  502 -0.00000000000E+00 -0.00000000000E+00 -0.18994381502E+02  0.18994381502E+02  0.00000000000E+00 0.  1.
         21    1    1    2  503  504 -0.28565029217E+02 -0.86136574234E+01  0.74186650437E+02  0.79961334978E+02  0.00000000000E+00 0. -1.
         21    1    1    2  504  502  0.28565029217E+02  0.86136574234E+01 -0.22907820114E+01  0.29923296453E+02  0.00000000000E+00 0.  1.
</event>
<event>
 4    1  0.1571930E+006  0.2012442E+02  0.7546771E-02  0.1532142E+00
         21   -1    0    0  502  501  0.00000000000E+00  0.00000000000E+00  0.84765317486E+02  0.84765317486E+02  0.00000000000E+00 0.  1.
         21   -1    0    0  504  502 -0.00000000000E+00 -0.00000000000E+00 -0.28595865626E+03  0.28595865626E+03  0.00000000000E+00 0.  1.
         21    1    1    2  503  501 -0.18585855524E+02  0.77173955355E+01  0.83210277921E+02  0.85609243491E+02  0.00000000000E+00 0.  1.
         21    1    1    2  504  503  0.18585855524E+02 -0.77173955355E+01 -0.28440361669E+03  0.28511473025E+03  0.00000000000E+00 0.  1.
</event>
<event>
 4    1  0.1571930E+006  0.2624714E+02  0.7546771E-02  0.1455321E+00
         21   -1    0    0  503  501  0.00000000000E+00  0.00000000000E+00  0.29426851026E+03  0.29426851026E+03  0.00000000000E+00 0. -1.
         21   -1    0    0  504  502 -0.00000000000E+00 -0.00000000000E+00 -0.24320376240E+01  0.24320376240E+01  0.00000000000E+00 0. -1.
         21    1    1    2  503  502 -0.11601288511E+02  0.23544058852E+02  0.11723222286E+03  0.12013453575E+03  0.00000000000E+00 0. -1.
         21    1    1    2  504  501  0.11601288511E+02 -0.23544058852E+02  0.17460424977E+03  0.17656601213E+03  0.00000000000E+00 0. -1.
</event>
<event>
 4    1  0.1571930E+006  0.2219423E+02  0.7546771E-02  0.1502872E+00
         21   -1    0    0  504  501  0.00000000000E+00  0.00000000000E+00  0.17088144321E+02  0.17088144321E+02  0.00000000000E+00 0. -1.
         21   -1    0    0  503  502 -0.00000000000E+00 -0.00000000000E+00 -0.31589068669E+02  0.31589068669E+02  0.00000000000E+00 0. -1.
         21    1    1    2  503  501  0.66332387726E+01  0.21179799793E+02 -0.14448578665E+02  0.26482922824E+02  0.00000000000E+00 0. -1.
         21    1    1    2  504  502 -0.66332387726E+01 -0.21179799793E+02 -0.52345683698E-01  0.22194290166E+02  0.00000000000E+00 0. -1.
</event>
<event>
 4    1  0.1571930E+006  0.2856378E+02  0.7546771E-02  0.1432502E+00
         21   -1    0    0  504  501  0.00000000000E+00  0.00000000000E+00  0.11794037961E+03  0.11794037961E+03  0.00000000000E+00 0. -1.
         21   -1    0    0  501  502 -0.00000000000E+00 -0.00000000000E+00 -0.31469055820E+02  0.31469055820E+02  0.00000000000E+00 0.  1.
         21    1    1    2  503  502  0.16647573806E+02 -0.23210937702E+02 -0.22748989196E+02  0.36515830157E+02  0.00000000000E+00 0.  1.
         21    1    1    2  504  503 -0.16647573806E+02  0.23210937702E+02  0.10922031299E+03  0.11289360527E+03  0.00000000000E+00 0. -1.
</event>
<event>
 4    1  0.1571930E+006  0.2246994E+02  0.7546771E-02  0.1499264E+00
         21   -1    0    0  502  501  0.00000000000E+00  0.00000000000E+00  0.99762399108E+02  0.99762399108E+02  0.00000000000E+00 0. -1.
         21   -1    0    0  503  502 -0.00000000000E+00 -0.00000000000E+00 -0.57532027195E+01  0.57532027195E+01  0.00000000000E+00 0. -1.
         21    1    1    2  503  504 -0.19265430623E+02  0.11564655202E+02  0.28704782340E+02  0.36453567675E+02  0.00000000000E+00 0. -1.
         21    1    1    2  504  501  0.19265430623E+02 -0.11564655202E+02  0.65304414048E+02  0.69062034152E+02  0.00000000000E+00 0. -1.
</event>
<event>
 4    1  0.1571930E+006  0.3341167E+02  0.7546771E-02  0.1392087E+00
         21   -1    0    0  504  501  0.00000000000E+00  0.00000000000E+00  0.13196061966E+03  0.13196061966E+03  0.00000000000E+00 0.  1.
         21   -1    0    0  503  502 -0.00000000000E+00 -0.00000000000E+00 -0.11817890992E+02  0.11817890992E+02  0.00000000000E+00 0.  1.
         21    1    1    2  503  501 -0.69507492380E+00  0.33404441437E+02  0.98393554859E+02  0.10391165226E+03  0.00000000000E+00 0.  1.
         21    1    1    2  504  502  0.69507492380E+00 -0.33404441437E+02  0.21749173809E+02  0.39866858395E+02  0.00000000000E+00 0.  1.
</event>
<event>
 4    1  0.1571930E+006  0.3320292E+02  0.7546771E-02  0.1393657E+00
         21   -1    0    0  502  501  0.00000000000E+00  0.00000000000E+00  0.61428186633E+01  0.61428186633E+01  0.00000000000E+00 0.  1.
         21   -1    0    0  503  502 -0.00000000000E+00 -0.00000000000E+00 -0.36474694126E+03  0.36474694126E+03  0.00000000000E+00 0. -1.
         21    1    1    2  503  504 -0.11777285673E+02 -0.31043995941E+02 -0.31147210921E+03  0.31323682567E+03  0.00000000000E+00 0. -1.
         21    1    1    2  504  501  0.11777285673E+02  0.31043995941E+02 -0.47132013385E+02  0.57652934249E+02  0.00000000000E+00 0.  1.
</event>
<event>
 4    1  0.1571930E+006  0.2128421E+02  0.7546771E-02  0.1515246E+00
         21   -1    0    0  504  501  0.00000000000E+00  0.00000000000E+00  0.44244784939E+01  0.44244784939E+01  0.00000000000E+00 0.  1.
         21   -1    0    0  501  502 -0.00000000000E+00 -0.00000000000E+00 -0.13878578386E+03  0.13878578386E+03  0.00000000000E+00 0.  1.
         21    1    1    2  503  502 -0.16425694315E+02  0.13535661177E+02 -0.10385004043E+03  0.10600871877E+03  0.00000000000E+00 0.  1.
         21    1    1    2  504  503  0.16425694315E+02 -0.13535661177E+02 -0.30511264934E+02  0.37201543585E+02  0.00000000000E+00 0.  1.
</event>
<event>
 4    1  0.1571930E+006  0.2600724E+02  0.7546771E-02  0.1457844E+00
         21   -1    0    0  504  501  0.00000000000E+00  0.00000000000E+00  0.15528407270E+03  0.15528407270E+03  0.00000000000E+00 0.  1.
         21   -1    0    0  503  502 -0.00000000000E+00 -0.00000000000E+00 -0.92071675589E+01  0.92071675589E+01  0.00000000000E+00 0.  1.
         21    1    1    2  503  501  0.83822091462E+01  0.24619408787E+02  0.13273986777E+03  0.13526362857E+03  0.00000000000E+00 0.  1.
         21    1    1    2  504  502 -0.83822091462E+01 -0.24619408787E+02  0.13337037377E+02  0.29227611692E+02  0.00000000000E+00 0.  1.
</event>
<event>
 4    1  0.1571930E+006  0.2170815E+02  0.7546771E-02  0.1509390E+00
         21   -1    0    0  504  501  0.00000000000E+00  0.00000000000E+00  0.42748962551E+02  0.42748962551E+02  0.00000000000E+00 0. -1.
         21   -1    0    0  503  502 -0.00000000000E+00 -0.00000000000E+00 -0.44367665949E+02  0.44367665949E+02  0.00000000000E+00 0.  1.
         21    1    1    2  503  501  0.65988222028E+01  0.20680897815E+02 -0.38570707589E+02  0.44259953376E+02  0.00000000000E+00 0.  1.
         21    1    1    2  504  502 -0.65988222028E+01 -0.20680897815E+02  0.36952004192E+02  0.42856675124E+02  0.00000000000E+00 0. -1.
</event>
<event>
 4    1  0.1571930E+006  0.8009578E+02  0.7546771E-02  0.1203625E+00
         21   -1    0    0  503  501  0.00000000000E+00  0.00000000000E+00  0.52180555328E+03  0.52180555328E+03  0.00000000000E+00 0. -1.
         21   -1    0    0  504  502 -0.00000000000E+00 -0.00000000000E+00 -0.13022187907E+02  0.13022187907E+02  0.00000000000E+00 0. -1.
         21    1    1    2  503  502 -0.65697311052E+02  0.45816990220E+02  0.19117707485E+03  0.20727760907E+03  0.00000000000E+00 0. -1.
         21    1    1    2  504  501  0.65697311052E+02 -0.45816990220E+02  0.31760629053E+03  0.32755013213E+03  0.00000000000E+00 0. -1.
</event>
<event>
 4    1  0.1571930E+006  0.3492138E+02  0.7546771E-02  0.1381117E+00
         21   -1    0    0  504  501  0.00000000000E+00  0.00000000000E+00  0.31774137143E+03  0.31774137143E+03  0.00000000000E+00 0. -1.
         21   -1    0    0  501  502 -0.00000000000E+00 -0.00000000000E+00 -0.12530763296E+02  0.12530763296E+02  0.00000000000E+00 0.  1.
         21    1    1    2  503  502  0.24492533852E+02  0.24892140166E+02  0.15064613762E+02  0.38032163288E+02  0.00000000000E+00 0.  1.
         21    1    1    2  504  503 -0.24492533852E+02 -0.24892140166E+02  0.29014599437E+03  0.29223997143E+03  0.00000000000E+00 0. -1.
</event>
<event>
 4    1  0.1571930E+006  0.2270842E+02  0.7546771E-02  0.1496192E+00
         21   -1    0    0  502  501  0.00000000000E+00  0.00000000000E+00  0.19191540198E+02  0.19191540198E+02  0.00000000000E+00 0.  1.
         21   -1    0    0  503  502 -0.00000000000E+00 -0.00000000000E+00 -0.50109932736E+03  0.50109932736E+03  0.00000000000E+00 0. -1.
         21    1    1    2  503  504 -0.76597010802E+01  0.21377587645E+02 -0.49402852135E+03  0.49455015133E+03  0.00000000000E+00 0. -1.
         21    1    1    2  504  501  0.76597010802E+01 -0.21377587645E+02  0.12120734194E+02  0.25740716221E+02  0.00000000000E+00 0.  1.
</event>
<event>
 4    1  0.1571930E+006  0.3361567E+02  0.7546771E-02  0.1390566E+00
         21   -1    0    0  504  501  0.00000000000E+00  0.00000000000E+00  0.30441044188E+02  0.30441044188E+02  0.00000000000E+00 0.  1.
         21   -1    0    0  503  502 -0.00000000000E+00 -0.00000000000E+00 -0.19126350731E+03  0.19126350731E+03  0.00000000000E+00 0. -1.
         21    1    1    2  503  501  0.25920300264E+02 -0.21404467616E+02 -0.17992639188E+03  0.18303966700E+03  0.00000000000E+00 0. -1.
         21    1    1    2  504  502 -0.25920300264E+02  0.21404467616E+02  0.19103928756E+02  0.38664884503E+02  0.00000000000E+00 0.  1.
</event>
<event>
 4    1  0.1571930E+006  0.2141972E+02  0.7546771E-02  0.1513356E+00
         21   -1    0    0  502  501  0.00000000000E+00  0.00000000000E+00  0.56578498434E+03  0.56578498434E+03  0.00000000000E+00 0. -1.
         21   -1    0    0  503  502 -0.00000000000E+00 -0.00000000000E+00 -0.79964203145E+02  0.79964203145E+02  0.00000000000E+00 0. -1.
         21    1    1    2  503  504  0.16825334164E+02  0.13255657623E+02 -0.78322896953E+02  0.81199017949E+02  0.00000000000E+00 0. -1.
         21    1    1    2  504  501 -0.16825334164E+02 -0.13255657623E+02  0.56414367814E+03  0.56455016953E+03  0.00000000000E+00 0. -1.
</event>
<event>
 4    1  0.1571930E+006  0.2052082E+02  0.7546771E-02  0.1526217E+00
         21   -1    0    0  502  501  0.00000000000E+00  0.00000000000E+00  0.53786174723E+02  0.53786174723E+02  0.00000000000E+00 0.  1.
         21   -1    0    0  504  502 -0.00000000000E+00 -0.00000000000E+00 -0.39420429917E+02  0.39420429917E+02  0.00000000000E+00 0. -1.
         21    1    1    2  503  501  0.14405078785E+02  0.14614985432E+02  0.48902373401E+02  0.53033444337E+02  0.00000000000E+00 0.  1.
         21    1    1    2  504  503 -0.14405078785E+02 -0.14614985432E+02 -0.34536628595E+02  0.40173160302E+02  0.00000000000E+00 0. -1.
</event>
<event>
 4    1  0.1571930E+006  0.2354211E+02  0.7546771E-02  0.1485801E+00
         21   -1    0    0  504  501  0.00000000000E+00  0.00000000000E+00  0.20425367137E+03  0.20425367137E+03  0.00000000000E+00 0.  1.
         21   -1    0    0  503  502 -0.00000000000E+00 -0.00000000000E+00 -0.29304075830E+01  0.29304075830E+01  0.00000000000E+00 0. -1.
         21    1    1    2  503  501 -0.14541528985E+02 -0.18514180274E+02  0.72474193659E+02  0.76201966398E+02  0.00000000000E+00 0. -1.
         21    1    1    2  504  502  0.14541528985E+02  0.18514180274E+02  0.12884907013E+03  0.13098211255E+03  0.00000000000E+00 0.  1.
</event>
<event>
 4    1  0.1571930E+006  0.2505744E+02  0.7546771E-02  0.1468162E+00
         21   -1    0    0  504  501  0.00000000000E+00  0.00000000000E+00  0.58914946799E+01  0.58914946799E+01  0.00000000000E+00 0. -1.
         21   -1    0    0  503  502 -0.00000000000E+00 -0.00000000000E+00 -0.12680112111E+03  0.12680112111E+03  0.00000000000E+00 0. -1.
         21    1    1    2  503  501  0.17219168016E+02 -0.18203723634E+02 -0.86953911321E+02  0.90492309039E+02  0.00000000000E+00 0. -1.
         21    1    1    2  504  502 -0.17219168016E+02  0.18203723634E+02 -0.33955715113E+02  0.42200306754E+02  0.00000000000E+00 0. -1.
</event>
<event>
 4    1  0.1571930E+006  0.2084869E+02  0.7546771E-02  0.1521436E+00
         21   -1    0    0  503  501  0.00000000000E+00  0.00000000000E+00  0.60191770150E+02  0.60191770150E+02  0.00000000000E+00 0.  1.
         21   -1    0    0  504  502 -0.00000000000E+00 -0.00000000000E+00 -0.40274700857E+02  0.40274700857E+02  0.00000000000E+00 0. -1.
         21    1    1    2  503  502  0.11765697819E+02 -0.17211509464E+02  0.55465988096E+02  0.59254903077E+02  0.00000000000E+00 0.  1.
         21    1    1    2  504  501 -0.11765697819E+02  0.17211509464E+02 -0.35548918802E+02  0.41211567930E+02  0.00000000000E+00 0. -1.
</event>
<event>
 4    1  0.1571930E+006  0.2205262E+02  0.7546771E-02  0.1504750E+00
         21   -1    0    0  503  501  0.00000000000E+00  0.00000000000E+00  0.11805890497E+03  0.11805890497E+03  0.00000000000E+00 0.  1.
         21   -1    0    0  504  502 -0.00000000000E+00 -0.00000000000E+00 -0.48757022149E+01  0.48757022149E+01  0.00000000000E+00 0.  1.
         21    1    1    2  503  502  0.13629654984E+02 -0.17336389434E+02  0.80802293695E+02  0.83757558226E+02  0.00000000000E+00 0.  1.
         21    1    1    2  504  501 -0.13629654984E+02  0.17336389434E+02  0.32380909061E+02  0.39177048960E+02  0.00000000000E+00 0.  1.
</event>
<event>
 4    1  0.1571930E+006  0.2107315E+02  0.7546771E-02  0.1518223E+00
         21   -1    0    0  502  501  0.00000000000E+00  0.00000000000E+00  0.34009307027E+03  0.34009307027E+03  0.00000000000E+00 0. -1.
         21   -1    0    0  504  502 -0.00000000000E+00 -0.00000000000E+00 -0.58099976961E+01  0.58099976961E+01  0.00000000000E+00 0. -1.
         21    1    1    2  503  501 -0.20853299158E+02  0.30360677014E+01  0.31942312227E+03  0.32011749223E+03  0.00000000000E+00 0. -1.
         21    1    1    2  504  503  0.20853299158E+02 -0.30360677014E+01  0.14859950304E+02  0.25785575733E+02  0.00000000000E+00 0. -1.
</event>
<event>
 4    1  0.1571930E+006  0.2163769E+02  0.7546771E-02  0.1510352E+00
         21   -1    0    0  504  501  0.00000000000E+00  0.00000000000E+00  0.77607725839E+03  0.77607725839E+03  0.00000000000E+00 0. -1.
         21   -1    0    0  503  502 -0.00000000000E+00 -0.00000000000E+00 -0.74143020826E+01  0.74143020826E+01  0.00000000000E+00 0.  1.
         21    1    1    2  503  501 -0.92657180715E+01 -0.19553419179E+02  0.88613235388E+01  0.23381890168E+02  0.00000000000E+00 0.  1.
         21    1    1    2  504  502  0.92657180715E+01  0.19553419179E+02  0.75980163276E+03  0.76010967030E+03  0.00000000000E+00 0. -1.
</event>
<event>
 4    1  0.1571930E+006  0.9274652E+02  0.7546771E-02  0.1177007E+00
         21   -1    0    0  502  501  0.00000000000E+00  0.00000000000E+00  0.82841611611E+01  0.82841611611E+01  0.00000000000E+00 0.  1.
         21   -1    0    0  504  502 -0.00000000000E+00 -0.00000000000E+00 -0.21118709934E+04  0.21118709934E+04  0.00000000000E+00 0. -1.
         21    1    1    2  503  501 -0.71758057050E+02  0.58759669162E+02 -0.29599184095E+03  0.31018234537E+03  0.00000000000E+00 0.  1.
         21    1    1    2  504  503  0.71758057050E+02 -0.58759669162E+02 -0.18075949913E+04  0.18099728092E+04  0.00000000000E+00 0. -1.
</event>
<event>
 4    1  0.1571930E+006  0.2431099E+02  0.7546771E-02  0.1476661E+00
         21   -1    0    0  504  501  0.00000000000E+00  0.00000000000E+00  0.48260167859E+02  0.48260167859E+02  0.00000000000E+00 0. -1.
         21   -1    0    0  501  502 -0.00000000000E+00 -0.00000000000E+00 -0.54752833761E+02  0.54752833761E+02  0.00000000000E+00 0. -1.
         21    1    1    2  503  502 -0.23807248907E+02  0.49233060932E+01 -0.48628470246E+02  0.54366829610E+02  0.00000000000E+00 0. -1.
         21    1    1    2  504  503  0.23807248907E+02 -0.49233060932E+01  0.42135804345E+02  0.48646172010E+02  0.00000000000E+00 0. -1.
</event>
<event>
 4    1  0.1571930E+006  0.2707604E+02  0.7546771E-02  0.1446846E+00
         21   -1    0    0  503  501  0.00000000000E+00  0.00000000000E+00  0.17493178346E+02  0.17493178346E+02  0.00000000000E+00 0. -1.
         21   -1    0    0  504  502 -0.00000000000E+00 -0.00000000000E+00 -0.24142862230E+03  0.24142862230E+03  0.00000000000E+00 0.  1.
         21    1    1    2  503  502 -0.20399291118E+02 -0.17803949684E+02  0.57217646390E+01  0.27674000308E+02  0.00000000000E+00 0. -1.
         21    1    1    2  504  501  0.20399291118E+02  0.17803949684E+02 -0.22965720859E+03  0.23124780034E+03  0.00000000000E+00 0.  1.
</event>
<event>
 4    1  0.1571930E+006  0.2467399E+02  0.7546771E-02  0.1472484E+00
         21   -1    0    0  503  501  0.00000000000E+00  0.00000000000E+00  0.39170252490E+01  0.39170252490E+01  0.00000000000E+00 0. -1.
         21   -1    0    0  501  502 -0.00000000000E+00 -0.00000000000E+00 -0.29708144826E+03  0.29708144826E+03  0.00000000000E+00 0. -1.
         21    1    1    2  503  504  0.23489845444E+02 -0.75520052430E+01 -0.42658671136E+02  0.49280501674E+02  0.00000000000E+00 0. -1.
         21    1    1    2  504  502 -0.23489845444E+02  0.75520052430E+01 -0.25050575187E+03  0.25171797183E+03  0.00000000000E+00 0. -1.
</event>
<event>
 4    1  0.1571930E+006  0.5154608E+02  0.7546771E-02  0.1291605E+00
         21   -1    0    0  502  501  0.00000000000E+00  0.00000000000E+00  0.22122138144E+02  0.22122138144E+02  0.00000000000E+00 0. -1.
         21   -1    0    0  503  502 -0.00000000000E+00 -0.00000000000E+00 -0.14132482190E+03  0.14132482190E+03  0.00000000000E+00 0. -1.
         21    1    1    2  503  504  0.49220489401E+02  0.15308229687E+02 -0.91267813355E+02  0.10481799572E+03  0.00000000000E+00 0. -1.
         21    1    1    2  504  501 -0.49220489401E+02 -0.15308229687E+02 -0.27934870402E+02  0.58628964322E+02  0.00000000000E+00 0. -1.
</event>
<event>
 4    1  0.1571930E+006  0.3333731E+02  0.7546771E-02  0.1392645E+00
         21   -1    0    0  504  501  0.00000000000E+00  0.00000000000E+00  0.71427229735E+02  0.71427229735E+02  0.00000000000E+00 0.  1.
         21   -1    0    0  503  502 -0.00000000000E+00 -0.00000000000E+00 -0.16876337846E+02  0.16876337846E+02  0.00000000000E+00 0.  1.
         21    1    1    2  503  501  0.32251921837E+02  0.84373880481E+01  0.14942521576E+02  0.36532929397E+02  0.00000000000E+00 0.  1.
         21    1    1    2  504  502 -0.32251921837E+02 -0.84373880481E+01  0.39608370313E+02  0.51770638185E+02  0.00000000000E+00 0.  1.
</event>
<event>
 4    1  0.1571930E+006  0.7918411E+02  0.7546771E-02  0.1205754E+00
         21   -1    0    0  504  501  0.00000000000E+00  0.00000000000E+00  0.19526403578E+03  0.19526403578E+03  0.00000000000E+00 0. -1.
         21   -1    0    0  503  502 -0.00000000000E+00 -0.00000000000E+00 -0.56854764536E+02  0.56854764536E+02  0.00000000000E+00 0.  1.
         21    1    1    2  503  501  0.10524314760E+02  0.78481606148E+02 -0.13957317290E+02  0.80404790969E+02  0.00000000000E+00 0.  1.
         21    1    1    2  504  502 -0.10524314760E+02 -0.78481606148E+02  0.15236658853E+03  0.17171400935E+03  0.00000000000E+00 0. -1.
</event>
<event>
 4    1  0.1571930E+006  0.2023359E+02  0.7546771E-02  0.1530494E+00
         21   -1    0    0  504  501  0.00000000000E+00  0.00000000000E+00  0.13855955737E+03  0.13855955737E+03  0.00000000000E+00 0. -1.
         21   -1    0    0  503  502 -0.00000000000E+00 -0.00000000000E+00 -0.48429904158E+01  0.48429904158E+01  0.00000000000E+00 0.  1.
         21    1    1    2  503  501  0.40670744135E+00  0.20229505278E+02  0.11163038435E+03  0.11344928825E+03  0.00000000000E+00 0. -1.
         21    1    1    2  504  502 -0.40670744135E+00 -0.20229505278E+02  0.22086182607E+02  0.29953259536E+02  0.00000000000E+00 0.  1.
</event>
<event>
 4    1  0.1571930E+006  0.2190784E+02  0.7546771E-02  0.1506688E+00
         21   -1    0    0  503  501  0.00000000000E+00  0.00000000000E+00  0.86213173378E+02  0.86213173378E+02  0.00000000000E+00 0. -1.
         21   -1    0    0  501  502 -0.00000000000E+00 -0.00000000000E+00 -0.66985055547E+03  0.66985055547E+03  0.00000000000E+00 0. -1.
         21    1    1    2  503  504  0.97318234626E+01 -0.19627656345E+02  0.84639005691E+02  0.87428339604E+02  0.00000000000E+00 0. -1.
         21    1    1    2  504  502 -0.97318234626E+01  0.19627656345E+02 -0.66827638778E+03  0.66863538924E+03  0.00000000000E+00 0. -1.
</event>
<event>
 4    1  0.1571930E+006  0.2335446E+02  0.7546771E-02  0.1488094E+00
         21   -1    0    0  504  501  0.00000000000E+00  0.00000000000E+00  0.22701871447E+02  0.22701871447E+02  0.00000000000E+00 0.  1.
         21   -1    0    0  503  502 -0.00000000000E+00 -0.00000000000E+00 -0.65701805109E+02  0.65701805109E+02  0.00000000000E+00 0.  1.
         21    1    1    2  503  501  0.16177707131E+02  0.16843771628E+02  0.13704248562E+02  0.27078354443E+02  0.00000000000E+00 0.  1.
         21    1    1    2  504  502 -0.16177707131E+02 -0.16843771628E+02 -0.56704182223E+02  0.61325322113E+02  0.00000000000E+00 0.  1.
</event>
<event>
 4    1  0.1571930E+006  0.2013967E+02  0.7546771E-02  0.1531911E+00
         21   -1    0    0  503  501  0.00000000000E+00  0.00000000000E+00  0.94837185599E+03  0.94837185599E+03  0.00000000000E+00 0. -1.
         21   -1    0    0  504  502 -0.00000000000E+00 -0.00000000000E+00 -0.24032768656E+01  0.24032768656E+01  0.00000000000E+00 0.  1.
         21    1    1    2  503  502  0.14556143336E+02 -0.13918507088E+02  0.90400122015E+03  0.90422553170E+03  0.00000000000E+00 0. -1.
         21    1    1    2  504  501 -0.14556143336E+02  0.13918507088E+02  0.41967358979E+02  0.46549601159E+02  0.00000000000E+00 0.  1.
</event>
<event>
 4    1  0.1571930E+006  0.7176494E+02  0.7546771E-02  0.1224375E+00
         21   -1    0    0  502  501  0.00000000000E+00  0.00000000000E+00  0.85199473132E+02  0.85199473132E+02  0.00000000000E+00 0. -1.
         21   -1    0    0  504  502 -0.00000000000E+00 -0.00000000000E+00 -0.60453958991E+02  0.60453958991E+02  0.00000000000E+00 0.  1.
         21    1    1    2  503  501  0.70471757515E+02  0.13562351134E+02  0.11700045151E+02  0.72712426944E+02  0.00000000000E+00 0. -1.
         21    1    1    2  504  503 -0.70471757515E+02 -0.13562351134E+02  0.13045468990E+02  0.72941005180E+02  0.00000000000E+00 0.  1.
</event>
<event>
 4    1  0.1571930E+006  0.5121839E+02  0.7546771E-02  0.1292975E+00
         21   -1    0    0  503  501  0.00000000000E+00  0.00000000000E+00  0.72882267256E+02  0.72882267256E+02  0.00000000000E+00 0.  1.
         21   -1    0    0  501  502 -0.00000000000E+00 -0.00000000000E+00 -0.47285404257E+02  0.47285404257E+02  0.00000000000E+00 0.  1.
         21    1    1    2  503  504  0.43166711904E+02 -0.27567346832E+02  0.42159256866E+02  0.66337972289E+02  0.00000000000E+00 0.  1.
         21    1    1    2  504  502 -0.43166711904E+02  0.27567346832E+02 -0.16562393866E+02  0.53829699224E+02  0.00000000000E+00 0.  1.
</event>
<event>
 4    1  0.1571930E+006  0.3884289E+02  0.7546771E-02  0.1355403E+00
         21   -1    0    0  502  501  0.00000000000E+00  0.00000000000E+00  0.30352374429E+02  0.30352374429E+02  0.00000000000E+00 0.  1.
         21   -1    0    0  504  502 -0.00000000000E+00 -0.00000000000E+00 -0.10977829065E+03  0.10977829065E+03  0.00000000000E+00 0. -1.
         21    1    1    2  503  501 -0.38658995515E+02  0.37751845396E+01  0.12116078935E+02  0.40688687879E+02  0.00000000000E+00 0.  1.
         21    1    1    2  504  503  0.38658995515E+02 -0.37751845396E+01 -0.91541995160E+02  0.99441977205E+02  0.00000000000E+00 0. -1.
</event>
<event>
 4    1  0.1571930E+006  0.3792068E+02  0.7546771E-02  0.1361121E+00
         21   -1    0    0  503  501  0.00000000000E+00  0.00000000000E+00  0.11331125676E+03  0.11331125676E+03  0.00000000000E+00 0. -1.
         21   -1    0    0  504  502 -0.00000000000E+00 -0.00000000000E+00 -0.77804331538E+03  0.77804331538E+03  0.00000000000E+00 0. -1.
         21    1    1    2  503  502 -0.37898197956E+02  0.13056083202E+01 -0.77439369431E+03  0.77532159251E+03  0.00000000000E+00 0. -1.
         21    1    1    2  504  501  0.37898197956E+02 -0.13056083202E+01  0.10966163569E+03  0.11603297964E+03  0.00000000000E+00 0. -1.
</event>
<event>
 4    1  0.1571930E+006  0.2901910E+02  0.7546771E-02  0.1428316E+00
         21   -1    0    0  504  501  0.00000000000E+00  0.00000000000E+00  0.47201211859E+03  0.47201211859E+03  0.00000000000E+00 0.  1.
         21   -1    0    0  503  502 -0.00000000000E+00 -0.00000000000E+00 -0.10095396868E+03  0.10095396868E+03  0.00000000000E+00 0. -1.
         21    1    1    2  503  501 -0.51240258457E+01  0.28563134476E+02 -0.98411287519E+02  0.10260063257E+03  0.00000000000E+00 0. -1.
         21    1    1    2  504  502  0.51240258457E+01 -0.28563134476E+02  0.46946943743E+03  0.47036545470E+03  0.00000000000E+00 0.  1.
</event>
<event>
 4    1  0.1571930E+006  0.2457927E+02  0.7546771E-02  0.1473565E+00
         21   -1    0    0  503  501  0.00000000000E+00  0.00000000000E+00  0.82605947096E+02  0.82605947096E+02  0.00000000000E+00 0.  1.
         21   -1    0    0  504  502 -0.00000000000E+00 -0.00000000000E+00 -0.91375843093E+01  0.91375843093E+01  0.00000000000E+00 0.  1.
         21    1    1    2  503  502  0.23990096653E+02 -0.53493910506E+01  0.57229239124E+02  0.62284239843E+02  0.00000000000E+00 0.  1.
         21    1    1    2  504  501 -0.23990096653E+02  0.53493910506E+01  0.16239123662E+02  0.29459291563E+02  0.00000000000E+00 0.  1.
</event>
<event>
 4    1  0.1571930E+006  0.2385123E+02  0.7546771E-02  0.1482077E+00
         21   -1    0    0  503  501  0.00000000000E+00  0.00000000000E+00  0.39884978124E+03  0.39884978124E+03  0.00000000000E+00 0. -1.
         21   -1    0    0  501  502 -0.00000000000E+00 -0.00000000000E+00 -0.14634774611E+02  0.14634774611E+02  0.00000000000E+00 0. -1.
         21    1    1    2  503  504 -0.23835867148E+02 -0.85598103038E+00  0.38851702395E+03  0.38924845429E+03  0.00000000000E+00 0. -1.
         21    1    1    2  504  502  0.23835867148E+02  0.85598103038E+00 -0.43020173164E+01  0.24236101568E+02  0.00000000000E+00 0. -1.
</event>
<event>
 4    1  0.1571930E+006  0.2317562E+02  0.7546771E-02  0.1490305E+00
         21   -1    0    0  502  501  0.00000000000E+00  0.00000000000E+00  0.30847255475E+03  0.30847255475E+03  0.00000000000E+00 0.  1.
         21   -1    0    0  504  502 -0.00000000000E+00 -0.00000000000E+00 -0.60115057933E+01  0.60115057933E+01  0.00000000000E+00 0. -1.
         21    1    1    2  503  501 -0.17868036121E+02  0.14759490972E+02  0.28375833115E+03  0.28470317839E+03  0.00000000000E+00 0.  1.
         21    1    1    2  504  503  0.17868036121E+02 -0.14759490972E+02  0.18702717812E+02  0.29780882158E+02  0.00000000000E+00 0. -1.
</event>
<event>
 4    1  0.1571930E+006  0.2057955E+02  0.7546771E-02  0.1525353E+00
         21   -1    0    0  503  501  0.00000000000E+00  0.00000000000E+00  0.29128350517E+03  0.29128350517E+03  0.00000000000E+00 0.  1.
         21   -1    0    0  504  502 -0.00000000000E+00 -0.00000000000E+00 -0.14333881588E+02  0.14333881588E+02  0.00000000000E+00 0. -1.
         21    1    1    2  503  502 -0.20070448152E+02  0.45491840866E+01  0.28332616900E+03  0.28407258932E+03  0.00000000000E+00 0.  1.
         21    1    1    2  504  501  0.20070448152E+02 -0.45491840866E+01 -0.63765454213E+01  0.21544797432E+02  0.00000000000E+00 0. -1.
</event>
<event>
 4    1  0.1571930E+006  0.2147446E+02  0.7546771E-02  0.1512597E+00
         21   -1    0    0  502  501  0.00000000000E+00  0.00000000000E+00  0.30205832698E+02  0.30205832698E+02  0.00000000000E+00 0. -1.
         21   -1    0    0  503  502 -0.00000000000E+00 -0.00000000000E+00 -0.75868848008E+02  0.75868848008E+02  0.00000000000E+00 0. -1.
         21    1    1    2  503  504  0.17388112646E+02  0.12601830338E+02 -0.70233097680E+02  0.73442770910E+02  0.00000000000E+00 0. -1.
         21    1    1    2  504  501 -0.17388112646E+02 -0.12601830338E+02  0.24570082370E+02  0.32631909796E+02  0.00000000000E+00 0. -1.
</event>
<event>
 4    1  0.1571930E+006  0.2041997E+02  0.7546771E-02  0.1527710E+00
         21   -1    0    0  504  501  0.00000000000E+00  0.00000000000E+00  0.10512271488E+03  0.10512271488E+03  0.00000000000E+00 0. -1.
         21   -1    0    0  503  502 -0.00000000000E+00 -0.00000000000E+00 -0.64493511976E+01  0.64493511976E+01  0.00000000000E+00 0. -1.
         21    1    1    2  503  501  0.19000838775E+02  0.74795309836E+01  0.14723795788E+02  0.25174698018E+02  0.00000000000E+00 0. -1.
         21    1    1    2  504  502 -0.19000838775E+02 -0.74795309836E+01  0.83949567893E+02  0.86397368058E+02  0.00000000000E+00 0. -1.
</event>
<event>
 4    1  0.1571930E+006  0.2285925E+02  0.7546771E-02  0.1494273E+00
         21   -1    0    0  504  501  0.00000000000E+00  0.00000000000E+00  0.81199089919E+01  0.81199089919E+01  0.00000000000E+00 0. -1.
         21   -1    0    0  503  502 -0.00000000000E+00 -0.00000000000E+00 -0.12542027019E+03  0.12542027019E+03  0.00000000000E+00 0.  1.
         21    1    1    2  503  501 -0.87242613736E+01 -0.21128947036E+02 -0.10524099652E+03  0.10769499750E+03  0.00000000000E+00 0.  1.
         21    1    1    2  504  502  0.87242613736E+01  0.21128947036E+02 -0.12059364677E+02  0.25845181675E+02  0.00000000000E+00 0. -1.
</event>
<event>
 4    1  0.1571930E+006  0.7996620E+02  0.7546771E-02  0.1203926E+00
         21   -1    0    0  503  501  0.00000000000E+00  0.00000000000E+00  0.41415759484E+03  0.41415759484E+03  0.00000000000E+00 0.  1.
         21   -1    0    0  504  502 -0.00000000000E+00 -0.00000000000E+00 -0.20680372823E+02  0.20680372823E+02  0.00000000000E+00 0. -1.
         21    1    1    2  503  502 -0.26275555971E+01  0.79923018257E+02  0.87292733066E+02  0.11838333557E+03  0.00000000000E+00 0. -1.
         21    1    1    2  504  501  0.26275555971E+01 -0.79923018257E+02  0.30618448895E+03  0.31645463209E+03  0.00000000000E+00 0.  1.
</event>
<event>
 4    1  0.1571930E+006  0.2152227E+02  0.7546771E-02  0.1511937E+00
         21   -1    0    0  503  501  0.00000000000E+00  0.00000000000E+00  0.12542757647E+03  0.12542757647E+03  0.00000000000E+00 0. -1.
         21   -1    0    0  501  502 -0.00000000000E+00 -0.00000000000E+00 -0.48315898739E+01  0.48315898739E+01  0.00000000000E+00 0. -1.
         21    1    1    2  503  504 -0.56600301996E+01 -0.20764690379E+02  0.91914249015E+02  0.94400410383E+02  0.00000000000E+00 0. -1.
         21    1    1    2  504  502  0.56600301996E+01  0.20764690379E+02  0.28681737580E+02  0.35858755960E+02  0.00000000000E+00 0. -1.
</event>
<event>
 4    1  0.1571930E+006  0.3166228E+02  0.7546771E-02  0.1405681E+00
         21   -1    0    0  502  501  0.00000000000E+00  0.00000000000E+00  0.19779896422E+03  0.19779896422E+03  0.00000000000E+00 0. -1.
         21   -1    0    0  503  502 -0.00000000000E+00 -0.00000000000E+00 -0.20524968017E+03  0.20524968017E+03  0.00000000000E+00 0.  1.
         21    1    1    2  503  504 -0.17682419591E+02  0.26264653142E+02 -0.20274598447E+03  0.20520339711E+03  0.00000000000E+00 0.  1.
         21    1    1    2  504  501  0.17682419591E+02 -0.26264653142E+02  0.19529526852E+03  0.19784524728E+03  0.00000000000E+00 0. -1.
</event>
<event>
 4    1  0.1571930E+006  0.2562035E+02  0.7546771E-02  0.1461982E+00
         21   -1    0    0  504  501  0.00000000000E+00  0.00000000000E+00  0.20898829108E+03  0.20898829108E+03  0.00000000000E+00 0.  1.
         21   -1    0    0  503  502 -0.00000000000E+00 -0.00000000000E+00 -0.51858624303E+01  0.51858624303E+01  0.00000000000E+00 0.  1.
         21    1    1    2  503  501  0.24464238130E+02 -0.76094404373E+01  0.34654092425E+02  0.43096503951E+02  0.00000000000E+00 0.  1.
         21    1    1    2  504  502 -0.24464238130E+02  0.76094404373E+01  0.16914833623E+03  0.17107764956E+03  0.00000000000E+00 0.  1.
</event>
<event>
 4    1  0.1571930E+006  0.2375743E+02  0.7546771E-02  0.1483200E+00
         21   -1    0    0  502  501  0.00000000000E+00  0.00000000000E+00  0.34795824232E+00  0.34795824232E+00  0.00000000000E+00 0.  1.
         21   -1    0    0  504  502 -0.00000000000E+00 -0.00000000000E+00 -0.17452223998E+04  0.17452223998E+04  0.00000000000E+00 0. -1.
         21    1    1    2  503  501  0.20127537558E+02 -0.12621318172E+02 -0.64059680289E+03  0.64103719027E+03  0.00000000000E+00 0.  1.
         21    1    1    2  504  503 -0.20127537558E+02  0.12621318172E+02 -0.11042776387E+04  0.11045331678E+04  0.00000000000E+00 0. -1.
</event>
<event>
 4    1  0.1571930E+006  0.2157092E+02  0.7546771E-02  0.1511267E+00
         21   -1    0    0  504  501  0.00000000000E+00  0.00000000000E+00  0.17095449881E+02  0.17095449881E+02  0.00000000000E+00 0. -1.
         21   -1    0    0  503  502 -0.00000000000E+00 -0.00000000000E+00 -0.31633395204E+02  0.31633395204E+02  0.00000000000E+00 0. -1.
         21    1    1    2  503  501  0.33820760082E+01  0.21304135437E+02 -0.16371585738E+02  0.27080130066E+02  0.00000000000E+00 0. -1.
         21    1    1    2  504  502 -0.33820760082E+01 -0.21304135437E+02  0.18336404148E+01  0.21648715019E+02  0.00000000000E+00 0. -1.
</event>
<event>
 4    1  0.1571930E+006  0.2036760E+02  0.7546771E-02  0.1528489E+00
         21   -1    0    0  504  501  0.00000000000E+00  0.00000000000E+00  0.17451891925E+03  0.17451891925E+03  0.00000000000E+00 0. -1.
         21   -1    0    0  503  502 -0.00000000000E+00 -0.00000000000E+00 -0.28567833571E+01  0.28567833571E+01  0.00000000000E+00 0. -1.
         21    1    1    2  503  501  0.20147646100E+02  0.29851803180E+01  0.49487405878E+02  0.53514879104E+02  0.00000000000E+00 0. -1.
         21    1    1    2  504  502 -0.20147646100E+02 -0.29851803180E+01  0.12217473001E+03  0.12386082350E+03  0.00000000000E+00 0. -1.
</event>
<event>
 4    1  0.1571930E+006  0.2006879E+02  0.7546771E-02  0.1532987E+00
         21   -1    0    0  504  501  0.00000000000E+00  0.00000000000E+00  0.26625125573E+02  0.26625125573E+02  0.00000000000E+00 0. -1.
         21   -1    0    0  503  502 -0.00000000000E+00 -0.00000000000E+00 -0.17160249559E+02  0.17160249559E+02  0.00000000000E+00 0. -1.
         21    1    1    2  503  501 -0.11411696170E+02  0.16508469859E+02  0.12268425964E+02  0.23521706193E+02  0.00000000000E+00 0. -1.
         21    1    1    2  504  502  0.11411696170E+02 -0.16508469859E+02 -0.28035499497E+01  0.20263668940E+02  0.00000000000E+00 0. -1.
</event>
<event>
 4    1  0.1571930E+006  0.2147617E+02  0.7546771E-02  0.1512574E+00
         21   -1    0    0  504  501  0.00000000000E+00  0.00000000000E+00  0.31711187860E+02  0.31711187860E+02  0.00000000000E+00 0. -1.
         21   -1    0    0  501  502 -0.00000000000E+00 -0.00000000000E+00 -0.32578695675E+02  0.32578695675E+02  0.00000000000E+00 0. -1.
         21    1    1    2  503  502 -0.16793811812E+02 -0.13386327831E+02 -0.24350011937E+02  0.32467660360E+02  0.00000000000E+00 0. -1.
         21    1    1    2  504  503  0.16793811812E+02  0.13386327831E+02  0.23482504122E+02  0.31822223175E+02  0.00000000000E+00 0. -1.
</event>
<event>
 4    1  0.1571930E+006  0.1226608E+03  0.7546771E-02  0.1129473E+00
         21   -1    0    0  504  501  0.00000000000E+00  0.00000000000E+00  0.45342430894E+02  0.45342430894E+02  0.00000000000E+00 0.  1.
         21   -1    0    0  503  502 -0.00000000000E+00 -0.00000000000E+00 -0.40240158255E+03  0.40240158255E+03  0.00000000000E+00 0.  1.
         21    1    1    2  503  501 -0.74453530280E+02  0.97479950001E+02 -0.84772097619E+02  0.14910391463E+03  0.00000000000E+00 0.  1.
         21    1    1    2  504  502  0.74453530280E+02 -0.97479950001E+02 -0.27228705404E+03  0.29864009882E+03  0.00000000000E+00 0.  1.
</event>
<event>
 4    1  0.1571930E+006  0.2101335E+02  0.7546771E-02  0.1519074E+00
         21   -1    0    0  503  501  0.00000000000E+00  0.00000000000E+00  0.51942613999E+03  0.51942613999E+03  0.00000000000E+00 0. -1.
         21   -1    0    0  504  502 -0.00000000000E+00 -0.00000000000E+00 -0.40806902167E+02  0.40806902167E+02  0.00000000000E+00 0.  1.
         21    1    1    2  503  502 -0.19077248992E+02 -0.88101830168E+01 -0.37873838709E+02  0.43312681889E+02  0.00000000000E+00 0.  1.
         21    1    1    2  504  501  0.19077248992E+02  0.88101830168E+01  0.51649307654E+03  0.51692036027E+03  0.00000000000E+00 0. -1.
</event>
<event>
 4    1  0.1571930E+006  0.2689058E+02  0.7546771E-02  0.1448710E+00
         21   -1    0    0  504  501  0.00000000000E+00  0.00000000000E+00  0.12054021048E+02  0.12054021048E+02  0.00000000000E+00 0.  1.
         21   -1    0    0  503  502 -0.00000000000E+00 -0.00000000000E+00 -0.60988807881E+02  0.60988807881E+02  0.00000000000E+00 0.  1.
         21    1    1    2  503  501  0.23423278763E+02 -0.13208071192E+02 -0.19790251791E+02  0.33387979852E+02  0.00000000000E+00 0.  1.
         21    1    1    2  504  502 -0.23423278763E+02  0.13208071192E+02 -0.29144535041E+02  0.39654849078E+02  0.00000000000E+00 0.  1.
</event>
<event>
 4    1  0.1571930E+006  0.2204276E+02  0.7546771E-02  0.1504881E+00
         21   -1    0    0  504  501  0.00000000000E+00  0.00000000000E+00  0.32476907364E+02  0.32476907364E+02  0.00000000000E+00 0. -1.
         21   -1    0    0  501  502 -0.00000000000E+00 -0.00000000000E+00 -0.28949434461E+03  0.28949434461E+03  0.00000000000E+00 0. -1.
         21    1    1    2  503  502  0.17040707610E+02  0.13982049840E+02 -0.28527934600E+03  0.28612967110E+03  0.00000000000E+00 0. -1.
         21    1    1    2  504  503 -0.17040707610E+02 -0.13982049840E+02  0.28261908747E+02  0.35841580875E+02  0.00000000000E+00 0. -1.
</event>
<event>
 4    1  0.1571930E+006  0.3361947E+02  0.7546771E-02  0.1390537E+00
         21   -1    0    0  504  501  0.00000000000E+00  0.00000000000E+00  0.33268329645E+02  0.33268329645E+02  0.00000000000E+00 0. -1.
         21   -1    0    0  503  502 -0.00000000000E+00 -0.00000000000E+00 -0.35962042518E+02  0.35962042518E+02  0.00000000000E+00 0. -1.
         21    1    1    2  503  501  0.32985736697E+02 -0.64969331109E+01  0.67912260063E+01  0.34298538102E+02  0.00000000000E+00 0. -1.
         21    1    1    2  504  502 -0.32985736697E+02  0.64969331109E+01 -0.94849388798E+01  0.34931834061E+02  0.00000000000E+00 0. -1.
</event>
<event>
 4    1  0.1571930E+006  0.3342698E+02  0.7546771E-02  0.1391972E+00
         21   -1    0    0  504  501  0.00000000000E+00  0.00000000000E+00  0.67375031950E+02  0.67375031950E+02  0.00000000000E+00 0.  1.
         21   -1    0    0  503  502 -0.00000000000E+00 -0.00000000000E+00 -0.24208346029E+03  0.24208346029E+03  0.00000000000E+00 0.  1.
         21    1    1    2  503  501  0.33418686300E+02 -0.74455970960E+00 -0.23668948129E+03  0.23903822606E+03  0.00000000000E+00 0.  1.
         21    1    1    2  504  502 -0.33418686300E+02  0.74455970960E+00  0.61981052955E+02  0.70420266178E+02  0.00000000000E+00 0.  1.
</event>
<event>
 4    1  0.1571930E+006  0.2937457E+02  0.7546771E-02  0.1425110E+00
         21   -1    0    0  504  501  0.00000000000E+00  0.00000000000E+00  0.31514791781E+03  0.31514791781E+03  0.00000000000E+00 0. -1.
         21   -1    0    0  503  502 -0.00000000000E+00 -0.00000000000E+00 -0.28831345575E+01  0.28831345575E+01  0.00000000000E+00 0. -1.
         21    1    1    2  503  501 -0.26573994161E+02 -0.12517507978E+02  0.19181356618E+03  0.19404975996E+03  0.00000000000E+00 0. -1.
         21    1    1    2  504  502  0.26573994161E+02  0.12517507978E+02  0.12045121707E+03  0.12398129240E+03  0.00000000000E+00 0. -1.
</event>
<event>
 4    1  0.1571930E+006  0.2140796E+02  0.7546771E-02  0.1513519E+00
         21   -1    0    0  503  501  0.00000000000E+00  0.00000000000E+00  0.41478197969E+01  0.41478197969E+01  0.00000000000E+00 0. -1.
         21   -1    0    0  504  502 -0.00000000000E+00 -0.00000000000E+00 -0.11746221475E+03  0.11746221475E+03  0.00000000000E+00 0. -1.
         21    1    1    2  503  502  0.14196928615E+02 -0.16023352102E+02 -0.41845128231E+02  0.47003354682E+02  0.00000000000E+00 0. -1.
         21    1    1    2  504  501 -0.14196928615E+02  0.16023352102E+02 -0.71469266717E+02  0.74606679860E+02  0.00000000000E+00 0. -1.
</event>
<event>
 4    1  0.1571930E+006  0.2423589E+02  0.7546771E-02  0.1477536E+00
         21   -1    0    0  502  501  0.00000000000E+00  0.00000000000E+00  0.13330844419E+03  0.13330844419E+03  0.00000000000E+00 0.  1.
         21   -1    0    0  504  502 -0.00000000000E+00 -0.00000000000E+00 -0.32072101306E+02  0.32072101306E+02  0.00000000000E+00 0. -1.
         21    1    1    2  503  501 -0.43150706328E+01 -0.23848660345E+02  0.12741856342E+03  0.12970300204E+03  0.00000000000E+00 0.  1.
         21    1    1    2  504  503  0.43150706328E+01  0.23848660345E+02 -0.26182220535E+02  0.35677543454E+02  0.00000000000E+00 0. -1.
</event>
<event>
 4    1  0.1571930E+006  0.3468746E+02  0.7546771E-02  0.1382774E+00
         21   -1    0    0  504  501  0.00000000000E+00  0.00000000000E+00  0.31916819529E+03  0.31916819529E+03  0.00000000000E+00 0. -1.
         21   -1    0    0  503  502 -0.00000000000E+00 -0.00000000000E+00 -0.82600748420E+01  0.82600748420E+01  0.00000000000E+00 0. -1.
         21    1    1    2  503  501  0.62153196019E+01  0.34126082569E+02  0.34748381503E+02  0.49098571531E+02  0.00000000000E+00 0. -1.
         21    1    1    2  504  502 -0.62153196019E+01 -0.34126082569E+02  0.27615973894E+03  0.27832969860E+03  0.00000000000E+00 0. -1.
</event>
<event>
 4    1  0.1571930E+006  0.4139314E+02  0.7546771E-02  0.1340510E+00
         21   -1    0    0  503  501  0.00000000000E+00  0.00000000000E+00  0.24748632116E+03  0.24748632116E+03  0.00000000000E+00 0.  1.
         21   -1    0    0  504  502 -0.00000000000E+00 -0.00000000000E+00 -0.69377393938E+01  0.69377393938E+01  0.00000000000E+00 0.  1.
         21    1    1    2  503  502 -0.25835542800E+02 -0.32340636253E+02  0.11444641416E+03  0.12170198741E+03  0.00000000000E+00 0.  1.
         21    1    1    2  504  501  0.25835542800E+02  0.32340636253E+02  0.12610216761E+03  0.13272207314E+03  0.00000000000E+00 0.  1.
</event>
<event>
 4    1  0.1571930E+006  0.2136073E+02  0.7546771E-02  0.1514176E+00
         21   -1    0    0  504  501  0.00000000000E+00  0.00000000000E+00  0.11490808228E+03  0.11490808228E+03  0.00000000000E+00 0. -1.
         21   -1    0    0  503  502 -0.00000000000E+00 -0.00000000000E+00 -0.54989465837E+01  0.54989465837E+01  0.00000000000E+00 0. -1.
         21    1    1    2  503  501 -0.18967804995E+02  0.98236080319E+01  0.22968012055E+02  0.31365753280E+02  0.00000000000E+00 0. -1.
         21    1    1    2  504  502  0.18967804995E+02 -0.98236080319E+01  0.86441123643E+02  0.89041275584E+02  0.00000000000E+00 0. -1.
</event>
<event>
 4    1  0.1571930E+006  0.2005731E+02  0.7546771E-02  0.1533161E+00
         21   -1    0    0  504  501  0.00000000000E+00  0.00000000000E+00  0.45511070934E+01  0.45511070934E+01  0.00000000000E+00 0. -1.
         21   -1    0    0  503  502 -0.00000000000E+00 -0.00000000000E+00 -0.90518915996E+02  0.90518915996E+02  0.00000000000E+00 0. -1.
         21    1    1    2  503  501  0.19685473367E+02  0.38442049306E+01 -0.50265016821E+02  0.54119014119E+02  0.00000000000E+00 0. -1.
         21    1    1    2  504  502 -0.19685473367E+02 -0.38442049306E+01 -0.35702792082E+02  0.40951008971E+02  0.00000000000E+00 0. -1.
</event>
<event>
 4    1  0.1571930E+006  0.2512822E+02  0.7546771E-02  0.1467374E+00
         21   -1    0    0  503  501  0.00000000000E+00  0.00000000000E+00  0.47747848883E+03  0.47747848883E+03  0.00000000000E+00 0. -1.
         21   -1    0    0  504  502 -0.00000000000E+00 -0.00000000000E+00 -0.27088102671E+01  0.27088102671E+01  0.00000000000E+00 0.  1.
         21    1    1    2  503  502  0.24963527683E+02  0.28722342294E+01  0.65620098461E+02  0.70266811269E+02  0.00000000000E+00 0.  1.
         21    1    1    2  504  501 -0.24963527683E+02 -0.28722342294E+01  0.40914958010E+03  0.40992048783E+03  0.00000000000E+00 0. -1.
</event>
<event>
 4    1  0.1571930E+006  0.3347206E+02  0.7546771E-02  0.1391635E+00
         21   -1    0    0  504  501  0.00000000000E+00  0.00000000000E+00  0.64489603970E+02  0.64489603970E+02  0.00000000000E+00 0.  1.
         21   -1    0    0  503  502 -0.00000000000E+00 -0.00000000000E+00 -0.55149828978E+02  0.55149828978E+02  0.00000000000E+00 0.  1.
         21    1    1    2  503  501  0.32942997695E+02  0.59276985280E+01  0.54178977334E+02  0.63684694331E+02  0.00000000000E+00 0.  1.
         21    1    1    2  504  502 -0.32942997695E+02 -0.59276985280E+01 -0.44839202342E+02  0.55954738617E+02  0.00000000000E+00 0.  1.
</event>
<event>
 4    1  0.1571930E+006  0.2177846E+02  0.7546771E-02  0.1508434E+00
         21   -1    0    0  503  501  0.00000000000E+00  0.00000000000E+00  0.62832345315E+02  0.62832345315E+02  0.00000000000E+00 0.  1.
         21   -1    0    0  501  502 -0.00000000000E+00 -0.00000000000E+00 -0.62478335697E+02  0.62478335697E+02  0.00000000000E+00 0. -1.
         21    1    1    2  503  504 -0.20848840272E+02 -0.62950164535E+01  0.58925507221E+02  0.62821308281E+02  0.00000000000E+00 0.  1.
         21    1    1    2  504  502  0.20848840272E+02  0.62950164535E+01 -0.58571497603E+02  0.62489372731E+02  0.00000000000E+00 0. -1.
</event>
<event>
 4    1  0.1571930E+006  0.3032908E+02  0.7546771E-02  0.1416758E+00
         21   -1    0    0  503  501  0.00000000000E+00  0.00000000000E+00  0.32860999819E+04  0.32860999819E+04  0.00000000000E+00 0.  1.
         21   -1    0    0  504  502 -0.00000000000E+00 -0.00000000000E+00 -0.28561499542E+00  0.28561499542E+00  0.00000000000E+00 0.  1.
         21    1    1    2  503  502 -0.18373923485E+02 -0.24129896386E+02  0.14109255912E+04  0.14112515286E+04  0.00000000000E+00 0.  1.
         21    1    1    2  504  501  0.18373923485E+02  0.24129896386E+02  0.18748887757E+04  0.18751340684E+04  0.00000000000E+00 0.  1.
</event>
<event>
 4    1  0.1571930E+006  0.3691442E+02  0.7546771E-02  0.1367582E+00
         21   -1    0    0  502  501  0.00000000000E+00  0.00000000000E+00  0.31406201055E+02  0.31406201055E+02  0.00000000000E+00 0. -1.
         21   -1    0    0  504  502 -0.00000000000E+00 -0.00000000000E+00 -0.48857118287E+02  0.48857118287E+02  0.00000000000E+00 0. -1.
         21    1    1    2  503  501  0.41151669223E+01  0.36684331242E+02  0.47007502985E+01  0.37212522231E+02  0.00000000000E+00 0. -1.
         21    1    1    2  504  503 -0.41151669223E+01 -0.36684331242E+02 -0.22151667531E+02  0.43050797110E+02  0.00000000000E+00 0. -1.
</event>
<event>
 4    1  0.1571930E+006  0.2746410E+02  0.7546771E-02  0.1443001E+00
         21   -1    0    0  504  501  0.00000000000E+00  0.00000000000E+00  0.12034816782E+03  0.12034816782E+03  0.00000000000E+00 0. -1.
         21   -1    0    0  503  502 -0.00000000000E+00 -0.00000000000E+00 -0.31532413112E+02  0.31532413112E+02  0.00000000000E+00 0. -1.
         21    1    1    2  503  501 -0.10959630255E+02 -0.25182600344E+02 -0.23567704251E+02  0.36189964618E+02  0.00000000000E+00 0. -1.
         21    1    1    2  504  502  0.10959630255E+02  0.25182600344E+02  0.11238345896E+03  0.11569061631E+03  0.00000000000E+00 0. -1.
</event>
<event>
 4    1  0.1571930E+006  0.2345960E+02  0.7546771E-02  0.1486806E+00
         21   -1    0    0  502  501  0.00000000000E+00  0.00000000000E+00  0.55298543715E+02  0.55298543715E+02  0.00000000000E+00 0. -1.
         21   -1    0    0  503  502 -0.00000000000E+00 -0.00000000000E+00 -0.42678553560E+02  0.42678553560E+02  0.00000000000E+00 0.  1.
         21    1    1    2  503  504 -0.79899778768E+01 -0.22057044762E+02 -0.36588024160E+02  0.43463047317E+02  0.00000000000E+00 0.  1.
         21    1    1    2  504  501  0.79899778768E+01  0.22057044762E+02  0.49208014315E+02  0.54514049959E+02  0.00000000000E+00 0. -1.
</event>
<event>
 4    1  0.1571930E+006  0.2897613E+02  0.7546771E-02  0.1428707E+00
         21   -1    0    0  503  501  0.00000000000E+00  0.00000000000E+00  0.13761034115E+03  0.13761034115E+03  0.00000000000E+00 0. -1.
         21   -1    0    0  501  502 -0.00000000000E+00 -0.00000000000E+00 -0.12211474942E+02  0.12211474942E+02  0.00000000000E+00 0. -1.
         21    1    1    2  503  504 -0.25679141108E+02 -0.13423786453E+02  0.11568823682E+03  0.11926183157E+03  0.00000000000E+00 0. -1.
         21    1    1    2  504  502  0.25679141108E+02  0.13423786453E+02  0.97106293854E+01  0.30559984519E+02  0.00000000000E+00 0. -1.
</event>
<event>
 4    1  0.1571930E+006  0.3943470E+02  0.7546771E-02  0.1351831E+00
         21   -1    0    0  504  501  0.00000000000E+00  0.00000000000E+00  0.10258648188E+02  0.10258648188E+02  0.00000000000E+00 0.  1.
         21   -1    0    0  503  502 -0.00000000000E+00 -0.00000000000E+00 -0.19473757285E+03  0.19473757285E+03  0.00000000000E+00 0.  1.
         21    1    1    2  503  501  0.12613949331E+01 -0.39414518967E+02 -0.14048704662E+03  0.14591677659E+03  0.00000000000E+00 0.  1.
         21    1    1    2  504  502 -0.12613949331E+01  0.39414518967E+02 -0.43991878039E+02  0.59079444446E+02  0.00000000000E+00 0.  1.
</event>
<event>
 4    1  0.1571930E+006  0.2083030E+02  0.7546771E-02  0.1521702E+00
         21   -1    0    0  502  501  0.00000000000E+00  0.00000000000E+00  0.12444082435E+02  0.12444082435E+02  0.00000000000E+00 0. -1.
         21   -1    0    0  503  502 -0.00000000000E+00 -0.00000000000E+00 -0.14298685239E+03  0.14298685239E+03  0.00000000000E+00 0. -1.
         21    1    1    2  503  504  0.18559348171E+02 -0.94579133983E+01 -0.13285009850E+03  0.13447323229E+03  0.00000000000E+00 0. -1.
         21    1    1    2  504  501 -0.18559348171E+02  0.94579133983E+01  0.23073285512E+01  0.20957702532E+02  0.00000000000E+00 0. -1.
</event>
<event>
 4    1  0.1571930E+006  0.2567384E+02  0.7546771E-02  0.1461405E+00
         21   -1    0    0  503  501  0.00000000000E+00  0.00000000000E+00  0.24652457782E+03  0.24652457782E+03  0.00000000000E+00 0.  1.
         21   -1    0    0  501  502 -0.00000000000E+00 -0.00000000000E+00 -0.15731925713E+02  0.15731925713E+02  0.00000000000E+00 0. -1.
         21    1    1    2  503  504  0.29213112296E+01 -0.25507092059E+02  0.23486293420E+03  0.23626202333E+03  0.00000000000E+00 0.  1.
         21    1    1    2  504  502 -0.29213112296E+01  0.25507092059E+02 -0.40702820982E+01  0.25994480202E+02  0.00000000000E+00 0. -1.
</event>
<event>
 4    1  0.1571930E+006  0.2669559E+02  0.7546771E-02  0.1450690E+00
         21   -1    0    0  503  501  0.00000000000E+00  0.00000000000E+00  0.99908785774E+01  0.99908785774E+01  0.00000000000E+00 0. -1.
         21   -1    0    0  504  502 -0.00000000000E+00 -0.00000000000E+00 -0.39406800731E+03  0.39406800731E+03  0.00000000000E+00 0. -1.
         21    1    1    2  503  502  0.25780163004E+02 -0.69309190378E+01 -0.92058982387E+01  0.28238325120E+02  0.00000000000E+00 0. -1.
         21    1    1    2  504  501 -0.25780163004E+02  0.69309190378E+01 -0.37487123050E+03  0.37582056077E+03  0.00000000000E+00 0. -1.
</event>
<event>
 4    1  0.1571930E+006  0.3417629E+02  0.7546771E-02  0.1386448E+00
         21   -1    0    0  504  501  0.00000000000E+00  0.00000000000E+00  0.27648953499E+02  0.27648953499E+02  0.00000000000E+00 0.  1.
         21   -1    0    0  501  502 -0.00000000000E+00 -0.00000000000E+00 -0.54922392218E+02  0.54922392218E+02  0.00000000000E+00 0.  1.
         21    1    1    2  503  502 -0.24107847140E+02  0.24224578539E+02 -0.33472384026E+02  0.47837422500E+02  0.00000000000E+00 0.  1.
         21    1    1    2  504  503  0.24107847140E+02 -0.24224578539E+02  0.61989453066E+01  0.34733923217E+02  0.00000000000E+00 0.  1.
</event>
<event>
 4    1  0.1571930E+006  0.2291416E+02  0.7546771E-02  0.1493579E+00
         21   -1    0    0  503  501  0.00000000000E+00  0.00000000000E+00  0.19026785480E+02  0.19026785480E+02  0.00000000000E+00 0. -1.
         21   -1    0    0  504  502 -0.00000000000E+00 -0.00000000000E+00 -0.46177345923E+02  0.46177345923E+02  0.00000000000E+00 0. -1.
         21    1    1    2  503  502  0.20673962693E+02  0.98816103023E+01 -0.34256293259E+02  0.41213500014E+02  0.00000000000E+00 0. -1.
         21    1    1    2  504  501 -0.20673962693E+02 -0.98816103023E+01  0.71057328153E+01  0.23990631389E+02  0.00000000000E+00 0. -1.
</event>
<event>
 4    1  0.1571930E+006  0.2152776E+02  0.7546771E-02  0.1511862E+00
         21   -1    0    0  503  501  0.00000000000E+00  0.00000000000E+00  0.32268536712E+03  0.32268536712E+03  0.00000000000E+00 0.  1.
         21   -1    0    0  504  502 -0.00000000000E+00 -0.00000000000E+00 -0.51589064158E+02  0.51589064158E+02  0.00000000000E+00 0. -1.
         21    1    1    2  503  502 -0.18657012998E+02  0.10740585547E+02 -0.48965779103E+02  0.53489174934E+02  0.00000000000E+00 0. -1.
         21    1    1    2  504  501  0.18657012998E+02 -0.10740585547E+02  0.32006208206E+03  0.32078525634E+03  0.00000000000E+00 0.  1.
</event>
<event>
 4    1  0.1571930E+006  0.2367023E+02  0.7546771E-02  0.1484249E+00
         21   -1    0    0  503  501  0.00000000000E+00  0.00000000000E+00  0.72385327691E+02  0.72385327691E+02  0.00000000000E+00 0. -1.
         21   -1    0    0  501  502 -0.00000000000E+00 -0.00000000000E+00 -0.19615818387E+02  0.19615818387E+02  0.00000000000E+00 0. -1.
         21    1    1    2  503  504 -0.17017075801E+02 -0.16452923787E+02  0.62176878665E+02  0.66530021873E+02  0.00000000000E+00 0. -1.
         21    1    1    2  504  502  0.17017075801E+02  0.16452923787E+02 -0.94073693607E+01  0.25471124205E+02  0.00000000000E+00 0. -1.
</event>
<event>
 4    1  0.1571930E+006  0.3123737E+02  0.7546771E-02  0.1409140E+00
         21   -1    0    0  503  501  0.00000000000E+00  0.00000000000E+00  0.32222674083E+03  0.32222674083E+03  0.00000000000E+00 0. -1.
         21   -1    0    0  504  502 -0.00000000000E+00 -0.00000000000E+00 -0.87001261989E+03  0.87001261989E+03  0.00000000000E+00 0. -1.
         21    1    1    2  503  502 -0.16534575299E+02 -0.26502475238E+02  0.32118839099E+03  0.32270382068E+03  0.00000000000E+00 0. -1.
         21    1    1    2  504  501  0.16534575299E+02  0.26502475238E+02 -0.86897427006E+03  0.86953554004E+03  0.00000000000E+00 0. -1.
</event>
<event>
 4    1  0.1571930E+006  0.2082288E+02  0.7546771E-02  0.1521809E+00
         21   -1    0    0  503  501  0.00000000000E+00  0.00000000000E+00  0.97605623517E+02  0.97605623517E+02  0.00000000000E+00 0.  1.
         21   -1    0    0  504  502 -0.00000000000E+00 -0.00000000000E+00 -0.11207115800E+03  0.11207115800E+03  0.00000000000E+00 0. -1.
         21    1    1    2  503  502 -0.16064176407E+02  0.13248949208E+02 -0.10997235149E+03  0.11192636200E+03  0.00000000000E+00 0. -1.
         21    1    1    2  504  501  0.16064176407E+02 -0.13248949208E+02  0.95506817011E+02  0.97750419510E+02  0.00000000000E+00 0.  1.
</event>
<event>
 4    1  0.1571930E+006  0.2648756E+02  0.7546771E-02  0.1452825E+00
         21   -1    0    0  502  501  0.00000000000E+00  0.00000000000E+00  0.36003493856E+01  0.36003493856E+01  0.00000000000E+00 0.  1.
         21   -1    0    0  504  502 -0.00000000000E+00 -0.00000000000E+00 -0.19609280516E+03  0.19609280516E+03  0.00000000000E+00 0.  1.
         21    1    1    2  503  501  0.20897352919E+02  0.16275483988E+02 -0.10413921701E+03  0.10745495455E+03  0.00000000000E+00 0.  1.
         21    1    1    2  504  503 -0.20897352919E+02 -0.16275483988E+02 -0.88353238760E+02  0.92238199990E+02  0.00000000000E+00 0.  1.
</event>
<event>
 4    1  0.1571930E+006  0.3765897E+02  0.7546771E-02  0.1362779E+00
         21   -1    0    0  504  501  0.00000000000E+00  0.00000000000E+00  0.23350761053E+03  0.23350761053E+03  0.00000000000E+00 0.  1.
         21   -1    0    0  503  502 -0.00000000000E+00 -0.00000000000E+00 -0.36476749817E+02  0.36476749817E+02  0.00000000000E+00 0. -1.
         21    1    1    2  503  501  0.26329198087E+02 -0.26925286394E+02 -0.24727176795E+02  0.45051426077E+02  0.00000000000E+00 0. -1.
         21    1    1    2  504  502 -0.26329198087E+02  0.26925286394E+02  0.22175803751E+03  0.22493293427E+03  0.00000000000E+00 0.  1.
</event>
<event>
 4    1  0.1571930E+006  0.3475222E+02  0.7546771E-02  0.1382314E+00
         21   -1    0    0  503  501  0.00000000000E+00  0.00000000000E+00  0.87611116969E+02  0.87611116969E+02  0.00000000000E+00 0.  1.
         21   -1    0    0  504  502 -0.00000000000E+00 -0.00000000000E+00 -0.36231346766E+02  0.36231346766E+02  0.00000000000E+00 0.  1.
         21    1    1    2  503  502  0.33829965808E+02  0.79529857215E+01 -0.23048426319E+02  0.41700677743E+02  0.00000000000E+00 0.  1.
         21    1    1    2  504  501 -0.33829965808E+02 -0.79529857215E+01  0.74428196522E+02  0.82141785992E+02  0.00000000000E+00 0.  1.
</event>
<event>
 4    1  0.1571930E+006  0.2357209E+02  0.7546771E-02  0.1485437E+00
         21   -1    0    0  502  501  0.00000000000E+00  0.00000000000E+00  0.28750611865E+02  0.28750611865E+02  0.00000000000E+00 0.  1.
         21   -1    0    0  503  502 -0.00000000000E+00 -0.00000000000E+00 -0.20615213295E+02  0.20615213295E+02  0.00000000000E+00 0.  1.
         21    1    1    2  503  504  0.99817226477E+01  0.21354360593E+02 -0.21040901155E+01  0.23665812865E+02  0.00000000000E+00 0.  1.
         21    1    1    2  504  501 -0.99817226477E+01 -0.21354360593E+02  0.10239488686E+02  0.25700012294E+02  0.00000000000E+00 0.  1.
</event>
<event>
 4    1  0.1571930E+006  0.2291032E+02  0.7546771E-02  0.1493627E+00
         21   -1    0    0  503  501  0.00000000000E+00  0.00000000000E+00  0.26632071362E+03  0.26632071362E+03  0.00000000000E+00 0. -1.
         21   -1    0    0  504  502 -0.00000000000E+00 -0.00000000000E+00 -0.34232794963E+01  0.34232794963E+01  0.00000000000E+00 0. -1.
         21    1    1    2  503  502 -0.18586086673E+02  0.13395529285E+02  0.21929947849E+03  0.22049295700E+03  0.00000000000E+00 0. -1.
         21    1    1    2  504  501  0.18586086673E+02 -0.13395529285E+02  0.43597955634E+02  0.49251036112E+02  0.00000000000E+00 0. -1.
</event>
<event>
 4    1  0.1571930E+006  0.2731080E+02  0.7546771E-02  0.1444511E+00
         21   -1    0    0  504  501  0.00000000000E+00  0.00000000000E+00  0.33989663643E+01  0.33989663643E+01  0.00000000000E+00 0. -1.
         21   -1    0    0  503  502 -0.00000000000E+00 -0.00000000000E+00 -0.41472302103E+03  0.41472302103E+03  0.00000000000E+00 0. -1.
         21    1    1    2  503  501 -0.27254957130E+02  0.17456346099E+01 -0.62204723468E+02  0.67936054861E+02  0.00000000000E+00 0. -1.
         21    1    1    2  504  502  0.27254957130E+02 -0.17456346099E+01 -0.34911933120E+03  0.35018593253E+03  0.00000000000E+00 0. -1.
</event>
<event>
 4    1  0.1571930E+006  0.2405662E+02  0.7546771E-02  0.1479640E+00
         21   -1    0    0  504  501  0.00000000000E+00  0.00000000000E+00  0.13809719442E+03  0.13809719442E+03  0.00000000000E+00 0. -1.
         21   -1    0    0  503  502 -0.00000000000E+00 -0.00000000000E+00 -0.21592984663E+02  0.21592984663E+02  0.00000000000E+00 0. -1.
         21    1    1    2  503  501  0.82539248552E+01  0.22596321550E+02  0.12993165476E+03  0.13213991044E+03  0.00000000000E+00 0. -1.
         21    1    1    2  504  502 -0.82539248552E+01 -0.22596321550E+02 -0.13427445000E+02  0.27550268644E+02  0.00000000000E+00 0. -1.
</event>
<event>
 4    1  0.1571930E+006  0.2115664E+02  0.7546771E-02  0.1517040E+00
         21   -1    0    0  503  501  0.00000000000E+00  0.00000000000E+00  0.54084718812E+02  0.54084718812E+02  0.00000000000E+00 0. -1.
         21   -1    0    0  501  502 -0.00000000000E+00 -0.00000000000E+00 -0.48188588658E+02  0.48188588658E+02  0.00000000000E+00 0.  1.
         21    1    1    2  503  504  0.25264210094E+01  0.21005251825E+02  0.49486880379E+02  0.53819650101E+02  0.00000000000E+00 0. -1.
         21    1    1    2  504  502 -0.25264210094E+01 -0.21005251825E+02 -0.43590750224E+02  0.48453657369E+02  0.00000000000E+00 0.  1.
</event>
<event>
 4    1  0.1571930E+006  0.2250570E+02  0.7546771E-02  0.1498800E+00
         21   -1    0    0  504  501  0.00000000000E+00  0.00000000000E+00  0.76628952172E+02  0.76628952172E+02  0.00000000000E+00 0.  1.
         21   -1    0    0  501  502 -0.00000000000E+00 -0.00000000000E+00 -0.27544934964E+02  0.27544934964E+02  0.00000000000E+00 0. -1.
         21    1    1    2  503  502 -0.22499741941E+02 -0.51785555058E+00 -0.20867339783E+02  0.30691243562E+02  0.00000000000E+00 0. -1.
         21    1    1    2  504  503  0.22499741941E+02  0.51785555058E+00  0.69951356991E+02  0.73482643574E+02  0.00000000000E+00 0.  1.
</event>
<event>
 4    1  0.1571930E+006  0.2636450E+02  0.7546771E-02  0.1454098E+00
         21   -1    0    0  502  501  0.00000000000E+00  0.00000000000E+00  0.74539508044E+02  0.74539508044E+02  0.00000000000E+00 0.  1.
         21   -1    0    0  504  502 -0.00000000000E+00 -0.00000000000E+00 -0.29451481179E+02  0.29451481179E+02  0.00000000000E+00 0. -1.
         21    1    1    2  503  501  0.15304582968E+02  0.21467572380E+02  0.65526862503E+02  0.70631838665E+02  0.00000000000E+00 0.  1.
         21    1    1    2  504  503 -0.15304582968E+02 -0.21467572380E+02 -0.20438835638E+02  0.33359150557E+02  0.00000000000E+00 0. -1.
</event>
<event>
 4    1  0.1571930E+006  0.2169409E+02  0.7546771E-02  0.1509582E+00
         21   -1    0    0  504  501  0.00000000000E+00  0.00000000000E+00  0.13155974913E+01  0.13155974913E+01  0.00000000000E+00 0.  1.
         21   -1    0    0  503  502 -0.00000000000E+00 -0.00000000000E+00 -0.71207851725E+03  0.71207851725E+03  0.00000000000E+00 0. -1.
         21    1    1    2  503  501  0.11419999694E+02  0.18444970955E+02 -0.10375939275E+03  0.10600304208E+03  0.00000000000E+00 0.  1.
         21    1    1    2  504  502 -0.11419999694E+02 -0.18444970955E+02 -0.60700352701E+03  0.60739107267E+03  0.00000000000E+00 0. -1.
</event>
<event>
 4    1  0.1571930E+006  0.2245759E+02  0.7546771E-02  0.1499424E+00
         21   -1    0    0  503  501  0.00000000000E+00  0.00000000000E+00  0.20733717960E+02  0.20733717960E+02  0.00000000000E+00 0. -1.
         21   -1    0    0  504  502 -0.00000000000E+00 -0.00000000000E+00 -0.12553627076E+03  0.12553627076E+03  0.00000000000E+00 0. -1.
         21    1    1    2  503  502 -0.20358377677E+02 -0.94804897141E+01 -0.11806953826E+03  0.12018635152E+03  0.00000000000E+00 0. -1.
         21    1    1    2  504  501  0.20358377677E+02  0.94804897141E+01  0.13266985454E+02  0.26083637206E+02  0.00000000000E+00 0. -1.
</event>
<event>
 4    1  0.1571930E+006  0.2400082E+02  0.7546771E-02  0.1480299E+00
         21   -1    0    0  503  501  0.00000000000E+00  0.00000000000E+00  0.10604845871E+02  0.10604845871E+02  0.00000000000E+00 0.  1.
         21   -1    0    0  504  502 -0.00000000000E+00 -0.00000000000E+00 -0.58790377233E+02  0.58790377233E+02  0.00000000000E+00 0.  1.
         21    1    1    2  503  502 -0.21792188988E+01  0.23901679688E+02 -0.14523214998E+02  0.28052861900E+02  0.00000000000E+00 0.  1.
         21    1    1    2  504  501  0.21792188988E+01 -0.23901679688E+02 -0.33662316364E+02  0.41342361204E+02  0.00000000000E+00 0.  1.
</event>
<event>
 4    1  0.1571930E+006  0.2074548E+02  0.7546771E-02  0.1522930E+00
         21   -1    0    0  504  501  0.00000000000E+00  0.00000000000E+00  0.35454334546E+02  0.35454334546E+02  0.00000000000E+00 0. -1.
         21   -1    0    0  503  502 -0.00000000000E+00 -0.00000000000E+00 -0.13071483942E+02  0.13071483942E+02  0.00000000000E+00 0. -1.
         21    1    1    2  503  501  0.20520302577E+02 -0.30483002485E+01  0.17672325843E+02  0.27252266932E+02  0.00000000000E+00 0. -1.
         21    1    1    2  504  502 -0.20520302577E+02  0.30483002485E+01  0.47105247614E+01  0.21273551555E+02  0.00000000000E+00 0. -1.
</event>
<event>
 4    1  0.1571930E+006  0.2165383E+02  0.7546771E-02  0.1510131E+00
         21   -1    0    0  503  501  0.00000000000E+00  0.00000000000E+00  0.73908310657E+02  0.73908310657E+02  0.00000000000E+00 0.  1.
         21   -1    0    0  504  502 -0.00000000000E+00 -0.00000000000E+00 -0.17847448206E+02  0.17847448206E+02  0.00000000000E+00 0. -1.
         21    1    1    2  503  502  0.75171641308E+01 -0.20307156979E+02 -0.88016025897E+01  0.23374271952E+02  0.00000000000E+00 0. -1.
         21    1    1    2  504  501 -0.75171641308E+01  0.20307156979E+02  0.64862465041E+02  0.68381486912E+02  0.00000000000E+00 0.  1.
</event>
<event>
 4    1  0.1571930E+006  0.2142683E+02  0.7546771E-02  0.1513257E+00
         21   -1    0    0  504  501  0.00000000000E+00  0.00000000000E+00  0.67749911470E+02  0.67749911470E+02  0.00000000000E+00 0. -1.
         21   -1    0    0  503  502 -0.00000000000E+00 -0.00000000000E+00 -0.72070727907E+01  0.72070727907E+01  0.00000000000E+00 0. -1.
         21    1    1    2  503  501  0.19144234502E+02 -0.96232607542E+01  0.39431812878E+02  0.44877352073E+02  0.00000000000E+00 0. -1.
         21    1    1    2  504  502 -0.19144234502E+02  0.96232607542E+01  0.21111025801E+02  0.30079632188E+02  0.00000000000E+00 0. -1.
</event>
<event>
 4    1  0.1571930E+006  0.2306622E+02  0.7546771E-02  0.1491668E+00
         21   -1    0    0  503  501  0.00000000000E+00  0.00000000000E+00  0.25035069335E+02  0.25035069335E+02  0.00000000000E+00 0.  1.
         21   -1    0    0  504  502 -0.00000000000E+00 -0.00000000000E+00 -0.22797968222E+02  0.22797968222E+02  0.00000000000E+00 0.  1.
         21    1    1    2  503  502 -0.15798915748E+02  0.16806094485E+02  0.73461500848E+01  0.24207777092E+02  0.00000000000E+00 0.  1.
         21    1    1    2  504  501  0.15798915748E+02 -0.16806094485E+02 -0.51090489724E+01  0.23625260466E+02  0.00000000000E+00 0.  1.
</event>
<event>
 4    1  0.1571930E+006  0.3001107E+02  0.7546771E-02  0.1419500E+00
         21   -1    0    0  503  501  0.00000000000E+00  0.00000000000E+00  0.34908361808E+01  0.34908361808E+01  0.00000000000E+00 0.  1.
         21   -1    0    0  504  502 -0.00000000000E+00 -0.00000000000E+00 -0.27552705050E+03  0.27552705050E+03  0.00000000000E+00 0.  1.
         21    1    1    2  503  502  0.16808346023E+02  0.24862503302E+02 -0.17119617613E+03  0.17380677572E+03  0.00000000000E+00 0.  1.
         21    1    1    2  504  501 -0.16808346023E+02 -0.24862503302E+02 -0.10084003819E+03  0.10521111096E+03  0.00000000000E+00 0.  1.
</event>
<event>
 4    1  0.1571930E+006  0.2728315E+02  0.7546771E-02  0.1444784E+00
         21   -1    0    0  504  501  0.00000000000E+00  0.00000000000E+00  0.60876637074E+01  0.60876637074E+01  0.00000000000E+00 0. -1.
         21   -1    0    0  503  502 -0.00000000000E+00 -0.00000000000E+00 -0.12346197781E+03  0.12346197781E+03  0.00000000000E+00 0. -1.
         21    1    1    2  503  501  0.27040699035E+02  0.36291731981E+01 -0.52336419553E+02  0.59020937929E+02  0.00000000000E+00 0. -1.
         21    1    1    2  504  502 -0.27040699035E+02 -0.36291731981E+01 -0.65037894550E+02  0.70528703589E+02  0.00000000000E+00 0. -1.
</event>
<event>
 4    1  0.1571930E+006  0.2010942E+02  0.7546771E-02  0.1532370E+00
         21   -1    0    0  503  501  0.00000000000E+00  0.00000000000E+00  0.31484240381E+02  0.31484240381E+02  0.00000000000E+00 0.  1.
         21   -1    0    0  504  502 -0.00000000000E+00 -0.00000000000E+00 -0.40268964825E+02  0.40268964825E+02  0.00000000000E+00 0. -1.
         21    1    1    2  503  502  0.16032458694E+02 -0.12138745519E+02  0.25214868376E+02  0.32251797807E+02  0.00000000000E+00 0.  1.
         21    1    1    2  504  501 -0.16032458694E+02  0.12138745519E+02 -0.33999592820E+02  0.39501407399E+02  0.00000000000E+00 0. -1.
</event>
<event>
 4    1  0.1571930E+006  0.2330715E+02  0.7546771E-02  0.1488677E+00
         21   -1    0    0  504  501  0.00000000000E+00  0.00000000000E+00  0.65792753838E+01  0.65792753838E+01  0.00000000000E+00 0. -1.
         21   -1    0    0  503  502 -0.00000000000E+00 -0.00000000000E+00 -0.99593836202E+02  0.99593836202E+02  0.00000000000E+00 0. -1.
         21    1    1    2  503  501 -0.19601843404E+02 -0.12609170693E+02 -0.24556498690E+02  0.33856241350E+02  0.00000000000E+00 0. -1.
         21    1    1    2  504  502  0.19601843404E+02  0.12609170693E+02 -0.68458062128E+02  0.72316870236E+02  0.00000000000E+00 0. -1.
</event>
<event>
 4    1  0.1571930E+006  0.3069934E+02  0.7546771E-02  0.1413615E+00
         21   -1    0    0  503  501  0.00000000000E+00  0.00000000000E+00  0.40086883448E+02  0.40086883448E+02  0.00000000000E+00 0.  1.
         21   -1    0    0  504  502 -0.00000000000E+00 -0.00000000000E+00 -0.28950072323E+02  0.28950072323E+02  0.00000000000E+00 0. -1.
         21    1    1    2  503  502 -0.30696977272E+02 -0.38072734784E+00  0.20531535203E+02  0.36932279983E+02  0.00000000000E+00 0.  1.
         21    1    1    2  504  501  0.30696977272E+02  0.38072734784E+00 -0.93947240789E+01  0.32104675788E+02  0.00000000000E+00 0. -1.
</event>
<event>
 4    1  0.1571930E+006  0.2072743E+02  0.7546771E-02  0.1523192E+00
         21   -1    0    0  504  501  0.00000000000E+00  0.00000000000E+00  0.53459177366E+02  0.53459177366E+02  0.00000000000E+00 0.  1.
         21   -1    0    0  503  502 -0.00000000000E+00 -0.00000000000E+00 -0.12312488204E+02  0.12312488204E+02  0.00000000000E+00 0. -1.
         21    1    1    2  503  501 -0.17315239284E+02  0.11393376530E+02  0.39953283842E+02  0.45009903687E+02  0.00000000000E+00 0.  1.
         21    1    1    2  504  502  0.17315239284E+02 -0.11393376530E+02  0.11934053205E+01  0.20761761883E+02  0.00000000000E+00 0. -1.
</event>
<event>
 4    1  0.1571930E+006  0.3429242E+02  0.7546771E-02  0.1385607E+00
         21   -1    0    0  504  501  0.00000000000E+00  0.00000000000E+00  0.42577467695E+03  0.42577467695E+03  0.00000000000E+00 0. -1.
         21   -1    0    0  503  502 -0.00000000000E+00 -0.00000000000E+00 -0.11168800780E+02  0.11168800780E+02  0.00000000000E+00 0. -1.
         21    1    1    2  503  501 -0.33464879254E+02 -0.74881191421E+01  0.39684629121E+03  0.39832517987E+03  0.00000000000E+00 0. -1.
         21    1    1    2  504  502  0.33464879254E+02  0.74881191421E+01  0.17759584963E+02  0.38618297862E+02  0.00000000000E+00 0. -1.
</event>
<event>
 4    1  0.1571930E+006  0.2071937E+02  0.7546771E-02  0.1523310E+00
         21   -1    0    0  502  501  0.00000000000E+00  0.00000000000E+00  0.49990147425E+02  0.49990147425E+02  0.00000000000E+00 0. -1.
         21   -1    0    0  503  502 -0.00000000000E+00 -0.00000000000E+00 -0.17807836654E+02  0.17807836654E+02  0.00000000000E+00 0.  1.
         21    1    1    2  503  504  0.20690817454E+02  0.10872763375E+01 -0.83012028091E+01  0.22320440516E+02  0.00000000000E+00 0.  1.
         21    1    1    2  504  501 -0.20690817454E+02 -0.10872763375E+01  0.40483513579E+02  0.45477543563E+02  0.00000000000E+00 0. -1.
</event>
<event>
 4    1  0.1571930E+006  0.2328640E+02  0.7546771E-02  0.1488933E+00
         21   -1    0    0  502  501  0.00000000000E+00  0.00000000000E+00  0.54323949182E+02  0.54323949182E+02  0.00000000000E+00 0.  1.
         21   -1    0    0  503  502 -0.00000000000E+00 -0.00000000000E+00 -0.14696319043E+03  0.14696319043E+03  0.00000000000E+00 0.  1.
         21    1    1    2  503  504 -0.17459321486E+02 -0.15408723006E+02 -0.14348518133E+03  0.14536249143E+03  0.00000000000E+00 0.  1.
         21    1    1    2  504  501  0.17459321486E+02  0.15408723006E+02  0.50845940086E+02  0.55924648186E+02  0.00000000000E+00 0.  1.
</event>
<event>
 4    1  0.1571930E+006  0.2742219E+02  0.7546771E-02  0.1443413E+00
         21   -1    0    0  504  501  0.00000000000E+00  0.00000000000E+00  0.52470477357E+02  0.52470477357E+02  0.00000000000E+00 0. -1.
         21   -1    0    0  501  502 -0.00000000000E+00 -0.00000000000E+00 -0.75918202318E+02  0.75918202318E+02  0.00000000000E+00 0. -1.
         21    1    1    2  503  502  0.27318205798E+02  0.23858652032E+01 -0.69542455348E+02  0.74753794663E+02  0.00000000000E+00 0. -1.
         21    1    1    2  504  503 -0.27318205798E+02 -0.23858652032E+01  0.46094730387E+02  0.53634885012E+02  0.00000000000E+00 0. -1.
</event>
<event>
 4    1  0.1571930E+006  0.2197305E+02  0.7546771E-02  0.1505812E+00
         21   -1    0    0  503  501  0.00000000000E+00  0.00000000000E+00  0.36833154781E+03  0.36833154781E+03  0.00000000000E+00 0. -1.
         21   -1    0    0  504  502 -0.00000000000E+00 -0.00000000000E+00 -0.87451685832E+01  0.87451685832E+01  0.00000000000E+00 0. -1.
         21    1    1    2  503  502 -0.21635736528E+02  0.38353524209E+01  0.35362817851E+03  0.35431018001E+03  0.00000000000E+00 0. -1.
         21    1    1    2  504  501  0.21635736528E+02 -0.38353524209E+01  0.59582007240E+01  0.22766536389E+02  0.00000000000E+00 0. -1.
</event>
<event>
 4    1  0.1571930E+006  0.2102259E+02  0.7546771E-02  0.1518943E+00
         21   -1    0    0  504  501  0.00000000000E+00  0.00000000000E+00  0.15941566793E+03  0.15941566793E+03  0.00000000000E+00 0.  1.
         21   -1    0    0  503  502 -0.00000000000E+00 -0.00000000000E+00 -0.74996937403E+01  0.74996937403E+01  0.00000000000E+00 0. -1.
         21    1    1    2  503  501 -0.38455078003E+01 -0.20667879961E+02  0.14221854806E+03  0.14376391969E+03  0.00000000000E+00 0.  1.
         21    1    1    2  504  502  0.38455078003E+01  0.20667879961E+02  0.96974261332E+01  0.23151441984E+02  0.00000000000E+00 0. -1.
</event>
<event>
 4    1  0.1571930E+006  0.2091518E+02  0.7546771E-02  0.1520479E+00
         21   -1    0    0  503  501  0.00000000000E+00  0.00000000000E+00  0.87101489812E+02  0.87101489812E+02  0.00000000000E+00 0. -1.
         21   -1    0    0  504  502 -0.00000000000E+00 -0.00000000000E+00 -0.23420148675E+03  0.23420148675E+03  0.00000000000E+00 0.  1.
         21    1    1    2  503  502 -0.18392045866E+02  0.99587825369E+01 -0.23246963824E+03  0.23340860611E+03  0.00000000000E+00 0.  1.
         21    1    1    2  504  501  0.18392045866E+02 -0.99587825369E+01  0.85369641305E+02  0.87894370453E+02  0.00000000000E+00 0. -1.
</event>
<event>
 4    1  0.1571930E+006  0.4737913E+02  0.7546771E-02  0.1309954E+00
         21   -1    0    0  503  501  0.00000000000E+00  0.00000000000E+00  0.11115585675E+03  0.11115585675E+03  0.00000000000E+00 0. -1.
         21   -1    0    0  504  502 -0.00000000000E+00 -0.00000000000E+00 -0.22060682637E+02  0.22060682637E+02  0.00000000000E+00 0. -1.
         21    1    1    2  503  502 -0.46910815241E+02  0.66450950583E+01  0.63918438782E+02  0.79563488431E+02  0.00000000000E+00 0. -1.
         21    1    1    2  504  501  0.46910815241E+02 -0.66450950583E+01  0.25176735330E+02  0.53653050955E+02  0.00000000000E+00 0. -1.
</event>
<event>
 4    1  0.1571930E+006  0.3724339E+02  0.7546771E-02  0.1365443E+00
         21   -1    0    0  504  501  0.00000000000E+00  0.00000000000E+00  0.42518419231E+03  0.42518419231E+03  0.00000000000E+00 0.  1.
         21   -1    0    0  501  502 -0.00000000000E+00 -0.00000000000E+00 -0.20770150405E+02  0.20770150405E+02  0.00000000000E+00 0.  1.
         21    1    1    2  503  502 -0.28231425161E+02  0.24291079445E+02 -0.25115503892E+01  0.37327976004E+02  0.00000000000E+00 0.  1.
         21    1    1    2  504  503  0.28231425161E+02 -0.24291079445E+02  0.40692559229E+03  0.40862636671E+03  0.00000000000E+00 0.  1.
</event>
<event>
 4    1  0.1571930E+006  0.2296776E+02  0.7546771E-02  0.1492903E+00
         21   -1    0    0  502  501  0.00000000000E+00  0.00000000000E+00  0.70530815957E+02  0.70530815957E+02  0.00000000000E+00 0.  1.
         21   -1    0    0  503  502 -0.00000000000E+00 -0.00000000000E+00 -0.28946041753E+02  0.28946041753E+02  0.00000000000E+00 0.  1.
         21    1    1    2  503  504  0.10421726356E+02  0.20467187020E+02 -0.22040856940E+02  0.31832648325E+02  0.00000000000E+00 0.  1.
         21    1    1    2  504  501 -0.10421726356E+02 -0.20467187020E+02  0.63625631144E+02  0.67644209384E+02  0.00000000000E+00 0.  1.
</event>
<event>
 4    1  0.1571930E+006  0.2641811E+02  0.7546771E-02  0.1453543E+00
         21   -1    0    0  504  501  0.00000000000E+00  0.00000000000E+00  0.47973006636E+03  0.47973006636E+03  0.00000000000E+00 0.  1.
         21   -1    0    0  503  502 -0.00000000000E+00 -0.00000000000E+00 -0.17244333345E+01  0.17244333345E+01  0.00000000000E+00 0.  1.
         21    1    1    2  503  501  0.98782972595E+01 -0.24501748749E+02  0.33419037743E+03  0.33523294113E+03  0.00000000000E+00 0.  1.
         21    1    1    2  504  502 -0.98782972595E+01  0.24501748749E+02  0.14381525559E+03  0.14622155856E+03  0.00000000000E+00 0.  1.
</event>
<event>
 4    1  0.1571930E+006  0.6000425E+02  0.7546771E-02  0.1259818E+00
         21   -1    0    0  503  501  0.00000000000E+00  0.00000000000E+00  0.27690853318E+03  0.27690853318E+03  0.00000000000E+00 0.  1.
         21   -1    0    0  501  502 -0.00000000000E+00 -0.00000000000E+00 -0.22043758727E+03  0.22043758727E+03  0.00000000000E+00 0.  1.
         21    1    1    2  503  504  0.34260795944E+02 -0.49261632531E+02  0.26946307281E+03  0.27606314166E+03  0.00000000000E+00 0.  1.
         21    1    1    2  504  502 -0.34260795944E+02  0.49261632531E+02 -0.21299212690E+03  0.22128297879E+03  0.00000000000E+00 0.  1.
</event>
<event>
 4    1  0.1571930E+006  0.3279012E+02  0.7546771E-02  0.1396802E+00
         21   -1    0    0  504  501  0.00000000000E+00  0.00000000000E+00  0.10183329089E+02  0.10183329089E+02  0.00000000000E+00 0. -1.
         21   -1    0    0  503  502 -0.00000000000E+00 -0.00000000000E+00 -0.18847867993E+03  0.18847867993E+03  0.00000000000E+00 0. -1.
         21    1    1    2  503  501 -0.32663364789E+02 -0.28804077566E+01 -0.15502230576E+03  0.15845222444E+03  0.00000000000E+00 0. -1.
         21    1    1    2  504  502  0.32663364789E+02  0.28804077566E+01 -0.23273045079E+02  0.40209784573E+02  0.00000000000E+00 0. -1.
</event>
<event>
 4    1  0.1571930E+006  0.2252630E+02  0.7546771E-02  0.1498534E+00
         21   -1    0    0  502  501  0.00000000000E+00  0.00000000000E+00  0.92338685840E+02  0.92338685840E+02  0.00000000000E+00 0.  1.
         21   -1    0    0  504  502 -0.00000000000E+00 -0.00000000000E+00 -0.10767601850E+02  0.10767601850E+02  0.00000000000E+00 0.  1.
         21    1    1    2  503  501  0.17337741572E+02  0.14381820585E+02  0.76859470908E+02  0.80092523461E+02  0.00000000000E+00 0.  1.
         21    1    1    2  504  503 -0.17337741572E+02 -0.14381820585E+02  0.47116130826E+01  0.23013764229E+02  0.00000000000E+00 0.  1.
</event>
<event>
 4    1  0.1571930E+006  0.3015014E+02  0.7546771E-02  0.1418296E+00
         21   -1    0    0  504  501  0.00000000000E+00  0.00000000000E+00  0.66356902319E+01  0.66356902319E+01  0.00000000000E+00 0.  1.
         21   -1    0    0  503  502 -0.00000000000E+00 -0.00000000000E+00 -0.20144738553E+03  0.20144738553E+03  0.00000000000E+00 0. -1.
         21    1    1    2  503  501  0.14076222416E+02 -0.26662537982E+02 -0.15625745741E+03  0.15913963669E+03  0.00000000000E+00 0. -1.
         21    1    1    2  504  502 -0.14076222416E+02  0.26662537982E+02 -0.38554237887E+02  0.48943439072E+02  0.00000000000E+00 0.  1.
</event>
<event>
 4    1  0.1571930E+006  0.2227760E+02  0.7546771E-02  0.1501774E+00
         21   -1    0    0  504  501  0.00000000000E+00  0.00000000000E+00  0.36429799803E+00  0.36429799803E+00  0.00000000000E+00 0. -1.
         21   -1    0    0  503  502 -0.00000000000E+00 -0.00000000000E+00 -0.20122306376E+04  0.20122306376E+04  0.00000000000E+00 0. -1.
         21    1    1    2  503  501 -0.76594464021E+01 -0.20919475856E+02 -0.43404214886E+03  0.43461348181E+03  0.00000000000E+00 0. -1.
         21    1    1    2  504  502  0.76594464021E+01  0.20919475856E+02 -0.15778241908E+04  0.15779814538E+04  0.00000000000E+00 0. -1.
</event>
<event>
 4    1  0.1571930E+006  0.2022088E+02  0.7546771E-02  0.1530686E+00
         21   -1    0    0  504  501  0.00000000000E+00  0.00000000000E+00  0.22384526812E+02  0.22384526812E+02  0.00000000000E+00 0. -1.
         21   -1    0    0  503  502 -0.00000000000E+00 -0.00000000000E+00 -0.18120989259E+03  0.18120989259E+03  0.00000000000E+00 0. -1.
         21    1    1    2  503  501  0.19674880198E+02  0.46672343785E+01 -0.17594294303E+03  0.17710111008E+03  0.00000000000E+00 0. -1.
         21    1    1    2  504  502 -0.19674880198E+02 -0.46672343785E+01  0.17117577259E+02  0.26493309321E+02  0.00000000000E+00 0. -1.
</event>
<event>
 4    1  0.1571930E+006  0.2057405E+02  0.7546771E-02  0.1525434E+00
         21   -1    0    0  503  501  0.00000000000E+00  0.00000000000E+00  0.11650194865E+03  0.11650194865E+03  0.00000000000E+00 0. -1.
         21   -1    0    0  504  502 -0.00000000000E+00 -0.00000000000E+00 -0.41428852157E+02  0.41428852157E+02  0.00000000000E+00 0. -1.
         21    1    1    2  503  502 -0.19579533427E+02 -0.63193029002E+01  0.11295984001E+03  0.11481819183E+03  0.00000000000E+00 0. -1.
         21    1    1    2  504  501  0.19579533427E+02  0.63193029002E+01 -0.37886743522E+02  0.43112608980E+02  0.00000000000E+00 0. -1.
</event>
<event>
 4    1  0.1571930E+006  0.2968024E+02  0.7546771E-02  0.1422396E+00
         21   -1    0    0  503  501  0.00000000000E+00  0.00000000000E+00  0.10840934725E+02  0.10840934725E+02  0.00000000000E+00 0. -1.
         21   -1    0    0  501  502 -0.00000000000E+00 -0.00000000000E+00 -0.36738150344E+03  0.36738150344E+03  0.00000000000E+00 0. -1.
         21    1    1    2  503  504 -0.29616933896E+02 -0.19374484316E+01 -0.11378425715E+02  0.31786554572E+02  0.00000000000E+00 0. -1.
         21    1    1    2  504  502  0.29616933896E+02  0.19374484316E+01 -0.34516214300E+03  0.34643588359E+03  0.00000000000E+00 0. -1.
</event>
<event>
 4    1  0.1571930E+006  0.3371683E+02  0.7546771E-02  0.1389816E+00
         21   -1    0    0  504  501  0.00000000000E+00  0.00000000000E+00  0.56301531186E+02  0.56301531186E+02  0.00000000000E+00 0. -1.
         21   -1    0    0  503  502 -0.00000000000E+00 -0.00000000000E+00 -0.20454559000E+02  0.20454559000E+02  0.00000000000E+00 0. -1.
         21    1    1    2  503  501  0.20969196255E+02 -0.26402983512E+02  0.22273924604E+02  0.40409806324E+02  0.00000000000E+00 0. -1.
         21    1    1    2  504  502 -0.20969196255E+02  0.26402983512E+02  0.13573047582E+02  0.36346283862E+02  0.00000000000E+00 0. -1.
</event>
<event>
 4    1  0.1571930E+006  0.2119866E+02  0.7546771E-02  0.1516447E+00
         21   -1    0    0  502  501  0.00000000000E+00  0.00000000000E+00  0.65816971401E+02  0.65816971401E+02  0.00000000000E+00 0. -1.
         21   -1    0    0  504  502 -0.00000000000E+00 -0.00000000000E+00 -0.68319368429E+01  0.68319368429E+01  0.00000000000E+00 0. -1.
         21    1    1    2  503  501  0.61536031325E+01  0.20285867523E+02  0.30389416721E+02  0.37052663889E+02  0.00000000000E+00 0. -1.
         21    1    1    2  504  503 -0.61536031325E+01 -0.20285867523E+02  0.28595617837E+02  0.35596244354E+02  0.00000000000E+00 0. -1.
</event>
<event>
 4    1  0.1571930E+006  0.2549373E+02  0.7546771E-02  0.1463355E+00
         21   -1    0    0  504  501  0.00000000000E+00  0.00000000000E+00  0.32977637442E+03  0.32977637442E+03  0.00000000000E+00 0. -1.
         21   -1    0    0  503  502 -0.00000000000E+00 -0.00000000000E+00 -0.84392468759E+01  0.84392468759E+01  0.00000000000E+00 0. -1.
         21    1    1    2  503  501  0.19601902176E+02  0.16300176672E+02  0.12617643457E+02  0.28445302861E+02  0.00000000000E+00 0. -1.
         21    1    1    2  504  502 -0.19601902176E+02 -0.16300176672E+02  0.30871948408E+03  0.30977031843E+03  0.00000000000E+00 0. -1.
</event>
<event>
 4    1  0.1571930E+006  0.2078380E+02  0.7546771E-02  0.1522374E+00
         21   -1    0    0  503  501  0.00000000000E+00  0.00000000000E+00  0.15089413058E+01  0.15089413058E+01  0.00000000000E+00 0.  1.
         21   -1    0    0  504  502 -0.00000000000E+00 -0.00000000000E+00 -0.33483690441E+03  0.33483690441E+03  0.00000000000E+00 0. -1.
         21    1    1    2  503  502  0.95246117491E+01 -0.18472899542E+02 -0.10261609139E+03  0.10469970611E+03  0.00000000000E+00 0.  1.
         21    1    1    2  504  501 -0.95246117491E+01  0.18472899542E+02 -0.23071187172E+03  0.23164613961E+03  0.00000000000E+00 0. -1.
</event>
<event>
 4    1  0.1571930E+006  0.2045797E+02  0.7546771E-02  0.1527146E+00
         21   -1    0    0  504  501  0.00000000000E+00  0.00000000000E+00  0.16637790888E+03  0.16637790888E+03  0.00000000000E+00 0.  1.
         21   -1    0    0  503  502 -0.00000000000E+00 -0.00000000000E+00 -0.31459140541E+03  0.31459140541E+03  0.00000000000E+00 0.  1.
         21    1    1    2  503  501 -0.20132283361E+02  0.36358888533E+01 -0.31362799638E+03  0.31429452530E+03  0.00000000000E+00 0.  1.
         21    1    1    2  504  502  0.20132283361E+02 -0.36358888533E+01  0.16541449986E+03  0.16667478899E+03  0.00000000000E+00 0.  1.
</event>
<event>
 4    1  0.1571930E+006  0.4691092E+02  0.7546771E-02  0.1312151E+00
         21   -1    0    0  504  501  0.00000000000E+00  0.00000000000E+00  0.14329084750E+03  0.14329084750E+03  0.00000000000E+00 0. -1.
         21   -1    0    0  501  502 -0.00000000000E+00 -0.00000000000E+00 -0.16980777763E+02  0.16980777763E+02  0.00000000000E+00 0. -1.
         21    1    1    2  503  502 -0.40264854789E+02 -0.24070237173E+02  0.38380720344E+02  0.60611175066E+02  0.00000000000E+00 0. -1.
         21    1    1    2  504  503  0.40264854789E+02  0.24070237173E+02  0.87929349395E+02  0.99660450199E+02  0.00000000000E+00 0. -1.
</event>
<event>
 4    1  0.1571930E+006  0.2778384E+02  0.7546771E-02  0.1439889E+00
         21   -1    0    0  504  501  0.00000000000E+00  0.00000000000E+00  0.24780705105E+02  0.24780705105E+02  0.00000000000E+00 0.  1.
         21   -1    0    0  501  502 -0.00000000000E+00 -0.00000000000E+00 -0.28658605819E+03  0.28658605819E+03  0.00000000000E+00 0. -1.
         21    1    1    2  503  502 -0.22901713463E+02 -0.15730644995E+02 -0.27788159585E+03  0.27926711762E+03  0.00000000000E+00 0. -1.
         21    1    1    2  504  503  0.22901713463E+02  0.15730644995E+02  0.16076242760E+02  0.32099645680E+02  0.00000000000E+00 0.  1.
</event>
<event>
 4    1  0.1571930E+006  0.2093911E+02  0.7546771E-02  0.1520136E+00
         21   -1    0    0  504  501  0.00000000000E+00  0.00000000000E+00  0.18598964349E+02  0.18598964349E+02  0.00000000000E+00 0. -1.
         21   -1    0    0  503  502 -0.00000000000E+00 -0.00000000000E+00 -0.78525104565E+02  0.78525104565E+02  0.00000000000E+00 0. -1.
         21    1    1    2  503  501  0.33924706182E+01 -0.20662469405E+02 -0.70587005244E+02  0.73627249087E+02  0.00000000000E+00 0. -1.
         21    1    1    2  504  502 -0.33924706182E+01  0.20662469405E+02  0.10660865029E+02  0.23496819826E+02  0.00000000000E+00 0. -1.
</event>
<event>
 4    1  0.1571930E+006  0.3282117E+02  0.7546771E-02  0.1396564E+00
         21   -1    0    0  503  501  0.00000000000E+00  0.00000000000E+00  0.34261855046E+02  0.34261855046E+02  0.00000000000E+00 0.  1.
         21   -1    0    0  504  502 -0.00000000000E+00 -0.00000000000E+00 -0.31504222308E+02  0.31504222308E+02  0.00000000000E+00 0.  1.
         21    1    1    2  503  502 -0.27325996654E+02 -0.18180192975E+02  0.28510252700E+01  0.32944769764E+02  0.00000000000E+00 0.  1.
         21    1    1    2  504  501  0.27325996654E+02  0.18180192975E+02 -0.93392531968E-01  0.32821307590E+02  0.00000000000E+00 0.  1.
</event>
<event>
 4    1  0.1571930E+006  0.3514551E+02  0.7546771E-02  0.1379543E+00
         21   -1    0    0  504  501  0.00000000000E+00  0.00000000000E+00  0.90026223570E+01  0.90026223570E+01  0.00000000000E+00 0. -1.
         21   -1    0    0  503  502 -0.00000000000E+00 -0.00000000000E+00 -0.56352684523E+03  0.56352684523E+03  0.00000000000E+00 0. -1.
         21    1    1    2  503  501  0.35145356870E+02 -0.10528222980E+00 -0.52625056157E+03  0.52742284814E+03  0.00000000000E+00 0. -1.
         21    1    1    2  504  502 -0.35145356870E+02  0.10528222980E+00 -0.28273661303E+02  0.45106619440E+02  0.00000000000E+00 0. -1.
</event>
<event>
 4    1  0.1571930E+006  0.2342579E+02  0.7546771E-02  0.1487220E+00
         21   -1    0    0  503  501  0.00000000000E+00  0.00000000000E+00  0.41572795486E+02  0.41572795486E+02  0.00000000000E+00 0.  1.
         21   -1    0    0  504  502 -0.00000000000E+00 -0.00000000000E+00 -0.12435609341E+03  0.12435609341E+03  0.00000000000E+00 0.  1.
         21    1    1    2  503  502  0.27801321600E+01 -0.23260234464E+02 -0.11982933891E+03  0.12209765807E+03  0.00000000000E+00 0.  1.
         21    1    1    2  504  501 -0.27801321600E+01  0.23260234464E+02  0.37046040992E+02  0.43831230821E+02  0.00000000000E+00 0.  1.
</event>
<event>
 4    1  0.1571930E+006  0.2484536E+02  0.7546771E-02  0.1470541E+00
         21   -1    0    0  502  501  0.00000000000E+00  0.00000000000E+00  0.23862111273E+02  0.23862111273E+02  0.00000000000E+00 0.  1.
         21   -1    0    0  503  502 -0.00000000000E+00 -0.00000000000E+00 -0.51636475971E+02  0.51636475971E+02  0.00000000000E+00 0.  1.
         21    1    1    2  503  504  0.10290880791E+02 -0.22613923964E+02 -0.40553648879E+02  0.47559333699E+02  0.00000000000E+00 0.  1.
         21    1    1    2  504  501 -0.10290880791E+02  0.22613923964E+02  0.12779284181E+02  0.27939253546E+02  0.00000000000E+00 0.  1.
</event>
<event>
 4    1  0.1571930E+006  0.2421866E+02  0.7546771E-02  0.1477737E+00
         21   -1    0    0  502  501  0.00000000000E+00  0.00000000000E+00  0.17719437311E+04  0.17719437311E+04  0.00000000000E+00 0. -1.
         21   -1    0    0  504  502 -0.00000000000E+00 -0.00000000000E+00 -0.11375352880E+01  0.11375352880E+01  0.00000000000E+00 0. -1.
         21    1    1    2  503  501 -0.17724735319E+02  0.16503849730E+02  0.16318919849E+04  0.16320716877E+04  0.00000000000E+00 0. -1.
         21    1    1    2  504  503  0.17724735319E+02 -0.16503849730E+02  0.13891421087E+03  0.14100957868E+03  0.00000000000E+00 0. -1.
</event>
<event>
 4    1  0.1571930E+006  0.3087810E+02  0.7546771E-02  0.1412116E+00
         21   -1    0    0  503  501  0.00000000000E+00  0.00000000000E+00  0.12032179493E+03  0.12032179493E+03  0.00000000000E+00 0.  1.
         21   -1    0    0  501  502 -0.00000000000E+00 -0.00000000000E+00 -0.25919311611E+02  0.25919311611E+02  0.00000000000E+00 0. -1.
         21    1    1    2  503  504  0.15656972232E+02 -0.26614214867E+02  0.10812752477E+03  0.11245007259E+03  0.00000000000E+00 0.  1.
         21    1    1    2  504  502 -0.15656972232E+02  0.26614214867E+02 -0.13725041454E+02  0.33791033950E+02  0.00000000000E+00 0. -1.
</event>
<event>
 4    1  0.1571930E+006  0.4729796E+02  0.7546771E-02  0.1310333E+00
         21   -1    0    0  504  501  0.00000000000E+00  0.00000000000E+00  0.12453333574E+03  0.12453333574E+03  0.00000000000E+00 0. -1.
         21   -1    0    0  503  502 -0.00000000000E+00 -0.00000000000E+00 -0.23440112700E+02  0.23440112700E+02  0.00000000000E+00 0. -1.
         21    1    1    2  503  501  0.46448752568E+02  0.89224523533E+01  0.14785045258E+02  0.49554962763E+02  0.00000000000E+00 0. -1.
         21    1    1    2  504  502 -0.46448752568E+02 -0.89224523533E+01  0.86308177787E+02  0.98418485683E+02  0.00000000000E+00 0. -1.
</event>
<event>
 4    1  0.1571930E+006  0.2183969E+02  0.7546771E-02  0.1507606E+00
         21   -1    0    0  503  501  0.00000000000E+00  0.00000000000E+00  0.23046458197E+02  0.23046458197E+02  0.00000000000E+00 0. -1.
         21   -1    0    0  501  502 -0.00000000000E+00 -0.00000000000E+00 -0.29230941405E+02  0.29230941405E+02  0.00000000000E+00 0. -1.
         21    1    1    2  503  504 -0.18498644932E+02 -0.11609142868E+02  0.11031833612E+02  0.24467803646E+02  0.00000000000E+00 0. -1.
         21    1    1    2  504  502  0.18498644932E+02  0.11609142868E+02 -0.17216316820E+02  0.27809595956E+02  0.00000000000E+00 0. -1.
</event>
<event>
 4    1  0.1571930E+006  0.2378378E+02  0.7546771E-02  0.1482884E+00
         21   -1    0    0  504  501  0.00000000000E+00  0.00000000000E+00  0.36959466131E+02  0.36959466131E+02  0.00000000000E+00 0. -1.
         21   -1    0    0  503  502 -0.00000000000E+00 -0.00000000000E+00 -0.36676960705E+02  0.36676960705E+02  0.00000000000E+00 0. -1.
         21    1    1    2  503  501  0.12734302132E+02 -0.20087447985E+02 -0.27963986940E+02  0.36710387943E+02  0.00000000000E+00 0. -1.
         21    1    1    2  504  502 -0.12734302132E+02  0.20087447985E+02  0.28246492367E+02  0.36926038893E+02  0.00000000000E+00 0. -1.
</event>
<event>
 4    1  0.1571930E+006  0.2641403E+02  0.7546771E-02  0.1453585E+00
         21   -1    0    0  503  501  0.00000000000E+00  0.00000000000E+00  0.59422383833E+03  0.59422383833E+03  0.00000000000E+00 0.  1.
         21   -1    0    0  504  502 -0.00000000000E+00 -0.00000000000E+00 -0.10084972801E+02  0.10084972801E+02  0.00000000000E+00 0.  1.
         21    1    1    2  503  502  0.24888653100E+02  0.88462340529E+01  0.57609063174E+03  0.57669586169E+03  0.00000000000E+00 0.  1.
         21    1    1    2  504  501 -0.24888653100E+02 -0.88462340529E+01  0.80482337945E+01  0.27612949449E+02  0.00000000000E+00 0.  1.
</event>
<event>
 4    1  0.1571930E+006  0.2031250E+02  0.7546771E-02  0.1529311E+00
         21   -1    0    0  504  501  0.00000000000E+00  0.00000000000E+00  0.27774464622E+03  0.27774464622E+03  0.00000000000E+00 0. -1.
         21   -1    0    0  501  502 -0.00000000000E+00 -0.00000000000E+00 -0.22374100448E+02  0.22374100448E+02  0.00000000000E+00 0.  1.
         21    1    1    2  503  502 -0.20254082684E+02 -0.15394623552E+01 -0.17306948483E+02  0.26685731684E+02  0.00000000000E+00 0.  1.
         21    1    1    2  504  503  0.20254082684E+02  0.15394623552E+01  0.27267749425E+03  0.27343301498E+03  0.00000000000E+00 0. -1.
</event>
<event>
 4    1  0.1571930E+006  0.2731528E+02  0.7546771E-02  0.1444466E+00
         21   -1    0    0  504  501  0.00000000000E+00  0.00000000000E+00  0.24703401875E+03  0.24703401875E+03  0.00000000000E+00 0.  1.
         21   -1    0    0  503  502 -0.00000000000E+00 -0.00000000000E+00 -0.63148167473E+01  0.63148167473E+01  0.00000000000E+00 0.  1.
         21    1    1    2  503  501  0.18436350809E+02 -0.20155039020E+02  0.21185564650E+03  0.21360931530E+03  0.00000000000E+00 0.  1.
         21    1    1    2  504  502 -0.18436350809E+02  0.20155039020E+02  0.28863555495E+02  0.39739520189E+02  0.00000000000E+00 0.  1.
</event>
<event>
 4    1  0.1571930E+006  0.2035903E+02  0.7546771E-02  0.1528616E+00
         21   -1    0    0  504  501  0.00000000000E+00  0.00000000000E+00  0.19642449111E+02  0.19642449111E+02  0.00000000000E+00 0. -1.
         21   -1    0    0  503  502 -0.00000000000E+00 -0.00000000000E+00 -0.46961995236E+02  0.46961995236E+02  0.00000000000E+00 0.  1.
         21    1    1    2  503  501 -0.98452144491E+01 -0.17820263375E+02 -0.38372249614E+02  0.43438687535E+02  0.00000000000E+00 0.  1.
         21    1    1    2  504  502  0.98452144491E+01  0.17820263375E+02  0.11052703489E+02  0.23165756813E+02  0.00000000000E+00 0. -1.
</event>
<event>
 4    1  0.1571930E+006  0.2470394E+02  0.7546771E-02  0.1472143E+00
         21   -1    0    0  503  501  0.00000000000E+00  0.00000000000E+00  0.17871652918E+02  0.17871652918E+02  0.00000000000E+00 0.  1.
         21   -1    0    0  504  502 -0.00000000000E+00 -0.00000000000E+00 -0.15904919166E+03  0.15904919166E+03  0.00000000000E+00 0. -1.
         21    1    1    2  503  502 -0.83164006869E+01  0.23262029386E+02 -0.14897977619E+03  0.15101409949E+03  0.00000000000E+00 0. -1.
         21    1    1    2  504  501  0.83164006869E+01 -0.23262029386E+02  0.78022374511E+01  0.25906745083E+02  0.00000000000E+00 0.  1.
</event>
<event>
 4    1  0.1571930E+006  0.2323042E+02  0.7546771E-02  0.1489625E+00
         21   -1    0    0  502  501  0.00000000000E+00  0.00000000000E+00  0.43575414884E+02  0.43575414884E+02  0.00000000000E+00 0. -1.
         21   -1    0    0  503  502 -0.00000000000E+00 -0.00000000000E+00 -0.23979731687E+02  0.23979731687E+02  0.00000000000E+00 0. -1.
         21    1    1    2  503  504 -0.84788080922E+01  0.21627807206E+02 -0.13690330561E+02  0.26964372458E+02  0.00000000000E+00 0. -1.
         21    1    1    2  504  501  0.84788080922E+01 -0.21627807206E+02  0.33286013757E+02  0.40590774113E+02  0.00000000000E+00 0. -1.
</event>
<event>
 4    1  0.1571930E+006  0.2011508E+02  0.7546771E-02  0.1532284E+00
         21   -1    0    0  504  501  0.00000000000E+00  0.00000000000E+00  0.25497425472E+01  0.25497425472E+01  0.00000000000E+00 0.  1.
         21   -1    0    0  503  502 -0.00000000000E+00 -0.00000000000E+00 -0.22998864005E+03  0.22998864005E+03  0.00000000000E+00 0.  1.
         21    1    1    2  503  501 -0.16769744067E+02 -0.11108192119E+02 -0.17845680280E+03  0.17958687790E+03  0.00000000000E+00 0.  1.
         21    1    1    2  504  502  0.16769744067E+02  0.11108192119E+02 -0.48982094702E+02  0.52951504696E+02  0.00000000000E+00 0.  1.
</event>
<event>
 4    1  0.1571930E+006  0.2100126E+02  0.7546771E-02  0.1519247E+00
         21   -1    0    0  503  501  0.00000000000E+00  0.00000000000E+00  0.71707904610E+02  0.71707904610E+02  0.00000000000E+00 0.  1.
         21   -1    0    0  504  502 -0.00000000000E+00 -0.00000000000E+00 -0.17606812749E+02  0.17606812749E+02  0.00000000000E+00 0. -1.
         21    1    1    2  503  502  0.21001160784E+02 -0.63767201197E-01  0.63072856041E+02  0.66477349449E+02  0.00000000000E+00 0.  1.
         21    1    1    2  504  501 -0.21001160784E+02  0.63767201197E-01 -0.89717641803E+01  0.22837367909E+02  0.00000000000E+00 0. -1.
</event>
<event>
 4    1  0.1571930E+006  0.2428605E+02  0.7546771E-02  0.1476951E+00
         21   -1    0    0  504  501  0.00000000000E+00  0.00000000000E+00  0.19423730018E+03  0.19423730018E+03  0.00000000000E+00 0.  1.
         21   -1    0    0  503  502 -0.00000000000E+00 -0.00000000000E+00 -0.10634335815E+02  0.10634335815E+02  0.00000000000E+00 0.  1.
         21    1    1    2  503  501  0.23848596412E+02  0.45887348262E+01  0.17838596463E+03  0.18003156505E+03  0.00000000000E+00 0.  1.
         21    1    1    2  504  502 -0.23848596412E+02 -0.45887348262E+01  0.52169997335E+01  0.24840070941E+02  0.00000000000E+00 0.  1.
</event>
<event>
 4    1  0.1571930E+006  0.2884556E+02  0.7546771E-02  0.1429901E+00
         21   -1    0    0  502  501  0.00000000000E+00  0.00000000000E+00  0.71167485947E+02  0.71167485947E+02  0.00000000000E+00 0.  1.
         21   -1    0    0  503  502 -0.00000000000E+00 -0.00000000000E+00 -0.14680495429E+03  0.14680495429E+03  0.00000000000E+00 0. -1.
         21    1    1    2  503  504 -0.28824397170E+02 -0.11048055949E+01 -0.14237504868E+03  0.14526775608E+03  0.00000000000E+00 0. -1.
         21    1    1    2  504  501  0.28824397170E+02  0.11048055949E+01  0.66737580347E+02  0.72704684155E+02  0.00000000000E+00 0.  1.
</event>
<event>
 4    1  0.1571930E+006  0.2406959E+02  0.7546771E-02  0.1479487E+00
         21   -1    0    0  503  501  0.00000000000E+00  0.00000000000E+00  0.53928493127E+02  0.53928493127E+02  0.00000000000E+00 0.  1.
         21   -1    0    0  504  502 -0.00000000000E+00 -0.00000000000E+00 -0.35230201460E+02  0.35230201460E+02  0.00000000000E+00 0.  1.
         21    1    1    2  503  502 -0.23050534126E+02 -0.69295093521E+01  0.46515257710E+02  0.52373795195E+02  0.00000000000E+00 0.  1.
         21    1    1    2  504  501  0.23050534126E+02  0.69295093521E+01 -0.27816966043E+02  0.36784899391E+02  0.00000000000E+00 0.  1.
</event>
<event>
 4    1  0.1571930E+006  0.4869750E+02  0.7546771E-02  0.1303921E+00
         21   -1    0    0  504  501  0.00000000000E+00  0.00000000000E+00  0.34767694287E+03  0.34767694287E+03  0.00000000000E+00 0.  1.
         21   -1    0    0  503  502 -0.00000000000E+00 -0.00000000000E+00 -0.69570206854E+01  0.69570206854E+01  0.00000000000E+00 0. -1.
         21    1    1    2  503  501 -0.42731765331E+02 -0.23354723271E+02  0.14555118728E+03  0.15348157865E+03  0.00000000000E+00 0. -1.
         21    1    1    2  504  502  0.42731765331E+02  0.23354723271E+02  0.19516873490E+03  0.20115238490E+03  0.00000000000E+00 0.  1.
</event>
<event>
 4    1  0.1571930E+006  0.2262828E+02  0.7546771E-02  0.1497219E+00
         21   -1    0    0  504  501  0.00000000000E+00  0.00000000000E+00  0.22664478404E+01  0.22664478404E+01  0.00000000000E+00 0. -1.
         21   -1    0    0  503  502 -0.00000000000E+00 -0.00000000000E+00 -0.23408326557E+03  0.23408326557E+03  0.00000000000E+00 0. -1.
         21    1    1    2  503  501 -0.20140068125E+02  0.10315838985E+02 -0.13797508201E+03  0.13981831830E+03  0.00000000000E+00 0. -1.
         21    1    1    2  504  502  0.20140068125E+02 -0.10315838985E+02 -0.93841735722E+02  0.96531395107E+02  0.00000000000E+00 0. -1.
</event>
<event>
 4    1  0.1571930E+006  0.3639775E+02  0.7546771E-02  0.1370994E+00
         21   -1    0    0  504  501  0.00000000000E+00  0.00000000000E+00  0.18145964720E+03  0.18145964720E+03  0.00000000000E+00 0.  1.
         21   -1    0    0  503  502 -0.00000000000E+00 -0.00000000000E+00 -0.64161562843E+02  0.64161562843E+02  0.00000000000E+00 0. -1.
         21    1    1    2  503  501  0.27084815405E+02  0.24314787388E+02  0.17426155462E+03  0.17802214899E+03  0.00000000000E+00 0.  1.
         21    1    1    2  504  502 -0.27084815405E+02 -0.24314787388E+02 -0.56963470263E+02  0.67599061056E+02  0.00000000000E+00 0. -1.
</event>
<event>
 4    1  0.1571930E+006  0.3066790E+02  0.7546771E-02  0.1413879E+00
         21   -1    0    0  503  501  0.00000000000E+00  0.00000000000E+00  0.31795907438E+03  0.31795907438E+03  0.00000000000E+00 0.  1.
         21   -1    0    0  504  502 -0.00000000000E+00 -0.00000000000E+00 -0.32547845465E+01  0.32547845465E+01  0.00000000000E+00 0. -1.
         21    1    1    2  503  502 -0.28503214599E+02  0.11317547788E+02  0.20585086396E+03  0.20812279626E+03  0.00000000000E+00 0. -1.
         21    1    1    2  504  501  0.28503214599E+02 -0.11317547788E+02  0.10885342587E+03  0.11309106266E+03  0.00000000000E+00 0.  1.
</event>
<event>
 4    1  0.1571930E+006  0.2190878E+02  0.7546771E-02  0.1506675E+00
         21   -1    0    0  503  501  0.00000000000E+00  0.00000000000E+00  0.14338128542E+03  0.14338128542E+03  0.00000000000E+00 0.  1.
         21   -1    0    0  504  502 -0.00000000000E+00 -0.00000000000E+00 -0.19156135937E+02  0.19156135937E+02  0.00000000000E+00 0. -1.
         21    1    1    2  503  502  0.68061586873E+01 -0.20824766091E+02  0.13593939090E+03  0.13769354624E+03  0.00000000000E+00 0.  1.
         21    1    1    2  504  501 -0.68061586873E+01  0.20824766091E+02 -0.11714241415E+02  0.24843875115E+02  0.00000000000E+00 0. -1.
</event>
<event>
 4    1  0.1571930E+006  0.2074174E+02  0.7546771E-02  0.1522984E+00
         21   -1    0    0  504  501  0.00000000000E+00  0.00000000000E+00  0.18789472333E+02  0.18789472333E+02  0.00000000000E+00 0. -1.
         21   -1    0    0  503  502 -0.00000000000E+00 -0.00000000000E+00 -0.10589368499E+03  0.10589368499E+03  0.00000000000E+00 0. -1.
         21    1    1    2  503  501 -0.17406766725E+02  0.11279375407E+02 -0.98743773813E+02  0.10089872499E+03  0.00000000000E+00 0. -1.
         21    1    1    2  504  502  0.17406766725E+02 -0.11279375407E+02  0.11639561159E+02  0.23784432332E+02  0.00000000000E+00 0. -1.
</event>
<event>
 4    1  0.1571930E+006  0.2474127E+02  0.7546771E-02  0.1471719E+00
         21   -1    0    0  503  501  0.00000000000E+00  0.00000000000E+00  0.14304699243E+03  0.14304699243E+03  0.00000000000E+00 0.  1.
         21   -1    0    0  504  502 -0.00000000000E+00 -0.00000000000E+00 -0.93181111629E+01  0.93181111629E+01  0.00000000000E+00 0.  1.
         21    1    1    2  503  502  0.86063321158E+01 -0.23196151511E+02  0.12288646602E+03  0.12535235909E+03  0.00000000000E+00 0.  1.
         21    1    1    2  504  501 -0.86063321158E+01  0.23196151511E+02  0.10842415246E+02  0.27012744506E+02  0.00000000000E+00 0.  1.
</event>
<event>
 4    1  0.1571930E+006  0.3109435E+02  0.7546771E-02  0.1410319E+00
         21   -1    0    0  504  501  0.00000000000E+00  0.00000000000E+00  0.31355721536E+01  0.31355721536E+01  0.00000000000E+00 0.  1.
         21   -1    0    0  503  502 -0.00000000000E+00 -0.00000000000E+00 -0.80091401161E+03  0.80091401161E+03  0.00000000000E+00 0. -1.
         21    1    1    2  503  501  0.27536523261E+02  0.14442930660E+02 -0.71416497158E+03  0.71484156636E+03  0.00000000000E+00 0. -1.
         21    1    1    2  504  502 -0.27536523261E+02 -0.14442930660E+02 -0.83613467875E+02  0.89208017406E+02  0.00000000000E+00 0.  1.
</event>
<event>
 4    1  0.1571930E+006  0.3542278E+02  0.7546771E-02  0.1377615E+00
         21   -1    0    0  503  501  0.00000000000E+00  0.00000000000E+00  0.89796237917E+03  0.89796237917E+03  0.00000000000E+00 0.  1.
         21   -1    0    0  504  502 -0.00000000000E+00 -0.00000000000E+00 -0.23254496952E+02  0.23254496952E+02  0.00000000000E+00 0.  1.
         21    1    1    2  503  502  0.34621703870E+02  0.74907482466E+01 -0.92011913709E+01  0.36598300654E+02  0.00000000000E+00 0.  1.
         21    1    1    2  504  501 -0.34621703870E+02 -0.74907482466E+01  0.88390907359E+03  0.88461857547E+03  0.00000000000E+00 0.  1.
</event>
<event>
 4    1  0.1571930E+006  0.2000614E+02  0.7546771E-02  0.1533942E+00
         21   -1    0    0  503  501  0.00000000000E+00  0.00000000000E+00  0.40763539940E+00  0.40763539940E+00  0.00000000000E+00 0. -1.
         21   -1    0    0  504  502 -0.00000000000E+00 -0.00000000000E+00 -0.99528109671E+03  0.99528109671E+03  0.00000000000E+00 0. -1.
         21    1    1    2  503  502  0.86973189432E+01 -0.18016718461E+02 -0.55522394527E+03  0.55558426445E+03  0.00000000000E+00 0. -1.
         21    1    1    2  504  501 -0.86973189432E+01  0.18016718461E+02 -0.43964951605E+03  0.44010446767E+03  0.00000000000E+00 0. -1.
</event>
<event>
 4    1  0.1571930E+006  0.2355000E+02  0.7546771E-02  0.1485705E+00
         21   -1    0    0  503  501  0.00000000000E+00  0.00000000000E+00  0.20321914359E+02  0.20321914359E+02  0.00000000000E+00 0. -1.
         21   -1    0    0  504  502 -0.00000000000E+00 -0.00000000000E+00 -0.38113850916E+03  0.38113850916E+03  0.00000000000E+00 0. -1.
         21    1    1    2  503  502 -0.21019292017E+02 -0.10620358558E+02 -0.37381854488E+03  0.37455961761E+03  0.00000000000E+00 0. -1.
         21    1    1    2  504  501  0.21019292017E+02  0.10620358558E+02  0.13001950074E+02  0.26900805908E+02  0.00000000000E+00 0. -1.
</event>
<event>
 4    1  0.1571930E+006  0.3096353E+02  0.7546771E-02  0.1411404E+00
         21   -1    0    0  502  501  0.00000000000E+00  0.00000000000E+00  0.84913934612E+02  0.84913934612E+02  0.00000000000E+00 0.  1.
         21   -1    0    0  503  502 -0.00000000000E+00 -0.00000000000E+00 -0.15491192956E+03  0.15491192956E+03  0.00000000000E+00 0.  1.
         21    1    1    2  503  504  0.29328046444E+02 -0.99300623663E+01 -0.15045934572E+03  0.15361235354E+03  0.00000000000E+00 0.  1.
         21    1    1    2  504  501 -0.29328046444E+02  0.99300623663E+01  0.80461350772E+02  0.86213510628E+02  0.00000000000E+00 0.  1.
</event>
<event>
 4    1  0.1571930E+006  0.2759631E+02  0.7546771E-02  0.1441708E+00
         21   -1    0    0  503  501  0.00000000000E+00  0.00000000000E+00  0.93642665607E+02  0.93642665607E+02  0.00000000000E+00 0. -1.
         21   -1    0    0  504  502 -0.00000000000E+00 -0.00000000000E+00 -0.58951271390E+02  0.58951271390E+02  0.00000000000E+00 0. -1.
         21    1    1    2  503  502 -0.23775201096E+02  0.14010563447E+02 -0.53493307702E+02  0.60192109484E+02  0.00000000000E+00 0. -1.
         21    1    1    2  504  501  0.23775201096E+02 -0.14010563447E+02  0.88184701919E+02  0.92401827513E+02  0.00000000000E+00 0. -1.
</event>
<event>
 4    1  0.1571930E+006  0.3153784E+02  0.7546771E-02  0.1406687E+00
         21   -1    0    0  503  501  0.00000000000E+00  0.00000000000E+00  0.13064046865E+02  0.13064046865E+02  0.00000000000E+00 0. -1.
         21   -1    0    0  501  502 -0.00000000000E+00 -0.00000000000E+00 -0.11861776682E+04  0.11861776682E+04  0.00000000000E+00 0. -1.
         21    1    1    2  503  504  0.31537554920E+02  0.13428373411E+00 -0.64985273349E+01  0.32200407761E+02  0.00000000000E+00 0. -1.
         21    1    1    2  504  502 -0.31537554920E+02 -0.13428373411E+00 -0.11666150940E+04  0.11670413073E+04  0.00000000000E+00 0. -1.
</event>
<event>
 4    1  0.1571930E+006  0.2450923E+02  0.7546771E-02  0.1474369E+00
         21   -1    0    0  503  501  0.00000000000E+00  0.00000000000E+00  0.96065084148E+02  0.96065084148E+02  0.00000000000E+00 0.  1.
         21   -1    0    0  504  502 -0.00000000000E+00 -0.00000000000E+00 -0.86420915904E+02  0.86420915904E+02  0.00000000000E+00 0. -1.
         21    1    1    2  503  502 -0.14097427520E+02  0.20049061273E+02  0.92702117544E+02  0.95887355359E+02  0.00000000000E+00 0.  1.
         21    1    1    2  504  501  0.14097427520E+02 -0.20049061273E+02 -0.83057949300E+02  0.86598644693E+02  0.00000000000E+00 0. -1.
</event>
<event>
 4    1  0.1571930E+006  0.4135573E+02  0.7546771E-02  0.1340719E+00
         21   -1    0    0  502  501  0.00000000000E+00  0.00000000000E+00  0.69898790640E+02  0.69898790640E+02  0.00000000000E+00 0.  1.
         21   -1    0    0  504  502 -0.00000000000E+00 -0.00000000000E+00 -0.26112436008E+03  0.26112436008E+03  0.00000000000E+00 0. -1.
         21    1    1    2  503  501 -0.38057656085E+02  0.16183681097E+02  0.61953609325E+02  0.74488565760E+02  0.00000000000E+00 0.  1.
         21    1    1    2  504  503  0.38057656085E+02 -0.16183681097E+02 -0.25317917877E+03  0.25653458496E+03  0.00000000000E+00 0. -1.
</event>
<event>
 4    1  0.1571930E+006  0.4859463E+02  0.7546771E-02  0.1304383E+00
         21   -1    0    0  503  501  0.00000000000E+00  0.00000000000E+00  0.16834640870E+03  0.16834640870E+03  0.00000000000E+00 0.  1.
         21   -1    0    0  504  502 -0.00000000000E+00 -0.00000000000E+00 -0.14380722965E+02  0.14380722965E+02  0.00000000000E+00 0.  1.
         21    1    1    2  503  502 -0.25751691566E+02  0.41210300401E+02  0.62659117701E+02  0.79294410324E+02  0.00000000000E+00 0.  1.
         21    1    1    2  504  501  0.25751691566E+02 -0.41210300401E+02  0.91306568030E+02  0.10343272134E+03  0.00000000000E+00 0.  1.
</event>
<event>
 4    1  0.1571930E+006  0.2066638E+02  0.7546771E-02  0.1524082E+00
         21   -1    0    0  504  501  0.00000000000E+00  0.00000000000E+00  0.95404184112E+00  0.95404184112E+00  0.00000000000E+00 0.  1.
         21   -1    0    0  503  502 -0.00000000000E+00 -0.00000000000E+00 -0.52089715581E+03  0.52089715581E+03  0.00000000000E+00 0. -1.
         21    1    1    2  503  501 -0.29596288813E+01 -0.20453356582E+02 -0.35780031953E+03  0.35839666273E+03  0.00000000000E+00 0. -1.
         21    1    1    2  504  502  0.29596288813E+01  0.20453356582E+02 -0.16214279444E+03  0.16345453492E+03  0.00000000000E+00 0.  1.
</event>
<event>
 4    1  0.1571930E+006  0.2705907E+02  0.7546771E-02  0.1447016E+00
         21   -1    0    0  502  501  0.00000000000E+00  0.00000000000E+00  0.13436823523E+04  0.13436823523E+04  0.00000000000E+00 0.  1.
         21   -1    0    0  504  502 -0.00000000000E+00 -0.00000000000E+00 -0.65133166532E+01  0.65133166532E+01  0.00000000000E+00 0. -1.
         21    1    1    2  503  501  0.19997707690E+02 -0.18228679465E+02  0.13148256979E+04  0.13151041057E+04  0.00000000000E+00 0.  1.
         21    1    1    2  504  503 -0.19997707690E+02  0.18228679465E+02  0.22343337770E+02  0.35091563240E+02  0.00000000000E+00 0. -1.
</event>
<event>
 4    1  0.1571930E+006  0.2928036E+02  0.7546771E-02  0.1425955E+00
         21   -1    0    0  503  501  0.00000000000E+00  0.00000000000E+00  0.38023738160E+02  0.38023738160E+02  0.00000000000E+00 0. -1.
         21   -1    0    0  504  502 -0.00000000000E+00 -0.00000000000E+00 -0.53544848234E+02  0.53544848234E+02  0.00000000000E+00 0. -1.
         21    1    1    2  503  502  0.53808644121E+01 -0.28781687913E+02 -0.42595900271E+02  0.51688973494E+02  0.00000000000E+00 0. -1.
         21    1    1    2  504  501 -0.53808644121E+01  0.28781687913E+02  0.27074790197E+02  0.39879612901E+02  0.00000000000E+00 0. -1.
</event>
<event>
 4    1  0.1571930E+006  0.2756585E+02  0.7546771E-02  0.1442005E+00
         21   -1    0    0  504  501  0.00000000000E+00  0.00000000000E+00  0.40908003183E+03  0.40908003183E+03  0.00000000000E+00 0. -1.
         21   -1    0    0  503  502 -0.00000000000E+00 -0.00000000000E+00 -0.34224836936E+02  0.34224836936E+02  0.00000000000E+00 0.  1.
         21    1    1    2  503  501  0.51398852530E+01 -0.27082425277E+02 -0.28125928708E+02  0.39382026928E+02  0.00000000000E+00 0.  1.
         21    1    1    2  504  502 -0.51398852530E+01  0.27082425277E+02  0.40298112360E+03  0.40392284184E+03  0.00000000000E+00 0. -1.
</event>
<event>
 4    1  0.1571930E+006  0.2520979E+02  0.7546771E-02  0.1466470E+00
         21   -1    0    0  504  501  0.00000000000E+00  0.00000000000E+00  0.18419526048E+03  0.18419526048E+03  0.00000000000E+00 0. -1.
         21   -1    0    0  503  502 -0.00000000000E+00 -0.00000000000E+00 -0.52025401983E+01  0.52025401983E+01  0.00000000000E+00 0. -1.
         21    1    1    2  503  501  0.21534888548E+02 -0.13106566643E+02  0.34538358347E+02  0.42760165005E+02  0.00000000000E+00 0. -1.
         21    1    1    2  504  502 -0.21534888548E+02  0.13106566643E+02  0.14445436194E+03  0.14663763568E+03  0.00000000000E+00 0. -1.
</event>
<event>
 4    1  0.1571930E+006  0.3807973E+02  0.7546771E-02  0.1360121E+00
         21   -1    0    0  503  501  0.00000000000E+00  0.00000000000E+00  0.15134523345E+02  0.15134523345E+02  0.00000000000E+00 0.  1.
         21   -1    0    0  501  502 -0.00000000000E+00 -0.00000000000E+00 -0.20756540405E+03  0.20756540405E+03  0.00000000000E+00 0.  1.
         21    1    1    2  503  504  0.38019276379E+02 -0.21447985700E+01 -0.14511422496E+02  0.40751035817E+02  0.00000000000E+00 0.  1.
         21    1    1    2  504  502 -0.38019276379E+02  0.21447985700E+01 -0.17791945821E+03  0.18194889158E+03  0.00000000000E+00 0.  1.
</event>
<event>
 4    1  0.1571930E+006  0.2051294E+02  0.7546771E-02  0.1526334E+00
         21   -1    0    0  502  501  0.00000000000E+00  0.00000000000E+00  0.65187883848E+01  0.65187883848E+01  0.00000000000E+00 0. -1.
         21   -1    0    0  503  502 -0.00000000000E+00 -0.00000000000E+00 -0.84203124260E+02  0.84203124260E+02  0.00000000000E+00 0. -1.
         21    1    1    2  503  504  0.85383104079E+01  0.18651489400E+02 -0.60757383377E+02  0.64126752890E+02  0.00000000000E+00 0. -1.
         21    1    1    2  504  501 -0.85383104079E+01 -0.18651489400E+02 -0.16926952498E+02  0.26595159754E+02  0.00000000000E+00 0. -1.
</event>
<event>
 4    1  0.1571930E+006  0.2715288E+02  0.7546771E-02  0.1446078E+00
         21   -1    0    0  503  501  0.00000000000E+00  0.00000000000E+00  0.63751685239E+01  0.63751685239E+01  0.00000000000E+00 0. -1.
         21   -1    0    0  504  502 -0.00000000000E+00 -0.00000000000E+00 -0.22594983532E+03  0.22594983532E+03  0.00000000000E+00 0. -1.
         21    1    1    2  503  502  0.26315327446E+02  0.66919701057E+01 -0.28625798433E+02  0.39455231065E+02  0.00000000000E+00 0. -1.
         21    1    1    2  504  501 -0.26315327446E+02 -0.66919701057E+01 -0.19094886836E+03  0.19286977278E+03  0.00000000000E+00 0. -1.
</event>
<event>
 4    1  0.1571930E+006  0.2135840E+02  0.7546771E-02  0.1514209E+00
         21   -1    0    0  503  501  0.00000000000E+00  0.00000000000E+00  0.40630376830E+02  0.40630376830E+02  0.00000000000E+00 0. -1.
         21   -1    0    0  504  502 -0.00000000000E+00 -0.00000000000E+00 -0.50791206138E+03  0.50791206138E+03  0.00000000000E+00 0.  1.
         21    1    1    2  503  502  0.26435267646E+01  0.21194177929E+02 -0.50486368452E+03  0.50531526927E+03  0.00000000000E+00 0.  1.
         21    1    1    2  504  501 -0.26435267646E+01 -0.21194177929E+02  0.37581999975E+02  0.43227168933E+02  0.00000000000E+00 0. -1.
</event>
<event>
 4    1  0.1571930E+006  0.2728602E+02  0.7546771E-02  0.1444756E+00
         21   -1    0    0  504  501  0.00000000000E+00  0.00000000000E+00  0.21798911725E+02  0.21798911725E+02  0.00000000000E+00 0. -1.
         21   -1    0    0  501  502 -0.00000000000E+00 -0.00000000000E+00 -0.10197423652E+03  0.10197423652E+03  0.00000000000E+00 0. -1.
         21    1    1    2  503  502 -0.26645121345E+02  0.58791401405E+01 -0.90557263175E+02  0.94578775072E+02  0.00000000000E+00 0. -1.
         21    1    1    2  504  503  0.26645121345E+02 -0.58791401405E+01  0.10381938382E+02  0.29194373171E+02  0.00000000000E+00 0. -1.
</event>
<event>
 4    1  0.1571930E+006  0.5927764E+02  0.7546771E-02  0.1262307E+00
         21   -1    0    0  504  501  0.00000000000E+00  0.00000000000E+00  0.49217228534E+03  0.49217228534E+03  0.00000000000E+00 0.  1.
         21   -1    0    0  501  502 -0.00000000000E+00 -0.00000000000E+00 -0.10253402275E+02  0.10253402275E+02  0.00000000000E+00 0. -1.
         21    1    1    2  503  502  0.59094346876E+02  0.46579731331E+01  0.10251869203E+03  0.11842263619E+03  0.00000000000E+00 0. -1.
         21    1    1    2  504  503 -0.59094346876E+02 -0.46579731331E+01  0.37940019103E+03  0.38400305142E+03  0.00000000000E+00 0.  1.
</event>
<event>
 4    1  0.1571930E+006  0.2163463E+02  0.7546771E-02  0.1510394E+00
         21   -1    0    0  503  501  0.00000000000E+00  0.00000000000E+00  0.12574529092E+03  0.12574529092E+03  0.00000000000E+00 0. -1.
         21   -1    0    0  504  502 -0.00000000000E+00 -0.00000000000E+00 -0.37336783531E+01  0.37336783531E+01  0.00000000000E+00 0. -1.
         21    1    1    2  503  502 -0.21560817862E+02 -0.17856163585E+01  0.57426426236E+02  0.61366535856E+02  0.00000000000E+00 0. -1.
         21    1    1    2  504  501  0.21560817862E+02  0.17856163585E+01  0.64585186327E+02  0.68112433414E+02  0.00000000000E+00 0. -1.
</event>
<event>
 4    1  0.1571930E+006  0.2391769E+02  0.7546771E-02  0.1481285E+00
         21   -1    0    0  503  501  0.00000000000E+00  0.00000000000E+00  0.42708362814E+02  0.42708362814E+02  0.00000000000E+00 0. -1.
         21   -1    0    0  504  502 -0.00000000000E+00 -0.00000000000E+00 -0.42451871501E+02  0.42451871501E+02  0.00000000000E+00 0.  1.
         21    1    1    2  503  502 -0.22243476142E+02 -0.87911031570E+01  0.35356153090E+02  0.42686218935E+02  0.00000000000E+00 0. -1.
         21    1    1    2  504  501  0.22243476142E+02  0.87911031570E+01 -0.35099661778E+02  0.42474015380E+02  0.00000000000E+00 0.  1.
</event>
<event>
 4    1  0.1571930E+006  0.2257696E+02  0.7546771E-02  0.1497880E+00
         21   -1    0    0  504  501  0.00000000000E+00  0.00000000000E+00  0.77575081939E+02  0.77575081939E+02  0.00000000000E+00 0. -1.
         21   -1    0    0  503  502 -0.00000000000E+00 -0.00000000000E+00 -0.85846264315E+01  0.85846264315E+01  0.00000000000E+00 0. -1.
         21    1    1    2  503  501  0.17743665459E+02 -0.13959999506E+02  0.13629190986E+02  0.26371842883E+02  0.00000000000E+00 0. -1.
         21    1    1    2  504  502 -0.17743665459E+02  0.13959999506E+02  0.55361264522E+02  0.59787865488E+02  0.00000000000E+00 0. -1.
</event>
<event>
 4    1  0.1571930E+006  0.2218653E+02  0.7546771E-02  0.1502974E+00
         21   -1    0    0  503  501  0.00000000000E+00  0.00000000000E+00  0.29542356968E+02  0.29542356968E+02  0.00000000000E+00 0.  1.
         21   -1    0    0  504  502 -0.00000000000E+00 -0.00000000000E+00 -0.22015604985E+02  0.22015604985E+02  0.00000000000E+00 0. -1.
         21    1    1    2  503  502 -0.66964484839E+01  0.21151821164E+02  0.16475370530E+02  0.27634757010E+02  0.00000000000E+00 0.  1.
         21    1    1    2  504  501  0.66964484839E+01 -0.21151821164E+02 -0.89486185480E+01  0.23923204944E+02  0.00000000000E+00 0. -1.
</event>
<event>
 4    1  0.1571930E+006  0.2248029E+02  0.7546771E-02  0.1499129E+00
         21   -1    0    0  504  501  0.00000000000E+00  0.00000000000E+00  0.15740789133E+02  0.15740789133E+02  0.00000000000E+00 0.  1.
         21   -1    0    0  503  502 -0.00000000000E+00 -0.00000000000E+00 -0.14832275336E+03  0.14832275336E+03  0.00000000000E+00 0.  1.
         21    1    1    2  503  501 -0.12265650110E+02  0.18839246317E+02  0.63219215348E+01  0.23352303234E+02  0.00000000000E+00 0.  1.
         21    1    1    2  504  502  0.12265650110E+02 -0.18839246317E+02 -0.13890388577E+03  0.14071123926E+03  0.00000000000E+00 0.  1.
</event>
<event>
 4    1  0.1571930E+006  0.2102918E+02  0.7546771E-02  0.1518849E+00
         21   -1    0    0  502  501  0.00000000000E+00  0.00000000000E+00  0.18953957039E+01  0.18953957039E+01  0.00000000000E+00 0. -1.
         21   -1    0    0  504  502 -0.00000000000E+00 -0.00000000000E+00 -0.45774468133E+03  0.45774468133E+03  0.00000000000E+00 0.  1.
         21    1    1    2  503  501 -0.19435168500E+02 -0.80312180708E+01 -0.67002661745E+02  0.70225229934E+02  0.00000000000E+00 0. -1.
         21    1    1    2  504  503  0.19435168500E+02  0.80312180708E+01 -0.38884662388E+03  0.38941484710E+03  0.00000000000E+00 0.  1.
</event>
<event>
 4    1  0.1571930E+006  0.3181702E+02  0.7546771E-02  0.1404437E+00
         21   -1    0    0  504  501  0.00000000000E+00  0.00000000000E+00  0.11849185449E+02  0.11849185449E+02  0.00000000000E+00 0. -1.
         21   -1    0    0  503  502 -0.00000000000E+00 -0.00000000000E+00 -0.12020948850E+03  0.12020948850E+03  0.00000000000E+00 0.  1.
         21    1    1    2  503  501 -0.15490228988E+02 -0.27791648020E+02 -0.89694544883E+02  0.95170553616E+02  0.00000000000E+00 0.  1.
         21    1    1    2  504  502  0.15490228988E+02  0.27791648020E+02 -0.18665758170E+02  0.36888120335E+02  0.00000000000E+00 0. -1.
</event>
<event>
 4    1  0.1571930E+006  0.2108245E+02  0.7546771E-02  0.1518091E+00
         21   -1    0    0  502  501  0.00000000000E+00  0.00000000000E+00  0.37220756964E+01  0.37220756964E+01  0.00000000000E+00 0. -1.
         21   -1    0    0  503  502 -0.00000000000E+00 -0.00000000000E+00 -0.23253598526E+03  0.23253598526E+03  0.00000000000E+00 0. -1.
         21    1    1    2  503  504  0.16861729498E+02 -0.12655102218E+02 -0.19679880307E+03  0.19792483024E+03  0.00000000000E+00 0. -1.
         21    1    1    2  504  501 -0.16861729498E+02  0.12655102218E+02 -0.32015106497E+02  0.38333230725E+02  0.00000000000E+00 0. -1.
</event>
<event>
 4    1  0.1571930E+006  0.2589064E+02  0.7546771E-02  0.1459082E+00
         21   -1    0    0  503  501  0.00000000000E+00  0.00000000000E+00  0.91921180206E+01  0.91921180206E+01  0.00000000000E+00 0. -1.
         21   -1    0    0  504  502 -0.00000000000E+00 -0.00000000000E+00 -0.39226257488E+03  0.39226257488E+03  0.00000000000E+00 0. -1.
         21    1    1    2  503  502  0.21619240164E+02  0.14245477127E+02 -0.10424632180E+02  0.27910537794E+02  0.00000000000E+00 0. -1.
         21    1    1    2  504  501 -0.21619240164E+02 -0.14245477127E+02 -0.37264582468E+03  0.37354415511E+03  0.00000000000E+00 0. -1.
</event>
<event>
 4    1  0.1571930E+006  0.2187295E+02  0.7546771E-02  0.1507157E+00
         21   -1    0    0  504  501  0.00000000000E+00  0.00000000000E+00  0.42017314596E+03  0.42017314596E+03  0.00000000000E+00 0.  1.
         21   -1    0    0  501  502 -0.00000000000E+00 -0.00000000000E+00 -0.16266991867E+02  0.16266991867E+02  0.00000000000E+00 0. -1.
         21    1    1    2  503  502 -0.11346063119E+02 -0.18700073848E+02 -0.84910807960E+01  0.23463255599E+02  0.00000000000E+00 0. -1.
         21    1    1    2  504  503  0.11346063119E+02  0.18700073848E+02  0.41239723488E+03  0.41297688222E+03  0.00000000000E+00 0.  1.
</event>
<event>
 4    1  0.1571930E+006  0.2108089E+02  0.7546771E-02  0.1518113E+00
         21   -1    0    0  504  501  0.00000000000E+00  0.00000000000E+00  0.47408592199E+01  0.47408592199E+01  0.00000000000E+00 0.  1.
         21   -1    0    0  503  502 -0.00000000000E+00 -0.00000000000E+00 -0.26038890329E+03  0.26038890329E+03  0.00000000000E+00 0.  1.
         21    1    1    2  503  501 -0.20469711854E+02  0.50393280628E+01 -0.23387621142E+03  0.23482437310E+03  0.00000000000E+00 0.  1.
         21    1    1    2  504  502  0.20469711854E+02 -0.50393280628E+01 -0.21771832651E+02  0.30305389417E+02  0.00000000000E+00 0.  1.
</event>
<event>
 4    1  0.1571930E+006  0.4191073E+02  0.7546771E-02  0.1337639E+00
         21   -1    0    0  502  501  0.00000000000E+00  0.00000000000E+00  0.83574494133E+02  0.83574494133E+02  0.00000000000E+00 0.  1.
         21   -1    0    0  504  502 -0.00000000000E+00 -0.00000000000E+00 -0.36199295155E+02  0.36199295155E+02  0.00000000000E+00 0.  1.
         21    1    1    2  503  501 -0.38897049852E+02 -0.15605414745E+02  0.62471036230E+02  0.75227254530E+02  0.00000000000E+00 0.  1.
         21    1    1    2  504  503  0.38897049852E+02  0.15605414745E+02 -0.15095837252E+02  0.44546534758E+02  0.00000000000E+00 0.  1.
</event>
<event>
 4    1  0.1571930E+006  0.3541151E+02  0.7546771E-02  0.1377693E+00
         21   -1    0    0  504  501  0.00000000000E+00  0.00000000000E+00  0.58355617989E+02  0.58355617989E+02  0.00000000000E+00 0.  1.
         21   -1    0    0  503  502 -0.00000000000E+00 -0.00000000000E+00 -0.10277968522E+03  0.10277968522E+03  0.00000000000E+00 0.  1.
         21    1    1    2  503  501  0.16623659367E+02 -0.31267063725E+02 -0.93864107066E+02  0.10032171211E+03  0.00000000000E+00 0.  1.
         21    1    1    2  504  502 -0.16623659367E+02  0.31267063725E+02  0.49440039831E+02  0.60813591106E+02  0.00000000000E+00 0.  1.
</event>
<event>
 4    1  0.1571930E+006  0.3440793E+02  0.7546771E-02  0.1384774E+00
         21   -1    0    0  503  501  0.00000000000E+00  0.00000000000E+00  0.38230969047E+02  0.38230969047E+02  0.00000000000E+00 0. -1.
         21   -1    0    0  504  502 -0.00000000000E+00 -0.00000000000E+00 -0.31192313683E+02  0.31192313683E+02  0.00000000000E+00 0. -1.
         21    1    1    2  503  502  0.23314828256E+02  0.25304638838E+02  0.64681924638E+01  0.35010619490E+02  0.00000000000E+00 0. -1.
         21    1    1    2  504  501 -0.23314828256E+02 -0.25304638838E+02  0.57046290008E+00  0.34412663240E+02  0.00000000000E+00 0. -1.
</event>
<event>
 4    1  0.1571930E+006  0.2014675E+02  0.7546771E-02  0.1531804E+00
         21   -1    0    0  502  501  0.00000000000E+00  0.00000000000E+00  0.64894966163E+02  0.64894966163E+02  0.00000000000E+00 0.  1.
         21   -1    0    0  503  502 -0.00000000000E+00 -0.00000000000E+00 -0.75550225404E+02  0.75550225404E+02  0.00000000000E+00 0. -1.
         21    1    1    2  503  504  0.20097934541E+02 -0.14016675052E+01 -0.72580670528E+02  0.75324931987E+02  0.00000000000E+00 0. -1.
         21    1    1    2  504  501 -0.20097934541E+02  0.14016675052E+01  0.61925411288E+02  0.65120259580E+02  0.00000000000E+00 0.  1.
</event>
<event>
 4    1  0.1571930E+006  0.2511284E+02  0.7546771E-02  0.1467545E+00
         21   -1    0    0  504  501  0.00000000000E+00  0.00000000000E+00  0.21665644225E+03  0.21665644225E+03  0.00000000000E+00 0. -1.
         21   -1    0    0  503  502 -0.00000000000E+00 -0.00000000000E+00 -0.12818116858E+02  0.12818116858E+02  0.00000000000E+00 0. -1.
         21    1    1    2  503  501 -0.25069122295E+02 -0.14811048789E+01  0.20279086491E+03  0.20433988709E+03  0.00000000000E+00 0. -1.
         21    1    1    2  504  502  0.25069122295E+02  0.14811048789E+01  0.10474604865E+01  0.25134672025E+02  0.00000000000E+00 0. -1.
</event>
<event>
 4    1  0.1571930E+006  0.2310397E+02  0.7546771E-02  0.1491197E+00
         21   -1    0    0  503  501  0.00000000000E+00  0.00000000000E+00  0.34252003117E+02  0.34252003117E+02  0.00000000000E+00 0. -1.
         21   -1    0    0  501  502 -0.00000000000E+00 -0.00000000000E+00 -0.23514707709E+03  0.23514707709E+03  0.00000000000E+00 0.  1.
         21    1    1    2  503  504  0.19234732994E+02 -0.12799156678E+02  0.29711906135E+02  0.37637623878E+02  0.00000000000E+00 0. -1.
         21    1    1    2  504  502 -0.19234732994E+02  0.12799156678E+02 -0.23060698011E+03  0.23176145633E+03  0.00000000000E+00 0.  1.
</event>
<event>
 4    1  0.1571930E+006  0.3650462E+02  0.7546771E-02  0.1370283E+00
         21   -1    0    0  502  501  0.00000000000E+00  0.00000000000E+00  0.16256605373E+02  0.16256605373E+02  0.00000000000E+00 0. -1.
         21   -1    0    0  503  502 -0.00000000000E+00 -0.00000000000E+00 -0.18764059313E+03  0.18764059313E+03  0.00000000000E+00 0. -1.
         21    1    1    2  503  504  0.36285630566E+02  0.39925663195E+01 -0.16219714654E+03  0.16625432902E+03  0.00000000000E+00 0. -1.
         21    1    1    2  504  501 -0.36285630566E+02 -0.39925663195E+01 -0.91868412150E+01  0.37642869483E+02  0.00000000000E+00 0. -1.
</event>
<event>
 4    1  0.1571930E+006  0.2137323E+02  0.7546771E-02  0.1514002E+00
         21   -1    0    0  502  501  0.00000000000E+00  0.00000000000E+00  0.37678444569E+00  0.37678444569E+00  0.00000000000E+00 0.  1.
         21   -1    0    0  503  502 -0.00000000000E+00 -0.00000000000E+00 -0.12158004677E+04  0.12158004677E+04  0.00000000000E+00 0.  1.
         21    1    1    2  503  504 -0.19231544953E+02  0.93253870664E+01 -0.57557403813E+03  0.57597073584E+03  0.00000000000E+00 0.  1.
         21    1    1    2  504  501  0.19231544953E+02 -0.93253870664E+01 -0.63984964515E+03  0.64020651634E+03  0.00000000000E+00 0.  1.
</event>
<event>
 4    1  0.1571930E+006  0.2054166E+02  0.7546771E-02  0.1525910E+00
         21   -1    0    0  504  501  0.00000000000E+00  0.00000000000E+00  0.14083764546E+03  0.14083764546E+03  0.00000000000E+00 0. -1.
         21   -1    0    0  501  502 -0.00000000000E+00 -0.00000000000E+00 -0.34102955764E+03  0.34102955764E+03  0.00000000000E+00 0.  1.
         21    1    1    2  503  502  0.19686609743E+02  0.58648990154E+01 -0.33996887726E+03  0.34058889757E+03  0.00000000000E+00 0.  1.
         21    1    1    2  504  503 -0.19686609743E+02 -0.58648990154E+01  0.13977696508E+03  0.14127830552E+03  0.00000000000E+00 0. -1.
</event>
<event>
 4    1  0.1571930E+006  0.2286798E+02  0.7546771E-02  0.1494163E+00
         21   -1    0    0  504  501  0.00000000000E+00  0.00000000000E+00  0.24316109541E+02  0.24316109541E+02  0.00000000000E+00 0.  1.
         21   -1    0    0  503  502 -0.00000000000E+00 -0.00000000000E+00 -0.29585924945E+02  0.29585924945E+02  0.00000000000E+00 0. -1.
         21    1    1    2  503  501  0.18560361113E+02  0.13358790786E+02  0.11449350893E+02  0.25574048014E+02  0.00000000000E+00 0.  1.
         21    1    1    2  504  502 -0.18560361113E+02 -0.13358790786E+02 -0.16719166297E+02  0.28327986473E+02  0.00000000000E+00 0. -1.
</event>
<event>
 4    1  0.1571930E+006  0.2328641E+02  0.7546771E-02  0.1488933E+00
         21   -1    0    0  502  501  0.00000000000E+00  0.00000000000E+00  0.11110455490E+04  0.11110455490E+04  0.00000000000E+00 0.  1.
         21   -1    0    0  503  502 -0.00000000000E+00 -0.00000000000E+00 -0.48556672066E+02  0.48556672066E+02  0.00000000000E+00 0. -1.
         21    1    1    2  503  504 -0.39875896080E+01 -0.22942453666E+02 -0.45635420720E+02  0.51233277032E+02  0.00000000000E+00 0. -1.
         21    1    1    2  504  501  0.39875896080E+01  0.22942453666E+02  0.11081242977E+04  0.11083689441E+04  0.00000000000E+00 0.  1.
</event>
<event>
 4    1  0.1571930E+006  0.2157284E+02  0.7546771E-02  0.1511241E+00
         21   -1    0    0  503  501  0.00000000000E+00  0.00000000000E+00  0.15604059080E+03  0.15604059080E+03  0.00000000000E+00 0.  1.
         21   -1    0    0  504  502 -0.00000000000E+00 -0.00000000000E+00 -0.31953286753E+01  0.31953286753E+01  0.00000000000E+00 0. -1.
         21    1    1    2  503  502 -0.24816993979E+01  0.21429615064E+02  0.55873504000E+02  0.59893536237E+02  0.00000000000E+00 0. -1.
         21    1    1    2  504  501  0.24816993979E+01 -0.21429615064E+02  0.96971758123E+02  0.99342383237E+02  0.00000000000E+00 0.  1.
</event>
<event>
 4    1  0.1571930E+006  0.2854709E+02  0.7546771E-02  0.1432657E+00
         21   -1    0    0  503  501  0.00000000000E+00  0.00000000000E+00  0.13353229769E+02  0.13353229769E+02  0.00000000000E+00 0. -1.
         21   -1    0    0  501  502 -0.00000000000E+00 -0.00000000000E+00 -0.61607431175E+03  0.61607431175E+03  0.00000000000E+00 0. -1.
         21    1    1    2  503  504  0.17983445562E+02 -0.22170523739E+02 -0.26411936086E+01  0.28669013600E+02  0.00000000000E+00 0. -1.
         21    1    1    2  504  502 -0.17983445562E+02  0.22170523739E+02 -0.60007988838E+03  0.60075852792E+03  0.00000000000E+00 0. -1.
</event>
<event>
 4    1  0.1571930E+006  0.3501012E+02  0.7546771E-02  0.1380492E+00
         21   -1    0    0  503  501  0.00000000000E+00  0.00000000000E+00  0.70500049103E+02  0.70500049103E+02  0.00000000000E+00 0.  1.
         21   -1    0    0  504  502 -0.00000000000E+00 -0.00000000000E+00 -0.60468373992E+02  0.60468373992E+02  0.00000000000E+00 0. -1.
         21    1    1    2  503  502  0.34247170978E+02  0.72690748231E+01 -0.50258389378E+02  0.61250419359E+02  0.00000000000E+00 0. -1.
         21    1    1    2  504  501 -0.34247170978E+02 -0.72690748231E+01  0.60290064489E+02  0.69718003736E+02  0.00000000000E+00 0.  1.
</event>
<event>
 4    1  0.1571930E+006  0.2005598E+02  0.7546771E-02  0.1533182E+00
         21   -1    0    0  504  501  0.00000000000E+00  0.00000000000E+00  0.13468746626E+02  0.13468746626E+02  0.00000000000E+00 0. -1.
         21   -1    0    0  503  502 -0.00000000000E+00 -0.00000000000E+00 -0.41489078417E+02  0.41489078417E+02  0.00000000000E+00 0. -1.
         21    1    1    2  503  501 -0.20016148038E+02  0.12634384447E+01 -0.28555182252E+02  0.34894711525E+02  0.00000000000E+00 0. -1.
         21    1    1    2  504  502  0.20016148038E+02 -0.12634384447E+01  0.53485046099E+00  0.20063113517E+02  0.00000000000E+00 0. -1.
</event>
<event>
 4    1  0.1571930E+006  0.2607194E+02  0.7546771E-02  0.1457160E+00
         21   -1    0    0  502  501  0.00000000000E+00  0.00000000000E+00  0.47335457905E+02  0.47335457905E+02  0.00000000000E+00 0. -1.
         21   -1    0    0  504  502 -0.00000000000E+00 -0.00000000000E+00 -0.54234219457E+02  0.54234219457E+02  0.00000000000E+00 0. -1.
         21    1    1    2  503  501  0.10391511029E+02 -0.23911558878E+02  0.40096035356E+02  0.47827170110E+02  0.00000000000E+00 0. -1.
         21    1    1    2  504  503 -0.10391511029E+02  0.23911558878E+02 -0.46994796907E+02  0.53742507252E+02  0.00000000000E+00 0. -1.
</event>
<event>
 4    1  0.1571930E+006  0.2145971E+02  0.7546771E-02  0.1512802E+00
         21   -1    0    0  504  501  0.00000000000E+00  0.00000000000E+00  0.96281873304E+02  0.96281873304E+02  0.00000000000E+00 0. -1.
         21   -1    0    0  503  502 -0.00000000000E+00 -0.00000000000E+00 -0.13757461393E+02  0.13757461393E+02  0.00000000000E+00 0.  1.
         21    1    1    2  503  501 -0.77457253303E-01 -0.21459566519E+02  0.85699980721E+02  0.88345943259E+02  0.00000000000E+00 0. -1.
         21    1    1    2  504  502  0.77457253303E-01  0.21459566519E+02 -0.31755688101E+01  0.21693391437E+02  0.00000000000E+00 0.  1.
</event>
<event>
 4    1  0.1571930E+006  0.4331022E+02  0.7546771E-02  0.1330108E+00
         21   -1    0    0  504  501  0.00000000000E+00  0.00000000000E+00  0.19780708312E+02  0.19780708312E+02  0.00000000000E+00 0.  1.
         21   -1    0    0  503  502 -0.00000000000E+00 -0.00000000000E+00 -0.27800972461E+03  0.27800972461E+03  0.00000000000E+00 0. -1.
         21    1    1    2  503  501  0.29816710533E+02 -0.31412394242E+02 -0.24997691548E+03  0.25370107019E+03  0.00000000000E+00 0. -1.
         21    1    1    2  504  502 -0.29816710533E+02  0.31412394242E+02 -0.82521008192E+01  0.44089362741E+02  0.00000000000E+00 0.  1.
</event>
<event>
 4    1  0.1571930E+006  0.2048551E+02  0.7546771E-02  0.1526739E+00
         21   -1    0    0  504  501  0.00000000000E+00  0.00000000000E+00  0.22964378801E+02  0.22964378801E+02  0.00000000000E+00 0. -1.
         21   -1    0    0  503  502 -0.00000000000E+00 -0.00000000000E+00 -0.98230210708E+02  0.98230210708E+02  0.00000000000E+00 0. -1.
         21    1    1    2  503  501  0.19602275648E+02  0.59503717262E+01 -0.92303813034E+02  0.94549722553E+02  0.00000000000E+00 0. -1.
         21    1    1    2  504  502 -0.19602275648E+02 -0.59503717262E+01  0.17037981127E+02  0.26644866956E+02  0.00000000000E+00 0. -1.
</event>
<event>
 4    1  0.1571930E+006  0.2176710E+02  0.7546771E-02  0.1508588E+00
         21   -1    0    0  504  501  0.00000000000E+00  0.00000000000E+00  0.19914511099E+02  0.19914511099E+02  0.00000000000E+00 0. -1.
         21   -1    0    0  503  502 -0.00000000000E+00 -0.00000000000E+00 -0.10033854611E+04  0.10033854611E+04  0.00000000000E+00 0.  1.
         21    1    1    2  503  501  0.19708965306E+02  0.92392344822E+01 -0.99728300806E+03  0.99752052858E+03  0.00000000000E+00 0.  1.
         21    1    1    2  504  502 -0.19708965306E+02 -0.92392344822E+01  0.13812058039E+02  0.25779443642E+02  0.00000000000E+00 0. -1.
</event>
<event>
 4    1  0.1571930E+006  0.2199764E+02  0.7546771E-02  0.1505484E+00
         21   -1    0    0  502  501  0.00000000000E+00  0.00000000000E+00  0.18451998198E+02  0.18451998198E+02  0.00000000000E+00 0.  1.
         21   -1    0    0  503  502 -0.00000000000E+00 -0.00000000000E+00 -0.22351396192E+03  0.22351396192E+03  0.00000000000E+00 0.  1.
         21    1    1    2  503  504 -0.14284900970E+02  0.16728353766E+02 -0.21619520472E+03  0.21731144185E+03  0.00000000000E+00 0.  1.
         21    1    1    2  504  501  0.14284900970E+02 -0.16728353766E+02  0.11133241004E+02  0.24654518261E+02  0.00000000000E+00 0.  1.
</event>
<event>
 4    1  0.1571930E+006  0.2034027E+02  0.7546771E-02  0.1528896E+00
         21   -1    0    0  503  501  0.00000000000E+00  0.00000000000E+00  0.26887963036E+02  0.26887963036E+02  0.00000000000E+00 0.  1.
         21   -1    0    0  504  502 -0.00000000000E+00 -0.00000000000E+00 -0.82531482628E+02  0.82531482628E+02  0.00000000000E+00 0.  1.
         21    1    1    2  503  502 -0.16443662087E+02  0.11972160236E+02  0.21525116857E+02  0.29615153204E+02  0.00000000000E+00 0.  1.
         21    1    1    2  504  501  0.16443662087E+02 -0.11972160236E+02 -0.77168636450E+02  0.79804292460E+02  0.00000000000E+00 0.  1.
</event>
<event>
 4    1  0.1571930E+006  0.2302864E+02  0.7546771E-02  0.1492139E+00
         21   -1    0    0  502  501  0.00000000000E+00  0.00000000000E+00  0.32565320841E+02  0.32565320841E+02  0.00000000000E+00 0.  1.
         21   -1    0    0  503  502 -0.00000000000E+00 -0.00000000000E+00 -0.35407252568E+02  0.35407252568E+02  0.00000000000E+00 0.  1.
         21    1    1    2  503  504  0.22719069424E+01  0.22916296358E+02 -0.26397371231E+02  0.35030549637E+02  0.00000000000E+00 0.  1.
         21    1    1    2  504  501 -0.22719069424E+01 -0.22916296358E+02  0.23555439505E+02  0.32942023772E+02  0.00000000000E+00 0.  1.
</event>
<event>
 4    1  0.1571930E+006  0.2184783E+02  0.7546771E-02  0.1507496E+00
         21   -1    0    0  502  501  0.00000000000E+00  0.00000000000E+00  0.16347883198E+01  0.16347883198E+01  0.00000000000E+00 0. -1.
         21   -1    0    0  503  502 -0.00000000000E+00 -0.00000000000E+00 -0.61320697702E+03  0.61320697702E+03  0.00000000000E+00 0.  1.
         21    1    1    2  503  504 -0.20009206899E+02 -0.87726366766E+01 -0.52828864348E+03  0.52874021820E+03  0.00000000000E+00 0.  1.
         21    1    1    2  504  501  0.20009206899E+02  0.87726366766E+01 -0.83283545222E+02  0.86101547139E+02  0.00000000000E+00 0. -1.
</event>
<event>
 4    1  0.1571930E+006  0.2256938E+02  0.7546771E-02  0.1497977E+00
         21   -1    0    0  503  501  0.00000000000E+00  0.00000000000E+00  0.11227134214E+03  0.11227134214E+03  0.00000000000E+00 0. -1.
         21   -1    0    0  504  502 -0.00000000000E+00 -0.00000000000E+00 -0.26260849183E+03  0.26260849183E+03  0.00000000000E+00 0.  1.
         21    1    1    2  503  502 -0.20321413352E+02  0.98192258186E+01 -0.26098226231E+03  0.26195632895E+03  0.00000000000E+00 0.  1.
         21    1    1    2  504  501  0.20321413352E+02 -0.98192258186E+01  0.11064511263E+03  0.11292350502E+03  0.00000000000E+00 0. -1.
</event>
<event>
 4    1  0.1571930E+006  0.2108294E+02  0.7546771E-02  0.1518084E+00
         21   -1    0    0  504  501  0.00000000000E+00  0.00000000000E+00  0.41538945474E+02  0.41538945474E+02  0.00000000000E+00 0. -1.
         21   -1    0    0  503  502 -0.00000000000E+00 -0.00000000000E+00 -0.20193394632E+02  0.20193394632E+02  0.00000000000E+00 0. -1.
         21    1    1    2  503  501 -0.20688351730E+02 -0.40598557655E+01 -0.10490156967E+02  0.23548539643E+02  0.00000000000E+00 0. -1.
         21    1    1    2  504  502  0.20688351730E+02  0.40598557655E+01  0.31835707808E+02  0.38183800463E+02  0.00000000000E+00 0. -1.
</event>
<event>
 4    1  0.1571930E+006  0.3490776E+02  0.7546771E-02  0.1381213E+00
         21   -1    0    0  502  501  0.00000000000E+00  0.00000000000E+00  0.16524902268E+03  0.16524902268E+03  0.00000000000E+00 0.  1.
         21   -1    0    0  503  502 -0.00000000000E+00 -0.00000000000E+00 -0.11877861191E+02  0.11877861191E+02  0.00000000000E+00 0. -1.
         21    1    1    2  503  504  0.10213151391E+02  0.33380278656E+02  0.22150450639E+02  0.41342398673E+02  0.00000000000E+00 0. -1.
         21    1    1    2  504  501 -0.10213151391E+02 -0.33380278656E+02  0.13122071085E+03  0.13578448520E+03  0.00000000000E+00 0.  1.
</event>
<event>
 4    1  0.1571930E+006  0.2067227E+02  0.7546771E-02  0.1523996E+00
         21   -1    0    0  504  501  0.00000000000E+00  0.00000000000E+00  0.31949866565E+03  0.31949866565E+03  0.00000000000E+00 0.  1.
         21   -1    0    0  503  502 -0.00000000000E+00 -0.00000000000E+00 -0.21210824361E+01  0.21210824361E+01  0.00000000000E+00 0.  1.
         21    1    1    2  503  501 -0.20162519600E+02 -0.45623958948E+01  0.25642710616E+03  0.25725902010E+03  0.00000000000E+00 0.  1.
         21    1    1    2  504  502  0.20162519600E+02  0.45623958948E+01  0.60950477060E+02  0.64360727985E+02  0.00000000000E+00 0.  1.
</event>
<event>
 4    1  0.1571930E+006  0.2001598E+02  0.7546771E-02  0.1533791E+00
         21   -1    0    0  503  501  0.00000000000E+00  0.00000000000E+00  0.57727380877E+02  0.57727380877E+02  0.00000000000E+00 0. -1.
         21   -1    0    0  501  502 -0.00000000000E+00 -0.00000000000E+00 -0.19105102509E+02  0.19105102509E+02  0.00000000000E+00 0. -1.
         21    1    1    2  503  504 -0.67510996323E+01 -0.18843089894E+02  0.49965662191E+02  0.53825707438E+02  0.00000000000E+00 0. -1.
         21    1    1    2  504  502  0.67510996323E+01  0.18843089894E+02 -0.11343383823E+02  0.23006775949E+02  0.00000000000E+00 0. -1.
</event>
<event>
 4    1  0.1571930E+006  0.2534328E+02  0.7546771E-02  0.1464999E+00
         21   -1    0    0  502  501  0.00000000000E+00  0.00000000000E+00  0.75703868415E+02  0.75703868415E+02  0.00000000000E+00 0. -1.
         21   -1    0    0  503  502 -0.00000000000E+00 -0.00000000000E+00 -0.51119250317E+02  0.51119250317E+02  0.00000000000E+00 0. -1.
         21    1    1    2  503  504 -0.14821079416E+02 -0.20557665284E+02 -0.45618536423E+02  0.52185561819E+02  0.00000000000E+00 0. -1.
         21    1    1    2  504  501  0.14821079416E+02  0.20557665284E+02  0.70203154522E+02  0.74637556913E+02  0.00000000000E+00 0. -1.
</event>
<event>
 4    1  0.1571930E+006  0.2006225E+02  0.7546771E-02  0.1533086E+00
         21   -1    0    0  502  501  0.00000000000E+00  0.00000000000E+00  0.53423502039E+02  0.53423502039E+02  0.00000000000E+00 0.  1.
         21   -1    0    0  503  502 -0.00000000000E+00 -0.00000000000E+00 -0.29724875040E+02  0.29724875040E+02  0.00000000000E+00 0.  1.
         21    1    1    2  503  504 -0.48698384313E+01 -0.19462237281E+02 -0.24071877743E+02  0.31336070340E+02  0.00000000000E+00 0.  1.
         21    1    1    2  504  501  0.48698384313E+01  0.19462237281E+02  0.47770504742E+02  0.51812306739E+02  0.00000000000E+00 0.  1.
</event>
<event>
 4    1  0.1571930E+006  0.2761431E+02  0.7546771E-02  0.1441533E+00
         21   -1    0    0  502  501  0.00000000000E+00  0.00000000000E+00  0.90120214338E+02  0.90120214338E+02  0.00000000000E+00 0.  1.
         21   -1    0    0  504  502 -0.00000000000E+00 -0.00000000000E+00 -0.25173614365E+03  0.25173614365E+03  0.00000000000E+00 0. -1.
         21    1    1    2  503  501 -0.24658513097E+02  0.12430121418E+02  0.87223000048E+02  0.91489900667E+02  0.00000000000E+00 0.  1.
         21    1    1    2  504  503  0.24658513097E+02 -0.12430121418E+02 -0.24883892936E+03  0.25036645733E+03  0.00000000000E+00 0. -1.
</event>
<event>
 4    1  0.1571930E+006  0.2600020E+02  0.7546771E-02  0.1457918E+00
         21   -1    0    0  503  501  0.00000000000E+00  0.00000000000E+00  0.30800147456E+01  0.30800147456E+01  0.00000000000E+00 0.  1.
         21   -1    0    0  504  502 -0.00000000000E+00 -0.00000000000E+00 -0.37928804239E+03  0.37928804239E+03  0.00000000000E+00 0.  1.
         21    1    1    2  503  502  0.19626856944E+02 -0.17052761110E+02 -0.31220138506E+03  0.31328216516E+03  0.00000000000E+00 0.  1.
         21    1    1    2  504  501 -0.19626856944E+02  0.17052761110E+02 -0.64006642590E+02  0.69085891979E+02  0.00000000000E+00 0.  1.
</event>
<event>
 4    1  0.1571930E+006  0.2112485E+02  0.7546771E-02  0.1517490E+00
         21   -1    0    0  503  501  0.00000000000E+00  0.00000000000E+00  0.11586417114E+01  0.11586417114E+01  0.00000000000E+00 0. -1.
         21   -1    0    0  504  502 -0.00000000000E+00 -0.00000000000E+00 -0.57160764478E+03  0.57160764478E+03  0.00000000000E+00 0.  1.
         21    1    1    2  503  502 -0.17566031454E+01 -0.21051684778E+02 -0.12166331200E+03  0.12348368545E+03  0.00000000000E+00 0. -1.
         21    1    1    2  504  501  0.17566031454E+01  0.21051684778E+02 -0.44878569107E+03  0.44928260104E+03  0.00000000000E+00 0.  1.
</event>
<event>
 4    1  0.1571930E+006  0.2110823E+02  0.7546771E-02  0.1517725E+00
         21   -1    0    0  504  501  0.00000000000E+00  0.00000000000E+00  0.21388988299E+03  0.21388988299E+03  0.00000000000E+00 0.  1.
         21   -1    0    0  503  502 -0.00000000000E+00 -0.00000000000E+00 -0.27775522548E+02  0.27775522548E+02  0.00000000000E+00 0.  1.
         21    1    1    2  503  501  0.53493011109E+01  0.20419168869E+02  0.20927046101E+03  0.21033231642E+03  0.00000000000E+00 0.  1.
         21    1    1    2  504  502 -0.53493011109E+01 -0.20419168869E+02 -0.23156100572E+02  0.31333089113E+02  0.00000000000E+00 0.  1.
</event>
<event>
 4    1  0.1571930E+006  0.2587260E+02  0.7546771E-02  0.1459274E+00
         21   -1    0    0  504  501  0.00000000000E+00  0.00000000000E+00  0.20348141377E+02  0.20348141377E+02  0.00000000000E+00 0. -1.
         21   -1    0    0  501  502 -0.00000000000E+00 -0.00000000000E+00 -0.34103224249E+02  0.34103224249E+02  0.00000000000E+00 0. -1.
         21    1    1    2  503  502  0.45283172424E+01  0.25473237783E+02 -0.11997973964E+02  0.28519166878E+02  0.00000000000E+00 0. -1.
         21    1    1    2  504  503 -0.45283172424E+01 -0.25473237783E+02 -0.17571089076E+01  0.25932198748E+02  0.00000000000E+00 0. -1.
</event>
<event>
 4    1  0.1571930E+006  0.2594158E+02  0.7546771E-02  0.1458540E+00
         21   -1    0    0  504  501  0.00000000000E+00  0.00000000000E+00  0.19336973235E+03  0.19336973235E+03  0.00000000000E+00 0. -1.
         21   -1    0    0  503  502 -0.00000000000E+00 -0.00000000000E+00 -0.36441988021E+01  0.36441988021E+01  0.00000000000E+00 0. -1.
         21    1    1    2  503  501  0.11442949535E+02 -0.23281414920E+02  0.11575986712E+03  0.11863099178E+03  0.00000000000E+00 0. -1.
         21    1    1    2  504  502 -0.11442949535E+02  0.23281414920E+02  0.73965666427E+02  0.78382939373E+02  0.00000000000E+00 0. -1.
</event>
<event>
 4    1  0.1571930E+006  0.2971757E+02  0.7546771E-02  0.1422067E+00
         21   -1    0    0  504  501  0.00000000000E+00  0.00000000000E+00  0.27416429470E+03  0.27416429470E+03  0.00000000000E+00 0.  1.
         21   -1    0    0  503  502 -0.00000000000E+00 -0.00000000000E+00 -0.99215509343E+01  0.99215509343E+01  0.00000000000E+00 0. -1.
         21    1    1    2  503  501  0.42842732654E+01 -0.29407120351E+02  0.24885046202E+03  0.25061860700E+03  0.00000000000E+00 0.  1.
         21    1    1    2  504  502 -0.42842732654E+01  0.29407120351E+02  0.15392281746E+02  0.33467238639E+02  0.00000000000E+00 0. -1.
</event>
<event>
 4    1  0.1571930E+006  0.2596450E+02  0.7546771E-02  0.1458297E+00
         21   -1    0    0  503  501  0.00000000000E+00  0.00000000000E+00  0.24856845745E+02  0.24856845745E+02  0.00000000000E+00 0. -1.
         21   -1    0    0  504  502 -0.00000000000E+00 -0.00000000000E+00 -0.25247994722E+03  0.25247994722E+03  0.00000000000E+00 0.  1.
         21    1    1    2  503  502 -0.24582337532E+01 -0.25847872753E+02  0.17197394370E+02  0.31143310873E+02  0.00000000000E+00 0. -1.
         21    1    1    2  504  501  0.24582337532E+01  0.25847872753E+02 -0.24482049585E+03  0.24619348210E+03  0.00000000000E+00 0.  1.
</event>
<event>
 4    1  0.1571930E+006  0.3317974E+02  0.7546771E-02  0.1393832E+00
         21   -1    0    0  504  501  0.00000000000E+00  0.00000000000E+00  0.25061175518E+03  0.25061175518E+03  0.00000000000E+00 0. -1.
         21   -1    0    0  503  502 -0.00000000000E+00 -0.00000000000E+00 -0.50113262128E+01  0.50113262128E+01  0.00000000000E+00 0. -1.
         21    1    1    2  503  501  0.29247885526E+02 -0.15667042504E+02  0.77898596956E+02  0.84670457872E+02  0.00000000000E+00 0. -1.
         21    1    1    2  504  502 -0.29247885526E+02  0.15667042504E+02  0.16770183201E+03  0.17095262352E+03  0.00000000000E+00 0. -1.
</event>
<event>
 4    1  0.1571930E+006  0.3343389E+02  0.7546771E-02  0.1391921E+00
         21   -1    0    0  504  501  0.00000000000E+00  0.00000000000E+00  0.47898797540E+03  0.47898797540E+03  0.00000000000E+00 0.  1.
         21   -1    0    0  503  502 -0.00000000000E+00 -0.00000000000E+00 -0.58620734780E+01  0.58620734780E+01  0.00000000000E+00 0. -1.
         21    1    1    2  503  501  0.30046907555E+02  0.14663163680E+02  0.48485076524E+02  0.58895056399E+02  0.00000000000E+00 0. -1.
         21    1    1    2  504  502 -0.30046907555E+02 -0.14663163680E+02  0.42464082540E+03  0.42595499248E+03  0.00000000000E+00 0.  1.
</event>
<event>
 4    1  0.1571930E+006  0.3856307E+02  0.7546771E-02  0.1357118E+00
         21   -1    0    0  504  501  0.00000000000E+00  0.00000000000E+00  0.26089199377E+02  0.26089199377E+02  0.00000000000E+00 0. -1.
         21   -1    0    0  503  502 -0.00000000000E+00 -0.00000000000E+00 -0.87037931544E+02  0.87037931544E+02  0.00000000000E+00 0. -1.
         21    1    1    2  503  501  0.37492850851E+02 -0.90219805243E+01  0.27541085506E+01  0.38661286986E+02  0.00000000000E+00 0. -1.
         21    1    1    2  504  502 -0.37492850851E+02  0.90219805243E+01 -0.63702840717E+02  0.74465843935E+02  0.00000000000E+00 0. -1.
</event>
<event>
 4    1  0.1571930E+006  0.2124419E+02  0.7546771E-02  0.1515807E+00
         21   -1    0    0  504  501  0.00000000000E+00  0.00000000000E+00  0.68025892910E+02  0.68025892910E+02  0.00000000000E+00 0. -1.
         21   -1    0    0  503  502 -0.00000000000E+00 -0.00000000000E+00 -0.13371120306E+02  0.13371120306E+02  0.00000000000E+00 0.  1.
         21    1    1    2  503  501  0.99904677539E+01  0.18748494786E+02 -0.15605616230E+01  0.21301428479E+02  0.00000000000E+00 0.  1.
         21    1    1    2  504  502 -0.99904677539E+01 -0.18748494786E+02  0.56215334227E+02  0.60095584738E+02  0.00000000000E+00 0. -1.
</event>
<event>
 4    1  0.1571930E+006  0.3756460E+02  0.7546771E-02  0.1363380E+00
         21   -1    0    0  504  501  0.00000000000E+00  0.00000000000E+00  0.74194422791E+02  0.74194422791E+02  0.00000000000E+00 0. -1.
         21   -1    0    0  503  502 -0.00000000000E+00 -0.00000000000E+00 -0.93032312547E+02  0.93032312547E+02  0.00000000000E+00 0. -1.
         21    1    1    2  503  501 -0.37515623887E+02 -0.19176067503E+01 -0.83997489748E+02  0.92014550671E+02  0.00000000000E+00 0. -1.
         21    1    1    2  504  502  0.37515623887E+02  0.19176067503E+01  0.65159599992E+02  0.75212184667E+02  0.00000000000E+00 0. -1.
</event>
<event>
 4    1  0.1571930E+006  0.2176015E+02  0.7546771E-02  0.1508683E+00
         21   -1    0    0  503  501  0.00000000000E+00  0.00000000000E+00  0.35455001798E+03  0.35455001798E+03  0.00000000000E+00 0. -1.
         21   -1    0    0  504  502 -0.00000000000E+00 -0.00000000000E+00 -0.27652256728E+01  0.27652256728E+01  0.00000000000E+00 0. -1.
         21    1    1    2  503  502 -0.20185539200E+02 -0.81270075303E+01  0.30435640242E+03  0.30513328880E+03  0.00000000000E+00 0. -1.
         21    1    1    2  504  501  0.20185539200E+02  0.81270075303E+01  0.47428389886E+02  0.52181954845E+02  0.00000000000E+00 0. -1.
</event>
<event>
 4    1  0.1571930E+006  0.2210036E+02  0.7546771E-02  0.1504115E+00
         21   -1    0    0  504  501  0.00000000000E+00  0.00000000000E+00  0.14798074412E+02  0.14798074412E+02  0.00000000000E+00 0.  1.
         21   -1    0    0  503  502 -0.00000000000E+00 -0.00000000000E+00 -0.40339648536E+03  0.40339648536E+03  0.00000000000E+00 0. -1.
         21    1    1    2  503  501 -0.20565090992E+02 -0.80933862501E+01 -0.39465975511E+03  0.39527806437E+03  0.00000000000E+00 0. -1.
         21    1    1    2  504  502  0.20565090992E+02  0.80933862501E+01  0.60613441613E+01  0.22916495403E+02  0.00000000000E+00 0.  1.
</event>
<event>
 4    1  0.1571930E+006  0.2284004E+02  0.7546771E-02  0.1494517E+00
         21   -1    0    0  502  501  0.00000000000E+00  0.00000000000E+00  0.39407317106E+02  0.39407317106E+02  0.00000000000E+00 0.  1.
         21   -1    0    0  503  502 -0.00000000000E+00 -0.00000000000E+00 -0.11737577980E+03  0.11737577980E+03  0.00000000000E+00 0.  1.
         21    1    1    2  503  504 -0.13499465051E+02  0.18423679589E+02 -0.11282300938E+03  0.11511168043E+03  0.00000000000E+00 0.  1.
         21    1    1    2  504  501  0.13499465051E+02 -0.18423679589E+02  0.34854546686E+02  0.41671416474E+02  0.00000000000E+00 0.  1.
</event>
<event>
 4    1  0.1571930E+006  0.2582703E+02  0.7546771E-02  0.1459760E+00
         21   -1    0    0  503  501  0.00000000000E+00  0.00000000000E+00  0.26271458111E+02  0.26271458111E+02  0.00000000000E+00 0.  1.
         21   -1    0    0  504  502 -0.00000000000E+00 -0.00000000000E+00 -0.25391724066E+02  0.25391724066E+02  0.00000000000E+00 0.  1.
         21    1    1    2  503  502  0.23577325914E+02  0.10542530992E+02  0.23402614578E+00  0.25828085977E+02  0.00000000000E+00 0.  1.
         21    1    1    2  504  501 -0.23577325914E+02 -0.10542530992E+02  0.64570789935E+00  0.25835096200E+02  0.00000000000E+00 0.  1.
</event>
<event>
 4    1  0.1571930E+006  0.2058133E+02  0.7546771E-02  0.1525327E+00
         21   -1    0    0  503  501  0.00000000000E+00  0.00000000000E+00  0.10399057788E+03  0.10399057788E+03  0.00000000000E+00 0. -1.
         21   -1    0    0  504  502 -0.00000000000E+00 -0.00000000000E+00 -0.24232120893E+03  0.24232120893E+03  0.00000000000E+00 0. -1.
         21    1    1    2  503  502  0.15792155054E+02 -0.13198439900E+02 -0.24085968721E+03  0.24173741932E+03  0.00000000000E+00 0. -1.
         21    1    1    2  504  501 -0.15792155054E+02  0.13198439900E+02  0.10252905616E+03  0.10457436748E+03  0.00000000000E+00 0. -1.
</event>
<event>
 4    1  0.1571930E+006  0.3104964E+02  0.7546771E-02  0.1410689E+00
         21   -1    0    0  504  501  0.00000000000E+00  0.00000000000E+00  0.25646666959E+02  0.25646666959E+02  0.00000000000E+00 0.  1.
         21   -1    0    0  501  502 -0.00000000000E+00 -0.00000000000E+00 -0.54394899927E+02  0.54394899927E+02  0.00000000000E+00 0. -1.
         21    1    1    2  503  502 -0.25746895770E+02 -0.17354459067E+02 -0.36618149795E+02  0.48010090457E+02  0.00000000000E+00 0. -1.
         21    1    1    2  504  503  0.25746895770E+02  0.17354459067E+02  0.78699168270E+01  0.32031476428E+02  0.00000000000E+00 0.  1.
</event>
<event>
 4    1  0.1571930E+006  0.3083152E+02  0.7546771E-02  0.1412505E+00
         21   -1    0    0  502  501  0.00000000000E+00  0.00000000000E+00  0.25750276521E+02  0.25750276521E+02  0.00000000000E+00 0.  1.
         21   -1    0    0  504  502 -0.00000000000E+00 -0.00000000000E+00 -0.94740667837E+02  0.94740667837E+02  0.00000000000E+00 0.  1.
         21    1    1    2  503  501 -0.24898266062E+02 -0.18184025622E+02  0.12571631034E+02  0.33296071053E+02  0.00000000000E+00 0.  1.
         21    1    1    2  504  503  0.24898266062E+02  0.18184025622E+02 -0.81562022350E+02  0.87194873304E+02  0.00000000000E+00 0.  1.
</event>
<event>
 4    1  0.1571930E+006  0.2103179E+02  0.7546771E-02  0.1518811E+00
         21   -1    0    0  502  501  0.00000000000E+00  0.00000000000E+00  0.20241795481E+03  0.20241795481E+03  0.00000000000E+00 0.  1.
         21   -1    0    0  504  502 -0.00000000000E+00 -0.00000000000E+00 -0.35288867085E+01  0.35288867085E+01  0.00000000000E+00 0.  1.
         21    1    1    2  503  501 -0.11147663854E+02 -0.17834397394E+02  0.16298426519E+03  0.16433565297E+03  0.00000000000E+00 0.  1.
         21    1    1    2  504  503  0.11147663854E+02  0.17834397394E+02  0.35904802918E+02  0.41611188548E+02  0.00000000000E+00 0.  1.
</event>
<event>
 4    1  0.1571930E+006  0.2673982E+02  0.7546771E-02  0.1450239E+00
         21   -1    0    0  504  501  0.00000000000E+00  0.00000000000E+00  0.36252769864E+03  0.36252769864E+03  0.00000000000E+00 0.  1.
         21   -1    0    0  501  502 -0.00000000000E+00 -0.00000000000E+00 -0.33654955569E+01  0.33654955569E+01  0.00000000000E+00 0. -1.
         21    1    1    2  503  502 -0.26327414779E+02 -0.46781391036E+01  0.61873642489E+02  0.67404490869E+02  0.00000000000E+00 0. -1.
         21    1    1    2  504  503  0.26327414779E+02  0.46781391036E+01  0.29728856059E+03  0.29848870333E+03  0.00000000000E+00 0.  1.
</event>
<event>
 4    1  0.1571930E+006  0.2498171E+02  0.7546771E-02  0.1469008E+00
         21   -1    0    0  504  501  0.00000000000E+00  0.00000000000E+00  0.32651197917E+01  0.32651197917E+01  0.00000000000E+00 0.  1.
         21   -1    0    0  501  502 -0.00000000000E+00 -0.00000000000E+00 -0.19378257911E+03  0.19378257911E+03  0.00000000000E+00 0.  1.
         21    1    1    2  503  502  0.57796871601E+01 -0.24303928186E+02 -0.83747237297E+02  0.87393852552E+02  0.00000000000E+00 0.  1.
         21    1    1    2  504  503 -0.57796871601E+01  0.24303928186E+02 -0.10677022202E+03  0.10965384635E+03  0.00000000000E+00 0.  1.
</event>
<event>
 4    1  0.1571930E+006  0.2004521E+02  0.7546771E-02  0.1533346E+00
         21   -1    0    0  503  501  0.00000000000E+00  0.00000000000E+00  0.56512034112E+02  0.56512034112E+02  0.00000000000E+00 0.  1.
         21   -1    0    0  504  502 -0.00000000000E+00 -0.00000000000E+00 -0.83212517066E+01  0.83212517066E+01  0.00000000000E+00 0.  1.
         21    1    1    2  503  502 -0.14286254741E+02 -0.14061057073E+02  0.36462258390E+02  0.41608973641E+02  0.00000000000E+00 0.  1.
         21    1    1    2  504  501  0.14286254741E+02  0.14061057073E+02  0.11728524016E+02  0.23224312178E+02  0.00000000000E+00 0.  1.
</event>
<event>
 4    1  0.1571930E+006  0.6041746E+02  0.7546771E-02  0.1258421E+00
         21   -1    0    0  504  501  0.00000000000E+00  0.00000000000E+00  0.22676213069E+03  0.22676213069E+03  0.00000000000E+00 0. -1.
         21   -1    0    0  503  502 -0.00000000000E+00 -0.00000000000E+00 -0.18268078777E+02  0.18268078777E+02  0.00000000000E+00 0. -1.
         21    1    1    2  503  501 -0.42995590403E+02 -0.42445837515E+02  0.62014627658E+02  0.86579928159E+02  0.00000000000E+00 0. -1.
         21    1    1    2  504  502  0.42995590403E+02  0.42445837515E+02  0.14647942426E+03  0.15845028131E+03  0.00000000000E+00 0. -1.
</event>
<event>
 4    1  0.1571930E+006  0.2052074E+02  0.7546771E-02  0.1526219E+00
         21   -1    0    0  502  501  0.00000000000E+00  0.00000000000E+00  0.32771775695E+02  0.32771775695E+02  0.00000000000E+00 0.  1.
         21   -1    0    0  503  502 -0.00000000000E+00 -0.00000000000E+00 -0.13258134185E+02  0.13258134185E+02  0.00000000000E+00 0. -1.
         21    1    1    2  503  504  0.87210253344E+00 -0.20502201880E+02  0.57162968298E+01  0.21302039673E+02  0.00000000000E+00 0. -1.
         21    1    1    2  504  501 -0.87210253344E+00  0.20502201880E+02  0.13797344680E+02  0.24727870207E+02  0.00000000000E+00 0.  1.
</event>
<event>
 4    1  0.1571930E+006  0.2628256E+02  0.7546771E-02  0.1454951E+00
         21   -1    0    0  503  501  0.00000000000E+00  0.00000000000E+00  0.48598855525E+01  0.48598855525E+01  0.00000000000E+00 0.  1.
         21   -1    0    0  504  502 -0.00000000000E+00 -0.00000000000E+00 -0.28369547954E+03  0.28369547954E+03  0.00000000000E+00 0.  1.
         21    1    1    2  503  502 -0.30184113266E+01 -0.26108662934E+02 -0.24133318895E+03  0.24276013095E+03  0.00000000000E+00 0.  1.
         21    1    1    2  504  501  0.30184113266E+01  0.26108662934E+02 -0.37502405039E+02  0.45795234150E+02  0.00000000000E+00 0.  1.
</event>
<event>
 4    1  0.1571930E+006  0.2348847E+02  0.7546771E-02  0.1486454E+00
         21   -1    0    0  503  501  0.00000000000E+00  0.00000000000E+00  0.43567380596E+02  0.43567380596E+02  0.00000000000E+00 0. -1.
         21   -1    0    0  504  502 -0.00000000000E+00 -0.00000000000E+00 -0.16006107383E+03  0.16006107383E+03  0.00000000000E+00 0.  1.
         21    1    1    2  503  502 -0.84110127611E+01  0.21930873910E+02  0.39456854539E+02  0.45918969242E+02  0.00000000000E+00 0. -1.
         21    1    1    2  504  501  0.84110127611E+01 -0.21930873910E+02 -0.15595054777E+03  0.15770948518E+03  0.00000000000E+00 0.  1.
</event>
<event>
 4    1  0.1571930E+006  0.4472924E+02  0.7546771E-02  0.1322799E+00
         21   -1    0    0  503  501  0.00000000000E+00  0.00000000000E+00  0.80195096246E+03  0.80195096246E+03  0.00000000000E+00 0.  1.
         21   -1    0    0  504  502 -0.00000000000E+00 -0.00000000000E+00 -0.12561188025E+02  0.12561188025E+02  0.00000000000E+00 0.  1.
         21    1    1    2  503  502  0.67171356254E+01  0.44221994084E+02  0.30118013499E+02  0.53924015141E+02  0.00000000000E+00 0.  1.
         21    1    1    2  504  501 -0.67171356254E+01 -0.44221994084E+02  0.75927176093E+03  0.76058813534E+03  0.00000000000E+00 0.  1.
</event>
<event>
 4    1  0.1571930E+006  0.2138860E+02  0.7546771E-02  0.1513788E+00
         21   -1    0    0  503  501  0.00000000000E+00  0.00000000000E+00  0.16835677967E+03  0.16835677967E+03  0.00000000000E+00 0.  1.
         21   -1    0    0  504  502 -0.00000000000E+00 -0.00000000000E+00 -0.15202363238E+02  0.15202363238E+02  0.00000000000E+00 0.  1.
         21    1    1    2  503  502 -0.12181566918E+02 -0.17580720730E+02 -0.65965286869E+01  0.22382727820E+02  0.00000000000E+00 0.  1.
         21    1    1    2  504  501  0.12181566918E+02  0.17580720730E+02  0.15975094512E+03  0.16117641509E+03  0.00000000000E+00 0.  1.
</event>
<event>
 4    1  0.1571930E+006  0.2494407E+02  0.7546771E-02  0.1469430E+00
         21   -1    0    0  502  501  0.00000000000E+00  0.00000000000E+00  0.17915873263E+02  0.17915873263E+02  0.00000000000E+00 0. -1.
         21   -1    0    0  504  502 -0.00000000000E+00 -0.00000000000E+00 -0.43681413825E+02  0.43681413825E+02  0.00000000000E+00 0. -1.
         21    1    1    2  503  501  0.20056404374E+02  0.14830617175E+02  0.10598669281E+01  0.24966575258E+02  0.00000000000E+00 0. -1.
         21    1    1    2  504  503 -0.20056404374E+02 -0.14830617175E+02 -0.26825407490E+02  0.36630711830E+02  0.00000000000E+00 0. -1.
</event>
<event>
 4    1  0.1571930E+006  0.2313354E+02  0.7546771E-02  0.1490828E+00
         21   -1    0    0  504  501  0.00000000000E+00  0.00000000000E+00  0.54536931428E+03  0.54536931428E+03  0.00000000000E+00 0. -1.
         21   -1    0    0  503  502 -0.00000000000E+00 -0.00000000000E+00 -0.92679625812E+01  0.92679625812E+01  0.00000000000E+00 0.  1.
         21    1    1    2  503  501  0.22049639146E+02 -0.69981542293E+01  0.58237767926E+01  0.23855337457E+02  0.00000000000E+00 0.  1.
         21    1    1    2  504  502 -0.22049639146E+02  0.69981542293E+01  0.53027757490E+03  0.53078193940E+03  0.00000000000E+00 0. -1.
</event>
<event>
 4    1  0.1571930E+006  0.2278050E+02  0.7546771E-02  0.1495273E+00
         21   -1    0    0  503  501  0.00000000000E+00  0.00000000000E+00  0.25084339851E+01  0.25084339851E+01  0.00000000000E+00 0. -1.
         21   -1    0    0  504  502 -0.00000000000E+00 -0.00000000000E+00 -0.37936358925E+03  0.37936358925E+03  0.00000000000E+00 0. -1.
         21    1    1    2  503  502  0.14878358281E+02 -0.17250667982E+02 -0.59682460030E+02  0.63882291179E+02  0.00000000000E+00 0. -1.
         21    1    1    2  504  501 -0.14878358281E+02  0.17250667982E+02 -0.31717269523E+03  0.31798973205E+03  0.00000000000E+00 0. -1.
</event>
<event>
 4    1  0.1571930E+006  0.2111923E+02  0.7546771E-02  0.1517569E+00
         21   -1    0    0  503  501  0.00000000000E+00  0.00000000000E+00  0.16207126164E+03  0.16207126164E+03  0.00000000000E+00 0.  1.
         21   -1    0    0  504  502 -0.00000000000E+00 -0.00000000000E+00 -0.98500708092E+02  0.98500708092E+02  0.00000000000E+00 0.  1.
         21    1    1    2  503  502 -0.19278032526E+02 -0.86243363426E+01  0.16023833931E+03  0.16162409195E+03  0.00000000000E+00 0.  1.
         21    1    1    2  504  501  0.19278032526E+02  0.86243363426E+01 -0.96667785754E+02  0.98947877784E+02  0.00000000000E+00 0.  1.
</event>
<event>
 4    1  0.1571930E+006  0.5029532E+02  0.7546771E-02  0.1296897E+00
         21   -1    0    0  503  501  0.00000000000E+00  0.00000000000E+00  0.21168535928E+03  0.21168535928E+03  0.00000000000E+00 0.  1.
         21   -1    0    0  504  502 -0.00000000000E+00 -0.00000000000E+00 -0.38197637163E+02  0.38197637163E+02  0.00000000000E+00 0. -1.
         21    1    1    2  503  502  0.47840413606E+02  0.15521395246E+02  0.19031396063E+03  0.19684771397E+03  0.00000000000E+00 0.  1.
         21    1    1    2  504  501 -0.47840413606E+02 -0.15521395246E+02 -0.16826238514E+02  0.53035282473E+02  0.00000000000E+00 0. -1.
</event>
<event>
 4    1  0.1571930E+006  0.2882628E+02  0.7546771E-02  0.1430078E+00
         21   -1    0    0  503  501  0.00000000000E+00  0.00000000000E+00  0.12079630556E+02  0.12079630556E+02  0.00000000000E+00 0. -1.
         21   -1    0    0  504  502 -0.00000000000E+00 -0.00000000000E+00 -0.44639658806E+03  0.44639658806E+03  0.00000000000E+00 0. -1.
         21    1    1    2  503  502 -0.55487395238E+01 -0.28287199977E+02 -0.42799524041E+03  0.42896489368E+03  0.00000000000E+00 0. -1.
         21    1    1    2  504  501  0.55487395238E+01  0.28287199977E+02 -0.63217170955E+01  0.29511324942E+02  0.00000000000E+00 0. -1.
</event>
<event>
 4    1  0.1571930E+006  0.3814002E+02  0.7546771E-02  0.1359744E+00
         21   -1    0    0  504  501  0.00000000000E+00  0.00000000000E+00  0.37638311117E+03  0.37638311117E+03  0.00000000000E+00 0.  1.
         21   -1    0    0  503  502 -0.00000000000E+00 -0.00000000000E+00 -0.67459806175E+01  0.67459806175E+01  0.00000000000E+00 0. -1.
         21    1    1    2  503  501  0.30914276387E+02  0.22337602250E+02  0.59627098937E+02  0.70781720003E+02  0.00000000000E+00 0. -1.
         21    1    1    2  504  502 -0.30914276387E+02 -0.22337602250E+02  0.31001003162E+03  0.31234737179E+03  0.00000000000E+00 0.  1.
</event>
<event>
 4    1  0.1571930E+006  0.2813032E+02  0.7546771E-02  0.1436573E+00
         21   -1    0    0  504  501  0.00000000000E+00  0.00000000000E+00  0.80682022041E+01  0.80682022041E+01  0.00000000000E+00 0.  1.
         21   -1    0    0  503  502 -0.00000000000E+00 -0.00000000000E+00 -0.11858034145E+03  0.11858034145E+03  0.00000000000E+00 0. -1.
         21    1    1    2  503  501  0.20461664953E+02  0.19303759706E+02 -0.81586824426E+02  0.86300201572E+02  0.00000000000E+00 0. -1.
         21    1    1    2  504  502 -0.20461664953E+02 -0.19303759706E+02 -0.28925314824E+02  0.40348342086E+02  0.00000000000E+00 0.  1.
</event>
<event>
 4    1  0.1571930E+006  0.2344414E+02  0.7546771E-02  0.1486995E+00
         21   -1    0    0  504  501  0.00000000000E+00  0.00000000000E+00  0.20499500748E+02  0.20499500748E+02  0.00000000000E+00 0.  1.
         21   -1    0    0  501  502 -0.00000000000E+00 -0.00000000000E+00 -0.10406661159E+03  0.10406661159E+03  0.00000000000E+00 0.  1.
         21    1    1    2  503  502  0.19268308619E+02 -0.13355153401E+02 -0.95446817519E+02  0.98283888882E+02  0.00000000000E+00 0.  1.
         21    1    1    2  504  503 -0.19268308619E+02  0.13355153401E+02  0.11879706673E+02  0.26282223460E+02  0.00000000000E+00 0.  1.
</event>
<event>
 4    1  0.1571930E+006  0.2894066E+02  0.7546771E-02  0.1429031E+00
         21   -1    0    0  504  501  0.00000000000E+00  0.00000000000E+00  0.45517733814E+02  0.45517733814E+02  0.00000000000E+00 0.  1.
         21   -1    0    0  503  502 -0.00000000000E+00 -0.00000000000E+00 -0.10855080455E+03  0.10855080455E+03  0.00000000000E+00 0.  1.
         21    1    1    2  503  501 -0.50085371899E+01  0.28503967214E+02 -0.10171867995E+03  0.10575562133E+03  0.00000000000E+00 0.  1.
         21    1    1    2  504  502  0.50085371899E+01 -0.28503967214E+02  0.38685609218E+02  0.48312917033E+02  0.00000000000E+00 0.  1.
</event>
<event>
 4    1  0.1571930E+006  0.4234960E+02  0.7546771E-02  0.1335241E+00
         21   -1    0    0  503  501  0.00000000000E+00  0.00000000000E+00  0.69238109147E+03  0.69238109147E+03  0.00000000000E+00 0. -1.
         21   -1    0    0  504  502 -0.00000000000E+00 -0.00000000000E+00 -0.27093081152E+01  0.27093081152E+01  0.00000000000E+00 0. -1.
         21    1    1    2  503  502  0.17514494917E+02  0.38558150954E+02  0.27200191470E+03  0.27527900418E+03  0.00000000000E+00 0. -1.
         21    1    1    2  504  501 -0.17514494917E+02 -0.38558150954E+02  0.41766986865E+03  0.41981139541E+03  0.00000000000E+00 0. -1.
</event>
<event>
 4    1  0.1571930E+006  0.2042987E+02  0.7546771E-02  0.1527563E+00
         21   -1    0    0  504  501  0.00000000000E+00  0.00000000000E+00  0.60224509318E+02  0.60224509318E+02  0.00000000000E+00 0.  1.
         21   -1    0    0  503  502 -0.00000000000E+00 -0.00000000000E+00 -0.70980606125E+01  0.70980606125E+01  0.00000000000E+00 0.  1.
         21    1    1    2  503  501  0.19564246194E+02 -0.58838471268E+01  0.21389679008E+02  0.29578670596E+02  0.00000000000E+00 0.  1.
         21    1    1    2  504  502 -0.19564246194E+02  0.58838471268E+01  0.31736769698E+02  0.37743899335E+02  0.00000000000E+00 0.  1.
</event>
<event>
 4    1  0.1571930E+006  0.4040520E+02  0.7546771E-02  0.1346128E+00
         21   -1    0    0  504  501  0.00000000000E+00  0.00000000000E+00  0.10438639592E+02  0.10438639592E+02  0.00000000000E+00 0. -1.
         21   -1    0    0  503  502 -0.00000000000E+00 -0.00000000000E+00 -0.15974950659E+03  0.15974950659E+03  0.00000000000E+00 0. -1.
         21    1    1    2  503  501 -0.38729281540E+02 -0.11516194731E+02 -0.62329657575E+02  0.74280321776E+02  0.00000000000E+00 0. -1.
         21    1    1    2  504  502  0.38729281540E+02  0.11516194731E+02 -0.86981209420E+02  0.95907824404E+02  0.00000000000E+00 0. -1.
</event>
<event>
 4    1  0.1571930E+006  0.3627994E+02  0.7546771E-02  0.1371781E+00
         21   -1    0    0  504  501  0.00000000000E+00  0.00000000000E+00  0.27693188393E+03  0.27693188393E+03  0.00000000000E+00 0. -1.
         21   -1    0    0  503  502 -0.00000000000E+00 -0.00000000000E+00 -0.30819040035E+02  0.30819040035E+02  0.00000000000E+00 0. -1.
         21    1    1    2  503  501 -0.18727496533E+02 -0.31072732652E+02  0.26456997962E+03  0.26704589111E+03  0.00000000000E+00 0. -1.
         21    1    1    2  504  502  0.18727496533E+02  0.31072732652E+02 -0.18457135724E+02  0.40705032858E+02  0.00000000000E+00 0. -1.
</event>
<event>
 4    1  0.1571930E+006  0.2115025E+02  0.7546771E-02  0.1517130E+00
         21   -1    0    0  503  501  0.00000000000E+00  0.00000000000E+00  0.23429943353E+02  0.23429943353E+02  0.00000000000E+00 0.  1.
         21   -1    0    0  501  502 -0.00000000000E+00 -0.00000000000E+00 -0.44047396354E+03  0.44047396354E+03  0.00000000000E+00 0.  1.
         21    1    1    2  503  504  0.34569323147E+01 -0.20865821816E+02  0.18347273298E+02  0.27999202463E+02  0.00000000000E+00 0.  1.
         21    1    1    2  504  502 -0.34569323147E+01  0.20865821816E+02 -0.43539129349E+03  0.43590470443E+03  0.00000000000E+00 0.  1.
</event>
<event>
 4    1  0.1571930E+006  0.2116817E+02  0.7546771E-02  0.1516877E+00
         21   -1    0    0  503  501  0.00000000000E+00  0.00000000000E+00  0.14330165804E+04  0.14330165804E+04  0.00000000000E+00 0. -1.
         21   -1    0    0  504  502 -0.00000000000E+00 -0.00000000000E+00 -0.40564096931E+00  0.40564096931E+00  0.00000000000E+00 0. -1.
         21    1    1    2  503  502  0.10880399197E+02  0.18157869260E+02  0.37322342104E+03  0.37382323806E+03  0.00000000000E+00 0. -1.
         21    1    1    2  504  501 -0.10880399197E+02 -0.18157869260E+02  0.10593875184E+04  0.10595989833E+04  0.00000000000E+00 0. -1.
</event>
<event>
 4    1  0.1571930E+006  0.3042995E+02  0.7546771E-02  0.1415896E+00
         21   -1    0    0  502  501  0.00000000000E+00  0.00000000000E+00  0.39573677929E+03  0.39573677929E+03  0.00000000000E+00 0. -1.
         21   -1    0    0  504  502 -0.00000000000E+00 -0.00000000000E+00 -0.50635929155E+01  0.50635929155E+01  0.00000000000E+00 0. -1.
         21    1    1    2  503  501  0.26958180652E+02 -0.14115173605E+02  0.34231325370E+03  0.34366312762E+03  0.00000000000E+00 0. -1.
         21    1    1    2  504  503 -0.26958180652E+02  0.14115173605E+02  0.48359932672E+02  0.57137244579E+02  0.00000000000E+00 0. -1.
</event>
<event>
 4    1  0.1571930E+006  0.2800507E+02  0.7546771E-02  0.1437765E+00
         21   -1    0    0  504  501  0.00000000000E+00  0.00000000000E+00  0.28686438347E+02  0.28686438347E+02  0.00000000000E+00 0. -1.
         21   -1    0    0  503  502 -0.00000000000E+00 -0.00000000000E+00 -0.50738417509E+02  0.50738417509E+02  0.00000000000E+00 0.  1.
         21    1    1    2  503  501 -0.98086179659E+01 -0.26231182159E+02 -0.37994210550E+02  0.47200041729E+02  0.00000000000E+00 0.  1.
         21    1    1    2  504  502  0.98086179659E+01  0.26231182159E+02  0.15942231388E+02  0.32224814127E+02  0.00000000000E+00 0. -1.
</event>
<event>
 4    1  0.1571930E+006  0.2128774E+02  0.7546771E-02  0.1515196E+00
         21   -1    0    0  504  501  0.00000000000E+00  0.00000000000E+00  0.12180057746E+03  0.12180057746E+03  0.00000000000E+00 0.  1.
         21   -1    0    0  503  502 -0.00000000000E+00 -0.00000000000E+00 -0.44346064470E+01  0.44346064470E+01  0.00000000000E+00 0.  1.
         21    1    1    2  503  501  0.58370310730E+01 -0.20471862255E+02  0.84009872791E+02  0.86665026408E+02  0.00000000000E+00 0.  1.
         21    1    1    2  504  502 -0.58370310730E+01  0.20471862255E+02  0.33356098225E+02  0.39570157502E+02  0.00000000000E+00 0.  1.
</event>
<event>
 4    1  0.1571930E+006  0.2336188E+02  0.7546771E-02  0.1488003E+00
         21   -1    0    0  503  501  0.00000000000E+00  0.00000000000E+00  0.15515813914E+02  0.15515813914E+02  0.00000000000E+00 0. -1.
         21   -1    0    0  504  502 -0.00000000000E+00 -0.00000000000E+00 -0.35729481016E+02  0.35729481016E+02  0.00000000000E+00 0. -1.
         21    1    1    2  503  502 -0.23044626666E+02  0.38369795590E+01 -0.13297195449E+02  0.26881083258E+02  0.00000000000E+00 0. -1.
         21    1    1    2  504  501  0.23044626666E+02 -0.38369795590E+01 -0.69164716533E+01  0.24364211673E+02  0.00000000000E+00 0. -1.
</event>
<event>
 4    1  0.1571930E+006  0.2416018E+02  0.7546771E-02  0.1478422E+00
         21   -1    0    0  504  501  0.00000000000E+00  0.00000000000E+00  0.29156224696E+02  0.29156224696E+02  0.00000000000E+00 0.  1.
         21   -1    0    0  503  502 -0.00000000000E+00 -0.00000000000E+00 -0.36721908839E+03  0.36721908839E+03  0.00000000000E+00 0. -1.
         21    1    1    2  503  501  0.23488645585E+02  0.56566634777E+01  0.23678067371E+02  0.33828467118E+02  0.00000000000E+00 0.  1.
         21    1    1    2  504  502 -0.23488645585E+02 -0.56566634777E+01 -0.36174093106E+03  0.36254684597E+03  0.00000000000E+00 0. -1.
</event>
<event>
 4    1  0.1571930E+006  0.2042385E+02  0.7546771E-02  0.1527652E+00
         21   -1    0    0  504  501  0.00000000000E+00  0.00000000000E+00  0.40141227673E+02  0.40141227673E+02  0.00000000000E+00 0. -1.
         21   -1    0    0  503  502 -0.00000000000E+00 -0.00000000000E+00 -0.11663023096E+02  0.11663023096E+02  0.00000000000E+00 0. -1.
         21    1    1    2  503  501 -0.13502603885E+02 -0.15323624218E+02  0.22791060425E+02  0.30603369196E+02  0.00000000000E+00 0. -1.
         21    1    1    2  504  502  0.13502603885E+02  0.15323624218E+02  0.56871441526E+01  0.21200881573E+02  0.00000000000E+00 0. -1.
</event>
<event>
 4    1  0.1571930E+006  0.3509710E+02  0.7546771E-02  0.1379882E+00
         21   -1    0    0  504  501  0.00000000000E+00  0.00000000000E+00  0.96897502487E+01  0.96897502487E+01  0.00000000000E+00 0. -1.
         21   -1    0    0  503  502 -0.00000000000E+00 -0.00000000000E+00 -0.21483349030E+03  0.21483349030E+03  0.00000000000E+00 0. -1.
         21    1    1    2  503  501 -0.34360134569E+02 -0.71545478815E+01 -0.30841689604E+02  0.46722759128E+02  0.00000000000E+00 0. -1.
         21    1    1    2  504  502  0.34360134569E+02  0.71545478815E+01 -0.17430205044E+03  0.17780048142E+03  0.00000000000E+00 0. -1.
</event>
<event>
 4    1  0.1571930E+006  0.2060000E+02  0.7546771E-02  0.1525053E+00
         21   -1    0    0  504  501  0.00000000000E+00  0.00000000000E+00  0.41352320088E+02  0.41352320088E+02  0.00000000000E+00 0. -1.
         21   -1    0    0  503  502 -0.00000000000E+00 -0.00000000000E+00 -0.53332989357E+02  0.53332989357E+02  0.00000000000E+00 0.  1.
         21    1    1    2  503  501  0.17876709786E+02 -0.10236360974E+02 -0.48535163742E+02  0.52725913537E+02  0.00000000000E+00 0.  1.
         21    1    1    2  504  502 -0.17876709786E+02  0.10236360974E+02  0.36554494474E+02  0.41959395908E+02  0.00000000000E+00 0. -1.
</event>
<event>
 4    1  0.1571930E+006  0.2398499E+02  0.7546771E-02  0.1480487E+00
         21   -1    0    0  503  501  0.00000000000E+00  0.00000000000E+00  0.21871946946E+02  0.21871946946E+02  0.00000000000E+00 0.  1.
         21   -1    0    0  501  502 -0.00000000000E+00 -0.00000000000E+00 -0.56325494444E+02  0.56325494444E+02  0.00000000000E+00 0.  1.
         21    1    1    2  503  504 -0.14142871769E+02 -0.19371599995E+02  0.11318842112E+02  0.26521611848E+02  0.00000000000E+00 0.  1.
         21    1    1    2  504  502  0.14142871769E+02  0.19371599995E+02 -0.45772389610E+02  0.51675829542E+02  0.00000000000E+00 0.  1.
</event>
<event>
 4    1  0.1571930E+006  0.2169377E+02  0.7546771E-02  0.1509586E+00
         21   -1    0    0  503  501  0.00000000000E+00  0.00000000000E+00  0.52228146456E+02  0.52228146456E+02  0.00000000000E+00 0. -1.
         21   -1    0    0  504  502 -0.00000000000E+00 -0.00000000000E+00 -0.33543291536E+02  0.33543291536E+02  0.00000000000E+00 0. -1.
         21    1    1    2  503  502 -0.48170365137E+01 -0.21152207805E+02 -0.27333430924E+02  0.34896076884E+02  0.00000000000E+00 0. -1.
         21    1    1    2  504  501  0.48170365137E+01  0.21152207805E+02  0.46018285844E+02  0.50875361108E+02  0.00000000000E+00 0. -1.
</event>
<event>
 4    1  0.1571930E+006  0.2129540E+02  0.7546771E-02  0.1515089E+00
         21   -1    0    0  502  501  0.00000000000E+00  0.00000000000E+00  0.29821624544E+03  0.29821624544E+03  0.00000000000E+00 0. -1.
         21   -1    0    0  503  502 -0.00000000000E+00 -0.00000000000E+00 -0.50703946911E+01  0.50703946911E+01  0.00000000000E+00 0.  1.
         21    1    1    2  503  504  0.17682561527E+01  0.21221856016E+02  0.19691330861E+02  0.29004179245E+02  0.00000000000E+00 0.  1.
         21    1    1    2  504  501 -0.17682561527E+01 -0.21221856016E+02  0.27345451988E+03  0.27428246088E+03  0.00000000000E+00 0. -1.
</event>
<event>
 4    1  0.1571930E+006  0.2768339E+02  0.7546771E-02  0.1440861E+00
         21   -1    0    0  504  501  0.00000000000E+00  0.00000000000E+00  0.19958442984E+03  0.19958442984E+03  0.00000000000E+00 0.  1.
         21   -1    0    0  503  502 -0.00000000000E+00 -0.00000000000E+00 -0.17077019574E+02  0.17077019574E+02  0.00000000000E+00 0. -1.
         21    1    1    2  503  501 -0.25097400703E+02  0.11682923563E+02  0.18663067248E+03  0.18867267459E+03  0.00000000000E+00 0.  1.
         21    1    1    2  504  502  0.25097400703E+02 -0.11682923563E+02 -0.41232622146E+01  0.27988774827E+02  0.00000000000E+00 0. -1.
</event>
<event>
 4    1  0.1571930E+006  0.2586159E+02  0.7546771E-02  0.1459391E+00
         21   -1    0    0  504  501  0.00000000000E+00  0.00000000000E+00  0.16360155249E+03  0.16360155249E+03  0.00000000000E+00 0.  1.
         21   -1    0    0  501  502 -0.00000000000E+00 -0.00000000000E+00 -0.77417420811E+01  0.77417420811E+01  0.00000000000E+00 0.  1.
         21    1    1    2  503  502  0.12454928297E+02  0.22664877671E+02  0.19075375679E+02  0.32135523584E+02  0.00000000000E+00 0.  1.
         21    1    1    2  504  503 -0.12454928297E+02 -0.22664877671E+02  0.13678443473E+03  0.13920777099E+03  0.00000000000E+00 0.  1.
</event>
<event>
 4    1  0.1571930E+006  0.2567478E+02  0.7546771E-02  0.1461394E+00
         21   -1    0    0  504  501  0.00000000000E+00  0.00000000000E+00  0.50003549941E+01  0.50003549941E+01  0.00000000000E+00 0.  1.
         21   -1    0    0  503  502 -0.00000000000E+00 -0.00000000000E+00 -0.14849602156E+03  0.14849602156E+03  0.00000000000E+00 0.  1.
         21    1    1    2  503  501  0.19855090918E+02  0.16277891113E+02 -0.46036001984E+02  0.52711553317E+02  0.00000000000E+00 0.  1.
         21    1    1    2  504  502 -0.19855090918E+02 -0.16277891113E+02 -0.97459664586E+02  0.10078482324E+03  0.00000000000E+00 0.  1.
</event>
<event>
 4    1  0.1571930E+006  0.4124719E+02  0.7546771E-02  0.1341328E+00
         21   -1    0    0  502  501  0.00000000000E+00  0.00000000000E+00  0.12558289720E+02  0.12558289720E+02  0.00000000000E+00 0. -1.
         21   -1    0    0  504  502 -0.00000000000E+00 -0.00000000000E+00 -0.33009135786E+03  0.33009135786E+03  0.00000000000E+00 0.  1.
         21    1    1    2  503  501 -0.16454646362E+02  0.37822950448E+02 -0.27215828081E+02  0.49416922867E+02  0.00000000000E+00 0. -1.
         21    1    1    2  504  503  0.16454646362E+02 -0.37822950448E+02 -0.29031724006E+03  0.29323272471E+03  0.00000000000E+00 0.  1.
</event>
<event>
 4    1  0.1571930E+006  0.2250031E+02  0.7546771E-02  0.1498870E+00
         21   -1    0    0  502  501  0.00000000000E+00  0.00000000000E+00  0.31775291426E+03  0.31775291426E+03  0.00000000000E+00 0. -1.
         21   -1    0    0  504  502 -0.00000000000E+00 -0.00000000000E+00 -0.15255396555E+02  0.15255396555E+02  0.00000000000E+00 0.  1.
         21    1    1    2  503  501  0.21248936153E+02  0.73991011343E+01  0.30881841524E+03  0.30963700938E+03  0.00000000000E+00 0. -1.
         21    1    1    2  504  503 -0.21248936153E+02 -0.73991011343E+01 -0.63208975354E+01  0.23371301437E+02  0.00000000000E+00 0.  1.
</event>
<event>
 4    1  0.1571930E+006  0.3041909E+02  0.7546771E-02  0.1415989E+00
         21   -1    0    0  504  501  0.00000000000E+00  0.00000000000E+00  0.21738583179E+02  0.21738583179E+02  0.00000000000E+00 0. -1.
         21   -1    0    0  503  502 -0.00000000000E+00 -0.00000000000E+00 -0.51363696520E+02  0.51363696520E+02  0.00000000000E+00 0.  1.
         21    1    1    2  503  501 -0.84694205248E+01 -0.29216258547E+02 -0.29939858095E+02  0.42681564524E+02  0.00000000000E+00 0.  1.
         21    1    1    2  504  502  0.84694205248E+01  0.29216258547E+02  0.31474475406E+00  0.30420715175E+02  0.00000000000E+00 0. -1.
</event>
<event>
 4    1  0.1571930E+006  0.2378643E+02  0.7546771E-02  0.1482852E+00
         21   -1    0    0  503  501  0.00000000000E+00  0.00000000000E+00  0.48488828647E+01  0.48488828647E+01  0.00000000000E+00 0.  1.
         21   -1    0    0  504  502 -0.00000000000E+00 -0.00000000000E+00 -0.13497297716E+03  0.13497297716E+03  0.00000000000E+00 0.  1.
         21    1    1    2  503  502  0.12151393127E+02  0.20448424080E+02 -0.90795517991E+02  0.93859578571E+02  0.00000000000E+00 0.  1.
         21    1    1    2  504  501 -0.12151393127E+02 -0.20448424080E+02 -0.39328576302E+02  0.45962281452E+02  0.00000000000E+00 0.  1.
</event>
<event>
 4    1  0.1571930E+006  0.4465953E+02  0.7546771E-02  0.1323151E+00
         21   -1    0    0  503  501  0.00000000000E+00  0.00000000000E+00  0.22013101773E+02  0.22013101773E+02  0.00000000000E+00 0.  1.
         21   -1    0    0  504  502 -0.00000000000E+00 -0.00000000000E+00 -0.28148777315E+03  0.28148777315E+03  0.00000000000E+00 0. -1.
         21    1    1    2  503  502 -0.48853723396E+01  0.44391516496E+02 -0.25470129181E+03  0.25858697115E+03  0.00000000000E+00 0. -1.
         21    1    1    2  504  501  0.48853723396E+01 -0.44391516496E+02 -0.47733795689E+01  0.44913903774E+02  0.00000000000E+00 0.  1.
</event>
<event>
 4    1  0.1571930E+006  0.2329083E+02  0.7546771E-02  0.1488878E+00
         21   -1    0    0  503  501  0.00000000000E+00  0.00000000000E+00  0.38469113374E+02  0.38469113374E+02  0.00000000000E+00 0.  1.
         21   -1    0    0  501  502 -0.00000000000E+00 -0.00000000000E+00 -0.15193827938E+02  0.15193827938E+02  0.00000000000E+00 0.  1.
         21    1    1    2  503  504 -0.22726557665E+02 -0.50956965617E+01  0.18832750204E+02  0.29952212389E+02  0.00000000000E+00 0.  1.
         21    1    1    2  504  502  0.22726557665E+02  0.50956965617E+01  0.44425352324E+01  0.23710728922E+02  0.00000000000E+00 0.  1.
</event>
<event>
 4    1  0.1571930E+006  0.2526254E+02  0.7546771E-02  0.1465888E+00
         21   -1    0    0  504  501  0.00000000000E+00  0.00000000000E+00  0.60216151403E+03  0.60216151403E+03  0.00000000000E+00 0.  1.
         21   -1    0    0  503  502 -0.00000000000E+00 -0.00000000000E+00 -0.47347176134E+01  0.47347176134E+01  0.00000000000E+00 0. -1.
         21    1    1    2  503  501  0.21249013558E+02  0.13662924590E+02  0.31376611387E+02  0.40282599564E+02  0.00000000000E+00 0. -1.
         21    1    1    2  504  502 -0.21249013558E+02 -0.13662924590E+02  0.56605018503E+03  0.56661363208E+03  0.00000000000E+00 0.  1.
</event>
<event>
 4    1  0.1571930E+006  0.2595848E+02  0.7546771E-02  0.1458360E+00
         21   -1    0    0  503  501  0.00000000000E+00  0.00000000000E+00  0.28035803901E+01  0.28035803901E+01  0.00000000000E+00 0. -1.
         21   -1    0    0  504  502 -0.00000000000E+00 -0.00000000000E+00 -0.11311669454E+04  0.11311669454E+04  0.00000000000E+00 0.  1.
         21    1    1    2  503  502 -0.21151639882E+02 -0.15048279964E+02 -0.10673374721E+04  0.10676530907E+04  0.00000000000E+00 0.  1.
         21    1    1    2  504  501  0.21151639882E+02  0.15048279964E+02 -0.61025892894E+02  0.66317435137E+02  0.00000000000E+00 0. -1.
</event>
<event>
 4    1  0.1571930E+006  0.4133000E+02  0.7546771E-02  0.1340863E+00
         21   -1    0    0  504  501  0.00000000000E+00  0.00000000000E+00  0.27614128634E+03  0.27614128634E+03  0.00000000000E+00 0. -1.
         21   -1    0    0  503  502 -0.00000000000E+00 -0.00000000000E+00 -0.70317648839E+01  0.70317648839E+01  0.00000000000E+00 0. -1.
         21    1    1    2  503  501 -0.41274305831E+02 -0.21449728713E+01  0.85446734495E+02  0.94917404443E+02  0.00000000000E+00 0. -1.
         21    1    1    2  504  502  0.41274305831E+02  0.21449728713E+01  0.18366278696E+03  0.18825564678E+03  0.00000000000E+00 0. -1.
</event>
<event>
 4    1  0.1571930E+006  0.3090233E+02  0.7546771E-02  0.1411914E+00
         21   -1    0    0  504  501  0.00000000000E+00  0.00000000000E+00  0.88073922009E+01  0.88073922009E+01  0.00000000000E+00 0. -1.
         21   -1    0    0  503  502 -0.00000000000E+00 -0.00000000000E+00 -0.14659715154E+03  0.14659715154E+03  0.00000000000E+00 0. -1.
         21    1    1    2  503  501  0.28924193233E+02  0.10878646416E+02 -0.29245512528E+02  0.42547078690E+02  0.00000000000E+00 0. -1.
         21    1    1    2  504  502 -0.28924193233E+02 -0.10878646416E+02 -0.10854424681E+03  0.11285746505E+03  0.00000000000E+00 0. -1.
</event>
<event>
 4    1  0.1571930E+006  0.2138662E+02  0.7546771E-02  0.1513816E+00
         21   -1    0    0  504  501  0.00000000000E+00  0.00000000000E+00  0.77854919128E+00  0.77854919128E+00  0.00000000000E+00 0. -1.
         21   -1    0    0  503  502 -0.00000000000E+00 -0.00000000000E+00 -0.69708642208E+03  0.69708642208E+03  0.00000000000E+00 0. -1.
         21    1    1    2  503  501 -0.11254306188E+02  0.18185927635E+02 -0.48651141030E+03  0.48698125192E+03  0.00000000000E+00 0. -1.
         21    1    1    2  504  502  0.11254306188E+02 -0.18185927635E+02 -0.20979646260E+03  0.21088371936E+03  0.00000000000E+00 0. -1.
</event>
<event>
 4    1  0.1571930E+006  0.2061242E+02  0.7546771E-02  0.1524871E+00
         21   -1    0    0  504  501  0.00000000000E+00  0.00000000000E+00  0.14644718676E+03  0.14644718676E+03  0.00000000000E+00 0.  1.
         21   -1    0    0  503  502 -0.00000000000E+00 -0.00000000000E+00 -0.50010764273E+01  0.50010764273E+01  0.00000000000E+00 0.  1.
         21    1    1    2  503  501 -0.19265230252E+02  0.73295853500E+01  0.21654881798E+02  0.29896585487E+02  0.00000000000E+00 0.  1.
         21    1    1    2  504  502  0.19265230252E+02 -0.73295853500E+01  0.11979122853E+03  0.12155167770E+03  0.00000000000E+00 0.  1.
</event>
<event>
 4    1  0.1571930E+006  0.2693591E+02  0.7546771E-02  0.1448253E+00
         21   -1    0    0  503  501  0.00000000000E+00  0.00000000000E+00  0.10044068434E+01  0.10044068434E+01  0.00000000000E+00 0. -1.
         21   -1    0    0  504  502 -0.00000000000E+00 -0.00000000000E+00 -0.89335878546E+03  0.89335878546E+03  0.00000000000E+00 0. -1.
         21    1    1    2  503  502 -0.72187876487E+01  0.25950575339E+02 -0.64182165587E+03  0.64238662906E+03  0.00000000000E+00 0. -1.
         21    1    1    2  504  501  0.72187876487E+01 -0.25950575339E+02 -0.25053272275E+03  0.25197656324E+03  0.00000000000E+00 0. -1.
</event>
<event>
 4    1  0.1571930E+006  0.2686543E+02  0.7546771E-02  0.1448965E+00
         21   -1    0    0  502  501  0.00000000000E+00  0.00000000000E+00  0.61835145693E+01  0.61835145693E+01  0.00000000000E+00 0.  1.
         21   -1    0    0  504  502 -0.00000000000E+00 -0.00000000000E+00 -0.30893187487E+03  0.30893187487E+03  0.00000000000E+00 0.  1.
         21    1    1    2  503  501 -0.37829311480E+01  0.26597756107E+02 -0.27095598943E+02  0.38156554877E+02  0.00000000000E+00 0.  1.
         21    1    1    2  504  503  0.37829311480E+01 -0.26597756107E+02 -0.27565276136E+03  0.27695883456E+03  0.00000000000E+00 0.  1.
</event>
<event>
 4    1  0.1571930E+006  0.2209320E+02  0.7546771E-02  0.1504210E+00
         21   -1    0    0  502  501  0.00000000000E+00  0.00000000000E+00  0.83398105687E+00  0.83398105687E+00  0.00000000000E+00 0.  1.
         21   -1    0    0  504  502 -0.00000000000E+00 -0.00000000000E+00 -0.62063262682E+03  0.62063262682E+03  0.00000000000E+00 0.  1.
         21    1    1    2  503  501  0.39408035458E+01  0.21738899337E+02 -0.23573387170E+03  0.23676690636E+03  0.00000000000E+00 0.  1.
         21    1    1    2  504  503 -0.39408035458E+01 -0.21738899337E+02 -0.38406477406E+03  0.38469970152E+03  0.00000000000E+00 0.  1.
</event>
<event>
 4    1  0.1571930E+006  0.2639111E+02  0.7546771E-02  0.1453822E+00
         21   -1    0    0  502  501  0.00000000000E+00  0.00000000000E+00  0.74870124636E+01  0.74870124636E+01  0.00000000000E+00 0. -1.
         21   -1    0    0  503  502 -0.00000000000E+00 -0.00000000000E+00 -0.95157405863E+02  0.95157405863E+02  0.00000000000E+00 0. -1.
         21    1    1    2  503  504  0.62257860062E+00  0.26383761021E+02 -0.51515312104E+02  0.57881930090E+02  0.00000000000E+00 0. -1.
         21    1    1    2  504  501 -0.62257860062E+00 -0.26383761021E+02 -0.36155081295E+02  0.44762488237E+02  0.00000000000E+00 0. -1.
</event>
<event>
 4    1  0.1571930E+006  0.4146311E+02  0.7546771E-02  0.1340119E+00
         21   -1    0    0  503  501  0.00000000000E+00  0.00000000000E+00  0.18173298898E+02  0.18173298898E+02  0.00000000000E+00 0.  1.
         21   -1    0    0  504  502 -0.00000000000E+00 -0.00000000000E+00 -0.94711392941E+02  0.94711392941E+02  0.00000000000E+00 0.  1.
         21    1    1    2  503  502  0.37451415722E+02  0.17792725658E+02 -0.40206849799E+02  0.57756215221E+02  0.00000000000E+00 0.  1.
         21    1    1    2  504  501 -0.37451415722E+02 -0.17792725658E+02 -0.36331244245E+02  0.55128476619E+02  0.00000000000E+00 0.  1.
</event>
<event>
 4    1  0.1571930E+006  0.2536044E+02  0.7546771E-02  0.1464811E+00
         21   -1    0    0  503  501  0.00000000000E+00  0.00000000000E+00  0.68418251976E+01  0.68418251976E+01  0.00000000000E+00 0. -1.
         21   -1    0    0  504  502 -0.00000000000E+00 -0.00000000000E+00 -0.18191384505E+03  0.18191384505E+03  0.00000000000E+00 0. -1.
         21    1    1    2  503  502  0.25342253017E+02  0.96015191506E+00 -0.15314426863E+03  0.15522988982E+03  0.00000000000E+00 0. -1.
         21    1    1    2  504  501 -0.25342253017E+02 -0.96015191506E+00 -0.21927751228E+02  0.33525780432E+02  0.00000000000E+00 0. -1.
</event>
<event>
 4    1  0.1571930E+006  0.6163145E+02  0.7546771E-02  0.1254388E+00
         21   -1    0    0  503  501  0.00000000000E+00  0.00000000000E+00  0.23746266481E+02  0.23746266481E+02  0.00000000000E+00 0. -1.
         21   -1    0    0  504  502 -0.00000000000E+00 -0.00000000000E+00 -0.94597591763E+03  0.94597591763E+03  0.00000000000E+00 0.  1.
         21    1    1    2  503  502 -0.37885046273E+02  0.48612338798E+02 -0.19144452009E+02  0.64536394827E+02  0.00000000000E+00 0. -1.
         21    1    1    2  504  501  0.37885046273E+02 -0.48612338798E+02 -0.90308519914E+03  0.90518578928E+03  0.00000000000E+00 0.  1.
</event>
<event>
 4    1  0.1571930E+006  0.2727115E+02  0.7546771E-02  0.1444903E+00
         21   -1    0    0  503  501  0.00000000000E+00  0.00000000000E+00  0.73784440585E+02  0.73784440585E+02  0.00000000000E+00 0. -1.
         21   -1    0    0  504  502 -0.00000000000E+00 -0.00000000000E+00 -0.36331926163E+02  0.36331926163E+02  0.00000000000E+00 0. -1.
         21    1    1    2  503  502  0.23589585150E+01 -0.27168933677E+02 -0.28075459863E+02  0.39140095668E+02  0.00000000000E+00 0. -1.
         21    1    1    2  504  501 -0.23589585150E+01  0.27168933677E+02  0.65527974286E+02  0.70976271080E+02  0.00000000000E+00 0. -1.
</event>
<event>
 4    1  0.1571930E+006  0.3157864E+02  0.7546771E-02  0.1406357E+00
         21   -1    0    0  503  501  0.00000000000E+00  0.00000000000E+00  0.27827574468E+02  0.27827574468E+02  0.00000000000E+00 0. -1.
         21   -1    0    0  504  502 -0.00000000000E+00 -0.00000000000E+00 -0.37594870362E+03  0.37594870362E+03  0.00000000000E+00 0. -1.
         21    1    1    2  503  502  0.31553190868E+02  0.12675073960E+01 -0.36608582422E+03  0.36744528997E+03  0.00000000000E+00 0. -1.
         21    1    1    2  504  501 -0.31553190868E+02 -0.12675073960E+01  0.17964695064E+02  0.36330988119E+02  0.00000000000E+00 0. -1.
</event>
<event>
 4    1  0.1571930E+006  0.2815291E+02  0.7546771E-02  0.1436358E+00
         21   -1    0    0  503  501  0.00000000000E+00  0.00000000000E+00  0.83771171576E+01  0.83771171576E+01  0.00000000000E+00 0.  1.
         21   -1    0    0  504  502 -0.00000000000E+00 -0.00000000000E+00 -0.17876910743E+03  0.17876910743E+03  0.00000000000E+00 0.  1.
         21    1    1    2  503  502 -0.26735765261E+02  0.88195760516E+01 -0.20994213635E+02  0.35118984496E+02  0.00000000000E+00 0.  1.
         21    1    1    2  504  501  0.26735765261E+02 -0.88195760516E+01 -0.14939777663E+03  0.15202724009E+03  0.00000000000E+00 0.  1.
</event>
<event>
 4    1  0.1571930E+006  0.4050509E+02  0.7546771E-02  0.1345551E+00
         21   -1    0    0  504  501  0.00000000000E+00  0.00000000000E+00  0.44773340770E+03  0.44773340770E+03  0.00000000000E+00 0. -1.
         21   -1    0    0  503  502 -0.00000000000E+00 -0.00000000000E+00 -0.65014135131E+01  0.65014135131E+01  0.00000000000E+00 0. -1.
         21    1    1    2  503  501  0.37064433467E+02  0.16336767252E+02  0.70585583964E+02  0.81381735396E+02  0.00000000000E+00 0. -1.
         21    1    1    2  504  502 -0.37064433467E+02 -0.16336767252E+02  0.37064641022E+03  0.37285308582E+03  0.00000000000E+00 0. -1.
</event>
<event>
 4    1  0.1571930E+006  0.2093855E+02  0.7546771E-02  0.1520144E+00
         21   -1    0    0  503  501  0.00000000000E+00  0.00000000000E+00  0.78295938649E+01  0.78295938649E+01  0.00000000000E+00 0.  1.
         21   -1    0    0  501  502 -0.00000000000E+00 -0.00000000000E+00 -0.34682722907E+03  0.34682722907E+03  0.00000000000E+00 0. -1.
         21    1    1    2  503  504 -0.59225850505E+01  0.20083470794E+02 -0.71150745791E+01  0.22114409308E+02  0.00000000000E+00 0.  1.
         21    1    1    2  504  502  0.59225850505E+01 -0.20083470794E+02 -0.33188256062E+03  0.33254241363E+03  0.00000000000E+00 0. -1.
</event>
<event>
 4    1  0.1571930E+006  0.2130307E+02  0.7546771E-02  0.1514981E+00
         21   -1    0    0  502  501  0.00000000000E+00  0.00000000000E+00  0.76287723278E+02  0.76287723278E+02  0.00000000000E+00 0. -1.
         21   -1    0    0  503  502 -0.00000000000E+00 -0.00000000000E+00 -0.10346298704E+02  0.10346298704E+02  0.00000000000E+00 0. -1.
         21    1    1    2  503  504  0.13380826142E+02  0.16576321049E+02  0.47304647732E+01  0.21821966565E+02  0.00000000000E+00 0. -1.
         21    1    1    2  504  501 -0.13380826142E+02 -0.16576321049E+02  0.61210959800E+02  0.64812055417E+02  0.00000000000E+00 0. -1.
</event>
<event>
 4    1  0.1571930E+006  0.2443981E+02  0.7546771E-02  0.1475169E+00
         21   -1    0    0  503  501  0.00000000000E+00  0.00000000000E+00  0.34727317235E+03  0.34727317235E+03  0.00000000000E+00 0. -1.
         21   -1    0    0  504  502 -0.00000000000E+00 -0.00000000000E+00 -0.49381796210E+01  0.49381796210E+01  0.00000000000E+00 0.  1.
         21    1    1    2  503  502  0.81539797738E+00 -0.24426205635E+02  0.31333361726E+03  0.31428531639E+03  0.00000000000E+00 0. -1.
         21    1    1    2  504  501 -0.81539797738E+00  0.24426205635E+02  0.29001375473E+02  0.37926035581E+02  0.00000000000E+00 0.  1.
</event>
<event>
 4    1  0.1571930E+006  0.3487023E+02  0.7546771E-02  0.1381478E+00
         21   -1    0    0  504  501  0.00000000000E+00  0.00000000000E+00  0.94958290210E+01  0.94958290210E+01  0.00000000000E+00 0. -1.
         21   -1    0    0  503  502 -0.00000000000E+00 -0.00000000000E+00 -0.16737647386E+03  0.16737647386E+03  0.00000000000E+00 0. -1.
         21    1    1    2  503  501 -0.34789871269E+02 -0.23659663176E+01 -0.36072663762E+02  0.50171406303E+02  0.00000000000E+00 0. -1.
         21    1    1    2  504  502  0.34789871269E+02  0.23659663176E+01 -0.12180798107E+03  0.12670089658E+03  0.00000000000E+00 0. -1.
</event>
<event>
 4    1  0.1571930E+006  0.2128655E+02  0.7546771E-02  0.1515213E+00
         21   -1    0    0  504  501  0.00000000000E+00  0.00000000000E+00  0.24537937727E+02  0.24537937727E+02  0.00000000000E+00 0.  1.
         21   -1    0    0  503  502 -0.00000000000E+00 -0.00000000000E+00 -0.18709216326E+02  0.18709216326E+02  0.00000000000E+00 0. -1.
         21    1    1    2  503  501 -0.21137996016E+02  0.25104525945E+01  0.53798742299E+01  0.21955871528E+02  0.00000000000E+00 0. -1.
         21    1    1    2  504  502  0.21137996016E+02 -0.25104525945E+01  0.44884717063E+00  0.21291282526E+02  0.00000000000E+00 0.  1.
</event>
<event>
 4    1  0.1571930E+006  0.3331768E+02  0.7546771E-02  0.1392792E+00
         21   -1    0    0  504  501  0.00000000000E+00  0.00000000000E+00  0.33990454648E+01  0.33990454648E+01  0.00000000000E+00 0.  1.
         21   -1    0    0  501  502 -0.00000000000E+00 -0.00000000000E+00 -0.78593089464E+03  0.78593089464E+03  0.00000000000E+00 0.  1.
         21    1    1    2  503  502 -0.32289009584E+02  0.82151051857E+01 -0.69298835345E+03  0.69378881954E+03  0.00000000000E+00 0.  1.
         21    1    1    2  504  503  0.32289009584E+02 -0.82151051857E+01 -0.89543495718E+02  0.95541120563E+02  0.00000000000E+00 0.  1.
</event>
<event>
 4    1  0.1571930E+006  0.2387342E+02  0.7546771E-02  0.1481812E+00
         21   -1    0    0  503  501  0.00000000000E+00  0.00000000000E+00  0.67339989081E+01  0.67339989081E+01  0.00000000000E+00 0. -1.
         21   -1    0    0  501  502 -0.00000000000E+00 -0.00000000000E+00 -0.21195551124E+03  0.21195551124E+03  0.00000000000E+00 0.  1.
         21    1    1    2  503  504  0.17380454344E+02 -0.16366430545E+02 -0.17864075242E+02  0.29817200174E+02  0.00000000000E+00 0. -1.
         21    1    1    2  504  502 -0.17380454344E+02  0.16366430545E+02 -0.18735743709E+03  0.18887230998E+03  0.00000000000E+00 0.  1.
</event>
<event>
 4    1  0.1571930E+006  0.6166785E+02  0.7546771E-02  0.1254269E+00
         21   -1    0    0  504  501  0.00000000000E+00  0.00000000000E+00  0.13836921742E+03  0.13836921742E+03  0.00000000000E+00 0. -1.
         21   -1    0    0  503  502 -0.00000000000E+00 -0.00000000000E+00 -0.47602364805E+02  0.47602364805E+02  0.00000000000E+00 0. -1.
         21    1    1    2  503  501 -0.33309266074E+01  0.61577826508E+02  0.10583392622E+03  0.12248976990E+03  0.00000000000E+00 0. -1.
         21    1    1    2  504  502  0.33309266074E+01 -0.61577826508E+02 -0.15067073606E+02  0.63481812329E+02  0.00000000000E+00 0. -1.
</event>
<event>
 4    1  0.1571930E+006  0.2567434E+02  0.7546771E-02  0.1461399E+00
         21   -1    0    0  502  501  0.00000000000E+00  0.00000000000E+00  0.23243499973E+02  0.23243499973E+02  0.00000000000E+00 0. -1.
         21   -1    0    0  503  502 -0.00000000000E+00 -0.00000000000E+00 -0.57449902461E+02  0.57449902461E+02  0.00000000000E+00 0.  1.
         21    1    1    2  503  504 -0.24319724781E+02 -0.82293902412E+01 -0.45813581395E+02  0.52517198301E+02  0.00000000000E+00 0.  1.
         21    1    1    2  504  501  0.24319724781E+02  0.82293902412E+01  0.11607178906E+02  0.28176204133E+02  0.00000000000E+00 0. -1.
</event>
<event>
 4    1  0.1571930E+006  0.2360430E+02  0.7546771E-02  0.1485046E+00
         21   -1    0    0  503  501  0.00000000000E+00  0.00000000000E+00  0.13346710202E+03  0.13346710202E+03  0.00000000000E+00 0. -1.
         21   -1    0    0  504  502 -0.00000000000E+00 -0.00000000000E+00 -0.64624410273E+01  0.64624410273E+01  0.00000000000E+00 0.  1.
         21    1    1    2  503  502 -0.21853445364E+02 -0.89213050015E+01  0.21872901816E+02  0.32180531243E+02  0.00000000000E+00 0.  1.
         21    1    1    2  504  501  0.21853445364E+02  0.89213050015E+01  0.10513175918E+03  0.10774901180E+03  0.00000000000E+00 0. -1.
</event>
<event>
 4    1  0.1571930E+006  0.2961748E+02  0.7546771E-02  0.1422950E+00
         21   -1    0    0  503  501  0.00000000000E+00  0.00000000000E+00  0.28752547225E+01  0.28752547225E+01  0.00000000000E+00 0. -1.
         21   -1    0    0  504  502 -0.00000000000E+00 -0.00000000000E+00 -0.53321827134E+03  0.53321827134E+03  0.00000000000E+00 0. -1.
         21    1    1    2  503  502 -0.15206031662E+01  0.29578417149E+02 -0.89842788277E+02  0.94598739951E+02  0.00000000000E+00 0. -1.
         21    1    1    2  504  501  0.15206031662E+01 -0.29578417149E+02 -0.44050022834E+03  0.44149478611E+03  0.00000000000E+00 0. -1.
</event>
<event>
 4    1  0.1571930E+006  0.2634382E+02  0.7546771E-02  0.1454313E+00
         21   -1    0    0  502  501  0.00000000000E+00  0.00000000000E+00  0.17999151396E+02  0.17999151396E+02  0.00000000000E+00 0.  1.
         21   -1    0    0  503  502 -0.00000000000E+00 -0.00000000000E+00 -0.58573242354E+02  0.58573242354E+02  0.00000000000E+00 0.  1.
         21    1    1    2  503  504 -0.15349199425E+02  0.21410247826E+02 -0.42668167196E+02  0.50145479625E+02  0.00000000000E+00 0.  1.
         21    1    1    2  504  501  0.15349199425E+02 -0.21410247826E+02  0.20940762377E+01  0.26426914126E+02  0.00000000000E+00 0.  1.
</event>
<event>
 4    1  0.1571930E+006  0.3057481E+02  0.7546771E-02  0.1414666E+00
         21   -1    0    0  503  501  0.00000000000E+00  0.00000000000E+00  0.85147612899E+01  0.85147612899E+01  0.00000000000E+00 0. -1.
         21   -1    0    0  504  502 -0.00000000000E+00 -0.00000000000E+00 -0.12039914231E+03  0.12039914231E+03  0.00000000000E+00 0. -1.
         21    1    1    2  503  502  0.71904421025E+00 -0.30566351809E+02 -0.36806749499E+02  0.47849301940E+02  0.00000000000E+00 0. -1.
         21    1    1    2  504  501 -0.71904421025E+00  0.30566351809E+02 -0.75077631526E+02  0.81064601664E+02  0.00000000000E+00 0. -1.
</event>
<event>
 4    1  0.1571930E+006  0.2408338E+02  0.7546771E-02  0.1479324E+00
         21   -1    0    0  503  501  0.00000000000E+00  0.00000000000E+00  0.27434149527E+02  0.27434149527E+02  0.00000000000E+00 0. -1.
         21   -1    0    0  504  502 -0.00000000000E+00 -0.00000000000E+00 -0.21213128588E+02  0.21213128588E+02  0.00000000000E+00 0. -1.
         21    1    1    2  503  502 -0.22828719011E+02  0.76719599332E+01  0.45202122185E+01  0.24503911920E+02  0.00000000000E+00 0. -1.
         21    1    1    2  504  501  0.22828719011E+02 -0.76719599332E+01  0.17008087207E+01  0.24143366194E+02  0.00000000000E+00 0. -1.
</event>
<event>
 4    1  0.1571930E+006  0.2075009E+02  0.7546771E-02  0.1522863E+00
         21   -1    0    0  504  501  0.00000000000E+00  0.00000000000E+00  0.15876649236E+02  0.15876649236E+02  0.00000000000E+00 0.  1.
         21   -1    0    0  501  502 -0.00000000000E+00 -0.00000000000E+00 -0.38352341906E+02  0.38352341906E+02  0.00000000000E+00 0.  1.
         21    1    1    2  503  502 -0.20045549044E+02  0.53611802458E+01 -0.25911930845E+02  0.33196301755E+02  0.00000000000E+00 0.  1.
         21    1    1    2  504  503  0.20045549044E+02 -0.53611802458E+01  0.34362381751E+01  0.21032689388E+02  0.00000000000E+00 0.  1.
</event>
<event>
 4    1  0.1571930E+006  0.3865200E+02  0.7546771E-02  0.1356571E+00
         21   -1    0    0  504  501  0.00000000000E+00  0.00000000000E+00  0.39272418696E+02  0.39272418696E+02  0.00000000000E+00 0.  1.
         21   -1    0    0  503  502 -0.00000000000E+00 -0.00000000000E+00 -0.61023382702E+02  0.61023382702E+02  0.00000000000E+00 0.  1.
         21    1    1    2  503  501 -0.29263867167E+00 -0.38650894120E+02  0.19899548605E+02  0.43473777020E+02  0.00000000000E+00 0.  1.
         21    1    1    2  504  502  0.29263867167E+00  0.38650894120E+02 -0.41650512611E+02  0.56822024378E+02  0.00000000000E+00 0.  1.
</event>
<event>
 4    1  0.1571930E+006  0.2006114E+02  0.7546771E-02  0.1533103E+00
         21   -1    0    0  504  501  0.00000000000E+00  0.00000000000E+00  0.50901677624E+03  0.50901677624E+03  0.00000000000E+00 0. -1.
         21   -1    0    0  501  502 -0.00000000000E+00 -0.00000000000E+00 -0.14108364139E+01  0.14108364139E+01  0.00000000000E+00 0. -1.
         21    1    1    2  503  502  0.19671683917E+02  0.39337163205E+01  0.84591308675E+02  0.86937556761E+02  0.00000000000E+00 0. -1.
         21    1    1    2  504  503 -0.19671683917E+02 -0.39337163205E+01  0.42301463115E+03  0.42349005590E+03  0.00000000000E+00 0. -1.
</event>
<event>
 4    1  0.1571930E+006  0.2009286E+02  0.7546771E-02  0.1532621E+00
         21   -1    0    0  504  501  0.00000000000E+00  0.00000000000E+00  0.68601772067E+01  0.68601772067E+01  0.00000000000E+00 0.  1.
         21   -1    0    0  503  502 -0.00000000000E+00 -0.00000000000E+00 -0.61156414312E+02  0.61156414312E+02  0.00000000000E+00 0.  1.
         21    1    1    2  503  501 -0.16612911248E+02  0.11301964557E+02 -0.20544105897E+02  0.28736449156E+02  0.00000000000E+00 0.  1.
         21    1    1    2  504  502  0.16612911248E+02 -0.11301964557E+02 -0.33752131208E+02  0.39280142363E+02  0.00000000000E+00 0.  1.
</event>
<event>
 4    1  0.1571930E+006  0.2437553E+02  0.7546771E-02  0.1475912E+00
         21   -1    0    0  504  501  0.00000000000E+00  0.00000000000E+00  0.20689670757E+02  0.20689670757E+02  0.00000000000E+00 0. -1.
         21   -1    0    0  501  502 -0.00000000000E+00 -0.00000000000E+00 -0.43828378984E+02  0.43828378984E+02  0.00000000000E+00 0. -1.
         21    1    1    2  503  502 -0.22482765561E+01 -0.24271620380E+02 -0.30510706097E+02  0.39052138096E+02  0.00000000000E+00 0. -1.
         21    1    1    2  504  503  0.22482765561E+01  0.24271620380E+02  0.73719978700E+01  0.25465911645E+02  0.00000000000E+00 0. -1.
</event>
<event>
 4    1  0.1571930E+006  0.2446488E+02  0.7546771E-02  0.1474880E+00
         21   -1    0    0  503  501  0.00000000000E+00  0.00000000000E+00  0.29852230834E+03  0.29852230834E+03  0.00000000000E+00 0.  1.
         21   -1    0    0  504  502 -0.00000000000E+00 -0.00000000000E+00 -0.23319838673E+01  0.23319838673E+01  0.00000000000E+00 0.  1.
         21    1    1    2  503  502  0.21010378685E+02  0.12533719737E+02  0.20442550186E+03  0.20588422949E+03  0.00000000000E+00 0.  1.
         21    1    1    2  504  501 -0.21010378685E+02 -0.12533719737E+02  0.91764822607E+02  0.94970062710E+02  0.00000000000E+00 0.  1.
</event>
<event>
 4    1  0.1571930E+006  0.2211214E+02  0.7546771E-02  0.1503958E+00
         21   -1    0    0  503  501  0.00000000000E+00  0.00000000000E+00  0.61801746451E+02  0.61801746451E+02  0.00000000000E+00 0. -1.
         21   -1    0    0  504  502 -0.00000000000E+00 -0.00000000000E+00 -0.17835863960E+03  0.17835863960E+03  0.00000000000E+00 0. -1.
         21    1    1    2  503  502 -0.21692864045E+02 -0.42856264730E+01  0.59108311972E+02  0.63108949357E+02  0.00000000000E+00 0. -1.
         21    1    1    2  504  501  0.21692864045E+02  0.42856264730E+01 -0.17566520513E+03  0.17705143670E+03  0.00000000000E+00 0. -1.
</event>
<event>
 4    1  0.1571930E+006  0.3134683E+02  0.7546771E-02  0.1408243E+00
         21   -1    0    0  502  501  0.00000000000E+00  0.00000000000E+00  0.10607075349E+04  0.10607075349E+04  0.00000000000E+00 0.  1.
         21   -1    0    0  504  502 -0.00000000000E+00 -0.00000000000E+00 -0.47154743693E+01  0.47154743693E+01  0.00000000000E+00 0. -1.
         21    1    1    2  503  501  0.29555735892E+02  0.10444252473E+02  0.10055217692E+04  0.10060102645E+04  0.00000000000E+00 0.  1.
         21    1    1    2  504  503 -0.29555735892E+02 -0.10444252473E+02  0.50470291287E+02  0.59412744731E+02  0.00000000000E+00 0. -1.
</event>
<event>
 4    1  0.1571930E+006  0.4327494E+02  0.7546771E-02  0.1330294E+00
         21   -1    0    0  503  501  0.00000000000E+00  0.00000000000E+00  0.33653645200E+03  0.33653645200E+03  0.00000000000E+00 0. -1.
         21   -1    0    0  504  502 -0.00000000000E+00 -0.00000000000E+00 -0.58849123532E+02  0.58849123532E+02  0.00000000000E+00 0.  1.
         21    1    1    2  503  502  0.43263681261E+02 -0.98700141196E+00  0.32695761808E+03  0.32980904218E+03  0.00000000000E+00 0. -1.
         21    1    1    2  504  501 -0.43263681261E+02  0.98700141196E+00 -0.49270289607E+02  0.65576533349E+02  0.00000000000E+00 0.  1.
</event>
<event>
 4    1  0.1571930E+006  0.4161846E+02  0.7546771E-02  0.1339254E+00
         21   -1    0    0  504  501  0.00000000000E+00  0.00000000000E+00  0.11651810358E+02  0.11651810358E+02  0.00000000000E+00 0. -1.
         21   -1    0    0  503  502 -0.00000000000E+00 -0.00000000000E+00 -0.27117672887E+03  0.27117672887E+03  0.00000000000E+00 0. -1.
         21    1    1    2  503  501  0.39872317831E+02 -0.11928712209E+02 -0.22481728876E+03  0.22863706880E+03  0.00000000000E+00 0. -1.
         21    1    1    2  504  502 -0.39872317831E+02  0.11928712209E+02 -0.34707629752E+02  0.54191470428E+02  0.00000000000E+00 0. -1.
</event>
<event>
 4    1  0.1571930E+006  0.2426099E+02  0.7546771E-02  0.1477243E+00
         21   -1    0    0  504  501  0.00000000000E+00  0.00000000000E+00  0.34568648663E+02  0.34568648663E+02  0.00000000000E+00 0. -1.
         21   -1    0    0  501  502 -0.00000000000E+00 -0.00000000000E+00 -0.23108272337E+03  0.23108272337E+03  0.00000000000E+00 0.  1.
         21    1    1    2  503  502  0.24170610930E+02  0.20922072900E+01 -0.22609560227E+03  0.22739352922E+03  0.00000000000E+00 0.  1.
         21    1    1    2  504  503 -0.24170610930E+02 -0.20922072900E+01  0.29581527562E+02  0.38257842816E+02  0.00000000000E+00 0. -1.
</event>
<event>
 4    1  0.1571930E+006  0.4060091E+02  0.7546771E-02  0.1345000E+00
         21   -1    0    0  504  501  0.00000000000E+00  0.00000000000E+00  0.27906017146E+04  0.27906017146E+04  0.00000000000E+00 0.  1.
         21   -1    0    0  501  502 -0.00000000000E+00 -0.00000000000E+00 -0.30252053243E+03  0.30252053243E+03  0.00000000000E+00 0.  1.
         21    1    1    2  503  502  0.39304817595E+02 -0.10176698505E+02 -0.30100986777E+03  0.30373569822E+03  0.00000000000E+00 0.  1.
         21    1    1    2  504  503 -0.39304817595E+02  0.10176698505E+02  0.27890910500E+04  0.27893865488E+04  0.00000000000E+00 0.  1.
</event>
<event>
 4    1  0.1571930E+006  0.2745309E+02  0.7546771E-02  0.1443109E+00
         21   -1    0    0  504  501  0.00000000000E+00  0.00000000000E+00  0.15489601707E+03  0.15489601707E+03  0.00000000000E+00 0. -1.
         21   -1    0    0  503  502 -0.00000000000E+00 -0.00000000000E+00 -0.12084095975E+02  0.12084095975E+02  0.00000000000E+00 0. -1.
         21    1    1    2  503  501  0.22589623174E+02  0.15600681336E+02  0.13593408413E+03  0.13867857643E+03  0.00000000000E+00 0. -1.
         21    1    1    2  504  502 -0.22589623174E+02 -0.15600681336E+02  0.68778369648E+01  0.28301536612E+02  0.00000000000E+00 0. -1.
</event>
<event>
 4    1  0.1571930E+006  0.2691682E+02  0.7546771E-02  0.1448445E+00
         21   -1    0    0  502  501  0.00000000000E+00  0.00000000000E+00  0.17752450000E+02  0.17752450000E+02  0.00000000000E+00 0.  1.
         21   -1    0    0  503  502 -0.00000000000E+00 -0.00000000000E+00 -0.31604687938E+03  0.31604687938E+03  0.00000000000E+00 0.  1.
         21    1    1    2  503  504  0.26884745141E+02 -0.13137302732E+01 -0.30489839198E+03  0.30608421201E+03  0.00000000000E+00 0.  1.
         21    1    1    2  504  501 -0.26884745141E+02  0.13137302732E+01  0.66039626059E+01  0.27715117366E+02  0.00000000000E+00 0.  1.
</event>
<event>
 4    1  0.1571930E+006  0.2038375E+02  0.7546771E-02  0.1528248E+00
         21   -1    0    0  502  501  0.00000000000E+00  0.00000000000E+00  0.15843257106E+03  0.15843257106E+03  0.00000000000E+00 0.  1.
         21   -1    0    0  504  502 -0.00000000000E+00 -0.00000000000E+00 -0.57891734600E+01  0.57891734600E+01  0.00000000000E+00 0. -1.
         21    1    1    2  503  501  0.17964808482E+02  0.96313513404E+01  0.13704992916E+03  0.13855749837E+03  0.00000000000E+00 0.  1.
         21    1    1    2  504  503 -0.17964808482E+02 -0.96313513404E+01  0.15593468445E+02  0.25664246152E+02  0.00000000000E+00 0. -1.
</event>
<event>
 4    1  0.1571930E+006  0.2063912E+02  0.7546771E-02  0.1524480E+00
         21   -1    0    0  502  501  0.00000000000E+00  0.00000000000E+00  0.10145609354E+03  0.10145609354E+03  0.00000000000E+00 0. -1.
         21   -1    0    0  504  502 -0.00000000000E+00 -0.00000000000E+00 -0.16431945404E+03  0.16431945404E+03  0.00000000000E+00 0.  1.
         21    1    1    2  503  501 -0.11587898335E+02  0.17079049038E+02  0.99747371304E+02  0.10186025420E+03  0.00000000000E+00 0. -1.
         21    1    1    2  504  503  0.11587898335E+02 -0.17079049038E+02 -0.16261073181E+03  0.16391529338E+03  0.00000000000E+00 0.  1.
</event>
<event>
 4    1  0.1571930E+006  0.2544646E+02  0.7546771E-02  0.1463870E+00
         21   -1    0    0  504  501  0.00000000000E+00  0.00000000000E+00  0.85736035601E+01  0.85736035601E+01  0.00000000000E+00 0.  1.
         21   -1    0    0  503  502 -0.00000000000E+00 -0.00000000000E+00 -0.11219436160E+03  0.11219436160E+03  0.00000000000E+00 0.  1.
         21    1    1    2  503  501  0.25177260707E+02 -0.36916242515E+01 -0.86331677775E+02  0.90003783997E+02  0.00000000000E+00 0.  1.
         21    1    1    2  504  502 -0.25177260707E+02  0.36916242515E+01 -0.17289080269E+02  0.30764181167E+02  0.00000000000E+00 0.  1.
</event>
<event>
 4    1  0.1571930E+006  0.4257809E+02  0.7546771E-02  0.1334006E+00
         21   -1    0    0  503  501  0.00000000000E+00  0.00000000000E+00  0.65117172876E+01  0.65117172876E+01  0.00000000000E+00 0. -1.
         21   -1    0    0  504  502 -0.00000000000E+00 -0.00000000000E+00 -0.28450757748E+03  0.28450757748E+03  0.00000000000E+00 0. -1.
         21    1    1    2  503  502  0.39461288677E+02  0.15990646787E+02 -0.16030896771E+03  0.16586699255E+03  0.00000000000E+00 0. -1.
         21    1    1    2  504  501 -0.39461288677E+02 -0.15990646787E+02 -0.11768689249E+03  0.12515230222E+03  0.00000000000E+00 0. -1.
</event>
<event>
 4    1  0.1571930E+006  0.2159606E+02  0.7546771E-02  0.1510922E+00
         21   -1    0    0  504  501  0.00000000000E+00  0.00000000000E+00  0.17366513524E+01  0.17366513524E+01  0.00000000000E+00 0. -1.
         21   -1    0    0  503  502 -0.00000000000E+00 -0.00000000000E+00 -0.35566949492E+03  0.35566949492E+03  0.00000000000E+00 0. -1.
         21    1    1    2  503  501 -0.98615688345E+00  0.21573534668E+02 -0.26540645569E+03  0.26628363942E+03  0.00000000000E+00 0. -1.
         21    1    1    2  504  502  0.98615688345E+00 -0.21573534668E+02 -0.88526387875E+02  0.91122506845E+02  0.00000000000E+00 0. -1.
</event>
<event>
 4    1  0.1571930E+006  0.5247032E+02  0.7546771E-02  0.1287803E+00
         21   -1    0    0  504  501  0.00000000000E+00  0.00000000000E+00  0.17341836423E+02  0.17341836423E+02  0.00000000000E+00 0. -1.
         21   -1    0    0  503  502 -0.00000000000E+00 -0.00000000000E+00 -0.18488738258E+03  0.18488738258E+03  0.00000000000E+00 0.  1.
         21    1    1    2  503  501  0.30177427090E+02  0.42923854022E+02 -0.45759534685E+02  0.69620897470E+02  0.00000000000E+00 0. -1.
         21    1    1    2  504  502 -0.30177427090E+02 -0.42923854022E+02 -0.12178601147E+03  0.13260832153E+03  0.00000000000E+00 0.  1.
</event>
<event>
 4    1  0.1571930E+006  0.2666514E+02  0.7546771E-02  0.1451001E+00
         21   -1    0    0  504  501  0.00000000000E+00  0.00000000000E+00  0.29902632032E+02  0.29902632032E+02  0.00000000000E+00 0.  1.
         21   -1    0    0  503  502 -0.00000000000E+00 -0.00000000000E+00 -0.24045982532E+02  0.24045982532E+02  0.00000000000E+00 0.  1.
         21    1    1    2  503  501 -0.79760548783E+01 -0.25444298860E+02  0.81593708610E-01  0.26665266799E+02  0.00000000000E+00 0.  1.
         21    1    1    2  504  502  0.79760548783E+01  0.25444298860E+02  0.57750557914E+01  0.27283347766E+02  0.00000000000E+00 0.  1.
</event>
<event>
 4    1  0.1571930E+006  0.2257619E+02  0.7546771E-02  0.1497890E+00
         21   -1    0    0  503  501  0.00000000000E+00  0.00000000000E+00  0.84698948400E+01  0.84698948400E+01  0.00000000000E+00 0. -1.
         21   -1    0    0  504  502 -0.00000000000E+00 -0.00000000000E+00 -0.10372679994E+03  0.10372679994E+03  0.00000000000E+00 0. -1.
         21    1    1    2  503  502 -0.22307290509E+02  0.34740554528E+01 -0.11278594689E+02  0.25236698859E+02  0.00000000000E+00 0. -1.
         21    1    1    2  504  501  0.22307290509E+02 -0.34740554528E+01 -0.83978310408E+02  0.86959995919E+02  0.00000000000E+00 0. -1.
</event>
<event>
 4    1  0.1571930E+006  0.2672038E+02  0.7546771E-02  0.1450437E+00
         21   -1    0    0  504  501  0.00000000000E+00  0.00000000000E+00  0.74780854598E+01  0.74780854598E+01  0.00000000000E+00 0. -1.
         21   -1    0    0  503  502 -0.00000000000E+00 -0.00000000000E+00 -0.98183832544E+02  0.98183832544E+02  0.00000000000E+00 0. -1.
         21    1    1    2  503  501 -0.32914441645E+01  0.26516884271E+02 -0.54126273827E+02  0.60362507192E+02  0.00000000000E+00 0. -1.
         21    1    1    2  504  502  0.32914441645E+01 -0.26516884271E+02 -0.36579473257E+02  0.45299410812E+02  0.00000000000E+00 0. -1.
</event>
<event>
 4    1  0.1571930E+006  0.2332909E+02  0.7546771E-02  0.1488407E+00
         21   -1    0    0  504  501  0.00000000000E+00  0.00000000000E+00  0.17959221988E+02  0.17959221988E+02  0.00000000000E+00 0. -1.
         21   -1    0    0  503  502 -0.00000000000E+00 -0.00000000000E+00 -0.20520730114E+03  0.20520730114E+03  0.00000000000E+00 0. -1.
         21    1    1    2  503  501  0.10203740516E+02  0.20979281331E+02 -0.19663915140E+03  0.19801818712E+03  0.00000000000E+00 0. -1.
         21    1    1    2  504  502 -0.10203740516E+02 -0.20979281331E+02  0.93910722548E+01  0.25148336004E+02  0.00000000000E+00 0. -1.
</event>
<event>
 4    1  0.1571930E+006  0.2040799E+02  0.7546771E-02  0.1527888E+00
         21   -1    0    0  502  501  0.00000000000E+00  0.00000000000E+00  0.53194871955E+02  0.53194871955E+02  0.00000000000E+00 0. -1.
         21   -1    0    0  503  502 -0.00000000000E+00 -0.00000000000E+00 -0.35239559351E+02  0.35239559351E+02  0.00000000000E+00 0. -1.
         21    1    1    2  503  504  0.17169769280E+02 -0.11031089194E+02 -0.30019383619E+02  0.36299439374E+02  0.00000000000E+00 0. -1.
         21    1    1    2  504  501 -0.17169769280E+02  0.11031089194E+02  0.47974696224E+02  0.52134991932E+02  0.00000000000E+00 0. -1.
</event>
<event>
 4    1  0.1571930E+006  0.2166662E+02  0.7546771E-02  0.1509956E+00
         21   -1    0    0  504  501  0.00000000000E+00  0.00000000000E+00  0.29068752077E+02  0.29068752077E+02  0.00000000000E+00 0.  1.
         21   -1    0    0  503  502 -0.00000000000E+00 -0.00000000000E+00 -0.85921408067E+02  0.85921408067E+02  0.00000000000E+00 0.  1.
         21    1    1    2  503  501 -0.21664878036E+02 -0.27470848374E+00  0.23384514575E+02  0.31879114275E+02  0.00000000000E+00 0.  1.
         21    1    1    2  504  502  0.21664878036E+02  0.27470848374E+00 -0.80237170565E+02  0.83111045869E+02  0.00000000000E+00 0.  1.
</event>
<event>
 4    1  0.1571930E+006  0.2956277E+02  0.7546771E-02  0.1423435E+00
         21   -1    0    0  503  501  0.00000000000E+00  0.00000000000E+00  0.92585682536E+02  0.92585682536E+02  0.00000000000E+00 0. -1.
         21   -1    0    0  504  502 -0.00000000000E+00 -0.00000000000E+00 -0.95181859018E+01  0.95181859018E+01  0.00000000000E+00 0. -1.
         21    1    1    2  503  502 -0.21788945913E+02  0.19979968782E+02  0.36890311745E+02  0.47274225718E+02  0.00000000000E+00 0. -1.
         21    1    1    2  504  501  0.21788945913E+02 -0.19979968782E+02  0.46177184889E+02  0.54829642720E+02  0.00000000000E+00 0. -1.
</event>
<event>
 4    1  0.1571930E+006  0.2732674E+02  0.7546771E-02  0.1444353E+00
         21   -1    0    0  504  501  0.00000000000E+00  0.00000000000E+00  0.33562069911E+03  0.33562069911E+03  0.00000000000E+00 0. -1.
         21   -1    0    0  503  502 -0.00000000000E+00 -0.00000000000E+00 -0.16662505823E+03  0.16662505823E+03  0.00000000000E+00 0.  1.
         21    1    1    2  503  501 -0.24330424190E+02  0.12441104168E+02 -0.16494277179E+03  0.16719111393E+03  0.00000000000E+00 0.  1.
         21    1    1    2  504  502  0.24330424190E+02 -0.12441104168E+02  0.33393841267E+03  0.33505464341E+03  0.00000000000E+00 0. -1.
</event>
<event>
 4    1  0.1571930E+006  0.2473305E+02  0.7546771E-02  0.1471812E+00
         21   -1    0    0  503  501  0.00000000000E+00  0.00000000000E+00  0.32990509939E+01  0.32990509939E+01  0.00000000000E+00 0.  1.
         21   -1    0    0  504  502 -0.00000000000E+00 -0.00000000000E+00 -0.30539814206E+03  0.30539814206E+03  0.00000000000E+00 0.  1.
         21    1    1    2  503  502 -0.69817544815E+01  0.23727179681E+02 -0.54308022325E+02  0.59674829201E+02  0.00000000000E+00 0.  1.
         21    1    1    2  504  501  0.69817544815E+01 -0.23727179681E+02 -0.24779106874E+03  0.24902236385E+03  0.00000000000E+00 0.  1.
</event>
<event>
 4    1  0.1571930E+006  0.2217991E+02  0.7546771E-02  0.1503061E+00
         21   -1    0    0  502  501  0.00000000000E+00  0.00000000000E+00  0.10492250657E+03  0.10492250657E+03  0.00000000000E+00 0. -1.
         21   -1    0    0  504  502 -0.00000000000E+00 -0.00000000000E+00 -0.50447174845E+01  0.50447174845E+01  0.00000000000E+00 0. -1.
         21    1    1    2  503  501  0.12505100453E+02 -0.18318593968E+02  0.64545879651E+02  0.68250413935E+02  0.00000000000E+00 0. -1.
         21    1    1    2  504  503 -0.12505100453E+02  0.18318593968E+02  0.35331909435E+02  0.41716810120E+02  0.00000000000E+00 0. -1.
</event>
<event>
 4    1  0.1571930E+006  0.3068314E+02  0.7546771E-02  0.1413751E+00
         21   -1    0    0  503  501  0.00000000000E+00  0.00000000000E+00  0.48522766841E+02  0.48522766841E+02  0.00000000000E+00 0. -1.
         21   -1    0    0  501  502 -0.00000000000E+00 -0.00000000000E+00 -0.34973915631E+03  0.34973915631E+03  0.00000000000E+00 0. -1.
         21    1    1    2  503  504 -0.12551328475E+01 -0.30657454180E+02  0.42920405865E+02  0.52759985736E+02  0.00000000000E+00 0. -1.
         21    1    1    2  504  502  0.12551328475E+01  0.30657454180E+02 -0.34413679533E+03  0.34550193741E+03  0.00000000000E+00 0. -1.
</event>
<event>
 4    1  0.1571930E+006  0.2104186E+02  0.7546771E-02  0.1518668E+00
         21   -1    0    0  502  501  0.00000000000E+00  0.00000000000E+00  0.16294818900E+02  0.16294818900E+02  0.00000000000E+00 0. -1.
         21   -1    0    0  503  502 -0.00000000000E+00 -0.00000000000E+00 -0.32931824742E+02  0.32931824742E+02  0.00000000000E+00 0. -1.
         21    1    1    2  503  504  0.18452073499E+02  0.10113410122E+02 -0.18612245481E+02  0.28092272293E+02  0.00000000000E+00 0. -1.
         21    1    1    2  504  501 -0.18452073499E+02 -0.10113410122E+02  0.19752396381E+01  0.21134371350E+02  0.00000000000E+00 0. -1.
</event>
<event>
 4    1  0.1571930E+006  0.2277514E+02  0.7546771E-02  0.1495341E+00
         21   -1    0    0  504  501  0.00000000000E+00  0.00000000000E+00  0.76060726814E+02  0.76060726814E+02  0.00000000000E+00 0. -1.
         21   -1    0    0  503  502 -0.00000000000E+00 -0.00000000000E+00 -0.42107243245E+02  0.42107243245E+02  0.00000000000E+00 0. -1.
         21    1    1    2  503  501 -0.22482034788E+00  0.22774027634E+02 -0.37111448071E+02  0.43542696940E+02  0.00000000000E+00 0. -1.
         21    1    1    2  504  502  0.22482034788E+00 -0.22774027634E+02  0.71064931641E+02  0.74625273119E+02  0.00000000000E+00 0. -1.
</event>
