<event>
 4    1  0.1848744E+004  0.2283873E+02  0.7546771E-02  0.1494533E+00
         21   -1    0    0  503  502  0.00000000000E+00  0.00000000000E+00  0.11003942891E+03  0.11003942891E+03  0.00000000000E+00 0.  1.
         21   -1    0    0  501  503 -0.00000000000E+00 -0.00000000000E+00 -0.49107682941E+01  0.49107682941E+01  0.00000000000E+00 0. -1.
          2    1    1    2  501    0  0.13351137825E+02  0.18529834415E+02  0.41852376534E+02  0.47678392027E+02  0.00000000000E+00 0. -1.
         -2    1    1    2    0  502 -0.13351137825E+02 -0.18529834415E+02  0.63276284079E+02  0.67271805175E+02  0.00000000000E+00 0.  1.
</event>
<event>
 4    1  0.1848744E+004  0.2135719E+02  0.7546771E-02  0.1514226E+00
         21   -1    0    0  501  502  0.00000000000E+00  0.00000000000E+00  0.15089437070E+02  0.15089437070E+02  0.00000000000E+00 0. -1.
         21   -1    0    0  502  503 -0.00000000000E+00 -0.00000000000E+00 -0.67278771753E+02  0.67278771753E+02  0.00000000000E+00 0.  1.
          2    1    1    2  501    0  0.46066805903E+00  0.21352218863E+02  0.44676944720E+01  0.21819481188E+02  0.00000000000E+00 0. -1.
         -2    1    1    2    0  503 -0.46066805903E+00 -0.21352218863E+02 -0.56657029155E+02  0.60548727634E+02  0.00000000000E+00 0.  1.
</event>
<event>
 4    1  0.1848744E+004  0.2373148E+02  0.7546771E-02  0.1483512E+00
         21   -1    0    0  501  502  0.00000000000E+00  0.00000000000E+00  0.21184713215E+02  0.21184713215E+02  0.00000000000E+00 0.  1.
         21   -1    0    0  502  503 -0.00000000000E+00 -0.00000000000E+00 -0.39963440402E+02  0.39963440402E+02  0.00000000000E+00 0. -1.
          2    1    1    2  501    0  0.14656634615E+02  0.18664568973E+02  0.83008982023E+01  0.25141360030E+02  0.00000000000E+00 0.  1.
         -2    1    1    2    0  503 -0.14656634615E+02 -0.18664568973E+02 -0.27079625389E+02  0.36006793587E+02  0.00000000000E+00 0. -1.
</event>
<event>
 4    1  0.1848744E+004  0.2776069E+02  0.7546771E-02  0.1440113E+00
         21   -1    0    0  501  502  0.00000000000E+00  0.00000000000E+00  0.50861163663E+02  0.50861163663E+02  0.00000000000E+00 0. -1.
         21   -1    0    0  502  503 -0.00000000000E+00 -0.00000000000E+00 -0.21883095515E+02  0.21883095515E+02  0.00000000000E+00 0.  1.
          2    1    1    2  501    0  0.22860369396E+02 -0.15749907665E+02 -0.56831223054E+01  0.28336442252E+02  0.00000000000E+00 0.  1.
         -2    1    1    2    0  503 -0.22860369396E+02  0.15749907665E+02  0.34661190454E+02  0.44407816925E+02  0.00000000000E+00 0. -1.
</event>
<event>
 4    1  0.1848744E+004  0.3064195E+02  0.7546771E-02  0.1414098E+00
         21   -1    0    0  501  502  0.00000000000E+00  0.00000000000E+00  0.30409547190E+01  0.30409547190E+01  0.00000000000E+00 0. -1.
         21   -1    0    0  502  503 -0.00000000000E+00 -0.00000000000E+00 -0.38349914445E+03  0.38349914445E+03  0.00000000000E+00 0.  1.
          2    1    1    2  501    0 -0.29036031695E+02  0.97896867511E+01 -0.10490873666E+03  0.10929214122E+03  0.00000000000E+00 0. -1.
         -2    1    1    2    0  503  0.29036031695E+02 -0.97896867511E+01 -0.27554945307E+03  0.27724795795E+03  0.00000000000E+00 0.  1.
</event>
<event>
 4    1  0.1848744E+004  0.2076039E+02  0.7546771E-02  0.1522713E+00
         21   -1    0    0  503  502  0.00000000000E+00  0.00000000000E+00  0.20109899093E+01  0.20109899093E+01  0.00000000000E+00 0.  1.
         21   -1    0    0  501  503 -0.00000000000E+00 -0.00000000000E+00 -0.22089489742E+03  0.22089489742E+03  0.00000000000E+00 0. -1.
          2    1    1    2  501    0 -0.14754586388E+02  0.14604662127E+02 -0.12867136063E+03  0.13033538668E+03  0.00000000000E+00 0. -1.
         -2    1    1    2    0  502  0.14754586388E+02 -0.14604662127E+02 -0.90212546884E+02  0.92570500650E+02  0.00000000000E+00 0.  1.
</event>
<event>
 4    1  0.1848744E+004  0.3036880E+02  0.7546771E-02  0.1416418E+00
         21   -1    0    0  501  502  0.00000000000E+00  0.00000000000E+00  0.31787134630E+02  0.31787134630E+02  0.00000000000E+00 0.  1.
         21   -1    0    0  502  503 -0.00000000000E+00 -0.00000000000E+00 -0.54398930593E+02  0.54398930593E+02  0.00000000000E+00 0. -1.
          2    1    1    2  501    0  0.16508192101E+02  0.25490066519E+02  0.18131676757E+02  0.35369783709E+02  0.00000000000E+00 0.  1.
         -2    1    1    2    0  503 -0.16508192101E+02 -0.25490066519E+02 -0.40743472720E+02  0.50816281514E+02  0.00000000000E+00 0. -1.
</event>
<event>
 4    1  0.1848744E+004  0.2124720E+02  0.7546771E-02  0.1515765E+00
         21   -1    0    0  501  502  0.00000000000E+00  0.00000000000E+00  0.20837990699E+02  0.20837990699E+02  0.00000000000E+00 0. -1.
         21   -1    0    0  502  503 -0.00000000000E+00 -0.00000000000E+00 -0.60438426725E+02  0.60438426725E+02  0.00000000000E+00 0.  1.
          2    1    1    2  501    0 -0.92116052563E+01 -0.19146541125E+02  0.12749567166E+02  0.24778925952E+02  0.00000000000E+00 0. -1.
         -2    1    1    2    0  503  0.92116052563E+01  0.19146541125E+02 -0.52350003192E+02  0.56497491472E+02  0.00000000000E+00 0.  1.
</event>
<event>
 4    1  0.1848744E+004  0.2194028E+02  0.7546771E-02  0.1506252E+00
         21   -1    0    0  503  502  0.00000000000E+00  0.00000000000E+00  0.13196062117E+02  0.13196062117E+02  0.00000000000E+00 0. -1.
         21   -1    0    0  501  503 -0.00000000000E+00 -0.00000000000E+00 -0.19581563565E+03  0.19581563565E+03  0.00000000000E+00 0.  1.
          2    1    1    2  501    0  0.16050765288E+02 -0.14958239896E+02 -0.18558012384E+03  0.18687257255E+03  0.00000000000E+00 0.  1.
         -2    1    1    2    0  502 -0.16050765288E+02  0.14958239896E+02  0.29605503087E+01  0.22139125214E+02  0.00000000000E+00 0. -1.
</event>
<event>
 4    1  0.1848744E+004  0.2556378E+02  0.7546771E-02  0.1462594E+00
         21   -1    0    0  501  502  0.00000000000E+00  0.00000000000E+00  0.42342374577E+01  0.42342374577E+01  0.00000000000E+00 0.  1.
         21   -1    0    0  502  503 -0.00000000000E+00 -0.00000000000E+00 -0.68826288172E+03  0.68826288172E+03  0.00000000000E+00 0. -1.
          2    1    1    2  501    0 -0.22933279719E+02  0.11294746307E+02 -0.37048896656E+02  0.45012524438E+02  0.00000000000E+00 0.  1.
         -2    1    1    2    0  503  0.22933279719E+02 -0.11294746307E+02 -0.64697974761E+03  0.64748459474E+03  0.00000000000E+00 0. -1.
</event>
<event>
 4    1  0.1848744E+004  0.3171744E+02  0.7546771E-02  0.1405237E+00
         21   -1    0    0  503  502  0.00000000000E+00  0.00000000000E+00  0.69522419382E+03  0.69522419382E+03  0.00000000000E+00 0. -1.
         21   -1    0    0  501  503 -0.00000000000E+00 -0.00000000000E+00 -0.25460117624E+02  0.25460117624E+02  0.00000000000E+00 0.  1.
          2    1    1    2  501    0  0.26502888750E+02 -0.17423913625E+02 -0.15070428900E+02  0.35115718778E+02  0.00000000000E+00 0.  1.
         -2    1    1    2    0  502 -0.26502888750E+02  0.17423913625E+02  0.68483450509E+03  0.68556859266E+03  0.00000000000E+00 0. -1.
</event>
<event>
 4    1  0.1848744E+004  0.3253985E+02  0.7546771E-02  0.1398736E+00
         21   -1    0    0  501  502  0.00000000000E+00  0.00000000000E+00  0.10141522418E+03  0.10141522418E+03  0.00000000000E+00 0. -1.
         21   -1    0    0  502  503 -0.00000000000E+00 -0.00000000000E+00 -0.57954406020E+02  0.57954406020E+02  0.00000000000E+00 0.  1.
          2    1    1    2  501    0  0.31232473508E+01  0.32389613961E+02  0.93881346916E+02  0.99360701815E+02  0.00000000000E+00 0. -1.
         -2    1    1    2    0  503 -0.31232473508E+01 -0.32389613961E+02 -0.50420528752E+02  0.60008928387E+02  0.00000000000E+00 0.  1.
</event>
<event>
 4    1  0.1848744E+004  0.2171971E+02  0.7546771E-02  0.1509232E+00
         21   -1    0    0  503  502  0.00000000000E+00  0.00000000000E+00  0.14212358229E+03  0.14212358229E+03  0.00000000000E+00 0. -1.
         21   -1    0    0  501  503 -0.00000000000E+00 -0.00000000000E+00 -0.43716601998E+01  0.43716601998E+01  0.00000000000E+00 0.  1.
          2    1    1    2  501    0 -0.36591607329E+01  0.21409260175E+02  0.32937482387E+02  0.39454069809E+02  0.00000000000E+00 0.  1.
         -2    1    1    2    0  502  0.36591607329E+01 -0.21409260175E+02  0.10481443971E+03  0.10704117268E+03  0.00000000000E+00 0. -1.
</event>
<event>
 4    1  0.1848744E+004  0.2830153E+02  0.7546771E-02  0.1434955E+00
         21   -1    0    0  501  502  0.00000000000E+00  0.00000000000E+00  0.14608465620E+02  0.14608465620E+02  0.00000000000E+00 0.  1.
         21   -1    0    0  502  503 -0.00000000000E+00 -0.00000000000E+00 -0.68861249063E+02  0.68861249063E+02  0.00000000000E+00 0. -1.
          2    1    1    2  501    0  0.14405565967E+02 -0.24360954152E+02 -0.82870490539E+01  0.29489855884E+02  0.00000000000E+00 0.  1.
         -2    1    1    2    0  503 -0.14405565967E+02  0.24360954152E+02 -0.45965734389E+02  0.53979858799E+02  0.00000000000E+00 0. -1.
</event>
<event>
 4    1  0.1848744E+004  0.2626677E+02  0.7546771E-02  0.1455116E+00
         21   -1    0    0  503  502  0.00000000000E+00  0.00000000000E+00  0.10930123272E+02  0.10930123272E+02  0.00000000000E+00 0.  1.
         21   -1    0    0  501  503 -0.00000000000E+00 -0.00000000000E+00 -0.18077585296E+03  0.18077585296E+03  0.00000000000E+00 0. -1.
          2    1    1    2  501    0  0.25982704711E+02 -0.38525443690E+01 -0.16225082086E+03  0.16436323163E+03  0.00000000000E+00 0. -1.
         -2    1    1    2    0  502 -0.25982704711E+02  0.38525443690E+01 -0.75949088275E+01  0.27342744601E+02  0.00000000000E+00 0.  1.
</event>
<event>
 4    1  0.1848744E+004  0.2342116E+02  0.7546771E-02  0.1487276E+00
         21   -1    0    0  501  502  0.00000000000E+00  0.00000000000E+00  0.46062380166E+02  0.46062380166E+02  0.00000000000E+00 0. -1.
         21   -1    0    0  502  503 -0.00000000000E+00 -0.00000000000E+00 -0.43253686266E+02  0.43253686266E+02  0.00000000000E+00 0.  1.
          2    1    1    2  501    0  0.18341012811E+02  0.14565649472E+02  0.39420738674E+02  0.45853522581E+02  0.00000000000E+00 0. -1.
         -2    1    1    2    0  503 -0.18341012811E+02 -0.14565649472E+02 -0.36612044774E+02  0.43462543851E+02  0.00000000000E+00 0.  1.
</event>
<event>
 4    1  0.1848744E+004  0.3792184E+02  0.7546771E-02  0.1361114E+00
         21   -1    0    0  503  502  0.00000000000E+00  0.00000000000E+00  0.11387811520E+03  0.11387811520E+03  0.00000000000E+00 0.  1.
         21   -1    0    0  501  503 -0.00000000000E+00 -0.00000000000E+00 -0.63571145848E+02  0.63571145848E+02  0.00000000000E+00 0. -1.
          2    1    1    2  501    0  0.25906311474E+02 -0.27693483762E+02 -0.54271395169E+02  0.66207630608E+02  0.00000000000E+00 0. -1.
         -2    1    1    2    0  502 -0.25906311474E+02  0.27693483762E+02  0.10457836452E+03  0.11124163044E+03  0.00000000000E+00 0.  1.
</event>
<event>
 4    1  0.1848744E+004  0.2127130E+02  0.7546771E-02  0.1515426E+00
         21   -1    0    0  501  502  0.00000000000E+00  0.00000000000E+00  0.69137092028E+01  0.69137092028E+01  0.00000000000E+00 0. -1.
         21   -1    0    0  502  503 -0.00000000000E+00 -0.00000000000E+00 -0.91610577192E+02  0.91610577192E+02  0.00000000000E+00 0.  1.
          2    1    1    2  501    0 -0.12796450717E+02 -0.16991737624E+02 -0.16021218243E+02  0.26629827871E+02  0.00000000000E+00 0. -1.
         -2    1    1    2    0  503  0.12796450717E+02  0.16991737624E+02 -0.68675649747E+02  0.71894458525E+02  0.00000000000E+00 0.  1.
</event>
<event>
 4    1  0.1848744E+004  0.3248256E+02  0.7546771E-02  0.1399181E+00
         21   -1    0    0  503  502  0.00000000000E+00  0.00000000000E+00  0.62451701231E+01  0.62451701231E+01  0.00000000000E+00 0. -1.
         21   -1    0    0  501  503 -0.00000000000E+00 -0.00000000000E+00 -0.17329727804E+03  0.17329727804E+03  0.00000000000E+00 0.  1.
          2    1    1    2  501    0  0.30392733669E+02 -0.11462925646E+02 -0.69306482164E+02  0.76540874010E+02  0.00000000000E+00 0.  1.
         -2    1    1    2    0  502 -0.30392733669E+02  0.11462925646E+02 -0.97745625757E+02  0.10300157416E+03  0.00000000000E+00 0. -1.
</event>
<event>
 4    1  0.1848744E+004  0.4044212E+02  0.7546771E-02  0.1345914E+00
         21   -1    0    0  501  502  0.00000000000E+00  0.00000000000E+00  0.35606267788E+02  0.35606267788E+02  0.00000000000E+00 0.  1.
         21   -1    0    0  502  503 -0.00000000000E+00 -0.00000000000E+00 -0.50580531453E+02  0.50580531453E+02  0.00000000000E+00 0. -1.
          2    1    1    2  501    0 -0.35657738411E+02 -0.19081162978E+02  0.55730236012E+01  0.40824302581E+02  0.00000000000E+00 0. -1.
         -2    1    1    2    0  503  0.35657738411E+02  0.19081162978E+02 -0.20547287266E+02  0.45362496659E+02  0.00000000000E+00 0.  1.
</event>
<event>
 4    1  0.1848744E+004  0.3252341E+02  0.7546771E-02  0.1398864E+00
         21   -1    0    0  503  502  0.00000000000E+00  0.00000000000E+00  0.19339527910E+02  0.19339527910E+02  0.00000000000E+00 0. -1.
         21   -1    0    0  501  503 -0.00000000000E+00 -0.00000000000E+00 -0.59595361915E+02  0.59595361915E+02  0.00000000000E+00 0.  1.
          2    1    1    2  501    0 -0.71438073644E+01 -0.31729133456E+02 -0.31445536113E+02  0.45239293043E+02  0.00000000000E+00 0.  1.
         -2    1    1    2    0  502  0.71438073644E+01  0.31729133456E+02 -0.88102978918E+01  0.33695596782E+02  0.00000000000E+00 0. -1.
</event>
<event>
 4    1  0.1848744E+004  0.2051061E+02  0.7546771E-02  0.1526368E+00
         21   -1    0    0  503  502  0.00000000000E+00  0.00000000000E+00  0.45158715349E+01  0.45158715349E+01  0.00000000000E+00 0.  1.
         21   -1    0    0  501  503 -0.00000000000E+00 -0.00000000000E+00 -0.26111868564E+03  0.26111868564E+03  0.00000000000E+00 0. -1.
          2    1    1    2  501    0  0.12608489769E+02  0.16177488568E+02 -0.23482374352E+03  0.23571778820E+03  0.00000000000E+00 0. -1.
         -2    1    1    2    0  502 -0.12608489769E+02 -0.16177488568E+02 -0.21779070584E+02  0.29916768979E+02  0.00000000000E+00 0.  1.
</event>
<event>
 4    1  0.1848744E+004  0.3312801E+02  0.7546771E-02  0.1394224E+00
         21   -1    0    0  501  502  0.00000000000E+00  0.00000000000E+00  0.71012220757E+01  0.71012220757E+01  0.00000000000E+00 0.  1.
         21   -1    0    0  502  503 -0.00000000000E+00 -0.00000000000E+00 -0.15709574248E+03  0.15709574248E+03  0.00000000000E+00 0. -1.
          2    1    1    2  501    0  0.13520584329E+02 -0.30243325982E+02 -0.64537852897E+02  0.72543775912E+02  0.00000000000E+00 0.  1.
         -2    1    1    2    0  503 -0.13520584329E+02  0.30243325982E+02 -0.85456667508E+02  0.91653188644E+02  0.00000000000E+00 0. -1.
</event>
<event>
 4    1  0.1848744E+004  0.2636351E+02  0.7546771E-02  0.1454109E+00
         21   -1    0    0  501  502  0.00000000000E+00  0.00000000000E+00  0.12459942398E+02  0.12459942398E+02  0.00000000000E+00 0.  1.
         21   -1    0    0  502  503 -0.00000000000E+00 -0.00000000000E+00 -0.20068449050E+03  0.20068449050E+03  0.00000000000E+00 0. -1.
          2    1    1    2  501    0  0.52924133873E+01  0.25826831733E+02 -0.35545091041E+01  0.26602056533E+02  0.00000000000E+00 0.  1.
         -2    1    1    2    0  503 -0.52924133873E+01 -0.25826831733E+02 -0.18467003900E+03  0.18654237636E+03  0.00000000000E+00 0. -1.
</event>
<event>
 4    1  0.1848744E+004  0.2019771E+02  0.7546771E-02  0.1531035E+00
         21   -1    0    0  503  502  0.00000000000E+00  0.00000000000E+00  0.69758170853E+03  0.69758170853E+03  0.00000000000E+00 0. -1.
         21   -1    0    0  501  503 -0.00000000000E+00 -0.00000000000E+00 -0.10215346214E+01  0.10215346214E+01  0.00000000000E+00 0.  1.
          2    1    1    2  501    0  0.10376493624E+02 -0.17328473244E+02  0.11988772868E+03  0.12157719808E+03  0.00000000000E+00 0.  1.
         -2    1    1    2    0  502 -0.10376493624E+02  0.17328473244E+02  0.57667244523E+03  0.57702604507E+03  0.00000000000E+00 0. -1.
</event>
<event>
 4    1  0.1848744E+004  0.2103030E+02  0.7546771E-02  0.1518833E+00
         21   -1    0    0  503  502  0.00000000000E+00  0.00000000000E+00  0.17187873834E+03  0.17187873834E+03  0.00000000000E+00 0. -1.
         21   -1    0    0  501  503 -0.00000000000E+00 -0.00000000000E+00 -0.28576297585E+01  0.28576297585E+01  0.00000000000E+00 0.  1.
          2    1    1    2  501    0 -0.61791387212E+01  0.20102029530E+02  0.11207569127E+03  0.11403172331E+03  0.00000000000E+00 0. -1.
         -2    1    1    2    0  502  0.61791387212E+01 -0.20102029530E+02  0.56945417313E+02  0.60704644794E+02  0.00000000000E+00 0.  1.
</event>
<event>
 4    1  0.1848744E+004  0.2300930E+02  0.7546771E-02  0.1492381E+00
         21   -1    0    0  501  502  0.00000000000E+00  0.00000000000E+00  0.40966375383E+02  0.40966375383E+02  0.00000000000E+00 0. -1.
         21   -1    0    0  502  503 -0.00000000000E+00 -0.00000000000E+00 -0.15492372761E+02  0.15492372761E+02  0.00000000000E+00 0.  1.
          2    1    1    2  501    0  0.17648433338E+02 -0.14763489097E+02  0.24232185496E+02  0.33415963603E+02  0.00000000000E+00 0. -1.
         -2    1    1    2    0  503 -0.17648433338E+02  0.14763489097E+02  0.12418171263E+01  0.23042784541E+02  0.00000000000E+00 0.  1.
</event>
<event>
 4    1  0.1848744E+004  0.2331663E+02  0.7546771E-02  0.1488560E+00
         21   -1    0    0  503  502  0.00000000000E+00  0.00000000000E+00  0.85766232785E+00  0.85766232785E+00  0.00000000000E+00 0.  1.
         21   -1    0    0  501  503 -0.00000000000E+00 -0.00000000000E+00 -0.92832973836E+03  0.92832973836E+03  0.00000000000E+00 0. -1.
          2    1    1    2  501    0  0.10959402481E+02  0.20580497901E+02 -0.72538488707E+03  0.72575953303E+03  0.00000000000E+00 0. -1.
         -2    1    1    2    0  502 -0.10959402481E+02 -0.20580497901E+02 -0.20208718896E+03  0.20342786766E+03  0.00000000000E+00 0.  1.
</event>
<event>
 4    1  0.1848744E+004  0.2008509E+02  0.7546771E-02  0.1532739E+00
         21   -1    0    0  501  502  0.00000000000E+00  0.00000000000E+00  0.24545037213E+02  0.24545037213E+02  0.00000000000E+00 0.  1.
         21   -1    0    0  502  503 -0.00000000000E+00 -0.00000000000E+00 -0.47364664306E+02  0.47364664306E+02  0.00000000000E+00 0. -1.
          2    1    1    2  501    0 -0.14162652815E+02 -0.14241838575E+02  0.17644735511E+02  0.26734759995E+02  0.00000000000E+00 0.  1.
         -2    1    1    2    0  503  0.14162652815E+02  0.14241838575E+02 -0.40464362603E+02  0.45174941524E+02  0.00000000000E+00 0. -1.
</event>
<event>
 4    1  0.1848744E+004  0.3519398E+02  0.7546771E-02  0.1379205E+00
         21   -1    0    0  501  502  0.00000000000E+00  0.00000000000E+00  0.23570424302E+02  0.23570424302E+02  0.00000000000E+00 0.  1.
         21   -1    0    0  502  503 -0.00000000000E+00 -0.00000000000E+00 -0.12349244556E+03  0.12349244556E+03  0.00000000000E+00 0. -1.
          2    1    1    2  501    0  0.27987920406E+02 -0.21337589190E+02  0.57713121214E+01  0.35664049752E+02  0.00000000000E+00 0.  1.
         -2    1    1    2    0  503 -0.27987920406E+02  0.21337589190E+02 -0.10569333338E+03  0.11139882011E+03  0.00000000000E+00 0. -1.
</event>
<event>
 4    1  0.1848744E+004  0.2625525E+02  0.7546771E-02  0.1455236E+00
         21   -1    0    0  503  502  0.00000000000E+00  0.00000000000E+00  0.27567570127E+01  0.27567570127E+01  0.00000000000E+00 0. -1.
         21   -1    0    0  501  503 -0.00000000000E+00 -0.00000000000E+00 -0.30019492956E+03  0.30019492956E+03  0.00000000000E+00 0.  1.
          2    1    1    2  501    0 -0.10992682972E+02  0.23843215228E+02 -0.21062584872E+03  0.21225594489E+03  0.00000000000E+00 0.  1.
         -2    1    1    2    0  502  0.10992682972E+02 -0.23843215228E+02 -0.86812323821E+02  0.90695741678E+02  0.00000000000E+00 0. -1.
</event>
<event>
 4    1  0.1848744E+004  0.2020757E+02  0.7546771E-02  0.1530886E+00
         21   -1    0    0  503  502  0.00000000000E+00  0.00000000000E+00  0.42623121512E+01  0.42623121512E+01  0.00000000000E+00 0. -1.
         21   -1    0    0  501  503 -0.00000000000E+00 -0.00000000000E+00 -0.21128319031E+03  0.21128319031E+03  0.00000000000E+00 0.  1.
          2    1    1    2  501    0  0.12369833052E+02 -0.15979150297E+02 -0.18318663663E+03  0.18429782922E+03  0.00000000000E+00 0.  1.
         -2    1    1    2    0  502 -0.12369833052E+02  0.15979150297E+02 -0.23834241528E+02  0.31247673244E+02  0.00000000000E+00 0. -1.
</event>
<event>
 4    1  0.1848744E+004  0.2340515E+02  0.7546771E-02  0.1487472E+00
         21   -1    0    0  503  502  0.00000000000E+00  0.00000000000E+00  0.58599651575E+01  0.58599651575E+01  0.00000000000E+00 0. -1.
         21   -1    0    0  501  503 -0.00000000000E+00 -0.00000000000E+00 -0.30662073825E+03  0.30662073825E+03  0.00000000000E+00 0.  1.
          2    1    1    2  501    0  0.22868300228E+02 -0.49841737938E+01 -0.28064416204E+03  0.28161844193E+03  0.00000000000E+00 0.  1.
         -2    1    1    2    0  502 -0.22868300228E+02  0.49841737938E+01 -0.20116611053E+02  0.30862261486E+02  0.00000000000E+00 0. -1.
</event>
<event>
 4    1  0.1848744E+004  0.2823005E+02  0.7546771E-02  0.1435628E+00
         21   -1    0    0  503  502  0.00000000000E+00  0.00000000000E+00  0.35889186333E+01  0.35889186333E+01  0.00000000000E+00 0. -1.
         21   -1    0    0  501  503 -0.00000000000E+00 -0.00000000000E+00 -0.24529371647E+03  0.24529371647E+03  0.00000000000E+00 0.  1.
          2    1    1    2  501    0 -0.11019065797E+02 -0.25990690168E+02 -0.15915528238E+03  0.16163953630E+03  0.00000000000E+00 0.  1.
         -2    1    1    2    0  502  0.11019065797E+02  0.25990690168E+02 -0.82549515465E+02  0.87243098810E+02  0.00000000000E+00 0. -1.
</event>
<event>
 4    1  0.1848744E+004  0.2288792E+02  0.7546771E-02  0.1493910E+00
         21   -1    0    0  503  502  0.00000000000E+00  0.00000000000E+00  0.60300805542E+02  0.60300805542E+02  0.00000000000E+00 0. -1.
         21   -1    0    0  501  503 -0.00000000000E+00 -0.00000000000E+00 -0.28946337587E+02  0.28946337587E+02  0.00000000000E+00 0.  1.
          2    1    1    2  501    0  0.22760750559E+02 -0.24094247624E+01 -0.21654303048E+02  0.31508188368E+02  0.00000000000E+00 0.  1.
         -2    1    1    2    0  502 -0.22760750559E+02  0.24094247624E+01  0.53008771003E+02  0.57738954761E+02  0.00000000000E+00 0. -1.
</event>
<event>
 4    1  0.1848744E+004  0.2765770E+02  0.7546771E-02  0.1441111E+00
         21   -1    0    0  503  502  0.00000000000E+00  0.00000000000E+00  0.30116552713E+03  0.30116552713E+03  0.00000000000E+00 0.  1.
         21   -1    0    0  501  503 -0.00000000000E+00 -0.00000000000E+00 -0.26495884735E+01  0.26495884735E+01  0.00000000000E+00 0. -1.
          2    1    1    2  501    0 -0.27616254774E+02 -0.15135028668E+01  0.11835835961E+03  0.12154690251E+03  0.00000000000E+00 0. -1.
         -2    1    1    2    0  502  0.27616254774E+02  0.15135028668E+01  0.18015757904E+03  0.18226821309E+03  0.00000000000E+00 0.  1.
</event>
<event>
 4    1  0.1848744E+004  0.2299727E+02  0.7546771E-02  0.1492532E+00
         21   -1    0    0  501  502  0.00000000000E+00  0.00000000000E+00  0.19415611309E+03  0.19415611309E+03  0.00000000000E+00 0. -1.
         21   -1    0    0  502  503 -0.00000000000E+00 -0.00000000000E+00 -0.54176990657E+02  0.54176990657E+02  0.00000000000E+00 0.  1.
          2    1    1    2  501    0 -0.12809210768E+02  0.19099699456E+02  0.19099437351E+03  0.19237392004E+03  0.00000000000E+00 0. -1.
         -2    1    1    2    0  503  0.12809210768E+02 -0.19099699456E+02 -0.51015251071E+02  0.55959183711E+02  0.00000000000E+00 0.  1.
</event>
<event>
 4    1  0.1848744E+004  0.2614389E+02  0.7546771E-02  0.1456403E+00
         21   -1    0    0  501  502  0.00000000000E+00  0.00000000000E+00  0.15278619456E+03  0.15278619456E+03  0.00000000000E+00 0.  1.
         21   -1    0    0  502  503 -0.00000000000E+00 -0.00000000000E+00 -0.45498915792E+01  0.45498915792E+01  0.00000000000E+00 0. -1.
          2    1    1    2  501    0  0.21923683782E+02  0.14242724579E+02  0.63930863329E+02  0.69069952946E+02  0.00000000000E+00 0. -1.
         -2    1    1    2    0  503 -0.21923683782E+02 -0.14242724579E+02  0.84305439654E+02  0.88266133195E+02  0.00000000000E+00 0.  1.
</event>
<event>
 4    1  0.1848744E+004  0.2385653E+02  0.7546771E-02  0.1482014E+00
         21   -1    0    0  501  502  0.00000000000E+00  0.00000000000E+00  0.12302791762E+03  0.12302791762E+03  0.00000000000E+00 0.  1.
         21   -1    0    0  502  503 -0.00000000000E+00 -0.00000000000E+00 -0.34330030569E+02  0.34330030569E+02  0.00000000000E+00 0. -1.
          2    1    1    2  501    0  0.12990312518E+02  0.20009644845E+02  0.11753508847E+03  0.11993177698E+03  0.00000000000E+00 0.  1.
         -2    1    1    2    0  503 -0.12990312518E+02 -0.20009644845E+02 -0.28837201420E+02  0.37426171216E+02  0.00000000000E+00 0. -1.
</event>
<event>
 4    1  0.1848744E+004  0.2062152E+02  0.7546771E-02  0.1524738E+00
         21   -1    0    0  503  502  0.00000000000E+00  0.00000000000E+00  0.87680696350E+03  0.87680696350E+03  0.00000000000E+00 0.  1.
         21   -1    0    0  501  503 -0.00000000000E+00 -0.00000000000E+00 -0.10457737397E+01  0.10457737397E+01  0.00000000000E+00 0. -1.
          2    1    1    2  501    0 -0.18956528064E+02  0.81177127511E+01  0.11646386558E+03  0.11827543787E+03  0.00000000000E+00 0. -1.
         -2    1    1    2    0  502  0.18956528064E+02 -0.81177127511E+01  0.75929732418E+03  0.75957729937E+03  0.00000000000E+00 0.  1.
</event>
<event>
 4    1  0.1848744E+004  0.2275734E+02  0.7546771E-02  0.1495568E+00
         21   -1    0    0  503  502  0.00000000000E+00  0.00000000000E+00  0.92881468310E+03  0.92881468310E+03  0.00000000000E+00 0.  1.
         21   -1    0    0  501  503 -0.00000000000E+00 -0.00000000000E+00 -0.27953495594E+01  0.27953495594E+01  0.00000000000E+00 0. -1.
          2    1    1    2  501    0 -0.21986302725E+02  0.58735884542E+01  0.46243036887E+02  0.51539451000E+02  0.00000000000E+00 0. -1.
         -2    1    1    2    0  502  0.21986302725E+02 -0.58735884542E+01  0.87977629665E+03  0.88007058166E+03  0.00000000000E+00 0.  1.
</event>
<event>
 4    1  0.1848744E+004  0.2155250E+02  0.7546771E-02  0.1511521E+00
         21   -1    0    0  501  502  0.00000000000E+00  0.00000000000E+00  0.52966461152E+00  0.52966461152E+00  0.00000000000E+00 0.  1.
         21   -1    0    0  502  503 -0.00000000000E+00 -0.00000000000E+00 -0.11591255263E+04  0.11591255263E+04  0.00000000000E+00 0. -1.
          2    1    1    2  501    0  0.99024727607E+01  0.19142916844E+02 -0.29323405329E+03  0.29402503336E+03  0.00000000000E+00 0. -1.
         -2    1    1    2    0  503 -0.99024727607E+01 -0.19142916844E+02 -0.86536180842E+03  0.86563015757E+03  0.00000000000E+00 0.  1.
</event>
<event>
 4    1  0.1848744E+004  0.2071224E+02  0.7546771E-02  0.1523413E+00
         21   -1    0    0  501  502  0.00000000000E+00  0.00000000000E+00  0.86509406643E+02  0.86509406643E+02  0.00000000000E+00 0. -1.
         21   -1    0    0  502  503 -0.00000000000E+00 -0.00000000000E+00 -0.71536725355E+01  0.71536725355E+01  0.00000000000E+00 0.  1.
          2    1    1    2  501    0 -0.16735694035E+02  0.12203011180E+02  0.65617417439E+02  0.68808737876E+02  0.00000000000E+00 0. -1.
         -2    1    1    2    0  503  0.16735694035E+02 -0.12203011180E+02  0.13738316669E+02  0.24854341303E+02  0.00000000000E+00 0.  1.
</event>
<event>
 4    1  0.1848744E+004  0.2240505E+02  0.7546771E-02  0.1500107E+00
         21   -1    0    0  501  502  0.00000000000E+00  0.00000000000E+00  0.87198397674E+01  0.87198397674E+01  0.00000000000E+00 0.  1.
         21   -1    0    0  502  503 -0.00000000000E+00 -0.00000000000E+00 -0.12981717310E+03  0.12981717310E+03  0.00000000000E+00 0. -1.
          2    1    1    2  501    0  0.14550331091E+02  0.17037427541E+02 -0.88730836907E+01  0.24098084701E+02  0.00000000000E+00 0.  1.
         -2    1    1    2    0  503 -0.14550331091E+02 -0.17037427541E+02 -0.11222424964E+03  0.11443892816E+03  0.00000000000E+00 0. -1.
</event>
<event>
 4    1  0.1848744E+004  0.5427505E+02  0.7546771E-02  0.1280630E+00
         21   -1    0    0  503  502  0.00000000000E+00  0.00000000000E+00  0.27527720150E+03  0.27527720150E+03  0.00000000000E+00 0.  1.
         21   -1    0    0  501  503 -0.00000000000E+00 -0.00000000000E+00 -0.11037866316E+02  0.11037866316E+02  0.00000000000E+00 0. -1.
          2    1    1    2  501    0  0.54262057641E+02  0.11875566650E+01  0.10711580608E+03  0.12008154355E+03  0.00000000000E+00 0. -1.
         -2    1    1    2    0  502 -0.54262057641E+02 -0.11875566650E+01  0.15712352911E+03  0.16623352426E+03  0.00000000000E+00 0.  1.
</event>
<event>
 4    1  0.1848744E+004  0.2886306E+02  0.7546771E-02  0.1429740E+00
         21   -1    0    0  503  502  0.00000000000E+00  0.00000000000E+00  0.89380771774E+02  0.89380771774E+02  0.00000000000E+00 0. -1.
         21   -1    0    0  501  503 -0.00000000000E+00 -0.00000000000E+00 -0.16666643245E+02  0.16666643245E+02  0.00000000000E+00 0.  1.
          2    1    1    2  501    0 -0.24261422832E+02  0.15635203592E+02  0.11544586920E+01  0.28886138615E+02  0.00000000000E+00 0.  1.
         -2    1    1    2    0  502  0.24261422832E+02 -0.15635203592E+02  0.71559669837E+02  0.77161276404E+02  0.00000000000E+00 0. -1.
</event>
<event>
 4    1  0.1848744E+004  0.2206628E+02  0.7546771E-02  0.1504568E+00
         21   -1    0    0  503  502  0.00000000000E+00  0.00000000000E+00  0.35123368688E+01  0.35123368688E+01  0.00000000000E+00 0.  1.
         21   -1    0    0  501  503 -0.00000000000E+00 -0.00000000000E+00 -0.24957143105E+03  0.24957143105E+03  0.00000000000E+00 0. -1.
          2    1    1    2  501    0  0.12517053167E+02  0.18172619463E+02 -0.20739811970E+03  0.20856869557E+03  0.00000000000E+00 0. -1.
         -2    1    1    2    0  502 -0.12517053167E+02 -0.18172619463E+02 -0.38660974485E+02  0.44515072349E+02  0.00000000000E+00 0.  1.
</event>
<event>
 4    1  0.1848744E+004  0.2206772E+02  0.7546771E-02  0.1504549E+00
         21   -1    0    0  503  502  0.00000000000E+00  0.00000000000E+00  0.28605376144E+02  0.28605376144E+02  0.00000000000E+00 0.  1.
         21   -1    0    0  501  503 -0.00000000000E+00 -0.00000000000E+00 -0.17108278208E+02  0.17108278208E+02  0.00000000000E+00 0. -1.
          2    1    1    2  501    0  0.48765043164E+01  0.21522172969E+02  0.73506954652E+01  0.23259771011E+02  0.00000000000E+00 0.  1.
         -2    1    1    2    0  502 -0.48765043164E+01 -0.21522172969E+02  0.41464024712E+01  0.22453883341E+02  0.00000000000E+00 0. -1.
</event>
<event>
 4    1  0.1848744E+004  0.2568893E+02  0.7546771E-02  0.1461242E+00
         21   -1    0    0  501  502  0.00000000000E+00  0.00000000000E+00  0.21836379884E+01  0.21836379884E+01  0.00000000000E+00 0. -1.
         21   -1    0    0  502  503 -0.00000000000E+00 -0.00000000000E+00 -0.10708680083E+04  0.10708680083E+04  0.00000000000E+00 0.  1.
          2    1    1    2  501    0  0.12057615589E+02 -0.22683368371E+02 -0.79784807983E+02  0.83818475762E+02  0.00000000000E+00 0. -1.
         -2    1    1    2    0  503 -0.12057615589E+02  0.22683368371E+02 -0.98889956230E+03  0.98923317049E+03  0.00000000000E+00 0.  1.
</event>
<event>
 4    1  0.1848744E+004  0.2134789E+02  0.7546771E-02  0.1514355E+00
         21   -1    0    0  503  502  0.00000000000E+00  0.00000000000E+00  0.14466127134E+02  0.14466127134E+02  0.00000000000E+00 0.  1.
         21   -1    0    0  501  503 -0.00000000000E+00 -0.00000000000E+00 -0.49464470926E+02  0.49464470926E+02  0.00000000000E+00 0. -1.
          2    1    1    2  501    0  0.14614182487E+02  0.15561432112E+02 -0.36761019507E+02  0.42510058272E+02  0.00000000000E+00 0. -1.
         -2    1    1    2    0  502 -0.14614182487E+02 -0.15561432112E+02  0.17626757150E+01  0.21420539788E+02  0.00000000000E+00 0.  1.
</event>
<event>
 4    1  0.1848744E+004  0.2241575E+02  0.7546771E-02  0.1499968E+00
         21   -1    0    0  501  502  0.00000000000E+00  0.00000000000E+00  0.78869702884E+03  0.78869702884E+03  0.00000000000E+00 0.  1.
         21   -1    0    0  502  503 -0.00000000000E+00 -0.00000000000E+00 -0.44049559907E+01  0.44049559907E+01  0.00000000000E+00 0. -1.
          2    1    1    2  501    0  0.16822357787E+02 -0.14814665727E+02  0.75890128680E+03  0.75923226298E+03  0.00000000000E+00 0.  1.
         -2    1    1    2    0  503 -0.16822357787E+02  0.14814665727E+02  0.25390786051E+02  0.33869721853E+02  0.00000000000E+00 0. -1.
</event>
<event>
 4    1  0.1848744E+004  0.2939752E+02  0.7546771E-02  0.1424905E+00
         21   -1    0    0  501  502  0.00000000000E+00  0.00000000000E+00  0.36577992109E+01  0.36577992109E+01  0.00000000000E+00 0. -1.
         21   -1    0    0  502  503 -0.00000000000E+00 -0.00000000000E+00 -0.63011120839E+03  0.63011120839E+03  0.00000000000E+00 0.  1.
          2    1    1    2  501    0 -0.28977254235E+02 -0.49530658268E+01 -0.62699379269E+02  0.69249016490E+02  0.00000000000E+00 0. -1.
         -2    1    1    2    0  503  0.28977254235E+02  0.49530658268E+01 -0.56375402991E+03  0.56451999112E+03  0.00000000000E+00 0.  1.
</event>
<event>
 4    1  0.1848744E+004  0.3757092E+02  0.7546771E-02  0.1363340E+00
         21   -1    0    0  503  502  0.00000000000E+00  0.00000000000E+00  0.62297725516E+02  0.62297725516E+02  0.00000000000E+00 0. -1.
         21   -1    0    0  501  503 -0.00000000000E+00 -0.00000000000E+00 -0.35295957201E+03  0.35295957201E+03  0.00000000000E+00 0.  1.
          2    1    1    2  501    0  0.69192903142E+01  0.36928272664E+02 -0.34618459612E+03  0.34821738683E+03  0.00000000000E+00 0.  1.
         -2    1    1    2    0  502 -0.69192903142E+01 -0.36928272664E+02  0.55522749625E+02  0.67039910697E+02  0.00000000000E+00 0. -1.
</event>
<event>
 4    1  0.1848744E+004  0.2134613E+02  0.7546771E-02  0.1514380E+00
         21   -1    0    0  501  502  0.00000000000E+00  0.00000000000E+00  0.54952543722E+01  0.54952543722E+01  0.00000000000E+00 0. -1.
         21   -1    0    0  502  503 -0.00000000000E+00 -0.00000000000E+00 -0.83765700166E+02  0.83765700166E+02  0.00000000000E+00 0.  1.
          2    1    1    2  501    0  0.12907346781E+02  0.17001697662E+02 -0.43624067709E+02  0.48566620304E+02  0.00000000000E+00 0.  1.
         -2    1    1    2    0  503 -0.12907346781E+02 -0.17001697662E+02 -0.34646378085E+02  0.40694334233E+02  0.00000000000E+00 0. -1.
</event>
<event>
 4    1  0.1848744E+004  0.2462809E+02  0.7546771E-02  0.1473007E+00
         21   -1    0    0  501  502  0.00000000000E+00  0.00000000000E+00  0.31817021861E+02  0.31817021861E+02  0.00000000000E+00 0.  1.
         21   -1    0    0  502  503 -0.00000000000E+00 -0.00000000000E+00 -0.19673135446E+02  0.19673135446E+02  0.00000000000E+00 0. -1.
          2    1    1    2  501    0 -0.20812568300E+02 -0.13167378351E+02  0.10604081034E+02  0.26813977446E+02  0.00000000000E+00 0.  1.
         -2    1    1    2    0  503  0.20812568300E+02  0.13167378351E+02  0.15398053811E+01  0.24676179861E+02  0.00000000000E+00 0. -1.
</event>
<event>
 4    1  0.1848744E+004  0.2750389E+02  0.7546771E-02  0.1442611E+00
         21   -1    0    0  503  502  0.00000000000E+00  0.00000000000E+00  0.13604437156E+01  0.13604437156E+01  0.00000000000E+00 0. -1.
         21   -1    0    0  501  503 -0.00000000000E+00 -0.00000000000E+00 -0.55621441172E+03  0.55621441172E+03  0.00000000000E+00 0.  1.
          2    1    1    2  501    0 -0.15297104940E+02 -0.22857435722E+02 -0.28233593132E+03  0.28367242005E+03  0.00000000000E+00 0.  1.
         -2    1    1    2    0  502  0.15297104940E+02  0.22857435722E+02 -0.27251803669E+03  0.27390243538E+03  0.00000000000E+00 0. -1.
</event>
<event>
 4    1  0.1848744E+004  0.5817524E+02  0.7546771E-02  0.1266162E+00
         21   -1    0    0  501  502  0.00000000000E+00  0.00000000000E+00  0.11178249465E+03  0.11178249465E+03  0.00000000000E+00 0. -1.
         21   -1    0    0  502  503 -0.00000000000E+00 -0.00000000000E+00 -0.30532664139E+02  0.30532664139E+02  0.00000000000E+00 0.  1.
          2    1    1    2  501    0  0.42144213282E+02  0.40102661211E+02  0.47145462896E+02  0.74880256550E+02  0.00000000000E+00 0.  1.
         -2    1    1    2    0  503 -0.42144213282E+02 -0.40102661211E+02  0.34104367611E+02  0.67434902236E+02  0.00000000000E+00 0. -1.
</event>
<event>
 4    1  0.1848744E+004  0.2039889E+02  0.7546771E-02  0.1528023E+00
         21   -1    0    0  503  502  0.00000000000E+00  0.00000000000E+00  0.44719505628E+02  0.44719505628E+02  0.00000000000E+00 0.  1.
         21   -1    0    0  501  503 -0.00000000000E+00 -0.00000000000E+00 -0.25958977977E+02  0.25958977977E+02  0.00000000000E+00 0. -1.
          2    1    1    2  501    0 -0.18736256928E+02 -0.80664294891E+01 -0.18925347552E+02  0.27825948112E+02  0.00000000000E+00 0. -1.
         -2    1    1    2    0  502  0.18736256928E+02  0.80664294891E+01  0.37685875203E+02  0.42852535493E+02  0.00000000000E+00 0.  1.
</event>
<event>
 4    1  0.1848744E+004  0.3832138E+02  0.7546771E-02  0.1358613E+00
         21   -1    0    0  501  502  0.00000000000E+00  0.00000000000E+00  0.92066459454E+02  0.92066459454E+02  0.00000000000E+00 0.  1.
         21   -1    0    0  502  503 -0.00000000000E+00 -0.00000000000E+00 -0.15957252704E+02  0.15957252704E+02  0.00000000000E+00 0. -1.
          2    1    1    2  501    0  0.39882073105E+01  0.38113279620E+02  0.39146020646E+02  0.54780825235E+02  0.00000000000E+00 0.  1.
         -2    1    1    2    0  503 -0.39882073105E+01 -0.38113279620E+02  0.36963186104E+02  0.53242886924E+02  0.00000000000E+00 0. -1.
</event>
<event>
 4    1  0.1848744E+004  0.2109798E+02  0.7546771E-02  0.1517870E+00
         21   -1    0    0  501  502  0.00000000000E+00  0.00000000000E+00  0.43332249204E+01  0.43332249204E+01  0.00000000000E+00 0.  1.
         21   -1    0    0  502  503 -0.00000000000E+00 -0.00000000000E+00 -0.11898900439E+03  0.11898900439E+03  0.00000000000E+00 0. -1.
          2    1    1    2  501    0 -0.14894571614E+02 -0.14942441430E+02 -0.34530281218E+02  0.40465604413E+02  0.00000000000E+00 0.  1.
         -2    1    1    2    0  503  0.14894571614E+02  0.14942441430E+02 -0.80125498249E+02  0.82856624896E+02  0.00000000000E+00 0. -1.
</event>
<event>
 4    1  0.1848744E+004  0.2292024E+02  0.7546771E-02  0.1493502E+00
         21   -1    0    0  501  502  0.00000000000E+00  0.00000000000E+00  0.89257957920E+01  0.89257957920E+01  0.00000000000E+00 0.  1.
         21   -1    0    0  502  503 -0.00000000000E+00 -0.00000000000E+00 -0.59429812212E+02  0.59429812212E+02  0.00000000000E+00 0. -1.
          2    1    1    2  501    0 -0.19094888110E+02 -0.12677645415E+02 -0.21893916086E+02  0.31696703406E+02  0.00000000000E+00 0. -1.
         -2    1    1    2    0  503  0.19094888110E+02  0.12677645415E+02 -0.28610100334E+02  0.36658904598E+02  0.00000000000E+00 0.  1.
</event>
<event>
 4    1  0.1848744E+004  0.2168724E+02  0.7546771E-02  0.1509675E+00
         21   -1    0    0  501  502  0.00000000000E+00  0.00000000000E+00  0.29857001124E+02  0.29857001124E+02  0.00000000000E+00 0.  1.
         21   -1    0    0  502  503 -0.00000000000E+00 -0.00000000000E+00 -0.16272607918E+02  0.16272607918E+02  0.00000000000E+00 0. -1.
          2    1    1    2  501    0  0.90828779657E+01 -0.19693593959E+02  0.10913868376E+02  0.24278567464E+02  0.00000000000E+00 0.  1.
         -2    1    1    2    0  503 -0.90828779657E+01  0.19693593959E+02  0.26705248290E+01  0.21851041578E+02  0.00000000000E+00 0. -1.
</event>
<event>
 4    1  0.1848744E+004  0.2212688E+02  0.7546771E-02  0.1503763E+00
         21   -1    0    0  501  502  0.00000000000E+00  0.00000000000E+00  0.64731323244E+02  0.64731323244E+02  0.00000000000E+00 0.  1.
         21   -1    0    0  502  503 -0.00000000000E+00 -0.00000000000E+00 -0.81748716849E+01  0.81748716849E+01  0.00000000000E+00 0. -1.
          2    1    1    2  501    0 -0.21944193597E+02 -0.28374915742E+01  0.38246654751E+02  0.44186033887E+02  0.00000000000E+00 0.  1.
         -2    1    1    2    0  503  0.21944193597E+02  0.28374915742E+01  0.18309796808E+02  0.28720161041E+02  0.00000000000E+00 0. -1.
</event>
<event>
 4    1  0.1848744E+004  0.2373514E+02  0.7546771E-02  0.1483468E+00
         21   -1    0    0  501  502  0.00000000000E+00  0.00000000000E+00  0.22443574717E+02  0.22443574717E+02  0.00000000000E+00 0. -1.
         21   -1    0    0  502  503 -0.00000000000E+00 -0.00000000000E+00 -0.36792851765E+03  0.36792851765E+03  0.00000000000E+00 0.  1.
          2    1    1    2  501    0 -0.22961985599E+02  0.60086850481E+01  0.15667920381E+02  0.28440126718E+02  0.00000000000E+00 0. -1.
         -2    1    1    2    0  503  0.22961985599E+02 -0.60086850481E+01 -0.36115286332E+03  0.36193196565E+03  0.00000000000E+00 0.  1.
</event>
<event>
 4    1  0.1848744E+004  0.2110337E+02  0.7546771E-02  0.1517794E+00
         21   -1    0    0  503  502  0.00000000000E+00  0.00000000000E+00  0.29394648163E+03  0.29394648163E+03  0.00000000000E+00 0. -1.
         21   -1    0    0  501  503 -0.00000000000E+00 -0.00000000000E+00 -0.56400891452E+01  0.56400891452E+01  0.00000000000E+00 0.  1.
          2    1    1    2  501    0 -0.12466447480E+02  0.17027621784E+02  0.16049441525E+02  0.26512955129E+02  0.00000000000E+00 0.  1.
         -2    1    1    2    0  502  0.12466447480E+02 -0.17027621784E+02  0.27225695096E+03  0.27307361564E+03  0.00000000000E+00 0. -1.
</event>
<event>
 4    1  0.1848744E+004  0.2060590E+02  0.7546771E-02  0.1524967E+00
         21   -1    0    0  501  502  0.00000000000E+00  0.00000000000E+00  0.94861932654E+01  0.94861932654E+01  0.00000000000E+00 0.  1.
         21   -1    0    0  502  503 -0.00000000000E+00 -0.00000000000E+00 -0.21747948879E+03  0.21747948879E+03  0.00000000000E+00 0. -1.
          2    1    1    2  501    0 -0.52549085534E+01  0.19924583356E+02 -0.28639534752E+01  0.20803973546E+02  0.00000000000E+00 0.  1.
         -2    1    1    2    0  503  0.52549085534E+01 -0.19924583356E+02 -0.20512934205E+03  0.20616170850E+03  0.00000000000E+00 0. -1.
</event>
<event>
 4    1  0.1848744E+004  0.2183565E+02  0.7546771E-02  0.1507660E+00
         21   -1    0    0  501  502  0.00000000000E+00  0.00000000000E+00  0.10368123212E+03  0.10368123212E+03  0.00000000000E+00 0.  1.
         21   -1    0    0  502  503 -0.00000000000E+00 -0.00000000000E+00 -0.48963285344E+01  0.48963285344E+01  0.00000000000E+00 0. -1.
          2    1    1    2  501    0 -0.74362482731E+01  0.20530408863E+02  0.62777996741E+02  0.66467077198E+02  0.00000000000E+00 0.  1.
         -2    1    1    2    0  503  0.74362482731E+01 -0.20530408863E+02  0.36006906849E+02  0.42110483461E+02  0.00000000000E+00 0. -1.
</event>
<event>
 4    1  0.1848744E+004  0.2076675E+02  0.7546771E-02  0.1522621E+00
         21   -1    0    0  501  502  0.00000000000E+00  0.00000000000E+00  0.13282248940E+02  0.13282248940E+02  0.00000000000E+00 0. -1.
         21   -1    0    0  502  503 -0.00000000000E+00 -0.00000000000E+00 -0.88767931784E+02  0.88767931784E+02  0.00000000000E+00 0.  1.
          2    1    1    2  501    0  0.44734884164E+01  0.20279198862E+02  0.28927680425E+01  0.20967262865E+02  0.00000000000E+00 0. -1.
         -2    1    1    2    0  503 -0.44734884164E+01 -0.20279198862E+02 -0.78378450887E+02  0.81082917859E+02  0.00000000000E+00 0.  1.
</event>
<event>
 4    1  0.1848744E+004  0.2147533E+02  0.7546771E-02  0.1512585E+00
         21   -1    0    0  501  502  0.00000000000E+00  0.00000000000E+00  0.37712303172E+03  0.37712303172E+03  0.00000000000E+00 0. -1.
         21   -1    0    0  502  503 -0.00000000000E+00 -0.00000000000E+00 -0.30888696963E+01  0.30888696963E+01  0.00000000000E+00 0.  1.
          2    1    1    2  501    0 -0.12794992948E+02 -0.17247544339E+02  0.33477351386E+03  0.33546161511E+03  0.00000000000E+00 0. -1.
         -2    1    1    2    0  503  0.12794992948E+02  0.17247544339E+02  0.39260648166E+02  0.44750286309E+02  0.00000000000E+00 0.  1.
</event>
<event>
 4    1  0.1848744E+004  0.2528821E+02  0.7546771E-02  0.1465605E+00
         21   -1    0    0  503  502  0.00000000000E+00  0.00000000000E+00  0.33087778959E+03  0.33087778959E+03  0.00000000000E+00 0.  1.
         21   -1    0    0  501  503 -0.00000000000E+00 -0.00000000000E+00 -0.19664432794E+01  0.19664432794E+01  0.00000000000E+00 0. -1.
          2    1    1    2  501    0  0.11519467648E+02  0.22512115854E+02  0.18625019864E+03  0.18795911787E+03  0.00000000000E+00 0. -1.
         -2    1    1    2    0  502 -0.11519467648E+02 -0.22512115854E+02  0.14266114766E+03  0.14488511500E+03  0.00000000000E+00 0.  1.
</event>
<event>
 4    1  0.1848744E+004  0.3286931E+02  0.7546771E-02  0.1396195E+00
         21   -1    0    0  503  502  0.00000000000E+00  0.00000000000E+00  0.16864325175E+03  0.16864325175E+03  0.00000000000E+00 0. -1.
         21   -1    0    0  501  503 -0.00000000000E+00 -0.00000000000E+00 -0.10528905293E+02  0.10528905293E+02  0.00000000000E+00 0.  1.
          2    1    1    2  501    0 -0.81544591803E+01  0.31841740583E+02  0.23000034444E+02  0.40117243578E+02  0.00000000000E+00 0.  1.
         -2    1    1    2    0  502  0.81544591803E+01 -0.31841740583E+02  0.13511431201E+03  0.13905491346E+03  0.00000000000E+00 0. -1.
</event>
<event>
 4    1  0.1848744E+004  0.2035442E+02  0.7546771E-02  0.1528685E+00
         21   -1    0    0  501  502  0.00000000000E+00  0.00000000000E+00  0.73514569186E+00  0.73514569186E+00  0.00000000000E+00 0.  1.
         21   -1    0    0  502  503 -0.00000000000E+00 -0.00000000000E+00 -0.80037408678E+03  0.80037408678E+03  0.00000000000E+00 0. -1.
          2    1    1    2  501    0 -0.10642807544E+02  0.17350302277E+02 -0.18194092708E+03  0.18307594951E+03  0.00000000000E+00 0.  1.
         -2    1    1    2    0  503  0.10642807544E+02 -0.17350302277E+02 -0.61769801400E+03  0.61803328295E+03  0.00000000000E+00 0. -1.
</event>
<event>
 4    1  0.1848744E+004  0.2130591E+02  0.7546771E-02  0.1514942E+00
         21   -1    0    0  501  502  0.00000000000E+00  0.00000000000E+00  0.67002217535E+03  0.67002217535E+03  0.00000000000E+00 0.  1.
         21   -1    0    0  502  503 -0.00000000000E+00 -0.00000000000E+00 -0.82234256604E+00  0.82234256604E+00  0.00000000000E+00 0. -1.
          2    1    1    2  501    0  0.20746079744E+02  0.48520175334E+01  0.47536968722E+03  0.47584690965E+03  0.00000000000E+00 0.  1.
         -2    1    1    2    0  503 -0.20746079744E+02 -0.48520175334E+01  0.19383014557E+03  0.19499760827E+03  0.00000000000E+00 0. -1.
</event>
<event>
 4    1  0.1848744E+004  0.3505982E+02  0.7546771E-02  0.1380143E+00
         21   -1    0    0  503  502  0.00000000000E+00  0.00000000000E+00  0.46908458846E+02  0.46908458846E+02  0.00000000000E+00 0. -1.
         21   -1    0    0  501  503 -0.00000000000E+00 -0.00000000000E+00 -0.31243835910E+02  0.31243835910E+02  0.00000000000E+00 0.  1.
          2    1    1    2  501    0  0.58261994703E+01  0.34572335357E+02 -0.78617802468E+01  0.35930468421E+02  0.00000000000E+00 0.  1.
         -2    1    1    2    0  502 -0.58261994703E+01 -0.34572335357E+02  0.23526403183E+02  0.42221826335E+02  0.00000000000E+00 0. -1.
</event>
<event>
 4    1  0.1848744E+004  0.2149398E+02  0.7546771E-02  0.1512328E+00
         21   -1    0    0  501  502  0.00000000000E+00  0.00000000000E+00  0.72221354110E+02  0.72221354110E+02  0.00000000000E+00 0. -1.
         21   -1    0    0  502  503 -0.00000000000E+00 -0.00000000000E+00 -0.40350986919E+02  0.40350986919E+02  0.00000000000E+00 0.  1.
          2    1    1    2  501    0 -0.15933753365E+02  0.14425906265E+02  0.67567401782E+02  0.70903773182E+02  0.00000000000E+00 0. -1.
         -2    1    1    2    0  503  0.15933753365E+02 -0.14425906265E+02 -0.35697034591E+02  0.41668567848E+02  0.00000000000E+00 0.  1.
</event>
<event>
 4    1  0.1848744E+004  0.3864089E+02  0.7546771E-02  0.1356640E+00
         21   -1    0    0  503  502  0.00000000000E+00  0.00000000000E+00  0.45863471253E+03  0.45863471253E+03  0.00000000000E+00 0. -1.
         21   -1    0    0  501  503 -0.00000000000E+00 -0.00000000000E+00 -0.57177452314E+01  0.57177452314E+01  0.00000000000E+00 0.  1.
          2    1    1    2  501    0 -0.35926900020E+02  0.14225912012E+02  0.74100723083E+02  0.83570544327E+02  0.00000000000E+00 0.  1.
         -2    1    1    2    0  502  0.35926900020E+02 -0.14225912012E+02  0.37881624421E+03  0.38078191343E+03  0.00000000000E+00 0. -1.
</event>
<event>
 4    1  0.1848744E+004  0.2042967E+02  0.7546771E-02  0.1527566E+00
         21   -1    0    0  501  502  0.00000000000E+00  0.00000000000E+00  0.42847664322E+03  0.42847664322E+03  0.00000000000E+00 0.  1.
         21   -1    0    0  502  503 -0.00000000000E+00 -0.00000000000E+00 -0.12239292133E+01  0.12239292133E+01  0.00000000000E+00 0. -1.
          2    1    1    2  501    0  0.18970573307E+01 -0.20341399166E+02  0.31069861239E+03  0.31136955389E+03  0.00000000000E+00 0. -1.
         -2    1    1    2    0  503 -0.18970573307E+01  0.20341399166E+02  0.11655410161E+03  0.11833101854E+03  0.00000000000E+00 0.  1.
</event>
<event>
 4    1  0.1848744E+004  0.2117017E+02  0.7546771E-02  0.1516849E+00
         21   -1    0    0  503  502  0.00000000000E+00  0.00000000000E+00  0.19154001942E+02  0.19154001942E+02  0.00000000000E+00 0. -1.
         21   -1    0    0  501  503 -0.00000000000E+00 -0.00000000000E+00 -0.38842533387E+02  0.38842533387E+02  0.00000000000E+00 0.  1.
          2    1    1    2  501    0  0.10290825553E+02 -0.18500679078E+02 -0.28129380475E+02  0.35205656688E+02  0.00000000000E+00 0.  1.
         -2    1    1    2    0  502 -0.10290825553E+02  0.18500679078E+02  0.84408490294E+01  0.22790878641E+02  0.00000000000E+00 0. -1.
</event>
<event>
 4    1  0.1848744E+004  0.2137429E+02  0.7546771E-02  0.1513987E+00
         21   -1    0    0  501  502  0.00000000000E+00  0.00000000000E+00  0.10292286234E+03  0.10292286234E+03  0.00000000000E+00 0.  1.
         21   -1    0    0  502  503 -0.00000000000E+00 -0.00000000000E+00 -0.61523859817E+01  0.61523859817E+01  0.00000000000E+00 0. -1.
          2    1    1    2  501    0  0.20368160371E+02  0.64806223396E+01  0.19603337399E+02  0.29002607814E+02  0.00000000000E+00 0. -1.
         -2    1    1    2    0  503 -0.20368160371E+02 -0.64806223396E+01  0.77167138963E+02  0.80072640512E+02  0.00000000000E+00 0.  1.
</event>
<event>
 4    1  0.1848744E+004  0.2853008E+02  0.7546771E-02  0.1432815E+00
         21   -1    0    0  503  502  0.00000000000E+00  0.00000000000E+00  0.22621935832E+01  0.22621935832E+01  0.00000000000E+00 0. -1.
         21   -1    0    0  501  503 -0.00000000000E+00 -0.00000000000E+00 -0.74543710726E+03  0.74543710726E+03  0.00000000000E+00 0.  1.
          2    1    1    2  501    0  0.15617765632E+02  0.23875740543E+02 -0.64047694800E+03  0.64111207017E+03  0.00000000000E+00 0.  1.
         -2    1    1    2    0  502 -0.15617765632E+02 -0.23875740543E+02 -0.10269796567E+03  0.10658723068E+03  0.00000000000E+00 0. -1.
</event>
<event>
 4    1  0.1848744E+004  0.2406577E+02  0.7546771E-02  0.1479532E+00
         21   -1    0    0  503  502  0.00000000000E+00  0.00000000000E+00  0.56462040912E+02  0.56462040912E+02  0.00000000000E+00 0.  1.
         21   -1    0    0  501  503 -0.00000000000E+00 -0.00000000000E+00 -0.14236395150E+02  0.14236395150E+02  0.00000000000E+00 0. -1.
          2    1    1    2  501    0 -0.22596538175E+02 -0.82799656364E+01  0.24249821472E+01  0.24187639546E+02  0.00000000000E+00 0. -1.
         -2    1    1    2    0  502  0.22596538175E+02  0.82799656364E+01  0.39800663615E+02  0.46510796516E+02  0.00000000000E+00 0.  1.
</event>
<event>
 4    1  0.1848744E+004  0.3203704E+02  0.7546771E-02  0.1402683E+00
         21   -1    0    0  503  502  0.00000000000E+00  0.00000000000E+00  0.83647170698E+02  0.83647170698E+02  0.00000000000E+00 0.  1.
         21   -1    0    0  501  503 -0.00000000000E+00 -0.00000000000E+00 -0.24773129262E+02  0.24773129262E+02  0.00000000000E+00 0. -1.
          2    1    1    2  501    0 -0.60376280907E+00 -0.32031353445E+02 -0.90748932185E+01  0.33297534743E+02  0.00000000000E+00 0. -1.
         -2    1    1    2    0  502  0.60376280907E+00  0.32031353445E+02  0.67948934655E+02  0.75122765216E+02  0.00000000000E+00 0.  1.
</event>
<event>
 4    1  0.1848744E+004  0.2084438E+02  0.7546771E-02  0.1521498E+00
         21   -1    0    0  501  502  0.00000000000E+00  0.00000000000E+00  0.89321575397E+01  0.89321575397E+01  0.00000000000E+00 0. -1.
         21   -1    0    0  502  503 -0.00000000000E+00 -0.00000000000E+00 -0.11114101743E+03  0.11114101743E+03  0.00000000000E+00 0.  1.
          2    1    1    2  501    0  0.14993778791E+02  0.14480154424E+02 -0.60838157476E+01  0.21714075818E+02  0.00000000000E+00 0. -1.
         -2    1    1    2    0  503 -0.14993778791E+02 -0.14480154424E+02 -0.96125044146E+02  0.98359099156E+02  0.00000000000E+00 0.  1.
</event>
<event>
 4    1  0.1848744E+004  0.3010652E+02  0.7546771E-02  0.1418673E+00
         21   -1    0    0  503  502  0.00000000000E+00  0.00000000000E+00  0.46070951297E+03  0.46070951297E+03  0.00000000000E+00 0.  1.
         21   -1    0    0  501  503 -0.00000000000E+00 -0.00000000000E+00 -0.25174341772E+01  0.25174341772E+01  0.00000000000E+00 0. -1.
          2    1    1    2  501    0 -0.29188029595E+02  0.73798092181E+01  0.12083374402E+03  0.12452789386E+03  0.00000000000E+00 0. -1.
         -2    1    1    2    0  502  0.29188029595E+02 -0.73798092181E+01  0.33735833478E+03  0.33869905329E+03  0.00000000000E+00 0.  1.
</event>
<event>
 4    1  0.1848744E+004  0.2143507E+02  0.7546771E-02  0.1513143E+00
         21   -1    0    0  501  502  0.00000000000E+00  0.00000000000E+00  0.37415937422E+02  0.37415937422E+02  0.00000000000E+00 0. -1.
         21   -1    0    0  502  503 -0.00000000000E+00 -0.00000000000E+00 -0.17994561028E+02  0.17994561028E+02  0.00000000000E+00 0.  1.
          2    1    1    2  501    0 -0.47147121039E+01  0.20910132581E+02  0.25323765635E+02  0.33177631934E+02  0.00000000000E+00 0. -1.
         -2    1    1    2    0  503  0.47147121039E+01 -0.20910132581E+02 -0.59023892420E+01  0.22232866516E+02  0.00000000000E+00 0.  1.
</event>
<event>
 4    1  0.1848744E+004  0.2059967E+02  0.7546771E-02  0.1525058E+00
         21   -1    0    0  503  502  0.00000000000E+00  0.00000000000E+00  0.85599060458E+03  0.85599060458E+03  0.00000000000E+00 0. -1.
         21   -1    0    0  501  503 -0.00000000000E+00 -0.00000000000E+00 -0.92227108152E+01  0.92227108152E+01  0.00000000000E+00 0.  1.
          2    1    1    2  501    0 -0.83613607621E+01 -0.18826418831E+02  0.25645648559E+01  0.20758694388E+02  0.00000000000E+00 0.  1.
         -2    1    1    2    0  502  0.83613607621E+01  0.18826418831E+02  0.84420332891E+03  0.84445462100E+03  0.00000000000E+00 0. -1.
</event>
<event>
 4    1  0.1848744E+004  0.2236888E+02  0.7546771E-02  0.1500579E+00
         21   -1    0    0  501  502  0.00000000000E+00  0.00000000000E+00  0.14419473251E+01  0.14419473251E+01  0.00000000000E+00 0. -1.
         21   -1    0    0  502  503 -0.00000000000E+00 -0.00000000000E+00 -0.53392075361E+03  0.53392075361E+03  0.00000000000E+00 0.  1.
          2    1    1    2  501    0  0.14187304301E+02 -0.17294136813E+02 -0.10785968241E+03  0.11015479046E+03  0.00000000000E+00 0. -1.
         -2    1    1    2    0  503 -0.14187304301E+02  0.17294136813E+02 -0.42461912387E+03  0.42520791047E+03  0.00000000000E+00 0.  1.
</event>
<event>
 4    1  0.1848744E+004  0.2434520E+02  0.7546771E-02  0.1476264E+00
         21   -1    0    0  501  502  0.00000000000E+00  0.00000000000E+00  0.10141421600E+01  0.10141421600E+01  0.00000000000E+00 0. -1.
         21   -1    0    0  502  503 -0.00000000000E+00 -0.00000000000E+00 -0.64221942477E+03  0.64221942477E+03  0.00000000000E+00 0.  1.
          2    1    1    2  501    0 -0.88961903920E+01  0.22661568029E+02 -0.41708419007E+03  0.41779410058E+03  0.00000000000E+00 0.  1.
         -2    1    1    2    0  503  0.88961903920E+01 -0.22661568029E+02 -0.22412109254E+03  0.22543946635E+03  0.00000000000E+00 0. -1.
</event>
<event>
 4    1  0.1848744E+004  0.4768926E+02  0.7546771E-02  0.1308514E+00
         21   -1    0    0  501  502  0.00000000000E+00  0.00000000000E+00  0.95446235713E+01  0.95446235713E+01  0.00000000000E+00 0.  1.
         21   -1    0    0  502  503 -0.00000000000E+00 -0.00000000000E+00 -0.26626835377E+03  0.26626835377E+03  0.00000000000E+00 0. -1.
          2    1    1    2  501    0  0.16361769967E+02 -0.44794617048E+02 -0.83648629953E+02  0.96287893974E+02  0.00000000000E+00 0.  1.
         -2    1    1    2    0  503 -0.16361769967E+02  0.44794617048E+02 -0.17307510024E+03  0.17952508336E+03  0.00000000000E+00 0. -1.
</event>
<event>
 4    1  0.1848744E+004  0.2934219E+02  0.7546771E-02  0.1425400E+00
         21   -1    0    0  503  502  0.00000000000E+00  0.00000000000E+00  0.12205636607E+01  0.12205636607E+01  0.00000000000E+00 0.  1.
         21   -1    0    0  501  503 -0.00000000000E+00 -0.00000000000E+00 -0.73311390922E+03  0.73311390922E+03  0.00000000000E+00 0. -1.
          2    1    1    2  501    0 -0.22538306525E+02 -0.18788002124E+02 -0.29453587014E+03  0.29599382272E+03  0.00000000000E+00 0. -1.
         -2    1    1    2    0  502  0.22538306525E+02  0.18788002124E+02 -0.43735747542E+03  0.43834065017E+03  0.00000000000E+00 0.  1.
</event>
<event>
 4    1  0.1848744E+004  0.2317378E+02  0.7546771E-02  0.1490327E+00
         21   -1    0    0  501  502  0.00000000000E+00  0.00000000000E+00  0.56529932892E+01  0.56529932892E+01  0.00000000000E+00 0.  1.
         21   -1    0    0  502  503 -0.00000000000E+00 -0.00000000000E+00 -0.15688556209E+03  0.15688556209E+03  0.00000000000E+00 0. -1.
          2    1    1    2  501    0 -0.13114058375E+02 -0.19106163716E+02 -0.24573306822E+02  0.33776788289E+02  0.00000000000E+00 0.  1.
         -2    1    1    2    0  503  0.13114058375E+02  0.19106163716E+02 -0.12665926198E+03  0.12876176709E+03  0.00000000000E+00 0. -1.
</event>
<event>
 4    1  0.1848744E+004  0.3219686E+02  0.7546771E-02  0.1401419E+00
         21   -1    0    0  501  502  0.00000000000E+00  0.00000000000E+00  0.86912709803E+02  0.86912709803E+02  0.00000000000E+00 0.  1.
         21   -1    0    0  502  503 -0.00000000000E+00 -0.00000000000E+00 -0.12153985599E+02  0.12153985599E+02  0.00000000000E+00 0. -1.
          2    1    1    2  501    0 -0.27075041747E+02 -0.17423542901E+02  0.30615282019E+02  0.44428968320E+02  0.00000000000E+00 0.  1.
         -2    1    1    2    0  503  0.27075041747E+02  0.17423542901E+02  0.44143442185E+02  0.54637727083E+02  0.00000000000E+00 0. -1.
</event>
<event>
 4    1  0.1848744E+004  0.2180680E+02  0.7546771E-02  0.1508050E+00
         21   -1    0    0  503  502  0.00000000000E+00  0.00000000000E+00  0.80184719758E+01  0.80184719758E+01  0.00000000000E+00 0. -1.
         21   -1    0    0  501  503 -0.00000000000E+00 -0.00000000000E+00 -0.59905455920E+02  0.59905455920E+02  0.00000000000E+00 0.  1.
          2    1    1    2  501    0 -0.21211911921E+02  0.50587839729E+01 -0.29343297461E+02  0.36559070126E+02  0.00000000000E+00 0. -1.
         -2    1    1    2    0  502  0.21211911921E+02 -0.50587839729E+01 -0.22543686484E+02  0.31364857770E+02  0.00000000000E+00 0.  1.
</event>
<event>
 4    1  0.1848744E+004  0.2030980E+02  0.7546771E-02  0.1529351E+00
         21   -1    0    0  501  502  0.00000000000E+00  0.00000000000E+00  0.52735863881E+02  0.52735863881E+02  0.00000000000E+00 0. -1.
         21   -1    0    0  502  503 -0.00000000000E+00 -0.00000000000E+00 -0.82032899270E+01  0.82032899270E+01  0.00000000000E+00 0.  1.
          2    1    1    2  501    0 -0.18868234416E+02  0.75151517851E+01  0.28837283550E+02  0.35271471458E+02  0.00000000000E+00 0. -1.
         -2    1    1    2    0  503  0.18868234416E+02 -0.75151517851E+01  0.15695290404E+02  0.25667682349E+02  0.00000000000E+00 0.  1.
</event>
<event>
 4    1  0.1848744E+004  0.2249489E+02  0.7546771E-02  0.1498940E+00
         21   -1    0    0  501  502  0.00000000000E+00  0.00000000000E+00  0.69231674560E+01  0.69231674560E+01  0.00000000000E+00 0. -1.
         21   -1    0    0  502  503 -0.00000000000E+00 -0.00000000000E+00 -0.12826488641E+03  0.12826488641E+03  0.00000000000E+00 0.  1.
          2    1    1    2  501    0  0.77215566533E+01 -0.21128123049E+02 -0.16338391700E+02  0.27802213294E+02  0.00000000000E+00 0. -1.
         -2    1    1    2    0  503 -0.77215566533E+01  0.21128123049E+02 -0.10500332725E+03  0.10738584057E+03  0.00000000000E+00 0.  1.
</event>
<event>
 4    1  0.1848744E+004  0.2408735E+02  0.7546771E-02  0.1479278E+00
         21   -1    0    0  501  502  0.00000000000E+00  0.00000000000E+00  0.13775632346E+02  0.13775632346E+02  0.00000000000E+00 0. -1.
         21   -1    0    0  502  503 -0.00000000000E+00 -0.00000000000E+00 -0.94385303990E+02  0.94385303990E+02  0.00000000000E+00 0.  1.
          2    1    1    2  501    0  0.21299253895E+02 -0.11249091490E+02 -0.60584931145E-01  0.24087422992E+02  0.00000000000E+00 0. -1.
         -2    1    1    2    0  503 -0.21299253895E+02  0.11249091490E+02 -0.80549086713E+02  0.84073513345E+02  0.00000000000E+00 0.  1.
</event>
<event>
 4    1  0.1848744E+004  0.2068898E+02  0.7546771E-02  0.1523752E+00
         21   -1    0    0  503  502  0.00000000000E+00  0.00000000000E+00  0.36989052997E+01  0.36989052997E+01  0.00000000000E+00 0.  1.
         21   -1    0    0  501  503 -0.00000000000E+00 -0.00000000000E+00 -0.14574542742E+03  0.14574542742E+03  0.00000000000E+00 0. -1.
          2    1    1    2  501    0  0.20687027529E+02 -0.28434950422E+00 -0.10493914585E+03  0.10695914311E+03  0.00000000000E+00 0. -1.
         -2    1    1    2    0  502 -0.20687027529E+02  0.28434950422E+00 -0.37107376266E+02  0.42485189607E+02  0.00000000000E+00 0.  1.
</event>
<event>
 4    1  0.1848744E+004  0.5048351E+02  0.7546771E-02  0.1296090E+00
         21   -1    0    0  503  502  0.00000000000E+00  0.00000000000E+00  0.58254089824E+03  0.58254089824E+03  0.00000000000E+00 0. -1.
         21   -1    0    0  501  503 -0.00000000000E+00 -0.00000000000E+00 -0.56570944834E+01  0.56570944834E+01  0.00000000000E+00 0.  1.
          2    1    1    2  501    0 -0.23132469098E+02  0.44871747700E+02  0.14842965725E+03  0.15677993500E+03  0.00000000000E+00 0.  1.
         -2    1    1    2    0  502  0.23132469098E+02 -0.44871747700E+02  0.42845414651E+03  0.43141805773E+03  0.00000000000E+00 0. -1.
</event>
<event>
 4    1  0.1848744E+004  0.3291950E+02  0.7546771E-02  0.1395811E+00
         21   -1    0    0  503  502  0.00000000000E+00  0.00000000000E+00  0.14984357254E+03  0.14984357254E+03  0.00000000000E+00 0. -1.
         21   -1    0    0  501  503 -0.00000000000E+00 -0.00000000000E+00 -0.75973723173E+01  0.75973723173E+01  0.00000000000E+00 0.  1.
          2    1    1    2  501    0 -0.15555665455E+02 -0.29012319809E+02  0.53863697048E+02  0.63126787406E+02  0.00000000000E+00 0.  1.
         -2    1    1    2    0  502  0.15555665455E+02  0.29012319809E+02  0.88382503175E+02  0.94314157453E+02  0.00000000000E+00 0. -1.
</event>
<event>
 4    1  0.1848744E+004  0.2075952E+02  0.7546771E-02  0.1522726E+00
         21   -1    0    0  501  502  0.00000000000E+00  0.00000000000E+00  0.28128086565E+03  0.28128086565E+03  0.00000000000E+00 0.  1.
         21   -1    0    0  502  503 -0.00000000000E+00 -0.00000000000E+00 -0.16830303251E+02  0.16830303251E+02  0.00000000000E+00 0. -1.
          2    1    1    2  501    0  0.32034746860E+01  0.20510865259E+02  0.27433445664E+03  0.27511879605E+03  0.00000000000E+00 0.  1.
         -2    1    1    2    0  503 -0.32034746860E+01 -0.20510865259E+02 -0.98838942403E+01  0.22992372846E+02  0.00000000000E+00 0. -1.
</event>
<event>
 4    1  0.1848744E+004  0.2039987E+02  0.7546771E-02  0.1528008E+00
         21   -1    0    0  501  502  0.00000000000E+00  0.00000000000E+00  0.83863472118E+02  0.83863472118E+02  0.00000000000E+00 0.  1.
         21   -1    0    0  502  503 -0.00000000000E+00 -0.00000000000E+00 -0.11593260833E+02  0.11593260833E+02  0.00000000000E+00 0. -1.
          2    1    1    2  501    0 -0.14397869341E+02 -0.14451851534E+02  0.72231382570E+02  0.75056827020E+02  0.00000000000E+00 0.  1.
         -2    1    1    2    0  503  0.14397869341E+02  0.14451851534E+02  0.38828714270E-01  0.20399905931E+02  0.00000000000E+00 0. -1.
</event>
<event>
 4    1  0.1848744E+004  0.2131984E+02  0.7546771E-02  0.1514747E+00
         21   -1    0    0  501  502  0.00000000000E+00  0.00000000000E+00  0.28297500593E+02  0.28297500593E+02  0.00000000000E+00 0. -1.
         21   -1    0    0  502  503 -0.00000000000E+00 -0.00000000000E+00 -0.27667203538E+02  0.27667203538E+02  0.00000000000E+00 0.  1.
          2    1    1    2  501    0  0.73670611465E+01  0.20006547357E+02  0.18437478362E+02  0.28186453048E+02  0.00000000000E+00 0. -1.
         -2    1    1    2    0  503 -0.73670611465E+01 -0.20006547357E+02 -0.17807181307E+02  0.27778251082E+02  0.00000000000E+00 0.  1.
</event>
<event>
 4    1  0.1848744E+004  0.2801234E+02  0.7546771E-02  0.1437696E+00
         21   -1    0    0  503  502  0.00000000000E+00  0.00000000000E+00  0.31885001307E+03  0.31885001307E+03  0.00000000000E+00 0. -1.
         21   -1    0    0  501  503 -0.00000000000E+00 -0.00000000000E+00 -0.54233118556E+01  0.54233118556E+01  0.00000000000E+00 0.  1.
          2    1    1    2  501    0 -0.55265673589E+00 -0.28006887935E+02  0.36883773990E+02  0.46315267299E+02  0.00000000000E+00 0.  1.
         -2    1    1    2    0  502  0.55265673589E+00  0.28006887935E+02  0.27654292722E+03  0.27795805762E+03  0.00000000000E+00 0. -1.
</event>
<event>
 4    1  0.1848744E+004  0.2088097E+02  0.7546771E-02  0.1520971E+00
         21   -1    0    0  503  502  0.00000000000E+00  0.00000000000E+00  0.12282813474E+02  0.12282813474E+02  0.00000000000E+00 0. -1.
         21   -1    0    0  501  503 -0.00000000000E+00 -0.00000000000E+00 -0.15564505090E+03  0.15564505090E+03  0.00000000000E+00 0.  1.
          2    1    1    2  501    0  0.19810764725E+02 -0.65991266740E+01 -0.14545144999E+03  0.14694263907E+03  0.00000000000E+00 0.  1.
         -2    1    1    2    0  502 -0.19810764725E+02  0.65991266740E+01  0.20892125691E+01  0.20985225302E+02  0.00000000000E+00 0. -1.
</event>
<event>
 4    1  0.1848744E+004  0.3490929E+02  0.7546771E-02  0.1381202E+00
         21   -1    0    0  501  502  0.00000000000E+00  0.00000000000E+00  0.13861479803E+02  0.13861479803E+02  0.00000000000E+00 0.  1.
         21   -1    0    0  502  503 -0.00000000000E+00 -0.00000000000E+00 -0.87971328130E+02  0.87971328130E+02  0.00000000000E+00 0. -1.
          2    1    1    2  501    0 -0.34506493522E+02 -0.52877437751E+01 -0.35788439096E+02  0.49994706743E+02  0.00000000000E+00 0.  1.
         -2    1    1    2    0  503  0.34506493522E+02  0.52877437751E+01 -0.38321409231E+02  0.51838101189E+02  0.00000000000E+00 0. -1.
</event>
<event>
 4    1  0.1848744E+004  0.2184604E+02  0.7546771E-02  0.1507520E+00
         21   -1    0    0  503  502  0.00000000000E+00  0.00000000000E+00  0.30273359164E+01  0.30273359164E+01  0.00000000000E+00 0.  1.
         21   -1    0    0  501  503 -0.00000000000E+00 -0.00000000000E+00 -0.17248351994E+03  0.17248351994E+03  0.00000000000E+00 0. -1.
          2    1    1    2  501    0  0.17119320407E+02 -0.13571237956E+02 -0.11046581058E+03  0.11260526159E+03  0.00000000000E+00 0.  1.
         -2    1    1    2    0  502 -0.17119320407E+02  0.13571237956E+02 -0.58990373440E+02  0.62905594262E+02  0.00000000000E+00 0. -1.
</event>
<event>
 4    1  0.1848744E+004  0.2616492E+02  0.7546771E-02  0.1456182E+00
         21   -1    0    0  503  502  0.00000000000E+00  0.00000000000E+00  0.19519690277E+02  0.19519690277E+02  0.00000000000E+00 0.  1.
         21   -1    0    0  501  503 -0.00000000000E+00 -0.00000000000E+00 -0.35073813042E+02  0.35073813042E+02  0.00000000000E+00 0. -1.
          2    1    1    2  501    0 -0.24366937940E+02  0.95318183996E+01 -0.79476579267E+01  0.27345355970E+02  0.00000000000E+00 0. -1.
         -2    1    1    2    0  502  0.24366937940E+02 -0.95318183996E+01 -0.76064648385E+01  0.27248147349E+02  0.00000000000E+00 0.  1.
</event>
<event>
 4    1  0.1848744E+004  0.3309198E+02  0.7546771E-02  0.1394497E+00
         21   -1    0    0  501  502  0.00000000000E+00  0.00000000000E+00  0.18922863531E+01  0.18922863531E+01  0.00000000000E+00 0. -1.
         21   -1    0    0  502  503 -0.00000000000E+00 -0.00000000000E+00 -0.66988834626E+03  0.66988834626E+03  0.00000000000E+00 0.  1.
          2    1    1    2  501    0  0.21027115980E+02  0.25552680217E+02 -0.21007568245E+03  0.21266610315E+03  0.00000000000E+00 0. -1.
         -2    1    1    2    0  503 -0.21027115980E+02 -0.25552680217E+02 -0.45792037746E+03  0.45911452946E+03  0.00000000000E+00 0.  1.
</event>
<event>
 4    1  0.1848744E+004  0.2042335E+02  0.7546771E-02  0.1527659E+00
         21   -1    0    0  503  502  0.00000000000E+00  0.00000000000E+00  0.15902778808E+02  0.15902778808E+02  0.00000000000E+00 0.  1.
         21   -1    0    0  501  503 -0.00000000000E+00 -0.00000000000E+00 -0.71860842925E+02  0.71860842925E+02  0.00000000000E+00 0. -1.
          2    1    1    2  501    0 -0.11158205348E+02  0.17105775932E+02 -0.62947181703E+02  0.66177494673E+02  0.00000000000E+00 0. -1.
         -2    1    1    2    0  502  0.11158205348E+02 -0.17105775932E+02  0.69891175856E+01  0.21586127060E+02  0.00000000000E+00 0.  1.
</event>
<event>
 4    1  0.1848744E+004  0.3779146E+02  0.7546771E-02  0.1361937E+00
         21   -1    0    0  503  502  0.00000000000E+00  0.00000000000E+00  0.35107457702E+02  0.35107457702E+02  0.00000000000E+00 0. -1.
         21   -1    0    0  501  503 -0.00000000000E+00 -0.00000000000E+00 -0.55763896573E+02  0.55763896573E+02  0.00000000000E+00 0.  1.
          2    1    1    2  501    0  0.28227668412E+02  0.25127545642E+02 -0.33958431087E+02  0.50807183113E+02  0.00000000000E+00 0.  1.
         -2    1    1    2    0  502 -0.28227668412E+02 -0.25127545642E+02  0.13301992216E+02  0.40064171162E+02  0.00000000000E+00 0. -1.
</event>
<event>
 4    1  0.1848744E+004  0.2867652E+02  0.7546771E-02  0.1431457E+00
         21   -1    0    0  501  502  0.00000000000E+00  0.00000000000E+00  0.43128009234E+02  0.43128009234E+02  0.00000000000E+00 0. -1.
         21   -1    0    0  502  503 -0.00000000000E+00 -0.00000000000E+00 -0.33996621380E+02  0.33996621380E+02  0.00000000000E+00 0.  1.
          2    1    1    2  501    0  0.19869259047E+02 -0.20677407298E+02  0.30119910950E+02  0.41587878802E+02  0.00000000000E+00 0. -1.
         -2    1    1    2    0  503 -0.19869259047E+02  0.20677407298E+02 -0.20988523096E+02  0.35536751812E+02  0.00000000000E+00 0.  1.
</event>
<event>
 4    1  0.1848744E+004  0.2458804E+02  0.7546771E-02  0.1473465E+00
         21   -1    0    0  501  502  0.00000000000E+00  0.00000000000E+00  0.86937384102E+01  0.86937384102E+01  0.00000000000E+00 0. -1.
         21   -1    0    0  502  503 -0.00000000000E+00 -0.00000000000E+00 -0.13417003386E+03  0.13417003386E+03  0.00000000000E+00 0.  1.
          2    1    1    2  501    0 -0.24065737112E+02 -0.50410485207E+01 -0.13161409618E+02  0.27888968716E+02  0.00000000000E+00 0. -1.
         -2    1    1    2    0  503  0.24065737112E+02  0.50410485207E+01 -0.11231488583E+03  0.11497480355E+03  0.00000000000E+00 0.  1.
</event>
<event>
 4    1  0.1848744E+004  0.2179385E+02  0.7546771E-02  0.1508226E+00
         21   -1    0    0  501  502  0.00000000000E+00  0.00000000000E+00  0.53269425824E+02  0.53269425824E+02  0.00000000000E+00 0.  1.
         21   -1    0    0  502  503 -0.00000000000E+00 -0.00000000000E+00 -0.14710723015E+02  0.14710723015E+02  0.00000000000E+00 0. -1.
          2    1    1    2  501    0 -0.21525191769E+02  0.34114493715E+01  0.40611578811E+02  0.46089827522E+02  0.00000000000E+00 0.  1.
         -2    1    1    2    0  503  0.21525191769E+02 -0.34114493715E+01 -0.20528760020E+01  0.21890321317E+02  0.00000000000E+00 0. -1.
</event>
<event>
 4    1  0.1848744E+004  0.2307621E+02  0.7546771E-02  0.1491543E+00
         21   -1    0    0  503  502  0.00000000000E+00  0.00000000000E+00  0.30595764887E+02  0.30595764887E+02  0.00000000000E+00 0. -1.
         21   -1    0    0  501  503 -0.00000000000E+00 -0.00000000000E+00 -0.19632142436E+02  0.19632142436E+02  0.00000000000E+00 0.  1.
          2    1    1    2  501    0 -0.22958194467E+02  0.23308695988E+01 -0.29773945043E+01  0.23267499314E+02  0.00000000000E+00 0. -1.
         -2    1    1    2    0  502  0.22958194467E+02 -0.23308695988E+01  0.13941016955E+02  0.26960408009E+02  0.00000000000E+00 0.  1.
</event>
<event>
 4    1  0.1848744E+004  0.2508256E+02  0.7546771E-02  0.1467882E+00
         21   -1    0    0  503  502  0.00000000000E+00  0.00000000000E+00  0.16634964485E+03  0.16634964485E+03  0.00000000000E+00 0. -1.
         21   -1    0    0  501  503 -0.00000000000E+00 -0.00000000000E+00 -0.30570605550E+02  0.30570605550E+02  0.00000000000E+00 0.  1.
          2    1    1    2  501    0 -0.22360365554E+02 -0.11364364426E+02 -0.24279166918E+02  0.34908633212E+02  0.00000000000E+00 0.  1.
         -2    1    1    2    0  502  0.22360365554E+02  0.11364364426E+02  0.16005820621E+03  0.16201161719E+03  0.00000000000E+00 0. -1.
</event>
<event>
 4    1  0.1848744E+004  0.3078188E+02  0.7546771E-02  0.1412921E+00
         21   -1    0    0  501  502  0.00000000000E+00  0.00000000000E+00  0.12120342514E+03  0.12120342514E+03  0.00000000000E+00 0.  1.
         21   -1    0    0  502  503 -0.00000000000E+00 -0.00000000000E+00 -0.43627676828E+02  0.43627676828E+02  0.00000000000E+00 0. -1.
          2    1    1    2  501    0  0.19770881158E+02 -0.23593139540E+02  0.11345519095E+03  0.11755681319E+03  0.00000000000E+00 0.  1.
         -2    1    1    2    0  503 -0.19770881158E+02  0.23593139540E+02 -0.35879442636E+02  0.47274288773E+02  0.00000000000E+00 0. -1.
</event>
<event>
 4    1  0.1848744E+004  0.3212314E+02  0.7546771E-02  0.1402001E+00
         21   -1    0    0  503  502  0.00000000000E+00  0.00000000000E+00  0.20320384465E+02  0.20320384465E+02  0.00000000000E+00 0. -1.
         21   -1    0    0  501  503 -0.00000000000E+00 -0.00000000000E+00 -0.14682030108E+03  0.14682030108E+03  0.00000000000E+00 0.  1.
          2    1    1    2  501    0 -0.72810344284E+01 -0.31287101817E+02 -0.13084002449E+03  0.13472567762E+03  0.00000000000E+00 0.  1.
         -2    1    1    2    0  502  0.72810344284E+01  0.31287101817E+02  0.43401078714E+01  0.32415007925E+02  0.00000000000E+00 0. -1.
</event>
<event>
 4    1  0.1848744E+004  0.2324918E+02  0.7546771E-02  0.1489393E+00
         21   -1    0    0  501  502  0.00000000000E+00  0.00000000000E+00  0.46019731428E+03  0.46019731428E+03  0.00000000000E+00 0. -1.
         21   -1    0    0  502  503 -0.00000000000E+00 -0.00000000000E+00 -0.11928280811E+01  0.11928280811E+01  0.00000000000E+00 0.  1.
          2    1    1    2  501    0  0.23225068439E+02 -0.10585892501E+01  0.25805995928E+03  0.25910512732E+03  0.00000000000E+00 0. -1.
         -2    1    1    2    0  503 -0.23225068439E+02  0.10585892501E+01  0.20094452692E+03  0.20228501505E+03  0.00000000000E+00 0.  1.
</event>
<event>
 4    1  0.1848744E+004  0.2489499E+02  0.7546771E-02  0.1469982E+00
         21   -1    0    0  503  502  0.00000000000E+00  0.00000000000E+00  0.89807133591E+00  0.89807133591E+00  0.00000000000E+00 0.  1.
         21   -1    0    0  501  503 -0.00000000000E+00 -0.00000000000E+00 -0.19829115843E+04  0.19829115843E+04  0.00000000000E+00 0. -1.
          2    1    1    2  501    0  0.10629913696E+02 -0.22511454691E+02 -0.17919203079E+04  0.17920932316E+04  0.00000000000E+00 0. -1.
         -2    1    1    2    0  502 -0.10629913696E+02  0.22511454691E+02 -0.19009320502E+03  0.19171642406E+03  0.00000000000E+00 0.  1.
</event>
<event>
 4    1  0.1848744E+004  0.3606875E+02  0.7546771E-02  0.1373201E+00
         21   -1    0    0  503  502  0.00000000000E+00  0.00000000000E+00  0.38781585978E+03  0.38781585978E+03  0.00000000000E+00 0.  1.
         21   -1    0    0  501  503 -0.00000000000E+00 -0.00000000000E+00 -0.21413860405E+02  0.21413860405E+02  0.00000000000E+00 0. -1.
          2    1    1    2  501    0 -0.31823063416E+02  0.16977858783E+02 -0.47047376086E+01  0.36374298756E+02  0.00000000000E+00 0. -1.
         -2    1    1    2    0  502  0.31823063416E+02 -0.16977858783E+02  0.37110673699E+03  0.37285542143E+03  0.00000000000E+00 0.  1.
</event>
<event>
 4    1  0.1848744E+004  0.2255754E+02  0.7546771E-02  0.1498130E+00
         21   -1    0    0  501  502  0.00000000000E+00  0.00000000000E+00  0.34922915352E+01  0.34922915352E+01  0.00000000000E+00 0.  1.
         21   -1    0    0  502  503 -0.00000000000E+00 -0.00000000000E+00 -0.49236044659E+03  0.49236044659E+03  0.00000000000E+00 0. -1.
          2    1    1    2  501    0  0.80867664790E+01 -0.21058174137E+02 -0.36401913302E+02  0.42824546490E+02  0.00000000000E+00 0.  1.
         -2    1    1    2    0  503 -0.80867664790E+01  0.21058174137E+02 -0.45246624175E+03  0.45302819163E+03  0.00000000000E+00 0. -1.
</event>
<event>
 4    1  0.1848744E+004  0.2032417E+02  0.7546771E-02  0.1529137E+00
         21   -1    0    0  503  502  0.00000000000E+00  0.00000000000E+00  0.84512943457E+03  0.84512943457E+03  0.00000000000E+00 0. -1.
         21   -1    0    0  501  503 -0.00000000000E+00 -0.00000000000E+00 -0.70264134643E+01  0.70264134643E+01  0.00000000000E+00 0.  1.
          2    1    1    2  501    0  0.17584795298E+02 -0.10190522547E+02  0.80599705585E+01  0.21864009259E+02  0.00000000000E+00 0.  1.
         -2    1    1    2    0  502 -0.17584795298E+02  0.10190522547E+02  0.83004305055E+03  0.83029183878E+03  0.00000000000E+00 0. -1.
</event>
<event>
 4    1  0.1848744E+004  0.2950639E+02  0.7546771E-02  0.1423935E+00
         21   -1    0    0  501  502  0.00000000000E+00  0.00000000000E+00  0.23058038936E+03  0.23058038936E+03  0.00000000000E+00 0. -1.
         21   -1    0    0  502  503 -0.00000000000E+00 -0.00000000000E+00 -0.38580244384E+01  0.38580244384E+01  0.00000000000E+00 0.  1.
          2    1    1    2  501    0  0.19561622711E+01 -0.29441477227E+02  0.13047303670E+03  0.13376786033E+03  0.00000000000E+00 0. -1.
         -2    1    1    2    0  503 -0.19561622711E+01  0.29441477227E+02  0.96249328226E+02  0.10067055347E+03  0.00000000000E+00 0.  1.
</event>
<event>
 4    1  0.1848744E+004  0.2532032E+02  0.7546771E-02  0.1465252E+00
         21   -1    0    0  503  502  0.00000000000E+00  0.00000000000E+00  0.95517175919E+02  0.95517175919E+02  0.00000000000E+00 0.  1.
         21   -1    0    0  501  503 -0.00000000000E+00 -0.00000000000E+00 -0.12132862205E+02  0.12132862205E+02  0.00000000000E+00 0. -1.
          2    1    1    2  501    0  0.25290204823E+02 -0.12344825034E+01  0.57144269865E+01  0.25957139342E+02  0.00000000000E+00 0. -1.
         -2    1    1    2    0  502 -0.25290204823E+02  0.12344825034E+01  0.77669886727E+02  0.81692898781E+02  0.00000000000E+00 0.  1.
</event>
<event>
 4    1  0.1848744E+004  0.3714321E+02  0.7546771E-02  0.1366092E+00
         21   -1    0    0  503  502  0.00000000000E+00  0.00000000000E+00  0.16713367336E+03  0.16713367336E+03  0.00000000000E+00 0. -1.
         21   -1    0    0  501  503 -0.00000000000E+00 -0.00000000000E+00 -0.90590769782E+01  0.90590769782E+01  0.00000000000E+00 0.  1.
          2    1    1    2  501    0 -0.33235522968E+02 -0.16583664393E+02  0.52784302728E+02  0.64543012993E+02  0.00000000000E+00 0.  1.
         -2    1    1    2    0  502  0.33235522968E+02  0.16583664393E+02  0.10529029366E+03  0.11164973735E+03  0.00000000000E+00 0. -1.
</event>
<event>
 4    1  0.1848744E+004  0.2508041E+02  0.7546771E-02  0.1467906E+00
         21   -1    0    0  503  502  0.00000000000E+00  0.00000000000E+00  0.64254665164E+03  0.64254665164E+03  0.00000000000E+00 0. -1.
         21   -1    0    0  501  503 -0.00000000000E+00 -0.00000000000E+00 -0.22248782239E+01  0.22248782239E+01  0.00000000000E+00 0.  1.
          2    1    1    2  501    0  0.24634709686E+02 -0.47072525735E+01  0.78910737350E+02  0.82800553242E+02  0.00000000000E+00 0.  1.
         -2    1    1    2    0  502 -0.24634709686E+02  0.47072525735E+01  0.56141103606E+03  0.56197097662E+03  0.00000000000E+00 0. -1.
</event>
<event>
 4    1  0.1848744E+004  0.2942199E+02  0.7546771E-02  0.1424687E+00
         21   -1    0    0  501  502  0.00000000000E+00  0.00000000000E+00  0.36879446142E+01  0.36879446142E+01  0.00000000000E+00 0.  1.
         21   -1    0    0  502  503 -0.00000000000E+00 -0.00000000000E+00 -0.36549619418E+03  0.36549619418E+03  0.00000000000E+00 0. -1.
          2    1    1    2  501    0  0.16188864759E+02  0.24567747225E+02 -0.29131893182E+03  0.29280091117E+03  0.00000000000E+00 0. -1.
         -2    1    1    2    0  503 -0.16188864759E+02 -0.24567747225E+02 -0.70489317750E+02  0.76383227627E+02  0.00000000000E+00 0.  1.
</event>
<event>
 4    1  0.1848744E+004  0.2301954E+02  0.7546771E-02  0.1492253E+00
         21   -1    0    0  503  502  0.00000000000E+00  0.00000000000E+00  0.22688707303E+02  0.22688707303E+02  0.00000000000E+00 0. -1.
         21   -1    0    0  501  503 -0.00000000000E+00 -0.00000000000E+00 -0.88072177013E+02  0.88072177013E+02  0.00000000000E+00 0.  1.
          2    1    1    2  501    0 -0.12555012159E+02  0.19294317828E+02 -0.80164683094E+02  0.83404289136E+02  0.00000000000E+00 0.  1.
         -2    1    1    2    0  502  0.12555012159E+02 -0.19294317828E+02  0.14781213383E+02  0.27356595180E+02  0.00000000000E+00 0. -1.
</event>
<event>
 4    1  0.1848744E+004  0.2985835E+02  0.7546771E-02  0.1420832E+00
         21   -1    0    0  503  502  0.00000000000E+00  0.00000000000E+00  0.39796819441E+03  0.39796819441E+03  0.00000000000E+00 0.  1.
         21   -1    0    0  501  503 -0.00000000000E+00 -0.00000000000E+00 -0.58380285528E+01  0.58380285528E+01  0.00000000000E+00 0. -1.
          2    1    1    2  501    0  0.29121399780E+02 -0.65927890063E+01  0.37564347159E+02  0.47985424553E+02  0.00000000000E+00 0. -1.
         -2    1    1    2    0  502 -0.29121399780E+02  0.65927890063E+01  0.35456581870E+03  0.35582079841E+03  0.00000000000E+00 0.  1.
</event>
<event>
 4    1  0.1848744E+004  0.3812262E+02  0.7546771E-02  0.1359853E+00
         21   -1    0    0  503  502  0.00000000000E+00  0.00000000000E+00  0.49396518726E+03  0.49396518726E+03  0.00000000000E+00 0. -1.
         21   -1    0    0  501  503 -0.00000000000E+00 -0.00000000000E+00 -0.30049862684E+01  0.30049862684E+01  0.00000000000E+00 0.  1.
          2    1    1    2  501    0 -0.18241334105E+02  0.33475182211E+02  0.20955620844E+03  0.21299563044E+03  0.00000000000E+00 0.  1.
         -2    1    1    2    0  502  0.18241334105E+02 -0.33475182211E+02  0.28140399255E+03  0.28397454308E+03  0.00000000000E+00 0. -1.
</event>
<event>
 4    1  0.1848744E+004  0.4466805E+02  0.7546771E-02  0.1323108E+00
         21   -1    0    0  501  502  0.00000000000E+00  0.00000000000E+00  0.56071886342E+03  0.56071886342E+03  0.00000000000E+00 0. -1.
         21   -1    0    0  502  503 -0.00000000000E+00 -0.00000000000E+00 -0.89689081571E+01  0.89689081571E+01  0.00000000000E+00 0.  1.
          2    1    1    2  501    0  0.44387986569E+02  0.49941302191E+01  0.49711214867E+03  0.49911493971E+03  0.00000000000E+00 0. -1.
         -2    1    1    2    0  503 -0.44387986569E+02 -0.49941302191E+01  0.54637806594E+02  0.70572831867E+02  0.00000000000E+00 0.  1.
</event>
<event>
 4    1  0.1848744E+004  0.2334103E+02  0.7546771E-02  0.1488260E+00
         21   -1    0    0  503  502  0.00000000000E+00  0.00000000000E+00  0.16140099786E+02  0.16140099786E+02  0.00000000000E+00 0. -1.
         21   -1    0    0  501  503 -0.00000000000E+00 -0.00000000000E+00 -0.12354966164E+03  0.12354966164E+03  0.00000000000E+00 0.  1.
          2    1    1    2  501    0  0.19952700999E+02  0.12111699719E+02 -0.11324903871E+03  0.11562935750E+03  0.00000000000E+00 0.  1.
         -2    1    1    2    0  502 -0.19952700999E+02 -0.12111699719E+02  0.58394768536E+01  0.24060403928E+02  0.00000000000E+00 0. -1.
</event>
<event>
 4    1  0.1848744E+004  0.2019644E+02  0.7546771E-02  0.1531054E+00
         21   -1    0    0  501  502  0.00000000000E+00  0.00000000000E+00  0.95936995740E+01  0.95936995740E+01  0.00000000000E+00 0. -1.
         21   -1    0    0  502  503 -0.00000000000E+00 -0.00000000000E+00 -0.32749270153E+03  0.32749270153E+03  0.00000000000E+00 0.  1.
          2    1    1    2  501    0  0.19183131644E+02 -0.63169491189E+01 -0.17271611618E+01  0.20270162099E+02  0.00000000000E+00 0. -1.
         -2    1    1    2    0  503 -0.19183131644E+02  0.63169491189E+01 -0.31617184080E+03  0.31681623901E+03  0.00000000000E+00 0.  1.
</event>
<event>
 4    1  0.1848744E+004  0.2425358E+02  0.7546771E-02  0.1477329E+00
         21   -1    0    0  503  502  0.00000000000E+00  0.00000000000E+00  0.94133421664E+01  0.94133421664E+01  0.00000000000E+00 0. -1.
         21   -1    0    0  501  503 -0.00000000000E+00 -0.00000000000E+00 -0.62609979053E+02  0.62609979053E+02  0.00000000000E+00 0.  1.
          2    1    1    2  501    0 -0.22157143963E+02  0.98639403154E+01 -0.25019516179E+02  0.34845552614E+02  0.00000000000E+00 0. -1.
         -2    1    1    2    0  502  0.22157143963E+02 -0.98639403154E+01 -0.28177120707E+02  0.37177768605E+02  0.00000000000E+00 0.  1.
</event>
<event>
 4    1  0.1848744E+004  0.2052443E+02  0.7546771E-02  0.1526164E+00
         21   -1    0    0  501  502  0.00000000000E+00  0.00000000000E+00  0.13719048202E+02  0.13719048202E+02  0.00000000000E+00 0.  1.
         21   -1    0    0  502  503 -0.00000000000E+00 -0.00000000000E+00 -0.13091213070E+03  0.13091213070E+03  0.00000000000E+00 0. -1.
          2    1    1    2  501    0  0.19591057026E+02  0.61190456610E+01  0.46723026498E+01  0.21049528433E+02  0.00000000000E+00 0. -1.
         -2    1    1    2    0  503 -0.19591057026E+02 -0.61190456610E+01 -0.12186538515E+03  0.12358165047E+03  0.00000000000E+00 0.  1.
</event>
<event>
 4    1  0.1848744E+004  0.2001717E+02  0.7546771E-02  0.1533773E+00
         21   -1    0    0  501  502  0.00000000000E+00  0.00000000000E+00  0.11727464542E+02  0.11727464542E+02  0.00000000000E+00 0. -1.
         21   -1    0    0  502  503 -0.00000000000E+00 -0.00000000000E+00 -0.49075011135E+02  0.49075011135E+02  0.00000000000E+00 0.  1.
          2    1    1    2  501    0  0.19159371065E+02  0.57970374820E+01 -0.19175052508E+01  0.20108803285E+02  0.00000000000E+00 0. -1.
         -2    1    1    2    0  503 -0.19159371065E+02 -0.57970374820E+01 -0.35430041342E+02  0.40693672391E+02  0.00000000000E+00 0.  1.
</event>
<event>
 4    1  0.1848744E+004  0.3172228E+02  0.7546771E-02  0.1405198E+00
         21   -1    0    0  503  502  0.00000000000E+00  0.00000000000E+00  0.20113142701E+02  0.20113142701E+02  0.00000000000E+00 0. -1.
         21   -1    0    0  501  503 -0.00000000000E+00 -0.00000000000E+00 -0.14916227244E+03  0.14916227244E+03  0.00000000000E+00 0.  1.
          2    1    1    2  501    0 -0.13855172978E+02 -0.28536593987E+02 -0.13352269163E+03  0.13723925165E+03  0.00000000000E+00 0.  1.
         -2    1    1    2    0  502  0.13855172978E+02  0.28536593987E+02  0.44735618949E+01  0.32036163482E+02  0.00000000000E+00 0. -1.
</event>
<event>
 4    1  0.1848744E+004  0.2191121E+02  0.7546771E-02  0.1506642E+00
         21   -1    0    0  501  502  0.00000000000E+00  0.00000000000E+00  0.35634331380E+02  0.35634331380E+02  0.00000000000E+00 0.  1.
         21   -1    0    0  502  503 -0.00000000000E+00 -0.00000000000E+00 -0.17410161831E+02  0.17410161831E+02  0.00000000000E+00 0. -1.
          2    1    1    2  501    0 -0.17931227570E+02 -0.12592540636E+02  0.21724581649E+02  0.30855444409E+02  0.00000000000E+00 0.  1.
         -2    1    1    2    0  503  0.17931227570E+02  0.12592540636E+02 -0.35004121008E+01  0.22189048802E+02  0.00000000000E+00 0. -1.
</event>
<event>
 4    1  0.1848744E+004  0.2626613E+02  0.7546771E-02  0.1455123E+00
         21   -1    0    0  503  502  0.00000000000E+00  0.00000000000E+00  0.39084954500E+02  0.39084954500E+02  0.00000000000E+00 0.  1.
         21   -1    0    0  501  503 -0.00000000000E+00 -0.00000000000E+00 -0.68479948337E+02  0.68479948337E+02  0.00000000000E+00 0. -1.
          2    1    1    2  501    0  0.25256375401E+02 -0.72128408634E+01 -0.61032814490E+02  0.66444819334E+02  0.00000000000E+00 0. -1.
         -2    1    1    2    0  502 -0.25256375401E+02  0.72128408634E+01  0.31637820652E+02  0.41120083503E+02  0.00000000000E+00 0.  1.
</event>
<event>
 4    1  0.1848744E+004  0.3679022E+02  0.7546771E-02  0.1368396E+00
         21   -1    0    0  501  502  0.00000000000E+00  0.00000000000E+00  0.36363231737E+01  0.36363231737E+01  0.00000000000E+00 0. -1.
         21   -1    0    0  502  503 -0.00000000000E+00 -0.00000000000E+00 -0.49354544279E+03  0.49354544279E+03  0.00000000000E+00 0.  1.
          2    1    1    2  501    0  0.23721515925E+02  0.28121346442E+02 -0.12170269053E+03  0.12714191018E+03  0.00000000000E+00 0.  1.
         -2    1    1    2    0  503 -0.23721515925E+02 -0.28121346442E+02 -0.36820642909E+03  0.37003985578E+03  0.00000000000E+00 0. -1.
</event>
<event>
 4    1  0.1848744E+004  0.3549563E+02  0.7546771E-02  0.1377112E+00
         21   -1    0    0  501  502  0.00000000000E+00  0.00000000000E+00  0.12242718908E+03  0.12242718908E+03  0.00000000000E+00 0.  1.
         21   -1    0    0  502  503 -0.00000000000E+00 -0.00000000000E+00 -0.15820275040E+02  0.15820275040E+02  0.00000000000E+00 0. -1.
          2    1    1    2  501    0  0.17807919439E+00  0.35495179186E+02  0.94167471165E+02  0.10063524275E+03  0.00000000000E+00 0.  1.
         -2    1    1    2    0  503 -0.17807919439E+00 -0.35495179186E+02  0.12439442880E+02  0.37612221375E+02  0.00000000000E+00 0. -1.
</event>
<event>
 4    1  0.1848744E+004  0.2040262E+02  0.7546771E-02  0.1527967E+00
         21   -1    0    0  503  502  0.00000000000E+00  0.00000000000E+00  0.23658128484E+01  0.23658128484E+01  0.00000000000E+00 0. -1.
         21   -1    0    0  501  503 -0.00000000000E+00 -0.00000000000E+00 -0.23361696857E+03  0.23361696857E+03  0.00000000000E+00 0.  1.
          2    1    1    2  501    0  0.15063918971E+02 -0.13760278559E+02 -0.17424725871E+03  0.17543766440E+03  0.00000000000E+00 0.  1.
         -2    1    1    2    0  502 -0.15063918971E+02  0.13760278559E+02 -0.57003897014E+02  0.60545117025E+02  0.00000000000E+00 0. -1.
</event>
<event>
 4    1  0.1848744E+004  0.2048559E+02  0.7546771E-02  0.1526738E+00
         21   -1    0    0  503  502  0.00000000000E+00  0.00000000000E+00  0.11000374156E+03  0.11000374156E+03  0.00000000000E+00 0. -1.
         21   -1    0    0  501  503 -0.00000000000E+00 -0.00000000000E+00 -0.38634969267E+01  0.38634969267E+01  0.00000000000E+00 0.  1.
          2    1    1    2  501    0 -0.20021963693E+02  0.43336175966E+01  0.46688381833E+02  0.50984941598E+02  0.00000000000E+00 0.  1.
         -2    1    1    2    0  502  0.20021963693E+02 -0.43336175966E+01  0.59451862805E+02  0.62882296893E+02  0.00000000000E+00 0. -1.
</event>
<event>
 4    1  0.1848744E+004  0.2196000E+02  0.7546771E-02  0.1505987E+00
         21   -1    0    0  503  502  0.00000000000E+00  0.00000000000E+00  0.14095988647E+01  0.14095988647E+01  0.00000000000E+00 0. -1.
         21   -1    0    0  501  503 -0.00000000000E+00 -0.00000000000E+00 -0.44916427165E+03  0.44916427165E+03  0.00000000000E+00 0.  1.
          2    1    1    2  501    0  0.77719581882E+01  0.20538706608E+02 -0.33386139518E+03  0.33458283428E+03  0.00000000000E+00 0.  1.
         -2    1    1    2    0  502 -0.77719581882E+01 -0.20538706608E+02 -0.11389327761E+03  0.11599103624E+03  0.00000000000E+00 0. -1.
</event>
<event>
 4    1  0.1848744E+004  0.2147239E+02  0.7546771E-02  0.1512626E+00
         21   -1    0    0  503  502  0.00000000000E+00  0.00000000000E+00  0.28815416789E+03  0.28815416789E+03  0.00000000000E+00 0. -1.
         21   -1    0    0  501  503 -0.00000000000E+00 -0.00000000000E+00 -0.22552815572E+01  0.22552815572E+01  0.00000000000E+00 0.  1.
          2    1    1    2  501    0  0.20390639183E+02 -0.67294266543E+01  0.64683080282E+02  0.68153974383E+02  0.00000000000E+00 0.  1.
         -2    1    1    2    0  502 -0.20390639183E+02  0.67294266543E+01  0.22121580605E+03  0.22225547507E+03  0.00000000000E+00 0. -1.
</event>
<event>
 4    1  0.1848744E+004  0.2159193E+02  0.7546771E-02  0.1510979E+00
         21   -1    0    0  501  502  0.00000000000E+00  0.00000000000E+00  0.10713276072E+03  0.10713276072E+03  0.00000000000E+00 0.  1.
         21   -1    0    0  502  503 -0.00000000000E+00 -0.00000000000E+00 -0.48811130879E+01  0.48811130879E+01  0.00000000000E+00 0. -1.
          2    1    1    2  501    0 -0.67113550957E+01  0.20522405825E+02  0.69570577397E+02  0.72844194466E+02  0.00000000000E+00 0.  1.
         -2    1    1    2    0  503  0.67113550957E+01 -0.20522405825E+02  0.32681070237E+02  0.39169679344E+02  0.00000000000E+00 0. -1.
</event>
<event>
 4    1  0.1848744E+004  0.2210594E+02  0.7546771E-02  0.1504041E+00
         21   -1    0    0  503  502  0.00000000000E+00  0.00000000000E+00  0.37250567956E+02  0.37250567956E+02  0.00000000000E+00 0.  1.
         21   -1    0    0  501  503 -0.00000000000E+00 -0.00000000000E+00 -0.38796651387E+02  0.38796651387E+02  0.00000000000E+00 0. -1.
          2    1    1    2  501    0  0.18955638581E+02 -0.11373485701E+02 -0.31707171959E+02  0.38652518219E+02  0.00000000000E+00 0. -1.
         -2    1    1    2    0  502 -0.18955638581E+02  0.11373485701E+02  0.30161088528E+02  0.37394701124E+02  0.00000000000E+00 0.  1.
</event>
<event>
 4    1  0.1848744E+004  0.5420751E+02  0.7546771E-02  0.1280893E+00
         21   -1    0    0  503  502  0.00000000000E+00  0.00000000000E+00  0.87706476405E+02  0.87706476405E+02  0.00000000000E+00 0. -1.
         21   -1    0    0  501  503 -0.00000000000E+00 -0.00000000000E+00 -0.37911126293E+02  0.37911126293E+02  0.00000000000E+00 0.  1.
          2    1    1    2  501    0  0.48384770841E+02  0.24441121334E+02  0.34810772324E+01  0.54319171202E+02  0.00000000000E+00 0.  1.
         -2    1    1    2    0  502 -0.48384770841E+02 -0.24441121334E+02  0.46314272880E+02  0.71298431496E+02  0.00000000000E+00 0. -1.
</event>
<event>
 4    1  0.1848744E+004  0.2529932E+02  0.7546771E-02  0.1465483E+00
         21   -1    0    0  501  502  0.00000000000E+00  0.00000000000E+00  0.87603683044E+01  0.87603683044E+01  0.00000000000E+00 0. -1.
         21   -1    0    0  502  503 -0.00000000000E+00 -0.00000000000E+00 -0.82727642244E+02  0.82727642244E+02  0.00000000000E+00 0.  1.
          2    1    1    2  501    0  0.23053711935E+02 -0.10420273365E+02 -0.21348215245E+02  0.33102900555E+02  0.00000000000E+00 0. -1.
         -2    1    1    2    0  503 -0.23053711935E+02  0.10420273365E+02 -0.52619058695E+02  0.58385109994E+02  0.00000000000E+00 0.  1.
</event>
<event>
 4    1  0.1848744E+004  0.2069239E+02  0.7546771E-02  0.1523702E+00
         21   -1    0    0  503  502  0.00000000000E+00  0.00000000000E+00  0.99418591446E+01  0.99418591446E+01  0.00000000000E+00 0. -1.
         21   -1    0    0  501  503 -0.00000000000E+00 -0.00000000000E+00 -0.10467535136E+03  0.10467535136E+03  0.00000000000E+00 0.  1.
          2    1    1    2  501    0 -0.20646635224E+02  0.13752976202E+01 -0.91332472088E+02  0.93647186008E+02  0.00000000000E+00 0.  1.
         -2    1    1    2    0  502  0.20646635224E+02 -0.13752976202E+01 -0.34010201322E+01  0.20970024501E+02  0.00000000000E+00 0. -1.
</event>
<event>
 4    1  0.1848744E+004  0.3736569E+02  0.7546771E-02  0.1364655E+00
         21   -1    0    0  503  502  0.00000000000E+00  0.00000000000E+00  0.20920760814E+02  0.20920760814E+02  0.00000000000E+00 0.  1.
         21   -1    0    0  501  503 -0.00000000000E+00 -0.00000000000E+00 -0.57098748658E+03  0.57098748658E+03  0.00000000000E+00 0. -1.
          2    1    1    2  501    0  0.30972156352E+02 -0.20902638160E+02 -0.55315459269E+03  0.55441518572E+03  0.00000000000E+00 0. -1.
         -2    1    1    2    0  502 -0.30972156352E+02  0.20902638160E+02  0.30878669223E+01  0.37493061669E+02  0.00000000000E+00 0.  1.
</event>
<event>
 4    1  0.1848744E+004  0.2103903E+02  0.7546771E-02  0.1518708E+00
         21   -1    0    0  503  502  0.00000000000E+00  0.00000000000E+00  0.10770480242E+03  0.10770480242E+03  0.00000000000E+00 0. -1.
         21   -1    0    0  501  503 -0.00000000000E+00 -0.00000000000E+00 -0.93451036525E+01  0.93451036525E+01  0.00000000000E+00 0.  1.
          2    1    1    2  501    0  0.64449359951E+01 -0.20027568792E+02  0.53750517975E+01  0.21714785137E+02  0.00000000000E+00 0.  1.
         -2    1    1    2    0  502 -0.64449359951E+01  0.20027568792E+02  0.92984646974E+02  0.95335120940E+02  0.00000000000E+00 0. -1.
</event>
<event>
 4    1  0.1848744E+004  0.2154317E+02  0.7546771E-02  0.1511649E+00
         21   -1    0    0  503  502  0.00000000000E+00  0.00000000000E+00  0.18433745507E+02  0.18433745507E+02  0.00000000000E+00 0. -1.
         21   -1    0    0  501  503 -0.00000000000E+00 -0.00000000000E+00 -0.30321566423E+02  0.30321566423E+02  0.00000000000E+00 0.  1.
          2    1    1    2  501    0 -0.29433504918E+01  0.21341151484E+02 -0.15985136473E+02  0.26825969634E+02  0.00000000000E+00 0.  1.
         -2    1    1    2    0  502  0.29433504918E+01 -0.21341151484E+02  0.40973155571E+01  0.21929342296E+02  0.00000000000E+00 0. -1.
</event>
<event>
 4    1  0.1848744E+004  0.4826401E+02  0.7546771E-02  0.1305880E+00
         21   -1    0    0  503  502  0.00000000000E+00  0.00000000000E+00  0.89776623709E+01  0.89776623709E+01  0.00000000000E+00 0.  1.
         21   -1    0    0  501  503 -0.00000000000E+00 -0.00000000000E+00 -0.26214921423E+03  0.26214921423E+03  0.00000000000E+00 0. -1.
          2    1    1    2  501    0 -0.35507411289E+02  0.32690030451E+02 -0.11287538420E+03  0.12276101460E+03  0.00000000000E+00 0. -1.
         -2    1    1    2    0  502  0.35507411289E+02 -0.32690030451E+02 -0.14029616765E+03  0.14836586200E+03  0.00000000000E+00 0.  1.
</event>
<event>
 4    1  0.1848744E+004  0.2544110E+02  0.7546771E-02  0.1463929E+00
         21   -1    0    0  501  502  0.00000000000E+00  0.00000000000E+00  0.71880026005E+01  0.71880026005E+01  0.00000000000E+00 0. -1.
         21   -1    0    0  502  503 -0.00000000000E+00 -0.00000000000E+00 -0.20624831083E+03  0.20624831083E+03  0.00000000000E+00 0.  1.
          2    1    1    2  501    0 -0.18319946441E+02 -0.17653025381E+02 -0.19426782981E+02  0.32010149011E+02  0.00000000000E+00 0. -1.
         -2    1    1    2    0  503  0.18319946441E+02  0.17653025381E+02 -0.17963352525E+03  0.18142616442E+03  0.00000000000E+00 0.  1.
</event>
<event>
 4    1  0.1848744E+004  0.9074021E+02  0.7546771E-02  0.1180899E+00
         21   -1    0    0  501  502  0.00000000000E+00  0.00000000000E+00  0.53830007325E+03  0.53830007325E+03  0.00000000000E+00 0.  1.
         21   -1    0    0  502  503 -0.00000000000E+00 -0.00000000000E+00 -0.16035782872E+02  0.16035782872E+02  0.00000000000E+00 0. -1.
          2    1    1    2  501    0 -0.89295022108E+02 -0.16130241211E+02  0.32066799067E+03  0.33325927729E+03  0.00000000000E+00 0.  1.
         -2    1    1    2    0  503  0.89295022108E+02  0.16130241211E+02  0.20159629971E+03  0.22107657884E+03  0.00000000000E+00 0. -1.
</event>
<event>
 4    1  0.1848744E+004  0.2481068E+02  0.7546771E-02  0.1470932E+00
         21   -1    0    0  501  502  0.00000000000E+00  0.00000000000E+00  0.74325899748E+01  0.74325899748E+01  0.00000000000E+00 0.  1.
         21   -1    0    0  502  503 -0.00000000000E+00 -0.00000000000E+00 -0.95574468213E+02  0.95574468213E+02  0.00000000000E+00 0. -1.
          2    1    1    2  501    0 -0.26022670824E+00  0.24809318327E+02 -0.25256529434E+02  0.35404269133E+02  0.00000000000E+00 0. -1.
         -2    1    1    2    0  503  0.26022670824E+00 -0.24809318327E+02 -0.62885348803E+02  0.67602789054E+02  0.00000000000E+00 0.  1.
</event>
<event>
 4    1  0.1848744E+004  0.3323845E+02  0.7546771E-02  0.1393389E+00
         21   -1    0    0  503  502  0.00000000000E+00  0.00000000000E+00  0.81650848267E+03  0.81650848267E+03  0.00000000000E+00 0.  1.
         21   -1    0    0  501  503 -0.00000000000E+00 -0.00000000000E+00 -0.13575820548E+01  0.13575820548E+01  0.00000000000E+00 0. -1.
          2    1    1    2  501    0  0.20261299027E+02 -0.26349085063E+02  0.43114625605E+03  0.43242558738E+03  0.00000000000E+00 0.  1.
         -2    1    1    2    0  502 -0.20261299027E+02  0.26349085063E+02  0.38400464457E+03  0.38544047734E+03  0.00000000000E+00 0. -1.
</event>
<event>
 4    1  0.1848744E+004  0.3015796E+02  0.7546771E-02  0.1418229E+00
         21   -1    0    0  501  502  0.00000000000E+00  0.00000000000E+00  0.13410519229E+03  0.13410519229E+03  0.00000000000E+00 0. -1.
         21   -1    0    0  502  503 -0.00000000000E+00 -0.00000000000E+00 -0.14050156733E+02  0.14050156733E+02  0.00000000000E+00 0.  1.
          2    1    1    2  501    0  0.16719044402E+02  0.25099327578E+02  0.11330683043E+03  0.11725161199E+03  0.00000000000E+00 0. -1.
         -2    1    1    2    0  503 -0.16719044402E+02 -0.25099327578E+02  0.67482051274E+01  0.30903737040E+02  0.00000000000E+00 0.  1.
</event>
<event>
 4    1  0.1848744E+004  0.2259264E+02  0.7546771E-02  0.1497678E+00
         21   -1    0    0  501  502  0.00000000000E+00  0.00000000000E+00  0.90862108536E+02  0.90862108536E+02  0.00000000000E+00 0.  1.
         21   -1    0    0  502  503 -0.00000000000E+00 -0.00000000000E+00 -0.56199774926E+01  0.56199774926E+01  0.00000000000E+00 0. -1.
          2    1    1    2  501    0  0.13398767308E+02 -0.18190667342E+02  0.41629676787E+02  0.47365148930E+02  0.00000000000E+00 0. -1.
         -2    1    1    2    0  503 -0.13398767308E+02  0.18190667342E+02  0.43612454256E+02  0.49116937099E+02  0.00000000000E+00 0.  1.
</event>
<event>
 4    1  0.1848744E+004  0.2021525E+02  0.7546771E-02  0.1530770E+00
         21   -1    0    0  503  502  0.00000000000E+00  0.00000000000E+00  0.69426784937E+02  0.69426784937E+02  0.00000000000E+00 0. -1.
         21   -1    0    0  501  503 -0.00000000000E+00 -0.00000000000E+00 -0.16887456774E+02  0.16887456774E+02  0.00000000000E+00 0.  1.
          2    1    1    2  501    0  0.17958369520E+02  0.92818791979E+01 -0.85634674542E+01  0.21954254533E+02  0.00000000000E+00 0.  1.
         -2    1    1    2    0  502 -0.17958369520E+02 -0.92818791979E+01  0.61102795617E+02  0.64359987178E+02  0.00000000000E+00 0. -1.
</event>
<event>
 4    1  0.1848744E+004  0.2152028E+02  0.7546771E-02  0.1511965E+00
         21   -1    0    0  501  502  0.00000000000E+00  0.00000000000E+00  0.12666533686E+02  0.12666533686E+02  0.00000000000E+00 0.  1.
         21   -1    0    0  502  503 -0.00000000000E+00 -0.00000000000E+00 -0.20379142913E+03  0.20379142913E+03  0.00000000000E+00 0. -1.
          2    1    1    2  501    0 -0.79941591937E+01 -0.19980390739E+02  0.24781761351E+01  0.21662501062E+02  0.00000000000E+00 0.  1.
         -2    1    1    2    0  503  0.79941591937E+01  0.19980390739E+02 -0.19360307158E+03  0.19479546175E+03  0.00000000000E+00 0. -1.
</event>
<event>
 4    1  0.1848744E+004  0.3594616E+02  0.7546771E-02  0.1374031E+00
         21   -1    0    0  503  502  0.00000000000E+00  0.00000000000E+00  0.94762882865E+02  0.94762882865E+02  0.00000000000E+00 0.  1.
         21   -1    0    0  501  503 -0.00000000000E+00 -0.00000000000E+00 -0.23554143877E+02  0.23554143877E+02  0.00000000000E+00 0. -1.
          2    1    1    2  501    0  0.35183920644E+02  0.73632864844E+01 -0.27851564245E+01  0.36053895158E+02  0.00000000000E+00 0. -1.
         -2    1    1    2    0  502 -0.35183920644E+02 -0.73632864844E+01  0.73993895412E+02  0.82263131584E+02  0.00000000000E+00 0.  1.
</event>
<event>
 4    1  0.1848744E+004  0.2643351E+02  0.7546771E-02  0.1453383E+00
         21   -1    0    0  501  502  0.00000000000E+00  0.00000000000E+00  0.10561754973E+03  0.10561754973E+03  0.00000000000E+00 0. -1.
         21   -1    0    0  502  503 -0.00000000000E+00 -0.00000000000E+00 -0.23253714413E+02  0.23253714413E+02  0.00000000000E+00 0.  1.
          2    1    1    2  501    0 -0.71059425438E+01  0.25460482747E+02  0.95686259136E+02  0.99270291571E+02  0.00000000000E+00 0. -1.
         -2    1    1    2    0  503  0.71059425438E+01 -0.25460482747E+02 -0.13322423815E+02  0.29600972576E+02  0.00000000000E+00 0.  1.
</event>
<event>
 4    1  0.1848744E+004  0.3416138E+02  0.7546771E-02  0.1386557E+00
         21   -1    0    0  503  502  0.00000000000E+00  0.00000000000E+00  0.27015343510E+02  0.27015343510E+02  0.00000000000E+00 0.  1.
         21   -1    0    0  501  503 -0.00000000000E+00 -0.00000000000E+00 -0.63132448917E+02  0.63132448917E+02  0.00000000000E+00 0. -1.
          2    1    1    2  501    0  0.26725637793E+02 -0.21277694634E+02 -0.43386759860E+02  0.55221471690E+02  0.00000000000E+00 0. -1.
         -2    1    1    2    0  502 -0.26725637793E+02  0.21277694634E+02  0.72696544534E+01  0.34926320738E+02  0.00000000000E+00 0.  1.
</event>
<event>
 4    1  0.1848744E+004  0.2590064E+02  0.7546771E-02  0.1458975E+00
         21   -1    0    0  503  502  0.00000000000E+00  0.00000000000E+00  0.38010137676E+02  0.38010137676E+02  0.00000000000E+00 0.  1.
         21   -1    0    0  501  503 -0.00000000000E+00 -0.00000000000E+00 -0.29671861596E+02  0.29671861596E+02  0.00000000000E+00 0. -1.
          2    1    1    2  501    0  0.19119616596E+01 -0.25829969363E+02 -0.17372253862E+02  0.31187146695E+02  0.00000000000E+00 0. -1.
         -2    1    1    2    0  502 -0.19119616596E+01  0.25829969363E+02  0.25710529943E+02  0.36494852577E+02  0.00000000000E+00 0.  1.
</event>
<event>
 4    1  0.1848744E+004  0.2228867E+02  0.7546771E-02  0.1501629E+00
         21   -1    0    0  503  502  0.00000000000E+00  0.00000000000E+00  0.27298504627E+02  0.27298504627E+02  0.00000000000E+00 0. -1.
         21   -1    0    0  501  503 -0.00000000000E+00 -0.00000000000E+00 -0.54503975951E+02  0.54503975951E+02  0.00000000000E+00 0.  1.
          2    1    1    2  501    0  0.22161223335E+02 -0.23800939917E+01 -0.46984556635E+02  0.52003204029E+02  0.00000000000E+00 0.  1.
         -2    1    1    2    0  502 -0.22161223335E+02  0.23800939917E+01  0.19779085311E+02  0.29799276549E+02  0.00000000000E+00 0. -1.
</event>
<event>
 4    1  0.1848744E+004  0.2323524E+02  0.7546771E-02  0.1489565E+00
         21   -1    0    0  501  502  0.00000000000E+00  0.00000000000E+00  0.14508132098E+03  0.14508132098E+03  0.00000000000E+00 0. -1.
         21   -1    0    0  502  503 -0.00000000000E+00 -0.00000000000E+00 -0.71933513219E+01  0.71933513219E+01  0.00000000000E+00 0.  1.
          2    1    1    2  501    0  0.11577593204E+01 -0.23206381142E+02  0.12184102821E+03  0.12403673927E+03  0.00000000000E+00 0. -1.
         -2    1    1    2    0  503 -0.11577593204E+01  0.23206381142E+02  0.16046941449E+02  0.28237933037E+02  0.00000000000E+00 0.  1.
</event>
<event>
 4    1  0.1848744E+004  0.4637692E+02  0.7546771E-02  0.1314694E+00
         21   -1    0    0  503  502  0.00000000000E+00  0.00000000000E+00  0.26942672954E+02  0.26942672954E+02  0.00000000000E+00 0. -1.
         21   -1    0    0  501  503 -0.00000000000E+00 -0.00000000000E+00 -0.10217455155E+03  0.10217455155E+03  0.00000000000E+00 0.  1.
          2    1    1    2  501    0 -0.35776731736E+01 -0.46238714915E+02 -0.67806701451E+02  0.82149663809E+02  0.00000000000E+00 0. -1.
         -2    1    1    2    0  502  0.35776731736E+01  0.46238714915E+02 -0.74251771499E+01  0.46967560699E+02  0.00000000000E+00 0.  1.
</event>
<event>
 4    1  0.1848744E+004  0.3890416E+02  0.7546771E-02  0.1355030E+00
         21   -1    0    0  501  502  0.00000000000E+00  0.00000000000E+00  0.31021305168E+02  0.31021305168E+02  0.00000000000E+00 0. -1.
         21   -1    0    0  502  503 -0.00000000000E+00 -0.00000000000E+00 -0.60248179971E+02  0.60248179971E+02  0.00000000000E+00 0.  1.
          2    1    1    2  501    0  0.36436429238E+02  0.13635245439E+02  0.52877563665E+01  0.39261860134E+02  0.00000000000E+00 0. -1.
         -2    1    1    2    0  503 -0.36436429238E+02 -0.13635245439E+02 -0.34514631170E+02  0.52007625005E+02  0.00000000000E+00 0.  1.
</event>
<event>
 4    1  0.1848744E+004  0.3341614E+02  0.7546771E-02  0.1392054E+00
         21   -1    0    0  501  502  0.00000000000E+00  0.00000000000E+00  0.13851608251E+02  0.13851608251E+02  0.00000000000E+00 0. -1.
         21   -1    0    0  502  503 -0.00000000000E+00 -0.00000000000E+00 -0.46044831489E+03  0.46044831489E+03  0.00000000000E+00 0.  1.
          2    1    1    2  501    0  0.13963864673E+02  0.30358670124E+02 -0.79063804189E+01  0.34338742255E+02  0.00000000000E+00 0. -1.
         -2    1    1    2    0  503 -0.13963864673E+02 -0.30358670124E+02 -0.43869032622E+03  0.43996118089E+03  0.00000000000E+00 0.  1.
</event>
<event>
 4    1  0.1848744E+004  0.2009654E+02  0.7546771E-02  0.1532565E+00
         21   -1    0    0  503  502  0.00000000000E+00  0.00000000000E+00  0.21082130208E+01  0.21082130208E+01  0.00000000000E+00 0. -1.
         21   -1    0    0  501  503 -0.00000000000E+00 -0.00000000000E+00 -0.20253663178E+03  0.20253663178E+03  0.00000000000E+00 0.  1.
          2    1    1    2  501    0 -0.17480166771E+02 -0.99153770706E+01 -0.76404705213E+02  0.79003480376E+02  0.00000000000E+00 0. -1.
         -2    1    1    2    0  502  0.17480166771E+02  0.99153770706E+01 -0.12402371355E+03  0.12564136443E+03  0.00000000000E+00 0.  1.
</event>
<event>
 4    1  0.1848744E+004  0.2127777E+02  0.7546771E-02  0.1515336E+00
         21   -1    0    0  503  502  0.00000000000E+00  0.00000000000E+00  0.11233413635E+03  0.11233413635E+03  0.00000000000E+00 0. -1.
         21   -1    0    0  501  503 -0.00000000000E+00 -0.00000000000E+00 -0.44498470376E+01  0.44498470376E+01  0.00000000000E+00 0.  1.
          2    1    1    2  501    0 -0.20503677608E+02  0.56870613039E+01  0.36013132169E+02  0.41829285798E+02  0.00000000000E+00 0. -1.
         -2    1    1    2    0  502  0.20503677608E+02 -0.56870613039E+01  0.71871157147E+02  0.74954697594E+02  0.00000000000E+00 0.  1.
</event>
<event>
 4    1  0.1848744E+004  0.2759800E+02  0.7546771E-02  0.1441692E+00
         21   -1    0    0  501  502  0.00000000000E+00  0.00000000000E+00  0.46626218131E+03  0.46626218131E+03  0.00000000000E+00 0. -1.
         21   -1    0    0  502  503 -0.00000000000E+00 -0.00000000000E+00 -0.27930056692E+01  0.27930056692E+01  0.00000000000E+00 0.  1.
          2    1    1    2  501    0 -0.15349228002E+02 -0.22935799374E+02  0.38284357391E+03  0.38383701199E+03  0.00000000000E+00 0. -1.
         -2    1    1    2    0  503  0.15349228002E+02  0.22935799374E+02  0.80625601731E+02  0.85218174985E+02  0.00000000000E+00 0.  1.
</event>
<event>
 4    1  0.1848744E+004  0.3066829E+02  0.7546771E-02  0.1413876E+00
         21   -1    0    0  503  502  0.00000000000E+00  0.00000000000E+00  0.51874321405E+01  0.51874321405E+01  0.00000000000E+00 0.  1.
         21   -1    0    0  501  503 -0.00000000000E+00 -0.00000000000E+00 -0.21223610363E+03  0.21223610363E+03  0.00000000000E+00 0. -1.
          2    1    1    2  501    0  0.21344678617E+02 -0.22021546530E+02 -0.14502120411E+03  0.14822851770E+03  0.00000000000E+00 0. -1.
         -2    1    1    2    0  502 -0.21344678617E+02  0.22021546530E+02 -0.62027467380E+02  0.69195018075E+02  0.00000000000E+00 0.  1.
</event>
<event>
 4    1  0.1848744E+004  0.2506124E+02  0.7546771E-02  0.1468119E+00
         21   -1    0    0  501  502  0.00000000000E+00  0.00000000000E+00  0.11127610624E+03  0.11127610624E+03  0.00000000000E+00 0.  1.
         21   -1    0    0  502  503 -0.00000000000E+00 -0.00000000000E+00 -0.13055380580E+02  0.13055380580E+02  0.00000000000E+00 0. -1.
          2    1    1    2  501    0 -0.24210349267E+02  0.64749282100E+01  0.95948516718E+02  0.99167452157E+02  0.00000000000E+00 0.  1.
         -2    1    1    2    0  503  0.24210349267E+02 -0.64749282100E+01  0.22722089397E+01  0.25164034661E+02  0.00000000000E+00 0. -1.
</event>
<event>
 4    1  0.1848744E+004  0.3775912E+02  0.7546771E-02  0.1362142E+00
         21   -1    0    0  501  502  0.00000000000E+00  0.00000000000E+00  0.11791009017E+02  0.11791009017E+02  0.00000000000E+00 0. -1.
         21   -1    0    0  502  503 -0.00000000000E+00 -0.00000000000E+00 -0.12502369549E+03  0.12502369549E+03  0.00000000000E+00 0.  1.
          2    1    1    2  501    0 -0.39217533094E+01  0.37554909176E+02 -0.44220601700E+02  0.58148198312E+02  0.00000000000E+00 0. -1.
         -2    1    1    2    0  503  0.39217533094E+01 -0.37554909176E+02 -0.69012084773E+02  0.78666506195E+02  0.00000000000E+00 0.  1.
</event>
<event>
 4    1  0.1848744E+004  0.2097596E+02  0.7546771E-02  0.1519608E+00
         21   -1    0    0  503  502  0.00000000000E+00  0.00000000000E+00  0.21126347300E+03  0.21126347300E+03  0.00000000000E+00 0.  1.
         21   -1    0    0  501  503 -0.00000000000E+00 -0.00000000000E+00 -0.22822877949E+01  0.22822877949E+01  0.00000000000E+00 0. -1.
          2    1    1    2  501    0  0.20938235897E+02 -0.12573943651E+01  0.72912764825E+02  0.75870033857E+02  0.00000000000E+00 0. -1.
         -2    1    1    2    0  502 -0.20938235897E+02  0.12573943651E+01  0.13606842038E+03  0.13767572694E+03  0.00000000000E+00 0.  1.
</event>
<event>
 4    1  0.1848744E+004  0.3461984E+02  0.7546771E-02  0.1383256E+00
         21   -1    0    0  501  502  0.00000000000E+00  0.00000000000E+00  0.24608299960E+03  0.24608299960E+03  0.00000000000E+00 0.  1.
         21   -1    0    0  502  503 -0.00000000000E+00 -0.00000000000E+00 -0.13904187339E+02  0.13904187339E+02  0.00000000000E+00 0. -1.
          2    1    1    2  501    0  0.29792307988E+02  0.17633831905E+02  0.22087051756E+03  0.22356725871E+03  0.00000000000E+00 0.  1.
         -2    1    1    2    0  503 -0.29792307988E+02 -0.17633831905E+02  0.11308294707E+02  0.36419928228E+02  0.00000000000E+00 0. -1.
</event>
<event>
 4    1  0.1848744E+004  0.2422011E+02  0.7546771E-02  0.1477720E+00
         21   -1    0    0  501  502  0.00000000000E+00  0.00000000000E+00  0.59739982730E+00  0.59739982730E+00  0.00000000000E+00 0.  1.
         21   -1    0    0  502  503 -0.00000000000E+00 -0.00000000000E+00 -0.14506382107E+04  0.14506382107E+04  0.00000000000E+00 0. -1.
          2    1    1    2  501    0 -0.22233493156E+02 -0.96065360950E+01 -0.31256906334E+03  0.31350603361E+03  0.00000000000E+00 0.  1.
         -2    1    1    2    0  503  0.22233493156E+02  0.96065360950E+01 -0.11374717475E+04  0.11377295769E+04  0.00000000000E+00 0. -1.
</event>
<event>
 4    1  0.1848744E+004  0.2051867E+02  0.7546771E-02  0.1526249E+00
         21   -1    0    0  503  502  0.00000000000E+00  0.00000000000E+00  0.22303670999E+01  0.22303670999E+01  0.00000000000E+00 0. -1.
         21   -1    0    0  501  503 -0.00000000000E+00 -0.00000000000E+00 -0.22843277708E+03  0.22843277708E+03  0.00000000000E+00 0.  1.
          2    1    1    2  501    0 -0.13152654425E+02  0.15748756723E+02 -0.16116155453E+03  0.16246249511E+03  0.00000000000E+00 0.  1.
         -2    1    1    2    0  502  0.13152654425E+02 -0.15748756723E+02 -0.65040855448E+02  0.68200649074E+02  0.00000000000E+00 0. -1.
</event>
<event>
 4    1  0.1848744E+004  0.2008053E+02  0.7546771E-02  0.1532808E+00
         21   -1    0    0  503  502  0.00000000000E+00  0.00000000000E+00  0.34784524363E+01  0.34784524363E+01  0.00000000000E+00 0.  1.
         21   -1    0    0  501  503 -0.00000000000E+00 -0.00000000000E+00 -0.17631177287E+03  0.17631177287E+03  0.00000000000E+00 0. -1.
          2    1    1    2  501    0 -0.86016925548E+01  0.18144929072E+02 -0.13902792886E+03  0.14047061105E+03  0.00000000000E+00 0. -1.
         -2    1    1    2    0  502  0.86016925548E+01 -0.18144929072E+02 -0.33805391578E+02  0.39319614260E+02  0.00000000000E+00 0.  1.
</event>
<event>
 4    1  0.1848744E+004  0.2478268E+02  0.7546771E-02  0.1471249E+00
         21   -1    0    0  501  502  0.00000000000E+00  0.00000000000E+00  0.13665550225E+02  0.13665550225E+02  0.00000000000E+00 0. -1.
         21   -1    0    0  502  503 -0.00000000000E+00 -0.00000000000E+00 -0.19381543944E+03  0.19381543944E+03  0.00000000000E+00 0.  1.
          2    1    1    2  501    0  0.24880435994E+01  0.24657475306E+02  0.84520639863E+00  0.24797093041E+02  0.00000000000E+00 0. -1.
         -2    1    1    2    0  503 -0.24880435994E+01 -0.24657475306E+02 -0.18099509561E+03  0.18268389662E+03  0.00000000000E+00 0.  1.
</event>
<event>
 4    1  0.1848744E+004  0.2030203E+02  0.7546771E-02  0.1529468E+00
         21   -1    0    0  503  502  0.00000000000E+00  0.00000000000E+00  0.68414691602E+01  0.68414691602E+01  0.00000000000E+00 0. -1.
         21   -1    0    0  501  503 -0.00000000000E+00 -0.00000000000E+00 -0.67736926208E+02  0.67736926208E+02  0.00000000000E+00 0.  1.
          2    1    1    2  501    0 -0.14548554451E+02  0.14160227912E+02 -0.42848033823E+02  0.47414412298E+02  0.00000000000E+00 0.  1.
         -2    1    1    2    0  502  0.14548554451E+02 -0.14160227912E+02 -0.18047423225E+02  0.27163983070E+02  0.00000000000E+00 0. -1.
</event>
<event>
 4    1  0.1848744E+004  0.2011178E+02  0.7546771E-02  0.1532334E+00
         21   -1    0    0  501  502  0.00000000000E+00  0.00000000000E+00  0.82288750230E+02  0.82288750230E+02  0.00000000000E+00 0.  1.
         21   -1    0    0  502  503 -0.00000000000E+00 -0.00000000000E+00 -0.69138556270E+01  0.69138556270E+01  0.00000000000E+00 0. -1.
          2    1    1    2  501    0  0.19000062724E+02 -0.65940218875E+01  0.13708350645E+02  0.24339317690E+02  0.00000000000E+00 0. -1.
         -2    1    1    2    0  503 -0.19000062724E+02  0.65940218875E+01  0.61666543958E+02  0.64863288167E+02  0.00000000000E+00 0.  1.
</event>
<event>
 4    1  0.1848744E+004  0.2123096E+02  0.7546771E-02  0.1515993E+00
         21   -1    0    0  501  502  0.00000000000E+00  0.00000000000E+00  0.42991664953E+02  0.42991664953E+02  0.00000000000E+00 0.  1.
         21   -1    0    0  502  503 -0.00000000000E+00 -0.00000000000E+00 -0.12396904590E+02  0.12396904590E+02  0.00000000000E+00 0. -1.
          2    1    1    2  501    0  0.18907941971E+02  0.96562594283E+01  0.26174241508E+02  0.33702292715E+02  0.00000000000E+00 0.  1.
         -2    1    1    2    0  503 -0.18907941971E+02 -0.96562594283E+01  0.44205188555E+01  0.21686276828E+02  0.00000000000E+00 0. -1.
</event>
<event>
 4    1  0.1848744E+004  0.6783542E+02  0.7546771E-02  0.1235308E+00
         21   -1    0    0  503  502  0.00000000000E+00  0.00000000000E+00  0.14075511581E+03  0.14075511581E+03  0.00000000000E+00 0. -1.
         21   -1    0    0  501  503 -0.00000000000E+00 -0.00000000000E+00 -0.33097474931E+02  0.33097474931E+02  0.00000000000E+00 0.  1.
          2    1    1    2  501    0  0.81931191449E+01  0.67338823818E+02  0.63443575086E+02  0.92880200335E+02  0.00000000000E+00 0. -1.
         -2    1    1    2    0  502 -0.81931191449E+01 -0.67338823818E+02  0.44214065795E+02  0.80972390410E+02  0.00000000000E+00 0.  1.
</event>
<event>
 4    1  0.1848744E+004  0.2731209E+02  0.7546771E-02  0.1444498E+00
         21   -1    0    0  501  502  0.00000000000E+00  0.00000000000E+00  0.13117746074E+02  0.13117746074E+02  0.00000000000E+00 0. -1.
         21   -1    0    0  502  503 -0.00000000000E+00 -0.00000000000E+00 -0.86968894475E+02  0.86968894475E+02  0.00000000000E+00 0.  1.
          2    1    1    2  501    0 -0.26108939432E+02  0.80170776864E+01 -0.74833787094E+01  0.28318743083E+02  0.00000000000E+00 0. -1.
         -2    1    1    2    0  503  0.26108939432E+02 -0.80170776864E+01 -0.66367769692E+02  0.71767897466E+02  0.00000000000E+00 0.  1.
</event>
<event>
 4    1  0.1848744E+004  0.2214753E+02  0.7546771E-02  0.1503489E+00
         21   -1    0    0  501  502  0.00000000000E+00  0.00000000000E+00  0.11335457930E+02  0.11335457930E+02  0.00000000000E+00 0.  1.
         21   -1    0    0  502  503 -0.00000000000E+00 -0.00000000000E+00 -0.60439909101E+02  0.60439909101E+02  0.00000000000E+00 0. -1.
          2    1    1    2  501    0  0.16760041690E+00  0.22146898234E+02 -0.54256877874E+01  0.22802440204E+02  0.00000000000E+00 0.  1.
         -2    1    1    2    0  503 -0.16760041690E+00 -0.22146898234E+02 -0.43678763383E+02  0.48972926827E+02  0.00000000000E+00 0. -1.
</event>
<event>
 4    1  0.1848744E+004  0.2538222E+02  0.7546771E-02  0.1464573E+00
         21   -1    0    0  501  502  0.00000000000E+00  0.00000000000E+00  0.33116507532E+01  0.33116507532E+01  0.00000000000E+00 0. -1.
         21   -1    0    0  502  503 -0.00000000000E+00 -0.00000000000E+00 -0.49049848993E+03  0.49049848993E+03  0.00000000000E+00 0.  1.
          2    1    1    2  501    0 -0.25090826700E+02  0.38350390927E+01 -0.51803987381E+02  0.57688042244E+02  0.00000000000E+00 0. -1.
         -2    1    1    2    0  503  0.25090826700E+02 -0.38350390927E+01 -0.43538285180E+03  0.43612209844E+03  0.00000000000E+00 0.  1.
</event>
<event>
 4    1  0.1848744E+004  0.2043059E+02  0.7546771E-02  0.1527552E+00
         21   -1    0    0  501  502  0.00000000000E+00  0.00000000000E+00  0.22074858935E+02  0.22074858935E+02  0.00000000000E+00 0.  1.
         21   -1    0    0  502  503 -0.00000000000E+00 -0.00000000000E+00 -0.19935537301E+02  0.19935537301E+02  0.00000000000E+00 0. -1.
          2    1    1    2  501    0 -0.20286157963E+02 -0.24250073031E+01  0.58366553867E+01  0.21247950758E+02  0.00000000000E+00 0.  1.
         -2    1    1    2    0  503  0.20286157963E+02  0.24250073031E+01 -0.36973337535E+01  0.20762445478E+02  0.00000000000E+00 0. -1.
</event>
<event>
 4    1  0.1848744E+004  0.3210607E+02  0.7546771E-02  0.1402136E+00
         21   -1    0    0  503  502  0.00000000000E+00  0.00000000000E+00  0.12832990084E+02  0.12832990084E+02  0.00000000000E+00 0. -1.
         21   -1    0    0  501  503 -0.00000000000E+00 -0.00000000000E+00 -0.81329452397E+02  0.81329452397E+02  0.00000000000E+00 0.  1.
          2    1    1    2  501    0 -0.28927474165E+02 -0.13928430940E+02 -0.39482505802E+02  0.50888782796E+02  0.00000000000E+00 0. -1.
         -2    1    1    2    0  502  0.28927474165E+02  0.13928430940E+02 -0.29013956511E+02  0.43273659684E+02  0.00000000000E+00 0.  1.
</event>
<event>
 4    1  0.1848744E+004  0.2427632E+02  0.7546771E-02  0.1477064E+00
         21   -1    0    0  501  502  0.00000000000E+00  0.00000000000E+00  0.67679033415E+01  0.67679033415E+01  0.00000000000E+00 0. -1.
         21   -1    0    0  502  503 -0.00000000000E+00 -0.00000000000E+00 -0.10341668203E+03  0.10341668203E+03  0.00000000000E+00 0.  1.
          2    1    1    2  501    0  0.24061259222E+02 -0.32242015174E+01 -0.26426823499E+02  0.35884769346E+02  0.00000000000E+00 0. -1.
         -2    1    1    2    0  503 -0.24061259222E+02  0.32242015174E+01 -0.70221955186E+02  0.74299816022E+02  0.00000000000E+00 0.  1.
</event>
<event>
 4    1  0.1848744E+004  0.2067087E+02  0.7546771E-02  0.1524016E+00
         21   -1    0    0  503  502  0.00000000000E+00  0.00000000000E+00  0.18189589176E+03  0.18189589176E+03  0.00000000000E+00 0. -1.
         21   -1    0    0  501  503 -0.00000000000E+00 -0.00000000000E+00 -0.32150052173E+01  0.32150052173E+01  0.00000000000E+00 0.  1.
          2    1    1    2  501    0  0.20088147932E+02  0.48735194649E+01  0.41305680922E+02  0.46189221208E+02  0.00000000000E+00 0.  1.
         -2    1    1    2    0  502 -0.20088147932E+02 -0.48735194649E+01  0.13737520562E+03  0.13892167577E+03  0.00000000000E+00 0. -1.
</event>
<event>
 4    1  0.1848744E+004  0.2932234E+02  0.7546771E-02  0.1425578E+00
         21   -1    0    0  503  502  0.00000000000E+00  0.00000000000E+00  0.55948917226E+01  0.55948917226E+01  0.00000000000E+00 0.  1.
         21   -1    0    0  501  503 -0.00000000000E+00 -0.00000000000E+00 -0.16120162714E+03  0.16120162714E+03  0.00000000000E+00 0. -1.
          2    1    1    2  501    0 -0.75945526775E+01 -0.28321764394E+02 -0.95823121037E+02  0.10020913179E+03  0.00000000000E+00 0.  1.
         -2    1    1    2    0  502  0.75945526775E+01  0.28321764394E+02 -0.59783614379E+02  0.66587387071E+02  0.00000000000E+00 0. -1.
</event>
<event>
 4    1  0.1848744E+004  0.2389008E+02  0.7546771E-02  0.1481614E+00
         21   -1    0    0  503  502  0.00000000000E+00  0.00000000000E+00  0.11378671169E+03  0.11378671169E+03  0.00000000000E+00 0. -1.
         21   -1    0    0  501  503 -0.00000000000E+00 -0.00000000000E+00 -0.11280987920E+02  0.11280987920E+02  0.00000000000E+00 0.  1.
          2    1    1    2  501    0  0.22301264948E+01 -0.23785766604E+02  0.46505783842E+01  0.24338529874E+02  0.00000000000E+00 0.  1.
         -2    1    1    2    0  502 -0.22301264948E+01  0.23785766604E+02  0.97855145387E+02  0.10072916974E+03  0.00000000000E+00 0. -1.
</event>
<event>
 4    1  0.1848744E+004  0.2118568E+02  0.7546771E-02  0.1516630E+00
         21   -1    0    0  501  502  0.00000000000E+00  0.00000000000E+00  0.61609906957E+01  0.61609906957E+01  0.00000000000E+00 0. -1.
         21   -1    0    0  502  503 -0.00000000000E+00 -0.00000000000E+00 -0.78024970880E+02  0.78024970880E+02  0.00000000000E+00 0.  1.
          2    1    1    2  501    0 -0.12609366323E+02  0.17024593004E+02 -0.25092353525E+02  0.32839900905E+02  0.00000000000E+00 0. -1.
         -2    1    1    2    0  503  0.12609366323E+02 -0.17024593004E+02 -0.46771626659E+02  0.51346060671E+02  0.00000000000E+00 0.  1.
</event>
<event>
 4    1  0.1848744E+004  0.2493382E+02  0.7546771E-02  0.1469545E+00
         21   -1    0    0  503  502  0.00000000000E+00  0.00000000000E+00  0.51357187643E+01  0.51357187643E+01  0.00000000000E+00 0. -1.
         21   -1    0    0  501  503 -0.00000000000E+00 -0.00000000000E+00 -0.12178940716E+03  0.12178940716E+03  0.00000000000E+00 0.  1.
          2    1    1    2  501    0 -0.24868524061E+02  0.18032914966E+01 -0.63260896693E+02  0.67997326415E+02  0.00000000000E+00 0.  1.
         -2    1    1    2    0  502  0.24868524061E+02 -0.18032914966E+01 -0.53392791702E+02  0.58927799509E+02  0.00000000000E+00 0. -1.
</event>
<event>
 4    1  0.1848744E+004  0.3086885E+02  0.7546771E-02  0.1412193E+00
         21   -1    0    0  501  502  0.00000000000E+00  0.00000000000E+00  0.97220853265E+01  0.97220853265E+01  0.00000000000E+00 0. -1.
         21   -1    0    0  502  503 -0.00000000000E+00 -0.00000000000E+00 -0.47050557677E+03  0.47050557677E+03  0.00000000000E+00 0.  1.
          2    1    1    2  501    0  0.14583200412E+02 -0.27206910580E+02 -0.16746170715E+02  0.35118655316E+02  0.00000000000E+00 0. -1.
         -2    1    1    2    0  503 -0.14583200412E+02  0.27206910580E+02 -0.44403732073E+03  0.44510900678E+03  0.00000000000E+00 0.  1.
</event>
<event>
 4    1  0.1848744E+004  0.3284349E+02  0.7546771E-02  0.1396393E+00
         21   -1    0    0  503  502  0.00000000000E+00  0.00000000000E+00  0.16288063909E+04  0.16288063909E+04  0.00000000000E+00 0. -1.
         21   -1    0    0  501  503 -0.00000000000E+00 -0.00000000000E+00 -0.10687474580E+01  0.10687474580E+01  0.00000000000E+00 0.  1.
          2    1    1    2  501    0 -0.17535892771E+02  0.27770260593E+02  0.31128344712E+03  0.31301130868E+03  0.00000000000E+00 0.  1.
         -2    1    1    2    0  502  0.17535892771E+02 -0.27770260593E+02  0.13164541964E+04  0.13168638297E+04  0.00000000000E+00 0. -1.
</event>
<event>
 4    1  0.1848744E+004  0.2493234E+02  0.7546771E-02  0.1469562E+00
         21   -1    0    0  503  502  0.00000000000E+00  0.00000000000E+00  0.34497604438E+02  0.34497604438E+02  0.00000000000E+00 0.  1.
         21   -1    0    0  501  503 -0.00000000000E+00 -0.00000000000E+00 -0.18089505497E+02  0.18089505497E+02  0.00000000000E+00 0. -1.
          2    1    1    2  501    0 -0.24776012216E+02 -0.27875881816E+01  0.98425023805E+01  0.26804780960E+02  0.00000000000E+00 0.  1.
         -2    1    1    2    0  502  0.24776012216E+02  0.27875881816E+01  0.65655965611E+01  0.25782328975E+02  0.00000000000E+00 0. -1.
</event>
<event>
 4    1  0.1848744E+004  0.3334099E+02  0.7546771E-02  0.1392617E+00
         21   -1    0    0  501  502  0.00000000000E+00  0.00000000000E+00  0.14627073226E+03  0.14627073226E+03  0.00000000000E+00 0. -1.
         21   -1    0    0  502  503 -0.00000000000E+00 -0.00000000000E+00 -0.77249770970E+01  0.77249770970E+01  0.00000000000E+00 0.  1.
          2    1    1    2  501    0 -0.50862500383E+01 -0.32950741799E+02  0.79076245541E+02  0.85817678444E+02  0.00000000000E+00 0.  1.
         -2    1    1    2    0  503  0.50862500383E+01  0.32950741799E+02  0.59469509621E+02  0.68178030912E+02  0.00000000000E+00 0. -1.
</event>
<event>
 4    1  0.1848744E+004  0.2522576E+02  0.7546771E-02  0.1466293E+00
         21   -1    0    0  501  502  0.00000000000E+00  0.00000000000E+00  0.11250434386E+04  0.11250434386E+04  0.00000000000E+00 0. -1.
         21   -1    0    0  502  503 -0.00000000000E+00 -0.00000000000E+00 -0.57861440176E+00  0.57861440176E+00  0.00000000000E+00 0.  1.
          2    1    1    2  501    0 -0.19635898794E+02 -0.15835741098E+02  0.64659749247E+03  0.64708937287E+03  0.00000000000E+00 0.  1.
         -2    1    1    2    0  503  0.19635898794E+02  0.15835741098E+02  0.47786733177E+03  0.47853268017E+03  0.00000000000E+00 0. -1.
</event>
<event>
 4    1  0.1848744E+004  0.2127032E+02  0.7546771E-02  0.1515440E+00
         21   -1    0    0  501  502  0.00000000000E+00  0.00000000000E+00  0.55872022199E+01  0.55872022199E+01  0.00000000000E+00 0.  1.
         21   -1    0    0  502  503 -0.00000000000E+00 -0.00000000000E+00 -0.34954116996E+03  0.34954116996E+03  0.00000000000E+00 0. -1.
          2    1    1    2  501    0 -0.11106127853E+01  0.21241306084E+02 -0.16333319011E+02  0.26817976337E+02  0.00000000000E+00 0.  1.
         -2    1    1    2    0  503  0.11106127853E+01 -0.21241306084E+02 -0.32762064873E+03  0.32831039584E+03  0.00000000000E+00 0. -1.
</event>
<event>
 4    1  0.1848744E+004  0.2817461E+02  0.7546771E-02  0.1436153E+00
         21   -1    0    0  501  502  0.00000000000E+00  0.00000000000E+00  0.41019864507E+03  0.41019864507E+03  0.00000000000E+00 0. -1.
         21   -1    0    0  502  503 -0.00000000000E+00 -0.00000000000E+00 -0.24058397604E+01  0.24058397604E+01  0.00000000000E+00 0.  1.
          2    1    1    2  501    0 -0.38567463467E+01  0.27909387460E+02  0.29514452241E+03  0.29648625180E+03  0.00000000000E+00 0.  1.
         -2    1    1    2    0  503  0.38567463467E+01 -0.27909387460E+02  0.11264828291E+03  0.11611823303E+03  0.00000000000E+00 0. -1.
</event>
<event>
 4    1  0.1848744E+004  0.2894474E+02  0.7546771E-02  0.1428994E+00
         21   -1    0    0  501  502  0.00000000000E+00  0.00000000000E+00  0.85592063813E+01  0.85592063813E+01  0.00000000000E+00 0.  1.
         21   -1    0    0  502  503 -0.00000000000E+00 -0.00000000000E+00 -0.10799814594E+03  0.10799814594E+03  0.00000000000E+00 0. -1.
          2    1    1    2  501    0 -0.22098397015E+02  0.18693815163E+02 -0.31883573679E+02  0.43062282179E+02  0.00000000000E+00 0.  1.
         -2    1    1    2    0  503  0.22098397015E+02 -0.18693815163E+02 -0.67555365879E+02  0.73495070141E+02  0.00000000000E+00 0. -1.
</event>
<event>
 4    1  0.1848744E+004  0.3390579E+02  0.7546771E-02  0.1388423E+00
         21   -1    0    0  501  502  0.00000000000E+00  0.00000000000E+00  0.28021636952E+03  0.28021636952E+03  0.00000000000E+00 0. -1.
         21   -1    0    0  502  503 -0.00000000000E+00 -0.00000000000E+00 -0.25928793054E+02  0.25928793054E+02  0.00000000000E+00 0.  1.
          2    1    1    2  501    0 -0.50585653839E+01 -0.33526311566E+02  0.26758537049E+03  0.26972492126E+03  0.00000000000E+00 0. -1.
         -2    1    1    2    0  503  0.50585653839E+01  0.33526311566E+02 -0.13297794026E+02  0.36420241308E+02  0.00000000000E+00 0.  1.
</event>
<event>
 4    1  0.1848744E+004  0.4497557E+02  0.7546771E-02  0.1321562E+00
         21   -1    0    0  503  502  0.00000000000E+00  0.00000000000E+00  0.65789992091E+01  0.65789992091E+01  0.00000000000E+00 0.  1.
         21   -1    0    0  501  503 -0.00000000000E+00 -0.00000000000E+00 -0.50772985498E+03  0.50772985498E+03  0.00000000000E+00 0. -1.
          2    1    1    2  501    0 -0.11418806740E+02 -0.43501867902E+02 -0.41207884967E+03  0.41452597024E+03  0.00000000000E+00 0. -1.
         -2    1    1    2    0  502  0.11418806740E+02  0.43501867902E+02 -0.89072006104E+02  0.99782883951E+02  0.00000000000E+00 0.  1.
</event>
<event>
 4    1  0.1848744E+004  0.2042675E+02  0.7546771E-02  0.1527609E+00
         21   -1    0    0  501  502  0.00000000000E+00  0.00000000000E+00  0.47972557944E+02  0.47972557944E+02  0.00000000000E+00 0. -1.
         21   -1    0    0  502  503 -0.00000000000E+00 -0.00000000000E+00 -0.16003180904E+02  0.16003180904E+02  0.00000000000E+00 0.  1.
          2    1    1    2  501    0  0.11136607246E+02 -0.17123905278E+02  0.37597227846E+02  0.42787891916E+02  0.00000000000E+00 0. -1.
         -2    1    1    2    0  503 -0.11136607246E+02  0.17123905278E+02 -0.56278508067E+01  0.21187846932E+02  0.00000000000E+00 0.  1.
</event>
<event>
 4    1  0.1848744E+004  0.2148740E+02  0.7546771E-02  0.1512418E+00
         21   -1    0    0  503  502  0.00000000000E+00  0.00000000000E+00  0.50073730983E+03  0.50073730983E+03  0.00000000000E+00 0.  1.
         21   -1    0    0  501  503 -0.00000000000E+00 -0.00000000000E+00 -0.23353820920E+02  0.23353820920E+02  0.00000000000E+00 0. -1.
          2    1    1    2  501    0 -0.14043659323E+02  0.16262967532E+02 -0.18128675501E+02  0.28113294996E+02  0.00000000000E+00 0. -1.
         -2    1    1    2    0  502  0.14043659323E+02 -0.16262967532E+02  0.49551216441E+03  0.49597783575E+03  0.00000000000E+00 0.  1.
</event>
<event>
 4    1  0.1848744E+004  0.2602168E+02  0.7546771E-02  0.1457691E+00
         21   -1    0    0  501  502  0.00000000000E+00  0.00000000000E+00  0.66090823359E+00  0.66090823359E+00  0.00000000000E+00 0. -1.
         21   -1    0    0  502  503 -0.00000000000E+00 -0.00000000000E+00 -0.11138290313E+04  0.11138290313E+04  0.00000000000E+00 0.  1.
          2    1    1    2  501    0 -0.68430815556E+01  0.25105779604E+02 -0.39881123063E+03  0.39965926189E+03  0.00000000000E+00 0. -1.
         -2    1    1    2    0  503  0.68430815556E+01 -0.25105779604E+02 -0.71435689246E+03  0.71483067767E+03  0.00000000000E+00 0.  1.
</event>
<event>
 4    1  0.1848744E+004  0.2328933E+02  0.7546771E-02  0.1488897E+00
         21   -1    0    0  501  502  0.00000000000E+00  0.00000000000E+00  0.69298410637E+01  0.69298410637E+01  0.00000000000E+00 0.  1.
         21   -1    0    0  502  503 -0.00000000000E+00 -0.00000000000E+00 -0.12926586305E+03  0.12926586305E+03  0.00000000000E+00 0. -1.
          2    1    1    2  501    0 -0.19743199797E+02  0.12353094028E+02 -0.18395719370E+02  0.29678196734E+02  0.00000000000E+00 0.  1.
         -2    1    1    2    0  503  0.19743199797E+02 -0.12353094028E+02 -0.10394030262E+03  0.10651750738E+03  0.00000000000E+00 0. -1.
</event>
<event>
 4    1  0.1848744E+004  0.3756878E+02  0.7546771E-02  0.1363353E+00
         21   -1    0    0  503  502  0.00000000000E+00  0.00000000000E+00  0.15532276742E+01  0.15532276742E+01  0.00000000000E+00 0. -1.
         21   -1    0    0  501  503 -0.00000000000E+00 -0.00000000000E+00 -0.91341232511E+03  0.91341232511E+03  0.00000000000E+00 0.  1.
          2    1    1    2  501    0  0.32409466703E+02  0.19001049753E+02 -0.42305995808E+03  0.42472478330E+03  0.00000000000E+00 0. -1.
         -2    1    1    2    0  502 -0.32409466703E+02 -0.19001049753E+02 -0.48879913936E+03  0.49024076948E+03  0.00000000000E+00 0.  1.
</event>
<event>
 4    1  0.1848744E+004  0.3256384E+02  0.7546771E-02  0.1398550E+00
         21   -1    0    0  503  502  0.00000000000E+00  0.00000000000E+00  0.55383181211E+01  0.55383181211E+01  0.00000000000E+00 0. -1.
         21   -1    0    0  501  503 -0.00000000000E+00 -0.00000000000E+00 -0.32125338924E+03  0.32125338924E+03  0.00000000000E+00 0.  1.
          2    1    1    2  501    0  0.30551335769E+02  0.11270287776E+02 -0.26171369219E+03  0.26373179592E+03  0.00000000000E+00 0.  1.
         -2    1    1    2    0  502 -0.30551335769E+02 -0.11270287776E+02 -0.54001378935E+02  0.63059911439E+02  0.00000000000E+00 0. -1.
</event>
<event>
 4    1  0.1848744E+004  0.2411912E+02  0.7546771E-02  0.1478904E+00
         21   -1    0    0  501  502  0.00000000000E+00  0.00000000000E+00  0.46110825298E+02  0.46110825298E+02  0.00000000000E+00 0. -1.
         21   -1    0    0  502  503 -0.00000000000E+00 -0.00000000000E+00 -0.12714069210E+02  0.12714069210E+02  0.00000000000E+00 0.  1.
          2    1    1    2  501    0 -0.24044265163E+02  0.18987757835E+01  0.19282171079E+02  0.30879348410E+02  0.00000000000E+00 0.  1.
         -2    1    1    2    0  503  0.24044265163E+02 -0.18987757835E+01  0.14114585009E+02  0.27945546097E+02  0.00000000000E+00 0. -1.
</event>
<event>
 4    1  0.1848744E+004  0.2168379E+02  0.7546771E-02  0.1509722E+00
         21   -1    0    0  501  502  0.00000000000E+00  0.00000000000E+00  0.28432580069E+03  0.28432580069E+03  0.00000000000E+00 0. -1.
         21   -1    0    0  502  503 -0.00000000000E+00 -0.00000000000E+00 -0.16218959248E+02  0.16218959248E+02  0.00000000000E+00 0.  1.
          2    1    1    2  501    0 -0.19327136113E+02  0.98309913259E+01  0.27645897877E+03  0.27730804806E+03  0.00000000000E+00 0. -1.
         -2    1    1    2    0  503  0.19327136113E+02 -0.98309913259E+01 -0.83521373248E+01  0.23236711873E+02  0.00000000000E+00 0.  1.
</event>
<event>
 4    1  0.1848744E+004  0.3476699E+02  0.7546771E-02  0.1382209E+00
         21   -1    0    0  501  502  0.00000000000E+00  0.00000000000E+00  0.36810390237E+02  0.36810390237E+02  0.00000000000E+00 0. -1.
         21   -1    0    0  502  503 -0.00000000000E+00 -0.00000000000E+00 -0.31735230837E+03  0.31735230837E+03  0.00000000000E+00 0.  1.
          2    1    1    2  501    0 -0.95199940353E+01 -0.33438199788E+02  0.27398821637E+02  0.44265550020E+02  0.00000000000E+00 0. -1.
         -2    1    1    2    0  503  0.95199940353E+01  0.33438199788E+02 -0.30794073977E+03  0.30989714859E+03  0.00000000000E+00 0.  1.
</event>
<event>
 4    1  0.1848744E+004  0.3515684E+02  0.7546771E-02  0.1379464E+00
         21   -1    0    0  501  502  0.00000000000E+00  0.00000000000E+00  0.36014319224E+03  0.36014319224E+03  0.00000000000E+00 0. -1.
         21   -1    0    0  502  503 -0.00000000000E+00 -0.00000000000E+00 -0.50306621102E+01  0.50306621102E+01  0.00000000000E+00 0.  1.
          2    1    1    2  501    0 -0.17979697921E+02 -0.30211490316E+02  0.28048541118E+03  0.28268015418E+03  0.00000000000E+00 0. -1.
         -2    1    1    2    0  503  0.17979697921E+02  0.30211490316E+02  0.74627118950E+02  0.82493700167E+02  0.00000000000E+00 0.  1.
</event>
<event>
 4    1  0.1848744E+004  0.4364114E+02  0.7546771E-02  0.1328375E+00
         21   -1    0    0  501  502  0.00000000000E+00  0.00000000000E+00  0.13577724309E+04  0.13577724309E+04  0.00000000000E+00 0.  1.
         21   -1    0    0  502  503 -0.00000000000E+00 -0.00000000000E+00 -0.14698251188E+01  0.14698251188E+01  0.00000000000E+00 0. -1.
          2    1    1    2  501    0 -0.27171223715E+02  0.34150751383E+02  0.82338661219E+03  0.82454233508E+03  0.00000000000E+00 0.  1.
         -2    1    1    2    0  503  0.27171223715E+02 -0.34150751383E+02  0.53291599355E+03  0.53469992089E+03  0.00000000000E+00 0. -1.
</event>
<event>
 4    1  0.1848744E+004  0.3870587E+02  0.7546771E-02  0.1356241E+00
         21   -1    0    0  501  502  0.00000000000E+00  0.00000000000E+00  0.17746612875E+02  0.17746612875E+02  0.00000000000E+00 0.  1.
         21   -1    0    0  502  503 -0.00000000000E+00 -0.00000000000E+00 -0.18651312075E+03  0.18651312075E+03  0.00000000000E+00 0. -1.
          2    1    1    2  501    0  0.73099427943E+01 -0.38009330930E+02 -0.88219830106E+01  0.39698512386E+02  0.00000000000E+00 0.  1.
         -2    1    1    2    0  503 -0.73099427943E+01  0.38009330930E+02 -0.15994452487E+03  0.16456122124E+03  0.00000000000E+00 0. -1.
</event>
<event>
 4    1  0.1848744E+004  0.2130354E+02  0.7546771E-02  0.1514975E+00
         21   -1    0    0  503  502  0.00000000000E+00  0.00000000000E+00  0.23765327777E+01  0.23765327777E+01  0.00000000000E+00 0.  1.
         21   -1    0    0  501  503 -0.00000000000E+00 -0.00000000000E+00 -0.20248875162E+03  0.20248875162E+03  0.00000000000E+00 0. -1.
          2    1    1    2  501    0  0.98503134625E+01  0.18889472226E+02 -0.75622632519E+02  0.78566044736E+02  0.00000000000E+00 0.  1.
         -2    1    1    2    0  502 -0.98503134625E+01 -0.18889472226E+02 -0.12448958633E+03  0.12629923966E+03  0.00000000000E+00 0. -1.
</event>
<event>
 4    1  0.1848744E+004  0.2198468E+02  0.7546771E-02  0.1505657E+00
         21   -1    0    0  503  502  0.00000000000E+00  0.00000000000E+00  0.93600644920E+03  0.93600644920E+03  0.00000000000E+00 0. -1.
         21   -1    0    0  501  503 -0.00000000000E+00 -0.00000000000E+00 -0.10283979057E+01  0.10283979057E+01  0.00000000000E+00 0.  1.
          2    1    1    2  501    0  0.14571083683E+02  0.16462368443E+02  0.13689744662E+03  0.13865149457E+03  0.00000000000E+00 0.  1.
         -2    1    1    2    0  502 -0.14571083683E+02 -0.16462368443E+02  0.79808060468E+03  0.79838335254E+03  0.00000000000E+00 0. -1.
</event>
<event>
 4    1  0.1848744E+004  0.2380617E+02  0.7546771E-02  0.1482616E+00
         21   -1    0    0  503  502  0.00000000000E+00  0.00000000000E+00  0.52300610798E+00  0.52300610798E+00  0.00000000000E+00 0.  1.
         21   -1    0    0  501  503 -0.00000000000E+00 -0.00000000000E+00 -0.11636552322E+04  0.11636552322E+04  0.00000000000E+00 0. -1.
          2    1    1    2  501    0 -0.23805747465E+02 -0.14262878645E+00 -0.73423433534E+03  0.73462016930E+03  0.00000000000E+00 0. -1.
         -2    1    1    2    0  502  0.23805747465E+02  0.14262878645E+00 -0.42889789075E+03  0.42955806900E+03  0.00000000000E+00 0.  1.
</event>
<event>
 4    1  0.1848744E+004  0.2259929E+02  0.7546771E-02  0.1497592E+00
         21   -1    0    0  503  502  0.00000000000E+00  0.00000000000E+00  0.12460772413E+02  0.12460772413E+02  0.00000000000E+00 0.  1.
         21   -1    0    0  501  503 -0.00000000000E+00 -0.00000000000E+00 -0.16346261468E+03  0.16346261468E+03  0.00000000000E+00 0. -1.
          2    1    1    2  501    0 -0.20089423431E+02  0.10350981908E+02 -0.15164032085E+03  0.15331508298E+03  0.00000000000E+00 0. -1.
         -2    1    1    2    0  502  0.20089423431E+02 -0.10350981908E+02  0.63847858170E+00  0.22608304119E+02  0.00000000000E+00 0.  1.
</event>
<event>
 4    1  0.1848744E+004  0.2095555E+02  0.7546771E-02  0.1519900E+00
         21   -1    0    0  503  502  0.00000000000E+00  0.00000000000E+00  0.16507916689E+01  0.16507916689E+01  0.00000000000E+00 0.  1.
         21   -1    0    0  501  503 -0.00000000000E+00 -0.00000000000E+00 -0.75816337622E+03  0.75816337622E+03  0.00000000000E+00 0. -1.
          2    1    1    2  501    0 -0.20782775586E+02  0.26853871919E+01 -0.68434273500E+03  0.68466350422E+03  0.00000000000E+00 0. -1.
         -2    1    1    2    0  502  0.20782775586E+02 -0.26853871919E+01 -0.72169849551E+02  0.75150663667E+02  0.00000000000E+00 0.  1.
</event>
<event>
 4    1  0.1848744E+004  0.2093896E+02  0.7546771E-02  0.1520138E+00
         21   -1    0    0  501  502  0.00000000000E+00  0.00000000000E+00  0.37270750336E+02  0.37270750336E+02  0.00000000000E+00 0. -1.
         21   -1    0    0  502  503 -0.00000000000E+00 -0.00000000000E+00 -0.21490249276E+02  0.21490249276E+02  0.00000000000E+00 0.  1.
          2    1    1    2  501    0 -0.19070865815E+02  0.86453460500E+01  0.27656262011E+02  0.34688741109E+02  0.00000000000E+00 0. -1.
         -2    1    1    2    0  503  0.19070865815E+02 -0.86453460500E+01 -0.11875760952E+02  0.24072258504E+02  0.00000000000E+00 0.  1.
</event>
<event>
 4    1  0.1848744E+004  0.4434781E+02  0.7546771E-02  0.1324733E+00
         21   -1    0    0  501  502  0.00000000000E+00  0.00000000000E+00  0.15381203043E+02  0.15381203043E+02  0.00000000000E+00 0.  1.
         21   -1    0    0  502  503 -0.00000000000E+00 -0.00000000000E+00 -0.52237316546E+03  0.52237316546E+03  0.00000000000E+00 0. -1.
          2    1    1    2  501    0 -0.25913805921E+02 -0.35988930904E+02 -0.19832346423E+02  0.48580350447E+02  0.00000000000E+00 0.  1.
         -2    1    1    2    0  503  0.25913805921E+02  0.35988930904E+02 -0.48715961599E+03  0.48917401806E+03  0.00000000000E+00 0. -1.
</event>
<event>
 4    1  0.1848744E+004  0.2205798E+02  0.7546771E-02  0.1504678E+00
         21   -1    0    0  501  502  0.00000000000E+00  0.00000000000E+00  0.18618368348E+02  0.18618368348E+02  0.00000000000E+00 0.  1.
         21   -1    0    0  502  503 -0.00000000000E+00 -0.00000000000E+00 -0.30629531697E+02  0.30629531697E+02  0.00000000000E+00 0. -1.
          2    1    1    2  501    0 -0.39959489034E+01 -0.21693012446E+02  0.34290484055E+01  0.22322920274E+02  0.00000000000E+00 0.  1.
         -2    1    1    2    0  503  0.39959489034E+01  0.21693012446E+02 -0.15440211755E+02  0.26924979770E+02  0.00000000000E+00 0. -1.
</event>
<event>
 4    1  0.1848744E+004  0.2180548E+02  0.7546771E-02  0.1508068E+00
         21   -1    0    0  501  502  0.00000000000E+00  0.00000000000E+00  0.22884612207E+03  0.22884612207E+03  0.00000000000E+00 0.  1.
         21   -1    0    0  502  503 -0.00000000000E+00 -0.00000000000E+00 -0.46217227510E+01  0.46217227510E+01  0.00000000000E+00 0. -1.
          2    1    1    2  501    0 -0.13442509013E+02 -0.17169100791E+02  0.19871931715E+03  0.19991209588E+03  0.00000000000E+00 0.  1.
         -2    1    1    2    0  503  0.13442509013E+02  0.17169100791E+02  0.25505082167E+02  0.33555748939E+02  0.00000000000E+00 0. -1.
</event>
<event>
 4    1  0.1848744E+004  0.2140811E+02  0.7546771E-02  0.1513517E+00
         21   -1    0    0  501  502  0.00000000000E+00  0.00000000000E+00  0.15570832524E+03  0.15570832524E+03  0.00000000000E+00 0. -1.
         21   -1    0    0  502  503 -0.00000000000E+00 -0.00000000000E+00 -0.40652990755E+01  0.40652990755E+01  0.00000000000E+00 0.  1.
          2    1    1    2  501    0 -0.19772521878E+02 -0.82069925888E+01  0.11778884636E+03  0.11971850181E+03  0.00000000000E+00 0. -1.
         -2    1    1    2    0  503  0.19772521878E+02  0.82069925888E+01  0.33854179807E+02  0.40055122508E+02  0.00000000000E+00 0.  1.
</event>
<event>
 4    1  0.1848744E+004  0.2367414E+02  0.7546771E-02  0.1484202E+00
         21   -1    0    0  501  502  0.00000000000E+00  0.00000000000E+00  0.14332124434E+02  0.14332124434E+02  0.00000000000E+00 0. -1.
         21   -1    0    0  502  503 -0.00000000000E+00 -0.00000000000E+00 -0.56707819310E+02  0.56707819310E+02  0.00000000000E+00 0.  1.
          2    1    1    2  501    0 -0.17312450827E+02  0.16147572391E+02 -0.13982958710E+01  0.23715401728E+02  0.00000000000E+00 0. -1.
         -2    1    1    2    0  503  0.17312450827E+02 -0.16147572391E+02 -0.40977399005E+02  0.47324542016E+02  0.00000000000E+00 0.  1.
</event>
<event>
 4    1  0.1848744E+004  0.2454882E+02  0.7546771E-02  0.1473914E+00
         21   -1    0    0  503  502  0.00000000000E+00  0.00000000000E+00  0.17486492611E+03  0.17486492611E+03  0.00000000000E+00 0.  1.
         21   -1    0    0  501  503 -0.00000000000E+00 -0.00000000000E+00 -0.43544107714E+01  0.43544107714E+01  0.00000000000E+00 0. -1.
          2    1    1    2  501    0 -0.20035589892E+02  0.14185190639E+02  0.12617654887E+03  0.12854246761E+03  0.00000000000E+00 0.  1.
         -2    1    1    2    0  502  0.20035589892E+02 -0.14185190639E+02  0.44333966466E+02  0.50676869264E+02  0.00000000000E+00 0. -1.
</event>
<event>
 4    1  0.1848744E+004  0.9826072E+02  0.7546771E-02  0.1166856E+00
         21   -1    0    0  503  502  0.00000000000E+00  0.00000000000E+00  0.85331703492E+02  0.85331703492E+02  0.00000000000E+00 0. -1.
         21   -1    0    0  501  503 -0.00000000000E+00 -0.00000000000E+00 -0.12394503017E+03  0.12394503017E+03  0.00000000000E+00 0.  1.
          2    1    1    2  501    0  0.92753824581E+02 -0.32432970710E+02 -0.50189336583E+02  0.11033648114E+03  0.00000000000E+00 0.  1.
         -2    1    1    2    0  502 -0.92753824581E+02  0.32432970710E+02  0.11576009908E+02  0.98940252521E+02  0.00000000000E+00 0. -1.
</event>
<event>
 4    1  0.1848744E+004  0.2638622E+02  0.7546771E-02  0.1453873E+00
         21   -1    0    0  503  502  0.00000000000E+00  0.00000000000E+00  0.22456621101E+02  0.22456621101E+02  0.00000000000E+00 0.  1.
         21   -1    0    0  501  503 -0.00000000000E+00 -0.00000000000E+00 -0.37308174762E+02  0.37308174762E+02  0.00000000000E+00 0. -1.
          2    1    1    2  501    0 -0.12039903910E+02  0.23479215056E+02  0.48584085508E+01  0.26829777476E+02  0.00000000000E+00 0.  1.
         -2    1    1    2    0  502  0.12039903910E+02 -0.23479215056E+02 -0.19709962212E+02  0.32935018387E+02  0.00000000000E+00 0. -1.
</event>
<event>
 4    1  0.1848744E+004  0.2568903E+02  0.7546771E-02  0.1461241E+00
         21   -1    0    0  501  502  0.00000000000E+00  0.00000000000E+00  0.84428731077E+01  0.84428731077E+01  0.00000000000E+00 0.  1.
         21   -1    0    0  502  503 -0.00000000000E+00 -0.00000000000E+00 -0.81377816033E+02  0.81377816033E+02  0.00000000000E+00 0. -1.
          2    1    1    2  501    0  0.25637925333E+02  0.16195492756E+01 -0.45392806174E+02  0.52157770348E+02  0.00000000000E+00 0.  1.
         -2    1    1    2    0  503 -0.25637925333E+02 -0.16195492756E+01 -0.27542136751E+02  0.37662918794E+02  0.00000000000E+00 0. -1.
</event>
<event>
 4    1  0.1848744E+004  0.2626704E+02  0.7546771E-02  0.1455113E+00
         21   -1    0    0  503  502  0.00000000000E+00  0.00000000000E+00  0.13965760433E+01  0.13965760433E+01  0.00000000000E+00 0.  1.
         21   -1    0    0  501  503 -0.00000000000E+00 -0.00000000000E+00 -0.57444693518E+03  0.57444693518E+03  0.00000000000E+00 0. -1.
          2    1    1    2  501    0  0.26217340921E+02 -0.16150211883E+01 -0.17880175726E+03  0.18072085009E+03  0.00000000000E+00 0.  1.
         -2    1    1    2    0  502 -0.26217340921E+02  0.16150211883E+01 -0.39424860188E+03  0.39512266113E+03  0.00000000000E+00 0. -1.
</event>
<event>
 4    1  0.1848744E+004  0.2022590E+02  0.7546771E-02  0.1530610E+00
         21   -1    0    0  503  502  0.00000000000E+00  0.00000000000E+00  0.33645723409E+03  0.33645723409E+03  0.00000000000E+00 0.  1.
         21   -1    0    0  501  503 -0.00000000000E+00 -0.00000000000E+00 -0.43335470531E+01  0.43335470531E+01  0.00000000000E+00 0. -1.
          2    1    1    2  501    0 -0.15610576106E+02  0.12860672330E+02  0.21533870466E+02  0.29543096595E+02  0.00000000000E+00 0. -1.
         -2    1    1    2    0  502  0.15610576106E+02 -0.12860672330E+02  0.31058981657E+03  0.31124768454E+03  0.00000000000E+00 0.  1.
</event>
<event>
 4    1  0.1848744E+004  0.3304030E+02  0.7546771E-02  0.1394890E+00
         21   -1    0    0  501  502  0.00000000000E+00  0.00000000000E+00  0.99228395010E+03  0.99228395010E+03  0.00000000000E+00 0.  1.
         21   -1    0    0  502  503 -0.00000000000E+00 -0.00000000000E+00 -0.38786207829E+01  0.38786207829E+01  0.00000000000E+00 0. -1.
          2    1    1    2  501    0 -0.32891861282E+02 -0.31284214901E+01  0.91576757251E+03  0.91636341503E+03  0.00000000000E+00 0.  1.
         -2    1    1    2    0  503  0.32891861282E+02  0.31284214901E+01  0.72637756811E+02  0.79799155849E+02  0.00000000000E+00 0. -1.
</event>
<event>
 4    1  0.1848744E+004  0.2331180E+02  0.7546771E-02  0.1488620E+00
         21   -1    0    0  503  502  0.00000000000E+00  0.00000000000E+00  0.90633868174E+01  0.90633868174E+01  0.00000000000E+00 0. -1.
         21   -1    0    0  501  503 -0.00000000000E+00 -0.00000000000E+00 -0.90464567468E+02  0.90464567468E+02  0.00000000000E+00 0.  1.
          2    1    1    2  501    0 -0.18434524634E+02 -0.14269134930E+02 -0.69597996460E+02  0.73398372062E+02  0.00000000000E+00 0.  1.
         -2    1    1    2    0  502  0.18434524634E+02  0.14269134930E+02 -0.11803184191E+02  0.26129582224E+02  0.00000000000E+00 0. -1.
</event>
<event>
 4    1  0.1848744E+004  0.2268322E+02  0.7546771E-02  0.1496515E+00
         21   -1    0    0  503  502  0.00000000000E+00  0.00000000000E+00  0.18676103950E+02  0.18676103950E+02  0.00000000000E+00 0. -1.
         21   -1    0    0  501  503 -0.00000000000E+00 -0.00000000000E+00 -0.40048158398E+02  0.40048158398E+02  0.00000000000E+00 0.  1.
          2    1    1    2  501    0 -0.16568806201E+02 -0.15492039971E+02 -0.27088807678E+02  0.35331744123E+02  0.00000000000E+00 0.  1.
         -2    1    1    2    0  502  0.16568806201E+02  0.15492039971E+02  0.57167532292E+01  0.23392518225E+02  0.00000000000E+00 0. -1.
</event>
<event>
 4    1  0.1848744E+004  0.2019540E+02  0.7546771E-02  0.1531069E+00
         21   -1    0    0  501  502  0.00000000000E+00  0.00000000000E+00  0.69515157743E+01  0.69515157743E+01  0.00000000000E+00 0.  1.
         21   -1    0    0  502  503 -0.00000000000E+00 -0.00000000000E+00 -0.10878651889E+03  0.10878651889E+03  0.00000000000E+00 0. -1.
          2    1    1    2  501    0  0.20195244715E+02  0.79802958924E-01 -0.11640031888E+02  0.23309753752E+02  0.00000000000E+00 0.  1.
         -2    1    1    2    0  503 -0.20195244715E+02 -0.79802958924E-01 -0.90194971229E+02  0.92428280914E+02  0.00000000000E+00 0. -1.
</event>
<event>
 4    1  0.1848744E+004  0.2864382E+02  0.7546771E-02  0.1431760E+00
         21   -1    0    0  503  502  0.00000000000E+00  0.00000000000E+00  0.22713659125E+02  0.22713659125E+02  0.00000000000E+00 0. -1.
         21   -1    0    0  501  503 -0.00000000000E+00 -0.00000000000E+00 -0.42238640547E+02  0.42238640547E+02  0.00000000000E+00 0.  1.
          2    1    1    2  501    0 -0.14475935637E+02 -0.24716704126E+02 -0.22120759600E+02  0.36191106376E+02  0.00000000000E+00 0.  1.
         -2    1    1    2    0  502  0.14475935637E+02  0.24716704126E+02  0.25957781781E+01  0.28761193296E+02  0.00000000000E+00 0. -1.
</event>
<event>
 4    1  0.1848744E+004  0.2162632E+02  0.7546771E-02  0.1510507E+00
         21   -1    0    0  503  502  0.00000000000E+00  0.00000000000E+00  0.21553073315E+02  0.21553073315E+02  0.00000000000E+00 0. -1.
         21   -1    0    0  501  503 -0.00000000000E+00 -0.00000000000E+00 -0.28392069089E+02  0.28392069089E+02  0.00000000000E+00 0.  1.
          2    1    1    2  501    0  0.15024191196E+02  0.15555433826E+02 -0.15543632234E+02  0.26632730721E+02  0.00000000000E+00 0.  1.
         -2    1    1    2    0  502 -0.15024191196E+02 -0.15555433826E+02  0.87046364593E+01  0.23312411684E+02  0.00000000000E+00 0. -1.
</event>
<event>
 4    1  0.1848744E+004  0.2277522E+02  0.7546771E-02  0.1495340E+00
         21   -1    0    0  503  502  0.00000000000E+00  0.00000000000E+00  0.13313891154E+02  0.13313891154E+02  0.00000000000E+00 0.  1.
         21   -1    0    0  501  503 -0.00000000000E+00 -0.00000000000E+00 -0.60617128120E+02  0.60617128120E+02  0.00000000000E+00 0. -1.
          2    1    1    2  501    0  0.16254824206E+02  0.15952790217E+02 -0.45746833276E+02  0.51102676843E+02  0.00000000000E+00 0. -1.
         -2    1    1    2    0  502 -0.16254824206E+02 -0.15952790217E+02 -0.15564036902E+01  0.22828342431E+02  0.00000000000E+00 0.  1.
</event>
<event>
 4    1  0.1848744E+004  0.2394282E+02  0.7546771E-02  0.1480987E+00
         21   -1    0    0  503  502  0.00000000000E+00  0.00000000000E+00  0.82018407767E+01  0.82018407767E+01  0.00000000000E+00 0. -1.
         21   -1    0    0  501  503 -0.00000000000E+00 -0.00000000000E+00 -0.76480573726E+02  0.76480573726E+02  0.00000000000E+00 0.  1.
          2    1    1    2  501    0 -0.23525894949E+02  0.44486824482E+01 -0.46565078022E+02  0.52359956072E+02  0.00000000000E+00 0.  1.
         -2    1    1    2    0  502  0.23525894949E+02 -0.44486824482E+01 -0.21713654927E+02  0.32322458430E+02  0.00000000000E+00 0. -1.
</event>
<event>
 4    1  0.1848744E+004  0.3501538E+02  0.7546771E-02  0.1380455E+00
         21   -1    0    0  503  502  0.00000000000E+00  0.00000000000E+00  0.45026390534E+03  0.45026390534E+03  0.00000000000E+00 0. -1.
         21   -1    0    0  501  503 -0.00000000000E+00 -0.00000000000E+00 -0.74650498908E+01  0.74650498908E+01  0.00000000000E+00 0.  1.
          2    1    1    2  501    0 -0.30214221834E+02  0.17696831181E+02  0.38991278782E+02  0.52406076517E+02  0.00000000000E+00 0.  1.
         -2    1    1    2    0  502  0.30214221834E+02 -0.17696831181E+02  0.40380757667E+03  0.40532287872E+03  0.00000000000E+00 0. -1.
</event>
<event>
 4    1  0.1848744E+004  0.2298821E+02  0.7546771E-02  0.1492646E+00
         21   -1    0    0  501  502  0.00000000000E+00  0.00000000000E+00  0.23802598404E+02  0.23802598404E+02  0.00000000000E+00 0. -1.
         21   -1    0    0  502  503 -0.00000000000E+00 -0.00000000000E+00 -0.22561396375E+02  0.22561396375E+02  0.00000000000E+00 0.  1.
          2    1    1    2  501    0  0.21010644914E+02  0.93279379770E+01 -0.23065770615E+01  0.23103634440E+02  0.00000000000E+00 0. -1.
         -2    1    1    2    0  503 -0.21010644914E+02 -0.93279379770E+01  0.35477790897E+01  0.23260360339E+02  0.00000000000E+00 0.  1.
</event>
<event>
 4    1  0.1848744E+004  0.2002038E+02  0.7546771E-02  0.1533724E+00
         21   -1    0    0  503  502  0.00000000000E+00  0.00000000000E+00  0.37968006449E+03  0.37968006449E+03  0.00000000000E+00 0.  1.
         21   -1    0    0  501  503 -0.00000000000E+00 -0.00000000000E+00 -0.16247649122E+01  0.16247649122E+01  0.00000000000E+00 0. -1.
          2    1    1    2  501    0  0.32607222699E+00 -0.20017726773E+02  0.76193503599E+02  0.78779855921E+02  0.00000000000E+00 0. -1.
         -2    1    1    2    0  502 -0.32607222699E+00  0.20017726773E+02  0.30186179598E+03  0.30252497348E+03  0.00000000000E+00 0.  1.
</event>
<event>
 4    1  0.1848744E+004  0.2910754E+02  0.7546771E-02  0.1427514E+00
         21   -1    0    0  503  502  0.00000000000E+00  0.00000000000E+00  0.99756082397E+01  0.99756082397E+01  0.00000000000E+00 0. -1.
         21   -1    0    0  501  503 -0.00000000000E+00 -0.00000000000E+00 -0.94658051831E+02  0.94658051831E+02  0.00000000000E+00 0.  1.
          2    1    1    2  501    0 -0.14389775311E+02 -0.25301843200E+02 -0.59111092463E+02  0.65889074625E+02  0.00000000000E+00 0.  1.
         -2    1    1    2    0  502  0.14389775311E+02  0.25301843200E+02 -0.25571351129E+02  0.38744585446E+02  0.00000000000E+00 0. -1.
</event>
<event>
 4    1  0.1848744E+004  0.2816958E+02  0.7546771E-02  0.1436200E+00
         21   -1    0    0  503  502  0.00000000000E+00  0.00000000000E+00  0.14980752884E+03  0.14980752884E+03  0.00000000000E+00 0. -1.
         21   -1    0    0  501  503 -0.00000000000E+00 -0.00000000000E+00 -0.10504115883E+02  0.10504115883E+02  0.00000000000E+00 0.  1.
          2    1    1    2  501    0 -0.28157458217E+02 -0.82635364126E+00  0.13215816042E+02  0.31115640878E+02  0.00000000000E+00 0.  1.
         -2    1    1    2    0  502  0.28157458217E+02  0.82635364126E+00  0.12608759692E+03  0.12919600385E+03  0.00000000000E+00 0. -1.
</event>
<event>
 4    1  0.1848744E+004  0.2075613E+02  0.7546771E-02  0.1522775E+00
         21   -1    0    0  501  502  0.00000000000E+00  0.00000000000E+00  0.12159794536E+03  0.12159794536E+03  0.00000000000E+00 0. -1.
         21   -1    0    0  502  503 -0.00000000000E+00 -0.00000000000E+00 -0.37737503384E+01  0.37737503384E+01  0.00000000000E+00 0.  1.
          2    1    1    2  501    0  0.17342012462E+02  0.11404888616E+02  0.43410016581E+02  0.48117007598E+02  0.00000000000E+00 0. -1.
         -2    1    1    2    0  503 -0.17342012462E+02 -0.11404888616E+02  0.74414178437E+02  0.77254688097E+02  0.00000000000E+00 0.  1.
</event>
<event>
 4    1  0.1848744E+004  0.2659663E+02  0.7546771E-02  0.1451703E+00
         21   -1    0    0  501  502  0.00000000000E+00  0.00000000000E+00  0.45660084885E+02  0.45660084885E+02  0.00000000000E+00 0.  1.
         21   -1    0    0  502  503 -0.00000000000E+00 -0.00000000000E+00 -0.18212049438E+02  0.18212049438E+02  0.00000000000E+00 0. -1.
          2    1    1    2  501    0 -0.22027594251E+02 -0.14905228832E+02  0.26065424969E+02  0.37239590946E+02  0.00000000000E+00 0.  1.
         -2    1    1    2    0  503  0.22027594251E+02  0.14905228832E+02  0.13826104779E+01  0.26632543377E+02  0.00000000000E+00 0. -1.
</event>
<event>
 4    1  0.1848744E+004  0.2010116E+02  0.7546771E-02  0.1532495E+00
         21   -1    0    0  503  502  0.00000000000E+00  0.00000000000E+00  0.22515945519E+01  0.22515945519E+01  0.00000000000E+00 0.  1.
         21   -1    0    0  501  503 -0.00000000000E+00 -0.00000000000E+00 -0.36761101699E+03  0.36761101699E+03  0.00000000000E+00 0. -1.
          2    1    1    2  501    0  0.20846755198E+01  0.19992766183E+02 -0.31498491884E+03  0.31562565749E+03  0.00000000000E+00 0. -1.
         -2    1    1    2    0  502 -0.20846755198E+01 -0.19992766183E+02 -0.50374503596E+02  0.54236954046E+02  0.00000000000E+00 0.  1.
</event>
<event>
 4    1  0.1848744E+004  0.2106311E+02  0.7546771E-02  0.1518366E+00
         21   -1    0    0  503  502  0.00000000000E+00  0.00000000000E+00  0.59514763972E+01  0.59514763972E+01  0.00000000000E+00 0. -1.
         21   -1    0    0  501  503 -0.00000000000E+00 -0.00000000000E+00 -0.91427411914E+02  0.91427411914E+02  0.00000000000E+00 0.  1.
          2    1    1    2  501    0 -0.43952879923E+01 -0.20599413526E+02 -0.63660315779E+02  0.67054382401E+02  0.00000000000E+00 0.  1.
         -2    1    1    2    0  502  0.43952879923E+01  0.20599413526E+02 -0.21815619738E+02  0.30324505910E+02  0.00000000000E+00 0. -1.
</event>
<event>
 4    1  0.1848744E+004  0.3450253E+02  0.7546771E-02  0.1384095E+00
         21   -1    0    0  501  502  0.00000000000E+00  0.00000000000E+00  0.47236815988E+02  0.47236815988E+02  0.00000000000E+00 0.  1.
         21   -1    0    0  502  503 -0.00000000000E+00 -0.00000000000E+00 -0.40223680081E+02  0.40223680081E+02  0.00000000000E+00 0. -1.
          2    1    1    2  501    0 -0.32893398444E+02 -0.10413885190E+02  0.30231203490E+02  0.45873198389E+02  0.00000000000E+00 0. -1.
         -2    1    1    2    0  503  0.32893398444E+02  0.10413885190E+02 -0.23218067583E+02  0.41587297679E+02  0.00000000000E+00 0.  1.
</event>
<event>
 4    1  0.1848744E+004  0.3184361E+02  0.7546771E-02  0.1404224E+00
         21   -1    0    0  503  502  0.00000000000E+00  0.00000000000E+00  0.47699346742E+02  0.47699346742E+02  0.00000000000E+00 0.  1.
         21   -1    0    0  501  503 -0.00000000000E+00 -0.00000000000E+00 -0.10325453732E+03  0.10325453732E+03  0.00000000000E+00 0. -1.
          2    1    1    2  501    0 -0.23210118632E+02 -0.21801514210E+02 -0.95037493835E+02  0.10023043881E+03  0.00000000000E+00 0. -1.
         -2    1    1    2    0  502  0.23210118632E+02  0.21801514210E+02  0.39482303254E+02  0.50723445260E+02  0.00000000000E+00 0.  1.
</event>
<event>
 4    1  0.1848744E+004  0.2089251E+02  0.7546771E-02  0.1520805E+00
         21   -1    0    0  503  502  0.00000000000E+00  0.00000000000E+00  0.92752176472E+02  0.92752176472E+02  0.00000000000E+00 0.  1.
         21   -1    0    0  501  503 -0.00000000000E+00 -0.00000000000E+00 -0.53706839022E+01  0.53706839022E+01  0.00000000000E+00 0. -1.
          2    1    1    2  501    0  0.79180497358E+01 -0.19333940553E+02  0.60949732564E+02  0.64431100166E+02  0.00000000000E+00 0.  1.
         -2    1    1    2    0  502 -0.79180497358E+01  0.19333940553E+02  0.26431760005E+02  0.33691760208E+02  0.00000000000E+00 0. -1.
</event>
<event>
 4    1  0.1848744E+004  0.2542421E+02  0.7546771E-02  0.1464113E+00
         21   -1    0    0  503  502  0.00000000000E+00  0.00000000000E+00  0.15482338863E+03  0.15482338863E+03  0.00000000000E+00 0. -1.
         21   -1    0    0  501  503 -0.00000000000E+00 -0.00000000000E+00 -0.83532604903E+01  0.83532604903E+01  0.00000000000E+00 0.  1.
          2    1    1    2  501    0 -0.17518809237E+02  0.18425030352E+02  0.15532272021E+02  0.29793319632E+02  0.00000000000E+00 0.  1.
         -2    1    1    2    0  502  0.17518809237E+02 -0.18425030352E+02  0.13093785612E+03  0.13338332949E+03  0.00000000000E+00 0. -1.
</event>
<event>
 4    1  0.1848744E+004  0.2978410E+02  0.7546771E-02  0.1421482E+00
         21   -1    0    0  503  502  0.00000000000E+00  0.00000000000E+00  0.46837777637E+01  0.46837777637E+01  0.00000000000E+00 0.  1.
         21   -1    0    0  501  503 -0.00000000000E+00 -0.00000000000E+00 -0.26809624449E+03  0.26809624449E+03  0.00000000000E+00 0. -1.
          2    1    1    2  501    0  0.63982642429E+01 -0.29088740202E+02 -0.20560258392E+03  0.20774868257E+03  0.00000000000E+00 0. -1.
         -2    1    1    2    0  502 -0.63982642429E+01  0.29088740202E+02 -0.57809882801E+02  0.65031339686E+02  0.00000000000E+00 0.  1.
</event>
<event>
 4    1  0.1848744E+004  0.2989151E+02  0.7546771E-02  0.1420542E+00
         21   -1    0    0  503  502  0.00000000000E+00  0.00000000000E+00  0.74582622272E+02  0.74582622272E+02  0.00000000000E+00 0. -1.
         21   -1    0    0  501  503 -0.00000000000E+00 -0.00000000000E+00 -0.12209265128E+02  0.12209265128E+02  0.00000000000E+00 0.  1.
          2    1    1    2  501    0 -0.15804924775E+02  0.25371375636E+02  0.25240455554E+02  0.39122665367E+02  0.00000000000E+00 0.  1.
         -2    1    1    2    0  502  0.15804924775E+02 -0.25371375636E+02  0.37132901590E+02  0.47669222033E+02  0.00000000000E+00 0. -1.
</event>
<event>
 4    1  0.1848744E+004  0.2016408E+02  0.7546771E-02  0.1531542E+00
         21   -1    0    0  503  502  0.00000000000E+00  0.00000000000E+00  0.61180500719E+02  0.61180500719E+02  0.00000000000E+00 0.  1.
         21   -1    0    0  501  503 -0.00000000000E+00 -0.00000000000E+00 -0.11525397599E+02  0.11525397599E+02  0.00000000000E+00 0. -1.
          2    1    1    2  501    0  0.20148737998E+02 -0.78635064567E+00  0.11734664626E+01  0.20198193329E+02  0.00000000000E+00 0. -1.
         -2    1    1    2    0  502 -0.20148737998E+02  0.78635064567E+00  0.48481636658E+02  0.52507704989E+02  0.00000000000E+00 0.  1.
</event>
<event>
 4    1  0.1848744E+004  0.2079321E+02  0.7546771E-02  0.1522238E+00
         21   -1    0    0  503  502  0.00000000000E+00  0.00000000000E+00  0.61089087867E+01  0.61089087867E+01  0.00000000000E+00 0.  1.
         21   -1    0    0  501  503 -0.00000000000E+00 -0.00000000000E+00 -0.90188497299E+02  0.90188497299E+02  0.00000000000E+00 0. -1.
          2    1    1    2  501    0  0.50084407667E+01 -0.20181005937E+02 -0.64378700020E+02  0.67653340611E+02  0.00000000000E+00 0. -1.
         -2    1    1    2    0  502 -0.50084407667E+01  0.20181005937E+02 -0.19700888492E+02  0.28644065475E+02  0.00000000000E+00 0.  1.
</event>
<event>
 4    1  0.1848744E+004  0.2120402E+02  0.7546771E-02  0.1516372E+00
         21   -1    0    0  501  502  0.00000000000E+00  0.00000000000E+00  0.22533454771E+02  0.22533454771E+02  0.00000000000E+00 0.  1.
         21   -1    0    0  502  503 -0.00000000000E+00 -0.00000000000E+00 -0.44580584091E+02  0.44580584091E+02  0.00000000000E+00 0. -1.
          2    1    1    2  501    0  0.14167005367E+02  0.15776764629E+02  0.13917861460E+02  0.25363698683E+02  0.00000000000E+00 0.  1.
         -2    1    1    2    0  503 -0.14167005367E+02 -0.15776764629E+02 -0.35964990781E+02  0.41750340179E+02  0.00000000000E+00 0. -1.
</event>
<event>
 4    1  0.1848744E+004  0.2645012E+02  0.7546771E-02  0.1453211E+00
         21   -1    0    0  503  502  0.00000000000E+00  0.00000000000E+00  0.20911424296E+02  0.20911424296E+02  0.00000000000E+00 0. -1.
         21   -1    0    0  501  503 -0.00000000000E+00 -0.00000000000E+00 -0.61297513595E+02  0.61297513595E+02  0.00000000000E+00 0.  1.
          2    1    1    2  501    0  0.19721579329E+02  0.17625774092E+02 -0.47895325507E+02  0.54713534056E+02  0.00000000000E+00 0.  1.
         -2    1    1    2    0  502 -0.19721579329E+02 -0.17625774092E+02  0.75092362075E+01  0.27495403834E+02  0.00000000000E+00 0. -1.
</event>
<event>
 4    1  0.1848744E+004  0.2654235E+02  0.7546771E-02  0.1452260E+00
         21   -1    0    0  503  502  0.00000000000E+00  0.00000000000E+00  0.51583511460E+03  0.51583511460E+03  0.00000000000E+00 0.  1.
         21   -1    0    0  501  503 -0.00000000000E+00 -0.00000000000E+00 -0.37876806528E+01  0.37876806528E+01  0.00000000000E+00 0. -1.
          2    1    1    2  501    0 -0.24800724334E+02  0.94562505139E+01  0.48267858985E+02  0.55084324560E+02  0.00000000000E+00 0. -1.
         -2    1    1    2    0  502  0.24800724334E+02 -0.94562505139E+01  0.46377957497E+03  0.46453847070E+03  0.00000000000E+00 0.  1.
</event>
<event>
 4    1  0.1848744E+004  0.2416950E+02  0.7546771E-02  0.1478313E+00
         21   -1    0    0  503  502  0.00000000000E+00  0.00000000000E+00  0.57096794506E+01  0.57096794506E+01  0.00000000000E+00 0.  1.
         21   -1    0    0  501  503 -0.00000000000E+00 -0.00000000000E+00 -0.19247199708E+03  0.19247199708E+03  0.00000000000E+00 0. -1.
          2    1    1    2  501    0  0.13324874119E+02  0.20164634583E+02 -0.16120124595E+03  0.16300308725E+03  0.00000000000E+00 0. -1.
         -2    1    1    2    0  502 -0.13324874119E+02 -0.20164634583E+02 -0.25561071679E+02  0.35178589278E+02  0.00000000000E+00 0.  1.
</event>
<event>
 4    1  0.1848744E+004  0.2216148E+02  0.7546771E-02  0.1503305E+00
         21   -1    0    0  503  502  0.00000000000E+00  0.00000000000E+00  0.23103851676E+03  0.23103851676E+03  0.00000000000E+00 0.  1.
         21   -1    0    0  501  503 -0.00000000000E+00 -0.00000000000E+00 -0.27273411879E+01  0.27273411879E+01  0.00000000000E+00 0. -1.
          2    1    1    2  501    0  0.10591067036E+01 -0.22136159606E+02  0.59260902553E+02  0.63269153942E+02  0.00000000000E+00 0. -1.
         -2    1    1    2    0  502 -0.10591067036E+01  0.22136159606E+02  0.16905027302E+03  0.17049670401E+03  0.00000000000E+00 0.  1.
</event>
<event>
 4    1  0.1848744E+004  0.3751464E+02  0.7546771E-02  0.1363699E+00
         21   -1    0    0  503  502  0.00000000000E+00  0.00000000000E+00  0.70906290337E+01  0.70906290337E+01  0.00000000000E+00 0.  1.
         21   -1    0    0  501  503 -0.00000000000E+00 -0.00000000000E+00 -0.24127109715E+03  0.24127109715E+03  0.00000000000E+00 0. -1.
          2    1    1    2  501    0 -0.99114601572E+01  0.36181636250E+02 -0.16938748774E+03  0.17349198496E+03  0.00000000000E+00 0. -1.
         -2    1    1    2    0  502  0.99114601572E+01 -0.36181636250E+02 -0.64792980382E+02  0.74869741224E+02  0.00000000000E+00 0.  1.
</event>
<event>
 4    1  0.1848744E+004  0.2506724E+02  0.7546771E-02  0.1468053E+00
         21   -1    0    0  501  502  0.00000000000E+00  0.00000000000E+00  0.15556567994E+02  0.15556567994E+02  0.00000000000E+00 0.  1.
         21   -1    0    0  502  503 -0.00000000000E+00 -0.00000000000E+00 -0.18154543704E+03  0.18154543704E+03  0.00000000000E+00 0. -1.
          2    1    1    2  501    0  0.15259337119E+02 -0.19887660166E+02  0.39043220704E+01  0.25369472344E+02  0.00000000000E+00 0.  1.
         -2    1    1    2    0  503 -0.15259337119E+02  0.19887660166E+02 -0.16989319112E+03  0.17173253269E+03  0.00000000000E+00 0. -1.
</event>
<event>
 4    1  0.1848744E+004  0.2019992E+02  0.7546771E-02  0.1531001E+00
         21   -1    0    0  503  502  0.00000000000E+00  0.00000000000E+00  0.78998588470E+01  0.78998588470E+01  0.00000000000E+00 0.  1.
         21   -1    0    0  501  503 -0.00000000000E+00 -0.00000000000E+00 -0.98429910142E+02  0.98429910142E+02  0.00000000000E+00 0. -1.
          2    1    1    2  501    0  0.77200582494E+01 -0.18666481574E+02 -0.81916011466E+02  0.84369839210E+02  0.00000000000E+00 0. -1.
         -2    1    1    2    0  502 -0.77200582494E+01  0.18666481574E+02 -0.86140398291E+01  0.21959929780E+02  0.00000000000E+00 0.  1.
</event>
<event>
 4    1  0.1848744E+004  0.2943854E+02  0.7546771E-02  0.1424539E+00
         21   -1    0    0  503  502  0.00000000000E+00  0.00000000000E+00  0.41200160924E+03  0.41200160924E+03  0.00000000000E+00 0.  1.
         21   -1    0    0  501  503 -0.00000000000E+00 -0.00000000000E+00 -0.47947151280E+01  0.47947151280E+01  0.00000000000E+00 0. -1.
          2    1    1    2  501    0  0.28211531399E+02  0.84105514144E+01  0.47472096583E+02  0.55858999571E+02  0.00000000000E+00 0. -1.
         -2    1    1    2    0  502 -0.28211531399E+02 -0.84105514144E+01  0.35973479753E+03  0.36093732480E+03  0.00000000000E+00 0.  1.
</event>
<event>
 4    1  0.1848744E+004  0.2743143E+02  0.7546771E-02  0.1443322E+00
         21   -1    0    0  501  502  0.00000000000E+00  0.00000000000E+00  0.87327618948E+03  0.87327618948E+03  0.00000000000E+00 0. -1.
         21   -1    0    0  502  503 -0.00000000000E+00 -0.00000000000E+00 -0.89477746725E+00  0.89477746725E+00  0.00000000000E+00 0.  1.
          2    1    1    2  501    0  0.26583259350E+02  0.67685882863E+01  0.52025565874E+03  0.52097834304E+03  0.00000000000E+00 0. -1.
         -2    1    1    2    0  503 -0.26583259350E+02 -0.67685882863E+01  0.35212575327E+03  0.35319262391E+03  0.00000000000E+00 0.  1.
</event>
<event>
 4    1  0.1848744E+004  0.2189944E+02  0.7546771E-02  0.1506800E+00
         21   -1    0    0  501  502  0.00000000000E+00  0.00000000000E+00  0.20591675331E+02  0.20591675331E+02  0.00000000000E+00 0. -1.
         21   -1    0    0  502  503 -0.00000000000E+00 -0.00000000000E+00 -0.41910699040E+02  0.41910699040E+02  0.00000000000E+00 0.  1.
          2    1    1    2  501    0 -0.16770060096E+02 -0.14083692564E+02  0.10170960448E+02  0.24146091781E+02  0.00000000000E+00 0. -1.
         -2    1    1    2    0  503  0.16770060096E+02  0.14083692564E+02 -0.31489984157E+02  0.38356282590E+02  0.00000000000E+00 0.  1.
</event>
<event>
 4    1  0.1848744E+004  0.3848407E+02  0.7546771E-02  0.1357606E+00
         21   -1    0    0  501  502  0.00000000000E+00  0.00000000000E+00  0.53121744032E+03  0.53121744032E+03  0.00000000000E+00 0. -1.
         21   -1    0    0  502  503 -0.00000000000E+00 -0.00000000000E+00 -0.41381442555E+01  0.41381442555E+01  0.00000000000E+00 0.  1.
          2    1    1    2  501    0  0.32125777833E+01  0.38349747891E+02  0.41643798621E+03  0.41821241036E+03  0.00000000000E+00 0. -1.
         -2    1    1    2    0  503 -0.32125777833E+01 -0.38349747891E+02  0.11064130985E+03  0.11714317422E+03  0.00000000000E+00 0.  1.
</event>
<event>
 4    1  0.1848744E+004  0.2703730E+02  0.7546771E-02  0.1447234E+00
         21   -1    0    0  501  502  0.00000000000E+00  0.00000000000E+00  0.10889034503E+01  0.10889034503E+01  0.00000000000E+00 0. -1.
         21   -1    0    0  502  503 -0.00000000000E+00 -0.00000000000E+00 -0.10000633185E+04  0.10000633185E+04  0.00000000000E+00 0.  1.
          2    1    1    2  501    0 -0.18323124629E+02  0.19881622765E+02 -0.21249053742E+03  0.21420374486E+03  0.00000000000E+00 0. -1.
         -2    1    1    2    0  503  0.18323124629E+02 -0.19881622765E+02 -0.78648387762E+03  0.78694847708E+03  0.00000000000E+00 0.  1.
</event>
<event>
 4    1  0.1848744E+004  0.2070127E+02  0.7546771E-02  0.1523573E+00
         21   -1    0    0  503  502  0.00000000000E+00  0.00000000000E+00  0.54365770233E+02  0.54365770233E+02  0.00000000000E+00 0. -1.
         21   -1    0    0  501  503 -0.00000000000E+00 -0.00000000000E+00 -0.11199162732E+02  0.11199162732E+02  0.00000000000E+00 0.  1.
          2    1    1    2  501    0  0.18458037154E+02  0.93724940369E+01  0.37433399658E+01  0.21037000122E+02  0.00000000000E+00 0.  1.
         -2    1    1    2    0  502 -0.18458037154E+02 -0.93724940369E+01  0.39423267535E+02  0.44527932842E+02  0.00000000000E+00 0. -1.
</event>
<event>
 4    1  0.1848744E+004  0.3371786E+02  0.7546771E-02  0.1389808E+00
         21   -1    0    0  503  502  0.00000000000E+00  0.00000000000E+00  0.16786639084E+02  0.16786639084E+02  0.00000000000E+00 0. -1.
         21   -1    0    0  501  503 -0.00000000000E+00 -0.00000000000E+00 -0.41486379949E+03  0.41486379949E+03  0.00000000000E+00 0.  1.
          2    1    1    2  501    0  0.33658338769E+02  0.20025848074E+01 -0.39646273702E+03  0.39789395064E+03  0.00000000000E+00 0.  1.
         -2    1    1    2    0  502 -0.33658338769E+02 -0.20025848074E+01 -0.16144233889E+01  0.33756487932E+02  0.00000000000E+00 0. -1.
</event>
<event>
 4    1  0.1848744E+004  0.3613716E+02  0.7546771E-02  0.1372740E+00
         21   -1    0    0  503  502  0.00000000000E+00  0.00000000000E+00  0.86552608651E+02  0.86552608651E+02  0.00000000000E+00 0.  1.
         21   -1    0    0  501  503 -0.00000000000E+00 -0.00000000000E+00 -0.32404178377E+02  0.32404178377E+02  0.00000000000E+00 0. -1.
          2    1    1    2  501    0 -0.36119929969E+02  0.11157678749E+01 -0.16405472117E+02  0.39686695432E+02  0.00000000000E+00 0. -1.
         -2    1    1    2    0  502  0.36119929969E+02 -0.11157678749E+01  0.70553902391E+02  0.79270091595E+02  0.00000000000E+00 0.  1.
</event>
<event>
 4    1  0.1848744E+004  0.2598559E+02  0.7546771E-02  0.1458073E+00
         21   -1    0    0  503  502  0.00000000000E+00  0.00000000000E+00  0.78950394932E+00  0.78950394932E+00  0.00000000000E+00 0. -1.
         21   -1    0    0  501  503 -0.00000000000E+00 -0.00000000000E+00 -0.10473587444E+04  0.10473587444E+04  0.00000000000E+00 0.  1.
          2    1    1    2  501    0 -0.17736285018E+02  0.18991450940E+02 -0.29885570962E+03  0.29998330985E+03  0.00000000000E+00 0. -1.
         -2    1    1    2    0  502  0.17736285018E+02 -0.18991450940E+02 -0.74771353078E+03  0.74816493845E+03  0.00000000000E+00 0.  1.
</event>
<event>
 4    1  0.1848744E+004  0.2151767E+02  0.7546771E-02  0.1512001E+00
         21   -1    0    0  503  502  0.00000000000E+00  0.00000000000E+00  0.49805498813E+02  0.49805498813E+02  0.00000000000E+00 0. -1.
         21   -1    0    0  501  503 -0.00000000000E+00 -0.00000000000E+00 -0.93198978560E+01  0.93198978560E+01  0.00000000000E+00 0.  1.
          2    1    1    2  501    0  0.75989827612E+01 -0.20131208677E+02  0.21728307583E+02  0.30579886400E+02  0.00000000000E+00 0.  1.
         -2    1    1    2    0  502 -0.75989827612E+01  0.20131208677E+02  0.18757293373E+02  0.28545510269E+02  0.00000000000E+00 0. -1.
</event>
<event>
 4    1  0.1848744E+004  0.2018347E+02  0.7546771E-02  0.1531249E+00
         21   -1    0    0  503  502  0.00000000000E+00  0.00000000000E+00  0.59253772662E+01  0.59253772662E+01  0.00000000000E+00 0.  1.
         21   -1    0    0  501  503 -0.00000000000E+00 -0.00000000000E+00 -0.73438187025E+02  0.73438187025E+02  0.00000000000E+00 0. -1.
          2    1    1    2  501    0 -0.79963169518E+01  0.18531899479E+02 -0.43782032824E+02  0.48210359689E+02  0.00000000000E+00 0. -1.
         -2    1    1    2    0  502  0.79963169518E+01 -0.18531899479E+02 -0.23730776935E+02  0.31153204603E+02  0.00000000000E+00 0.  1.
</event>
<event>
 4    1  0.1848744E+004  0.2187676E+02  0.7546771E-02  0.1507106E+00
         21   -1    0    0  503  502  0.00000000000E+00  0.00000000000E+00  0.34426908702E+01  0.34426908702E+01  0.00000000000E+00 0. -1.
         21   -1    0    0  501  503 -0.00000000000E+00 -0.00000000000E+00 -0.16223913197E+03  0.16223913197E+03  0.00000000000E+00 0.  1.
          2    1    1    2  501    0  0.13453675812E+02 -0.17250827108E+02 -0.11073962495E+03  0.11287983417E+03  0.00000000000E+00 0.  1.
         -2    1    1    2    0  502 -0.13453675812E+02  0.17250827108E+02 -0.48056816145E+02  0.52801988663E+02  0.00000000000E+00 0. -1.
</event>
<event>
 4    1  0.1848744E+004  0.2861961E+02  0.7546771E-02  0.1431984E+00
         21   -1    0    0  501  502  0.00000000000E+00  0.00000000000E+00  0.10311835702E+02  0.10311835702E+02  0.00000000000E+00 0.  1.
         21   -1    0    0  502  503 -0.00000000000E+00 -0.00000000000E+00 -0.87774283937E+02  0.87774283937E+02  0.00000000000E+00 0. -1.
          2    1    1    2  501    0  0.28399787570E+02 -0.35403380345E+01 -0.23611074184E+02  0.37102085542E+02  0.00000000000E+00 0.  1.
         -2    1    1    2    0  503 -0.28399787570E+02  0.35403380345E+01 -0.53851374051E+02  0.60984034096E+02  0.00000000000E+00 0. -1.
</event>
<event>
 4    1  0.1848744E+004  0.6619109E+02  0.7546771E-02  0.1240134E+00
         21   -1    0    0  501  502  0.00000000000E+00  0.00000000000E+00  0.24864245465E+02  0.24864245465E+02  0.00000000000E+00 0.  1.
         21   -1    0    0  502  503 -0.00000000000E+00 -0.00000000000E+00 -0.18391014388E+03  0.18391014388E+03  0.00000000000E+00 0. -1.
          2    1    1    2  501    0  0.13217366203E+02  0.64858013697E+02 -0.58159523451E+02  0.88112376419E+02  0.00000000000E+00 0.  1.
         -2    1    1    2    0  503 -0.13217366203E+02 -0.64858013697E+02 -0.10088637497E+03  0.12066201293E+03  0.00000000000E+00 0. -1.
</event>
<event>
 4    1  0.1848744E+004  0.6725243E+02  0.7546771E-02  0.1237001E+00
         21   -1    0    0  501  502  0.00000000000E+00  0.00000000000E+00  0.12748953504E+04  0.12748953504E+04  0.00000000000E+00 0.  1.
         21   -1    0    0  502  503 -0.00000000000E+00 -0.00000000000E+00 -0.53045870472E+01  0.53045870472E+01  0.00000000000E+00 0. -1.
          2    1    1    2  501    0  0.39844342124E+02  0.54178566630E+02  0.10031783270E+04  0.10054300793E+04  0.00000000000E+00 0.  1.
         -2    1    1    2    0  503 -0.39844342124E+02 -0.54178566630E+02  0.26641243642E+03  0.27476985818E+03  0.00000000000E+00 0. -1.
</event>
<event>
 4    1  0.1848744E+004  0.2233858E+02  0.7546771E-02  0.1500975E+00
         21   -1    0    0  503  502  0.00000000000E+00  0.00000000000E+00  0.93242186500E+02  0.93242186500E+02  0.00000000000E+00 0. -1.
         21   -1    0    0  501  503 -0.00000000000E+00 -0.00000000000E+00 -0.53587895877E+01  0.53587895877E+01  0.00000000000E+00 0.  1.
          2    1    1    2  501    0  0.13582836840E+02 -0.17734680990E+02  0.42159597856E+02  0.47712095509E+02  0.00000000000E+00 0.  1.
         -2    1    1    2    0  502 -0.13582836840E+02  0.17734680990E+02  0.45723799056E+02  0.50888880579E+02  0.00000000000E+00 0. -1.
</event>
<event>
 4    1  0.1848744E+004  0.2300612E+02  0.7546771E-02  0.1492421E+00
         21   -1    0    0  501  502  0.00000000000E+00  0.00000000000E+00  0.47108437298E+02  0.47108437298E+02  0.00000000000E+00 0. -1.
         21   -1    0    0  502  503 -0.00000000000E+00 -0.00000000000E+00 -0.23097855397E+02  0.23097855397E+02  0.00000000000E+00 0.  1.
          2    1    1    2  501    0  0.22997241124E+02 -0.63903803878E+00  0.37161649221E+02  0.43706631554E+02  0.00000000000E+00 0. -1.
         -2    1    1    2    0  503 -0.22997241124E+02  0.63903803878E+00 -0.13151067319E+02  0.26499661141E+02  0.00000000000E+00 0.  1.
</event>
<event>
 4    1  0.1848744E+004  0.2102994E+02  0.7546771E-02  0.1518838E+00
         21   -1    0    0  503  502  0.00000000000E+00  0.00000000000E+00  0.58296437927E+01  0.58296437927E+01  0.00000000000E+00 0.  1.
         21   -1    0    0  501  503 -0.00000000000E+00 -0.00000000000E+00 -0.26378298890E+03  0.26378298890E+03  0.00000000000E+00 0. -1.
          2    1    1    2  501    0  0.17666945787E+02 -0.11407781350E+02 -0.24275839640E+03  0.24366759627E+03  0.00000000000E+00 0. -1.
         -2    1    1    2    0  502 -0.17666945787E+02  0.11407781350E+02 -0.15194948705E+02  0.25945036421E+02  0.00000000000E+00 0.  1.
</event>
<event>
 4    1  0.1848744E+004  0.2201275E+02  0.7546771E-02  0.1505282E+00
         21   -1    0    0  501  502  0.00000000000E+00  0.00000000000E+00  0.39980005940E+00  0.39980005940E+00  0.00000000000E+00 0.  1.
         21   -1    0    0  502  503 -0.00000000000E+00 -0.00000000000E+00 -0.12239785307E+04  0.12239785307E+04  0.00000000000E+00 0. -1.
          2    1    1    2  501    0  0.18114275046E+02 -0.12507360950E+02 -0.55124861221E+03  0.55168794939E+03  0.00000000000E+00 0. -1.
         -2    1    1    2    0  503 -0.18114275046E+02  0.12507360950E+02 -0.67233011839E+03  0.67269038133E+03  0.00000000000E+00 0.  1.
</event>
<event>
 4    1  0.1848744E+004  0.2015255E+02  0.7546771E-02  0.1531716E+00
         21   -1    0    0  503  502  0.00000000000E+00  0.00000000000E+00  0.63382556484E+02  0.63382556484E+02  0.00000000000E+00 0.  1.
         21   -1    0    0  501  503 -0.00000000000E+00 -0.00000000000E+00 -0.12429304271E+02  0.12429304271E+02  0.00000000000E+00 0. -1.
          2    1    1    2  501    0 -0.76684697410E+01  0.18636518251E+02 -0.90771234368E+00  0.20172981495E+02  0.00000000000E+00 0. -1.
         -2    1    1    2    0  502  0.76684697410E+01 -0.18636518251E+02  0.51860964556E+02  0.55638879261E+02  0.00000000000E+00 0.  1.
</event>
<event>
 4    1  0.1848744E+004  0.2597332E+02  0.7546771E-02  0.1458203E+00
         21   -1    0    0  501  502  0.00000000000E+00  0.00000000000E+00  0.16652081458E+01  0.16652081458E+01  0.00000000000E+00 0. -1.
         21   -1    0    0  502  503 -0.00000000000E+00 -0.00000000000E+00 -0.42167093359E+03  0.42167093359E+03  0.00000000000E+00 0.  1.
          2    1    1    2  501    0 -0.75222203392E+01 -0.24860202300E+02 -0.25193486719E+03  0.25327019320E+03  0.00000000000E+00 0.  1.
         -2    1    1    2    0  503  0.75222203392E+01  0.24860202300E+02 -0.16807085825E+03  0.17006594853E+03  0.00000000000E+00 0. -1.
</event>
<event>
 4    1  0.1848744E+004  0.2134442E+02  0.7546771E-02  0.1514404E+00
         21   -1    0    0  501  502  0.00000000000E+00  0.00000000000E+00  0.72331587300E+02  0.72331587300E+02  0.00000000000E+00 0. -1.
         21   -1    0    0  502  503 -0.00000000000E+00 -0.00000000000E+00 -0.64427014329E+01  0.64427014329E+01  0.00000000000E+00 0.  1.
          2    1    1    2  501    0  0.21111201887E+02  0.31466600665E+01  0.38835943211E+02  0.44314950071E+02  0.00000000000E+00 0.  1.
         -2    1    1    2    0  503 -0.21111201887E+02 -0.31466600665E+01  0.27052942656E+02  0.34459338662E+02  0.00000000000E+00 0. -1.
</event>
<event>
 4    1  0.1848744E+004  0.2286612E+02  0.7546771E-02  0.1494186E+00
         21   -1    0    0  503  502  0.00000000000E+00  0.00000000000E+00  0.32925195977E+02  0.32925195977E+02  0.00000000000E+00 0. -1.
         21   -1    0    0  501  503 -0.00000000000E+00 -0.00000000000E+00 -0.18070911807E+02  0.18070911807E+02  0.00000000000E+00 0.  1.
          2    1    1    2  501    0  0.45980819518E+01 -0.22399045981E+02 -0.14506884789E+01  0.22912095399E+02  0.00000000000E+00 0.  1.
         -2    1    1    2    0  502 -0.45980819518E+01  0.22399045981E+02  0.16304972649E+02  0.28084012384E+02  0.00000000000E+00 0. -1.
</event>
<event>
 4    1  0.1848744E+004  0.2156217E+02  0.7546771E-02  0.1511388E+00
         21   -1    0    0  501  502  0.00000000000E+00  0.00000000000E+00  0.13622176741E+02  0.13622176741E+02  0.00000000000E+00 0. -1.
         21   -1    0    0  502  503 -0.00000000000E+00 -0.00000000000E+00 -0.82323294404E+02  0.82323294404E+02  0.00000000000E+00 0.  1.
          2    1    1    2  501    0 -0.15040919484E+02 -0.15449846646E+02  0.23544824503E+01  0.21690334435E+02  0.00000000000E+00 0. -1.
         -2    1    1    2    0  503  0.15040919484E+02  0.15449846646E+02 -0.71055600114E+02  0.74255136710E+02  0.00000000000E+00 0.  1.
</event>
<event>
 4    1  0.1848744E+004  0.2234696E+02  0.7546771E-02  0.1500865E+00
         21   -1    0    0  503  502  0.00000000000E+00  0.00000000000E+00  0.12756995097E+03  0.12756995097E+03  0.00000000000E+00 0.  1.
         21   -1    0    0  501  503 -0.00000000000E+00 -0.00000000000E+00 -0.52146693298E+01  0.52146693298E+01  0.00000000000E+00 0. -1.
          2    1    1    2  501    0 -0.12491859187E+02 -0.18529437237E+02  0.28027452519E+02  0.35845846133E+02  0.00000000000E+00 0. -1.
         -2    1    1    2    0  502  0.12491859187E+02  0.18529437237E+02  0.94327829124E+02  0.96938774169E+02  0.00000000000E+00 0.  1.
</event>
<event>
 4    1  0.1848744E+004  0.2026455E+02  0.7546771E-02  0.1530029E+00
         21   -1    0    0  503  502  0.00000000000E+00  0.00000000000E+00  0.66485163189E+02  0.66485163189E+02  0.00000000000E+00 0. -1.
         21   -1    0    0  501  503 -0.00000000000E+00 -0.00000000000E+00 -0.63894074873E+01  0.63894074873E+01  0.00000000000E+00 0.  1.
          2    1    1    2  501    0  0.17698676693E+02  0.98695939025E+01  0.36697738204E+02  0.41921069044E+02  0.00000000000E+00 0. -1.
         -2    1    1    2    0  502 -0.17698676693E+02 -0.98695939025E+01  0.23398017497E+02  0.30953501632E+02  0.00000000000E+00 0.  1.
</event>
<event>
 4    1  0.1848744E+004  0.3152121E+02  0.7546771E-02  0.1406822E+00
         21   -1    0    0  501  502  0.00000000000E+00  0.00000000000E+00  0.30048050919E+03  0.30048050919E+03  0.00000000000E+00 0. -1.
         21   -1    0    0  502  503 -0.00000000000E+00 -0.00000000000E+00 -0.14258009605E+02  0.14258009605E+02  0.00000000000E+00 0.  1.
          2    1    1    2  501    0 -0.25858996940E+02 -0.18024949045E+02  0.28103031203E+03  0.28279254373E+03  0.00000000000E+00 0. -1.
         -2    1    1    2    0  503  0.25858996940E+02  0.18024949045E+02  0.51921875498E+01  0.31945975057E+02  0.00000000000E+00 0.  1.
</event>
<event>
 4    1  0.1848744E+004  0.2231327E+02  0.7546771E-02  0.1501306E+00
         21   -1    0    0  501  502  0.00000000000E+00  0.00000000000E+00  0.44580491690E+03  0.44580491690E+03  0.00000000000E+00 0. -1.
         21   -1    0    0  502  503 -0.00000000000E+00 -0.00000000000E+00 -0.18846341756E+01  0.18846341756E+01  0.00000000000E+00 0.  1.
          2    1    1    2  501    0 -0.96628795841E+01 -0.20112449869E+02  0.36483727910E+03  0.36551897640E+03  0.00000000000E+00 0. -1.
         -2    1    1    2    0  503  0.96628795841E+01  0.20112449869E+02  0.79083003623E+02  0.82170574682E+02  0.00000000000E+00 0.  1.
</event>
<event>
 4    1  0.1848744E+004  0.2750288E+02  0.7546771E-02  0.1442621E+00
         21   -1    0    0  503  502  0.00000000000E+00  0.00000000000E+00  0.26073204610E+01  0.26073204610E+01  0.00000000000E+00 0.  1.
         21   -1    0    0  501  503 -0.00000000000E+00 -0.00000000000E+00 -0.29340971754E+03  0.29340971754E+03  0.00000000000E+00 0. -1.
          2    1    1    2  501    0 -0.29128973107E+01  0.27348193382E+02 -0.12970424830E+03  0.13258808649E+03  0.00000000000E+00 0. -1.
         -2    1    1    2    0  502  0.29128973107E+01 -0.27348193382E+02 -0.16109814878E+03  0.16342895151E+03  0.00000000000E+00 0.  1.
</event>
<event>
 4    1  0.1848744E+004  0.2309786E+02  0.7546771E-02  0.1491273E+00
         21   -1    0    0  503  502  0.00000000000E+00  0.00000000000E+00  0.22023116600E+03  0.22023116600E+03  0.00000000000E+00 0. -1.
         21   -1    0    0  501  503 -0.00000000000E+00 -0.00000000000E+00 -0.33239307279E+01  0.33239307279E+01  0.00000000000E+00 0.  1.
          2    1    1    2  501    0  0.18720236765E+02 -0.13530113211E+02  0.50244176026E+02  0.55299081842E+02  0.00000000000E+00 0.  1.
         -2    1    1    2    0  502 -0.18720236765E+02  0.13530113211E+02  0.16666305924E+03  0.16825601488E+03  0.00000000000E+00 0. -1.
</event>
<event>
 4    1  0.1848744E+004  0.2544025E+02  0.7546771E-02  0.1463938E+00
         21   -1    0    0  503  502  0.00000000000E+00  0.00000000000E+00  0.25680811732E+01  0.25680811732E+01  0.00000000000E+00 0. -1.
         21   -1    0    0  501  503 -0.00000000000E+00 -0.00000000000E+00 -0.28357160327E+03  0.28357160327E+03  0.00000000000E+00 0.  1.
          2    1    1    2  501    0  0.15852979397E+02 -0.19896963340E+02 -0.18822523297E+03  0.18993668533E+03  0.00000000000E+00 0.  1.
         -2    1    1    2    0  502 -0.15852979397E+02  0.19896963340E+02 -0.92778289128E+02  0.96202999119E+02  0.00000000000E+00 0. -1.
</event>
<event>
 4    1  0.1848744E+004  0.2043731E+02  0.7546771E-02  0.1527452E+00
         21   -1    0    0  503  502  0.00000000000E+00  0.00000000000E+00  0.12181383843E+03  0.12181383843E+03  0.00000000000E+00 0. -1.
         21   -1    0    0  501  503 -0.00000000000E+00 -0.00000000000E+00 -0.34628519650E+01  0.34628519650E+01  0.00000000000E+00 0.  1.
          2    1    1    2  501    0  0.19835539833E+02 -0.49229060359E+01  0.52970281969E+02  0.56776178245E+02  0.00000000000E+00 0. -1.
         -2    1    1    2    0  502 -0.19835539833E+02  0.49229060359E+01  0.65380704497E+02  0.68500512150E+02  0.00000000000E+00 0.  1.
</event>
<event>
 4    1  0.1848744E+004  0.3265437E+02  0.7546771E-02  0.1397849E+00
         21   -1    0    0  503  502  0.00000000000E+00  0.00000000000E+00  0.57753959309E+02  0.57753959309E+02  0.00000000000E+00 0. -1.
         21   -1    0    0  501  503 -0.00000000000E+00 -0.00000000000E+00 -0.23156416445E+02  0.23156416445E+02  0.00000000000E+00 0.  1.
          2    1    1    2  501    0  0.32593768782E+02 -0.19885568745E+01  0.35511947197E+02  0.48243201755E+02  0.00000000000E+00 0. -1.
         -2    1    1    2    0  502 -0.32593768782E+02  0.19885568745E+01 -0.91440433194E+00  0.32667174000E+02  0.00000000000E+00 0.  1.
</event>
<event>
 4    1  0.1848744E+004  0.2138549E+02  0.7546771E-02  0.1513832E+00
         21   -1    0    0  501  502  0.00000000000E+00  0.00000000000E+00  0.38404679228E+01  0.38404679228E+01  0.00000000000E+00 0. -1.
         21   -1    0    0  502  503 -0.00000000000E+00 -0.00000000000E+00 -0.12985737025E+03  0.12985737025E+03  0.00000000000E+00 0.  1.
          2    1    1    2  501    0  0.18871741791E+02  0.10059656749E+02 -0.43753989996E+02  0.48700625999E+02  0.00000000000E+00 0. -1.
         -2    1    1    2    0  503 -0.18871741791E+02 -0.10059656749E+02 -0.82262912327E+02  0.84997212170E+02  0.00000000000E+00 0.  1.
</event>
<event>
 4    1  0.1848744E+004  0.2202539E+02  0.7546771E-02  0.1505113E+00
         21   -1    0    0  501  502  0.00000000000E+00  0.00000000000E+00  0.23550396469E+01  0.23550396469E+01  0.00000000000E+00 0. -1.
         21   -1    0    0  502  503 -0.00000000000E+00 -0.00000000000E+00 -0.28924017567E+03  0.28924017567E+03  0.00000000000E+00 0.  1.
          2    1    1    2  501    0 -0.98318211182E+01  0.19709208792E+02 -0.65223912770E+02  0.68842402738E+02  0.00000000000E+00 0. -1.
         -2    1    1    2    0  503  0.98318211182E+01 -0.19709208792E+02 -0.22166122325E+03  0.22275281258E+03  0.00000000000E+00 0.  1.
</event>
<event>
 4    1  0.1848744E+004  0.3020583E+02  0.7546771E-02  0.1417816E+00
         21   -1    0    0  503  502  0.00000000000E+00  0.00000000000E+00  0.64077323113E+02  0.64077323113E+02  0.00000000000E+00 0.  1.
         21   -1    0    0  501  503 -0.00000000000E+00 -0.00000000000E+00 -0.15183166163E+02  0.15183166163E+02  0.00000000000E+00 0. -1.
          2    1    1    2  501    0  0.15769084439E+02  0.25762919949E+02  0.14564107710E+02  0.33533644325E+02  0.00000000000E+00 0. -1.
         -2    1    1    2    0  502 -0.15769084439E+02 -0.25762919949E+02  0.34330049240E+02  0.45726844951E+02  0.00000000000E+00 0.  1.
</event>
<event>
 4    1  0.1848744E+004  0.3215132E+02  0.7546771E-02  0.1401778E+00
         21   -1    0    0  501  502  0.00000000000E+00  0.00000000000E+00  0.10541486909E+03  0.10541486909E+03  0.00000000000E+00 0.  1.
         21   -1    0    0  502  503 -0.00000000000E+00 -0.00000000000E+00 -0.10155100501E+02  0.10155100501E+02  0.00000000000E+00 0. -1.
          2    1    1    2  501    0  0.28499032398E+01 -0.32024758561E+02  0.58342501473E+02  0.66614972698E+02  0.00000000000E+00 0.  1.
         -2    1    1    2    0  503 -0.28499032398E+01  0.32024758561E+02  0.36917267112E+02  0.48954996888E+02  0.00000000000E+00 0. -1.
</event>
<event>
 4    1  0.1848744E+004  0.4543199E+02  0.7546771E-02  0.1319293E+00
         21   -1    0    0  503  502  0.00000000000E+00  0.00000000000E+00  0.87533611446E+02  0.87533611446E+02  0.00000000000E+00 0. -1.
         21   -1    0    0  501  503 -0.00000000000E+00 -0.00000000000E+00 -0.25933775048E+02  0.25933775048E+02  0.00000000000E+00 0.  1.
          2    1    1    2  501    0 -0.44543093396E+02  0.89430824535E+01  0.47890862884E+02  0.66012124953E+02  0.00000000000E+00 0.  1.
         -2    1    1    2    0  502  0.44543093396E+02 -0.89430824535E+01  0.13708973514E+02  0.47455261541E+02  0.00000000000E+00 0. -1.
</event>
<event>
 4    1  0.1848744E+004  0.2548882E+02  0.7546771E-02  0.1463409E+00
         21   -1    0    0  503  502  0.00000000000E+00  0.00000000000E+00  0.12838692022E+02  0.12838692022E+02  0.00000000000E+00 0. -1.
         21   -1    0    0  501  503 -0.00000000000E+00 -0.00000000000E+00 -0.53564894552E+02  0.53564894552E+02  0.00000000000E+00 0.  1.
          2    1    1    2  501    0  0.14352323442E+02  0.21063962825E+02 -0.12556052781E+02  0.28413626651E+02  0.00000000000E+00 0. -1.
         -2    1    1    2    0  502 -0.14352323442E+02 -0.21063962825E+02 -0.28170149749E+02  0.37989959922E+02  0.00000000000E+00 0.  1.
</event>
<event>
 4    1  0.1848744E+004  0.2841743E+02  0.7546771E-02  0.1433867E+00
         21   -1    0    0  503  502  0.00000000000E+00  0.00000000000E+00  0.15908407007E+02  0.15908407007E+02  0.00000000000E+00 0.  1.
         21   -1    0    0  501  503 -0.00000000000E+00 -0.00000000000E+00 -0.51889779691E+02  0.51889779691E+02  0.00000000000E+00 0. -1.
          2    1    1    2  501    0  0.55862011514E+01  0.27862960205E+02 -0.22987197215E+02  0.36550806154E+02  0.00000000000E+00 0. -1.
         -2    1    1    2    0  502 -0.55862011514E+01 -0.27862960205E+02 -0.12994175469E+02  0.31247380544E+02  0.00000000000E+00 0.  1.
</event>
<event>
 4    1  0.1848744E+004  0.3858502E+02  0.7546771E-02  0.1356983E+00
         21   -1    0    0  503  502  0.00000000000E+00  0.00000000000E+00  0.13469843335E+03  0.13469843335E+03  0.00000000000E+00 0. -1.
         21   -1    0    0  501  503 -0.00000000000E+00 -0.00000000000E+00 -0.38405448371E+02  0.38405448371E+02  0.00000000000E+00 0.  1.
          2    1    1    2  501    0 -0.32691707672E+02  0.20495266531E+02 -0.24896668690E+02  0.45920015381E+02  0.00000000000E+00 0.  1.
         -2    1    1    2    0  502  0.32691707672E+02 -0.20495266531E+02  0.12118965367E+03  0.12718386634E+03  0.00000000000E+00 0. -1.
</event>
<event>
 4    1  0.1848744E+004  0.2351565E+02  0.7546771E-02  0.1486123E+00
         21   -1    0    0  503  502  0.00000000000E+00  0.00000000000E+00  0.32181931871E+02  0.32181931871E+02  0.00000000000E+00 0.  1.
         21   -1    0    0  501  503 -0.00000000000E+00 -0.00000000000E+00 -0.27764402303E+02  0.27764402303E+02  0.00000000000E+00 0. -1.
          2    1    1    2  501    0  0.16423281903E+02 -0.16830371687E+02 -0.16294905219E+02  0.28609605654E+02  0.00000000000E+00 0. -1.
         -2    1    1    2    0  502 -0.16423281903E+02  0.16830371687E+02  0.20712434787E+02  0.31336728521E+02  0.00000000000E+00 0.  1.
</event>
<event>
 4    1  0.1848744E+004  0.2155119E+02  0.7546771E-02  0.1511539E+00
         21   -1    0    0  501  502  0.00000000000E+00  0.00000000000E+00  0.65608393311E+02  0.65608393311E+02  0.00000000000E+00 0.  1.
         21   -1    0    0  502  503 -0.00000000000E+00 -0.00000000000E+00 -0.71730782655E+01  0.71730782655E+01  0.00000000000E+00 0. -1.
          2    1    1    2  501    0 -0.13217996224E+02  0.17021706188E+02  0.33381142174E+02  0.39733544501E+02  0.00000000000E+00 0. -1.
         -2    1    1    2    0  503  0.13217996224E+02 -0.17021706188E+02  0.25054172871E+02  0.33047927076E+02  0.00000000000E+00 0.  1.
</event>
<event>
 4    1  0.1848744E+004  0.4113441E+02  0.7546771E-02  0.1341963E+00
         21   -1    0    0  501  502  0.00000000000E+00  0.00000000000E+00  0.11100631748E+02  0.11100631748E+02  0.00000000000E+00 0.  1.
         21   -1    0    0  502  503 -0.00000000000E+00 -0.00000000000E+00 -0.29052135303E+03  0.29052135303E+03  0.00000000000E+00 0. -1.
          2    1    1    2  501    0  0.13247723722E+02 -0.38942743394E+02 -0.35734759569E+02  0.54488645499E+02  0.00000000000E+00 0.  1.
         -2    1    1    2    0  503 -0.13247723722E+02  0.38942743394E+02 -0.24368596172E+03  0.24713333928E+03  0.00000000000E+00 0. -1.
</event>
<event>
 4    1  0.1848744E+004  0.2409823E+02  0.7546771E-02  0.1479150E+00
         21   -1    0    0  501  502  0.00000000000E+00  0.00000000000E+00  0.47640533755E+02  0.47640533755E+02  0.00000000000E+00 0.  1.
         21   -1    0    0  502  503 -0.00000000000E+00 -0.00000000000E+00 -0.12347639245E+02  0.12347639245E+02  0.00000000000E+00 0. -1.
          2    1    1    2  501    0  0.20544238923E+02  0.12595990711E+02  0.14254398139E+02  0.27998439264E+02  0.00000000000E+00 0.  1.
         -2    1    1    2    0  503 -0.20544238923E+02 -0.12595990711E+02  0.21038496371E+02  0.31989733735E+02  0.00000000000E+00 0. -1.
</event>
<event>
 4    1  0.1848744E+004  0.2835985E+02  0.7546771E-02  0.1434406E+00
         21   -1    0    0  503  502  0.00000000000E+00  0.00000000000E+00  0.11485253403E+02  0.11485253403E+02  0.00000000000E+00 0. -1.
         21   -1    0    0  501  503 -0.00000000000E+00 -0.00000000000E+00 -0.12154820889E+03  0.12154820889E+03  0.00000000000E+00 0.  1.
          2    1    1    2  501    0 -0.26924319055E+02 -0.89085311378E+01 -0.98337522672E+02  0.10234524537E+03  0.00000000000E+00 0.  1.
         -2    1    1    2    0  502  0.26924319055E+02  0.89085311378E+01 -0.11725432818E+02  0.30688216930E+02  0.00000000000E+00 0. -1.
</event>
<event>
 4    1  0.1848744E+004  0.3421786E+02  0.7546771E-02  0.1386147E+00
         21   -1    0    0  501  502  0.00000000000E+00  0.00000000000E+00  0.13787268911E+02  0.13787268911E+02  0.00000000000E+00 0. -1.
         21   -1    0    0  502  503 -0.00000000000E+00 -0.00000000000E+00 -0.89747427191E+02  0.89747427191E+02  0.00000000000E+00 0.  1.
          2    1    1    2  501    0 -0.32204382561E+02  0.11564591687E+02 -0.25978210790E+02  0.42961953784E+02  0.00000000000E+00 0. -1.
         -2    1    1    2    0  503  0.32204382561E+02 -0.11564591687E+02 -0.49981947491E+02  0.60572742319E+02  0.00000000000E+00 0.  1.
</event>
<event>
 4    1  0.1848744E+004  0.2497335E+02  0.7546771E-02  0.1469102E+00
         21   -1    0    0  501  502  0.00000000000E+00  0.00000000000E+00  0.68478154740E+02  0.68478154740E+02  0.00000000000E+00 0.  1.
         21   -1    0    0  502  503 -0.00000000000E+00 -0.00000000000E+00 -0.11586650120E+02  0.11586650120E+02  0.00000000000E+00 0. -1.
          2    1    1    2  501    0 -0.51381532345E+01 -0.24439063302E+02  0.99283754666E+01  0.26874543218E+02  0.00000000000E+00 0. -1.
         -2    1    1    2    0  503  0.51381532345E+01  0.24439063302E+02  0.46963129154E+02  0.53190261643E+02  0.00000000000E+00 0.  1.
</event>
<event>
 4    1  0.1848744E+004  0.2152545E+02  0.7546771E-02  0.1511893E+00
         21   -1    0    0  501  502  0.00000000000E+00  0.00000000000E+00  0.33834706066E+01  0.33834706066E+01  0.00000000000E+00 0.  1.
         21   -1    0    0  502  503 -0.00000000000E+00 -0.00000000000E+00 -0.14331976295E+03  0.14331976295E+03  0.00000000000E+00 0. -1.
          2    1    1    2  501    0 -0.21402286701E+02 -0.22993552854E+01 -0.54496601254E+02  0.58593723716E+02  0.00000000000E+00 0. -1.
         -2    1    1    2    0  503  0.21402286701E+02  0.22993552854E+01 -0.85439691086E+02  0.88109509837E+02  0.00000000000E+00 0.  1.
</event>
<event>
 4    1  0.1848744E+004  0.2081894E+02  0.7546771E-02  0.1521866E+00
         21   -1    0    0  501  502  0.00000000000E+00  0.00000000000E+00  0.10620127639E+02  0.10620127639E+02  0.00000000000E+00 0. -1.
         21   -1    0    0  502  503 -0.00000000000E+00 -0.00000000000E+00 -0.41632773182E+02  0.41632773182E+02  0.00000000000E+00 0.  1.
          2    1    1    2  501    0 -0.65177273330E+01  0.19772391153E+02 -0.11837852765E+02  0.23949174925E+02  0.00000000000E+00 0.  1.
         -2    1    1    2    0  503  0.65177273330E+01 -0.19772391153E+02 -0.19174792778E+02  0.28303725896E+02  0.00000000000E+00 0. -1.
</event>
<event>
 4    1  0.1848744E+004  0.3896158E+02  0.7546771E-02  0.1354681E+00
         21   -1    0    0  501  502  0.00000000000E+00  0.00000000000E+00  0.79103298958E+01  0.79103298958E+01  0.00000000000E+00 0. -1.
         21   -1    0    0  502  503 -0.00000000000E+00 -0.00000000000E+00 -0.34813693946E+03  0.34813693946E+03  0.00000000000E+00 0.  1.
          2    1    1    2  501    0  0.21090633830E+02  0.32759573988E+02 -0.50853985741E+02  0.64063502784E+02  0.00000000000E+00 0. -1.
         -2    1    1    2    0  503 -0.21090633830E+02 -0.32759573988E+02 -0.28937262382E+03  0.29198376657E+03  0.00000000000E+00 0.  1.
</event>
<event>
 4    1  0.1848744E+004  0.3771078E+02  0.7546771E-02  0.1362449E+00
         21   -1    0    0  503  502  0.00000000000E+00  0.00000000000E+00  0.53913634039E+02  0.53913634039E+02  0.00000000000E+00 0.  1.
         21   -1    0    0  501  503 -0.00000000000E+00 -0.00000000000E+00 -0.40034262156E+02  0.40034262156E+02  0.00000000000E+00 0. -1.
          2    1    1    2  501    0  0.24058409876E+02 -0.29039552709E+02 -0.20496027197E+02  0.42920739022E+02  0.00000000000E+00 0. -1.
         -2    1    1    2    0  502 -0.24058409876E+02  0.29039552709E+02  0.34375399080E+02  0.51027157174E+02  0.00000000000E+00 0.  1.
</event>
<event>
 4    1  0.1848744E+004  0.2238610E+02  0.7546771E-02  0.1500354E+00
         21   -1    0    0  501  502  0.00000000000E+00  0.00000000000E+00  0.23737293343E+02  0.23737293343E+02  0.00000000000E+00 0. -1.
         21   -1    0    0  502  503 -0.00000000000E+00 -0.00000000000E+00 -0.61910346860E+02  0.61910346860E+02  0.00000000000E+00 0.  1.
          2    1    1    2  501    0 -0.20697696361E+02  0.85289331921E+01  0.15677178339E+02  0.27329677216E+02  0.00000000000E+00 0. -1.
         -2    1    1    2    0  503  0.20697696361E+02 -0.85289331921E+01 -0.53850231856E+02  0.58317962987E+02  0.00000000000E+00 0.  1.
</event>
<event>
 4    1  0.1848744E+004  0.3031971E+02  0.7546771E-02  0.1416838E+00
         21   -1    0    0  501  502  0.00000000000E+00  0.00000000000E+00  0.65018202760E+02  0.65018202760E+02  0.00000000000E+00 0.  1.
         21   -1    0    0  502  503 -0.00000000000E+00 -0.00000000000E+00 -0.17802420209E+02  0.17802420209E+02  0.00000000000E+00 0. -1.
          2    1    1    2  501    0  0.18989184776E+02 -0.23636745749E+02  0.48225468780E+01  0.30700844393E+02  0.00000000000E+00 0. -1.
         -2    1    1    2    0  503 -0.18989184776E+02  0.23636745749E+02  0.42393235673E+02  0.52119778576E+02  0.00000000000E+00 0.  1.
</event>
<event>
 4    1  0.1848744E+004  0.3157832E+02  0.7546771E-02  0.1406359E+00
         21   -1    0    0  501  502  0.00000000000E+00  0.00000000000E+00  0.33205150167E+03  0.33205150167E+03  0.00000000000E+00 0. -1.
         21   -1    0    0  502  503 -0.00000000000E+00 -0.00000000000E+00 -0.38345996037E+02  0.38345996037E+02  0.00000000000E+00 0.  1.
          2    1    1    2  501    0  0.72494379341E+01  0.30734927832E+02  0.32465161908E+03  0.32618378855E+03  0.00000000000E+00 0. -1.
         -2    1    1    2    0  503 -0.72494379341E+01 -0.30734927832E+02 -0.30946113454E+02  0.44213709154E+02  0.00000000000E+00 0.  1.
</event>
<event>
 4    1  0.1848744E+004  0.2551603E+02  0.7546771E-02  0.1463113E+00
         21   -1    0    0  501  502  0.00000000000E+00  0.00000000000E+00  0.18720790038E+02  0.18720790038E+02  0.00000000000E+00 0.  1.
         21   -1    0    0  502  503 -0.00000000000E+00 -0.00000000000E+00 -0.36901241502E+02  0.36901241502E+02  0.00000000000E+00 0. -1.
          2    1    1    2  501    0 -0.16560404257E+02  0.19411866485E+02 -0.24188041987E+01  0.25630414810E+02  0.00000000000E+00 0.  1.
         -2    1    1    2    0  503  0.16560404257E+02 -0.19411866485E+02 -0.15761647265E+02  0.29991616730E+02  0.00000000000E+00 0. -1.
</event>
<event>
 4    1  0.1848744E+004  0.2983313E+02  0.7546771E-02  0.1421052E+00
         21   -1    0    0  501  502  0.00000000000E+00  0.00000000000E+00  0.13667817315E+03  0.13667817315E+03  0.00000000000E+00 0. -1.
         21   -1    0    0  502  503 -0.00000000000E+00 -0.00000000000E+00 -0.10155480873E+02  0.10155480873E+02  0.00000000000E+00 0.  1.
          2    1    1    2  501    0  0.25775368469E+02  0.15021515682E+02  0.10723756391E+03  0.11130997559E+03  0.00000000000E+00 0. -1.
         -2    1    1    2    0  503 -0.25775368469E+02 -0.15021515682E+02  0.19285128367E+02  0.35523678431E+02  0.00000000000E+00 0.  1.
</event>
<event>
 4    1  0.1848744E+004  0.2756715E+02  0.7546771E-02  0.1441993E+00
         21   -1    0    0  503  502  0.00000000000E+00  0.00000000000E+00  0.49339846407E+02  0.49339846407E+02  0.00000000000E+00 0.  1.
         21   -1    0    0  501  503 -0.00000000000E+00 -0.00000000000E+00 -0.23411348056E+02  0.23411348056E+02  0.00000000000E+00 0. -1.
          2    1    1    2  501    0 -0.30115599661E+01 -0.27402158698E+02 -0.83116046877E+01  0.28792890915E+02  0.00000000000E+00 0. -1.
         -2    1    1    2    0  502  0.30115599661E+01  0.27402158698E+02  0.34240103038E+02  0.43958303548E+02  0.00000000000E+00 0.  1.
</event>
<event>
 4    1  0.1848744E+004  0.2113425E+02  0.7546771E-02  0.1517357E+00
         21   -1    0    0  501  502  0.00000000000E+00  0.00000000000E+00  0.58887145077E+01  0.58887145077E+01  0.00000000000E+00 0.  1.
         21   -1    0    0  502  503 -0.00000000000E+00 -0.00000000000E+00 -0.82328458365E+02  0.82328458365E+02  0.00000000000E+00 0. -1.
          2    1    1    2  501    0  0.20947335993E+02  0.28045780244E+01 -0.25846218649E+02  0.33386877086E+02  0.00000000000E+00 0.  1.
         -2    1    1    2    0  503 -0.20947335993E+02 -0.28045780244E+01 -0.50593525208E+02  0.54830295787E+02  0.00000000000E+00 0. -1.
</event>
<event>
 4    1  0.1848744E+004  0.2273698E+02  0.7546771E-02  0.1495828E+00
         21   -1    0    0  503  502  0.00000000000E+00  0.00000000000E+00  0.14833059624E+03  0.14833059624E+03  0.00000000000E+00 0. -1.
         21   -1    0    0  501  503 -0.00000000000E+00 -0.00000000000E+00 -0.50268643171E+01  0.50268643171E+01  0.00000000000E+00 0.  1.
          2    1    1    2  501    0  0.27256137378E+01  0.22573022935E+02  0.29188625675E+02  0.36999273013E+02  0.00000000000E+00 0.  1.
         -2    1    1    2    0  502 -0.27256137378E+01 -0.22573022935E+02  0.11411510624E+03  0.11635818754E+03  0.00000000000E+00 0. -1.
</event>
<event>
 4    1  0.1848744E+004  0.3959204E+02  0.7546771E-02  0.1350893E+00
         21   -1    0    0  501  502  0.00000000000E+00  0.00000000000E+00  0.53193641990E+02  0.53193641990E+02  0.00000000000E+00 0.  1.
         21   -1    0    0  502  503 -0.00000000000E+00 -0.00000000000E+00 -0.51553156221E+03  0.51553156221E+03  0.00000000000E+00 0. -1.
          2    1    1    2  501    0 -0.20727216639E+02 -0.33732947712E+02  0.44946817172E+02  0.59897793322E+02  0.00000000000E+00 0.  1.
         -2    1    1    2    0  503  0.20727216639E+02  0.33732947712E+02 -0.50728473739E+03  0.50882741088E+03  0.00000000000E+00 0. -1.
</event>
<event>
 4    1  0.1848744E+004  0.2121214E+02  0.7546771E-02  0.1516257E+00
         21   -1    0    0  503  502  0.00000000000E+00  0.00000000000E+00  0.19270095457E+02  0.19270095457E+02  0.00000000000E+00 0. -1.
         21   -1    0    0  501  503 -0.00000000000E+00 -0.00000000000E+00 -0.18601842061E+03  0.18601842061E+03  0.00000000000E+00 0.  1.
          2    1    1    2  501    0  0.10197233120E+02  0.18600306587E+02 -0.17936028117E+03  0.18061025837E+03  0.00000000000E+00 0.  1.
         -2    1    1    2    0  502 -0.10197233120E+02 -0.18600306587E+02  0.12611956014E+02  0.24678257697E+02  0.00000000000E+00 0. -1.
</event>
<event>
 4    1  0.1848744E+004  0.4393788E+02  0.7546771E-02  0.1326836E+00
         21   -1    0    0  501  502  0.00000000000E+00  0.00000000000E+00  0.50250769847E+03  0.50250769847E+03  0.00000000000E+00 0.  1.
         21   -1    0    0  502  503 -0.00000000000E+00 -0.00000000000E+00 -0.72612043161E+01  0.72612043161E+01  0.00000000000E+00 0. -1.
          2    1    1    2  501    0 -0.18096308878E+02 -0.40038239867E+02  0.42253293584E+03  0.42481127447E+03  0.00000000000E+00 0.  1.
         -2    1    1    2    0  503  0.18096308878E+02  0.40038239867E+02  0.72713558315E+02  0.84957628318E+02  0.00000000000E+00 0. -1.
</event>
<event>
 4    1  0.1848744E+004  0.2485384E+02  0.7546771E-02  0.1470445E+00
         21   -1    0    0  503  502  0.00000000000E+00  0.00000000000E+00  0.34939618118E+02  0.34939618118E+02  0.00000000000E+00 0.  1.
         21   -1    0    0  501  503 -0.00000000000E+00 -0.00000000000E+00 -0.18465732157E+02  0.18465732157E+02  0.00000000000E+00 0. -1.
          2    1    1    2  501    0 -0.13090841710E+01  0.24819343344E+02  0.27268547627E+01  0.25002984667E+02  0.00000000000E+00 0.  1.
         -2    1    1    2    0  502  0.13090841710E+01 -0.24819343344E+02  0.13747031198E+02  0.28402365608E+02  0.00000000000E+00 0. -1.
</event>
<event>
 4    1  0.1848744E+004  0.2881896E+02  0.7546771E-02  0.1430145E+00
         21   -1    0    0  503  502  0.00000000000E+00  0.00000000000E+00  0.91103539555E+02  0.91103539555E+02  0.00000000000E+00 0.  1.
         21   -1    0    0  501  503 -0.00000000000E+00 -0.00000000000E+00 -0.96494843015E+01  0.96494843015E+01  0.00000000000E+00 0. -1.
          2    1    1    2  501    0 -0.16610351104E+02 -0.23550556662E+02  0.28885953754E+02  0.40803563658E+02  0.00000000000E+00 0.  1.
         -2    1    1    2    0  502  0.16610351104E+02  0.23550556662E+02  0.52568101499E+02  0.59949460199E+02  0.00000000000E+00 0. -1.
</event>
<event>
 4    1  0.1848744E+004  0.2215458E+02  0.7546771E-02  0.1503396E+00
         21   -1    0    0  501  502  0.00000000000E+00  0.00000000000E+00  0.15021107774E+02  0.15021107774E+02  0.00000000000E+00 0.  1.
         21   -1    0    0  502  503 -0.00000000000E+00 -0.00000000000E+00 -0.74673415619E+02  0.74673415619E+02  0.00000000000E+00 0. -1.
          2    1    1    2  501    0  0.17099060090E+02 -0.14087144477E+02  0.38068500750E+01  0.22479270516E+02  0.00000000000E+00 0.  1.
         -2    1    1    2    0  503 -0.17099060090E+02  0.14087144477E+02 -0.63459157920E+02  0.67215252877E+02  0.00000000000E+00 0. -1.
</event>
<event>
 4    1  0.1848744E+004  0.2600777E+02  0.7546771E-02  0.1457838E+00
         21   -1    0    0  501  502  0.00000000000E+00  0.00000000000E+00  0.45958362989E+03  0.45958362989E+03  0.00000000000E+00 0.  1.
         21   -1    0    0  502  503 -0.00000000000E+00 -0.00000000000E+00 -0.14800352734E+01  0.14800352734E+01  0.00000000000E+00 0. -1.
          2    1    1    2  501    0 -0.10627745014E+02 -0.23737209268E+02  0.24627329267E+03  0.24764276438E+03  0.00000000000E+00 0.  1.
         -2    1    1    2    0  503  0.10627745014E+02  0.23737209268E+02  0.21183030195E+03  0.21342090078E+03  0.00000000000E+00 0. -1.
</event>
<event>
 4    1  0.1848744E+004  0.2274817E+02  0.7546771E-02  0.1495685E+00
         21   -1    0    0  503  502  0.00000000000E+00  0.00000000000E+00  0.10318619792E+04  0.10318619792E+04  0.00000000000E+00 0.  1.
         21   -1    0    0  501  503 -0.00000000000E+00 -0.00000000000E+00 -0.75963256727E+00  0.75963256727E+00  0.00000000000E+00 0. -1.
          2    1    1    2  501    0 -0.91490963372E+00 -0.22729768225E+02  0.21457625536E+03  0.21577870327E+03  0.00000000000E+00 0. -1.
         -2    1    1    2    0  502  0.91490963372E+00  0.22729768225E+02  0.81652609128E+03  0.81684290849E+03  0.00000000000E+00 0.  1.
</event>
<event>
 4    1  0.1848744E+004  0.2022880E+02  0.7546771E-02  0.1530566E+00
         21   -1    0    0  503  502  0.00000000000E+00  0.00000000000E+00  0.39250123530E+02  0.39250123530E+02  0.00000000000E+00 0.  1.
         21   -1    0    0  501  503 -0.00000000000E+00 -0.00000000000E+00 -0.34054056911E+02  0.34054056911E+02  0.00000000000E+00 0. -1.
          2    1    1    2  501    0 -0.19287273764E+02 -0.60996315575E+01 -0.27932359041E+02  0.34487985096E+02  0.00000000000E+00 0. -1.
         -2    1    1    2    0  502  0.19287273764E+02  0.60996315575E+01  0.33128425659E+02  0.38816195345E+02  0.00000000000E+00 0.  1.
</event>
<event>
 4    1  0.1848744E+004  0.2893012E+02  0.7546771E-02  0.1429127E+00
         21   -1    0    0  503  502  0.00000000000E+00  0.00000000000E+00  0.29894192040E+01  0.29894192040E+01  0.00000000000E+00 0.  1.
         21   -1    0    0  501  503 -0.00000000000E+00 -0.00000000000E+00 -0.36893665933E+03  0.36893665933E+03  0.00000000000E+00 0. -1.
          2    1    1    2  501    0 -0.13246490339E+02  0.25719301778E+02 -0.27429256060E+03  0.27581399672E+03  0.00000000000E+00 0. -1.
         -2    1    1    2    0  502  0.13246490339E+02 -0.25719301778E+02 -0.91654679534E+02  0.96112081815E+02  0.00000000000E+00 0.  1.
</event>
<event>
 4    1  0.1848744E+004  0.2403494E+02  0.7546771E-02  0.1479896E+00
         21   -1    0    0  501  502  0.00000000000E+00  0.00000000000E+00  0.34323845543E+03  0.34323845543E+03  0.00000000000E+00 0.  1.
         21   -1    0    0  502  503 -0.00000000000E+00 -0.00000000000E+00 -0.20600891011E+01  0.20600891011E+01  0.00000000000E+00 0. -1.
          2    1    1    2  501    0  0.51080541774E+01  0.23485873916E+02  0.24445270851E+03  0.24563144178E+03  0.00000000000E+00 0.  1.
         -2    1    1    2    0  503 -0.51080541774E+01 -0.23485873916E+02  0.96725657820E+02  0.99667102756E+02  0.00000000000E+00 0. -1.
</event>
<event>
 4    1  0.1848744E+004  0.2069720E+02  0.7546771E-02  0.1523632E+00
         21   -1    0    0  503  502  0.00000000000E+00  0.00000000000E+00  0.14384561584E+04  0.14384561584E+04  0.00000000000E+00 0.  1.
         21   -1    0    0  501  503 -0.00000000000E+00 -0.00000000000E+00 -0.83521766935E+00  0.83521766935E+00  0.00000000000E+00 0. -1.
          2    1    1    2  501    0 -0.21259365519E+01  0.20587726196E+02  0.14154663998E+03  0.14305182755E+03  0.00000000000E+00 0. -1.
         -2    1    1    2    0  502  0.21259365519E+01 -0.20587726196E+02  0.12960743007E+04  0.12962395485E+04  0.00000000000E+00 0.  1.
</event>
<event>
 4    1  0.1848744E+004  0.2057780E+02  0.7546771E-02  0.1525379E+00
         21   -1    0    0  501  502  0.00000000000E+00  0.00000000000E+00  0.27584783301E+02  0.27584783301E+02  0.00000000000E+00 0. -1.
         21   -1    0    0  502  503 -0.00000000000E+00 -0.00000000000E+00 -0.19761998308E+02  0.19761998308E+02  0.00000000000E+00 0.  1.
          2    1    1    2  501    0  0.99845119166E+00 -0.20553558867E+02  0.15096195380E+02  0.25521379309E+02  0.00000000000E+00 0. -1.
         -2    1    1    2    0  503 -0.99845119166E+00  0.20553558867E+02 -0.72734103866E+01  0.21825402300E+02  0.00000000000E+00 0.  1.
</event>
<event>
 4    1  0.1848744E+004  0.4570383E+02  0.7546771E-02  0.1317957E+00
         21   -1    0    0  501  502  0.00000000000E+00  0.00000000000E+00  0.88177178552E+01  0.88177178552E+01  0.00000000000E+00 0.  1.
         21   -1    0    0  502  503 -0.00000000000E+00 -0.00000000000E+00 -0.55813119419E+03  0.55813119419E+03  0.00000000000E+00 0. -1.
          2    1    1    2  501    0 -0.45352701722E+02  0.56544487882E+01 -0.59596291881E+02  0.75103650714E+02  0.00000000000E+00 0.  1.
         -2    1    1    2    0  503  0.45352701722E+02 -0.56544487882E+01 -0.48971718446E+03  0.49184526133E+03  0.00000000000E+00 0. -1.
</event>
<event>
 4    1  0.1848744E+004  0.2187220E+02  0.7546771E-02  0.1507167E+00
         21   -1    0    0  503  502  0.00000000000E+00  0.00000000000E+00  0.14942342976E+03  0.14942342976E+03  0.00000000000E+00 0. -1.
         21   -1    0    0  501  503 -0.00000000000E+00 -0.00000000000E+00 -0.50610325408E+01  0.50610325408E+01  0.00000000000E+00 0.  1.
          2    1    1    2  501    0 -0.21697106669E+02 -0.27620176846E+01  0.25361766565E+02  0.33490481973E+02  0.00000000000E+00 0.  1.
         -2    1    1    2    0  502  0.21697106669E+02  0.27620176846E+01  0.11900063065E+03  0.12099398032E+03  0.00000000000E+00 0. -1.
</event>
<event>
 4    1  0.1848744E+004  0.2321008E+02  0.7546771E-02  0.1489877E+00
         21   -1    0    0  503  502  0.00000000000E+00  0.00000000000E+00  0.39391432139E+03  0.39391432139E+03  0.00000000000E+00 0.  1.
         21   -1    0    0  501  503 -0.00000000000E+00 -0.00000000000E+00 -0.47627114935E+01  0.47627114935E+01  0.00000000000E+00 0. -1.
          2    1    1    2  501    0  0.23986380511E+01  0.23085799430E+02  0.26272490831E+02  0.35056402757E+02  0.00000000000E+00 0. -1.
         -2    1    1    2    0  502 -0.23986380511E+01 -0.23085799430E+02  0.36287911907E+03  0.36362063013E+03  0.00000000000E+00 0.  1.
</event>
<event>
 4    1  0.1848744E+004  0.2547884E+02  0.7546771E-02  0.1463517E+00
         21   -1    0    0  501  502  0.00000000000E+00  0.00000000000E+00  0.33664072526E+02  0.33664072526E+02  0.00000000000E+00 0. -1.
         21   -1    0    0  502  503 -0.00000000000E+00 -0.00000000000E+00 -0.24016740112E+02  0.24016740112E+02  0.00000000000E+00 0.  1.
          2    1    1    2  501    0  0.24824961453E+02 -0.57352001462E+01  0.17626610725E+02  0.30981746844E+02  0.00000000000E+00 0. -1.
         -2    1    1    2    0  503 -0.24824961453E+02  0.57352001462E+01 -0.79792783106E+01  0.26699065793E+02  0.00000000000E+00 0.  1.
</event>
<event>
 4    1  0.1848744E+004  0.3252337E+02  0.7546771E-02  0.1398864E+00
         21   -1    0    0  503  502  0.00000000000E+00  0.00000000000E+00  0.18525583948E+02  0.18525583948E+02  0.00000000000E+00 0. -1.
         21   -1    0    0  501  503 -0.00000000000E+00 -0.00000000000E+00 -0.59156120590E+02  0.59156120590E+02  0.00000000000E+00 0.  1.
          2    1    1    2  501    0 -0.91255761674E+01  0.31216878823E+02 -0.27560425770E+02  0.42630349898E+02  0.00000000000E+00 0. -1.
         -2    1    1    2    0  502  0.91255761674E+01 -0.31216878823E+02 -0.13070110873E+02  0.35051354640E+02  0.00000000000E+00 0.  1.
</event>
<event>
 4    1  0.1848744E+004  0.2508662E+02  0.7546771E-02  0.1467837E+00
         21   -1    0    0  503  502  0.00000000000E+00  0.00000000000E+00  0.55459084559E+02  0.55459084559E+02  0.00000000000E+00 0. -1.
         21   -1    0    0  501  503 -0.00000000000E+00 -0.00000000000E+00 -0.11357308371E+02  0.11357308371E+02  0.00000000000E+00 0.  1.
          2    1    1    2  501    0 -0.20787146685E+02 -0.14043974436E+02  0.21084318415E+02  0.32770217703E+02  0.00000000000E+00 0.  1.
         -2    1    1    2    0  502  0.20787146685E+02  0.14043974436E+02  0.23017457773E+02  0.34046175227E+02  0.00000000000E+00 0. -1.
</event>
<event>
 4    1  0.1848744E+004  0.3652883E+02  0.7546771E-02  0.1370122E+00
         21   -1    0    0  503  502  0.00000000000E+00  0.00000000000E+00  0.87444348216E+03  0.87444348216E+03  0.00000000000E+00 0. -1.
         21   -1    0    0  501  503 -0.00000000000E+00 -0.00000000000E+00 -0.12758208634E+02  0.12758208634E+02  0.00000000000E+00 0.  1.
          2    1    1    2  501    0 -0.11128323962E+02  0.34792468035E+02  0.14614822709E+02  0.39343976274E+02  0.00000000000E+00 0.  1.
         -2    1    1    2    0  502  0.11128323962E+02 -0.34792468035E+02  0.84707045081E+03  0.84785771452E+03  0.00000000000E+00 0. -1.
</event>
<event>
 4    1  0.1848744E+004  0.2431443E+02  0.7546771E-02  0.1476621E+00
         21   -1    0    0  503  502  0.00000000000E+00  0.00000000000E+00  0.20045273811E+01  0.20045273811E+01  0.00000000000E+00 0. -1.
         21   -1    0    0  501  503 -0.00000000000E+00 -0.00000000000E+00 -0.48834957497E+03  0.48834957497E+03  0.00000000000E+00 0.  1.
          2    1    1    2  501    0 -0.24304587587E+02 -0.69178712380E+00 -0.39747279959E+03  0.39821579321E+03  0.00000000000E+00 0.  1.
         -2    1    1    2    0  502  0.24304587587E+02  0.69178712380E+00 -0.88872247999E+02  0.92138309142E+02  0.00000000000E+00 0. -1.
</event>
<event>
 4    1  0.1848744E+004  0.2216071E+02  0.7546771E-02  0.1503315E+00
         21   -1    0    0  501  502  0.00000000000E+00  0.00000000000E+00  0.16376653950E+03  0.16376653950E+03  0.00000000000E+00 0. -1.
         21   -1    0    0  502  503 -0.00000000000E+00 -0.00000000000E+00 -0.57161646053E+01  0.57161646053E+01  0.00000000000E+00 0.  1.
          2    1    1    2  501    0 -0.49213554269E+01  0.21607345666E+02  0.13745303631E+03  0.13922799401E+03  0.00000000000E+00 0. -1.
         -2    1    1    2    0  503  0.49213554269E+01 -0.21607345666E+02  0.20597338583E+02  0.30254710091E+02  0.00000000000E+00 0.  1.
</event>
<event>
 4    1  0.1848744E+004  0.2617532E+02  0.7546771E-02  0.1456073E+00
         21   -1    0    0  501  502  0.00000000000E+00  0.00000000000E+00  0.25387203094E+02  0.25387203094E+02  0.00000000000E+00 0. -1.
         21   -1    0    0  502  503 -0.00000000000E+00 -0.00000000000E+00 -0.57550346253E+02  0.57550346253E+02  0.00000000000E+00 0.  1.
          2    1    1    2  501    0 -0.18092604787E+02 -0.18915734218E+02  0.14138206774E+02  0.29749558648E+02  0.00000000000E+00 0. -1.
         -2    1    1    2    0  503  0.18092604787E+02  0.18915734218E+02 -0.46301349933E+02  0.53187990699E+02  0.00000000000E+00 0.  1.
</event>
<event>
 4    1  0.1848744E+004  0.3038111E+02  0.7546771E-02  0.1416313E+00
         21   -1    0    0  501  502  0.00000000000E+00  0.00000000000E+00  0.10110761175E+03  0.10110761175E+03  0.00000000000E+00 0.  1.
         21   -1    0    0  502  503 -0.00000000000E+00 -0.00000000000E+00 -0.39761335253E+02  0.39761335253E+02  0.00000000000E+00 0. -1.
          2    1    1    2  501    0 -0.12250474477E+02 -0.27801752258E+02  0.92495392095E+02  0.97357121529E+02  0.00000000000E+00 0.  1.
         -2    1    1    2    0  503  0.12250474477E+02  0.27801752258E+02 -0.31149115598E+02  0.43511825474E+02  0.00000000000E+00 0. -1.
</event>
<event>
 4    1  0.1848744E+004  0.3003802E+02  0.7546771E-02  0.1419266E+00
         21   -1    0    0  503  502  0.00000000000E+00  0.00000000000E+00  0.21824083050E+03  0.21824083050E+03  0.00000000000E+00 0.  1.
         21   -1    0    0  501  503 -0.00000000000E+00 -0.00000000000E+00 -0.55671477068E+01  0.55671477068E+01  0.00000000000E+00 0. -1.
          2    1    1    2  501    0  0.29567498349E+02 -0.52958084400E+01  0.49566353123E+02  0.57957794192E+02  0.00000000000E+00 0. -1.
         -2    1    1    2    0  502 -0.29567498349E+02  0.52958084400E+01  0.16310732967E+03  0.16585018401E+03  0.00000000000E+00 0.  1.
</event>
<event>
 4    1  0.1848744E+004  0.3342647E+02  0.7546771E-02  0.1391976E+00
         21   -1    0    0  501  502  0.00000000000E+00  0.00000000000E+00  0.95105935414E+02  0.95105935414E+02  0.00000000000E+00 0. -1.
         21   -1    0    0  502  503 -0.00000000000E+00 -0.00000000000E+00 -0.14987404073E+02  0.14987404073E+02  0.00000000000E+00 0.  1.
          2    1    1    2  501    0  0.27213822760E+02  0.19409706456E+02  0.14468501285E+02  0.36423431789E+02  0.00000000000E+00 0.  1.
         -2    1    1    2    0  503 -0.27213822760E+02 -0.19409706456E+02  0.65650030056E+02  0.73669907698E+02  0.00000000000E+00 0. -1.
</event>
<event>
 4    1  0.1848744E+004  0.2307041E+02  0.7546771E-02  0.1491616E+00
         21   -1    0    0  501  502  0.00000000000E+00  0.00000000000E+00  0.14778612847E+02  0.14778612847E+02  0.00000000000E+00 0.  1.
         21   -1    0    0  502  503 -0.00000000000E+00 -0.00000000000E+00 -0.38390569007E+02  0.38390569007E+02  0.00000000000E+00 0. -1.
          2    1    1    2  501    0 -0.15248458583E+02 -0.17312663812E+02 -0.51921859624E+01  0.23647465245E+02  0.00000000000E+00 0. -1.
         -2    1    1    2    0  503  0.15248458583E+02  0.17312663812E+02 -0.18419770198E+02  0.29521716609E+02  0.00000000000E+00 0.  1.
</event>
<event>
 4    1  0.1848744E+004  0.4989278E+02  0.7546771E-02  0.1298638E+00
         21   -1    0    0  503  502  0.00000000000E+00  0.00000000000E+00  0.23297892096E+02  0.23297892096E+02  0.00000000000E+00 0. -1.
         21   -1    0    0  501  503 -0.00000000000E+00 -0.00000000000E+00 -0.10930096077E+03  0.10930096077E+03  0.00000000000E+00 0.  1.
          2    1    1    2  501    0  0.25310115992E+02  0.42996368880E+02 -0.33065612229E+02  0.59855028364E+02  0.00000000000E+00 0. -1.
         -2    1    1    2    0  502 -0.25310115992E+02 -0.42996368880E+02 -0.52937456449E+02  0.72743824505E+02  0.00000000000E+00 0.  1.
</event>
<event>
 4    1  0.1848744E+004  0.2040818E+02  0.7546771E-02  0.1527885E+00
         21   -1    0    0  501  502  0.00000000000E+00  0.00000000000E+00  0.21978669563E+02  0.21978669563E+02  0.00000000000E+00 0.  1.
         21   -1    0    0  502  503 -0.00000000000E+00 -0.00000000000E+00 -0.22442316064E+02  0.22442316064E+02  0.00000000000E+00 0. -1.
          2    1    1    2  501    0  0.49543374176E+01 -0.19797687902E+02  0.85298379303E+01  0.22119042489E+02  0.00000000000E+00 0.  1.
         -2    1    1    2    0  503 -0.49543374176E+01  0.19797687902E+02 -0.89934844315E+01  0.22301943138E+02  0.00000000000E+00 0. -1.
</event>
<event>
 4    1  0.1848744E+004  0.2256013E+02  0.7546771E-02  0.1498097E+00
         21   -1    0    0  501  502  0.00000000000E+00  0.00000000000E+00  0.18256059732E+02  0.18256059732E+02  0.00000000000E+00 0.  1.
         21   -1    0    0  502  503 -0.00000000000E+00 -0.00000000000E+00 -0.51451152283E+02  0.51451152283E+02  0.00000000000E+00 0. -1.
          2    1    1    2  501    0 -0.10725242560E+02 -0.19847634997E+02  0.69936743814E+01  0.23619291359E+02  0.00000000000E+00 0.  1.
         -2    1    1    2    0  503  0.10725242560E+02  0.19847634997E+02 -0.40188766932E+02  0.46087920657E+02  0.00000000000E+00 0. -1.
</event>
<event>
 4    1  0.1848744E+004  0.2413620E+02  0.7546771E-02  0.1478703E+00
         21   -1    0    0  503  502  0.00000000000E+00  0.00000000000E+00  0.18260719288E+03  0.18260719288E+03  0.00000000000E+00 0. -1.
         21   -1    0    0  501  503 -0.00000000000E+00 -0.00000000000E+00 -0.14272651077E+02  0.14272651077E+02  0.00000000000E+00 0.  1.
          2    1    1    2  501    0 -0.21677824037E+02 -0.10612644107E+02 -0.25761503267E+01  0.24273294388E+02  0.00000000000E+00 0.  1.
         -2    1    1    2    0  502  0.21677824037E+02  0.10612644107E+02  0.17091069213E+03  0.17260654957E+03  0.00000000000E+00 0. -1.
</event>
<event>
 4    1  0.1848744E+004  0.3514428E+02  0.7546771E-02  0.1379552E+00
         21   -1    0    0  503  502  0.00000000000E+00  0.00000000000E+00  0.55180334243E+02  0.55180334243E+02  0.00000000000E+00 0.  1.
         21   -1    0    0  501  503 -0.00000000000E+00 -0.00000000000E+00 -0.23643026307E+02  0.23643026307E+02  0.00000000000E+00 0. -1.
          2    1    1    2  501    0 -0.28923569330E+02  0.19963655388E+02  0.24865774439E+02  0.43051447568E+02  0.00000000000E+00 0.  1.
         -2    1    1    2    0  502  0.28923569330E+02 -0.19963655388E+02  0.66715334970E+01  0.35771912983E+02  0.00000000000E+00 0. -1.
</event>
<event>
 4    1  0.1848744E+004  0.2413965E+02  0.7546771E-02  0.1478663E+00
         21   -1    0    0  501  502  0.00000000000E+00  0.00000000000E+00  0.96642325775E+01  0.96642325775E+01  0.00000000000E+00 0.  1.
         21   -1    0    0  502  503 -0.00000000000E+00 -0.00000000000E+00 -0.17961951943E+03  0.17961951943E+03  0.00000000000E+00 0. -1.
          2    1    1    2  501    0 -0.62437074593E+01 -0.23318205855E+02 -0.78396942116E+01  0.25380768556E+02  0.00000000000E+00 0.  1.
         -2    1    1    2    0  503  0.62437074593E+01  0.23318205855E+02 -0.16211559264E+03  0.16390298346E+03  0.00000000000E+00 0. -1.
</event>
<event>
 4    1  0.1848744E+004  0.2217077E+02  0.7546771E-02  0.1503182E+00
         21   -1    0    0  501  502  0.00000000000E+00  0.00000000000E+00  0.26035760552E+01  0.26035760552E+01  0.00000000000E+00 0. -1.
         21   -1    0    0  502  503 -0.00000000000E+00 -0.00000000000E+00 -0.43707134363E+03  0.43707134363E+03  0.00000000000E+00 0.  1.
          2    1    1    2  501    0 -0.13961321632E+02  0.17222796450E+02 -0.51545203404E+02  0.56111061416E+02  0.00000000000E+00 0. -1.
         -2    1    1    2    0  503  0.13961321632E+02 -0.17222796450E+02 -0.38292256417E+03  0.38356385827E+03  0.00000000000E+00 0.  1.
</event>
<event>
 4    1  0.1848744E+004  0.2528858E+02  0.7546771E-02  0.1465601E+00
         21   -1    0    0  501  502  0.00000000000E+00  0.00000000000E+00  0.97671665182E+02  0.97671665182E+02  0.00000000000E+00 0. -1.
         21   -1    0    0  502  503 -0.00000000000E+00 -0.00000000000E+00 -0.76000154655E+01  0.76000154655E+01  0.00000000000E+00 0.  1.
          2    1    1    2  501    0  0.12906413664E+02  0.21747106808E+02  0.64623094635E+02  0.69394931576E+02  0.00000000000E+00 0. -1.
         -2    1    1    2    0  503 -0.12906413664E+02 -0.21747106808E+02  0.25448555081E+02  0.35876749071E+02  0.00000000000E+00 0.  1.
</event>
<event>
 4    1  0.1848744E+004  0.2955708E+02  0.7546771E-02  0.1423485E+00
         21   -1    0    0  501  502  0.00000000000E+00  0.00000000000E+00  0.36771114606E+02  0.36771114606E+02  0.00000000000E+00 0.  1.
         21   -1    0    0  502  503 -0.00000000000E+00 -0.00000000000E+00 -0.18105572807E+03  0.18105572807E+03  0.00000000000E+00 0. -1.
          2    1    1    2  501    0  0.35109686302E+01 -0.29347812439E+02  0.29374046609E+02  0.41670800446E+02  0.00000000000E+00 0.  1.
         -2    1    1    2    0  503 -0.35109686302E+01  0.29347812439E+02 -0.17365866007E+03  0.17615604223E+03  0.00000000000E+00 0. -1.
</event>
<event>
 4    1  0.1848744E+004  0.2167850E+02  0.7546771E-02  0.1509794E+00
         21   -1    0    0  503  502  0.00000000000E+00  0.00000000000E+00  0.30178603656E+02  0.30178603656E+02  0.00000000000E+00 0. -1.
         21   -1    0    0  501  503 -0.00000000000E+00 -0.00000000000E+00 -0.19634181931E+02  0.19634181931E+02  0.00000000000E+00 0.  1.
          2    1    1    2  501    0  0.21678497941E+02  0.38567399317E-03 -0.60558524798E+01  0.22508456686E+02  0.00000000000E+00 0.  1.
         -2    1    1    2    0  502 -0.21678497941E+02 -0.38567399317E-03  0.16600274205E+02  0.27304328902E+02  0.00000000000E+00 0. -1.
</event>
<event>
 4    1  0.1848744E+004  0.2999507E+02  0.7546771E-02  0.1419639E+00
         21   -1    0    0  503  502  0.00000000000E+00  0.00000000000E+00  0.21106553502E+04  0.21106553502E+04  0.00000000000E+00 0.  1.
         21   -1    0    0  501  503 -0.00000000000E+00 -0.00000000000E+00 -0.51981149018E+00  0.51981149018E+00  0.00000000000E+00 0. -1.
          2    1    1    2  501    0  0.11021006786E+02 -0.27896981791E+02  0.60727318640E+03  0.60801350898E+03  0.00000000000E+00 0.  1.
         -2    1    1    2    0  502 -0.11021006786E+02  0.27896981791E+02  0.15028623523E+04  0.15031616527E+04  0.00000000000E+00 0. -1.
</event>
<event>
 4    1  0.1848744E+004  0.2701221E+02  0.7546771E-02  0.1447486E+00
         21   -1    0    0  503  502  0.00000000000E+00  0.00000000000E+00  0.14997773727E+03  0.14997773727E+03  0.00000000000E+00 0.  1.
         21   -1    0    0  501  503 -0.00000000000E+00 -0.00000000000E+00 -0.20775963596E+02  0.20775963596E+02  0.00000000000E+00 0. -1.
          2    1    1    2  501    0 -0.30105553354E+01 -0.26843917868E+02 -0.10113833314E+02  0.28843526037E+02  0.00000000000E+00 0. -1.
         -2    1    1    2    0  502  0.30105553354E+01  0.26843917868E+02  0.13931560699E+03  0.14191017483E+03  0.00000000000E+00 0.  1.
</event>
<event>
 4    1  0.1848744E+004  0.2104273E+02  0.7546771E-02  0.1518656E+00
         21   -1    0    0  503  502  0.00000000000E+00  0.00000000000E+00  0.16770892483E+03  0.16770892483E+03  0.00000000000E+00 0. -1.
         21   -1    0    0  501  503 -0.00000000000E+00 -0.00000000000E+00 -0.27865021535E+01  0.27865021535E+01  0.00000000000E+00 0.  1.
          2    1    1    2  501    0  0.10739799905E+01  0.21015305827E+02  0.62932327782E+02  0.66357172876E+02  0.00000000000E+00 0. -1.
         -2    1    1    2    0  502 -0.10739799905E+01 -0.21015305827E+02  0.10199009489E+03  0.10413825411E+03  0.00000000000E+00 0.  1.
</event>
<event>
 4    1  0.1848744E+004  0.2194518E+02  0.7546771E-02  0.1506186E+00
         21   -1    0    0  503  502  0.00000000000E+00  0.00000000000E+00  0.41203246947E+02  0.41203246947E+02  0.00000000000E+00 0.  1.
         21   -1    0    0  501  503 -0.00000000000E+00 -0.00000000000E+00 -0.93080701046E+02  0.93080701046E+02  0.00000000000E+00 0. -1.
          2    1    1    2  501    0 -0.48660122776E+00 -0.21939783919E+02 -0.88723819395E+02  0.91397521997E+02  0.00000000000E+00 0. -1.
         -2    1    1    2    0  502  0.48660122776E+00  0.21939783919E+02  0.36846365297E+02  0.42886425996E+02  0.00000000000E+00 0.  1.
</event>
<event>
 4    1  0.1848744E+004  0.2570215E+02  0.7546771E-02  0.1461100E+00
         21   -1    0    0  501  502  0.00000000000E+00  0.00000000000E+00  0.59773257652E+01  0.59773257652E+01  0.00000000000E+00 0.  1.
         21   -1    0    0  502  503 -0.00000000000E+00 -0.00000000000E+00 -0.14101183988E+03  0.14101183988E+03  0.00000000000E+00 0. -1.
          2    1    1    2  501    0  0.15246281985E+02 -0.20691822669E+02 -0.33340148043E+02  0.42097103359E+02  0.00000000000E+00 0. -1.
         -2    1    1    2    0  503 -0.15246281985E+02  0.20691822669E+02 -0.10169436607E+03  0.10489206228E+03  0.00000000000E+00 0.  1.
</event>
<event>
 4    1  0.1848744E+004  0.2399471E+02  0.7546771E-02  0.1480372E+00
         21   -1    0    0  501  502  0.00000000000E+00  0.00000000000E+00  0.35890501649E+02  0.35890501649E+02  0.00000000000E+00 0. -1.
         21   -1    0    0  502  503 -0.00000000000E+00 -0.00000000000E+00 -0.19303984277E+02  0.19303984277E+02  0.00000000000E+00 0.  1.
          2    1    1    2  501    0  0.15285123376E+02  0.18496242845E+02  0.19638157945E+02  0.31006503245E+02  0.00000000000E+00 0. -1.
         -2    1    1    2    0  503 -0.15285123376E+02 -0.18496242845E+02 -0.30516405728E+01  0.24187982681E+02  0.00000000000E+00 0.  1.
</event>
<event>
 4    1  0.1848744E+004  0.2272277E+02  0.7546771E-02  0.1496009E+00
         21   -1    0    0  501  502  0.00000000000E+00  0.00000000000E+00  0.75067756016E+03  0.75067756016E+03  0.00000000000E+00 0.  1.
         21   -1    0    0  502  503 -0.00000000000E+00 -0.00000000000E+00 -0.99772705185E+00  0.99772705185E+00  0.00000000000E+00 0. -1.
          2    1    1    2  501    0  0.77814121554E+00 -0.22709442315E+02  0.58430731884E+03  0.58474897787E+03  0.00000000000E+00 0.  1.
         -2    1    1    2    0  503 -0.77814121554E+00  0.22709442315E+02  0.16537251427E+03  0.16692630934E+03  0.00000000000E+00 0. -1.
</event>
<event>
 4    1  0.1848744E+004  0.2618980E+02  0.7546771E-02  0.1455921E+00
         21   -1    0    0  501  502  0.00000000000E+00  0.00000000000E+00  0.85100720857E+01  0.85100720857E+01  0.00000000000E+00 0. -1.
         21   -1    0    0  502  503 -0.00000000000E+00 -0.00000000000E+00 -0.91024782475E+02  0.91024782475E+02  0.00000000000E+00 0.  1.
          2    1    1    2  501    0 -0.20223043022E+02 -0.16641337851E+02 -0.58100146972E+02  0.63730155129E+02  0.00000000000E+00 0.  1.
         -2    1    1    2    0  503  0.20223043022E+02  0.16641337851E+02 -0.24414563417E+02  0.35804699432E+02  0.00000000000E+00 0. -1.
</event>
<event>
 4    1  0.1848744E+004  0.2050701E+02  0.7546771E-02  0.1526421E+00
         21   -1    0    0  503  502  0.00000000000E+00  0.00000000000E+00  0.21809630494E+02  0.21809630494E+02  0.00000000000E+00 0.  1.
         21   -1    0    0  501  503 -0.00000000000E+00 -0.00000000000E+00 -0.26937217873E+02  0.26937217873E+02  0.00000000000E+00 0. -1.
          2    1    1    2  501    0  0.20214310913E+02 -0.34523975197E+01 -0.15556918122E+02  0.25740145994E+02  0.00000000000E+00 0. -1.
         -2    1    1    2    0  502 -0.20214310913E+02  0.34523975197E+01  0.10429330743E+02  0.23006702373E+02  0.00000000000E+00 0.  1.
</event>
<event>
 4    1  0.1848744E+004  0.3729292E+02  0.7546771E-02  0.1365124E+00
         21   -1    0    0  501  502  0.00000000000E+00  0.00000000000E+00  0.24394825007E+03  0.24394825007E+03  0.00000000000E+00 0.  1.
         21   -1    0    0  502  503 -0.00000000000E+00 -0.00000000000E+00 -0.80313488369E+01  0.80313488369E+01  0.00000000000E+00 0. -1.
          2    1    1    2  501    0  0.26682938311E+02 -0.26053462710E+02  0.18582356541E+03  0.18952878298E+03  0.00000000000E+00 0.  1.
         -2    1    1    2    0  503 -0.26682938311E+02  0.26053462710E+02  0.50093335823E+02  0.62450815927E+02  0.00000000000E+00 0. -1.
</event>
<event>
 4    1  0.1848744E+004  0.2651205E+02  0.7546771E-02  0.1452572E+00
         21   -1    0    0  501  502  0.00000000000E+00  0.00000000000E+00  0.26257521581E+02  0.26257521581E+02  0.00000000000E+00 0.  1.
         21   -1    0    0  502  503 -0.00000000000E+00 -0.00000000000E+00 -0.35086346889E+02  0.35086346889E+02  0.00000000000E+00 0. -1.
          2    1    1    2  501    0  0.17871136903E+02 -0.19583447810E+02  0.10519139946E+02  0.28522644821E+02  0.00000000000E+00 0.  1.
         -2    1    1    2    0  503 -0.17871136903E+02  0.19583447810E+02 -0.19347965255E+02  0.32821223649E+02  0.00000000000E+00 0. -1.
</event>
<event>
 4    1  0.1848744E+004  0.3727111E+02  0.7546771E-02  0.1365264E+00
         21   -1    0    0  503  502  0.00000000000E+00  0.00000000000E+00  0.12818415160E+03  0.12818415160E+03  0.00000000000E+00 0.  1.
         21   -1    0    0  501  503 -0.00000000000E+00 -0.00000000000E+00 -0.73931003205E+02  0.73931003205E+02  0.00000000000E+00 0. -1.
          2    1    1    2  501    0 -0.19365339903E+02 -0.31845240510E+02 -0.66230990738E+02  0.75997893831E+02  0.00000000000E+00 0. -1.
         -2    1    1    2    0  502  0.19365339903E+02  0.31845240510E+02  0.12048413913E+03  0.12611726097E+03  0.00000000000E+00 0.  1.
</event>
<event>
 4    1  0.1848744E+004  0.2311217E+02  0.7546771E-02  0.1491094E+00
         21   -1    0    0  501  502  0.00000000000E+00  0.00000000000E+00  0.21602515212E+02  0.21602515212E+02  0.00000000000E+00 0.  1.
         21   -1    0    0  502  503 -0.00000000000E+00 -0.00000000000E+00 -0.25899198443E+02  0.25899198443E+02  0.00000000000E+00 0. -1.
          2    1    1    2  501    0  0.16908561487E+02 -0.15756682549E+02  0.29038029859E+01  0.23293874051E+02  0.00000000000E+00 0. -1.
         -2    1    1    2    0  503 -0.16908561487E+02  0.15756682549E+02 -0.72004862171E+01  0.24207839604E+02  0.00000000000E+00 0.  1.
</event>
<event>
 4    1  0.1848744E+004  0.2648352E+02  0.7546771E-02  0.1452866E+00
         21   -1    0    0  501  502  0.00000000000E+00  0.00000000000E+00  0.18988083117E+02  0.18988083117E+02  0.00000000000E+00 0.  1.
         21   -1    0    0  502  503 -0.00000000000E+00 -0.00000000000E+00 -0.50508941623E+02  0.50508941623E+02  0.00000000000E+00 0. -1.
          2    1    1    2  501    0  0.19736355220E+02 -0.17659369549E+02  0.22515354860E+01  0.26579060598E+02  0.00000000000E+00 0.  1.
         -2    1    1    2    0  503 -0.19736355220E+02  0.17659369549E+02 -0.33772393992E+02  0.42917964143E+02  0.00000000000E+00 0. -1.
</event>
<event>
 4    1  0.1848744E+004  0.2310239E+02  0.7546771E-02  0.1491216E+00
         21   -1    0    0  503  502  0.00000000000E+00  0.00000000000E+00  0.96045876323E+02  0.96045876323E+02  0.00000000000E+00 0. -1.
         21   -1    0    0  501  503 -0.00000000000E+00 -0.00000000000E+00 -0.64868866283E+01  0.64868866283E+01  0.00000000000E+00 0.  1.
          2    1    1    2  501    0  0.20601699922E+02  0.10454202086E+02  0.25368604953E+02  0.34311608797E+02  0.00000000000E+00 0.  1.
         -2    1    1    2    0  502 -0.20601699922E+02 -0.10454202086E+02  0.64190384742E+02  0.68221154155E+02  0.00000000000E+00 0. -1.
</event>
<event>
 4    1  0.1848744E+004  0.3030391E+02  0.7546771E-02  0.1416973E+00
         21   -1    0    0  501  502  0.00000000000E+00  0.00000000000E+00  0.25110655888E+03  0.25110655888E+03  0.00000000000E+00 0. -1.
         21   -1    0    0  502  503 -0.00000000000E+00 -0.00000000000E+00 -0.11158777058E+02  0.11158777058E+02  0.00000000000E+00 0.  1.
          2    1    1    2  501    0 -0.18148409180E+02  0.24268547641E+02  0.22749188678E+03  0.22950138499E+03  0.00000000000E+00 0. -1.
         -2    1    1    2    0  503  0.18148409180E+02 -0.24268547641E+02  0.12455895036E+02  0.32763950945E+02  0.00000000000E+00 0.  1.
</event>
<event>
 4    1  0.1848744E+004  0.2012713E+02  0.7546771E-02  0.1532101E+00
         21   -1    0    0  503  502  0.00000000000E+00  0.00000000000E+00  0.47117960356E+02  0.47117960356E+02  0.00000000000E+00 0.  1.
         21   -1    0    0  501  503 -0.00000000000E+00 -0.00000000000E+00 -0.16601534157E+02  0.16601534157E+02  0.00000000000E+00 0. -1.
          2    1    1    2  501    0 -0.14997316434E+02 -0.13423176805E+02 -0.68635676411E+01  0.21265223642E+02  0.00000000000E+00 0. -1.
         -2    1    1    2    0  502  0.14997316434E+02  0.13423176805E+02  0.37379993839E+02  0.42454270871E+02  0.00000000000E+00 0.  1.
</event>
<event>
 4    1  0.1848744E+004  0.3795517E+02  0.7546771E-02  0.1360904E+00
         21   -1    0    0  503  502  0.00000000000E+00  0.00000000000E+00  0.18849101736E+02  0.18849101736E+02  0.00000000000E+00 0. -1.
         21   -1    0    0  501  503 -0.00000000000E+00 -0.00000000000E+00 -0.11599658446E+03  0.11599658446E+03  0.00000000000E+00 0.  1.
          2    1    1    2  501    0 -0.28986892178E+02 -0.24502146941E+02 -0.87952397403E+02  0.95792584952E+02  0.00000000000E+00 0.  1.
         -2    1    1    2    0  502  0.28986892178E+02  0.24502146941E+02 -0.91950853224E+01  0.39053101246E+02  0.00000000000E+00 0. -1.
</event>
<event>
 4    1  0.1848744E+004  0.2012032E+02  0.7546771E-02  0.1532204E+00
         21   -1    0    0  501  502  0.00000000000E+00  0.00000000000E+00  0.23476883017E+02  0.23476883017E+02  0.00000000000E+00 0. -1.
         21   -1    0    0  502  503 -0.00000000000E+00 -0.00000000000E+00 -0.34293175912E+02  0.34293175912E+02  0.00000000000E+00 0.  1.
          2    1    1    2  501    0 -0.19832340487E+02 -0.33919691053E+01  0.14958761418E+02  0.25071731626E+02  0.00000000000E+00 0. -1.
         -2    1    1    2    0  503  0.19832340487E+02  0.33919691053E+01 -0.25775054313E+02  0.32698327303E+02  0.00000000000E+00 0.  1.
</event>
<event>
 4    1  0.1848744E+004  0.2352278E+02  0.7546771E-02  0.1486036E+00
         21   -1    0    0  503  502  0.00000000000E+00  0.00000000000E+00  0.25203914166E+02  0.25203914166E+02  0.00000000000E+00 0.  1.
         21   -1    0    0  501  503 -0.00000000000E+00 -0.00000000000E+00 -0.45975016200E+02  0.45975016200E+02  0.00000000000E+00 0. -1.
          2    1    1    2  501    0 -0.22680988196E+02 -0.62365133540E+01 -0.36110714522E+02  0.43096461892E+02  0.00000000000E+00 0. -1.
         -2    1    1    2    0  502  0.22680988196E+02  0.62365133540E+01  0.15339612487E+02  0.28082468474E+02  0.00000000000E+00 0.  1.
</event>
<event>
 4    1  0.1848744E+004  0.2938884E+02  0.7546771E-02  0.1424983E+00
         21   -1    0    0  503  502  0.00000000000E+00  0.00000000000E+00  0.29696489797E+02  0.29696489797E+02  0.00000000000E+00 0. -1.
         21   -1    0    0  501  503 -0.00000000000E+00 -0.00000000000E+00 -0.30480931219E+02  0.30480931219E+02  0.00000000000E+00 0.  1.
          2    1    1    2  501    0 -0.27367759696E+02 -0.10710248315E+02 -0.68327192634E+01  0.30172665482E+02  0.00000000000E+00 0.  1.
         -2    1    1    2    0  502  0.27367759696E+02  0.10710248315E+02  0.60482778414E+01  0.30004755533E+02  0.00000000000E+00 0. -1.
</event>
<event>
 4    1  0.1848744E+004  0.2901844E+02  0.7546771E-02  0.1428322E+00
         21   -1    0    0  503  502  0.00000000000E+00  0.00000000000E+00  0.25820491772E+02  0.25820491772E+02  0.00000000000E+00 0.  1.
         21   -1    0    0  501  503 -0.00000000000E+00 -0.00000000000E+00 -0.28833389312E+03  0.28833389312E+03  0.00000000000E+00 0. -1.
          2    1    1    2  501    0  0.26734963062E+02 -0.11283241348E+02 -0.27918417629E+03  0.28068821507E+03  0.00000000000E+00 0. -1.
         -2    1    1    2    0  502 -0.26734963062E+02  0.11283241348E+02  0.16670774947E+02  0.33466169822E+02  0.00000000000E+00 0.  1.
</event>
<event>
 4    1  0.1848744E+004  0.2490401E+02  0.7546771E-02  0.1469880E+00
         21   -1    0    0  501  502  0.00000000000E+00  0.00000000000E+00  0.20257485671E+02  0.20257485671E+02  0.00000000000E+00 0. -1.
         21   -1    0    0  502  503 -0.00000000000E+00 -0.00000000000E+00 -0.12826043366E+03  0.12826043366E+03  0.00000000000E+00 0.  1.
          2    1    1    2  501    0  0.15293264140E+02  0.19655177187E+02  0.10791141944E+02  0.27141456534E+02  0.00000000000E+00 0. -1.
         -2    1    1    2    0  503 -0.15293264140E+02 -0.19655177187E+02 -0.11879408993E+03  0.12137646280E+03  0.00000000000E+00 0.  1.
</event>
<event>
 4    1  0.1848744E+004  0.2221117E+02  0.7546771E-02  0.1502648E+00
         21   -1    0    0  501  502  0.00000000000E+00  0.00000000000E+00  0.21906518645E+03  0.21906518645E+03  0.00000000000E+00 0. -1.
         21   -1    0    0  502  503 -0.00000000000E+00 -0.00000000000E+00 -0.51037203687E+01  0.51037203687E+01  0.00000000000E+00 0.  1.
          2    1    1    2  501    0  0.16867860106E+02  0.14450299651E+02  0.19076356602E+03  0.19205226889E+03  0.00000000000E+00 0. -1.
         -2    1    1    2    0  503 -0.16867860106E+02 -0.14450299651E+02  0.23197900053E+02  0.32116637922E+02  0.00000000000E+00 0.  1.
</event>
<event>
 4    1  0.1848744E+004  0.1228154E+03  0.7546771E-02  0.1129268E+00
         21   -1    0    0  501  502  0.00000000000E+00  0.00000000000E+00  0.23124065603E+03  0.23124065603E+03  0.00000000000E+00 0. -1.
         21   -1    0    0  502  503 -0.00000000000E+00 -0.00000000000E+00 -0.10499887608E+03  0.10499887608E+03  0.00000000000E+00 0.  1.
          2    1    1    2  501    0  0.15777726293E+02  0.12179773693E+03  0.16658813727E+03  0.20696674334E+03  0.00000000000E+00 0. -1.
         -2    1    1    2    0  503 -0.15777726293E+02 -0.12179773693E+03 -0.40346357322E+02  0.12927278877E+03  0.00000000000E+00 0.  1.
</event>
<event>
 4    1  0.1848744E+004  0.2491985E+02  0.7546771E-02  0.1469702E+00
         21   -1    0    0  503  502  0.00000000000E+00  0.00000000000E+00  0.36984727535E+01  0.36984727535E+01  0.00000000000E+00 0.  1.
         21   -1    0    0  501  503 -0.00000000000E+00 -0.00000000000E+00 -0.24409376296E+03  0.24409376296E+03  0.00000000000E+00 0. -1.
          2    1    1    2  501    0 -0.15374933455E+02 -0.19611479157E+02 -0.18941575121E+03  0.19104796649E+03  0.00000000000E+00 0. -1.
         -2    1    1    2    0  502  0.15374933455E+02  0.19611479157E+02 -0.50979538998E+02  0.56744269226E+02  0.00000000000E+00 0.  1.
</event>
<event>
 4    1  0.1848744E+004  0.2040072E+02  0.7546771E-02  0.1527996E+00
         21   -1    0    0  503  502  0.00000000000E+00  0.00000000000E+00  0.88989704747E+01  0.88989704747E+01  0.00000000000E+00 0.  1.
         21   -1    0    0  501  503 -0.00000000000E+00 -0.00000000000E+00 -0.53503013105E+02  0.53503013105E+02  0.00000000000E+00 0. -1.
          2    1    1    2  501    0 -0.68851035458E+01 -0.19203765448E+02 -0.33371839936E+02  0.39113539330E+02  0.00000000000E+00 0. -1.
         -2    1    1    2    0  502  0.68851035458E+01  0.19203765448E+02 -0.11232202694E+02  0.23288444250E+02  0.00000000000E+00 0.  1.
</event>
<event>
 4    1  0.1848744E+004  0.2516412E+02  0.7546771E-02  0.1466976E+00
         21   -1    0    0  503  502  0.00000000000E+00  0.00000000000E+00  0.63871218557E+02  0.63871218557E+02  0.00000000000E+00 0. -1.
         21   -1    0    0  501  503 -0.00000000000E+00 -0.00000000000E+00 -0.11765759820E+03  0.11765759820E+03  0.00000000000E+00 0.  1.
          2    1    1    2  501    0  0.10332271671E+02  0.22945084659E+02 -0.11374940561E+03  0.11649961384E+03  0.00000000000E+00 0.  1.
         -2    1    1    2    0  502 -0.10332271671E+02 -0.22945084659E+02  0.59963025972E+02  0.65029202914E+02  0.00000000000E+00 0. -1.
</event>
<event>
 4    1  0.1848744E+004  0.2883231E+02  0.7546771E-02  0.1430022E+00
         21   -1    0    0  503  502  0.00000000000E+00  0.00000000000E+00  0.75238421989E+02  0.75238421989E+02  0.00000000000E+00 0. -1.
         21   -1    0    0  501  503 -0.00000000000E+00 -0.00000000000E+00 -0.29434326760E+02  0.29434326760E+02  0.00000000000E+00 0.  1.
          2    1    1    2  501    0 -0.17203051174E+02 -0.23137787966E+02 -0.18461080450E+02  0.34236146001E+02  0.00000000000E+00 0.  1.
         -2    1    1    2    0  502  0.17203051174E+02  0.23137787966E+02  0.64265175679E+02  0.70436602748E+02  0.00000000000E+00 0. -1.
</event>
<event>
 4    1  0.1848744E+004  0.2474480E+02  0.7546771E-02  0.1471679E+00
         21   -1    0    0  503  502  0.00000000000E+00  0.00000000000E+00  0.44381395109E+02  0.44381395109E+02  0.00000000000E+00 0.  1.
         21   -1    0    0  501  503 -0.00000000000E+00 -0.00000000000E+00 -0.11497102528E+03  0.11497102528E+03  0.00000000000E+00 0. -1.
          2    1    1    2  501    0  0.22242451730E+02  0.10843371200E+02 -0.11003775530E+03  0.11278569479E+03  0.00000000000E+00 0. -1.
         -2    1    1    2    0  502 -0.22242451730E+02 -0.10843371200E+02  0.39448125122E+02  0.46566725605E+02  0.00000000000E+00 0.  1.
</event>
<event>
 4    1  0.1848744E+004  0.7758213E+02  0.7546771E-02  0.1209575E+00
         21   -1    0    0  503  502  0.00000000000E+00  0.00000000000E+00  0.45135697381E+02  0.45135697381E+02  0.00000000000E+00 0. -1.
         21   -1    0    0  501  503 -0.00000000000E+00 -0.00000000000E+00 -0.15791630588E+03  0.15791630588E+03  0.00000000000E+00 0.  1.
          2    1    1    2  501    0 -0.40247020853E+02 -0.66326189682E+02 -0.96431416364E+02  0.12376592498E+03  0.00000000000E+00 0.  1.
         -2    1    1    2    0  502  0.40247020853E+02  0.66326189682E+02 -0.16349192135E+02  0.79286078278E+02  0.00000000000E+00 0. -1.
</event>
<event>
 4    1  0.1848744E+004  0.3615616E+02  0.7546771E-02  0.1372612E+00
         21   -1    0    0  501  502  0.00000000000E+00  0.00000000000E+00  0.64646610956E+01  0.64646610956E+01  0.00000000000E+00 0.  1.
         21   -1    0    0  502  503 -0.00000000000E+00 -0.00000000000E+00 -0.22756787864E+03  0.22756787864E+03  0.00000000000E+00 0. -1.
          2    1    1    2  501    0 -0.34168738512E+02 -0.11822223325E+02 -0.71496043544E+02  0.80118361805E+02  0.00000000000E+00 0.  1.
         -2    1    1    2    0  503  0.34168738512E+02  0.11822223325E+02 -0.14960717400E+03  0.15391417794E+03  0.00000000000E+00 0. -1.
</event>
<event>
 4    1  0.1848744E+004  0.2203270E+02  0.7546771E-02  0.1505015E+00
         21   -1    0    0  503  502  0.00000000000E+00  0.00000000000E+00  0.51411507330E+01  0.51411507330E+01  0.00000000000E+00 0. -1.
         21   -1    0    0  501  503 -0.00000000000E+00 -0.00000000000E+00 -0.10877098447E+03  0.10877098447E+03  0.00000000000E+00 0.  1.
          2    1    1    2  501    0  0.50615475317E+01  0.21443429984E+02 -0.72501440801E+02  0.75775318350E+02  0.00000000000E+00 0.  1.
         -2    1    1    2    0  502 -0.50615475317E+01 -0.21443429984E+02 -0.31128392937E+02  0.38136816853E+02  0.00000000000E+00 0. -1.
</event>
<event>
 4    1  0.1848744E+004  0.3594883E+02  0.7546771E-02  0.1374013E+00
         21   -1    0    0  501  502  0.00000000000E+00  0.00000000000E+00  0.10583098794E+04  0.10583098794E+04  0.00000000000E+00 0.  1.
         21   -1    0    0  502  503 -0.00000000000E+00 -0.00000000000E+00 -0.33693545408E+01  0.33693545408E+01  0.00000000000E+00 0. -1.
          2    1    1    2  501    0 -0.35543853058E+02 -0.53807827383E+01  0.95133891636E+03  0.95201788434E+03  0.00000000000E+00 0.  1.
         -2    1    1    2    0  503  0.35543853058E+02  0.53807827383E+01  0.10360160845E+03  0.10966134956E+03  0.00000000000E+00 0. -1.
</event>
<event>
 4    1  0.1848744E+004  0.2012689E+02  0.7546771E-02  0.1532105E+00
         21   -1    0    0  501  502  0.00000000000E+00  0.00000000000E+00  0.41018437102E+03  0.41018437102E+03  0.00000000000E+00 0. -1.
         21   -1    0    0  502  503 -0.00000000000E+00 -0.00000000000E+00 -0.99183130520E+00  0.99183130520E+00  0.00000000000E+00 0.  1.
          2    1    1    2  501    0  0.45735242362E+01  0.19600367685E+02  0.19114281338E+03  0.19219954902E+03  0.00000000000E+00 0.  1.
         -2    1    1    2    0  503 -0.45735242362E+01 -0.19600367685E+02  0.21804972634E+03  0.21897665331E+03  0.00000000000E+00 0. -1.
</event>
<event>
 4    1  0.1848744E+004  0.2492871E+02  0.7546771E-02  0.1469602E+00
         21   -1    0    0  503  502  0.00000000000E+00  0.00000000000E+00  0.21147681998E+03  0.21147681998E+03  0.00000000000E+00 0.  1.
         21   -1    0    0  501  503 -0.00000000000E+00 -0.00000000000E+00 -0.61373080408E+01  0.61373080408E+01  0.00000000000E+00 0. -1.
          2    1    1    2  501    0 -0.17618390840E+02 -0.17636130625E+02  0.24117794905E+02  0.34685859226E+02  0.00000000000E+00 0. -1.
         -2    1    1    2    0  502  0.17618390840E+02  0.17636130625E+02  0.18122171704E+03  0.18292826880E+03  0.00000000000E+00 0.  1.
</event>
<event>
 4    1  0.1848744E+004  0.2245207E+02  0.7546771E-02  0.1499496E+00
         21   -1    0    0  503  502  0.00000000000E+00  0.00000000000E+00  0.14895987840E+02  0.14895987840E+02  0.00000000000E+00 0.  1.
         21   -1    0    0  501  503 -0.00000000000E+00 -0.00000000000E+00 -0.19368547434E+03  0.19368547434E+03  0.00000000000E+00 0. -1.
          2    1    1    2  501    0 -0.17472457450E+02 -0.14099959375E+02 -0.18413748629E+03  0.18550123849E+03  0.00000000000E+00 0. -1.
         -2    1    1    2    0  502  0.17472457450E+02  0.14099959375E+02  0.53479997929E+01  0.23080223689E+02  0.00000000000E+00 0.  1.
</event>
<event>
 4    1  0.1848744E+004  0.2813445E+02  0.7546771E-02  0.1436534E+00
         21   -1    0    0  503  502  0.00000000000E+00  0.00000000000E+00  0.17967902951E+02  0.17967902951E+02  0.00000000000E+00 0.  1.
         21   -1    0    0  501  503 -0.00000000000E+00 -0.00000000000E+00 -0.47173556038E+02  0.47173556038E+02  0.00000000000E+00 0. -1.
          2    1    1    2  501    0  0.14680248970E+02 -0.24000780207E+02 -0.22979402862E+02  0.36326300613E+02  0.00000000000E+00 0.  1.
         -2    1    1    2    0  502 -0.14680248970E+02  0.24000780207E+02 -0.62262502248E+01  0.28815158376E+02  0.00000000000E+00 0. -1.
</event>
<event>
 4    1  0.1848744E+004  0.2159756E+02  0.7546771E-02  0.1510902E+00
         21   -1    0    0  503  502  0.00000000000E+00  0.00000000000E+00  0.28333707084E+02  0.28333707084E+02  0.00000000000E+00 0. -1.
         21   -1    0    0  501  503 -0.00000000000E+00 -0.00000000000E+00 -0.16961740540E+02  0.16961740540E+02  0.00000000000E+00 0.  1.
          2    1    1    2  501    0  0.20854339173E+02 -0.56170238781E+01  0.95699806689E+01  0.23622848041E+02  0.00000000000E+00 0.  1.
         -2    1    1    2    0  502 -0.20854339173E+02  0.56170238781E+01  0.18019858749E+01  0.21672599583E+02  0.00000000000E+00 0. -1.
</event>
<event>
 4    1  0.1848744E+004  0.2496944E+02  0.7546771E-02  0.1469146E+00
         21   -1    0    0  503  502  0.00000000000E+00  0.00000000000E+00  0.29255426171E+02  0.29255426171E+02  0.00000000000E+00 0. -1.
         21   -1    0    0  501  503 -0.00000000000E+00 -0.00000000000E+00 -0.10320802681E+03  0.10320802681E+03  0.00000000000E+00 0.  1.
          2    1    1    2  501    0 -0.20811686055E+02  0.13796623385E+02 -0.95974999458E+02  0.99169922931E+02  0.00000000000E+00 0.  1.
         -2    1    1    2    0  502  0.20811686055E+02 -0.13796623385E+02  0.22022398820E+02  0.33293530048E+02  0.00000000000E+00 0. -1.
</event>
<event>
 4    1  0.1848744E+004  0.2593542E+02  0.7546771E-02  0.1458605E+00
         21   -1    0    0  501  502  0.00000000000E+00  0.00000000000E+00  0.12847531204E+02  0.12847531204E+02  0.00000000000E+00 0.  1.
         21   -1    0    0  502  503 -0.00000000000E+00 -0.00000000000E+00 -0.62470626199E+02  0.62470626199E+02  0.00000000000E+00 0. -1.
          2    1    1    2  501    0 -0.11700824969E+02  0.23145981579E+02 -0.96582911292E+01  0.27675410670E+02  0.00000000000E+00 0.  1.
         -2    1    1    2    0  503  0.11700824969E+02 -0.23145981579E+02 -0.39964803866E+02  0.47642746733E+02  0.00000000000E+00 0. -1.
</event>
<event>
 4    1  0.1848744E+004  0.2729716E+02  0.7546771E-02  0.1444646E+00
         21   -1    0    0  501  502  0.00000000000E+00  0.00000000000E+00  0.32067255219E+02  0.32067255219E+02  0.00000000000E+00 0. -1.
         21   -1    0    0  502  503 -0.00000000000E+00 -0.00000000000E+00 -0.68779598010E+02  0.68779598010E+02  0.00000000000E+00 0.  1.
          2    1    1    2  501    0 -0.88864739985E+01  0.25810181859E+02  0.22674933268E+02  0.35486441163E+02  0.00000000000E+00 0. -1.
         -2    1    1    2    0  503  0.88864739985E+01 -0.25810181859E+02 -0.59387276059E+02  0.65360412066E+02  0.00000000000E+00 0.  1.
</event>
<event>
 4    1  0.1848744E+004  0.6044609E+02  0.7546771E-02  0.1258324E+00
         21   -1    0    0  501  502  0.00000000000E+00  0.00000000000E+00  0.75129316889E+02  0.75129316889E+02  0.00000000000E+00 0.  1.
         21   -1    0    0  502  503 -0.00000000000E+00 -0.00000000000E+00 -0.56818309682E+02  0.56818309682E+02  0.00000000000E+00 0. -1.
          2    1    1    2  501    0 -0.59822203906E+02  0.86621847105E+01  0.34196821831E+02  0.69448917540E+02  0.00000000000E+00 0.  1.
         -2    1    1    2    0  503  0.59822203906E+02 -0.86621847105E+01 -0.15885814624E+02  0.62498709030E+02  0.00000000000E+00 0. -1.
</event>
<event>
 4    1  0.1848744E+004  0.2195843E+02  0.7546771E-02  0.1506008E+00
         21   -1    0    0  501  502  0.00000000000E+00  0.00000000000E+00  0.32990747126E+02  0.32990747126E+02  0.00000000000E+00 0.  1.
         21   -1    0    0  502  503 -0.00000000000E+00 -0.00000000000E+00 -0.16230673683E+02  0.16230673683E+02  0.00000000000E+00 0. -1.
          2    1    1    2  501    0  0.55737854407E+01 -0.21239245279E+02  0.16143943760E+02  0.27254349089E+02  0.00000000000E+00 0.  1.
         -2    1    1    2    0  503 -0.55737854407E+01  0.21239245279E+02  0.61612968365E+00  0.21967071720E+02  0.00000000000E+00 0. -1.
</event>
<event>
 4    1  0.1848744E+004  0.3507225E+02  0.7546771E-02  0.1380056E+00
         21   -1    0    0  503  502  0.00000000000E+00  0.00000000000E+00  0.87737638659E+01  0.87737638659E+01  0.00000000000E+00 0. -1.
         21   -1    0    0  501  503 -0.00000000000E+00 -0.00000000000E+00 -0.18373495420E+03  0.18373495420E+03  0.00000000000E+00 0.  1.
          2    1    1    2  501    0  0.10368519286E+01  0.35056923853E+02 -0.13433540751E+03  0.13883826808E+03  0.00000000000E+00 0.  1.
         -2    1    1    2    0  502 -0.10368519286E+01 -0.35056923853E+02 -0.40625782826E+02  0.53670449990E+02  0.00000000000E+00 0. -1.
</event>
<event>
 4    1  0.1848744E+004  0.3221742E+02  0.7546771E-02  0.1401257E+00
         21   -1    0    0  501  502  0.00000000000E+00  0.00000000000E+00  0.13931824249E+01  0.13931824249E+01  0.00000000000E+00 0. -1.
         21   -1    0    0  502  503 -0.00000000000E+00 -0.00000000000E+00 -0.74541004805E+03  0.74541004805E+03  0.00000000000E+00 0.  1.
          2    1    1    2  501    0  0.26021290079E+02 -0.18996169755E+02 -0.38044536229E+03  0.38180706606E+03  0.00000000000E+00 0.  1.
         -2    1    1    2    0  503 -0.26021290079E+02  0.18996169755E+02 -0.36357150333E+03  0.36499616441E+03  0.00000000000E+00 0. -1.
</event>
<event>
 4    1  0.1848744E+004  0.3242040E+02  0.7546771E-02  0.1399666E+00
         21   -1    0    0  503  502  0.00000000000E+00  0.00000000000E+00  0.14337191580E+02  0.14337191580E+02  0.00000000000E+00 0.  1.
         21   -1    0    0  501  503 -0.00000000000E+00 -0.00000000000E+00 -0.21100943845E+03  0.21100943845E+03  0.00000000000E+00 0. -1.
          2    1    1    2  501    0  0.32358562286E+02  0.20013857067E+01 -0.18935547387E+03  0.19211084713E+03  0.00000000000E+00 0. -1.
         -2    1    1    2    0  502 -0.32358562286E+02 -0.20013857067E+01 -0.73167729930E+01  0.33235782900E+02  0.00000000000E+00 0.  1.
</event>
<event>
 4    1  0.1848744E+004  0.3408602E+02  0.7546771E-02  0.1387105E+00
         21   -1    0    0  501  502  0.00000000000E+00  0.00000000000E+00  0.19067999746E+02  0.19067999746E+02  0.00000000000E+00 0. -1.
         21   -1    0    0  502  503 -0.00000000000E+00 -0.00000000000E+00 -0.66057651499E+02  0.66057651499E+02  0.00000000000E+00 0.  1.
          2    1    1    2  501    0  0.27297912160E+02  0.20412756438E+02 -0.35350648910E+02  0.49107280642E+02  0.00000000000E+00 0.  1.
         -2    1    1    2    0  503 -0.27297912160E+02 -0.20412756438E+02 -0.11639002844E+02  0.36018370603E+02  0.00000000000E+00 0. -1.
</event>
<event>
 4    1  0.1848744E+004  0.2638072E+02  0.7546771E-02  0.1453930E+00
         21   -1    0    0  501  502  0.00000000000E+00  0.00000000000E+00  0.38864183200E+03  0.38864183200E+03  0.00000000000E+00 0.  1.
         21   -1    0    0  502  503 -0.00000000000E+00 -0.00000000000E+00 -0.21718002124E+01  0.21718002124E+01  0.00000000000E+00 0. -1.
          2    1    1    2  501    0 -0.57073478280E+01 -0.25755941642E+02  0.27509040657E+03  0.27635244550E+03  0.00000000000E+00 0.  1.
         -2    1    1    2    0  503  0.57073478280E+01  0.25755941642E+02  0.11137962522E+03  0.11446118671E+03  0.00000000000E+00 0. -1.
</event>
<event>
 4    1  0.1848744E+004  0.2131218E+02  0.7546771E-02  0.1514854E+00
         21   -1    0    0  501  502  0.00000000000E+00  0.00000000000E+00  0.15435352482E+02  0.15435352482E+02  0.00000000000E+00 0. -1.
         21   -1    0    0  502  503 -0.00000000000E+00 -0.00000000000E+00 -0.14652832267E+03  0.14652832267E+03  0.00000000000E+00 0.  1.
          2    1    1    2  501    0 -0.15668721775E+02 -0.14446451695E+02  0.68485222350E+01  0.22385510167E+02  0.00000000000E+00 0. -1.
         -2    1    1    2    0  503  0.15668721775E+02  0.14446451695E+02 -0.13794149242E+03  0.13957816498E+03  0.00000000000E+00 0.  1.
</event>
<event>
 4    1  0.1848744E+004  0.2281990E+02  0.7546771E-02  0.1494772E+00
         21   -1    0    0  503  502  0.00000000000E+00  0.00000000000E+00  0.61999555292E+03  0.61999555292E+03  0.00000000000E+00 0.  1.
         21   -1    0    0  501  503 -0.00000000000E+00 -0.00000000000E+00 -0.84408997026E+00  0.84408997026E+00  0.00000000000E+00 0. -1.
          2    1    1    2  501    0 -0.16250251986E+02  0.16021146090E+02  0.28776223879E+03  0.28866564375E+03  0.00000000000E+00 0.  1.
         -2    1    1    2    0  502  0.16250251986E+02 -0.16021146090E+02  0.33138922416E+03  0.33217399913E+03  0.00000000000E+00 0. -1.
</event>
<event>
 4    1  0.1848744E+004  0.2969102E+02  0.7546771E-02  0.1422301E+00
         21   -1    0    0  501  502  0.00000000000E+00  0.00000000000E+00  0.10530381192E+02  0.10530381192E+02  0.00000000000E+00 0.  1.
         21   -1    0    0  502  503 -0.00000000000E+00 -0.00000000000E+00 -0.88744503115E+02  0.88744503115E+02  0.00000000000E+00 0. -1.
          2    1    1    2  501    0 -0.10815784819E+01  0.29671313434E+02 -0.50923250735E+02  0.58946875391E+02  0.00000000000E+00 0. -1.
         -2    1    1    2    0  503  0.10815784819E+01 -0.29671313434E+02 -0.27290871188E+02  0.40328008916E+02  0.00000000000E+00 0.  1.
</event>
<event>
 4    1  0.1848744E+004  0.2382316E+02  0.7546771E-02  0.1482413E+00
         21   -1    0    0  501  502  0.00000000000E+00  0.00000000000E+00  0.57261753026E+03  0.57261753026E+03  0.00000000000E+00 0.  1.
         21   -1    0    0  502  503 -0.00000000000E+00 -0.00000000000E+00 -0.29220532020E+01  0.29220532020E+01  0.00000000000E+00 0. -1.
          2    1    1    2  501    0  0.18000543837E+02 -0.15605227850E+02  0.51877605683E+03  0.51932277040E+03  0.00000000000E+00 0.  1.
         -2    1    1    2    0  503 -0.18000543837E+02  0.15605227850E+02  0.50919420231E+02  0.56216813067E+02  0.00000000000E+00 0. -1.
</event>
<event>
 4    1  0.1848744E+004  0.2133825E+02  0.7546771E-02  0.1514490E+00
         21   -1    0    0  501  502  0.00000000000E+00  0.00000000000E+00  0.16115164449E+02  0.16115164449E+02  0.00000000000E+00 0. -1.
         21   -1    0    0  502  503 -0.00000000000E+00 -0.00000000000E+00 -0.35236513205E+02  0.35236513205E+02  0.00000000000E+00 0.  1.
          2    1    1    2  501    0  0.17970623835E+02  0.11505547770E+02  0.18688481826E+01  0.21419933334E+02  0.00000000000E+00 0. -1.
         -2    1    1    2    0  503 -0.17970623835E+02 -0.11505547770E+02 -0.20990196939E+02  0.29931744320E+02  0.00000000000E+00 0.  1.
</event>
<event>
 4    1  0.1848744E+004  0.2788802E+02  0.7546771E-02  0.1438886E+00
         21   -1    0    0  501  502  0.00000000000E+00  0.00000000000E+00  0.13463304566E+02  0.13463304566E+02  0.00000000000E+00 0. -1.
         21   -1    0    0  502  503 -0.00000000000E+00 -0.00000000000E+00 -0.58418711509E+02  0.58418711509E+02  0.00000000000E+00 0.  1.
          2    1    1    2  501    0  0.25765514109E+02  0.10671461199E+02 -0.18683099031E+02  0.33567841617E+02  0.00000000000E+00 0.  1.
         -2    1    1    2    0  503 -0.25765514109E+02 -0.10671461199E+02 -0.26272307911E+02  0.38314174458E+02  0.00000000000E+00 0. -1.
</event>
<event>
 4    1  0.1848744E+004  0.2038597E+02  0.7546771E-02  0.1528215E+00
         21   -1    0    0  501  502  0.00000000000E+00  0.00000000000E+00  0.13150271018E+03  0.13150271018E+03  0.00000000000E+00 0. -1.
         21   -1    0    0  502  503 -0.00000000000E+00 -0.00000000000E+00 -0.39266937849E+01  0.39266937849E+01  0.00000000000E+00 0.  1.
          2    1    1    2  501    0  0.15383811899E+02 -0.13376327436E+02  0.93703482657E+02  0.95895414209E+02  0.00000000000E+00 0. -1.
         -2    1    1    2    0  503 -0.15383811899E+02  0.13376327436E+02  0.33872533743E+02  0.39533989760E+02  0.00000000000E+00 0.  1.
</event>
<event>
 4    1  0.1848744E+004  0.2399254E+02  0.7546771E-02  0.1480397E+00
         21   -1    0    0  501  502  0.00000000000E+00  0.00000000000E+00  0.92211844016E+02  0.92211844016E+02  0.00000000000E+00 0.  1.
         21   -1    0    0  502  503 -0.00000000000E+00 -0.00000000000E+00 -0.83500675149E+01  0.83500675149E+01  0.00000000000E+00 0. -1.
          2    1    1    2  501    0 -0.54001415053E+01  0.23376916710E+02  0.67191208795E+02  0.71346340498E+02  0.00000000000E+00 0.  1.
         -2    1    1    2    0  503  0.54001415053E+01 -0.23376916710E+02  0.16670567706E+02  0.29215571032E+02  0.00000000000E+00 0. -1.
</event>
<event>
 4    1  0.1848744E+004  0.3817892E+02  0.7546771E-02  0.1359501E+00
         21   -1    0    0  503  502  0.00000000000E+00  0.00000000000E+00  0.23018899616E+03  0.23018899616E+03  0.00000000000E+00 0.  1.
         21   -1    0    0  501  503 -0.00000000000E+00 -0.00000000000E+00 -0.67868466645E+01  0.67868466645E+01  0.00000000000E+00 0. -1.
          2    1    1    2  501    0  0.22129045109E+02 -0.31111655416E+02  0.81037620142E+02  0.89580832874E+02  0.00000000000E+00 0. -1.
         -2    1    1    2    0  502 -0.22129045109E+02  0.31111655416E+02  0.14236452935E+03  0.14739500995E+03  0.00000000000E+00 0.  1.
</event>
<event>
 4    1  0.1848744E+004  0.3109422E+02  0.7546771E-02  0.1410320E+00
         21   -1    0    0  503  502  0.00000000000E+00  0.00000000000E+00  0.48433546401E+02  0.48433546401E+02  0.00000000000E+00 0.  1.
         21   -1    0    0  501  503 -0.00000000000E+00 -0.00000000000E+00 -0.45933792172E+02  0.45933792172E+02  0.00000000000E+00 0. -1.
          2    1    1    2  501    0  0.75499453400E+01 -0.30163698739E+02 -0.34229262336E+02  0.46243840631E+02  0.00000000000E+00 0. -1.
         -2    1    1    2    0  502 -0.75499453400E+01  0.30163698739E+02  0.36729016565E+02  0.48123497941E+02  0.00000000000E+00 0.  1.
</event>
<event>
 4    1  0.1848744E+004  0.3045102E+02  0.7546771E-02  0.1415717E+00
         21   -1    0    0  503  502  0.00000000000E+00  0.00000000000E+00  0.52021790055E+01  0.52021790055E+01  0.00000000000E+00 0. -1.
         21   -1    0    0  501  503 -0.00000000000E+00 -0.00000000000E+00 -0.23742643786E+03  0.23742643786E+03  0.00000000000E+00 0.  1.
          2    1    1    2  501    0 -0.30144199394E+02 -0.43118534254E+01 -0.55544786245E+02  0.63344203492E+02  0.00000000000E+00 0. -1.
         -2    1    1    2    0  502  0.30144199394E+02  0.43118534254E+01 -0.17667947261E+03  0.17928441337E+03  0.00000000000E+00 0.  1.
</event>
<event>
 4    1  0.1848744E+004  0.2229194E+02  0.7546771E-02  0.1501586E+00
         21   -1    0    0  501  502  0.00000000000E+00  0.00000000000E+00  0.27059609194E+02  0.27059609194E+02  0.00000000000E+00 0. -1.
         21   -1    0    0  502  503 -0.00000000000E+00 -0.00000000000E+00 -0.21620989480E+02  0.21620989480E+02  0.00000000000E+00 0.  1.
          2    1    1    2  501    0  0.65288696294E+01  0.21314421067E+02  0.12165932059E+02  0.25395680477E+02  0.00000000000E+00 0. -1.
         -2    1    1    2    0  503 -0.65288696294E+01 -0.21314421067E+02 -0.67273123456E+01  0.23284918197E+02  0.00000000000E+00 0.  1.
</event>
<event>
 4    1  0.1848744E+004  0.2263272E+02  0.7546771E-02  0.1497162E+00
         21   -1    0    0  503  502  0.00000000000E+00  0.00000000000E+00  0.79618370406E+00  0.79618370406E+00  0.00000000000E+00 0.  1.
         21   -1    0    0  501  503 -0.00000000000E+00 -0.00000000000E+00 -0.67745722712E+03  0.67745722712E+03  0.00000000000E+00 0. -1.
          2    1    1    2  501    0 -0.21674086832E+02  0.65172028123E+01 -0.26225888053E+03  0.26323366120E+03  0.00000000000E+00 0. -1.
         -2    1    1    2    0  502  0.21674086832E+02 -0.65172028123E+01 -0.41440216289E+03  0.41501974963E+03  0.00000000000E+00 0.  1.
</event>
<event>
 4    1  0.1848744E+004  0.2283190E+02  0.7546771E-02  0.1494620E+00
         21   -1    0    0  503  502  0.00000000000E+00  0.00000000000E+00  0.50505192132E+01  0.50505192132E+01  0.00000000000E+00 0.  1.
         21   -1    0    0  501  503 -0.00000000000E+00 -0.00000000000E+00 -0.22613757934E+03  0.22613757934E+03  0.00000000000E+00 0. -1.
          2    1    1    2  501    0 -0.12733521674E+02  0.18951339476E+02 -0.19576767767E+03  0.19709459521E+03  0.00000000000E+00 0. -1.
         -2    1    1    2    0  502  0.12733521674E+02 -0.18951339476E+02 -0.25319382466E+02  0.34093503349E+02  0.00000000000E+00 0.  1.
</event>
<event>
 4    1  0.1848744E+004  0.2185954E+02  0.7546771E-02  0.1507338E+00
         21   -1    0    0  501  502  0.00000000000E+00  0.00000000000E+00  0.95717146196E+01  0.95717146196E+01  0.00000000000E+00 0.  1.
         21   -1    0    0  502  503 -0.00000000000E+00 -0.00000000000E+00 -0.57768641806E+02  0.57768641806E+02  0.00000000000E+00 0. -1.
          2    1    1    2  501    0 -0.11345834590E+02 -0.18684526986E+02 -0.11689366885E+02  0.24788723433E+02  0.00000000000E+00 0.  1.
         -2    1    1    2    0  503  0.11345834590E+02  0.18684526986E+02 -0.36507560301E+02  0.42551632993E+02  0.00000000000E+00 0. -1.
</event>
<event>
 4    1  0.1848744E+004  0.3078642E+02  0.7546771E-02  0.1412883E+00
         21   -1    0    0  501  502  0.00000000000E+00  0.00000000000E+00  0.21664251807E+04  0.21664251807E+04  0.00000000000E+00 0. -1.
         21   -1    0    0  502  503 -0.00000000000E+00 -0.00000000000E+00 -0.64076562592E+00  0.64076562592E+00  0.00000000000E+00 0.  1.
          2    1    1    2  501    0 -0.16652863910E+02 -0.25893737634E+02  0.16931708816E+04  0.16934507486E+04  0.00000000000E+00 0. -1.
         -2    1    1    2    0  503  0.16652863910E+02  0.25893737634E+02  0.47261353348E+03  0.47361519776E+03  0.00000000000E+00 0.  1.
</event>
<event>
 4    1  0.1848744E+004  0.2328878E+02  0.7546771E-02  0.1488903E+00
         21   -1    0    0  501  502  0.00000000000E+00  0.00000000000E+00  0.12702442916E+03  0.12702442916E+03  0.00000000000E+00 0. -1.
         21   -1    0    0  502  503 -0.00000000000E+00 -0.00000000000E+00 -0.28364938984E+02  0.28364938984E+02  0.00000000000E+00 0.  1.
          2    1    1    2  501    0 -0.21266642841E+02 -0.94919429862E+01  0.12093835213E+03  0.12316026996E+03  0.00000000000E+00 0. -1.
         -2    1    1    2    0  503  0.21266642841E+02  0.94919429862E+01 -0.22278861962E+02  0.32229098183E+02  0.00000000000E+00 0.  1.
</event>
<event>
 4    1  0.1848744E+004  0.2169947E+02  0.7546771E-02  0.1509508E+00
         21   -1    0    0  501  502  0.00000000000E+00  0.00000000000E+00  0.53883055530E+02  0.53883055530E+02  0.00000000000E+00 0.  1.
         21   -1    0    0  502  503 -0.00000000000E+00 -0.00000000000E+00 -0.89988908039E+01  0.89988908039E+01  0.00000000000E+00 0. -1.
          2    1    1    2  501    0  0.90842859692E+01 -0.19706413981E+02  0.17095691770E+02  0.27624801912E+02  0.00000000000E+00 0.  1.
         -2    1    1    2    0  503 -0.90842859692E+01  0.19706413981E+02  0.27788472956E+02  0.35257144422E+02  0.00000000000E+00 0. -1.
</event>
<event>
 4    1  0.1848744E+004  0.3369388E+02  0.7546771E-02  0.1389986E+00
         21   -1    0    0  503  502  0.00000000000E+00  0.00000000000E+00  0.57829826719E+01  0.57829826719E+01  0.00000000000E+00 0.  1.
         21   -1    0    0  501  503 -0.00000000000E+00 -0.00000000000E+00 -0.19632529918E+03  0.19632529918E+03  0.00000000000E+00 0. -1.
          2    1    1    2  501    0  0.33305127255E+02  0.51035170844E+01 -0.96055609730E+02  0.10179370093E+03  0.00000000000E+00 0. -1.
         -2    1    1    2    0  502 -0.33305127255E+02 -0.51035170844E+01 -0.94486706782E+02  0.10031458093E+03  0.00000000000E+00 0.  1.
</event>
<event>
 4    1  0.1848744E+004  0.2455776E+02  0.7546771E-02  0.1473812E+00
         21   -1    0    0  503  502  0.00000000000E+00  0.00000000000E+00  0.17350480881E+02  0.17350480881E+02  0.00000000000E+00 0.  1.
         21   -1    0    0  501  503 -0.00000000000E+00 -0.00000000000E+00 -0.39847436251E+02  0.39847436251E+02  0.00000000000E+00 0. -1.
          2    1    1    2  501    0  0.24496873389E+02  0.17281787472E+01 -0.21468386228E+02  0.32618629874E+02  0.00000000000E+00 0.  1.
         -2    1    1    2    0  502 -0.24496873389E+02 -0.17281787472E+01 -0.10285691422E+01  0.24579287258E+02  0.00000000000E+00 0. -1.
</event>
<event>
 4    1  0.1848744E+004  0.3596166E+02  0.7546771E-02  0.1373926E+00
         21   -1    0    0  501  502  0.00000000000E+00  0.00000000000E+00  0.77749580170E+02  0.77749580170E+02  0.00000000000E+00 0. -1.
         21   -1    0    0  502  503 -0.00000000000E+00 -0.00000000000E+00 -0.21415010436E+02  0.21415010436E+02  0.00000000000E+00 0.  1.
          2    1    1    2  501    0  0.35597782129E+02  0.51028001506E+01  0.51596304343E+02  0.62892124179E+02  0.00000000000E+00 0. -1.
         -2    1    1    2    0  503 -0.35597782129E+02 -0.51028001506E+01  0.47382653909E+01  0.36272466428E+02  0.00000000000E+00 0.  1.
</event>
<event>
 4    1  0.1848744E+004  0.2285798E+02  0.7546771E-02  0.1494289E+00
         21   -1    0    0  501  502  0.00000000000E+00  0.00000000000E+00  0.29832950456E+03  0.29832950456E+03  0.00000000000E+00 0.  1.
         21   -1    0    0  502  503 -0.00000000000E+00 -0.00000000000E+00 -0.17813370384E+01  0.17813370384E+01  0.00000000000E+00 0. -1.
          2    1    1    2  501    0 -0.17557926411E+02 -0.14635788820E+02  0.12881340223E+03  0.13082576080E+03  0.00000000000E+00 0.  1.
         -2    1    1    2    0  503  0.17557926411E+02  0.14635788820E+02  0.16773476529E+03  0.16928508080E+03  0.00000000000E+00 0. -1.
</event>
<event>
 4    1  0.1848744E+004  0.2281564E+02  0.7546771E-02  0.1494826E+00
         21   -1    0    0  501  502  0.00000000000E+00  0.00000000000E+00  0.58143960482E+02  0.58143960482E+02  0.00000000000E+00 0. -1.
         21   -1    0    0  502  503 -0.00000000000E+00 -0.00000000000E+00 -0.11658991635E+02  0.11658991635E+02  0.00000000000E+00 0.  1.
          2    1    1    2  501    0  0.19733872134E+02 -0.11451093205E+02  0.40057211356E+02  0.46099169479E+02  0.00000000000E+00 0. -1.
         -2    1    1    2    0  503 -0.19733872134E+02  0.11451093205E+02  0.64277574912E+01  0.23703782638E+02  0.00000000000E+00 0.  1.
</event>
<event>
 4    1  0.1848744E+004  0.2719390E+02  0.7546771E-02  0.1445670E+00
         21   -1    0    0  503  502  0.00000000000E+00  0.00000000000E+00  0.16354745028E+02  0.16354745028E+02  0.00000000000E+00 0. -1.
         21   -1    0    0  501  503 -0.00000000000E+00 -0.00000000000E+00 -0.53214025339E+02  0.53214025339E+02  0.00000000000E+00 0.  1.
          2    1    1    2  501    0  0.10776143573E+01  0.27172538795E+02 -0.31914387008E+02  0.41928942455E+02  0.00000000000E+00 0. -1.
         -2    1    1    2    0  502 -0.10776143573E+01 -0.27172538795E+02 -0.49448933028E+01  0.27639827913E+02  0.00000000000E+00 0.  1.
</event>
<event>
 4    1  0.1848744E+004  0.2068617E+02  0.7546771E-02  0.1523793E+00
         21   -1    0    0  501  502  0.00000000000E+00  0.00000000000E+00  0.65631729983E+02  0.65631729983E+02  0.00000000000E+00 0. -1.
         21   -1    0    0  502  503 -0.00000000000E+00 -0.00000000000E+00 -0.86930237034E+01  0.86930237034E+01  0.00000000000E+00 0.  1.
          2    1    1    2  501    0 -0.10153916880E+02  0.18022645846E+02  0.47049619675E+02  0.51396347174E+02  0.00000000000E+00 0.  1.
         -2    1    1    2    0  503  0.10153916880E+02 -0.18022645846E+02  0.98890866047E+01  0.22928406512E+02  0.00000000000E+00 0. -1.
</event>
<event>
 4    1  0.1848744E+004  0.2337863E+02  0.7546771E-02  0.1487798E+00
         21   -1    0    0  501  502  0.00000000000E+00  0.00000000000E+00  0.50164715222E+02  0.50164715222E+02  0.00000000000E+00 0. -1.
         21   -1    0    0  502  503 -0.00000000000E+00 -0.00000000000E+00 -0.10902278885E+02  0.10902278885E+02  0.00000000000E+00 0.  1.
          2    1    1    2  501    0 -0.18854312711E+02 -0.13822996417E+02  0.20402949937E+02  0.31029674570E+02  0.00000000000E+00 0. -1.
         -2    1    1    2    0  503  0.18854312711E+02  0.13822996417E+02  0.18859486399E+02  0.30037319537E+02  0.00000000000E+00 0.  1.
</event>
<event>
 4    1  0.1848744E+004  0.2061266E+02  0.7546771E-02  0.1524868E+00
         21   -1    0    0  501  502  0.00000000000E+00  0.00000000000E+00  0.10212220887E+03  0.10212220887E+03  0.00000000000E+00 0.  1.
         21   -1    0    0  502  503 -0.00000000000E+00 -0.00000000000E+00 -0.53389478632E+02  0.53389478632E+02  0.00000000000E+00 0. -1.
          2    1    1    2  501    0  0.16561446815E+02  0.12271925704E+02  0.99031097850E+02  0.10115354676E+03  0.00000000000E+00 0.  1.
         -2    1    1    2    0  503 -0.16561446815E+02 -0.12271925704E+02 -0.50298367609E+02  0.54358140744E+02  0.00000000000E+00 0. -1.
</event>
<event>
 4    1  0.1848744E+004  0.5464579E+02  0.7546771E-02  0.1279196E+00
         21   -1    0    0  501  502  0.00000000000E+00  0.00000000000E+00  0.16058310756E+03  0.16058310756E+03  0.00000000000E+00 0.  1.
         21   -1    0    0  502  503 -0.00000000000E+00 -0.00000000000E+00 -0.23458682298E+02  0.23458682298E+02  0.00000000000E+00 0. -1.
          2    1    1    2  501    0 -0.23192434540E+02  0.49480028163E+02  0.11045932270E+03  0.12323726781E+03  0.00000000000E+00 0.  1.
         -2    1    1    2    0  503  0.23192434540E+02 -0.49480028163E+02  0.26665102571E+02  0.60804522052E+02  0.00000000000E+00 0. -1.
</event>
<event>
 4    1  0.1848744E+004  0.1194208E+03  0.7546771E-02  0.1133853E+00
         21   -1    0    0  503  502  0.00000000000E+00  0.00000000000E+00  0.30883778397E+03  0.30883778397E+03  0.00000000000E+00 0. -1.
         21   -1    0    0  501  503 -0.00000000000E+00 -0.00000000000E+00 -0.97146322664E+02  0.97146322664E+02  0.00000000000E+00 0.  1.
          2    1    1    2  501    0  0.18920521177E+02 -0.11791247963E+03 -0.41188481961E+02  0.12632430495E+03  0.00000000000E+00 0.  1.
         -2    1    1    2    0  502 -0.18920521177E+02  0.11791247963E+03  0.25287994327E+03  0.27965980169E+03  0.00000000000E+00 0. -1.
</event>
<event>
 4    1  0.1848744E+004  0.2173459E+02  0.7546771E-02  0.1509030E+00
         21   -1    0    0  501  502  0.00000000000E+00  0.00000000000E+00  0.52821748571E+03  0.52821748571E+03  0.00000000000E+00 0. -1.
         21   -1    0    0  502  503 -0.00000000000E+00 -0.00000000000E+00 -0.11960697699E+01  0.11960697699E+01  0.00000000000E+00 0.  1.
          2    1    1    2  501    0 -0.21457425904E+02 -0.34599558557E+01  0.39646869186E+03  0.39706399490E+03  0.00000000000E+00 0. -1.
         -2    1    1    2    0  503  0.21457425904E+02  0.34599558557E+01  0.13055272408E+03  0.13234956058E+03  0.00000000000E+00 0.  1.
</event>
<event>
 4    1  0.1848744E+004  0.2325882E+02  0.7546771E-02  0.1489273E+00
         21   -1    0    0  503  502  0.00000000000E+00  0.00000000000E+00  0.73745060431E+02  0.73745060431E+02  0.00000000000E+00 0.  1.
         21   -1    0    0  501  503 -0.00000000000E+00 -0.00000000000E+00 -0.17247070149E+02  0.17247070149E+02  0.00000000000E+00 0. -1.
          2    1    1    2  501    0  0.16246207367E+02  0.16644317740E+02 -0.62401750973E+01  0.24081369398E+02  0.00000000000E+00 0. -1.
         -2    1    1    2    0  502 -0.16246207367E+02 -0.16644317740E+02  0.62738165380E+02  0.66910761183E+02  0.00000000000E+00 0.  1.
</event>
<event>
 4    1  0.1848744E+004  0.2124110E+02  0.7546771E-02  0.1515850E+00
         21   -1    0    0  503  502  0.00000000000E+00  0.00000000000E+00  0.66154570733E+02  0.66154570733E+02  0.00000000000E+00 0.  1.
         21   -1    0    0  501  503 -0.00000000000E+00 -0.00000000000E+00 -0.71262901300E+01  0.71262901300E+01  0.00000000000E+00 0. -1.
          2    1    1    2  501    0  0.11319918033E+02 -0.17973416968E+02  0.21919850496E+02  0.30523173288E+02  0.00000000000E+00 0. -1.
         -2    1    1    2    0  502 -0.11319918033E+02  0.17973416968E+02  0.37108430106E+02  0.42757687575E+02  0.00000000000E+00 0.  1.
</event>
<event>
 4    1  0.1848744E+004  0.2161307E+02  0.7546771E-02  0.1510689E+00
         21   -1    0    0  503  502  0.00000000000E+00  0.00000000000E+00  0.31639021744E+03  0.31639021744E+03  0.00000000000E+00 0. -1.
         21   -1    0    0  501  503 -0.00000000000E+00 -0.00000000000E+00 -0.18304197560E+01  0.18304197560E+01  0.00000000000E+00 0.  1.
          2    1    1    2  501    0  0.20844141178E+02 -0.57137261342E+01  0.87307881331E+02  0.89943265619E+02  0.00000000000E+00 0.  1.
         -2    1    1    2    0  502 -0.20844141178E+02  0.57137261342E+01  0.22725191635E+03  0.22827737158E+03  0.00000000000E+00 0. -1.
</event>
<event>
 4    1  0.1848744E+004  0.2108142E+02  0.7546771E-02  0.1518105E+00
         21   -1    0    0  503  502  0.00000000000E+00  0.00000000000E+00  0.14777539920E+03  0.14777539920E+03  0.00000000000E+00 0. -1.
         21   -1    0    0  501  503 -0.00000000000E+00 -0.00000000000E+00 -0.19465802783E+02  0.19465802783E+02  0.00000000000E+00 0.  1.
          2    1    1    2  501    0 -0.18496564610E+02 -0.10114507850E+02 -0.12735296120E+02  0.24629533870E+02  0.00000000000E+00 0.  1.
         -2    1    1    2    0  502  0.18496564610E+02  0.10114507850E+02  0.14104489254E+03  0.14261166811E+03  0.00000000000E+00 0. -1.
</event>
<event>
 4    1  0.1848744E+004  0.3009497E+02  0.7546771E-02  0.1418773E+00
         21   -1    0    0  501  502  0.00000000000E+00  0.00000000000E+00  0.18100606249E+04  0.18100606249E+04  0.00000000000E+00 0.  1.
         21   -1    0    0  502  503 -0.00000000000E+00 -0.00000000000E+00 -0.52423108285E+00  0.52423108285E+00  0.00000000000E+00 0. -1.
          2    1    1    2  501    0  0.30094585922E+02 -0.15251489236E+00  0.10978919681E+04  0.10983043663E+04  0.00000000000E+00 0. -1.
         -2    1    1    2    0  503 -0.30094585922E+02  0.15251489236E+00  0.71164442567E+03  0.71228048966E+03  0.00000000000E+00 0.  1.
</event>
<event>
 4    1  0.1848744E+004  0.2715024E+02  0.7546771E-02  0.1446105E+00
         21   -1    0    0  501  502  0.00000000000E+00  0.00000000000E+00  0.28489757255E+03  0.28489757255E+03  0.00000000000E+00 0. -1.
         21   -1    0    0  502  503 -0.00000000000E+00 -0.00000000000E+00 -0.65602503945E+01  0.65602503945E+01  0.00000000000E+00 0.  1.
          2    1    1    2  501    0  0.47098546908E+01  0.26738596894E+02  0.25257524915E+03  0.25403029697E+03  0.00000000000E+00 0. -1.
         -2    1    1    2    0  503 -0.47098546908E+01 -0.26738596894E+02  0.25762073005E+02  0.37427525974E+02  0.00000000000E+00 0.  1.
</event>
<event>
 4    1  0.1848744E+004  0.2776723E+02  0.7546771E-02  0.1440050E+00
         21   -1    0    0  501  502  0.00000000000E+00  0.00000000000E+00  0.74297343249E+02  0.74297343249E+02  0.00000000000E+00 0.  1.
         21   -1    0    0  502  503 -0.00000000000E+00 -0.00000000000E+00 -0.11018569135E+02  0.11018569135E+02  0.00000000000E+00 0. -1.
          2    1    1    2  501    0  0.22917782384E+02  0.15677832425E+02  0.41928945037E+02  0.50289716751E+02  0.00000000000E+00 0.  1.
         -2    1    1    2    0  503 -0.22917782384E+02 -0.15677832425E+02  0.21349829078E+02  0.35026195634E+02  0.00000000000E+00 0. -1.
</event>
<event>
 4    1  0.1848744E+004  0.3646704E+02  0.7546771E-02  0.1370533E+00
         21   -1    0    0  501  502  0.00000000000E+00  0.00000000000E+00  0.12374340045E+03  0.12374340045E+03  0.00000000000E+00 0.  1.
         21   -1    0    0  502  503 -0.00000000000E+00 -0.00000000000E+00 -0.26863663816E+02  0.26863663816E+02  0.00000000000E+00 0. -1.
          2    1    1    2  501    0  0.20843694264E+02  0.29922986864E+02  0.10676733111E+03  0.11282334743E+03  0.00000000000E+00 0.  1.
         -2    1    1    2    0  503 -0.20843694264E+02 -0.29922986864E+02 -0.98875944731E+01  0.37783716836E+02  0.00000000000E+00 0. -1.
</event>
<event>
 4    1  0.1848744E+004  0.2227961E+02  0.7546771E-02  0.1501748E+00
         21   -1    0    0  503  502  0.00000000000E+00  0.00000000000E+00  0.20823969680E+02  0.20823969680E+02  0.00000000000E+00 0. -1.
         21   -1    0    0  501  503 -0.00000000000E+00 -0.00000000000E+00 -0.83018931081E+02  0.83018931081E+02  0.00000000000E+00 0.  1.
          2    1    1    2  501    0  0.16653863834E+02  0.14799652729E+02 -0.74935691852E+02  0.78177610700E+02  0.00000000000E+00 0.  1.
         -2    1    1    2    0  502 -0.16653863834E+02 -0.14799652729E+02  0.12740730451E+02  0.25665290061E+02  0.00000000000E+00 0. -1.
</event>
<event>
 4    1  0.1848744E+004  0.2189171E+02  0.7546771E-02  0.1506904E+00
         21   -1    0    0  503  502  0.00000000000E+00  0.00000000000E+00  0.35109966950E+02  0.35109966950E+02  0.00000000000E+00 0.  1.
         21   -1    0    0  501  503 -0.00000000000E+00 -0.00000000000E+00 -0.22077201007E+02  0.22077201007E+02  0.00000000000E+00 0. -1.
          2    1    1    2  501    0 -0.19347459574E+02 -0.10243177624E+02 -0.11149743059E+02  0.24567532437E+02  0.00000000000E+00 0. -1.
         -2    1    1    2    0  502  0.19347459574E+02  0.10243177624E+02  0.24182509001E+02  0.32619635519E+02  0.00000000000E+00 0.  1.
</event>
<event>
 4    1  0.1848744E+004  0.2208340E+02  0.7546771E-02  0.1504340E+00
         21   -1    0    0  501  502  0.00000000000E+00  0.00000000000E+00  0.28297272468E+01  0.28297272468E+01  0.00000000000E+00 0. -1.
         21   -1    0    0  502  503 -0.00000000000E+00 -0.00000000000E+00 -0.73938109683E+03  0.73938109683E+03  0.00000000000E+00 0.  1.
          2    1    1    2  501    0 -0.17045915334E+02 -0.14039707578E+02 -0.43285539853E+02  0.48593359411E+02  0.00000000000E+00 0. -1.
         -2    1    1    2    0  503  0.17045915334E+02  0.14039707578E+02 -0.69326582973E+03  0.69361746467E+03  0.00000000000E+00 0.  1.
</event>
<event>
 4    1  0.1848744E+004  0.3860422E+02  0.7546771E-02  0.1356865E+00
         21   -1    0    0  503  502  0.00000000000E+00  0.00000000000E+00  0.72031038870E+01  0.72031038870E+01  0.00000000000E+00 0.  1.
         21   -1    0    0  501  503 -0.00000000000E+00 -0.00000000000E+00 -0.20818327807E+03  0.20818327807E+03  0.00000000000E+00 0. -1.
          2    1    1    2  501    0  0.12924527910E+02 -0.36376393736E+02 -0.10896211441E+03  0.11559856323E+03  0.00000000000E+00 0. -1.
         -2    1    1    2    0  502 -0.12924527910E+02  0.36376393736E+02 -0.92018059769E+02  0.99787818729E+02  0.00000000000E+00 0.  1.
</event>
<event>
 4    1  0.1848744E+004  0.2098316E+02  0.7546771E-02  0.1519505E+00
         21   -1    0    0  503  502  0.00000000000E+00  0.00000000000E+00  0.61902240429E+01  0.61902240429E+01  0.00000000000E+00 0.  1.
         21   -1    0    0  501  503 -0.00000000000E+00 -0.00000000000E+00 -0.10870756708E+03  0.10870756708E+03  0.00000000000E+00 0. -1.
          2    1    1    2  501    0 -0.12303346682E+02 -0.16997660888E+02 -0.85036580464E+02  0.87587172761E+02  0.00000000000E+00 0. -1.
         -2    1    1    2    0  502  0.12303346682E+02  0.16997660888E+02 -0.17480762576E+02  0.27310618365E+02  0.00000000000E+00 0.  1.
</event>
<event>
 4    1  0.1848744E+004  0.2634630E+02  0.7546771E-02  0.1454288E+00
         21   -1    0    0  503  502  0.00000000000E+00  0.00000000000E+00  0.25959553455E+03  0.25959553455E+03  0.00000000000E+00 0.  1.
         21   -1    0    0  501  503 -0.00000000000E+00 -0.00000000000E+00 -0.39561760705E+01  0.39561760705E+01  0.00000000000E+00 0. -1.
          2    1    1    2  501    0  0.25790158445E+02  0.53847047938E+01  0.52797066161E+02  0.59005571885E+02  0.00000000000E+00 0. -1.
         -2    1    1    2    0  502 -0.25790158445E+02 -0.53847047938E+01  0.20284229232E+03  0.20454613873E+03  0.00000000000E+00 0.  1.
</event>
<event>
 4    1  0.1848744E+004  0.2099853E+02  0.7546771E-02  0.1519286E+00
         21   -1    0    0  503  502  0.00000000000E+00  0.00000000000E+00  0.15375638767E+02  0.15375638767E+02  0.00000000000E+00 0. -1.
         21   -1    0    0  501  503 -0.00000000000E+00 -0.00000000000E+00 -0.15387039234E+03  0.15387039234E+03  0.00000000000E+00 0.  1.
          2    1    1    2  501    0 -0.11837596127E+02  0.17343868286E+02 -0.14557827991E+03  0.14708492115E+03  0.00000000000E+00 0.  1.
         -2    1    1    2    0  502  0.11837596127E+02 -0.17343868286E+02  0.70835263337E+01  0.22161109956E+02  0.00000000000E+00 0. -1.
</event>
<event>
 4    1  0.1848744E+004  0.2197401E+02  0.7546771E-02  0.1505800E+00
         21   -1    0    0  503  502  0.00000000000E+00  0.00000000000E+00  0.16650207533E+03  0.16650207533E+03  0.00000000000E+00 0.  1.
         21   -1    0    0  501  503 -0.00000000000E+00 -0.00000000000E+00 -0.60103979310E+01  0.60103979310E+01  0.00000000000E+00 0. -1.
          2    1    1    2  501    0 -0.18118374555E+02  0.12433078050E+02  0.18195166691E+02  0.28529301029E+02  0.00000000000E+00 0. -1.
         -2    1    1    2    0  502  0.18118374555E+02 -0.12433078050E+02  0.14229651071E+03  0.14398317224E+03  0.00000000000E+00 0.  1.
</event>
<event>
 4    1  0.1848744E+004  0.3163975E+02  0.7546771E-02  0.1405863E+00
         21   -1    0    0  501  502  0.00000000000E+00  0.00000000000E+00  0.30589740768E+02  0.30589740768E+02  0.00000000000E+00 0. -1.
         21   -1    0    0  502  503 -0.00000000000E+00 -0.00000000000E+00 -0.47746858943E+02  0.47746858943E+02  0.00000000000E+00 0.  1.
          2    1    1    2  501    0 -0.49840520920E+01 -0.31244732183E+02  0.13390549666E+02  0.34356671620E+02  0.00000000000E+00 0.  1.
         -2    1    1    2    0  503  0.49840520920E+01  0.31244732183E+02 -0.30547667841E+02  0.43979928092E+02  0.00000000000E+00 0. -1.
</event>
<event>
 4    1  0.1848744E+004  0.2248970E+02  0.7546771E-02  0.1499007E+00
         21   -1    0    0  503  502  0.00000000000E+00  0.00000000000E+00  0.32846588746E+02  0.32846588746E+02  0.00000000000E+00 0. -1.
         21   -1    0    0  501  503 -0.00000000000E+00 -0.00000000000E+00 -0.31066621074E+02  0.31066621074E+02  0.00000000000E+00 0.  1.
          2    1    1    2  501    0  0.11089183506E+01 -0.22462343692E+02 -0.21804628214E+02  0.31324565370E+02  0.00000000000E+00 0.  1.
         -2    1    1    2    0  502 -0.11089183506E+01  0.22462343692E+02  0.23584595886E+02  0.32588644451E+02  0.00000000000E+00 0. -1.
</event>
<event>
 4    1  0.1848744E+004  0.2134806E+02  0.7546771E-02  0.1514353E+00
         21   -1    0    0  501  502  0.00000000000E+00  0.00000000000E+00  0.15866661360E+03  0.15866661360E+03  0.00000000000E+00 0.  1.
         21   -1    0    0  502  503 -0.00000000000E+00 -0.00000000000E+00 -0.36906035763E+01  0.36906035763E+01  0.00000000000E+00 0. -1.
          2    1    1    2  501    0 -0.19622257689E+01 -0.21257686839E+02  0.11571302118E+03  0.11766581003E+03  0.00000000000E+00 0.  1.
         -2    1    1    2    0  503  0.19622257689E+01  0.21257686839E+02  0.39262988847E+02  0.44691407148E+02  0.00000000000E+00 0. -1.
</event>
<event>
 4    1  0.1848744E+004  0.2542743E+02  0.7546771E-02  0.1464078E+00
         21   -1    0    0  503  502  0.00000000000E+00  0.00000000000E+00  0.12517189345E+02  0.12517189345E+02  0.00000000000E+00 0. -1.
         21   -1    0    0  501  503 -0.00000000000E+00 -0.00000000000E+00 -0.68058985213E+02  0.68058985213E+02  0.00000000000E+00 0.  1.
          2    1    1    2  501    0 -0.92502789097E+01 -0.23685151041E+02 -0.47551121865E+02  0.53922752437E+02  0.00000000000E+00 0.  1.
         -2    1    1    2    0  502  0.92502789097E+01  0.23685151041E+02 -0.79906740028E+01  0.26653422121E+02  0.00000000000E+00 0. -1.
</event>
<event>
 4    1  0.1848744E+004  0.2349399E+02  0.7546771E-02  0.1486387E+00
         21   -1    0    0  501  502  0.00000000000E+00  0.00000000000E+00  0.49908738986E+03  0.49908738986E+03  0.00000000000E+00 0. -1.
         21   -1    0    0  502  503 -0.00000000000E+00 -0.00000000000E+00 -0.18697947217E+01  0.18697947217E+01  0.00000000000E+00 0.  1.
          2    1    1    2  501    0  0.23079247134E+02 -0.43949680410E+01  0.40870286012E+03  0.40937757054E+03  0.00000000000E+00 0. -1.
         -2    1    1    2    0  503 -0.23079247134E+02  0.43949680410E+01  0.88514735020E+02  0.91579614042E+02  0.00000000000E+00 0.  1.
</event>
<event>
 4    1  0.1848744E+004  0.3365149E+02  0.7546771E-02  0.1390300E+00
         21   -1    0    0  503  502  0.00000000000E+00  0.00000000000E+00  0.15807914632E+03  0.15807914632E+03  0.00000000000E+00 0. -1.
         21   -1    0    0  501  503 -0.00000000000E+00 -0.00000000000E+00 -0.13649602805E+02  0.13649602805E+02  0.00000000000E+00 0.  1.
          2    1    1    2  501    0  0.22867737484E+02  0.24687836926E+02  0.13025894663E+02  0.36084576227E+02  0.00000000000E+00 0.  1.
         -2    1    1    2    0  502 -0.22867737484E+02 -0.24687836926E+02  0.13140364886E+03  0.13564417290E+03  0.00000000000E+00 0. -1.
</event>
<event>
 4    1  0.1848744E+004  0.2121077E+02  0.7546771E-02  0.1516277E+00
         21   -1    0    0  503  502  0.00000000000E+00  0.00000000000E+00  0.60484759472E+00  0.60484759472E+00  0.00000000000E+00 0.  1.
         21   -1    0    0  501  503 -0.00000000000E+00 -0.00000000000E+00 -0.83233954797E+03  0.83233954797E+03  0.00000000000E+00 0. -1.
          2    1    1    2  501    0 -0.19539492441E+02  0.82525795812E+01 -0.28004882606E+03  0.28085092453E+03  0.00000000000E+00 0.  1.
         -2    1    1    2    0  502  0.19539492441E+02 -0.82525795812E+01 -0.55168587432E+03  0.55209347103E+03  0.00000000000E+00 0. -1.
</event>
<event>
 4    1  0.1848744E+004  0.2088227E+02  0.7546771E-02  0.1520952E+00
         21   -1    0    0  501  502  0.00000000000E+00  0.00000000000E+00  0.59070201056E+01  0.59070201056E+01  0.00000000000E+00 0.  1.
         21   -1    0    0  502  503 -0.00000000000E+00 -0.00000000000E+00 -0.70624881537E+03  0.70624881537E+03  0.00000000000E+00 0. -1.
          2    1    1    2  501    0 -0.10961258599E+02  0.17774134655E+02 -0.13216402452E+02  0.24713201869E+02  0.00000000000E+00 0.  1.
         -2    1    1    2    0  503  0.10961258599E+02 -0.17774134655E+02 -0.68712539282E+03  0.68744263361E+03  0.00000000000E+00 0. -1.
</event>
<event>
 4    1  0.1848744E+004  0.2968649E+02  0.7546771E-02  0.1422341E+00
         21   -1    0    0  501  502  0.00000000000E+00  0.00000000000E+00  0.28836977961E+03  0.28836977961E+03  0.00000000000E+00 0.  1.
         21   -1    0    0  502  503 -0.00000000000E+00 -0.00000000000E+00 -0.47717074109E+01  0.47717074109E+01  0.00000000000E+00 0. -1.
          2    1    1    2  501    0  0.29686435426E+02  0.58107587990E-01  0.22968488087E+03  0.23159540653E+03  0.00000000000E+00 0.  1.
         -2    1    1    2    0  503 -0.29686435426E+02 -0.58107587990E-01  0.53913191332E+02  0.61546080496E+02  0.00000000000E+00 0. -1.
</event>
<event>
 4    1  0.1848744E+004  0.2420438E+02  0.7546771E-02  0.1477904E+00
         21   -1    0    0  503  502  0.00000000000E+00  0.00000000000E+00  0.18149404392E+01  0.18149404392E+01  0.00000000000E+00 0.  1.
         21   -1    0    0  501  503 -0.00000000000E+00 -0.00000000000E+00 -0.32819255210E+03  0.32819255210E+03  0.00000000000E+00 0. -1.
          2    1    1    2  501    0  0.22726529509E+02  0.83280819275E+01 -0.18435113587E+03  0.18593330361E+03  0.00000000000E+00 0. -1.
         -2    1    1    2    0  502 -0.22726529509E+02 -0.83280819275E+01 -0.14202647579E+03  0.14407418894E+03  0.00000000000E+00 0.  1.
</event>
<event>
 4    1  0.1848744E+004  0.3385538E+02  0.7546771E-02  0.1388794E+00
         21   -1    0    0  503  502  0.00000000000E+00  0.00000000000E+00  0.13146141765E+03  0.13146141765E+03  0.00000000000E+00 0.  1.
         21   -1    0    0  501  503 -0.00000000000E+00 -0.00000000000E+00 -0.33952904580E+02  0.33952904580E+02  0.00000000000E+00 0. -1.
          2    1    1    2  501    0 -0.30500326840E+02 -0.14694099294E+02 -0.22547224724E+02  0.40676330147E+02  0.00000000000E+00 0. -1.
         -2    1    1    2    0  502  0.30500326840E+02  0.14694099294E+02  0.12005573780E+03  0.12473799209E+03  0.00000000000E+00 0.  1.
</event>
<event>
 4    1  0.1848744E+004  0.3068953E+02  0.7546771E-02  0.1413697E+00
         21   -1    0    0  503  502  0.00000000000E+00  0.00000000000E+00  0.10918069968E+02  0.10918069968E+02  0.00000000000E+00 0.  1.
         21   -1    0    0  501  503 -0.00000000000E+00 -0.00000000000E+00 -0.88496541637E+02  0.88496541637E+02  0.00000000000E+00 0. -1.
          2    1    1    2  501    0 -0.71895483267E+00 -0.30681110719E+02 -0.30895941856E+02  0.43547751655E+02  0.00000000000E+00 0. -1.
         -2    1    1    2    0  502  0.71895483267E+00  0.30681110719E+02 -0.46682529813E+02  0.55866859950E+02  0.00000000000E+00 0.  1.
</event>
<event>
 4    1  0.1848744E+004  0.2224023E+02  0.7546771E-02  0.1502266E+00
         21   -1    0    0  501  502  0.00000000000E+00  0.00000000000E+00  0.11677296448E+03  0.11677296448E+03  0.00000000000E+00 0.  1.
         21   -1    0    0  502  503 -0.00000000000E+00 -0.00000000000E+00 -0.55459854770E+01  0.55459854770E+01  0.00000000000E+00 0. -1.
          2    1    1    2  501    0  0.20312658722E+02 -0.90566855915E+01  0.85339712509E+02  0.88190102559E+02  0.00000000000E+00 0.  1.
         -2    1    1    2    0  503 -0.20312658722E+02  0.90566855915E+01  0.25887266499E+02  0.34128847403E+02  0.00000000000E+00 0. -1.
</event>
<event>
 4    1  0.1848744E+004  0.3092096E+02  0.7546771E-02  0.1411758E+00
         21   -1    0    0  501  502  0.00000000000E+00  0.00000000000E+00  0.15244151546E+02  0.15244151546E+02  0.00000000000E+00 0. -1.
         21   -1    0    0  502  503 -0.00000000000E+00 -0.00000000000E+00 -0.29673525244E+03  0.29673525244E+03  0.00000000000E+00 0.  1.
          2    1    1    2  501    0  0.30912796283E+02 -0.71046056530E+00 -0.22187215987E+01  0.31000458928E+02  0.00000000000E+00 0. -1.
         -2    1    1    2    0  503 -0.30912796283E+02  0.71046056530E+00 -0.27927237930E+03  0.28097894506E+03  0.00000000000E+00 0.  1.
</event>
<event>
 4    1  0.1848744E+004  0.2045036E+02  0.7546771E-02  0.1527259E+00
         21   -1    0    0  501  502  0.00000000000E+00  0.00000000000E+00  0.15508953570E+03  0.15508953570E+03  0.00000000000E+00 0.  1.
         21   -1    0    0  502  503 -0.00000000000E+00 -0.00000000000E+00 -0.11565529067E+02  0.11565529067E+02  0.00000000000E+00 0. -1.
          2    1    1    2  501    0  0.20402022792E+02  0.14052171353E+01  0.14473142915E+03  0.14616909302E+03  0.00000000000E+00 0.  1.
         -2    1    1    2    0  503 -0.20402022792E+02 -0.14052171353E+01 -0.12074225242E+01  0.20485971745E+02  0.00000000000E+00 0. -1.
</event>
<event>
 4    1  0.1848744E+004  0.2845843E+02  0.7546771E-02  0.1433483E+00
         21   -1    0    0  501  502  0.00000000000E+00  0.00000000000E+00  0.19288103811E+01  0.19288103811E+01  0.00000000000E+00 0. -1.
         21   -1    0    0  502  503 -0.00000000000E+00 -0.00000000000E+00 -0.66287590880E+03  0.66287590880E+03  0.00000000000E+00 0.  1.
          2    1    1    2  501    0  0.17140559045E+02  0.22717475427E+02 -0.12922109618E+03  0.13231770158E+03  0.00000000000E+00 0. -1.
         -2    1    1    2    0  503 -0.17140559045E+02 -0.22717475427E+02 -0.53172600224E+03  0.53248701760E+03  0.00000000000E+00 0.  1.
</event>
<event>
 4    1  0.1848744E+004  0.2287837E+02  0.7546771E-02  0.1494031E+00
         21   -1    0    0  503  502  0.00000000000E+00  0.00000000000E+00  0.21556742820E+02  0.21556742820E+02  0.00000000000E+00 0.  1.
         21   -1    0    0  501  503 -0.00000000000E+00 -0.00000000000E+00 -0.87640107527E+02  0.87640107527E+02  0.00000000000E+00 0. -1.
          2    1    1    2  501    0  0.38186765675E+01 -0.22557423125E+02 -0.79464675057E+02  0.82692528143E+02  0.00000000000E+00 0. -1.
         -2    1    1    2    0  502 -0.38186765675E+01  0.22557423125E+02  0.13381310350E+02  0.26504322204E+02  0.00000000000E+00 0.  1.
</event>
<event>
 4    1  0.1848744E+004  0.2149822E+02  0.7546771E-02  0.1512269E+00
         21   -1    0    0  501  502  0.00000000000E+00  0.00000000000E+00  0.84587168444E+03  0.84587168444E+03  0.00000000000E+00 0.  1.
         21   -1    0    0  502  503 -0.00000000000E+00 -0.00000000000E+00 -0.71821992485E+00  0.71821992485E+00  0.00000000000E+00 0. -1.
          2    1    1    2  501    0  0.18790331123E+02  0.10444946161E+02  0.62962296325E+03  0.62998988031E+03  0.00000000000E+00 0.  1.
         -2    1    1    2    0  503 -0.18790331123E+02 -0.10444946161E+02  0.21553050126E+03  0.21660002405E+03  0.00000000000E+00 0. -1.
</event>
<event>
 4    1  0.1848744E+004  0.2656844E+02  0.7546771E-02  0.1451992E+00
         21   -1    0    0  501  502  0.00000000000E+00  0.00000000000E+00  0.61341913543E+01  0.61341913543E+01  0.00000000000E+00 0. -1.
         21   -1    0    0  502  503 -0.00000000000E+00 -0.00000000000E+00 -0.88991768121E+03  0.88991768121E+03  0.00000000000E+00 0.  1.
          2    1    1    2  501    0  0.19765346244E+02 -0.17754234577E+02 -0.23834766723E+02  0.35692826483E+02  0.00000000000E+00 0. -1.
         -2    1    1    2    0  503 -0.19765346244E+02  0.17754234577E+02 -0.85994872313E+03  0.86035904608E+03  0.00000000000E+00 0.  1.
</event>
<event>
 4    1  0.1848744E+004  0.2339754E+02  0.7546771E-02  0.1487566E+00
         21   -1    0    0  503  502  0.00000000000E+00  0.00000000000E+00  0.18269206805E+03  0.18269206805E+03  0.00000000000E+00 0.  1.
         21   -1    0    0  501  503 -0.00000000000E+00 -0.00000000000E+00 -0.75384189752E+01  0.75384189752E+01  0.00000000000E+00 0. -1.
          2    1    1    2  501    0 -0.68600355805E+01 -0.22369283362E+02  0.13747728945E+02  0.27137519736E+02  0.00000000000E+00 0. -1.
         -2    1    1    2    0  502  0.68600355805E+01  0.22369283362E+02  0.16140592013E+03  0.16309296729E+03  0.00000000000E+00 0.  1.
</event>
<event>
 4    1  0.1848744E+004  0.3251218E+02  0.7546771E-02  0.1398951E+00
         21   -1    0    0  501  502  0.00000000000E+00  0.00000000000E+00  0.18497655532E+03  0.18497655532E+03  0.00000000000E+00 0. -1.
         21   -1    0    0  502  503 -0.00000000000E+00 -0.00000000000E+00 -0.57686736143E+01  0.57686736143E+01  0.00000000000E+00 0.  1.
          2    1    1    2  501    0 -0.29895613377E+02 -0.12778653588E+02  0.98849384375E+02  0.10405884142E+03  0.00000000000E+00 0. -1.
         -2    1    1    2    0  503  0.29895613377E+02  0.12778653588E+02  0.80358497327E+02  0.86686387509E+02  0.00000000000E+00 0.  1.
</event>
<event>
 4    1  0.1848744E+004  0.2108792E+02  0.7546771E-02  0.1518013E+00
         21   -1    0    0  503  502  0.00000000000E+00  0.00000000000E+00  0.81687732087E+02  0.81687732087E+02  0.00000000000E+00 0. -1.
         21   -1    0    0  501  503 -0.00000000000E+00 -0.00000000000E+00 -0.10288265482E+02  0.10288265482E+02  0.00000000000E+00 0.  1.
          2    1    1    2  501    0  0.10089669594E+01  0.21063768398E+02  0.41430318356E+01  0.21491046187E+02  0.00000000000E+00 0.  1.
         -2    1    1    2    0  502 -0.10089669594E+01 -0.21063768398E+02  0.67256434769E+02  0.70484951382E+02  0.00000000000E+00 0. -1.
</event>
<event>
 4    1  0.1848744E+004  0.2047416E+02  0.7546771E-02  0.1526907E+00
         21   -1    0    0  501  502  0.00000000000E+00  0.00000000000E+00  0.47266140291E+03  0.47266140291E+03  0.00000000000E+00 0. -1.
         21   -1    0    0  502  503 -0.00000000000E+00 -0.00000000000E+00 -0.10211983129E+01  0.10211983129E+01  0.00000000000E+00 0.  1.
          2    1    1    2  501    0 -0.84250392024E+01 -0.18660386102E+02  0.32171731484E+03  0.32236814663E+03  0.00000000000E+00 0. -1.
         -2    1    1    2    0  503  0.84250392024E+01  0.18660386102E+02  0.14992288976E+03  0.15131445459E+03  0.00000000000E+00 0.  1.
</event>
<event>
 4    1  0.1848744E+004  0.2174266E+02  0.7546771E-02  0.1508920E+00
         21   -1    0    0  501  502  0.00000000000E+00  0.00000000000E+00  0.12976096199E+03  0.12976096199E+03  0.00000000000E+00 0. -1.
         21   -1    0    0  502  503 -0.00000000000E+00 -0.00000000000E+00 -0.78152422527E+01  0.78152422527E+01  0.00000000000E+00 0.  1.
          2    1    1    2  501    0  0.43278675441E+01  0.21307576870E+02  0.11123224869E+03  0.11333735667E+03  0.00000000000E+00 0. -1.
         -2    1    1    2    0  503 -0.43278675441E+01 -0.21307576870E+02  0.10713471049E+02  0.24238847568E+02  0.00000000000E+00 0.  1.
</event>
<event>
 4    1  0.1848744E+004  0.2444550E+02  0.7546771E-02  0.1475103E+00
         21   -1    0    0  501  502  0.00000000000E+00  0.00000000000E+00  0.36868403991E+03  0.36868403991E+03  0.00000000000E+00 0. -1.
         21   -1    0    0  502  503 -0.00000000000E+00 -0.00000000000E+00 -0.27839632052E+01  0.27839632052E+01  0.00000000000E+00 0.  1.
          2    1    1    2  501    0 -0.11993594178E+01 -0.24416060247E+02  0.30300225679E+03  0.30398675971E+03  0.00000000000E+00 0. -1.
         -2    1    1    2    0  503  0.11993594178E+01  0.24416060247E+02  0.62897819908E+02  0.67481243396E+02  0.00000000000E+00 0.  1.
</event>
<event>
 4    1  0.1848744E+004  0.2102279E+02  0.7546771E-02  0.1518940E+00
         21   -1    0    0  503  502  0.00000000000E+00  0.00000000000E+00  0.26580262952E+02  0.26580262952E+02  0.00000000000E+00 0. -1.
         21   -1    0    0  501  503 -0.00000000000E+00 -0.00000000000E+00 -0.17028482729E+02  0.17028482729E+02  0.00000000000E+00 0.  1.
          2    1    1    2  501    0  0.19892788134E+02 -0.67995961702E+01  0.14290383458E+01  0.21071299875E+02  0.00000000000E+00 0. -1.
         -2    1    1    2    0  502 -0.19892788134E+02  0.67995961702E+01  0.81227418777E+01  0.22537445806E+02  0.00000000000E+00 0.  1.
</event>
<event>
 4    1  0.1848744E+004  0.2325498E+02  0.7546771E-02  0.1489321E+00
         21   -1    0    0  503  502  0.00000000000E+00  0.00000000000E+00  0.32387716715E+03  0.32387716715E+03  0.00000000000E+00 0. -1.
         21   -1    0    0  501  503 -0.00000000000E+00 -0.00000000000E+00 -0.16832230433E+01  0.16832230433E+01  0.00000000000E+00 0.  1.
          2    1    1    2  501    0 -0.11537558540E+02  0.20191055783E+02  0.17566024744E+03  0.17719287944E+03  0.00000000000E+00 0. -1.
         -2    1    1    2    0  502  0.11537558540E+02 -0.20191055783E+02  0.14653369666E+03  0.14836751075E+03  0.00000000000E+00 0.  1.
</event>
<event>
 4    1  0.1848744E+004  0.3655373E+02  0.7546771E-02  0.1369957E+00
         21   -1    0    0  501  502  0.00000000000E+00  0.00000000000E+00  0.50973052395E+03  0.50973052395E+03  0.00000000000E+00 0. -1.
         21   -1    0    0  502  503 -0.00000000000E+00 -0.00000000000E+00 -0.88531660565E+01  0.88531660565E+01  0.00000000000E+00 0.  1.
          2    1    1    2  501    0  0.27960392296E+02  0.23545520034E+02  0.46798279845E+03  0.46940821754E+03  0.00000000000E+00 0. -1.
         -2    1    1    2    0  503 -0.27960392296E+02 -0.23545520034E+02  0.32894559441E+02  0.49175472462E+02  0.00000000000E+00 0.  1.
</event>
<event>
 4    1  0.1848744E+004  0.2042895E+02  0.7546771E-02  0.1527576E+00
         21   -1    0    0  501  502  0.00000000000E+00  0.00000000000E+00  0.23238599333E+03  0.23238599333E+03  0.00000000000E+00 0.  1.
         21   -1    0    0  502  503 -0.00000000000E+00 -0.00000000000E+00 -0.13276589011E+03  0.13276589011E+03  0.00000000000E+00 0. -1.
          2    1    1    2  501    0  0.17847728235E+01 -0.20350841578E+02  0.23114695277E+03  0.23204796043E+03  0.00000000000E+00 0.  1.
         -2    1    1    2    0  503 -0.17847728235E+01  0.20350841578E+02 -0.13152684955E+03  0.13310392301E+03  0.00000000000E+00 0. -1.
</event>
<event>
 4    1  0.1848744E+004  0.3249436E+02  0.7546771E-02  0.1399090E+00
         21   -1    0    0  503  502  0.00000000000E+00  0.00000000000E+00  0.45528442172E+03  0.45528442172E+03  0.00000000000E+00 0. -1.
         21   -1    0    0  501  503 -0.00000000000E+00 -0.00000000000E+00 -0.20589521901E+02  0.20589521901E+02  0.00000000000E+00 0.  1.
          2    1    1    2  501    0 -0.60950330273E+01 -0.31917609053E+02 -0.67888628846E+01  0.33195961419E+02  0.00000000000E+00 0.  1.
         -2    1    1    2    0  502  0.60950330273E+01  0.31917609053E+02  0.44148376270E+03  0.44267798220E+03  0.00000000000E+00 0. -1.
</event>
<event>
 4    1  0.1848744E+004  0.1008608E+03  0.7546771E-02  0.1162325E+00
         21   -1    0    0  503  502  0.00000000000E+00  0.00000000000E+00  0.16548736241E+03  0.16548736241E+03  0.00000000000E+00 0. -1.
         21   -1    0    0  501  503 -0.00000000000E+00 -0.00000000000E+00 -0.19035414030E+03  0.19035414030E+03  0.00000000000E+00 0.  1.
          2    1    1    2  501    0 -0.20434484839E+02  0.98769116617E+02 -0.15883340474E+03  0.18815142048E+03  0.00000000000E+00 0.  1.
         -2    1    1    2    0  502  0.20434484839E+02 -0.98769116617E+02  0.13396662686E+03  0.16769008223E+03  0.00000000000E+00 0. -1.
</event>
<event>
 4    1  0.1848744E+004  0.9923117E+02  0.7546771E-02  0.1165147E+00
         21   -1    0    0  503  502  0.00000000000E+00  0.00000000000E+00  0.72794753906E+03  0.72794753906E+03  0.00000000000E+00 0.  1.
         21   -1    0    0  501  503 -0.00000000000E+00 -0.00000000000E+00 -0.13621049853E+02  0.13621049853E+02  0.00000000000E+00 0. -1.
          2    1    1    2  501    0 -0.98051290893E+02 -0.15256813046E+02  0.32632593029E+03  0.34107981290E+03  0.00000000000E+00 0. -1.
         -2    1    1    2    0  502  0.98051290893E+02  0.15256813046E+02  0.38800055891E+03  0.40048877601E+03  0.00000000000E+00 0.  1.
</event>
<event>
 4    1  0.1848744E+004  0.2079642E+02  0.7546771E-02  0.1522191E+00
         21   -1    0    0  501  502  0.00000000000E+00  0.00000000000E+00  0.25441517942E+03  0.25441517942E+03  0.00000000000E+00 0.  1.
         21   -1    0    0  502  503 -0.00000000000E+00 -0.00000000000E+00 -0.31889497268E+01  0.31889497268E+01  0.00000000000E+00 0. -1.
          2    1    1    2  501    0 -0.19563246407E+02  0.70548294224E+01  0.21362622356E+03  0.21463609813E+03  0.00000000000E+00 0.  1.
         -2    1    1    2    0  503  0.19563246407E+02 -0.70548294224E+01  0.37600006129E+02  0.42968031013E+02  0.00000000000E+00 0. -1.
</event>
<event>
 4    1  0.1848744E+004  0.2131991E+02  0.7546771E-02  0.1514746E+00
         21   -1    0    0  503  502  0.00000000000E+00  0.00000000000E+00  0.45414922412E+01  0.45414922412E+01  0.00000000000E+00 0. -1.
         21   -1    0    0  501  503 -0.00000000000E+00 -0.00000000000E+00 -0.23023459333E+03  0.23023459333E+03  0.00000000000E+00 0.  1.
          2    1    1    2  501    0 -0.21299796261E+02 -0.92578740160E+00 -0.20110551395E+03  0.20223245571E+03  0.00000000000E+00 0.  1.
         -2    1    1    2    0  502  0.21299796261E+02  0.92578740160E+00 -0.24587587144E+02  0.32543629862E+02  0.00000000000E+00 0. -1.
</event>
<event>
 4    1  0.1848744E+004  0.2077729E+02  0.7546771E-02  0.1522469E+00
         21   -1    0    0  501  502  0.00000000000E+00  0.00000000000E+00  0.45194310742E+01  0.45194310742E+01  0.00000000000E+00 0.  1.
         21   -1    0    0  502  503 -0.00000000000E+00 -0.00000000000E+00 -0.17207907910E+03  0.17207907910E+03  0.00000000000E+00 0. -1.
          2    1    1    2  501    0  0.16170885356E+02 -0.13045999282E+02 -0.24883034646E+02  0.32416986961E+02  0.00000000000E+00 0.  1.
         -2    1    1    2    0  503 -0.16170885356E+02  0.13045999282E+02 -0.14267661338E+03  0.14418152322E+03  0.00000000000E+00 0. -1.
</event>
<event>
 4    1  0.1848744E+004  0.2954665E+02  0.7546771E-02  0.1423577E+00
         21   -1    0    0  503  502  0.00000000000E+00  0.00000000000E+00  0.15213445099E+03  0.15213445099E+03  0.00000000000E+00 0. -1.
         21   -1    0    0  501  503 -0.00000000000E+00 -0.00000000000E+00 -0.78864317166E+01  0.78864317166E+01  0.00000000000E+00 0.  1.
          2    1    1    2  501    0  0.26962211486E+02 -0.12084860607E+02  0.30367023163E+02  0.42369337969E+02  0.00000000000E+00 0.  1.
         -2    1    1    2    0  502 -0.26962211486E+02  0.12084860607E+02  0.11388099611E+03  0.11765154474E+03  0.00000000000E+00 0. -1.
</event>
<event>
 4    1  0.1848744E+004  0.2517205E+02  0.7546771E-02  0.1466888E+00
         21   -1    0    0  503  502  0.00000000000E+00  0.00000000000E+00  0.15359860375E+03  0.15359860375E+03  0.00000000000E+00 0.  1.
         21   -1    0    0  501  503 -0.00000000000E+00 -0.00000000000E+00 -0.66485022383E+01  0.66485022383E+01  0.00000000000E+00 0. -1.
          2    1    1    2  501    0 -0.25106968309E+02  0.18088681207E+01  0.12283549498E+03  0.12538816008E+03  0.00000000000E+00 0.  1.
         -2    1    1    2    0  502  0.25106968309E+02 -0.18088681207E+01  0.24114606529E+02  0.34858945905E+02  0.00000000000E+00 0. -1.
</event>
<event>
 4    1  0.1848744E+004  0.2085772E+02  0.7546771E-02  0.1521306E+00
         21   -1    0    0  501  502  0.00000000000E+00  0.00000000000E+00  0.28079280033E+02  0.28079280033E+02  0.00000000000E+00 0. -1.
         21   -1    0    0  502  503 -0.00000000000E+00 -0.00000000000E+00 -0.15703965462E+02  0.15703965462E+02  0.00000000000E+00 0.  1.
          2    1    1    2  501    0 -0.18485401862E+02  0.96609767353E+01  0.87223703275E+01  0.22608058245E+02  0.00000000000E+00 0.  1.
         -2    1    1    2    0  503  0.18485401862E+02 -0.96609767353E+01  0.36529442438E+01  0.21175187251E+02  0.00000000000E+00 0. -1.
</event>
<event>
 4    1  0.1848744E+004  0.2459002E+02  0.7546771E-02  0.1473442E+00
         21   -1    0    0  501  502  0.00000000000E+00  0.00000000000E+00  0.27664386919E+01  0.27664386919E+01  0.00000000000E+00 0.  1.
         21   -1    0    0  502  503 -0.00000000000E+00 -0.00000000000E+00 -0.22284989756E+03  0.22284989756E+03  0.00000000000E+00 0. -1.
          2    1    1    2  501    0 -0.24274459629E+02 -0.39268123154E+01 -0.12566927079E+03  0.12805246919E+03  0.00000000000E+00 0. -1.
         -2    1    1    2    0  503  0.24274459629E+02  0.39268123154E+01 -0.94414188075E+02  0.97563867057E+02  0.00000000000E+00 0.  1.
</event>
<event>
 4    1  0.1848744E+004  0.2023901E+02  0.7546771E-02  0.1530413E+00
         21   -1    0    0  503  502  0.00000000000E+00  0.00000000000E+00  0.14825498971E+03  0.14825498971E+03  0.00000000000E+00 0.  1.
         21   -1    0    0  501  503 -0.00000000000E+00 -0.00000000000E+00 -0.27701615601E+01  0.27701615601E+01  0.00000000000E+00 0. -1.
          2    1    1    2  501    0  0.11473853089E+02 -0.16672384534E+02  0.76601402251E+02  0.79229997713E+02  0.00000000000E+00 0.  1.
         -2    1    1    2    0  502 -0.11473853089E+02  0.16672384534E+02  0.68883425900E+02  0.71795153558E+02  0.00000000000E+00 0. -1.
</event>
<event>
 4    1  0.1848744E+004  0.2468548E+02  0.7546771E-02  0.1472353E+00
         21   -1    0    0  503  502  0.00000000000E+00  0.00000000000E+00  0.28095145448E+02  0.28095145448E+02  0.00000000000E+00 0.  1.
         21   -1    0    0  501  503 -0.00000000000E+00 -0.00000000000E+00 -0.23015000388E+02  0.23015000388E+02  0.00000000000E+00 0. -1.
          2    1    1    2  501    0 -0.18872527041E+02 -0.15912276229E+02 -0.35925066745E+01  0.24945518955E+02  0.00000000000E+00 0. -1.
         -2    1    1    2    0  502  0.18872527041E+02  0.15912276229E+02  0.86726517342E+01  0.26164626881E+02  0.00000000000E+00 0.  1.
</event>
<event>
 4    1  0.1848744E+004  0.2531594E+02  0.7546771E-02  0.1465300E+00
         21   -1    0    0  501  502  0.00000000000E+00  0.00000000000E+00  0.99501165791E+02  0.99501165791E+02  0.00000000000E+00 0. -1.
         21   -1    0    0  502  503 -0.00000000000E+00 -0.00000000000E+00 -0.19590256600E+02  0.19590256600E+02  0.00000000000E+00 0.  1.
          2    1    1    2  501    0  0.11961680146E+02 -0.22311766733E+02  0.88739679790E+02  0.92280157650E+02  0.00000000000E+00 0. -1.
         -2    1    1    2    0  503 -0.11961680146E+02  0.22311766733E+02 -0.88287705996E+01  0.26811264740E+02  0.00000000000E+00 0.  1.
</event>
<event>
 4    1  0.1848744E+004  0.2319301E+02  0.7546771E-02  0.1490089E+00
         21   -1    0    0  501  502  0.00000000000E+00  0.00000000000E+00  0.73759639735E+03  0.73759639735E+03  0.00000000000E+00 0. -1.
         21   -1    0    0  502  503 -0.00000000000E+00 -0.00000000000E+00 -0.32723936126E+01  0.32723936126E+01  0.00000000000E+00 0.  1.
          2    1    1    2  501    0  0.23177281193E+02  0.85395539893E+00  0.69372070843E+03  0.69410830345E+03  0.00000000000E+00 0. -1.
         -2    1    1    2    0  503 -0.23177281193E+02 -0.85395539893E+00  0.40603295308E+02  0.46760487521E+02  0.00000000000E+00 0.  1.
</event>
<event>
 4    1  0.1848744E+004  0.2281855E+02  0.7546771E-02  0.1494789E+00
         21   -1    0    0  503  502  0.00000000000E+00  0.00000000000E+00  0.46680156904E+00  0.46680156904E+00  0.00000000000E+00 0.  1.
         21   -1    0    0  501  503 -0.00000000000E+00 -0.00000000000E+00 -0.12676589074E+04  0.12676589074E+04  0.00000000000E+00 0. -1.
          2    1    1    2  501    0 -0.19091411894E+02  0.12498174234E+02 -0.85331822585E+03  0.85362326640E+03  0.00000000000E+00 0. -1.
         -2    1    1    2    0  502  0.19091411894E+02 -0.12498174234E+02 -0.41387387997E+03  0.41450244256E+03  0.00000000000E+00 0.  1.
</event>
<event>
 4    1  0.1848744E+004  0.2069656E+02  0.7546771E-02  0.1523642E+00
         21   -1    0    0  503  502  0.00000000000E+00  0.00000000000E+00  0.48408507155E+02  0.48408507155E+02  0.00000000000E+00 0.  1.
         21   -1    0    0  501  503 -0.00000000000E+00 -0.00000000000E+00 -0.11424121785E+02  0.11424121785E+02  0.00000000000E+00 0. -1.
          2    1    1    2  501    0 -0.20534713060E+02 -0.25832311809E+01  0.42875838511E+01  0.21136009535E+02  0.00000000000E+00 0. -1.
         -2    1    1    2    0  502  0.20534713060E+02  0.25832311809E+01  0.32696801520E+02  0.38696619405E+02  0.00000000000E+00 0.  1.
</event>
<event>
 4    1  0.1848744E+004  0.2406227E+02  0.7546771E-02  0.1479573E+00
         21   -1    0    0  503  502  0.00000000000E+00  0.00000000000E+00  0.74263523903E+01  0.74263523903E+01  0.00000000000E+00 0.  1.
         21   -1    0    0  501  503 -0.00000000000E+00 -0.00000000000E+00 -0.12892361048E+03  0.12892361048E+03  0.00000000000E+00 0. -1.
          2    1    1    2  501    0  0.22963224049E+02  0.71890979966E+01 -0.10361030809E+03  0.10636770530E+03  0.00000000000E+00 0. -1.
         -2    1    1    2    0  502 -0.22963224049E+02 -0.71890979966E+01 -0.17886950004E+02  0.29982257573E+02  0.00000000000E+00 0.  1.
</event>
<event>
 4    1  0.1848744E+004  0.2083239E+02  0.7546771E-02  0.1521671E+00
         21   -1    0    0  503  502  0.00000000000E+00  0.00000000000E+00  0.48573110766E+02  0.48573110766E+02  0.00000000000E+00 0. -1.
         21   -1    0    0  501  503 -0.00000000000E+00 -0.00000000000E+00 -0.19568268414E+02  0.19568268414E+02  0.00000000000E+00 0.  1.
          2    1    1    2  501    0  0.16394856288E+02 -0.12852897463E+02 -0.10613166911E+02  0.23380068387E+02  0.00000000000E+00 0.  1.
         -2    1    1    2    0  502 -0.16394856288E+02  0.12852897463E+02  0.39618009263E+02  0.44761310792E+02  0.00000000000E+00 0. -1.
</event>
<event>
 4    1  0.1848744E+004  0.2194231E+02  0.7546771E-02  0.1506225E+00
         21   -1    0    0  501  502  0.00000000000E+00  0.00000000000E+00  0.83189295890E+01  0.83189295890E+01  0.00000000000E+00 0.  1.
         21   -1    0    0  502  503 -0.00000000000E+00 -0.00000000000E+00 -0.82220806513E+02  0.82220806513E+02  0.00000000000E+00 0. -1.
          2    1    1    2  501    0 -0.49074193462E+01  0.21386493596E+02 -0.12317608177E+02  0.25163233977E+02  0.00000000000E+00 0.  1.
         -2    1    1    2    0  503  0.49074193462E+01 -0.21386493596E+02 -0.61584268747E+02  0.65376502125E+02  0.00000000000E+00 0. -1.
</event>
<event>
 4    1  0.1848744E+004  0.2167012E+02  0.7546771E-02  0.1509908E+00
         21   -1    0    0  503  502  0.00000000000E+00  0.00000000000E+00  0.17712339475E+04  0.17712339475E+04  0.00000000000E+00 0. -1.
         21   -1    0    0  501  503 -0.00000000000E+00 -0.00000000000E+00 -0.44376532105E+00  0.44376532105E+00  0.00000000000E+00 0.  1.
          2    1    1    2  501    0 -0.80638270898E+01  0.20113897460E+02  0.32335060862E+03  0.32407593288E+03  0.00000000000E+00 0.  1.
         -2    1    1    2    0  502  0.80638270898E+01 -0.20113897460E+02  0.14474395735E+04  0.14476017799E+04  0.00000000000E+00 0. -1.
</event>
<event>
 4    1  0.1848744E+004  0.2247767E+02  0.7546771E-02  0.1499163E+00
         21   -1    0    0  503  502  0.00000000000E+00  0.00000000000E+00  0.59172901375E+00  0.59172901375E+00  0.00000000000E+00 0. -1.
         21   -1    0    0  501  503 -0.00000000000E+00 -0.00000000000E+00 -0.86812004288E+03  0.86812004288E+03  0.00000000000E+00 0.  1.
          2    1    1    2  501    0  0.11063242101E+02 -0.19566560859E+02 -0.48946025075E+03  0.48997610421E+03  0.00000000000E+00 0.  1.
         -2    1    1    2    0  502 -0.11063242101E+02  0.19566560859E+02 -0.37806806311E+03  0.37873566768E+03  0.00000000000E+00 0. -1.
</event>
<event>
 4    1  0.1848744E+004  0.2613291E+02  0.7546771E-02  0.1456518E+00
         21   -1    0    0  501  502  0.00000000000E+00  0.00000000000E+00  0.12315586008E+04  0.12315586008E+04  0.00000000000E+00 0.  1.
         21   -1    0    0  502  503 -0.00000000000E+00 -0.00000000000E+00 -0.73381262990E+00  0.73381262990E+00  0.00000000000E+00 0. -1.
          2    1    1    2  501    0 -0.68169507886E+01 -0.25228118248E+02  0.91996869910E+03  0.92033979382E+03  0.00000000000E+00 0.  1.
         -2    1    1    2    0  503  0.68169507886E+01  0.25228118248E+02  0.31085608908E+03  0.31195261962E+03  0.00000000000E+00 0. -1.
</event>
<event>
 4    1  0.1848744E+004  0.2171040E+02  0.7546771E-02  0.1509359E+00
         21   -1    0    0  503  502  0.00000000000E+00  0.00000000000E+00  0.26567350347E+02  0.26567350347E+02  0.00000000000E+00 0.  1.
         21   -1    0    0  501  503 -0.00000000000E+00 -0.00000000000E+00 -0.17743393409E+02  0.17743393409E+02  0.00000000000E+00 0. -1.
          2    1    1    2  501    0  0.73549517941E+01 -0.20426608401E+02  0.46475700781E+01  0.22202287141E+02  0.00000000000E+00 0.  1.
         -2    1    1    2    0  502 -0.73549517941E+01  0.20426608401E+02  0.41763868605E+01  0.22108456615E+02  0.00000000000E+00 0. -1.
</event>
<event>
 4    1  0.1848744E+004  0.2363454E+02  0.7546771E-02  0.1484680E+00
         21   -1    0    0  503  502  0.00000000000E+00  0.00000000000E+00  0.62298993612E+01  0.62298993612E+01  0.00000000000E+00 0.  1.
         21   -1    0    0  501  503 -0.00000000000E+00 -0.00000000000E+00 -0.36956855833E+03  0.36956855833E+03  0.00000000000E+00 0. -1.
          2    1    1    2  501    0 -0.23620018759E+02 -0.82829535001E+00 -0.34519399314E+03  0.34600214487E+03  0.00000000000E+00 0. -1.
         -2    1    1    2    0  502  0.23620018759E+02  0.82829535001E+00 -0.18144665831E+02  0.29796312816E+02  0.00000000000E+00 0.  1.
</event>
<event>
 4    1  0.1848744E+004  0.2093281E+02  0.7546771E-02  0.1520226E+00
         21   -1    0    0  501  502  0.00000000000E+00  0.00000000000E+00  0.69930121494E+02  0.69930121494E+02  0.00000000000E+00 0. -1.
         21   -1    0    0  502  503 -0.00000000000E+00 -0.00000000000E+00 -0.12077095905E+02  0.12077095905E+02  0.00000000000E+00 0.  1.
          2    1    1    2  501    0  0.14708609238E+02  0.14894268078E+02  0.57369139549E+02  0.61068818392E+02  0.00000000000E+00 0. -1.
         -2    1    1    2    0  503 -0.14708609238E+02 -0.14894268078E+02  0.48388604052E+00  0.20938399007E+02  0.00000000000E+00 0.  1.
</event>
<event>
 4    1  0.1848744E+004  0.3062959E+02  0.7546771E-02  0.1414203E+00
         21   -1    0    0  501  502  0.00000000000E+00  0.00000000000E+00  0.25034560043E+01  0.25034560043E+01  0.00000000000E+00 0.  1.
         21   -1    0    0  502  503 -0.00000000000E+00 -0.00000000000E+00 -0.41326908914E+03  0.41326908914E+03  0.00000000000E+00 0. -1.
          2    1    1    2  501    0 -0.11136867641E+00 -0.30629385217E+02 -0.26884923171E+03  0.27058839782E+03  0.00000000000E+00 0. -1.
         -2    1    1    2    0  503  0.11136867641E+00  0.30629385217E+02 -0.14191640143E+03  0.14518414733E+03  0.00000000000E+00 0.  1.
</event>
<event>
 4    1  0.1848744E+004  0.3586555E+02  0.7546771E-02  0.1374578E+00
         21   -1    0    0  501  502  0.00000000000E+00  0.00000000000E+00  0.90102278267E+01  0.90102278267E+01  0.00000000000E+00 0.  1.
         21   -1    0    0  502  503 -0.00000000000E+00 -0.00000000000E+00 -0.17751398853E+03  0.17751398853E+03  0.00000000000E+00 0. -1.
          2    1    1    2  501    0  0.34990965985E+01 -0.35694451252E+02 -0.42988450345E+02  0.55985215819E+02  0.00000000000E+00 0.  1.
         -2    1    1    2    0  503 -0.34990965985E+01  0.35694451252E+02 -0.12551531036E+03  0.13053900054E+03  0.00000000000E+00 0. -1.
</event>
<event>
 4    1  0.1848744E+004  0.2041117E+02  0.7546771E-02  0.1527840E+00
         21   -1    0    0  501  502  0.00000000000E+00  0.00000000000E+00  0.61795650706E+01  0.61795650706E+01  0.00000000000E+00 0. -1.
         21   -1    0    0  502  503 -0.00000000000E+00 -0.00000000000E+00 -0.69733270519E+02  0.69733270519E+02  0.00000000000E+00 0.  1.
          2    1    1    2  501    0 -0.69744472651E+01 -0.19182622075E+02 -0.24861156284E+02  0.32166644153E+02  0.00000000000E+00 0. -1.
         -2    1    1    2    0  503  0.69744472651E+01  0.19182622075E+02 -0.38692549165E+02  0.43746191436E+02  0.00000000000E+00 0.  1.
</event>
<event>
 4    1  0.1848744E+004  0.2548187E+02  0.7546771E-02  0.1463484E+00
         21   -1    0    0  503  502  0.00000000000E+00  0.00000000000E+00  0.56655453726E+02  0.56655453726E+02  0.00000000000E+00 0. -1.
         21   -1    0    0  501  503 -0.00000000000E+00 -0.00000000000E+00 -0.14220766802E+02  0.14220766802E+02  0.00000000000E+00 0.  1.
          2    1    1    2  501    0 -0.16479706510E+02 -0.19435664770E+02  0.56057036368E+01  0.26091180597E+02  0.00000000000E+00 0.  1.
         -2    1    1    2    0  502  0.16479706510E+02  0.19435664770E+02  0.36828983287E+02  0.44785039932E+02  0.00000000000E+00 0. -1.
</event>
<event>
 4    1  0.1848744E+004  0.2391928E+02  0.7546771E-02  0.1481266E+00
         21   -1    0    0  501  502  0.00000000000E+00  0.00000000000E+00  0.43729762571E+03  0.43729762571E+03  0.00000000000E+00 0.  1.
         21   -1    0    0  502  503 -0.00000000000E+00 -0.00000000000E+00 -0.13144791452E+01  0.13144791452E+01  0.00000000000E+00 0. -1.
          2    1    1    2  501    0  0.18971335948E+02 -0.14567781170E+02  0.23298499392E+03  0.23420960533E+03  0.00000000000E+00 0. -1.
         -2    1    1    2    0  503 -0.18971335948E+02  0.14567781170E+02  0.20299815264E+03  0.20440249952E+03  0.00000000000E+00 0.  1.
</event>
<event>
 4    1  0.1848744E+004  0.2662311E+02  0.7546771E-02  0.1451431E+00
         21   -1    0    0  501  502  0.00000000000E+00  0.00000000000E+00  0.20994460560E+01  0.20994460560E+01  0.00000000000E+00 0. -1.
         21   -1    0    0  502  503 -0.00000000000E+00 -0.00000000000E+00 -0.37369684772E+03  0.37369684772E+03  0.00000000000E+00 0.  1.
          2    1    1    2  501    0  0.23739140218E+02  0.12051680460E+02 -0.12740724562E+03  0.13015911807E+03  0.00000000000E+00 0. -1.
         -2    1    1    2    0  503 -0.23739140218E+02 -0.12051680460E+02 -0.24419015604E+03  0.24563717570E+03  0.00000000000E+00 0.  1.
</event>
<event>
 4    1  0.1848744E+004  0.2483763E+02  0.7546771E-02  0.1470628E+00
         21   -1    0    0  501  502  0.00000000000E+00  0.00000000000E+00  0.91265944271E+02  0.91265944271E+02  0.00000000000E+00 0. -1.
         21   -1    0    0  502  503 -0.00000000000E+00 -0.00000000000E+00 -0.11705818198E+02  0.11705818198E+02  0.00000000000E+00 0.  1.
          2    1    1    2  501    0 -0.19753468081E+02 -0.15056837517E+02  0.73248108770E+02  0.77344639734E+02  0.00000000000E+00 0.  1.
         -2    1    1    2    0  503  0.19753468081E+02  0.15056837517E+02  0.63120173032E+01  0.25627122735E+02  0.00000000000E+00 0. -1.
</event>
<event>
 4    1  0.1848744E+004  0.3012661E+02  0.7546771E-02  0.1418499E+00
         21   -1    0    0  503  502  0.00000000000E+00  0.00000000000E+00  0.17027600424E+03  0.17027600424E+03  0.00000000000E+00 0.  1.
         21   -1    0    0  501  503 -0.00000000000E+00 -0.00000000000E+00 -0.13301297454E+02  0.13301297454E+02  0.00000000000E+00 0. -1.
          2    1    1    2  501    0 -0.98528173690E+01  0.28469889429E+02  0.74315015777E+01  0.31029660486E+02  0.00000000000E+00 0. -1.
         -2    1    1    2    0  502  0.98528173690E+01 -0.28469889429E+02  0.14954320521E+03  0.15254764121E+03  0.00000000000E+00 0.  1.
</event>
<event>
 4    1  0.1848744E+004  0.2164129E+02  0.7546771E-02  0.1510303E+00
         21   -1    0    0  501  502  0.00000000000E+00  0.00000000000E+00  0.64425665218E+03  0.64425665218E+03  0.00000000000E+00 0.  1.
         21   -1    0    0  502  503 -0.00000000000E+00 -0.00000000000E+00 -0.17645824383E+01  0.17645824383E+01  0.00000000000E+00 0. -1.
          2    1    1    2  501    0  0.15149517863E+02  0.15454373378E+02  0.56894064722E+03  0.56935209283E+03  0.00000000000E+00 0.  1.
         -2    1    1    2    0  503 -0.15149517863E+02 -0.15454373378E+02  0.73551422523E+02  0.76669141792E+02  0.00000000000E+00 0. -1.
</event>
<event>
 4    1  0.1848744E+004  0.4854917E+02  0.7546771E-02  0.1304588E+00
         21   -1    0    0  503  502  0.00000000000E+00  0.00000000000E+00  0.67343277892E+02  0.67343277892E+02  0.00000000000E+00 0. -1.
         21   -1    0    0  501  503 -0.00000000000E+00 -0.00000000000E+00 -0.12772007706E+03  0.12772007706E+03  0.00000000000E+00 0.  1.
          2    1    1    2  501    0 -0.32213768452E+02 -0.36322103192E+02 -0.11328872891E+03  0.12325322777E+03  0.00000000000E+00 0.  1.
         -2    1    1    2    0  502  0.32213768452E+02  0.36322103192E+02  0.52911929736E+02  0.71810127186E+02  0.00000000000E+00 0. -1.
</event>
<event>
 4    1  0.1848744E+004  0.2070464E+02  0.7546771E-02  0.1523524E+00
         21   -1    0    0  501  502  0.00000000000E+00  0.00000000000E+00  0.39610973287E+02  0.39610973287E+02  0.00000000000E+00 0. -1.
         21   -1    0    0  502  503 -0.00000000000E+00 -0.00000000000E+00 -0.19095148462E+02  0.19095148462E+02  0.00000000000E+00 0.  1.
          2    1    1    2  501    0  0.15722102120E+02  0.13472106944E+02  0.29578449506E+02  0.36104941986E+02  0.00000000000E+00 0. -1.
         -2    1    1    2    0  503 -0.15722102120E+02 -0.13472106944E+02 -0.90626246813E+01  0.22601179763E+02  0.00000000000E+00 0.  1.
</event>
<event>
 4    1  0.1848744E+004  0.3417880E+02  0.7546771E-02  0.1386430E+00
         21   -1    0    0  503  502  0.00000000000E+00  0.00000000000E+00  0.71759808749E+02  0.71759808749E+02  0.00000000000E+00 0. -1.
         21   -1    0    0  501  503 -0.00000000000E+00 -0.00000000000E+00 -0.33116579689E+02  0.33116579689E+02  0.00000000000E+00 0.  1.
          2    1    1    2  501    0  0.23204293193E+01 -0.34099940782E+02 -0.18068998744E+02  0.38661079514E+02  0.00000000000E+00 0.  1.
         -2    1    1    2    0  502 -0.23204293193E+01  0.34099940782E+02  0.56712227804E+02  0.66215308925E+02  0.00000000000E+00 0. -1.
</event>
<event>
 4    1  0.1848744E+004  0.2090656E+02  0.7546771E-02  0.1520603E+00
         21   -1    0    0  501  502  0.00000000000E+00  0.00000000000E+00  0.45812199095E+03  0.45812199095E+03  0.00000000000E+00 0.  1.
         21   -1    0    0  502  503 -0.00000000000E+00 -0.00000000000E+00 -0.11036637066E+01  0.11036637066E+01  0.00000000000E+00 0. -1.
          2    1    1    2  501    0 -0.48187448886E+01 -0.20343648895E+02  0.14397698646E+03  0.14548696499E+03  0.00000000000E+00 0.  1.
         -2    1    1    2    0  503  0.48187448886E+01  0.20343648895E+02  0.31304134078E+03  0.31373868967E+03  0.00000000000E+00 0. -1.
</event>
<event>
 4    1  0.1848744E+004  0.2119122E+02  0.7546771E-02  0.1516552E+00
         21   -1    0    0  501  502  0.00000000000E+00  0.00000000000E+00  0.11463926143E+03  0.11463926143E+03  0.00000000000E+00 0.  1.
         21   -1    0    0  502  503 -0.00000000000E+00 -0.00000000000E+00 -0.52538953307E+01  0.52538953307E+01  0.00000000000E+00 0. -1.
          2    1    1    2  501    0  0.17460658472E+02 -0.12008045200E+02  0.84929487976E+02  0.87533340343E+02  0.00000000000E+00 0.  1.
         -2    1    1    2    0  503 -0.17460658472E+02  0.12008045200E+02  0.24455878124E+02  0.32359816418E+02  0.00000000000E+00 0. -1.
</event>
<event>
 4    1  0.1848744E+004  0.3136836E+02  0.7546771E-02  0.1408067E+00
         21   -1    0    0  503  502  0.00000000000E+00  0.00000000000E+00  0.17997299470E+02  0.17997299470E+02  0.00000000000E+00 0. -1.
         21   -1    0    0  501  503 -0.00000000000E+00 -0.00000000000E+00 -0.71107917505E+02  0.71107917505E+02  0.00000000000E+00 0.  1.
          2    1    1    2  501    0 -0.95057301482E+01  0.29893391019E+02 -0.47973979226E+02  0.57319075490E+02  0.00000000000E+00 0.  1.
         -2    1    1    2    0  502  0.95057301482E+01 -0.29893391019E+02 -0.51366388090E+01  0.31786141485E+02  0.00000000000E+00 0. -1.
</event>
<event>
 4    1  0.1848744E+004  0.2528570E+02  0.7546771E-02  0.1465632E+00
         21   -1    0    0  503  502  0.00000000000E+00  0.00000000000E+00  0.21325011355E+02  0.21325011355E+02  0.00000000000E+00 0. -1.
         21   -1    0    0  501  503 -0.00000000000E+00 -0.00000000000E+00 -0.35078638896E+02  0.35078638896E+02  0.00000000000E+00 0.  1.
          2    1    1    2  501    0 -0.24015059199E+02 -0.79147702842E+01 -0.17626541088E+02  0.30823069408E+02  0.00000000000E+00 0.  1.
         -2    1    1    2    0  502  0.24015059199E+02  0.79147702842E+01  0.38729135477E+01  0.25580580844E+02  0.00000000000E+00 0. -1.
</event>
<event>
 4    1  0.1848744E+004  0.2375615E+02  0.7546771E-02  0.1483215E+00
         21   -1    0    0  503  502  0.00000000000E+00  0.00000000000E+00  0.11556875879E+02  0.11556875879E+02  0.00000000000E+00 0. -1.
         21   -1    0    0  501  503 -0.00000000000E+00 -0.00000000000E+00 -0.97460305735E+02  0.97460305735E+02  0.00000000000E+00 0.  1.
          2    1    1    2  501    0 -0.19671624618E+02  0.13318469832E+02 -0.81454498349E+02  0.84848039194E+02  0.00000000000E+00 0.  1.
         -2    1    1    2    0  502  0.19671624618E+02 -0.13318469832E+02 -0.44489315077E+01  0.24169142420E+02  0.00000000000E+00 0. -1.
</event>
<event>
 4    1  0.1848744E+004  0.2112717E+02  0.7546771E-02  0.1517457E+00
         21   -1    0    0  503  502  0.00000000000E+00  0.00000000000E+00  0.22799034808E+01  0.22799034808E+01  0.00000000000E+00 0.  1.
         21   -1    0    0  501  503 -0.00000000000E+00 -0.00000000000E+00 -0.14448441366E+04  0.14448441366E+04  0.00000000000E+00 0. -1.
          2    1    1    2  501    0 -0.20881318618E+02  0.32136983315E+01 -0.13940384552E+04  0.13941985410E+04  0.00000000000E+00 0. -1.
         -2    1    1    2    0  502  0.20881318618E+02 -0.32136983315E+01 -0.48525777979E+02  0.52925499078E+02  0.00000000000E+00 0.  1.
</event>
<event>
 4    1  0.1848744E+004  0.2120913E+02  0.7546771E-02  0.1516300E+00
         21   -1    0    0  503  502  0.00000000000E+00  0.00000000000E+00  0.59146621143E+02  0.59146621143E+02  0.00000000000E+00 0. -1.
         21   -1    0    0  501  503 -0.00000000000E+00 -0.00000000000E+00 -0.24358490598E+02  0.24358490598E+02  0.00000000000E+00 0.  1.
          2    1    1    2  501    0 -0.42632266151E+00 -0.21204840182E+02 -0.17232293071E+02  0.27327256039E+02  0.00000000000E+00 0.  1.
         -2    1    1    2    0  502  0.42632266151E+00  0.21204840182E+02  0.52020423616E+02  0.56177855703E+02  0.00000000000E+00 0. -1.
</event>
<event>
 4    1  0.1848744E+004  0.2088809E+02  0.7546771E-02  0.1520869E+00
         21   -1    0    0  501  502  0.00000000000E+00  0.00000000000E+00  0.12421793970E+02  0.12421793970E+02  0.00000000000E+00 0. -1.
         21   -1    0    0  502  503 -0.00000000000E+00 -0.00000000000E+00 -0.44733944098E+02  0.44733944098E+02  0.00000000000E+00 0.  1.
          2    1    1    2  501    0 -0.20566044057E+02 -0.36537919470E+01 -0.29109882468E+01  0.21089955342E+02  0.00000000000E+00 0. -1.
         -2    1    1    2    0  503  0.20566044057E+02  0.36537919470E+01 -0.29401161881E+02  0.36065782727E+02  0.00000000000E+00 0.  1.
</event>
<event>
 4    1  0.1848744E+004  0.3066877E+02  0.7546771E-02  0.1413872E+00
         21   -1    0    0  503  502  0.00000000000E+00  0.00000000000E+00  0.11504015072E+02  0.11504015072E+02  0.00000000000E+00 0.  1.
         21   -1    0    0  501  503 -0.00000000000E+00 -0.00000000000E+00 -0.25929219993E+03  0.25929219993E+03  0.00000000000E+00 0. -1.
          2    1    1    2  501    0 -0.13580723698E+02 -0.27497957132E+02 -0.23592964434E+03  0.23791462918E+03  0.00000000000E+00 0. -1.
         -2    1    1    2    0  502  0.13580723698E+02  0.27497957132E+02 -0.11858540519E+02  0.32881585817E+02  0.00000000000E+00 0.  1.
</event>
<event>
 4    1  0.1848744E+004  0.2466235E+02  0.7546771E-02  0.1472616E+00
         21   -1    0    0  503  502  0.00000000000E+00  0.00000000000E+00  0.43692736363E+01  0.43692736363E+01  0.00000000000E+00 0. -1.
         21   -1    0    0  501  503 -0.00000000000E+00 -0.00000000000E+00 -0.23088391042E+03  0.23088391042E+03  0.00000000000E+00 0.  1.
          2    1    1    2  501    0  0.22221405420E+02  0.10697682583E+02 -0.18737807755E+03  0.18899411424E+03  0.00000000000E+00 0.  1.
         -2    1    1    2    0  502 -0.22221405420E+02 -0.10697682583E+02 -0.39136559233E+02  0.46259069815E+02  0.00000000000E+00 0. -1.
</event>
<event>
 4    1  0.1848744E+004  0.2107599E+02  0.7546771E-02  0.1518183E+00
         21   -1    0    0  501  502  0.00000000000E+00  0.00000000000E+00  0.19978303497E+02  0.19978303497E+02  0.00000000000E+00 0.  1.
         21   -1    0    0  502  503 -0.00000000000E+00 -0.00000000000E+00 -0.24436532928E+02  0.24436532928E+02  0.00000000000E+00 0. -1.
          2    1    1    2  501    0 -0.15617465149E+01 -0.21018050721E+02 -0.88962602398E+01  0.22876646488E+02  0.00000000000E+00 0.  1.
         -2    1    1    2    0  503  0.15617465149E+01  0.21018050721E+02  0.44380308088E+01  0.21538189937E+02  0.00000000000E+00 0. -1.
</event>
<event>
 4    1  0.1848744E+004  0.3085214E+02  0.7546771E-02  0.1412333E+00
         21   -1    0    0  503  502  0.00000000000E+00  0.00000000000E+00  0.84452694450E+01  0.84452694450E+01  0.00000000000E+00 0.  1.
         21   -1    0    0  501  503 -0.00000000000E+00 -0.00000000000E+00 -0.21121375130E+03  0.21121375130E+03  0.00000000000E+00 0. -1.
          2    1    1    2  501    0 -0.28479669414E+02  0.11864363628E+02 -0.17638874984E+03  0.17906659589E+03  0.00000000000E+00 0. -1.
         -2    1    1    2    0  502  0.28479669414E+02 -0.11864363628E+02 -0.26379732014E+02  0.40592424852E+02  0.00000000000E+00 0.  1.
</event>
<event>
 4    1  0.1848744E+004  0.2116133E+02  0.7546771E-02  0.1516974E+00
         21   -1    0    0  501  502  0.00000000000E+00  0.00000000000E+00  0.16675094070E+02  0.16675094070E+02  0.00000000000E+00 0.  1.
         21   -1    0    0  502  503 -0.00000000000E+00 -0.00000000000E+00 -0.67544823520E+02  0.67544823520E+02  0.00000000000E+00 0. -1.
          2    1    1    2  501    0  0.21067908977E+02 -0.19862733185E+01  0.72490531123E+01  0.22368523452E+02  0.00000000000E+00 0.  1.
         -2    1    1    2    0  503 -0.21067908977E+02  0.19862733185E+01 -0.58118782563E+02  0.61851394139E+02  0.00000000000E+00 0. -1.
</event>
<event>
 4    1  0.1848744E+004  0.2255683E+02  0.7546771E-02  0.1498139E+00
         21   -1    0    0  503  502  0.00000000000E+00  0.00000000000E+00  0.11140801569E+03  0.11140801569E+03  0.00000000000E+00 0. -1.
         21   -1    0    0  501  503 -0.00000000000E+00 -0.00000000000E+00 -0.58546728427E+01  0.58546728427E+01  0.00000000000E+00 0.  1.
          2    1    1    2  501    0  0.26452141864E+01  0.22401196576E+02  0.25280918034E+02  0.33881198072E+02  0.00000000000E+00 0.  1.
         -2    1    1    2    0  502 -0.26452141864E+01 -0.22401196576E+02  0.80272424809E+02  0.83381490457E+02  0.00000000000E+00 0. -1.
</event>
<event>
 4    1  0.1848744E+004  0.2050808E+02  0.7546771E-02  0.1526405E+00
         21   -1    0    0  501  502  0.00000000000E+00  0.00000000000E+00  0.10710961602E+02  0.10710961602E+02  0.00000000000E+00 0. -1.
         21   -1    0    0  502  503 -0.00000000000E+00 -0.00000000000E+00 -0.86909562043E+02  0.86909562043E+02  0.00000000000E+00 0.  1.
          2    1    1    2  501    0 -0.11243779274E+01 -0.20477237295E+02 -0.19601944066E+01  0.20601549336E+02  0.00000000000E+00 0. -1.
         -2    1    1    2    0  503  0.11243779274E+01  0.20477237295E+02 -0.74238406035E+02  0.77018974308E+02  0.00000000000E+00 0.  1.
</event>
<event>
 4    1  0.1848744E+004  0.3551935E+02  0.7546771E-02  0.1376948E+00
         21   -1    0    0  503  502  0.00000000000E+00  0.00000000000E+00  0.61953490075E+01  0.61953490075E+01  0.00000000000E+00 0. -1.
         21   -1    0    0  501  503 -0.00000000000E+00 -0.00000000000E+00 -0.20799651805E+03  0.20799651805E+03  0.00000000000E+00 0.  1.
          2    1    1    2  501    0 -0.25888010688E+02 -0.24319441993E+02 -0.11639897764E+03  0.12169776642E+03  0.00000000000E+00 0.  1.
         -2    1    1    2    0  502  0.25888010688E+02  0.24319441993E+02 -0.85402191402E+02  0.92494100636E+02  0.00000000000E+00 0. -1.
</event>
<event>
 4    1  0.1848744E+004  0.2311096E+02  0.7546771E-02  0.1491109E+00
         21   -1    0    0  503  502  0.00000000000E+00  0.00000000000E+00  0.25057549686E+03  0.25057549686E+03  0.00000000000E+00 0. -1.
         21   -1    0    0  501  503 -0.00000000000E+00 -0.00000000000E+00 -0.78023129511E+01  0.78023129511E+01  0.00000000000E+00 0.  1.
          2    1    1    2  501    0 -0.18026889497E+02 -0.14461944453E+02  0.11249421046E+02  0.25703424989E+02  0.00000000000E+00 0. -1.
         -2    1    1    2    0  502  0.18026889497E+02  0.14461944453E+02  0.23152376287E+03  0.23267438483E+03  0.00000000000E+00 0.  1.
</event>
<event>
 4    1  0.1848744E+004  0.2174432E+02  0.7546771E-02  0.1508898E+00
         21   -1    0    0  501  502  0.00000000000E+00  0.00000000000E+00  0.29225312920E+01  0.29225312920E+01  0.00000000000E+00 0.  1.
         21   -1    0    0  502  503 -0.00000000000E+00 -0.00000000000E+00 -0.16562276931E+03  0.16562276931E+03  0.00000000000E+00 0. -1.
          2    1    1    2  501    0  0.91282084948E+01 -0.19735537153E+02 -0.68518416370E+02  0.71885944377E+02  0.00000000000E+00 0. -1.
         -2    1    1    2    0  503 -0.91282084948E+01  0.19735537153E+02 -0.94181821646E+02  0.96659356224E+02  0.00000000000E+00 0.  1.
</event>
<event>
 4    1  0.1848744E+004  0.3529377E+02  0.7546771E-02  0.1378510E+00
         21   -1    0    0  501  502  0.00000000000E+00  0.00000000000E+00  0.34272115314E+02  0.34272115314E+02  0.00000000000E+00 0.  1.
         21   -1    0    0  502  503 -0.00000000000E+00 -0.00000000000E+00 -0.36345882459E+02  0.36345882459E+02  0.00000000000E+00 0. -1.
          2    1    1    2  501    0  0.45199394008E+01 -0.35003148046E+02 -0.10298419590E+01  0.35308792103E+02  0.00000000000E+00 0. -1.
         -2    1    1    2    0  503 -0.45199394008E+01  0.35003148046E+02 -0.10439251852E+01  0.35309205671E+02  0.00000000000E+00 0.  1.
</event>
<event>
 4    1  0.1848744E+004  0.2113469E+02  0.7546771E-02  0.1517350E+00
         21   -1    0    0  501  502  0.00000000000E+00  0.00000000000E+00  0.10016312102E+02  0.10016312102E+02  0.00000000000E+00 0. -1.
         21   -1    0    0  502  503 -0.00000000000E+00 -0.00000000000E+00 -0.19100475383E+03  0.19100475383E+03  0.00000000000E+00 0.  1.
          2    1    1    2  501    0 -0.21051438298E+02 -0.18740853531E+01 -0.24958125434E+01  0.21281549065E+02  0.00000000000E+00 0. -1.
         -2    1    1    2    0  503  0.21051438298E+02  0.18740853531E+01 -0.17849262918E+03  0.17973951687E+03  0.00000000000E+00 0.  1.
</event>
<event>
 4    1  0.1848744E+004  0.2288818E+02  0.7546771E-02  0.1493907E+00
         21   -1    0    0  503  502  0.00000000000E+00  0.00000000000E+00  0.88302963669E+01  0.88302963669E+01  0.00000000000E+00 0.  1.
         21   -1    0    0  501  503 -0.00000000000E+00 -0.00000000000E+00 -0.25491629190E+03  0.25491629190E+03  0.00000000000E+00 0. -1.
          2    1    1    2  501    0  0.48578150080E+01  0.22366723460E+02 -0.23855613759E+03  0.23965162104E+03  0.00000000000E+00 0. -1.
         -2    1    1    2    0  502 -0.48578150080E+01 -0.22366723460E+02 -0.75298579415E+01  0.24094967226E+02  0.00000000000E+00 0.  1.
</event>
<event>
 4    1  0.1848744E+004  0.2947656E+02  0.7546771E-02  0.1424200E+00
         21   -1    0    0  501  502  0.00000000000E+00  0.00000000000E+00  0.19690593575E+03  0.19690593575E+03  0.00000000000E+00 0. -1.
         21   -1    0    0  502  503 -0.00000000000E+00 -0.00000000000E+00 -0.44140397998E+01  0.44140397998E+01  0.00000000000E+00 0.  1.
          2    1    1    2  501    0 -0.28801690309E+02 -0.62713899368E+01  0.98062120800E+02  0.10239651963E+03  0.00000000000E+00 0.  1.
         -2    1    1    2    0  503  0.28801690309E+02  0.62713899368E+01  0.94429775153E+02  0.98923455923E+02  0.00000000000E+00 0. -1.
</event>
<event>
 4    1  0.1848744E+004  0.2153537E+02  0.7546771E-02  0.1511757E+00
         21   -1    0    0  503  502  0.00000000000E+00  0.00000000000E+00  0.11811250070E+02  0.11811250070E+02  0.00000000000E+00 0. -1.
         21   -1    0    0  501  503 -0.00000000000E+00 -0.00000000000E+00 -0.40341832090E+02  0.40341832090E+02  0.00000000000E+00 0.  1.
          2    1    1    2  501    0  0.36578747537E+01  0.21222448205E+02 -0.18525043157E+02  0.28406857966E+02  0.00000000000E+00 0. -1.
         -2    1    1    2    0  502 -0.36578747537E+01 -0.21222448205E+02 -0.10005538863E+02  0.23746224194E+02  0.00000000000E+00 0.  1.
</event>
<event>
 4    1  0.1848744E+004  0.2377685E+02  0.7546771E-02  0.1482967E+00
         21   -1    0    0  503  502  0.00000000000E+00  0.00000000000E+00  0.38664955431E+03  0.38664955431E+03  0.00000000000E+00 0. -1.
         21   -1    0    0  501  503 -0.00000000000E+00 -0.00000000000E+00 -0.11587503536E+02  0.11587503536E+02  0.00000000000E+00 0.  1.
          2    1    1    2  501    0 -0.19041729790E+02  0.14239070421E+02  0.13986622367E+01  0.23817952387E+02  0.00000000000E+00 0.  1.
         -2    1    1    2    0  502  0.19041729790E+02 -0.14239070421E+02  0.37366338854E+03  0.37441910546E+03  0.00000000000E+00 0. -1.
</event>
<event>
 4    1  0.1848744E+004  0.2508822E+02  0.7546771E-02  0.1467819E+00
         21   -1    0    0  503  502  0.00000000000E+00  0.00000000000E+00  0.66145201229E+02  0.66145201229E+02  0.00000000000E+00 0. -1.
         21   -1    0    0  501  503 -0.00000000000E+00 -0.00000000000E+00 -0.28721416883E+02  0.28721416883E+02  0.00000000000E+00 0.  1.
          2    1    1    2  501    0 -0.20750356455E+02 -0.14101120654E+02 -0.20075946637E+02  0.32131954968E+02  0.00000000000E+00 0.  1.
         -2    1    1    2    0  502  0.20750356455E+02  0.14101120654E+02  0.57499730983E+02  0.62734663144E+02  0.00000000000E+00 0. -1.
</event>
<event>
 4    1  0.1848744E+004  0.2408459E+02  0.7546771E-02  0.1479310E+00
         21   -1    0    0  503  502  0.00000000000E+00  0.00000000000E+00  0.62869120376E+01  0.62869120376E+01  0.00000000000E+00 0.  1.
         21   -1    0    0  501  503 -0.00000000000E+00 -0.00000000000E+00 -0.97463410313E+02  0.97463410313E+02  0.00000000000E+00 0. -1.
          2    1    1    2  501    0 -0.74473055342E+01  0.22904256712E+02 -0.33608766045E+02  0.41347508877E+02  0.00000000000E+00 0. -1.
         -2    1    1    2    0  502  0.74473055342E+01 -0.22904256712E+02 -0.57567732230E+02  0.62402813473E+02  0.00000000000E+00 0.  1.
</event>
<event>
 4    1  0.1848744E+004  0.2930217E+02  0.7546771E-02  0.1425759E+00
         21   -1    0    0  501  502  0.00000000000E+00  0.00000000000E+00  0.43725749705E+02  0.43725749705E+02  0.00000000000E+00 0.  1.
         21   -1    0    0  502  503 -0.00000000000E+00 -0.00000000000E+00 -0.21076148311E+02  0.21076148311E+02  0.00000000000E+00 0. -1.
          2    1    1    2  501    0 -0.12176820567E+02  0.26652248699E+02  0.19793211518E+02  0.35360833447E+02  0.00000000000E+00 0.  1.
         -2    1    1    2    0  503  0.12176820567E+02 -0.26652248699E+02  0.28563898758E+01  0.29441064569E+02  0.00000000000E+00 0. -1.
</event>
<event>
 4    1  0.1848744E+004  0.2477967E+02  0.7546771E-02  0.1471283E+00
         21   -1    0    0  503  502  0.00000000000E+00  0.00000000000E+00  0.82350170838E+02  0.82350170838E+02  0.00000000000E+00 0. -1.
         21   -1    0    0  501  503 -0.00000000000E+00 -0.00000000000E+00 -0.13789404339E+02  0.13789404339E+02  0.00000000000E+00 0.  1.
          2    1    1    2  501    0  0.24256487259E+02 -0.50650754739E+01  0.17037752099E+01  0.24838176537E+02  0.00000000000E+00 0.  1.
         -2    1    1    2    0  502 -0.24256487259E+02  0.50650754739E+01  0.66856991289E+02  0.71301398639E+02  0.00000000000E+00 0. -1.
</event>
<event>
 4    1  0.1848744E+004  0.2194457E+02  0.7546771E-02  0.1506194E+00
         21   -1    0    0  503  502  0.00000000000E+00  0.00000000000E+00  0.48185220810E+03  0.48185220810E+03  0.00000000000E+00 0. -1.
         21   -1    0    0  501  503 -0.00000000000E+00 -0.00000000000E+00 -0.23020735967E+01  0.23020735967E+01  0.00000000000E+00 0.  1.
          2    1    1    2  501    0 -0.99225977488E+01 -0.19573101697E+02  0.57674380479E+02  0.61708171418E+02  0.00000000000E+00 0.  1.
         -2    1    1    2    0  502  0.99225977488E+01  0.19573101697E+02  0.42187575402E+03  0.42244611028E+03  0.00000000000E+00 0. -1.
</event>
<event>
 4    1  0.1848744E+004  0.3849777E+02  0.7546771E-02  0.1357521E+00
         21   -1    0    0  501  502  0.00000000000E+00  0.00000000000E+00  0.68405914619E+03  0.68405914619E+03  0.00000000000E+00 0.  1.
         21   -1    0    0  502  503 -0.00000000000E+00 -0.00000000000E+00 -0.24263318366E+01  0.24263318366E+01  0.00000000000E+00 0. -1.
          2    1    1    2  501    0  0.40154902320E+01  0.38287776620E+02  0.45312019629E+03  0.45475266935E+03  0.00000000000E+00 0.  1.
         -2    1    1    2    0  503 -0.40154902320E+01 -0.38287776620E+02  0.22851261807E+03  0.23173280867E+03  0.00000000000E+00 0. -1.
</event>
<event>
 4    1  0.1848744E+004  0.2174048E+02  0.7546771E-02  0.1508950E+00
         21   -1    0    0  501  502  0.00000000000E+00  0.00000000000E+00  0.59217158428E+02  0.59217158428E+02  0.00000000000E+00 0. -1.
         21   -1    0    0  502  503 -0.00000000000E+00 -0.00000000000E+00 -0.22671917450E+02  0.22671917450E+02  0.00000000000E+00 0.  1.
          2    1    1    2  501    0  0.52944649471E+01  0.21085950776E+02  0.51231101484E+02  0.55653161981E+02  0.00000000000E+00 0. -1.
         -2    1    1    2    0  503 -0.52944649471E+01 -0.21085950776E+02 -0.14685860506E+02  0.26235913897E+02  0.00000000000E+00 0.  1.
</event>
<event>
 4    1  0.1848744E+004  0.2053842E+02  0.7546771E-02  0.1525958E+00
         21   -1    0    0  501  502  0.00000000000E+00  0.00000000000E+00  0.60530877611E+01  0.60530877611E+01  0.00000000000E+00 0. -1.
         21   -1    0    0  502  503 -0.00000000000E+00 -0.00000000000E+00 -0.92660880921E+02  0.92660880921E+02  0.00000000000E+00 0.  1.
          2    1    1    2  501    0  0.98888452620E+01 -0.18001042534E+02 -0.18728000373E+02  0.27795049755E+02  0.00000000000E+00 0. -1.
         -2    1    1    2    0  503 -0.98888452620E+01  0.18001042534E+02 -0.67879792788E+02  0.70918918927E+02  0.00000000000E+00 0.  1.
</event>
<event>
 4    1  0.1848744E+004  0.2272942E+02  0.7546771E-02  0.1495924E+00
         21   -1    0    0  503  502  0.00000000000E+00  0.00000000000E+00  0.19481102967E+02  0.19481102967E+02  0.00000000000E+00 0. -1.
         21   -1    0    0  501  503 -0.00000000000E+00 -0.00000000000E+00 -0.90159990489E+02  0.90159990489E+02  0.00000000000E+00 0.  1.
          2    1    1    2  501    0 -0.11214626186E+02  0.19770150992E+02 -0.81397288685E+02  0.84511214144E+02  0.00000000000E+00 0.  1.
         -2    1    1    2    0  502  0.11214626186E+02 -0.19770150992E+02  0.10718401163E+02  0.25129879312E+02  0.00000000000E+00 0. -1.
</event>
<event>
 4    1  0.1848744E+004  0.2122456E+02  0.7546771E-02  0.1516083E+00
         21   -1    0    0  501  502  0.00000000000E+00  0.00000000000E+00  0.24892742017E+02  0.24892742017E+02  0.00000000000E+00 0.  1.
         21   -1    0    0  502  503 -0.00000000000E+00 -0.00000000000E+00 -0.18831485829E+02  0.18831485829E+02  0.00000000000E+00 0. -1.
          2    1    1    2  501    0  0.12725534733E+02 -0.16986549167E+02  0.73484400441E+01  0.22460669133E+02  0.00000000000E+00 0.  1.
         -2    1    1    2    0  503 -0.12725534733E+02  0.16986549167E+02 -0.12871838558E+01  0.21263558713E+02  0.00000000000E+00 0. -1.
</event>
<event>
 4    1  0.1848744E+004  0.2207879E+02  0.7546771E-02  0.1504401E+00
         21   -1    0    0  501  502  0.00000000000E+00  0.00000000000E+00  0.71516590725E+00  0.71516590725E+00  0.00000000000E+00 0. -1.
         21   -1    0    0  502  503 -0.00000000000E+00 -0.00000000000E+00 -0.79079685753E+03  0.79079685753E+03  0.00000000000E+00 0.  1.
          2    1    1    2  501    0  0.21983217563E+02  0.20521164087E+01 -0.24799398487E+03  0.24897487739E+03  0.00000000000E+00 0. -1.
         -2    1    1    2    0  503 -0.21983217563E+02 -0.20521164087E+01 -0.54208770675E+03  0.54253714605E+03  0.00000000000E+00 0.  1.
</event>
<event>
 4    1  0.1848744E+004  0.2141689E+02  0.7546771E-02  0.1513395E+00
         21   -1    0    0  503  502  0.00000000000E+00  0.00000000000E+00  0.82948815123E+01  0.82948815123E+01  0.00000000000E+00 0. -1.
         21   -1    0    0  501  503 -0.00000000000E+00 -0.00000000000E+00 -0.77649858034E+02  0.77649858034E+02  0.00000000000E+00 0.  1.
          2    1    1    2  501    0  0.12908586865E+02  0.17089512953E+02 -0.57733507413E+02  0.61577925801E+02  0.00000000000E+00 0.  1.
         -2    1    1    2    0  502 -0.12908586865E+02 -0.17089512953E+02 -0.11621469109E+02  0.24366813745E+02  0.00000000000E+00 0. -1.
</event>
<event>
 4    1  0.1848744E+004  0.2167941E+02  0.7546771E-02  0.1509782E+00
         21   -1    0    0  503  502  0.00000000000E+00  0.00000000000E+00  0.50731718008E+01  0.50731718008E+01  0.00000000000E+00 0. -1.
         21   -1    0    0  501  503 -0.00000000000E+00 -0.00000000000E+00 -0.16005922299E+03  0.16005922299E+03  0.00000000000E+00 0.  1.
          2    1    1    2  501    0  0.20521519863E+02 -0.69902759913E+01 -0.13107791159E+03  0.13285863029E+03  0.00000000000E+00 0.  1.
         -2    1    1    2    0  502 -0.20521519863E+02  0.69902759913E+01 -0.23908139600E+02  0.32273764501E+02  0.00000000000E+00 0. -1.
</event>
<event>
 4    1  0.1848744E+004  0.4564686E+02  0.7546771E-02  0.1318236E+00
         21   -1    0    0  501  502  0.00000000000E+00  0.00000000000E+00  0.21582704600E+03  0.21582704600E+03  0.00000000000E+00 0. -1.
         21   -1    0    0  502  503 -0.00000000000E+00 -0.00000000000E+00 -0.14637681674E+02  0.14637681674E+02  0.00000000000E+00 0.  1.
          2    1    1    2  501    0 -0.14997392089E+02 -0.43112804093E+02  0.16783118590E+03  0.17392798109E+03  0.00000000000E+00 0. -1.
         -2    1    1    2    0  503  0.14997392089E+02  0.43112804093E+02  0.33358178427E+02  0.56536746583E+02  0.00000000000E+00 0.  1.
</event>
<event>
 4    1  0.1848744E+004  0.2204711E+02  0.7546771E-02  0.1504823E+00
         21   -1    0    0  503  502  0.00000000000E+00  0.00000000000E+00  0.37358973458E+02  0.37358973458E+02  0.00000000000E+00 0.  1.
         21   -1    0    0  501  503 -0.00000000000E+00 -0.00000000000E+00 -0.20062629099E+02  0.20062629099E+02  0.00000000000E+00 0. -1.
          2    1    1    2  501    0 -0.15305113204E+02  0.15869106079E+02 -0.83733444322E+01  0.23583636592E+02  0.00000000000E+00 0. -1.
         -2    1    1    2    0  502  0.15305113204E+02 -0.15869106079E+02  0.25669688792E+02  0.33837965965E+02  0.00000000000E+00 0.  1.
</event>
<event>
 4    1  0.1848744E+004  0.3228503E+02  0.7546771E-02  0.1400726E+00
         21   -1    0    0  501  502  0.00000000000E+00  0.00000000000E+00  0.94741655793E+01  0.94741655793E+01  0.00000000000E+00 0. -1.
         21   -1    0    0  502  503 -0.00000000000E+00 -0.00000000000E+00 -0.28191308929E+03  0.28191308929E+03  0.00000000000E+00 0.  1.
          2    1    1    2  501    0  0.31167522269E+02  0.84207170597E+01 -0.22452686595E+02  0.39324878329E+02  0.00000000000E+00 0. -1.
         -2    1    1    2    0  503 -0.31167522269E+02 -0.84207170597E+01 -0.24998623711E+03  0.25206237654E+03  0.00000000000E+00 0.  1.
</event>
<event>
 4    1  0.1848744E+004  0.2874358E+02  0.7546771E-02  0.1430838E+00
         21   -1    0    0  503  502  0.00000000000E+00  0.00000000000E+00  0.22892274960E+03  0.22892274960E+03  0.00000000000E+00 0. -1.
         21   -1    0    0  501  503 -0.00000000000E+00 -0.00000000000E+00 -0.15890335088E+02  0.15890335088E+02  0.00000000000E+00 0.  1.
          2    1    1    2  501    0 -0.11725722200E+00  0.28743340308E+02 -0.10956263374E+01  0.28764453035E+02  0.00000000000E+00 0.  1.
         -2    1    1    2    0  502  0.11725722200E+00 -0.28743340308E+02  0.21412804085E+03  0.21604863165E+03  0.00000000000E+00 0. -1.
</event>
<event>
 4    1  0.1848744E+004  0.2223326E+02  0.7546771E-02  0.1502357E+00
         21   -1    0    0  501  502  0.00000000000E+00  0.00000000000E+00  0.51205240031E+02  0.51205240031E+02  0.00000000000E+00 0.  1.
         21   -1    0    0  502  503 -0.00000000000E+00 -0.00000000000E+00 -0.22280186613E+02  0.22280186613E+02  0.00000000000E+00 0. -1.
          2    1    1    2  501    0 -0.14329402672E+02  0.16999593538E+02  0.42122628046E+02  0.47630176936E+02  0.00000000000E+00 0. -1.
         -2    1    1    2    0  503  0.14329402672E+02 -0.16999593538E+02 -0.13197574628E+02  0.25855249708E+02  0.00000000000E+00 0.  1.
</event>
<event>
 4    1  0.1848744E+004  0.2116106E+02  0.7546771E-02  0.1516978E+00
         21   -1    0    0  501  502  0.00000000000E+00  0.00000000000E+00  0.14699655487E+03  0.14699655487E+03  0.00000000000E+00 0. -1.
         21   -1    0    0  502  503 -0.00000000000E+00 -0.00000000000E+00 -0.30805954148E+01  0.30805954148E+01  0.00000000000E+00 0.  1.
          2    1    1    2  501    0  0.79279597697E+00  0.21146205458E+02  0.79879412428E+02  0.82634805382E+02  0.00000000000E+00 0. -1.
         -2    1    1    2    0  503 -0.79279597697E+00 -0.21146205458E+02  0.64036547028E+02  0.67442344903E+02  0.00000000000E+00 0.  1.
</event>
<event>
 4    1  0.1848744E+004  0.2126688E+02  0.7546771E-02  0.1515488E+00
         21   -1    0    0  503  502  0.00000000000E+00  0.00000000000E+00  0.27333959222E+03  0.27333959222E+03  0.00000000000E+00 0. -1.
         21   -1    0    0  501  503 -0.00000000000E+00 -0.00000000000E+00 -0.28179544397E+01  0.28179544397E+01  0.00000000000E+00 0.  1.
          2    1    1    2  501    0  0.16649375257E+02  0.13231723460E+02  0.46543702462E+02  0.51172223335E+02  0.00000000000E+00 0.  1.
         -2    1    1    2    0  502 -0.16649375257E+02 -0.13231723460E+02  0.22397793532E+03  0.22498532332E+03  0.00000000000E+00 0. -1.
</event>
<event>
 4    1  0.1848744E+004  0.2075838E+02  0.7546771E-02  0.1522743E+00
         21   -1    0    0  501  502  0.00000000000E+00  0.00000000000E+00  0.28850693519E+02  0.28850693519E+02  0.00000000000E+00 0. -1.
         21   -1    0    0  502  503 -0.00000000000E+00 -0.00000000000E+00 -0.37853732931E+02  0.37853732931E+02  0.00000000000E+00 0.  1.
          2    1    1    2  501    0 -0.49178099846E+01  0.20167441045E+02  0.21449668879E+02  0.29849603488E+02  0.00000000000E+00 0. -1.
         -2    1    1    2    0  503  0.49178099846E+01 -0.20167441045E+02 -0.30452708291E+02  0.36854822963E+02  0.00000000000E+00 0.  1.
</event>
<event>
 4    1  0.1848744E+004  0.2459309E+02  0.7546771E-02  0.1473407E+00
         21   -1    0    0  501  502  0.00000000000E+00  0.00000000000E+00  0.16955609702E+02  0.16955609702E+02  0.00000000000E+00 0. -1.
         21   -1    0    0  502  503 -0.00000000000E+00 -0.00000000000E+00 -0.41714374415E+02  0.41714374415E+02  0.00000000000E+00 0.  1.
          2    1    1    2  501    0  0.23330931391E+02  0.77773939260E+01 -0.12135801192E+01  0.24623017535E+02  0.00000000000E+00 0. -1.
         -2    1    1    2    0  503 -0.23330931391E+02 -0.77773939260E+01 -0.23545184594E+02  0.34046966581E+02  0.00000000000E+00 0.  1.
</event>
<event>
 4    1  0.1848744E+004  0.2089517E+02  0.7546771E-02  0.1520767E+00
         21   -1    0    0  501  502  0.00000000000E+00  0.00000000000E+00  0.71898648163E+02  0.71898648163E+02  0.00000000000E+00 0. -1.
         21   -1    0    0  502  503 -0.00000000000E+00 -0.00000000000E+00 -0.12621086697E+02  0.12621086697E+02  0.00000000000E+00 0.  1.
          2    1    1    2  501    0  0.18055474193E+02 -0.10517026801E+02  0.60079292553E+02  0.63609192690E+02  0.00000000000E+00 0. -1.
         -2    1    1    2    0  503 -0.18055474193E+02  0.10517026801E+02 -0.80173108754E+00  0.20910542169E+02  0.00000000000E+00 0.  1.
</event>
<event>
 4    1  0.1848744E+004  0.2438063E+02  0.7546771E-02  0.1475853E+00
         21   -1    0    0  501  502  0.00000000000E+00  0.00000000000E+00  0.13384160663E+02  0.13384160663E+02  0.00000000000E+00 0. -1.
         21   -1    0    0  502  503 -0.00000000000E+00 -0.00000000000E+00 -0.85028632407E+02  0.85028632407E+02  0.00000000000E+00 0.  1.
          2    1    1    2  501    0 -0.82181903648E+01 -0.22953788562E+02 -0.18133948046E+01  0.24447974618E+02  0.00000000000E+00 0. -1.
         -2    1    1    2    0  503  0.82181903648E+01  0.22953788562E+02 -0.69831076939E+02  0.73964818453E+02  0.00000000000E+00 0.  1.
</event>
<event>
 4    1  0.1848744E+004  0.3392311E+02  0.7546771E-02  0.1388296E+00
         21   -1    0    0  501  502  0.00000000000E+00  0.00000000000E+00  0.35403315184E+02  0.35403315184E+02  0.00000000000E+00 0. -1.
         21   -1    0    0  502  503 -0.00000000000E+00 -0.00000000000E+00 -0.18363373916E+03  0.18363373916E+03  0.00000000000E+00 0.  1.
          2    1    1    2  501    0  0.33391747826E+02  0.59806720596E+01  0.25238749885E+02  0.42282050056E+02  0.00000000000E+00 0. -1.
         -2    1    1    2    0  503 -0.33391747826E+02 -0.59806720596E+01 -0.17346917386E+03  0.17675500429E+03  0.00000000000E+00 0.  1.
</event>
<event>
 4    1  0.1848744E+004  0.2286538E+02  0.7546771E-02  0.1494196E+00
         21   -1    0    0  501  502  0.00000000000E+00  0.00000000000E+00  0.85236980274E+01  0.85236980274E+01  0.00000000000E+00 0. -1.
         21   -1    0    0  502  503 -0.00000000000E+00 -0.00000000000E+00 -0.10918524088E+03  0.10918524088E+03  0.00000000000E+00 0.  1.
          2    1    1    2  501    0  0.82532550714E+01 -0.21323916024E+02 -0.11370098452E+02  0.25536341803E+02  0.00000000000E+00 0. -1.
         -2    1    1    2    0  503 -0.82532550714E+01  0.21323916024E+02 -0.89291444404E+02  0.92172597108E+02  0.00000000000E+00 0.  1.
</event>
<event>
 4    1  0.1848744E+004  0.2538077E+02  0.7546771E-02  0.1464589E+00
         21   -1    0    0  503  502  0.00000000000E+00  0.00000000000E+00  0.95444771569E+01  0.95444771569E+01  0.00000000000E+00 0.  1.
         21   -1    0    0  501  503 -0.00000000000E+00 -0.00000000000E+00 -0.72673894171E+02  0.72673894171E+02  0.00000000000E+00 0. -1.
          2    1    1    2  501    0 -0.67317445306E+01 -0.24471759045E+02 -0.20588283980E+02  0.32681199679E+02  0.00000000000E+00 0.  1.
         -2    1    1    2    0  502  0.67317445306E+01  0.24471759045E+02 -0.42541133034E+02  0.49537171649E+02  0.00000000000E+00 0. -1.
</event>
<event>
 4    1  0.1848744E+004  0.2799884E+02  0.7546771E-02  0.1437825E+00
         21   -1    0    0  503  502  0.00000000000E+00  0.00000000000E+00  0.19986769694E+02  0.19986769694E+02  0.00000000000E+00 0. -1.
         21   -1    0    0  501  503 -0.00000000000E+00 -0.00000000000E+00 -0.10288966869E+03  0.10288966869E+03  0.00000000000E+00 0.  1.
          2    1    1    2  501    0  0.18604352216E+01 -0.27936964117E+02 -0.89780671275E+02  0.94045223791E+02  0.00000000000E+00 0.  1.
         -2    1    1    2    0  502 -0.18604352216E+01  0.27936964117E+02  0.68777722816E+01  0.28831214592E+02  0.00000000000E+00 0. -1.
</event>
<event>
 4    1  0.1848744E+004  0.3999586E+02  0.7546771E-02  0.1348510E+00
         21   -1    0    0  503  502  0.00000000000E+00  0.00000000000E+00  0.12031303049E+02  0.12031303049E+02  0.00000000000E+00 0.  1.
         21   -1    0    0  501  503 -0.00000000000E+00 -0.00000000000E+00 -0.25343547660E+03  0.25343547660E+03  0.00000000000E+00 0. -1.
          2    1    1    2  501    0  0.37133876796E+02 -0.14857462392E+02 -0.21221824161E+03  0.21595428003E+03  0.00000000000E+00 0. -1.
         -2    1    1    2    0  502 -0.37133876796E+02  0.14857462392E+02 -0.29185931948E+02  0.49512499617E+02  0.00000000000E+00 0.  1.
</event>
<event>
 4    1  0.1848744E+004  0.2874785E+02  0.7546771E-02  0.1430799E+00
         21   -1    0    0  501  502  0.00000000000E+00  0.00000000000E+00  0.21274590601E+03  0.21274590601E+03  0.00000000000E+00 0.  1.
         21   -1    0    0  502  503 -0.00000000000E+00 -0.00000000000E+00 -0.41037035625E+01  0.41037035625E+01  0.00000000000E+00 0. -1.
          2    1    1    2  501    0  0.62593755780E+01 -0.28058139417E+02  0.12937275396E+03  0.13252829297E+03  0.00000000000E+00 0. -1.
         -2    1    1    2    0  503 -0.62593755780E+01  0.28058139417E+02  0.79269448485E+02  0.84321316601E+02  0.00000000000E+00 0.  1.
</event>
<event>
 4    1  0.1848744E+004  0.4826687E+02  0.7546771E-02  0.1305867E+00
         21   -1    0    0  503  502  0.00000000000E+00  0.00000000000E+00  0.71441961839E+03  0.71441961839E+03  0.00000000000E+00 0. -1.
         21   -1    0    0  501  503 -0.00000000000E+00 -0.00000000000E+00 -0.50049266972E+01  0.50049266972E+01  0.00000000000E+00 0.  1.
          2    1    1    2  501    0 -0.47836116856E+02  0.64340469494E+01  0.14237020275E+03  0.15032952360E+03  0.00000000000E+00 0.  1.
         -2    1    1    2    0  502  0.47836116856E+02 -0.64340469494E+01  0.56704448895E+03  0.56909502149E+03  0.00000000000E+00 0. -1.
</event>
<event>
 4    1  0.1848744E+004  0.2195794E+02  0.7546771E-02  0.1506015E+00
         21   -1    0    0  501  502  0.00000000000E+00  0.00000000000E+00  0.35079812817E+01  0.35079812817E+01  0.00000000000E+00 0.  1.
         21   -1    0    0  502  503 -0.00000000000E+00 -0.00000000000E+00 -0.35028302259E+03  0.35028302259E+03  0.00000000000E+00 0. -1.
          2    1    1    2  501    0  0.21825676162E+02  0.24064078537E+01 -0.35497484540E+02  0.41739937079E+02  0.00000000000E+00 0.  1.
         -2    1    1    2    0  503 -0.21825676162E+02 -0.24064078537E+01 -0.31127755677E+03  0.31205106679E+03  0.00000000000E+00 0. -1.
</event>
<event>
 4    1  0.1848744E+004  0.2104480E+02  0.7546771E-02  0.1518626E+00
         21   -1    0    0  503  502  0.00000000000E+00  0.00000000000E+00  0.27361195091E+01  0.27361195091E+01  0.00000000000E+00 0. -1.
         21   -1    0    0  501  503 -0.00000000000E+00 -0.00000000000E+00 -0.44980753703E+03  0.44980753703E+03  0.00000000000E+00 0.  1.
          2    1    1    2  501    0  0.21035485402E+02 -0.62613291517E+00 -0.40457363473E+03  0.40512061118E+03  0.00000000000E+00 0.  1.
         -2    1    1    2    0  502 -0.21035485402E+02  0.62613291517E+00 -0.42497782794E+02  0.47423045357E+02  0.00000000000E+00 0. -1.
</event>
<event>
 4    1  0.1848744E+004  0.4430448E+02  0.7546771E-02  0.1324954E+00
         21   -1    0    0  501  502  0.00000000000E+00  0.00000000000E+00  0.52836310810E+02  0.52836310810E+02  0.00000000000E+00 0. -1.
         21   -1    0    0  502  503 -0.00000000000E+00 -0.00000000000E+00 -0.60728836655E+02  0.60728836655E+02  0.00000000000E+00 0.  1.
          2    1    1    2  501    0  0.44220695621E+02 -0.27233558292E+01  0.31435193387E+02  0.54323641000E+02  0.00000000000E+00 0. -1.
         -2    1    1    2    0  503 -0.44220695621E+02  0.27233558292E+01 -0.39327719232E+02  0.59241506464E+02  0.00000000000E+00 0.  1.
</event>
<event>
 4    1  0.1848744E+004  0.2161412E+02  0.7546771E-02  0.1510675E+00
         21   -1    0    0  501  502  0.00000000000E+00  0.00000000000E+00  0.27663419882E+01  0.27663419882E+01  0.00000000000E+00 0.  1.
         21   -1    0    0  502  503 -0.00000000000E+00 -0.00000000000E+00 -0.17099125300E+03  0.17099125300E+03  0.00000000000E+00 0. -1.
          2    1    1    2  501    0 -0.21236285696E+02 -0.40237434069E+01 -0.74450841443E+02  0.77524822688E+02  0.00000000000E+00 0.  1.
         -2    1    1    2    0  503  0.21236285696E+02  0.40237434069E+01 -0.93774069572E+02  0.96232772304E+02  0.00000000000E+00 0. -1.
</event>
<event>
 4    1  0.1848744E+004  0.2040709E+02  0.7546771E-02  0.1527901E+00
         21   -1    0    0  501  502  0.00000000000E+00  0.00000000000E+00  0.13351944564E+01  0.13351944564E+01  0.00000000000E+00 0.  1.
         21   -1    0    0  502  503 -0.00000000000E+00 -0.00000000000E+00 -0.38684467878E+03  0.38684467878E+03  0.00000000000E+00 0. -1.
          2    1    1    2  501    0 -0.44032571006E+01  0.19926383774E+02 -0.10732676340E+03  0.10924963883E+03  0.00000000000E+00 0.  1.
         -2    1    1    2    0  503  0.44032571006E+01 -0.19926383774E+02 -0.27818272092E+03  0.27893023440E+03  0.00000000000E+00 0. -1.
</event>
<event>
 4    1  0.1848744E+004  0.2785536E+02  0.7546771E-02  0.1439200E+00
         21   -1    0    0  503  502  0.00000000000E+00  0.00000000000E+00  0.70460459570E+03  0.70460459570E+03  0.00000000000E+00 0. -1.
         21   -1    0    0  501  503 -0.00000000000E+00 -0.00000000000E+00 -0.11545966264E+01  0.11545966264E+01  0.00000000000E+00 0.  1.
          2    1    1    2  501    0  0.26928905706E+02  0.71242445747E+01  0.27584816728E+03  0.27725102744E+03  0.00000000000E+00 0.  1.
         -2    1    1    2    0  502 -0.26928905706E+02 -0.71242445747E+01  0.42760183179E+03  0.42850816489E+03  0.00000000000E+00 0. -1.
</event>
<event>
 4    1  0.1848744E+004  0.3191816E+02  0.7546771E-02  0.1403629E+00
         21   -1    0    0  501  502  0.00000000000E+00  0.00000000000E+00  0.10746764166E+02  0.10746764166E+02  0.00000000000E+00 0.  1.
         21   -1    0    0  502  503 -0.00000000000E+00 -0.00000000000E+00 -0.21115018759E+03  0.21115018759E+03  0.00000000000E+00 0. -1.
          2    1    1    2  501    0  0.27788212143E+02 -0.15703006216E+02 -0.17842281228E+02  0.36566598663E+02  0.00000000000E+00 0.  1.
         -2    1    1    2    0  503 -0.27788212143E+02  0.15703006216E+02 -0.18256114220E+03  0.18533035310E+03  0.00000000000E+00 0. -1.
</event>
<event>
 4    1  0.1848744E+004  0.2169877E+02  0.7546771E-02  0.1509518E+00
         21   -1    0    0  501  502  0.00000000000E+00  0.00000000000E+00  0.33253535496E+03  0.33253535496E+03  0.00000000000E+00 0. -1.
         21   -1    0    0  502  503 -0.00000000000E+00 -0.00000000000E+00 -0.20107302018E+01  0.20107302018E+01  0.00000000000E+00 0.  1.
          2    1    1    2  501    0 -0.20720633268E+02  0.64414111858E+01  0.25624232389E+03  0.25715941549E+03  0.00000000000E+00 0. -1.
         -2    1    1    2    0  503  0.20720633268E+02 -0.64414111858E+01  0.74282300870E+02  0.77386669677E+02  0.00000000000E+00 0.  1.
</event>
<event>
 4    1  0.1848744E+004  0.3446757E+02  0.7546771E-02  0.1384345E+00
         21   -1    0    0  501  502  0.00000000000E+00  0.00000000000E+00  0.28898086835E+02  0.28898086835E+02  0.00000000000E+00 0. -1.
         21   -1    0    0  502  503 -0.00000000000E+00 -0.00000000000E+00 -0.99320584142E+02  0.99320584142E+02  0.00000000000E+00 0.  1.
          2    1    1    2  501    0 -0.10191845786E+02 -0.32926272379E+02  0.13868346455E+02  0.37152983281E+02  0.00000000000E+00 0. -1.
         -2    1    1    2    0  503  0.10191845786E+02  0.32926272379E+02 -0.84290843763E+02  0.91065687696E+02  0.00000000000E+00 0.  1.
</event>
<event>
 4    1  0.1848744E+004  0.2013236E+02  0.7546771E-02  0.1532022E+00
         21   -1    0    0  501  502  0.00000000000E+00  0.00000000000E+00  0.69740164463E+03  0.69740164463E+03  0.00000000000E+00 0. -1.
         21   -1    0    0  502  503 -0.00000000000E+00 -0.00000000000E+00 -0.13309235240E+01  0.13309235240E+01  0.00000000000E+00 0.  1.
          2    1    1    2  501    0  0.19951388852E+02 -0.26932923557E+01  0.61025337459E+03  0.61058536909E+03  0.00000000000E+00 0. -1.
         -2    1    1    2    0  503 -0.19951388852E+02  0.26932923557E+01  0.85817346515E+02  0.88147199069E+02  0.00000000000E+00 0.  1.
</event>
<event>
 4    1  0.1848744E+004  0.2066374E+02  0.7546771E-02  0.1524120E+00
         21   -1    0    0  501  502  0.00000000000E+00  0.00000000000E+00  0.91891422879E+01  0.91891422879E+01  0.00000000000E+00 0. -1.
         21   -1    0    0  502  503 -0.00000000000E+00 -0.00000000000E+00 -0.47539535729E+02  0.47539535729E+02  0.00000000000E+00 0.  1.
          2    1    1    2  501    0  0.95337236761E+01  0.18332985524E+02 -0.14914437630E+02  0.25483930136E+02  0.00000000000E+00 0. -1.
         -2    1    1    2    0  503 -0.95337236761E+01 -0.18332985524E+02 -0.23435955811E+02  0.31244747881E+02  0.00000000000E+00 0.  1.
</event>
<event>
 4    1  0.1848744E+004  0.2481311E+02  0.7546771E-02  0.1470905E+00
         21   -1    0    0  501  502  0.00000000000E+00  0.00000000000E+00  0.90252321926E+01  0.90252321926E+01  0.00000000000E+00 0. -1.
         21   -1    0    0  502  503 -0.00000000000E+00 -0.00000000000E+00 -0.12355684197E+03  0.12355684197E+03  0.00000000000E+00 0.  1.
          2    1    1    2  501    0 -0.15499198854E+02 -0.19376925162E+02 -0.12901532999E+02  0.27966765054E+02  0.00000000000E+00 0. -1.
         -2    1    1    2    0  503  0.15499198854E+02  0.19376925162E+02 -0.10163007677E+03  0.10461530910E+03  0.00000000000E+00 0.  1.
</event>
<event>
 4    1  0.1848744E+004  0.2441691E+02  0.7546771E-02  0.1475433E+00
         21   -1    0    0  503  502  0.00000000000E+00  0.00000000000E+00  0.14293099372E+01  0.14293099372E+01  0.00000000000E+00 0.  1.
         21   -1    0    0  501  503 -0.00000000000E+00 -0.00000000000E+00 -0.42478701529E+03  0.42478701529E+03  0.00000000000E+00 0. -1.
          2    1    1    2  501    0  0.14930137044E+02 -0.19320363509E+02 -0.18303756837E+03  0.18465897452E+03  0.00000000000E+00 0.  1.
         -2    1    1    2    0  502 -0.14930137044E+02  0.19320363509E+02 -0.24032013699E+03  0.24155735071E+03  0.00000000000E+00 0. -1.
</event>
<event>
 4    1  0.1848744E+004  0.2866542E+02  0.7546771E-02  0.1431560E+00
         21   -1    0    0  501  502  0.00000000000E+00  0.00000000000E+00  0.78822222478E+02  0.78822222478E+02  0.00000000000E+00 0.  1.
         21   -1    0    0  502  503 -0.00000000000E+00 -0.00000000000E+00 -0.10614998397E+02  0.10614998397E+02  0.00000000000E+00 0. -1.
          2    1    1    2  501    0 -0.25745070182E+02 -0.12605464208E+02  0.40089451604E+02  0.49283572278E+02  0.00000000000E+00 0.  1.
         -2    1    1    2    0  503  0.25745070182E+02  0.12605464208E+02  0.28117772477E+02  0.40153648597E+02  0.00000000000E+00 0. -1.
</event>
<event>
 4    1  0.1848744E+004  0.3120330E+02  0.7546771E-02  0.1409420E+00
         21   -1    0    0  501  502  0.00000000000E+00  0.00000000000E+00  0.22824650458E+02  0.22824650458E+02  0.00000000000E+00 0. -1.
         21   -1    0    0  502  503 -0.00000000000E+00 -0.00000000000E+00 -0.12871602925E+03  0.12871602925E+03  0.00000000000E+00 0.  1.
          2    1    1    2  501    0  0.29089729556E+02 -0.11288646421E+02  0.90097590518E+01  0.32478018133E+02  0.00000000000E+00 0. -1.
         -2    1    1    2    0  503 -0.29089729556E+02  0.11288646421E+02 -0.11490113784E+03  0.11906266157E+03  0.00000000000E+00 0.  1.
</event>
<event>
 4    1  0.1848744E+004  0.4558591E+02  0.7546771E-02  0.1318535E+00
         21   -1    0    0  501  502  0.00000000000E+00  0.00000000000E+00  0.17769620994E+02  0.17769620994E+02  0.00000000000E+00 0. -1.
         21   -1    0    0  502  503 -0.00000000000E+00 -0.00000000000E+00 -0.18196495523E+03  0.18196495523E+03  0.00000000000E+00 0.  1.
          2    1    1    2  501    0 -0.45585813979E+02 -0.94740225601E-01 -0.22400821876E+02  0.50792442672E+02  0.00000000000E+00 0. -1.
         -2    1    1    2    0  503  0.45585813979E+02  0.94740225601E-01 -0.14179451236E+03  0.14894213355E+03  0.00000000000E+00 0.  1.
</event>
<event>
 4    1  0.1848744E+004  0.2147580E+02  0.7546771E-02  0.1512579E+00
         21   -1    0    0  503  502  0.00000000000E+00  0.00000000000E+00  0.59589274707E+02  0.59589274707E+02  0.00000000000E+00 0.  1.
         21   -1    0    0  501  503 -0.00000000000E+00 -0.00000000000E+00 -0.18788877697E+02  0.18788877697E+02  0.00000000000E+00 0. -1.
          2    1    1    2  501    0 -0.63421385443E+01 -0.20517972023E+02 -0.96520759699E+01  0.23545115583E+02  0.00000000000E+00 0. -1.
         -2    1    1    2    0  502  0.63421385443E+01  0.20517972023E+02  0.50452472980E+02  0.54833036821E+02  0.00000000000E+00 0.  1.
</event>
<event>
 4    1  0.1848744E+004  0.2545800E+02  0.7546771E-02  0.1463744E+00
         21   -1    0    0  503  502  0.00000000000E+00  0.00000000000E+00  0.39850794715E+03  0.39850794715E+03  0.00000000000E+00 0. -1.
         21   -1    0    0  501  503 -0.00000000000E+00 -0.00000000000E+00 -0.16725629032E+01  0.16725629032E+01  0.00000000000E+00 0.  1.
          2    1    1    2  501    0  0.24599050479E+02  0.65571871662E+01  0.23168032022E+03  0.23307483941E+03  0.00000000000E+00 0. -1.
         -2    1    1    2    0  502 -0.24599050479E+02 -0.65571871662E+01  0.16515506402E+03  0.16710567064E+03  0.00000000000E+00 0.  1.
</event>
<event>
 4    1  0.1848744E+004  0.3195016E+02  0.7546771E-02  0.1403374E+00
         21   -1    0    0  501  502  0.00000000000E+00  0.00000000000E+00  0.11744961345E+02  0.11744961345E+02  0.00000000000E+00 0. -1.
         21   -1    0    0  502  503 -0.00000000000E+00 -0.00000000000E+00 -0.25865446409E+03  0.25865446409E+03  0.00000000000E+00 0.  1.
          2    1    1    2  501    0 -0.60054448844E+01  0.31380685346E+02 -0.13287912276E+02  0.34603199184E+02  0.00000000000E+00 0. -1.
         -2    1    1    2    0  503  0.60054448844E+01 -0.31380685346E+02 -0.23362159047E+03  0.23579622625E+03  0.00000000000E+00 0.  1.
</event>
<event>
 4    1  0.1848744E+004  0.2098969E+02  0.7546771E-02  0.1519412E+00
         21   -1    0    0  503  502  0.00000000000E+00  0.00000000000E+00  0.14086201715E+04  0.14086201715E+04  0.00000000000E+00 0. -1.
         21   -1    0    0  501  503 -0.00000000000E+00 -0.00000000000E+00 -0.67110571535E+00  0.67110571535E+00  0.00000000000E+00 0.  1.
          2    1    1    2  501    0 -0.19821866447E+02  0.69036674757E+01  0.18907391920E+03  0.19023541714E+03  0.00000000000E+00 0.  1.
         -2    1    1    2    0  502  0.19821866447E+02 -0.69036674757E+01  0.12188751466E+04  0.12190558601E+04  0.00000000000E+00 0. -1.
</event>
<event>
 4    1  0.1848744E+004  0.2217606E+02  0.7546771E-02  0.1503112E+00
         21   -1    0    0  503  502  0.00000000000E+00  0.00000000000E+00  0.20037352741E+01  0.20037352741E+01  0.00000000000E+00 0.  1.
         21   -1    0    0  501  503 -0.00000000000E+00 -0.00000000000E+00 -0.36079016212E+03  0.36079016212E+03  0.00000000000E+00 0. -1.
          2    1    1    2  501    0  0.73960195928E+01 -0.20906377445E+02 -0.28196540778E+03  0.28283611670E+03  0.00000000000E+00 0. -1.
         -2    1    1    2    0  502 -0.73960195928E+01  0.20906377445E+02 -0.76821019067E+02  0.79957780698E+02  0.00000000000E+00 0.  1.
</event>
<event>
 4    1  0.1848744E+004  0.2164117E+02  0.7546771E-02  0.1510304E+00
         21   -1    0    0  503  502  0.00000000000E+00  0.00000000000E+00  0.52643094791E+03  0.52643094791E+03  0.00000000000E+00 0.  1.
         21   -1    0    0  501  503 -0.00000000000E+00 -0.00000000000E+00 -0.52380152446E+01  0.52380152446E+01  0.00000000000E+00 0. -1.
          2    1    1    2  501    0 -0.15141260459E+02  0.15462288354E+02  0.18387139608E+02  0.28397658925E+02  0.00000000000E+00 0. -1.
         -2    1    1    2    0  502  0.15141260459E+02 -0.15462288354E+02  0.50280579306E+03  0.50327130423E+03  0.00000000000E+00 0.  1.
</event>
<event>
 4    1  0.1848744E+004  0.3739690E+02  0.7546771E-02  0.1364454E+00
         21   -1    0    0  501  502  0.00000000000E+00  0.00000000000E+00  0.38231570873E+02  0.38231570873E+02  0.00000000000E+00 0.  1.
         21   -1    0    0  502  503 -0.00000000000E+00 -0.00000000000E+00 -0.42025409337E+02  0.42025409337E+02  0.00000000000E+00 0. -1.
          2    1    1    2  501    0 -0.27634567885E+02 -0.25196405744E+02  0.12547298274E+02  0.39445695564E+02  0.00000000000E+00 0.  1.
         -2    1    1    2    0  503  0.27634567885E+02  0.25196405744E+02 -0.16341136738E+02  0.40811284646E+02  0.00000000000E+00 0. -1.
</event>
<event>
 4    1  0.1848744E+004  0.2596676E+02  0.7546771E-02  0.1458273E+00
         21   -1    0    0  501  502  0.00000000000E+00  0.00000000000E+00  0.16603570778E+02  0.16603570778E+02  0.00000000000E+00 0.  1.
         21   -1    0    0  502  503 -0.00000000000E+00 -0.00000000000E+00 -0.48545504953E+02  0.48545504953E+02  0.00000000000E+00 0. -1.
          2    1    1    2  501    0 -0.14255261889E+02  0.21703916113E+02 -0.28008803807E+01  0.26117377301E+02  0.00000000000E+00 0.  1.
         -2    1    1    2    0  503  0.14255261889E+02 -0.21703916113E+02 -0.29141053793E+02  0.39031698430E+02  0.00000000000E+00 0. -1.
</event>
<event>
 4    1  0.1848744E+004  0.2249908E+02  0.7546771E-02  0.1498886E+00
         21   -1    0    0  501  502  0.00000000000E+00  0.00000000000E+00  0.60065893248E+01  0.60065893248E+01  0.00000000000E+00 0.  1.
         21   -1    0    0  502  503 -0.00000000000E+00 -0.00000000000E+00 -0.16757358204E+04  0.16757358204E+04  0.00000000000E+00 0. -1.
          2    1    1    2  501    0 -0.18560692179E+02  0.12716497288E+02 -0.15410567240E+02  0.27270756867E+02  0.00000000000E+00 0.  1.
         -2    1    1    2    0  503  0.18560692179E+02 -0.12716497288E+02 -0.16543186638E+04  0.16544716528E+04  0.00000000000E+00 0. -1.
</event>
<event>
 4    1  0.1848744E+004  0.2052548E+02  0.7546771E-02  0.1526149E+00
         21   -1    0    0  503  502  0.00000000000E+00  0.00000000000E+00  0.11451259209E+02  0.11451259209E+02  0.00000000000E+00 0.  1.
         21   -1    0    0  501  503 -0.00000000000E+00 -0.00000000000E+00 -0.39094634620E+02  0.39094634620E+02  0.00000000000E+00 0. -1.
          2    1    1    2  501    0 -0.36237939443E+01 -0.20203059843E+02 -0.76859323051E+01  0.21917323399E+02  0.00000000000E+00 0.  1.
         -2    1    1    2    0  502  0.36237939443E+01  0.20203059843E+02 -0.19957443105E+02  0.28628570430E+02  0.00000000000E+00 0. -1.
</event>
<event>
 4    1  0.1848744E+004  0.2260252E+02  0.7546771E-02  0.1497550E+00
         21   -1    0    0  501  502  0.00000000000E+00  0.00000000000E+00  0.10428265595E+03  0.10428265595E+03  0.00000000000E+00 0.  1.
         21   -1    0    0  502  503 -0.00000000000E+00 -0.00000000000E+00 -0.50731949035E+01  0.50731949035E+01  0.00000000000E+00 0. -1.
          2    1    1    2  501    0 -0.18835882515E+02  0.12493343939E+02  0.59738431387E+02  0.63871388724E+02  0.00000000000E+00 0.  1.
         -2    1    1    2    0  503  0.18835882515E+02 -0.12493343939E+02  0.39471029663E+02  0.45484462133E+02  0.00000000000E+00 0. -1.
</event>
<event>
 4    1  0.1848744E+004  0.2978004E+02  0.7546771E-02  0.1421518E+00
         21   -1    0    0  501  502  0.00000000000E+00  0.00000000000E+00  0.43775542714E+00  0.43775542714E+00  0.00000000000E+00 0. -1.
         21   -1    0    0  502  503 -0.00000000000E+00 -0.00000000000E+00 -0.22439454282E+04  0.22439454282E+04  0.00000000000E+00 0.  1.
          2    1    1    2  501    0 -0.15075916243E+01  0.29741852067E+02 -0.77194555459E+03  0.77251976664E+03  0.00000000000E+00 0. -1.
         -2    1    1    2    0  503  0.15075916243E+01 -0.29741852067E+02 -0.14715621182E+04  0.14718634170E+04  0.00000000000E+00 0.  1.
</event>
<event>
 4    1  0.1848744E+004  0.2167410E+02  0.7546771E-02  0.1509854E+00
         21   -1    0    0  503  502  0.00000000000E+00  0.00000000000E+00  0.66119756110E+02  0.66119756110E+02  0.00000000000E+00 0.  1.
         21   -1    0    0  501  503 -0.00000000000E+00 -0.00000000000E+00 -0.92944378226E+01  0.92944378226E+01  0.00000000000E+00 0. -1.
          2    1    1    2  501    0  0.19880099700E+01  0.21582735083E+02  0.10110632367E+02  0.23916344289E+02  0.00000000000E+00 0. -1.
         -2    1    1    2    0  502 -0.19880099700E+01 -0.21582735083E+02  0.46714685920E+02  0.51497849644E+02  0.00000000000E+00 0.  1.
</event>
<event>
 4    1  0.1848744E+004  0.2892630E+02  0.7546771E-02  0.1429162E+00
         21   -1    0    0  503  502  0.00000000000E+00  0.00000000000E+00  0.11340337845E+01  0.11340337845E+01  0.00000000000E+00 0.  1.
         21   -1    0    0  501  503 -0.00000000000E+00 -0.00000000000E+00 -0.84903391620E+03  0.84903391620E+03  0.00000000000E+00 0. -1.
          2    1    1    2  501    0  0.61933399762E+01 -0.28255499594E+02 -0.57778699036E+03  0.57851061956E+03  0.00000000000E+00 0. -1.
         -2    1    1    2    0  502 -0.61933399762E+01  0.28255499594E+02 -0.27011289206E+03  0.27165733042E+03  0.00000000000E+00 0.  1.
</event>
<event>
 4    1  0.1848744E+004  0.2161077E+02  0.7546771E-02  0.1510720E+00
         21   -1    0    0  503  502  0.00000000000E+00  0.00000000000E+00  0.19135073821E+02  0.19135073821E+02  0.00000000000E+00 0.  1.
         21   -1    0    0  501  503 -0.00000000000E+00 -0.00000000000E+00 -0.81451839366E+02  0.81451839366E+02  0.00000000000E+00 0. -1.
          2    1    1    2  501    0 -0.14529464210E+02 -0.15997503767E+02 -0.73247524630E+02  0.76369007598E+02  0.00000000000E+00 0. -1.
         -2    1    1    2    0  502  0.14529464210E+02  0.15997503767E+02  0.10930759084E+02  0.24217905590E+02  0.00000000000E+00 0.  1.
</event>
<event>
 4    1  0.1848744E+004  0.2699559E+02  0.7546771E-02  0.1447652E+00
         21   -1    0    0  503  502  0.00000000000E+00  0.00000000000E+00  0.34933589974E+03  0.34933589974E+03  0.00000000000E+00 0. -1.
         21   -1    0    0  501  503 -0.00000000000E+00 -0.00000000000E+00 -0.21360801276E+01  0.21360801276E+01  0.00000000000E+00 0.  1.
          2    1    1    2  501    0  0.42243718510E+01 -0.26663016197E+02  0.20047189256E+03  0.20228134234E+03  0.00000000000E+00 0.  1.
         -2    1    1    2    0  502 -0.42243718510E+01  0.26663016197E+02  0.14672792705E+03  0.14919063753E+03  0.00000000000E+00 0. -1.
</event>
<event>
 4    1  0.1848744E+004  0.2848100E+02  0.7546771E-02  0.1433273E+00
         21   -1    0    0  503  502  0.00000000000E+00  0.00000000000E+00  0.76393716222E+01  0.76393716222E+01  0.00000000000E+00 0. -1.
         21   -1    0    0  501  503 -0.00000000000E+00 -0.00000000000E+00 -0.12449493489E+03  0.12449493489E+03  0.00000000000E+00 0.  1.
          2    1    1    2  501    0  0.92432315015E+01  0.26939375337E+02 -0.33089143272E+02  0.43658431885E+02  0.00000000000E+00 0. -1.
         -2    1    1    2    0  502 -0.92432315015E+01 -0.26939375337E+02 -0.83766419991E+02  0.88475874622E+02  0.00000000000E+00 0.  1.
</event>
<event>
 4    1  0.1848744E+004  0.4963184E+02  0.7546771E-02  0.1299777E+00
         21   -1    0    0  503  502  0.00000000000E+00  0.00000000000E+00  0.51075305219E+02  0.51075305219E+02  0.00000000000E+00 0.  1.
         21   -1    0    0  501  503 -0.00000000000E+00 -0.00000000000E+00 -0.49894761846E+02  0.49894761846E+02  0.00000000000E+00 0. -1.
          2    1    1    2  501    0 -0.46555907359E+02 -0.17200799321E+02 -0.86337086794E+01  0.50377186631E+02  0.00000000000E+00 0.  1.
         -2    1    1    2    0  502  0.46555907359E+02  0.17200799321E+02  0.98142520532E+01  0.50592880434E+02  0.00000000000E+00 0. -1.
</event>
<event>
 4    1  0.1848744E+004  0.2001665E+02  0.7546771E-02  0.1533781E+00
         21   -1    0    0  503  502  0.00000000000E+00  0.00000000000E+00  0.69538265343E+02  0.69538265343E+02  0.00000000000E+00 0.  1.
         21   -1    0    0  501  503 -0.00000000000E+00 -0.00000000000E+00 -0.14508355084E+02  0.14508355084E+02  0.00000000000E+00 0. -1.
          2    1    1    2  501    0 -0.10481521579E+02 -0.17052973635E+02 -0.51137218892E+01  0.20659534264E+02  0.00000000000E+00 0. -1.
         -2    1    1    2    0  502  0.10481521579E+02  0.17052973635E+02  0.60143632148E+02  0.63387086164E+02  0.00000000000E+00 0.  1.
</event>
<event>
 4    1  0.1848744E+004  0.2561966E+02  0.7546771E-02  0.1461989E+00
         21   -1    0    0  501  502  0.00000000000E+00  0.00000000000E+00  0.50576794214E+02  0.50576794214E+02  0.00000000000E+00 0. -1.
         21   -1    0    0  502  503 -0.00000000000E+00 -0.00000000000E+00 -0.21941057460E+02  0.21941057460E+02  0.00000000000E+00 0.  1.
          2    1    1    2  501    0 -0.21622629114E+02 -0.13741511067E+02  0.37493045912E+02  0.45410303985E+02  0.00000000000E+00 0. -1.
         -2    1    1    2    0  503  0.21622629114E+02  0.13741511067E+02 -0.88573091585E+01  0.27107547690E+02  0.00000000000E+00 0.  1.
</event>
<event>
 4    1  0.1848744E+004  0.5832601E+02  0.7546771E-02  0.1265629E+00
         21   -1    0    0  503  502  0.00000000000E+00  0.00000000000E+00  0.34312805779E+03  0.34312805779E+03  0.00000000000E+00 0. -1.
         21   -1    0    0  501  503 -0.00000000000E+00 -0.00000000000E+00 -0.25699095526E+02  0.25699095526E+02  0.00000000000E+00 0.  1.
          2    1    1    2  501    0 -0.54959738864E+02  0.19528197466E+02  0.14186647895E+02  0.60026530557E+02  0.00000000000E+00 0.  1.
         -2    1    1    2    0  502  0.54959738864E+02 -0.19528197466E+02  0.30324231437E+03  0.30880062276E+03  0.00000000000E+00 0. -1.
</event>
<event>
 4    1  0.1848744E+004  0.2715791E+02  0.7546771E-02  0.1446028E+00
         21   -1    0    0  501  502  0.00000000000E+00  0.00000000000E+00  0.36406130185E+02  0.36406130185E+02  0.00000000000E+00 0.  1.
         21   -1    0    0  502  503 -0.00000000000E+00 -0.00000000000E+00 -0.20752051227E+02  0.20752051227E+02  0.00000000000E+00 0. -1.
          2    1    1    2  501    0  0.19229669300E+02 -0.19177376563E+02  0.12232202209E+02  0.29785545557E+02  0.00000000000E+00 0.  1.
         -2    1    1    2    0  503 -0.19229669300E+02  0.19177376563E+02  0.34218767486E+01  0.27372635856E+02  0.00000000000E+00 0. -1.
</event>
<event>
 4    1  0.1848744E+004  0.2014064E+02  0.7546771E-02  0.1531897E+00
         21   -1    0    0  503  502  0.00000000000E+00  0.00000000000E+00  0.26406534185E+01  0.26406534185E+01  0.00000000000E+00 0. -1.
         21   -1    0    0  501  503 -0.00000000000E+00 -0.00000000000E+00 -0.24102412482E+03  0.24102412482E+03  0.00000000000E+00 0.  1.
          2    1    1    2  501    0  0.17558961056E+02  0.98655132043E+01 -0.19256021007E+03  0.19361064011E+03  0.00000000000E+00 0.  1.
         -2    1    1    2    0  502 -0.17558961056E+02 -0.98655132043E+01 -0.45823261340E+02  0.50054138131E+02  0.00000000000E+00 0. -1.
</event>
<event>
 4    1  0.1848744E+004  0.3122233E+02  0.7546771E-02  0.1409264E+00
         21   -1    0    0  503  502  0.00000000000E+00  0.00000000000E+00  0.11687838330E+03  0.11687838330E+03  0.00000000000E+00 0.  1.
         21   -1    0    0  501  503 -0.00000000000E+00 -0.00000000000E+00 -0.16236110195E+02  0.16236110195E+02  0.00000000000E+00 0. -1.
          2    1    1    2  501    0  0.30703153255E+02  0.56701310803E+01  0.39075761164E+01  0.31465904681E+02  0.00000000000E+00 0. -1.
         -2    1    1    2    0  502 -0.30703153255E+02 -0.56701310803E+01  0.96734696993E+02  0.10164858882E+03  0.00000000000E+00 0.  1.
</event>
<event>
 4    1  0.1848744E+004  0.2062745E+02  0.7546771E-02  0.1524651E+00
         21   -1    0    0  503  502  0.00000000000E+00  0.00000000000E+00  0.30517603603E+01  0.30517603603E+01  0.00000000000E+00 0.  1.
         21   -1    0    0  501  503 -0.00000000000E+00 -0.00000000000E+00 -0.13989703698E+03  0.13989703698E+03  0.00000000000E+00 0. -1.
          2    1    1    2  501    0 -0.20627163366E+02  0.10916519517E+00 -0.72574277377E+02  0.75448774161E+02  0.00000000000E+00 0. -1.
         -2    1    1    2    0  502  0.20627163366E+02 -0.10916519517E+00 -0.64270999240E+02  0.67500023177E+02  0.00000000000E+00 0.  1.
</event>
<event>
 4    1  0.1848744E+004  0.2707866E+02  0.7546771E-02  0.1446820E+00
         21   -1    0    0  503  502  0.00000000000E+00  0.00000000000E+00  0.87273720104E+02  0.87273720104E+02  0.00000000000E+00 0.  1.
         21   -1    0    0  501  503 -0.00000000000E+00 -0.00000000000E+00 -0.13185800071E+02  0.13185800071E+02  0.00000000000E+00 0. -1.
          2    1    1    2  501    0  0.23685632775E+02 -0.13124202190E+02  0.67884326027E+01  0.27916602592E+02  0.00000000000E+00 0. -1.
         -2    1    1    2    0  502 -0.23685632775E+02  0.13124202190E+02  0.67299487431E+02  0.72542917583E+02  0.00000000000E+00 0.  1.
</event>
<event>
 4    1  0.1848744E+004  0.3646418E+02  0.7546771E-02  0.1370552E+00
         21   -1    0    0  503  502  0.00000000000E+00  0.00000000000E+00  0.33857169994E+02  0.33857169994E+02  0.00000000000E+00 0. -1.
         21   -1    0    0  501  503 -0.00000000000E+00 -0.00000000000E+00 -0.60159024236E+02  0.60159024236E+02  0.00000000000E+00 0.  1.
          2    1    1    2  501    0  0.30719171596E+02 -0.19646094499E+02 -0.40849746290E+02  0.54757084515E+02  0.00000000000E+00 0. -1.
         -2    1    1    2    0  502 -0.30719171596E+02  0.19646094499E+02  0.14547892047E+02  0.39259109715E+02  0.00000000000E+00 0.  1.
</event>
<event>
 4    1  0.1848744E+004  0.4205744E+02  0.7546771E-02  0.1336833E+00
         21   -1    0    0  501  502  0.00000000000E+00  0.00000000000E+00  0.15760989100E+03  0.15760989100E+03  0.00000000000E+00 0.  1.
         21   -1    0    0  502  503 -0.00000000000E+00 -0.00000000000E+00 -0.41602750958E+02  0.41602750958E+02  0.00000000000E+00 0. -1.
          2    1    1    2  501    0  0.34900678513E+02 -0.23468516656E+02  0.14312113910E+03  0.14917268212E+03  0.00000000000E+00 0.  1.
         -2    1    1    2    0  503 -0.34900678513E+02  0.23468516656E+02 -0.27113999061E+02  0.50039959830E+02  0.00000000000E+00 0. -1.
</event>
<event>
 4    1  0.1848744E+004  0.3009936E+02  0.7546771E-02  0.1418735E+00
         21   -1    0    0  503  502  0.00000000000E+00  0.00000000000E+00  0.69845757503E+02  0.69845757503E+02  0.00000000000E+00 0.  1.
         21   -1    0    0  501  503 -0.00000000000E+00 -0.00000000000E+00 -0.16325081798E+02  0.16325081798E+02  0.00000000000E+00 0. -1.
          2    1    1    2  501    0  0.28365407239E+02  0.10068527505E+02  0.72310062123E+01  0.30955759154E+02  0.00000000000E+00 0. -1.
         -2    1    1    2    0  502 -0.28365407239E+02 -0.10068527505E+02  0.46289669492E+02  0.55215080147E+02  0.00000000000E+00 0.  1.
</event>
<event>
 4    1  0.1848744E+004  0.2071126E+02  0.7546771E-02  0.1523427E+00
         21   -1    0    0  503  502  0.00000000000E+00  0.00000000000E+00  0.13088069827E+03  0.13088069827E+03  0.00000000000E+00 0. -1.
         21   -1    0    0  501  503 -0.00000000000E+00 -0.00000000000E+00 -0.18831483915E+02  0.18831483915E+02  0.00000000000E+00 0.  1.
          2    1    1    2  501    0 -0.50456890673E+01  0.20087246870E+02 -0.12006295226E+02  0.23939665621E+02  0.00000000000E+00 0.  1.
         -2    1    1    2    0  502  0.50456890673E+01 -0.20087246870E+02  0.12405550958E+03  0.12577251656E+03  0.00000000000E+00 0. -1.
</event>
<event>
 4    1  0.1848744E+004  0.2642038E+02  0.7546771E-02  0.1453519E+00
         21   -1    0    0  503  502  0.00000000000E+00  0.00000000000E+00  0.35879994339E+01  0.35879994339E+01  0.00000000000E+00 0. -1.
         21   -1    0    0  501  503 -0.00000000000E+00 -0.00000000000E+00 -0.28714102068E+03  0.28714102068E+03  0.00000000000E+00 0.  1.
          2    1    1    2  501    0 -0.24476009356E+02  0.99479442598E+01 -0.22432342915E+03  0.22587394160E+03  0.00000000000E+00 0.  1.
         -2    1    1    2    0  502  0.24476009356E+02 -0.99479442598E+01 -0.59229592094E+02  0.64855078511E+02  0.00000000000E+00 0. -1.
</event>
<event>
 4    1  0.1848744E+004  0.2290196E+02  0.7546771E-02  0.1493733E+00
         21   -1    0    0  503  502  0.00000000000E+00  0.00000000000E+00  0.18415058903E+02  0.18415058903E+02  0.00000000000E+00 0.  1.
         21   -1    0    0  501  503 -0.00000000000E+00 -0.00000000000E+00 -0.65267557003E+02  0.65267557003E+02  0.00000000000E+00 0. -1.
          2    1    1    2  501    0 -0.12178027433E+02  0.19395759667E+02 -0.54838174387E+02  0.59428319977E+02  0.00000000000E+00 0. -1.
         -2    1    1    2    0  502  0.12178027433E+02 -0.19395759667E+02  0.79856762873E+01  0.24254295929E+02  0.00000000000E+00 0.  1.
</event>
<event>
 4    1  0.1848744E+004  0.3365336E+02  0.7546771E-02  0.1390286E+00
         21   -1    0    0  501  502  0.00000000000E+00  0.00000000000E+00  0.18957306629E+02  0.18957306629E+02  0.00000000000E+00 0.  1.
         21   -1    0    0  502  503 -0.00000000000E+00 -0.00000000000E+00 -0.59743552351E+02  0.59743552351E+02  0.00000000000E+00 0. -1.
          2    1    1    2  501    0  0.10056947837E+02  0.32115520619E+02 -0.20197547964E+02  0.39249073978E+02  0.00000000000E+00 0. -1.
         -2    1    1    2    0  503 -0.10056947837E+02 -0.32115520619E+02 -0.20588697759E+02  0.39451785002E+02  0.00000000000E+00 0.  1.
</event>
<event>
 4    1  0.1848744E+004  0.3016379E+02  0.7546771E-02  0.1418178E+00
         21   -1    0    0  501  502  0.00000000000E+00  0.00000000000E+00  0.42319742768E+02  0.42319742768E+02  0.00000000000E+00 0. -1.
         21   -1    0    0  502  503 -0.00000000000E+00 -0.00000000000E+00 -0.37595806605E+02  0.37595806605E+02  0.00000000000E+00 0.  1.
          2    1    1    2  501    0 -0.18293076040E+02 -0.23983697764E+02  0.28507312302E+02  0.41503267873E+02  0.00000000000E+00 0. -1.
         -2    1    1    2    0  503  0.18293076040E+02  0.23983697764E+02 -0.23783376140E+02  0.38412281500E+02  0.00000000000E+00 0.  1.
</event>
<event>
 4    1  0.1848744E+004  0.2406365E+02  0.7546771E-02  0.1479557E+00
         21   -1    0    0  501  502  0.00000000000E+00  0.00000000000E+00  0.35739434520E+02  0.35739434520E+02  0.00000000000E+00 0. -1.
         21   -1    0    0  502  503 -0.00000000000E+00 -0.00000000000E+00 -0.18028254501E+02  0.18028254501E+02  0.00000000000E+00 0.  1.
          2    1    1    2  501    0  0.23428589737E+02  0.54918672088E+01  0.29970591919E+00  0.24065519860E+02  0.00000000000E+00 0.  1.
         -2    1    1    2    0  503 -0.23428589737E+02 -0.54918672088E+01  0.17411474100E+02  0.29702169160E+02  0.00000000000E+00 0. -1.
</event>
<event>
 4    1  0.1848744E+004  0.2496955E+02  0.7546771E-02  0.1469144E+00
         21   -1    0    0  503  502  0.00000000000E+00  0.00000000000E+00  0.64036644148E+02  0.64036644148E+02  0.00000000000E+00 0.  1.
         21   -1    0    0  501  503 -0.00000000000E+00 -0.00000000000E+00 -0.12416599329E+02  0.12416599329E+02  0.00000000000E+00 0. -1.
          2    1    1    2  501    0  0.23669492335E+02  0.79519491654E+01  0.80493960339E+01  0.26234922135E+02  0.00000000000E+00 0. -1.
         -2    1    1    2    0  502 -0.23669492335E+02 -0.79519491654E+01  0.43570648785E+02  0.50218321342E+02  0.00000000000E+00 0.  1.
</event>
<event>
 4    1  0.1848744E+004  0.2666834E+02  0.7546771E-02  0.1450968E+00
         21   -1    0    0  503  502  0.00000000000E+00  0.00000000000E+00  0.66443197382E+01  0.66443197382E+01  0.00000000000E+00 0.  1.
         21   -1    0    0  501  503 -0.00000000000E+00 -0.00000000000E+00 -0.11371666808E+03  0.11371666808E+03  0.00000000000E+00 0. -1.
          2    1    1    2  501    0 -0.10365425316E+01 -0.26648192189E+02 -0.68119610921E+02  0.73153823956E+02  0.00000000000E+00 0. -1.
         -2    1    1    2    0  502  0.10365425316E+01  0.26648192189E+02 -0.38952737424E+02  0.47207163866E+02  0.00000000000E+00 0.  1.
</event>
<event>
 4    1  0.1848744E+004  0.2042010E+02  0.7546771E-02  0.1527708E+00
         21   -1    0    0  501  502  0.00000000000E+00  0.00000000000E+00  0.59095255768E+02  0.59095255768E+02  0.00000000000E+00 0.  1.
         21   -1    0    0  502  503 -0.00000000000E+00 -0.00000000000E+00 -0.81297702513E+01  0.81297702513E+01  0.00000000000E+00 0. -1.
          2    1    1    2  501    0 -0.19820895127E+02 -0.49104652986E+01  0.37697993219E+02  0.42873292920E+02  0.00000000000E+00 0.  1.
         -2    1    1    2    0  503  0.19820895127E+02  0.49104652986E+01  0.13267492298E+02  0.24351733099E+02  0.00000000000E+00 0. -1.
</event>
<event>
 4    1  0.1848744E+004  0.2499998E+02  0.7546771E-02  0.1468804E+00
         21   -1    0    0  501  502  0.00000000000E+00  0.00000000000E+00  0.10362745529E+02  0.10362745529E+02  0.00000000000E+00 0. -1.
         21   -1    0    0  502  503 -0.00000000000E+00 -0.00000000000E+00 -0.11127714775E+03  0.11127714775E+03  0.00000000000E+00 0.  1.
          2    1    1    2  501    0 -0.14577990145E+02  0.20309632898E+02 -0.92968336583E+01  0.26672647060E+02  0.00000000000E+00 0. -1.
         -2    1    1    2    0  503  0.14577990145E+02 -0.20309632898E+02 -0.91617568561E+02  0.94967246218E+02  0.00000000000E+00 0.  1.
</event>
<event>
 4    1  0.1848744E+004  0.2696387E+02  0.7546771E-02  0.1447971E+00
         21   -1    0    0  503  502  0.00000000000E+00  0.00000000000E+00  0.62239062419E+01  0.62239062419E+01  0.00000000000E+00 0. -1.
         21   -1    0    0  501  503 -0.00000000000E+00 -0.00000000000E+00 -0.11681697846E+03  0.11681697846E+03  0.00000000000E+00 0.  1.
          2    1    1    2  501    0 -0.26775332845E+02  0.31830303702E+01 -0.55095160324E+02  0.61339439371E+02  0.00000000000E+00 0.  1.
         -2    1    1    2    0  502  0.26775332845E+02 -0.31830303702E+01 -0.55497911894E+02  0.61701445331E+02  0.00000000000E+00 0. -1.
</event>
<event>
 4    1  0.1848744E+004  0.2143733E+02  0.7546771E-02  0.1513112E+00
         21   -1    0    0  503  502  0.00000000000E+00  0.00000000000E+00  0.44311890640E+02  0.44311890640E+02  0.00000000000E+00 0.  1.
         21   -1    0    0  501  503 -0.00000000000E+00 -0.00000000000E+00 -0.10501799620E+02  0.10501799620E+02  0.00000000000E+00 0. -1.
          2    1    1    2  501    0  0.37670366411E+01  0.21103759988E+02  0.19963533016E+02  0.29293376404E+02  0.00000000000E+00 0.  1.
         -2    1    1    2    0  502 -0.37670366411E+01 -0.21103759988E+02  0.13846558005E+02  0.25520313856E+02  0.00000000000E+00 0. -1.
</event>
<event>
 4    1  0.1848744E+004  0.3944259E+02  0.7546771E-02  0.1351784E+00
         21   -1    0    0  501  502  0.00000000000E+00  0.00000000000E+00  0.62545524776E+02  0.62545524776E+02  0.00000000000E+00 0.  1.
         21   -1    0    0  502  503 -0.00000000000E+00 -0.00000000000E+00 -0.17271855025E+03  0.17271855025E+03  0.00000000000E+00 0. -1.
          2    1    1    2  501    0  0.34370748928E+02 -0.19348628346E+02  0.53746265872E+02  0.66666175051E+02  0.00000000000E+00 0.  1.
         -2    1    1    2    0  503 -0.34370748928E+02  0.19348628346E+02 -0.16391929135E+03  0.16859789997E+03  0.00000000000E+00 0. -1.
</event>
<event>
 4    1  0.1720637E+005  0.2003847E+02  0.7546771E-02  0.1533448E+00
         21   -1    0    0  503  502  0.00000000000E+00  0.00000000000E+00  0.17251051946E+01  0.17251051946E+01  0.00000000000E+00 0.  1.
         21   -1    0    0  501  503 -0.00000000000E+00 -0.00000000000E+00 -0.23319505750E+03  0.23319505750E+03  0.00000000000E+00 0. -1.
          2    1    1    2  501    0  0.10788177484E+02 -0.16886545008E+02 -0.12079255385E+03  0.12244337973E+03  0.00000000000E+00 0. -1.
         -2    1    1    2    0  502 -0.10788177484E+02  0.16886545008E+02 -0.11067739846E+03  0.11247678296E+03  0.00000000000E+00 0.  1.
</event>
<event>
 4    1  0.1848744E+004  0.2254601E+02  0.7546771E-02  0.1498279E+00
         21   -1    0    0  503  502  0.00000000000E+00  0.00000000000E+00  0.24763228872E+02  0.24763228872E+02  0.00000000000E+00 0. -1.
         21   -1    0    0  501  503 -0.00000000000E+00 -0.00000000000E+00 -0.56593630128E+02  0.56593630128E+02  0.00000000000E+00 0.  1.
          2    1    1    2  501    0 -0.18594258716E+02  0.12750532944E+02 -0.48388865208E+02  0.53383563235E+02  0.00000000000E+00 0.  1.
         -2    1    1    2    0  502  0.18594258716E+02 -0.12750532944E+02  0.16558463952E+02  0.27973295766E+02  0.00000000000E+00 0. -1.
</event>
<event>
 4    1  0.1848744E+004  0.3266443E+02  0.7546771E-02  0.1397771E+00
         21   -1    0    0  503  502  0.00000000000E+00  0.00000000000E+00  0.10134060893E+04  0.10134060893E+04  0.00000000000E+00 0. -1.
         21   -1    0    0  501  503 -0.00000000000E+00 -0.00000000000E+00 -0.10641942996E+01  0.10641942996E+01  0.00000000000E+00 0.  1.
          2    1    1    2  501    0  0.13738771023E+02 -0.29634630859E+02  0.45380163547E+03  0.45497570214E+03  0.00000000000E+00 0.  1.
         -2    1    1    2    0  502 -0.13738771023E+02  0.29634630859E+02  0.55854025958E+03  0.55949458151E+03  0.00000000000E+00 0. -1.
</event>
<event>
 4    1  0.1848744E+004  0.4428710E+02  0.7546771E-02  0.1325043E+00
         21   -1    0    0  501  502  0.00000000000E+00  0.00000000000E+00  0.73000394613E+01  0.73000394613E+01  0.00000000000E+00 0. -1.
         21   -1    0    0  502  503 -0.00000000000E+00 -0.00000000000E+00 -0.27010450434E+03  0.27010450434E+03  0.00000000000E+00 0.  1.
          2    1    1    2  501    0 -0.35833194381E+02  0.26025551548E+02 -0.14148830266E+03  0.14825750215E+03  0.00000000000E+00 0. -1.
         -2    1    1    2    0  503  0.35833194381E+02 -0.26025551548E+02 -0.12131616222E+03  0.12914704165E+03  0.00000000000E+00 0.  1.
</event>
<event>
 4    1  0.1848744E+004  0.3982251E+02  0.7546771E-02  0.1349529E+00
         21   -1    0    0  501  502  0.00000000000E+00  0.00000000000E+00  0.93786723538E+03  0.93786723538E+03  0.00000000000E+00 0. -1.
         21   -1    0    0  502  503 -0.00000000000E+00 -0.00000000000E+00 -0.16932026096E+01  0.16932026096E+01  0.00000000000E+00 0.  1.
          2    1    1    2  501    0 -0.36073555864E+02 -0.16868041494E+02  0.48544096960E+03  0.48707162432E+03  0.00000000000E+00 0. -1.
         -2    1    1    2    0  503  0.36073555864E+02  0.16868041494E+02  0.45073306317E+03  0.45248881366E+03  0.00000000000E+00 0.  1.
</event>
<event>
 4    1  0.1848744E+004  0.2149331E+02  0.7546771E-02  0.1512337E+00
         21   -1    0    0  503  502  0.00000000000E+00  0.00000000000E+00  0.34808067215E+01  0.34808067215E+01  0.00000000000E+00 0.  1.
         21   -1    0    0  501  503 -0.00000000000E+00 -0.00000000000E+00 -0.22579667953E+03  0.22579667953E+03  0.00000000000E+00 0. -1.
          2    1    1    2  501    0  0.19985470446E+02  0.79084422765E+01 -0.18476168005E+03  0.18600763668E+03  0.00000000000E+00 0. -1.
         -2    1    1    2    0  502 -0.19985470446E+02 -0.79084422765E+01 -0.37554192755E+02  0.43269849568E+02  0.00000000000E+00 0.  1.
</event>
<event>
 4    1  0.1848744E+004  0.2355255E+02  0.7546771E-02  0.1485674E+00
         21   -1    0    0  501  502  0.00000000000E+00  0.00000000000E+00  0.34318706332E+02  0.34318706332E+02  0.00000000000E+00 0. -1.
         21   -1    0    0  502  503 -0.00000000000E+00 -0.00000000000E+00 -0.57349354016E+02  0.57349354016E+02  0.00000000000E+00 0.  1.
          2    1    1    2  501    0 -0.19726818921E+02 -0.12867606432E+02  0.27326170845E+02  0.36075508217E+02  0.00000000000E+00 0. -1.
         -2    1    1    2    0  503  0.19726818921E+02  0.12867606432E+02 -0.50356818529E+02  0.55592552131E+02  0.00000000000E+00 0.  1.
</event>
<event>
 4    1  0.1848744E+004  0.2012713E+02  0.7546771E-02  0.1532101E+00
         21   -1    0    0  503  502  0.00000000000E+00  0.00000000000E+00  0.12819689277E+03  0.12819689277E+03  0.00000000000E+00 0. -1.
         21   -1    0    0  501  503 -0.00000000000E+00 -0.00000000000E+00 -0.37071158147E+01  0.37071158147E+01  0.00000000000E+00 0.  1.
          2    1    1    2  501    0  0.11828240395E+02  0.16284781707E+02  0.36908073674E+02  0.42039354044E+02  0.00000000000E+00 0.  1.
         -2    1    1    2    0  502 -0.11828240395E+02 -0.16284781707E+02  0.87581703283E+02  0.89864654543E+02  0.00000000000E+00 0. -1.
</event>
<event>
 4    1  0.1848744E+004  0.2063206E+02  0.7546771E-02  0.1524583E+00
         21   -1    0    0  501  502  0.00000000000E+00  0.00000000000E+00  0.63510880173E+01  0.63510880173E+01  0.00000000000E+00 0. -1.
         21   -1    0    0  502  503 -0.00000000000E+00 -0.00000000000E+00 -0.20396057005E+03  0.20396057005E+03  0.00000000000E+00 0.  1.
          2    1    1    2  501    0  0.20612686106E+02 -0.89398942670E+00 -0.12642241823E+02  0.24197279267E+02  0.00000000000E+00 0. -1.
         -2    1    1    2    0  503 -0.20612686106E+02  0.89398942670E+00 -0.18496724021E+03  0.18611437880E+03  0.00000000000E+00 0.  1.
</event>
<event>
 4    1  0.1848744E+004  0.2342561E+02  0.7546771E-02  0.1487222E+00
         21   -1    0    0  503  502  0.00000000000E+00  0.00000000000E+00  0.16984384522E+02  0.16984384522E+02  0.00000000000E+00 0. -1.
         21   -1    0    0  501  503 -0.00000000000E+00 -0.00000000000E+00 -0.57973267343E+02  0.57973267343E+02  0.00000000000E+00 0.  1.
          2    1    1    2  501    0  0.59888906406E+01  0.22647129364E+02 -0.45430691440E+02  0.51114645692E+02  0.00000000000E+00 0. -1.
         -2    1    1    2    0  502 -0.59888906406E+01 -0.22647129364E+02  0.44418086192E+01  0.23843006173E+02  0.00000000000E+00 0.  1.
</event>
<event>
 4    1  0.1848744E+004  0.2429158E+02  0.7546771E-02  0.1476887E+00
         21   -1    0    0  501  502  0.00000000000E+00  0.00000000000E+00  0.10594648097E+02  0.10594648097E+02  0.00000000000E+00 0. -1.
         21   -1    0    0  502  503 -0.00000000000E+00 -0.00000000000E+00 -0.67235544030E+02  0.67235544030E+02  0.00000000000E+00 0.  1.
          2    1    1    2  501    0  0.16307843490E+02  0.18003746990E+02 -0.12198744208E+02  0.27182531619E+02  0.00000000000E+00 0. -1.
         -2    1    1    2    0  503 -0.16307843490E+02 -0.18003746990E+02 -0.44442151725E+02  0.50647660508E+02  0.00000000000E+00 0.  1.
</event>
<event>
 4    1  0.1848744E+004  0.2103935E+02  0.7546771E-02  0.1518704E+00
         21   -1    0    0  503  502  0.00000000000E+00  0.00000000000E+00  0.11474249096E+02  0.11474249096E+02  0.00000000000E+00 0. -1.
         21   -1    0    0  501  503 -0.00000000000E+00 -0.00000000000E+00 -0.38578071256E+02  0.38578071256E+02  0.00000000000E+00 0.  1.
          2    1    1    2  501    0  0.86686178075E+01  0.19170532073E+02 -0.13536651724E+02  0.25017897085E+02  0.00000000000E+00 0.  1.
         -2    1    1    2    0  502 -0.86686178075E+01 -0.19170532073E+02 -0.13567170437E+02  0.25034423267E+02  0.00000000000E+00 0. -1.
</event>
<event>
 4    1  0.1848744E+004  0.2795317E+02  0.7546771E-02  0.1438261E+00
         21   -1    0    0  501  502  0.00000000000E+00  0.00000000000E+00  0.33725356547E+02  0.33725356547E+02  0.00000000000E+00 0.  1.
         21   -1    0    0  502  503 -0.00000000000E+00 -0.00000000000E+00 -0.22595110878E+03  0.22595110878E+03  0.00000000000E+00 0. -1.
          2    1    1    2  501    0  0.50446899433E+01 -0.27494196659E+02  0.26888585156E+02  0.38786283120E+02  0.00000000000E+00 0.  1.
         -2    1    1    2    0  503 -0.50446899433E+01  0.27494196659E+02 -0.21911433739E+03  0.22089018221E+03  0.00000000000E+00 0. -1.
</event>
<event>
 4    1  0.1848744E+004  0.2161151E+02  0.7546771E-02  0.1510710E+00
         21   -1    0    0  503  502  0.00000000000E+00  0.00000000000E+00  0.32409064688E+03  0.32409064688E+03  0.00000000000E+00 0. -1.
         21   -1    0    0  501  503 -0.00000000000E+00 -0.00000000000E+00 -0.20094012660E+01  0.20094012660E+01  0.00000000000E+00 0.  1.
          2    1    1    2  501    0  0.69711328452E+01  0.20456313018E+02  0.74331543178E+02  0.77409532661E+02  0.00000000000E+00 0.  1.
         -2    1    1    2    0  502 -0.69711328452E+01 -0.20456313018E+02  0.24774970243E+03  0.24869051548E+03  0.00000000000E+00 0. -1.
</event>
<event>
 4    1  0.1848744E+004  0.2645166E+02  0.7546771E-02  0.1453195E+00
         21   -1    0    0  503  502  0.00000000000E+00  0.00000000000E+00  0.11962461742E+03  0.11962461742E+03  0.00000000000E+00 0. -1.
         21   -1    0    0  501  503 -0.00000000000E+00 -0.00000000000E+00 -0.66960993466E+01  0.66960993466E+01  0.00000000000E+00 0.  1.
          2    1    1    2  501    0  0.23750657701E+02 -0.11644598062E+02  0.78928301875E+02  0.83242820965E+02  0.00000000000E+00 0. -1.
         -2    1    1    2    0  502 -0.23750657701E+02  0.11644598062E+02  0.34000216202E+02  0.43077895805E+02  0.00000000000E+00 0.  1.
</event>
<event>
 4    1  0.1848744E+004  0.2460805E+02  0.7546771E-02  0.1473236E+00
         21   -1    0    0  501  502  0.00000000000E+00  0.00000000000E+00  0.37417063673E+01  0.37417063673E+01  0.00000000000E+00 0.  1.
         21   -1    0    0  502  503 -0.00000000000E+00 -0.00000000000E+00 -0.18456955525E+03  0.18456955525E+03  0.00000000000E+00 0. -1.
          2    1    1    2  501    0 -0.53521254600E+01 -0.24018973858E+02 -0.12345584816E+03  0.12588448196E+03  0.00000000000E+00 0.  1.
         -2    1    1    2    0  503  0.53521254600E+01  0.24018973858E+02 -0.57372000721E+02  0.62426779661E+02  0.00000000000E+00 0. -1.
</event>
<event>
 4    1  0.1848744E+004  0.2187379E+02  0.7546771E-02  0.1507146E+00
         21   -1    0    0  503  502  0.00000000000E+00  0.00000000000E+00  0.68219108287E+02  0.68219108287E+02  0.00000000000E+00 0.  1.
         21   -1    0    0  501  503 -0.00000000000E+00 -0.00000000000E+00 -0.10495829776E+02  0.10495829776E+02  0.00000000000E+00 0. -1.
          2    1    1    2  501    0  0.13327660653E+02  0.17344627500E+02  0.61919025245E+01  0.22733286135E+02  0.00000000000E+00 0.  1.
         -2    1    1    2    0  502 -0.13327660653E+02 -0.17344627500E+02  0.51531375986E+02  0.55981651929E+02  0.00000000000E+00 0. -1.
</event>
<event>
 4    1  0.1848744E+004  0.2968036E+02  0.7546771E-02  0.1422395E+00
         21   -1    0    0  503  502  0.00000000000E+00  0.00000000000E+00  0.54019530563E+02  0.54019530563E+02  0.00000000000E+00 0. -1.
         21   -1    0    0  501  503 -0.00000000000E+00 -0.00000000000E+00 -0.26322356907E+02  0.26322356907E+02  0.00000000000E+00 0.  1.
          2    1    1    2  501    0 -0.14699516657E+02  0.25784642547E+02 -0.10929740596E+02  0.31628828791E+02  0.00000000000E+00 0.  1.
         -2    1    1    2    0  502  0.14699516657E+02 -0.25784642547E+02  0.38626914252E+02  0.48713058679E+02  0.00000000000E+00 0. -1.
</event>
<event>
 4    1  0.1848744E+004  0.2774525E+02  0.7546771E-02  0.1440262E+00
         21   -1    0    0  501  502  0.00000000000E+00  0.00000000000E+00  0.19771813229E+02  0.19771813229E+02  0.00000000000E+00 0. -1.
         21   -1    0    0  502  503 -0.00000000000E+00 -0.00000000000E+00 -0.47788067059E+02  0.47788067059E+02  0.00000000000E+00 0.  1.
          2    1    1    2  501    0 -0.20795634397E+02 -0.18366836694E+02  0.53194062686E+00  0.27750352448E+02  0.00000000000E+00 0. -1.
         -2    1    1    2    0  503  0.20795634397E+02  0.18366836694E+02 -0.28548194456E+02  0.39809527840E+02  0.00000000000E+00 0.  1.
</event>
<event>
 4    1  0.1848744E+004  0.2100242E+02  0.7546771E-02  0.1519230E+00
         21   -1    0    0  503  502  0.00000000000E+00  0.00000000000E+00  0.26782650491E+02  0.26782650491E+02  0.00000000000E+00 0.  1.
         21   -1    0    0  501  503 -0.00000000000E+00 -0.00000000000E+00 -0.91238952374E+02  0.91238952374E+02  0.00000000000E+00 0. -1.
          2    1    1    2  501    0  0.20122357487E+02 -0.60160040130E+01 -0.85648036925E+02  0.88185530583E+02  0.00000000000E+00 0. -1.
         -2    1    1    2    0  502 -0.20122357487E+02  0.60160040130E+01  0.21191735042E+02  0.29836072282E+02  0.00000000000E+00 0.  1.
</event>
<event>
 4    1  0.1848744E+004  0.2303503E+02  0.7546771E-02  0.1492059E+00
         21   -1    0    0  501  502  0.00000000000E+00  0.00000000000E+00  0.12034780904E+03  0.12034780904E+03  0.00000000000E+00 0.  1.
         21   -1    0    0  502  503 -0.00000000000E+00 -0.00000000000E+00 -0.44417844280E+01  0.44417844280E+01  0.00000000000E+00 0. -1.
          2    1    1    2  501    0 -0.49765916209E+01 -0.22491023568E+02  0.63314090375E+02  0.67374228346E+02  0.00000000000E+00 0. -1.
         -2    1    1    2    0  503  0.49765916209E+01  0.22491023568E+02  0.52591934240E+02  0.57415365124E+02  0.00000000000E+00 0.  1.
</event>
<event>
 4    1  0.1848744E+004  0.2163056E+02  0.7546771E-02  0.1510449E+00
         21   -1    0    0  501  502  0.00000000000E+00  0.00000000000E+00  0.18916890857E+03  0.18916890857E+03  0.00000000000E+00 0.  1.
         21   -1    0    0  502  503 -0.00000000000E+00 -0.00000000000E+00 -0.79916196544E+01  0.79916196544E+01  0.00000000000E+00 0. -1.
          2    1    1    2  501    0 -0.92666631206E+01 -0.19545078750E+02  0.17250563446E+03  0.17385647837E+03  0.00000000000E+00 0.  1.
         -2    1    1    2    0  503  0.92666631206E+01  0.19545078750E+02  0.86716544498E+01  0.23304049855E+02  0.00000000000E+00 0. -1.
</event>
<event>
 4    1  0.1848744E+004  0.2236226E+02  0.7546771E-02  0.1500665E+00
         21   -1    0    0  501  502  0.00000000000E+00  0.00000000000E+00  0.37046794371E+02  0.37046794371E+02  0.00000000000E+00 0. -1.
         21   -1    0    0  502  503 -0.00000000000E+00 -0.00000000000E+00 -0.76334965199E+02  0.76334965199E+02  0.00000000000E+00 0.  1.
          2    1    1    2  501    0  0.21580527054E+02 -0.58610291829E+01  0.31790804233E+02  0.38868059442E+02  0.00000000000E+00 0. -1.
         -2    1    1    2    0  503 -0.21580527054E+02  0.58610291829E+01 -0.71078975061E+02  0.74513700128E+02  0.00000000000E+00 0.  1.
</event>
<event>
 4    1  0.1848744E+004  0.2284120E+02  0.7546771E-02  0.1494502E+00
         21   -1    0    0  501  502  0.00000000000E+00  0.00000000000E+00  0.79296133900E+02  0.79296133900E+02  0.00000000000E+00 0.  1.
         21   -1    0    0  502  503 -0.00000000000E+00 -0.00000000000E+00 -0.75248221001E+01  0.75248221001E+01  0.00000000000E+00 0. -1.
          2    1    1    2  501    0 -0.17736550372E+02  0.14392198983E+02  0.20498427363E+02  0.30690489325E+02  0.00000000000E+00 0.  1.
         -2    1    1    2    0  503  0.17736550372E+02 -0.14392198983E+02  0.51272884437E+02  0.56130466675E+02  0.00000000000E+00 0. -1.
</event>
<event>
 4    1  0.1848744E+004  0.2038768E+02  0.7546771E-02  0.1528189E+00
         21   -1    0    0  503  502  0.00000000000E+00  0.00000000000E+00  0.54300132377E+02  0.54300132377E+02  0.00000000000E+00 0. -1.
         21   -1    0    0  501  503 -0.00000000000E+00 -0.00000000000E+00 -0.17078943450E+02  0.17078943450E+02  0.00000000000E+00 0.  1.
          2    1    1    2  501    0 -0.80253550547E+01  0.18741699768E+02 -0.79007011723E+01  0.21865011158E+02  0.00000000000E+00 0.  1.
         -2    1    1    2    0  502  0.80253550547E+01 -0.18741699768E+02  0.45121890099E+02  0.49514064669E+02  0.00000000000E+00 0. -1.
</event>
<event>
 4    1  0.1848744E+004  0.2148238E+02  0.7546771E-02  0.1512488E+00
         21   -1    0    0  501  502  0.00000000000E+00  0.00000000000E+00  0.79816126007E+01  0.79816126007E+01  0.00000000000E+00 0. -1.
         21   -1    0    0  502  503 -0.00000000000E+00 -0.00000000000E+00 -0.66604018497E+02  0.66604018497E+02  0.00000000000E+00 0.  1.
          2    1    1    2  501    0  0.19313842475E+02 -0.94057514998E+01 -0.15767591469E+02  0.26647881964E+02  0.00000000000E+00 0. -1.
         -2    1    1    2    0  503 -0.19313842475E+02  0.94057514998E+01 -0.42854814428E+02  0.47937749134E+02  0.00000000000E+00 0.  1.
</event>
<event>
 4    1  0.1848744E+004  0.2872514E+02  0.7546771E-02  0.1431008E+00
         21   -1    0    0  501  502  0.00000000000E+00  0.00000000000E+00  0.23744562979E+01  0.23744562979E+01  0.00000000000E+00 0. -1.
         21   -1    0    0  502  503 -0.00000000000E+00 -0.00000000000E+00 -0.91687848831E+03  0.91687848831E+03  0.00000000000E+00 0.  1.
          2    1    1    2  501    0  0.16974542641E+02  0.23173235614E+02 -0.95052386196E+02  0.99297986224E+02  0.00000000000E+00 0. -1.
         -2    1    1    2    0  503 -0.16974542641E+02 -0.23173235614E+02 -0.81945164582E+03  0.81995495838E+03  0.00000000000E+00 0.  1.
</event>
<event>
 4    1  0.1848744E+004  0.2215477E+02  0.7546771E-02  0.1503394E+00
         21   -1    0    0  501  502  0.00000000000E+00  0.00000000000E+00  0.28861048690E+01  0.28861048690E+01  0.00000000000E+00 0.  1.
         21   -1    0    0  502  503 -0.00000000000E+00 -0.00000000000E+00 -0.51064470838E+03  0.51064470838E+03  0.00000000000E+00 0. -1.
          2    1    1    2  501    0 -0.19176226576E+02 -0.11095312577E+02 -0.44185947556E+02  0.49429056114E+02  0.00000000000E+00 0.  1.
         -2    1    1    2    0  503  0.19176226576E+02  0.11095312577E+02 -0.46357265595E+03  0.46410175713E+03  0.00000000000E+00 0. -1.
</event>
<event>
 4    1  0.1848744E+004  0.3913127E+02  0.7546771E-02  0.1353653E+00
         21   -1    0    0  501  502  0.00000000000E+00  0.00000000000E+00  0.40687143199E+03  0.40687143199E+03  0.00000000000E+00 0. -1.
         21   -1    0    0  502  503 -0.00000000000E+00 -0.00000000000E+00 -0.90540767610E+01  0.90540767610E+01  0.00000000000E+00 0.  1.
          2    1    1    2  501    0 -0.32955193545E+02  0.21100043082E+02  0.35787875723E+03  0.36001175186E+03  0.00000000000E+00 0. -1.
         -2    1    1    2    0  503  0.32955193545E+02 -0.21100043082E+02  0.39938597996E+02  0.55913756890E+02  0.00000000000E+00 0.  1.
</event>
<event>
 4    1  0.1848744E+004  0.2279813E+02  0.7546771E-02  0.1495049E+00
         21   -1    0    0  501  502  0.00000000000E+00  0.00000000000E+00  0.10784690377E+02  0.10784690377E+02  0.00000000000E+00 0. -1.
         21   -1    0    0  502  503 -0.00000000000E+00 -0.00000000000E+00 -0.11415544024E+03  0.11415544024E+03  0.00000000000E+00 0.  1.
          2    1    1    2  501    0  0.10623371709E+02 -0.20171726355E+02 -0.41989393231E+01  0.23181580232E+02  0.00000000000E+00 0. -1.
         -2    1    1    2    0  503 -0.10623371709E+02  0.20171726355E+02 -0.99171810536E+02  0.10175855038E+03  0.00000000000E+00 0.  1.
</event>
<event>
 4    1  0.1848744E+004  0.2132302E+02  0.7546771E-02  0.1514703E+00
         21   -1    0    0  503  502  0.00000000000E+00  0.00000000000E+00  0.33831947277E+03  0.33831947277E+03  0.00000000000E+00 0. -1.
         21   -1    0    0  501  503 -0.00000000000E+00 -0.00000000000E+00 -0.19488198017E+01  0.19488198017E+01  0.00000000000E+00 0.  1.
          2    1    1    2  501    0 -0.21196179865E+02 -0.23223081252E+01  0.73397905355E+02  0.76432477825E+02  0.00000000000E+00 0. -1.
         -2    1    1    2    0  502  0.21196179865E+02  0.23223081252E+01  0.26297274761E+03  0.26383581475E+03  0.00000000000E+00 0.  1.
</event>
<event>
 4    1  0.1848744E+004  0.2984976E+02  0.7546771E-02  0.1420907E+00
         21   -1    0    0  501  502  0.00000000000E+00  0.00000000000E+00  0.32720704896E+03  0.32720704896E+03  0.00000000000E+00 0. -1.
         21   -1    0    0  502  503 -0.00000000000E+00 -0.00000000000E+00 -0.45511202659E+02  0.45511202659E+02  0.00000000000E+00 0.  1.
          2    1    1    2  501    0  0.26182519132E+02  0.14334705115E+02  0.32154584978E+03  0.32292838462E+03  0.00000000000E+00 0. -1.
         -2    1    1    2    0  503 -0.26182519132E+02 -0.14334705115E+02 -0.39850003480E+02  0.49789867003E+02  0.00000000000E+00 0.  1.
</event>
<event>
 4    1  0.1848744E+004  0.2086869E+02  0.7546771E-02  0.1521148E+00
         21   -1    0    0  503  502  0.00000000000E+00  0.00000000000E+00  0.26011869578E+02  0.26011869578E+02  0.00000000000E+00 0. -1.
         21   -1    0    0  501  503 -0.00000000000E+00 -0.00000000000E+00 -0.32825986628E+02  0.32825986628E+02  0.00000000000E+00 0.  1.
          2    1    1    2  501    0 -0.72838224099E+01 -0.19556283655E+02 -0.23999545154E+02  0.31803780701E+02  0.00000000000E+00 0.  1.
         -2    1    1    2    0  502  0.72838224099E+01  0.19556283655E+02  0.17185428103E+02  0.27034075505E+02  0.00000000000E+00 0. -1.
</event>
<event>
 4    1  0.1848744E+004  0.2258953E+02  0.7546771E-02  0.1497718E+00
         21   -1    0    0  501  502  0.00000000000E+00  0.00000000000E+00  0.27452856900E+02  0.27452856900E+02  0.00000000000E+00 0.  1.
         21   -1    0    0  502  503 -0.00000000000E+00 -0.00000000000E+00 -0.38938258360E+02  0.38938258360E+02  0.00000000000E+00 0. -1.
          2    1    1    2  501    0 -0.58987479769E+01  0.21805769475E+02 -0.29740938419E+02  0.37347158234E+02  0.00000000000E+00 0. -1.
         -2    1    1    2    0  503  0.58987479769E+01 -0.21805769475E+02  0.18255536958E+02  0.29043957026E+02  0.00000000000E+00 0.  1.
</event>
<event>
 4    1  0.1848744E+004  0.2025301E+02  0.7546771E-02  0.1530203E+00
         21   -1    0    0  503  502  0.00000000000E+00  0.00000000000E+00  0.63555471147E+01  0.63555471147E+01  0.00000000000E+00 0.  1.
         21   -1    0    0  501  503 -0.00000000000E+00 -0.00000000000E+00 -0.69821372615E+02  0.69821372615E+02  0.00000000000E+00 0. -1.
          2    1    1    2  501    0  0.14214961697E+02  0.14426333837E+02 -0.21257032540E+02  0.29360614374E+02  0.00000000000E+00 0.  1.
         -2    1    1    2    0  502 -0.14214961697E+02 -0.14426333837E+02 -0.42208792961E+02  0.46816305356E+02  0.00000000000E+00 0. -1.
</event>
<event>
 4    1  0.1848744E+004  0.2389143E+02  0.7546771E-02  0.1481598E+00
         21   -1    0    0  503  502  0.00000000000E+00  0.00000000000E+00  0.38030493737E+02  0.38030493737E+02  0.00000000000E+00 0.  1.
         21   -1    0    0  501  503 -0.00000000000E+00 -0.00000000000E+00 -0.26260454282E+02  0.26260454282E+02  0.00000000000E+00 0. -1.
          2    1    1    2  501    0  0.21099999236E+02  0.11206715650E+02 -0.15156284687E+02  0.28293345666E+02  0.00000000000E+00 0. -1.
         -2    1    1    2    0  502 -0.21099999236E+02 -0.11206715650E+02  0.26926324142E+02  0.35997602354E+02  0.00000000000E+00 0.  1.
</event>
<event>
 4    1  0.1848744E+004  0.2019599E+02  0.7546771E-02  0.1531060E+00
         21   -1    0    0  501  502  0.00000000000E+00  0.00000000000E+00  0.11868731796E+01  0.11868731796E+01  0.00000000000E+00 0.  1.
         21   -1    0    0  502  503 -0.00000000000E+00 -0.00000000000E+00 -0.46783574754E+03  0.46783574754E+03  0.00000000000E+00 0. -1.
          2    1    1    2  501    0  0.27089497361E+01  0.20013485542E+02 -0.11250421084E+03  0.11430256108E+03  0.00000000000E+00 0.  1.
         -2    1    1    2    0  503 -0.27089497361E+01 -0.20013485542E+02 -0.35414466352E+03  0.35472005965E+03  0.00000000000E+00 0. -1.
</event>
<event>
 4    1  0.1848744E+004  0.2095709E+02  0.7546771E-02  0.1519878E+00
         21   -1    0    0  501  502  0.00000000000E+00  0.00000000000E+00  0.13630945640E+02  0.13630945640E+02  0.00000000000E+00 0.  1.
         21   -1    0    0  502  503 -0.00000000000E+00 -0.00000000000E+00 -0.48628782850E+03  0.48628782850E+03  0.00000000000E+00 0. -1.
          2    1    1    2  501    0  0.14493458968E+02  0.15137341535E+02  0.52080496926E+01  0.21594518823E+02  0.00000000000E+00 0.  1.
         -2    1    1    2    0  503 -0.14493458968E+02 -0.15137341535E+02 -0.47786493255E+03  0.47832425532E+03  0.00000000000E+00 0. -1.
</event>
<event>
 4    1  0.1848744E+004  0.2111409E+02  0.7546771E-02  0.1517642E+00
         21   -1    0    0  501  502  0.00000000000E+00  0.00000000000E+00  0.27934571896E+01  0.27934571896E+01  0.00000000000E+00 0.  1.
         21   -1    0    0  502  503 -0.00000000000E+00 -0.00000000000E+00 -0.18747005766E+03  0.18747005766E+03  0.00000000000E+00 0. -1.
          2    1    1    2  501    0  0.29428617895E+01  0.20907992907E+02 -0.55651029666E+02  0.59521775056E+02  0.00000000000E+00 0.  1.
         -2    1    1    2    0  503 -0.29428617895E+01 -0.20907992907E+02 -0.12902557080E+03  0.13074173979E+03  0.00000000000E+00 0. -1.
</event>
<event>
 4    1  0.1848744E+004  0.2468070E+02  0.7546771E-02  0.1472407E+00
         21   -1    0    0  501  502  0.00000000000E+00  0.00000000000E+00  0.12159431220E+02  0.12159431220E+02  0.00000000000E+00 0.  1.
         21   -1    0    0  502  503 -0.00000000000E+00 -0.00000000000E+00 -0.52746004100E+02  0.52746004100E+02  0.00000000000E+00 0. -1.
          2    1    1    2  501    0 -0.21328456729E+02 -0.12419098688E+02 -0.27567593165E+02  0.37001476613E+02  0.00000000000E+00 0. -1.
         -2    1    1    2    0  503  0.21328456729E+02  0.12419098688E+02 -0.13018979715E+02  0.27903958706E+02  0.00000000000E+00 0.  1.
</event>
<event>
 4    1  0.1848744E+004  0.2781502E+02  0.7546771E-02  0.1439589E+00
         21   -1    0    0  503  502  0.00000000000E+00  0.00000000000E+00  0.55980965229E+01  0.55980965229E+01  0.00000000000E+00 0. -1.
         21   -1    0    0  501  503 -0.00000000000E+00 -0.00000000000E+00 -0.17734722799E+03  0.17734722799E+03  0.00000000000E+00 0.  1.
          2    1    1    2  501    0  0.49756715208E+01 -0.27366362966E+02 -0.12884914171E+03  0.13181720847E+03  0.00000000000E+00 0.  1.
         -2    1    1    2    0  502 -0.49756715208E+01  0.27366362966E+02 -0.42899989757E+02  0.51128116044E+02  0.00000000000E+00 0. -1.
</event>
<event>
 4    1  0.1848744E+004  0.5612072E+02  0.7546771E-02  0.1273615E+00
         21   -1    0    0  501  502  0.00000000000E+00  0.00000000000E+00  0.71919094842E+02  0.71919094842E+02  0.00000000000E+00 0.  1.
         21   -1    0    0  502  503 -0.00000000000E+00 -0.00000000000E+00 -0.63616404301E+02  0.63616404301E+02  0.00000000000E+00 0. -1.
          2    1    1    2  501    0 -0.40981545653E+02 -0.38341205822E+02  0.41980821720E+02  0.70085123531E+02  0.00000000000E+00 0. -1.
         -2    1    1    2    0  503  0.40981545653E+02  0.38341205822E+02 -0.33678131180E+02  0.65450375612E+02  0.00000000000E+00 0.  1.
</event>
<event>
 4    1  0.1848744E+004  0.2700282E+02  0.7546771E-02  0.1447580E+00
         21   -1    0    0  501  502  0.00000000000E+00  0.00000000000E+00  0.22007033449E+02  0.22007033449E+02  0.00000000000E+00 0.  1.
         21   -1    0    0  502  503 -0.00000000000E+00 -0.00000000000E+00 -0.34634176057E+02  0.34634176057E+02  0.00000000000E+00 0. -1.
          2    1    1    2  501    0 -0.26974437722E+02 -0.12377885570E+01 -0.41686536163E+00  0.27006039837E+02  0.00000000000E+00 0. -1.
         -2    1    1    2    0  503  0.26974437722E+02  0.12377885570E+01 -0.12210277247E+02  0.29635169670E+02  0.00000000000E+00 0.  1.
</event>
<event>
 4    1  0.1848744E+004  0.2504077E+02  0.7546771E-02  0.1468348E+00
         21   -1    0    0  501  502  0.00000000000E+00  0.00000000000E+00  0.97966877717E+02  0.97966877717E+02  0.00000000000E+00 0.  1.
         21   -1    0    0  502  503 -0.00000000000E+00 -0.00000000000E+00 -0.11359418772E+02  0.11359418772E+02  0.00000000000E+00 0. -1.
          2    1    1    2  501    0 -0.80044822577E+01 -0.23726955765E+02  0.79420479880E+02  0.83274562686E+02  0.00000000000E+00 0.  1.
         -2    1    1    2    0  503  0.80044822577E+01  0.23726955765E+02  0.71869790650E+01  0.26051733804E+02  0.00000000000E+00 0. -1.
</event>
<event>
 4    1  0.1848744E+004  0.2853985E+02  0.7546771E-02  0.1432724E+00
         21   -1    0    0  501  502  0.00000000000E+00  0.00000000000E+00  0.41776063958E+02  0.41776063958E+02  0.00000000000E+00 0.  1.
         21   -1    0    0  502  503 -0.00000000000E+00 -0.00000000000E+00 -0.41293468894E+02  0.41293468894E+02  0.00000000000E+00 0. -1.
          2    1    1    2  501    0 -0.16246789695E+02 -0.23464119970E+02  0.30417218879E+02  0.41710074390E+02  0.00000000000E+00 0.  1.
         -2    1    1    2    0  503  0.16246789695E+02  0.23464119970E+02 -0.29934623814E+02  0.41359458462E+02  0.00000000000E+00 0. -1.
</event>
<event>
 4    1  0.1848744E+004  0.4556320E+02  0.7546771E-02  0.1318647E+00
         21   -1    0    0  501  502  0.00000000000E+00  0.00000000000E+00  0.39885431432E+02  0.39885431432E+02  0.00000000000E+00 0.  1.
         21   -1    0    0  502  503 -0.00000000000E+00 -0.00000000000E+00 -0.45288412475E+03  0.45288412475E+03  0.00000000000E+00 0. -1.
          2    1    1    2  501    0  0.44363828231E+02 -0.10385372578E+02  0.25295136909E+02  0.52113809783E+02  0.00000000000E+00 0.  1.
         -2    1    1    2    0  503 -0.44363828231E+02  0.10385372578E+02 -0.43829383023E+03  0.44065574640E+03  0.00000000000E+00 0. -1.
</event>
<event>
 4    1  0.1848744E+004  0.2210274E+02  0.7546771E-02  0.1504083E+00
         21   -1    0    0  503  502  0.00000000000E+00  0.00000000000E+00  0.11398192953E+03  0.11398192953E+03  0.00000000000E+00 0.  1.
         21   -1    0    0  501  503 -0.00000000000E+00 -0.00000000000E+00 -0.51460936053E+01  0.51460936053E+01  0.00000000000E+00 0. -1.
          2    1    1    2  501    0 -0.14519547936E+01 -0.22054993553E+02  0.30067394998E+02  0.37317276901E+02  0.00000000000E+00 0. -1.
         -2    1    1    2    0  502  0.14519547936E+01  0.22054993553E+02  0.78768440929E+02  0.81810746237E+02  0.00000000000E+00 0.  1.
</event>
<event>
 4    1  0.1848744E+004  0.2125612E+02  0.7546771E-02  0.1515639E+00
         21   -1    0    0  501  502  0.00000000000E+00  0.00000000000E+00  0.10885174889E+03  0.10885174889E+03  0.00000000000E+00 0. -1.
         21   -1    0    0  502  503 -0.00000000000E+00 -0.00000000000E+00 -0.12283915348E+02  0.12283915348E+02  0.00000000000E+00 0.  1.
          2    1    1    2  501    0 -0.87019730781E+01  0.19393249245E+02  0.97567461566E+02  0.99856056442E+02  0.00000000000E+00 0. -1.
         -2    1    1    2    0  503  0.87019730781E+01 -0.19393249245E+02 -0.99962802457E+00  0.21279607795E+02  0.00000000000E+00 0.  1.
</event>
<event>
 4    1  0.1848744E+004  0.2632058E+02  0.7546771E-02  0.1454555E+00
         21   -1    0    0  503  502  0.00000000000E+00  0.00000000000E+00  0.41406967668E+02  0.41406967668E+02  0.00000000000E+00 0. -1.
         21   -1    0    0  501  503 -0.00000000000E+00 -0.00000000000E+00 -0.24733436494E+02  0.24733436494E+02  0.00000000000E+00 0.  1.
          2    1    1    2  501    0  0.13939193709E+02  0.22326480328E+02 -0.10474170549E+02  0.28328097250E+02  0.00000000000E+00 0.  1.
         -2    1    1    2    0  502 -0.13939193709E+02 -0.22326480328E+02  0.27147701724E+02  0.37812306912E+02  0.00000000000E+00 0. -1.
</event>
<event>
 4    1  0.1848744E+004  0.2364253E+02  0.7546771E-02  0.1484584E+00
         21   -1    0    0  501  502  0.00000000000E+00  0.00000000000E+00  0.65240622055E+00  0.65240622055E+00  0.00000000000E+00 0. -1.
         21   -1    0    0  502  503 -0.00000000000E+00 -0.00000000000E+00 -0.11460709998E+04  0.11460709998E+04  0.00000000000E+00 0.  1.
          2    1    1    2  501    0  0.23588550176E+02  0.15966967238E+01 -0.28464478282E+03  0.28562496657E+03  0.00000000000E+00 0. -1.
         -2    1    1    2    0  503 -0.23588550176E+02 -0.15966967238E+01 -0.86077381080E+03  0.86109843949E+03  0.00000000000E+00 0.  1.
</event>
<event>
 4    1  0.1848744E+004  0.2518531E+02  0.7546771E-02  0.1466741E+00
         21   -1    0    0  501  502  0.00000000000E+00  0.00000000000E+00  0.75728104272E+02  0.75728104272E+02  0.00000000000E+00 0. -1.
         21   -1    0    0  502  503 -0.00000000000E+00 -0.00000000000E+00 -0.10342250303E+02  0.10342250303E+02  0.00000000000E+00 0.  1.
          2    1    1    2  501    0  0.10297714941E+02 -0.22983843022E+02  0.51457274831E+02  0.57290061146E+02  0.00000000000E+00 0. -1.
         -2    1    1    2    0  503 -0.10297714941E+02  0.22983843022E+02  0.13928579138E+02  0.28780293429E+02  0.00000000000E+00 0.  1.
</event>
<event>
 4    1  0.1848744E+004  0.2767856E+02  0.7546771E-02  0.1440908E+00
         21   -1    0    0  503  502  0.00000000000E+00  0.00000000000E+00  0.33566895996E+02  0.33566895996E+02  0.00000000000E+00 0.  1.
         21   -1    0    0  501  503 -0.00000000000E+00 -0.00000000000E+00 -0.37353966158E+02  0.37353966158E+02  0.00000000000E+00 0. -1.
          2    1    1    2  501    0 -0.70917687091E+01 -0.26754619377E+02 -0.24010239531E+02  0.36641430701E+02  0.00000000000E+00 0. -1.
         -2    1    1    2    0  502  0.70917687091E+01  0.26754619377E+02  0.20223169369E+02  0.34279431453E+02  0.00000000000E+00 0.  1.
</event>
<event>
 4    1  0.1848744E+004  0.2945056E+02  0.7546771E-02  0.1424432E+00
         21   -1    0    0  503  502  0.00000000000E+00  0.00000000000E+00  0.19676564796E+03  0.19676564796E+03  0.00000000000E+00 0.  1.
         21   -1    0    0  501  503 -0.00000000000E+00 -0.00000000000E+00 -0.20712426541E+02  0.20712426541E+02  0.00000000000E+00 0. -1.
          2    1    1    2  501    0 -0.11957511297E+01 -0.29426273733E+02 -0.84502735803E+01  0.30638905498E+02  0.00000000000E+00 0. -1.
         -2    1    1    2    0  502  0.11957511297E+01  0.29426273733E+02  0.18450349500E+03  0.18683916901E+03  0.00000000000E+00 0.  1.
</event>
<event>
 4    1  0.1848744E+004  0.3571114E+02  0.7546771E-02  0.1375631E+00
         21   -1    0    0  503  502  0.00000000000E+00  0.00000000000E+00  0.12873322201E+04  0.12873322201E+04  0.00000000000E+00 0.  1.
         21   -1    0    0  501  503 -0.00000000000E+00 -0.00000000000E+00 -0.10468679437E+01  0.10468679437E+01  0.00000000000E+00 0. -1.
          2    1    1    2  501    0  0.35710013459E+02  0.28379772978E+00  0.49385107153E+03  0.49514055222E+03  0.00000000000E+00 0. -1.
         -2    1    1    2    0  502 -0.35710013459E+02 -0.28379772978E+00  0.79243428060E+03  0.79323853580E+03  0.00000000000E+00 0.  1.
</event>
<event>
 4    1  0.1848744E+004  0.2119646E+02  0.7546771E-02  0.1516478E+00
         21   -1    0    0  501  502  0.00000000000E+00  0.00000000000E+00  0.14299548081E+02  0.14299548081E+02  0.00000000000E+00 0.  1.
         21   -1    0    0  502  503 -0.00000000000E+00 -0.00000000000E+00 -0.31920249366E+02  0.31920249366E+02  0.00000000000E+00 0. -1.
          2    1    1    2  501    0 -0.18464109818E+02 -0.10409935302E+02 -0.59169427240E+01  0.22006824296E+02  0.00000000000E+00 0.  1.
         -2    1    1    2    0  503  0.18464109818E+02  0.10409935302E+02 -0.11703758561E+02  0.24212973152E+02  0.00000000000E+00 0. -1.
</event>
<event>
 4    1  0.1848744E+004  0.2958229E+02  0.7546771E-02  0.1423261E+00
         21   -1    0    0  501  502  0.00000000000E+00  0.00000000000E+00  0.13931843849E+01  0.13931843849E+01  0.00000000000E+00 0. -1.
         21   -1    0    0  502  503 -0.00000000000E+00 -0.00000000000E+00 -0.69934886393E+03  0.69934886393E+03  0.00000000000E+00 0.  1.
          2    1    1    2  501    0  0.25139328939E+02  0.15592508077E+02 -0.23717466846E+03  0.23901241710E+03  0.00000000000E+00 0. -1.
         -2    1    1    2    0  503 -0.25139328939E+02 -0.15592508077E+02 -0.46078101108E+03  0.46172963121E+03  0.00000000000E+00 0.  1.
</event>
<event>
 4    1  0.1848744E+004  0.2493069E+02  0.7546771E-02  0.1469580E+00
         21   -1    0    0  501  502  0.00000000000E+00  0.00000000000E+00  0.39347686176E+02  0.39347686176E+02  0.00000000000E+00 0. -1.
         21   -1    0    0  502  503 -0.00000000000E+00 -0.00000000000E+00 -0.41001988521E+02  0.41001988521E+02  0.00000000000E+00 0.  1.
          2    1    1    2  501    0  0.16433632563E+02 -0.18747671799E+02  0.30672285294E+02  0.39526302157E+02  0.00000000000E+00 0. -1.
         -2    1    1    2    0  503 -0.16433632563E+02  0.18747671799E+02 -0.32326587639E+02  0.40823372539E+02  0.00000000000E+00 0.  1.
</event>
<event>
 4    1  0.1848744E+004  0.2811960E+02  0.7546771E-02  0.1436674E+00
         21   -1    0    0  503  502  0.00000000000E+00  0.00000000000E+00  0.48568447492E+02  0.48568447492E+02  0.00000000000E+00 0. -1.
         21   -1    0    0  501  503 -0.00000000000E+00 -0.00000000000E+00 -0.10602865759E+03  0.10602865759E+03  0.00000000000E+00 0.  1.
          2    1    1    2  501    0  0.58433594611E+01 -0.27505768831E+02 -0.99847005784E+02  0.10373107891E+03  0.00000000000E+00 0.  1.
         -2    1    1    2    0  502 -0.58433594611E+01  0.27505768831E+02  0.42386795690E+02  0.50866026163E+02  0.00000000000E+00 0. -1.
</event>
<event>
 4    1  0.1848744E+004  0.3747990E+02  0.7546771E-02  0.1363922E+00
         21   -1    0    0  501  502  0.00000000000E+00  0.00000000000E+00  0.10495062930E+03  0.10495062930E+03  0.00000000000E+00 0. -1.
         21   -1    0    0  502  503 -0.00000000000E+00 -0.00000000000E+00 -0.54856753037E+02  0.54856753037E+02  0.00000000000E+00 0.  1.
          2    1    1    2  501    0 -0.37341500887E+02 -0.32178952613E+01  0.94522020318E+02  0.10168163484E+03  0.00000000000E+00 0. -1.
         -2    1    1    2    0  503  0.37341500887E+02  0.32178952613E+01 -0.44428144054E+02  0.58125747500E+02  0.00000000000E+00 0.  1.
</event>
<event>
 4    1  0.1848744E+004  0.4362055E+02  0.7546771E-02  0.1328483E+00
         21   -1    0    0  501  502  0.00000000000E+00  0.00000000000E+00  0.54740654900E+02  0.54740654900E+02  0.00000000000E+00 0. -1.
         21   -1    0    0  502  503 -0.00000000000E+00 -0.00000000000E+00 -0.37221815372E+02  0.37221815372E+02  0.00000000000E+00 0.  1.
          2    1    1    2  501    0  0.36891708324E+01 -0.43464262598E+02  0.20586100181E+02  0.48234216333E+02  0.00000000000E+00 0. -1.
         -2    1    1    2    0  503 -0.36891708324E+01  0.43464262598E+02 -0.30672606534E+01  0.43728253939E+02  0.00000000000E+00 0.  1.
</event>
<event>
 4    1  0.1848744E+004  0.3882668E+02  0.7546771E-02  0.1355502E+00
         21   -1    0    0  501  502  0.00000000000E+00  0.00000000000E+00  0.18289190601E+03  0.18289190601E+03  0.00000000000E+00 0. -1.
         21   -1    0    0  502  503 -0.00000000000E+00 -0.00000000000E+00 -0.38864531570E+02  0.38864531570E+02  0.00000000000E+00 0.  1.
          2    1    1    2  501    0  0.26887456986E+02 -0.28010277651E+02  0.17043418863E+03  0.17480081136E+03  0.00000000000E+00 0. -1.
         -2    1    1    2    0  503 -0.26887456986E+02  0.28010277651E+02 -0.26406814197E+02  0.46955626216E+02  0.00000000000E+00 0.  1.
</event>
<event>
 4    1  0.1848744E+004  0.2367111E+02  0.7546771E-02  0.1484239E+00
         21   -1    0    0  503  502  0.00000000000E+00  0.00000000000E+00  0.21525438116E+03  0.21525438116E+03  0.00000000000E+00 0. -1.
         21   -1    0    0  501  503 -0.00000000000E+00 -0.00000000000E+00 -0.39437680682E+02  0.39437680682E+02  0.00000000000E+00 0.  1.
          2    1    1    2  501    0  0.19718287447E+02 -0.13096205623E+02 -0.35163234611E+02  0.42388377297E+02  0.00000000000E+00 0.  1.
         -2    1    1    2    0  502 -0.19718287447E+02  0.13096205623E+02  0.21097993509E+03  0.21230368455E+03  0.00000000000E+00 0. -1.
</event>
<event>
 4    1  0.1848744E+004  0.2093958E+02  0.7546771E-02  0.1520129E+00
         21   -1    0    0  503  502  0.00000000000E+00  0.00000000000E+00  0.22409300541E+02  0.22409300541E+02  0.00000000000E+00 0. -1.
         21   -1    0    0  501  503 -0.00000000000E+00 -0.00000000000E+00 -0.28754517025E+02  0.28754517025E+02  0.00000000000E+00 0.  1.
          2    1    1    2  501    0 -0.15368461275E+02  0.14222384002E+02 -0.17633560374E+02  0.27375322101E+02  0.00000000000E+00 0.  1.
         -2    1    1    2    0  502  0.15368461275E+02 -0.14222384002E+02  0.11288343891E+02  0.23788495465E+02  0.00000000000E+00 0. -1.
</event>
<event>
 4    1  0.1848744E+004  0.2123592E+02  0.7546771E-02  0.1515923E+00
         21   -1    0    0  501  502  0.00000000000E+00  0.00000000000E+00  0.97367266031E+02  0.97367266031E+02  0.00000000000E+00 0.  1.
         21   -1    0    0  502  503 -0.00000000000E+00 -0.00000000000E+00 -0.19340477208E+02  0.19340477208E+02  0.00000000000E+00 0. -1.
          2    1    1    2  501    0 -0.12597850717E+01 -0.21198523825E+02  0.89902651471E+02  0.92376681107E+02  0.00000000000E+00 0.  1.
         -2    1    1    2    0  503  0.12597850717E+01  0.21198523825E+02 -0.11875862648E+02  0.24331062131E+02  0.00000000000E+00 0. -1.
</event>
<event>
 4    1  0.1848744E+004  0.2784061E+02  0.7546771E-02  0.1439342E+00
         21   -1    0    0  501  502  0.00000000000E+00  0.00000000000E+00  0.15455746114E+02  0.15455746114E+02  0.00000000000E+00 0.  1.
         21   -1    0    0  502  503 -0.00000000000E+00 -0.00000000000E+00 -0.12709257371E+03  0.12709257371E+03  0.00000000000E+00 0. -1.
          2    1    1    2  501    0  0.27839546431E+02  0.24383193178E+00 -0.36140439097E+00  0.27842959840E+02  0.00000000000E+00 0.  1.
         -2    1    1    2    0  503 -0.27839546431E+02 -0.24383193178E+00 -0.11127542321E+03  0.11470535999E+03  0.00000000000E+00 0. -1.
</event>
<event>
 4    1  0.1848744E+004  0.2156237E+02  0.7546771E-02  0.1511385E+00
         21   -1    0    0  501  502  0.00000000000E+00  0.00000000000E+00  0.50446543651E+01  0.50446543651E+01  0.00000000000E+00 0.  1.
         21   -1    0    0  502  503 -0.00000000000E+00 -0.00000000000E+00 -0.10818407011E+03  0.10818407011E+03  0.00000000000E+00 0. -1.
          2    1    1    2  501    0  0.54042643584E+00  0.21555598861E+02 -0.73355640257E+02  0.76459046950E+02  0.00000000000E+00 0. -1.
         -2    1    1    2    0  503 -0.54042643584E+00 -0.21555598861E+02 -0.29783775490E+02  0.36769677527E+02  0.00000000000E+00 0.  1.
</event>
<event>
 4    1  0.1848744E+004  0.3147173E+02  0.7546771E-02  0.1407224E+00
         21   -1    0    0  503  502  0.00000000000E+00  0.00000000000E+00  0.73083559188E+01  0.73083559188E+01  0.00000000000E+00 0.  1.
         21   -1    0    0  501  503 -0.00000000000E+00 -0.00000000000E+00 -0.13555615347E+03  0.13555615347E+03  0.00000000000E+00 0. -1.
          2    1    1    2  501    0 -0.97854210364E+01 -0.29911789458E+02 -0.65195616249E+02  0.72394322924E+02  0.00000000000E+00 0. -1.
         -2    1    1    2    0  502  0.97854210364E+01  0.29911789458E+02 -0.63052181299E+02  0.70470186462E+02  0.00000000000E+00 0.  1.
</event>
<event>
 4    1  0.1848744E+004  0.2311662E+02  0.7546771E-02  0.1491039E+00
         21   -1    0    0  503  502  0.00000000000E+00  0.00000000000E+00  0.10113448772E+03  0.10113448772E+03  0.00000000000E+00 0. -1.
         21   -1    0    0  501  503 -0.00000000000E+00 -0.00000000000E+00 -0.59916667481E+01  0.59916667481E+01  0.00000000000E+00 0.  1.
          2    1    1    2  501    0  0.19115653578E+02 -0.12998839335E+02  0.29161298049E+02  0.37212354664E+02  0.00000000000E+00 0.  1.
         -2    1    1    2    0  502 -0.19115653578E+02  0.12998839335E+02  0.65981522919E+02  0.69913799800E+02  0.00000000000E+00 0. -1.
</event>
<event>
 4    1  0.1848744E+004  0.2016777E+02  0.7546771E-02  0.1531486E+00
         21   -1    0    0  501  502  0.00000000000E+00  0.00000000000E+00  0.54830466497E+01  0.54830466497E+01  0.00000000000E+00 0. -1.
         21   -1    0    0  502  503 -0.00000000000E+00 -0.00000000000E+00 -0.38196934818E+03  0.38196934818E+03  0.00000000000E+00 0.  1.
          2    1    1    2  501    0  0.11288566657E+02 -0.16712491073E+02 -0.14342971894E+02  0.24747927949E+02  0.00000000000E+00 0. -1.
         -2    1    1    2    0  503 -0.11288566657E+02  0.16712491073E+02 -0.36214332963E+03  0.36270446688E+03  0.00000000000E+00 0.  1.
</event>
<event>
 4    1  0.1848744E+004  0.2207452E+02  0.7546771E-02  0.1504458E+00
         21   -1    0    0  501  502  0.00000000000E+00  0.00000000000E+00  0.14594881244E+02  0.14594881244E+02  0.00000000000E+00 0. -1.
         21   -1    0    0  502  503 -0.00000000000E+00 -0.00000000000E+00 -0.50157753985E+02  0.50157753985E+02  0.00000000000E+00 0.  1.
          2    1    1    2  501    0 -0.19625009958E+02  0.10106595849E+02  0.93961666897E+00  0.22094505538E+02  0.00000000000E+00 0. -1.
         -2    1    1    2    0  503  0.19625009958E+02 -0.10106595849E+02 -0.36502489410E+02  0.42658129690E+02  0.00000000000E+00 0.  1.
</event>
<event>
 4    1  0.1848744E+004  0.2023940E+02  0.7546771E-02  0.1530407E+00
         21   -1    0    0  501  502  0.00000000000E+00  0.00000000000E+00  0.43838382796E+02  0.43838382796E+02  0.00000000000E+00 0.  1.
         21   -1    0    0  502  503 -0.00000000000E+00 -0.00000000000E+00 -0.94574261988E+01  0.94574261988E+01  0.00000000000E+00 0. -1.
          2    1    1    2  501    0 -0.20231279858E+02 -0.57316090314E+00  0.14274313330E+02  0.24766695766E+02  0.00000000000E+00 0. -1.
         -2    1    1    2    0  503  0.20231279858E+02  0.57316090314E+00  0.20106643267E+02  0.28529113228E+02  0.00000000000E+00 0.  1.
</event>
<event>
 4    1  0.1848744E+004  0.2093235E+02  0.7546771E-02  0.1520233E+00
         21   -1    0    0  503  502  0.00000000000E+00  0.00000000000E+00  0.29500185682E+00  0.29500185682E+00  0.00000000000E+00 0.  1.
         21   -1    0    0  501  503 -0.00000000000E+00 -0.00000000000E+00 -0.15566025797E+04  0.15566025797E+04  0.00000000000E+00 0. -1.
          2    1    1    2  501    0  0.17521238684E+02 -0.11452929139E+02 -0.61153522282E+03  0.61189336664E+03  0.00000000000E+00 0. -1.
         -2    1    1    2    0  502 -0.17521238684E+02  0.11452929139E+02 -0.94477235504E+03  0.94500421493E+03  0.00000000000E+00 0.  1.
</event>
<event>
 4    1  0.1848744E+004  0.2568709E+02  0.7546771E-02  0.1461262E+00
         21   -1    0    0  503  502  0.00000000000E+00  0.00000000000E+00  0.79321195954E+02  0.79321195954E+02  0.00000000000E+00 0. -1.
         21   -1    0    0  501  503 -0.00000000000E+00 -0.00000000000E+00 -0.10489857741E+02  0.10489857741E+02  0.00000000000E+00 0.  1.
          2    1    1    2  501    0  0.12126598383E+02  0.22644472283E+02  0.13984682923E+02  0.29247185673E+02  0.00000000000E+00 0.  1.
         -2    1    1    2    0  502 -0.12126598383E+02 -0.22644472283E+02  0.54846655290E+02  0.60563868022E+02  0.00000000000E+00 0. -1.
</event>
<event>
 4    1  0.1848744E+004  0.2157810E+02  0.7546771E-02  0.1511169E+00
         21   -1    0    0  501  502  0.00000000000E+00  0.00000000000E+00  0.98993482079E+01  0.98993482079E+01  0.00000000000E+00 0.  1.
         21   -1    0    0  502  503 -0.00000000000E+00 -0.00000000000E+00 -0.47052422270E+02  0.47052422270E+02  0.00000000000E+00 0. -1.
          2    1    1    2  501    0 -0.18960742737E+02  0.10300700294E+02 -0.19127100976E+02  0.28835051300E+02  0.00000000000E+00 0. -1.
         -2    1    1    2    0  503  0.18960742737E+02 -0.10300700294E+02 -0.18025973086E+02  0.28116719179E+02  0.00000000000E+00 0.  1.
</event>
<event>
 4    1  0.1848744E+004  0.2700242E+02  0.7546771E-02  0.1447584E+00
         21   -1    0    0  501  502  0.00000000000E+00  0.00000000000E+00  0.16957955489E+02  0.16957955489E+02  0.00000000000E+00 0. -1.
         21   -1    0    0  502  503 -0.00000000000E+00 -0.00000000000E+00 -0.48035746545E+02  0.48035746545E+02  0.00000000000E+00 0.  1.
          2    1    1    2  501    0  0.66040917341E+01  0.26182369242E+02 -0.50132796043E+01  0.27463857325E+02  0.00000000000E+00 0. -1.
         -2    1    1    2    0  503 -0.66040917341E+01 -0.26182369242E+02 -0.26064511452E+02  0.37529844710E+02  0.00000000000E+00 0.  1.
</event>
<event>
 4    1  0.1848744E+004  0.2228247E+02  0.7546771E-02  0.1501710E+00
         21   -1    0    0  501  502  0.00000000000E+00  0.00000000000E+00  0.41166916930E+02  0.41166916930E+02  0.00000000000E+00 0.  1.
         21   -1    0    0  502  503 -0.00000000000E+00 -0.00000000000E+00 -0.74125191164E+02  0.74125191164E+02  0.00000000000E+00 0. -1.
          2    1    1    2  501    0 -0.19901623805E+02 -0.10021667598E+02  0.36269070712E+02  0.42567052303E+02  0.00000000000E+00 0.  1.
         -2    1    1    2    0  503  0.19901623805E+02  0.10021667598E+02 -0.69227344946E+02  0.72725055790E+02  0.00000000000E+00 0. -1.
</event>
<event>
 4    1  0.1848744E+004  0.2069278E+02  0.7546771E-02  0.1523697E+00
         21   -1    0    0  501  502  0.00000000000E+00  0.00000000000E+00  0.20114624820E+03  0.20114624820E+03  0.00000000000E+00 0.  1.
         21   -1    0    0  502  503 -0.00000000000E+00 -0.00000000000E+00 -0.24379755447E+01  0.24379755447E+01  0.00000000000E+00 0. -1.
          2    1    1    2  501    0  0.17919977478E+02  0.10347239202E+02  0.13560631197E+03  0.13717602851E+03  0.00000000000E+00 0.  1.
         -2    1    1    2    0  503 -0.17919977478E+02 -0.10347239202E+02  0.63101960682E+02  0.66408195231E+02  0.00000000000E+00 0. -1.
</event>
<event>
 4    1  0.1848744E+004  0.2421553E+02  0.7546771E-02  0.1477774E+00
         21   -1    0    0  501  502  0.00000000000E+00  0.00000000000E+00  0.12802754079E+03  0.12802754079E+03  0.00000000000E+00 0. -1.
         21   -1    0    0  502  503 -0.00000000000E+00 -0.00000000000E+00 -0.17451633547E+02  0.17451633547E+02  0.00000000000E+00 0.  1.
          2    1    1    2  501    0 -0.11907940789E+02 -0.21085369075E+02  0.11775719552E+03  0.12022124995E+03  0.00000000000E+00 0. -1.
         -2    1    1    2    0  503  0.11907940789E+02  0.21085369075E+02 -0.71812882789E+01  0.25257924384E+02  0.00000000000E+00 0.  1.
</event>
<event>
 4    1  0.1848744E+004  0.2105603E+02  0.7546771E-02  0.1518466E+00
         21   -1    0    0  501  502  0.00000000000E+00  0.00000000000E+00  0.26483285937E+02  0.26483285937E+02  0.00000000000E+00 0.  1.
         21   -1    0    0  502  503 -0.00000000000E+00 -0.00000000000E+00 -0.18813926675E+02  0.18813926675E+02  0.00000000000E+00 0. -1.
          2    1    1    2  501    0 -0.10574059867E+02 -0.18208399415E+02  0.11352540381E+02  0.23921469947E+02  0.00000000000E+00 0.  1.
         -2    1    1    2    0  503  0.10574059867E+02  0.18208399415E+02 -0.36831811191E+01  0.21375742665E+02  0.00000000000E+00 0. -1.
</event>
<event>
 4    1  0.1848744E+004  0.2511604E+02  0.7546771E-02  0.1467509E+00
         21   -1    0    0  501  502  0.00000000000E+00  0.00000000000E+00  0.20819237873E+03  0.20819237873E+03  0.00000000000E+00 0. -1.
         21   -1    0    0  502  503 -0.00000000000E+00 -0.00000000000E+00 -0.49383809585E+01  0.49383809585E+01  0.00000000000E+00 0.  1.
          2    1    1    2  501    0 -0.19938026647E+02 -0.15273852418E+02  0.16787311820E+03  0.16974156618E+03  0.00000000000E+00 0. -1.
         -2    1    1    2    0  503  0.19938026647E+02  0.15273852418E+02  0.35380879573E+02  0.43389193512E+02  0.00000000000E+00 0.  1.
</event>
<event>
 4    1  0.1848744E+004  0.2999193E+02  0.7546771E-02  0.1419667E+00
         21   -1    0    0  501  502  0.00000000000E+00  0.00000000000E+00  0.55815112653E+01  0.55815112653E+01  0.00000000000E+00 0. -1.
         21   -1    0    0  502  503 -0.00000000000E+00 -0.00000000000E+00 -0.22863458439E+03  0.22863458439E+03  0.00000000000E+00 0.  1.
          2    1    1    2  501    0  0.29405055750E+02 -0.59040889533E+01 -0.47907609394E+02  0.56521275710E+02  0.00000000000E+00 0. -1.
         -2    1    1    2    0  503 -0.29405055750E+02  0.59040889533E+01 -0.17514546373E+03  0.17769481995E+03  0.00000000000E+00 0.  1.
</event>
<event>
 4    1  0.1848744E+004  0.2625402E+02  0.7546771E-02  0.1455249E+00
         21   -1    0    0  501  502  0.00000000000E+00  0.00000000000E+00  0.69137837204E+03  0.69137837204E+03  0.00000000000E+00 0. -1.
         21   -1    0    0  502  503 -0.00000000000E+00 -0.00000000000E+00 -0.12877068862E+01  0.12877068862E+01  0.00000000000E+00 0.  1.
          2    1    1    2  501    0 -0.18502013314E+02 -0.18626571478E+02  0.50961360338E+03  0.51028942612E+03  0.00000000000E+00 0. -1.
         -2    1    1    2    0  503  0.18502013314E+02  0.18626571478E+02  0.18047706178E+03  0.18237665281E+03  0.00000000000E+00 0.  1.
</event>
<event>
 4    1  0.1848744E+004  0.2002882E+02  0.7546771E-02  0.1533596E+00
         21   -1    0    0  501  502  0.00000000000E+00  0.00000000000E+00  0.61976426007E+01  0.61976426007E+01  0.00000000000E+00 0. -1.
         21   -1    0    0  502  503 -0.00000000000E+00 -0.00000000000E+00 -0.15939637353E+03  0.15939637353E+03  0.00000000000E+00 0.  1.
          2    1    1    2  501    0 -0.20015069572E+02 -0.74200988519E+00 -0.12790557737E+02  0.23764510428E+02  0.00000000000E+00 0. -1.
         -2    1    1    2    0  503  0.20015069572E+02  0.74200988519E+00 -0.14040817319E+03  0.14182950570E+03  0.00000000000E+00 0.  1.
</event>
<event>
 4    1  0.1848744E+004  0.2134902E+02  0.7546771E-02  0.1514340E+00
         21   -1    0    0  503  502  0.00000000000E+00  0.00000000000E+00  0.13326321158E+01  0.13326321158E+01  0.00000000000E+00 0. -1.
         21   -1    0    0  501  503 -0.00000000000E+00 -0.00000000000E+00 -0.36868062614E+03  0.36868062614E+03  0.00000000000E+00 0.  1.
          2    1    1    2  501    0  0.83367884128E+01  0.19653973625E+02 -0.23342876222E+03  0.23440300286E+03  0.00000000000E+00 0. -1.
         -2    1    1    2    0  502 -0.83367884128E+01 -0.19653973625E+02 -0.13391923180E+03  0.13561025539E+03  0.00000000000E+00 0.  1.
</event>
<event>
 4    1  0.1848744E+004  0.2231830E+02  0.7546771E-02  0.1501240E+00
         21   -1    0    0  503  502  0.00000000000E+00  0.00000000000E+00  0.11592458424E+03  0.11592458424E+03  0.00000000000E+00 0.  1.
         21   -1    0    0  501  503 -0.00000000000E+00 -0.00000000000E+00 -0.43217861653E+01  0.43217861653E+01  0.00000000000E+00 0. -1.
          2    1    1    2  501    0 -0.84058459857E+00 -0.22302467720E+02  0.51231379965E+02  0.55881669106E+02  0.00000000000E+00 0.  1.
         -2    1    1    2    0  502  0.84058459857E+00  0.22302467720E+02  0.60371418106E+02  0.64364701297E+02  0.00000000000E+00 0. -1.
</event>
<event>
 4    1  0.1848744E+004  0.2104826E+02  0.7546771E-02  0.1518577E+00
         21   -1    0    0  503  502  0.00000000000E+00  0.00000000000E+00  0.11897164477E+03  0.11897164477E+03  0.00000000000E+00 0. -1.
         21   -1    0    0  501  503 -0.00000000000E+00 -0.00000000000E+00 -0.38680568494E+01  0.38680568494E+01  0.00000000000E+00 0.  1.
          2    1    1    2  501    0  0.13107579730E+02 -0.16468774172E+02  0.45691425456E+02  0.50306416383E+02  0.00000000000E+00 0.  1.
         -2    1    1    2    0  502 -0.13107579730E+02  0.16468774172E+02  0.69412162461E+02  0.72533285232E+02  0.00000000000E+00 0. -1.
</event>
<event>
 4    1  0.1848744E+004  0.2209391E+02  0.7546771E-02  0.1504201E+00
         21   -1    0    0  503  502  0.00000000000E+00  0.00000000000E+00  0.46607633496E+02  0.46607633496E+02  0.00000000000E+00 0.  1.
         21   -1    0    0  501  503 -0.00000000000E+00 -0.00000000000E+00 -0.85202500409E+02  0.85202500409E+02  0.00000000000E+00 0. -1.
          2    1    1    2  501    0 -0.21808020359E+02 -0.35427563424E+01 -0.81019077042E+02  0.83977566762E+02  0.00000000000E+00 0. -1.
         -2    1    1    2    0  502  0.21808020359E+02  0.35427563424E+01  0.42424210129E+02  0.47832567144E+02  0.00000000000E+00 0.  1.
</event>
<event>
 4    1  0.1848744E+004  0.2867718E+02  0.7546771E-02  0.1431451E+00
         21   -1    0    0  503  502  0.00000000000E+00  0.00000000000E+00  0.61351886445E+01  0.61351886445E+01  0.00000000000E+00 0.  1.
         21   -1    0    0  501  503 -0.00000000000E+00 -0.00000000000E+00 -0.14752450209E+03  0.14752450209E+03  0.00000000000E+00 0. -1.
          2    1    1    2  501    0 -0.21991012191E+02  0.18405867269E+02 -0.93920053817E+02  0.98200596109E+02  0.00000000000E+00 0.  1.
         -2    1    1    2    0  502  0.21991012191E+02 -0.18405867269E+02 -0.47469259632E+02  0.55459094629E+02  0.00000000000E+00 0. -1.
</event>
<event>
 4    1  0.1848744E+004  0.2483917E+02  0.7546771E-02  0.1470611E+00
         21   -1    0    0  501  502  0.00000000000E+00  0.00000000000E+00  0.43513668336E+03  0.43513668336E+03  0.00000000000E+00 0.  1.
         21   -1    0    0  502  503 -0.00000000000E+00 -0.00000000000E+00 -0.24282402256E+01  0.24282402256E+01  0.00000000000E+00 0. -1.
          2    1    1    2  501    0 -0.67009064174E+01 -0.23918238904E+02  0.35747745832E+03  0.35833938871E+03  0.00000000000E+00 0.  1.
         -2    1    1    2    0  503  0.67009064174E+01  0.23918238904E+02  0.75230984819E+02  0.79225534873E+02  0.00000000000E+00 0. -1.
</event>
<event>
 4    1  0.1848744E+004  0.3197080E+02  0.7546771E-02  0.1403209E+00
         21   -1    0    0  501  502  0.00000000000E+00  0.00000000000E+00  0.47010639080E+01  0.47010639080E+01  0.00000000000E+00 0. -1.
         21   -1    0    0  502  503 -0.00000000000E+00 -0.00000000000E+00 -0.23533504288E+03  0.23533504288E+03  0.00000000000E+00 0.  1.
          2    1    1    2  501    0  0.31950723124E+02  0.11328494026E+01 -0.82208204351E+02  0.88206127443E+02  0.00000000000E+00 0.  1.
         -2    1    1    2    0  503 -0.31950723124E+02 -0.11328494026E+01 -0.14842577462E+03  0.15182997934E+03  0.00000000000E+00 0. -1.
</event>
<event>
 4    1  0.1848744E+004  0.2141284E+02  0.7546771E-02  0.1513451E+00
         21   -1    0    0  501  502  0.00000000000E+00  0.00000000000E+00  0.35555353735E+01  0.35555353735E+01  0.00000000000E+00 0.  1.
         21   -1    0    0  502  503 -0.00000000000E+00 -0.00000000000E+00 -0.33285462250E+03  0.33285462250E+03  0.00000000000E+00 0. -1.
          2    1    1    2  501    0 -0.21337505437E+02  0.17946548829E+01 -0.33000331424E+02  0.39338680691E+02  0.00000000000E+00 0.  1.
         -2    1    1    2    0  503  0.21337505437E+02 -0.17946548829E+01 -0.29629875571E+03  0.29707147719E+03  0.00000000000E+00 0. -1.
</event>
<event>
 4    1  0.1848744E+004  0.5344538E+02  0.7546771E-02  0.1283888E+00
         21   -1    0    0  503  502  0.00000000000E+00  0.00000000000E+00  0.23928161777E+02  0.23928161777E+02  0.00000000000E+00 0.  1.
         21   -1    0    0  501  503 -0.00000000000E+00 -0.00000000000E+00 -0.12005286440E+03  0.12005286440E+03  0.00000000000E+00 0. -1.
          2    1    1    2  501    0  0.42347334448E+02 -0.32605403068E+02 -0.53474437759E+02  0.75603733623E+02  0.00000000000E+00 0.  1.
         -2    1    1    2    0  502 -0.42347334448E+02  0.32605403068E+02 -0.42650264863E+02  0.68377292554E+02  0.00000000000E+00 0. -1.
</event>
<event>
 4    1  0.1848744E+004  0.2103519E+02  0.7546771E-02  0.1518763E+00
         21   -1    0    0  503  502  0.00000000000E+00  0.00000000000E+00  0.32827768686E+03  0.32827768686E+03  0.00000000000E+00 0. -1.
         21   -1    0    0  501  503 -0.00000000000E+00 -0.00000000000E+00 -0.37619777444E+01  0.37619777444E+01  0.00000000000E+00 0.  1.
          2    1    1    2  501    0 -0.11877470743E+02  0.17361014471E+02  0.29264718059E+02  0.36040294918E+02  0.00000000000E+00 0.  1.
         -2    1    1    2    0  502  0.11877470743E+02 -0.17361014471E+02  0.29525099105E+03  0.29599936968E+03  0.00000000000E+00 0. -1.
</event>
<event>
 4    1  0.1848744E+004  0.2349710E+02  0.7546771E-02  0.1486349E+00
         21   -1    0    0  501  502  0.00000000000E+00  0.00000000000E+00  0.18692958466E+02  0.18692958466E+02  0.00000000000E+00 0. -1.
         21   -1    0    0  502  503 -0.00000000000E+00 -0.00000000000E+00 -0.41822683629E+02  0.41822683629E+02  0.00000000000E+00 0.  1.
          2    1    1    2  501    0 -0.42878337579E+00 -0.23493183718E+02  0.48353936181E+01  0.23989467852E+02  0.00000000000E+00 0. -1.
         -2    1    1    2    0  503  0.42878337579E+00  0.23493183718E+02 -0.27965118781E+02  0.36526174243E+02  0.00000000000E+00 0.  1.
</event>
<event>
 4    1  0.1848744E+004  0.3631350E+02  0.7546771E-02  0.1371557E+00
         21   -1    0    0  501  502  0.00000000000E+00  0.00000000000E+00  0.59602116910E+02  0.59602116910E+02  0.00000000000E+00 0. -1.
         21   -1    0    0  502  503 -0.00000000000E+00 -0.00000000000E+00 -0.25009838709E+02  0.25009838709E+02  0.00000000000E+00 0.  1.
          2    1    1    2  501    0  0.36141730187E+02  0.35278605685E+01  0.31665596444E+02  0.48180706297E+02  0.00000000000E+00 0. -1.
         -2    1    1    2    0  503 -0.36141730187E+02 -0.35278605685E+01  0.29266817560E+01  0.36431249322E+02  0.00000000000E+00 0.  1.
</event>
<event>
 4    1  0.1848744E+004  0.2079663E+02  0.7546771E-02  0.1522188E+00
         21   -1    0    0  503  502  0.00000000000E+00  0.00000000000E+00  0.23158193165E+02  0.23158193165E+02  0.00000000000E+00 0.  1.
         21   -1    0    0  501  503 -0.00000000000E+00 -0.00000000000E+00 -0.23852891375E+02  0.23852891375E+02  0.00000000000E+00 0. -1.
          2    1    1    2  501    0 -0.20734679655E+02  0.16040394568E+01  0.10603275035E+02  0.23343721307E+02  0.00000000000E+00 0.  1.
         -2    1    1    2    0  502  0.20734679655E+02 -0.16040394568E+01 -0.11297973245E+02  0.23667363234E+02  0.00000000000E+00 0. -1.
</event>
<event>
 4    1  0.1848744E+004  0.2116070E+02  0.7546771E-02  0.1516983E+00
         21   -1    0    0  501  502  0.00000000000E+00  0.00000000000E+00  0.59962498187E+02  0.59962498187E+02  0.00000000000E+00 0.  1.
         21   -1    0    0  502  503 -0.00000000000E+00 -0.00000000000E+00 -0.12055067747E+02  0.12055067747E+02  0.00000000000E+00 0. -1.
          2    1    1    2  501    0 -0.18824109642E+02 -0.96658174485E+01  0.46166897241E+02  0.50785406680E+02  0.00000000000E+00 0.  1.
         -2    1    1    2    0  503  0.18824109642E+02  0.96658174485E+01  0.17405331982E+01  0.21232159254E+02  0.00000000000E+00 0. -1.
</event>
<event>
 4    1  0.1848744E+004  0.2451883E+02  0.7546771E-02  0.1474259E+00
         21   -1    0    0  503  502  0.00000000000E+00  0.00000000000E+00  0.73942828397E+02  0.73942828397E+02  0.00000000000E+00 0.  1.
         21   -1    0    0  501  503 -0.00000000000E+00 -0.00000000000E+00 -0.17084615945E+02  0.17084615945E+02  0.00000000000E+00 0. -1.
          2    1    1    2  501    0  0.12512677637E+00  0.24518510261E+02 -0.45210430088E+01  0.24932164608E+02  0.00000000000E+00 0. -1.
         -2    1    1    2    0  502 -0.12512677637E+00 -0.24518510261E+02  0.61379255461E+02  0.66095279734E+02  0.00000000000E+00 0.  1.
</event>
<event>
 4    1  0.1848744E+004  0.2665989E+02  0.7546771E-02  0.1451055E+00
         21   -1    0    0  503  502  0.00000000000E+00  0.00000000000E+00  0.16157646880E+02  0.16157646880E+02  0.00000000000E+00 0.  1.
         21   -1    0    0  501  503 -0.00000000000E+00 -0.00000000000E+00 -0.14837678160E+03  0.14837678160E+03  0.00000000000E+00 0. -1.
          2    1    1    2  501    0  0.20895736591E+02 -0.16556506635E+02 -0.13511285959E+03  0.13771795289E+03  0.00000000000E+00 0. -1.
         -2    1    1    2    0  502 -0.20895736591E+02  0.16556506635E+02  0.28937248737E+01  0.26816475594E+02  0.00000000000E+00 0.  1.
</event>
<event>
 4    1  0.1848744E+004  0.2014118E+02  0.7546771E-02  0.1531888E+00
         21   -1    0    0  501  502  0.00000000000E+00  0.00000000000E+00  0.12493652888E+03  0.12493652888E+03  0.00000000000E+00 0.  1.
         21   -1    0    0  502  503 -0.00000000000E+00 -0.00000000000E+00 -0.15750978418E+02  0.15750978418E+02  0.00000000000E+00 0. -1.
          2    1    1    2  501    0 -0.12778658936E+02  0.15568333198E+02  0.11726803275E+03  0.11898511935E+03  0.00000000000E+00 0.  1.
         -2    1    1    2    0  503  0.12778658936E+02 -0.15568333198E+02 -0.80824822829E+01  0.21702387948E+02  0.00000000000E+00 0. -1.
</event>
<event>
 4    1  0.1848744E+004  0.3819451E+02  0.7546771E-02  0.1359403E+00
         21   -1    0    0  501  502  0.00000000000E+00  0.00000000000E+00  0.19874950277E+02  0.19874950277E+02  0.00000000000E+00 0.  1.
         21   -1    0    0  502  503 -0.00000000000E+00 -0.00000000000E+00 -0.76684079225E+02  0.76684079225E+02  0.00000000000E+00 0. -1.
          2    1    1    2  501    0  0.34226183988E+02  0.16952547434E+02 -0.18413314648E+02  0.42401305301E+02  0.00000000000E+00 0. -1.
         -2    1    1    2    0  503 -0.34226183988E+02 -0.16952547434E+02 -0.38395814300E+02  0.54157724201E+02  0.00000000000E+00 0.  1.
</event>
<event>
 4    1  0.1848744E+004  0.2344777E+02  0.7546771E-02  0.1486951E+00
         21   -1    0    0  501  502  0.00000000000E+00  0.00000000000E+00  0.36792589545E+02  0.36792589545E+02  0.00000000000E+00 0.  1.
         21   -1    0    0  502  503 -0.00000000000E+00 -0.00000000000E+00 -0.25946991061E+02  0.25946991061E+02  0.00000000000E+00 0. -1.
          2    1    1    2  501    0  0.23184895759E+02  0.35012074159E+01  0.25851460857E+02  0.34901230254E+02  0.00000000000E+00 0.  1.
         -2    1    1    2    0  503 -0.23184895759E+02 -0.35012074159E+01 -0.15005862374E+02  0.27838350352E+02  0.00000000000E+00 0. -1.
</event>
<event>
 4    1  0.1848744E+004  0.2056530E+02  0.7546771E-02  0.1525563E+00
         21   -1    0    0  501  502  0.00000000000E+00  0.00000000000E+00  0.85331745800E+01  0.85331745800E+01  0.00000000000E+00 0. -1.
         21   -1    0    0  502  503 -0.00000000000E+00 -0.00000000000E+00 -0.56766184544E+02  0.56766184544E+02  0.00000000000E+00 0.  1.
          2    1    1    2  501    0 -0.52261649752E+01  0.19890164784E+02 -0.35746787158E+02  0.41240323078E+02  0.00000000000E+00 0.  1.
         -2    1    1    2    0  503  0.52261649752E+01 -0.19890164784E+02 -0.12486222807E+02  0.24059036046E+02  0.00000000000E+00 0. -1.
</event>
<event>
 4    1  0.1848744E+004  0.2794236E+02  0.7546771E-02  0.1438365E+00
         21   -1    0    0  503  502  0.00000000000E+00  0.00000000000E+00  0.48593434970E+02  0.48593434970E+02  0.00000000000E+00 0.  1.
         21   -1    0    0  501  503 -0.00000000000E+00 -0.00000000000E+00 -0.16356970913E+02  0.16356970913E+02  0.00000000000E+00 0. -1.
          2    1    1    2  501    0  0.19797136951E+02  0.19719246072E+02  0.11798084628E+02  0.30331008852E+02  0.00000000000E+00 0. -1.
         -2    1    1    2    0  502 -0.19797136951E+02 -0.19719246072E+02  0.20438379429E+02  0.34619397031E+02  0.00000000000E+00 0.  1.
</event>
<event>
 4    1  0.1848744E+004  0.2086978E+02  0.7546771E-02  0.1521132E+00
         21   -1    0    0  503  502  0.00000000000E+00  0.00000000000E+00  0.21954453362E+01  0.21954453362E+01  0.00000000000E+00 0.  1.
         21   -1    0    0  501  503 -0.00000000000E+00 -0.00000000000E+00 -0.42023915398E+03  0.42023915398E+03  0.00000000000E+00 0. -1.
          2    1    1    2  501    0  0.19904893158E+02  0.62723887102E+01 -0.36248819415E+03  0.36308847204E+03  0.00000000000E+00 0. -1.
         -2    1    1    2    0  502 -0.19904893158E+02 -0.62723887102E+01 -0.55555514492E+02  0.59346127273E+02  0.00000000000E+00 0.  1.
</event>
<event>
 4    1  0.1848744E+004  0.6472441E+02  0.7546771E-02  0.1244574E+00
         21   -1    0    0  501  502  0.00000000000E+00  0.00000000000E+00  0.19017052090E+03  0.19017052090E+03  0.00000000000E+00 0. -1.
         21   -1    0    0  502  503 -0.00000000000E+00 -0.00000000000E+00 -0.24197614304E+02  0.24197614304E+02  0.00000000000E+00 0.  1.
          2    1    1    2  501    0 -0.60276446742E+02 -0.23579642284E+02  0.50898354471E+02  0.82340099890E+02  0.00000000000E+00 0.  1.
         -2    1    1    2    0  503  0.60276446742E+02  0.23579642284E+02  0.11507455212E+03  0.13202803531E+03  0.00000000000E+00 0. -1.
</event>
<event>
 4    1  0.1848744E+004  0.2260432E+02  0.7546771E-02  0.1497527E+00
         21   -1    0    0  501  502  0.00000000000E+00  0.00000000000E+00  0.29129631851E+01  0.29129631851E+01  0.00000000000E+00 0.  1.
         21   -1    0    0  502  503 -0.00000000000E+00 -0.00000000000E+00 -0.53702121602E+03  0.53702121602E+03  0.00000000000E+00 0. -1.
          2    1    1    2  501    0  0.57964840198E+01  0.21848483121E+02 -0.45521558953E+02  0.50824873548E+02  0.00000000000E+00 0.  1.
         -2    1    1    2    0  503 -0.57964840198E+01 -0.21848483121E+02 -0.48858669388E+03  0.48910930566E+03  0.00000000000E+00 0. -1.
</event>
<event>
 4    1  0.1848744E+004  0.2064270E+02  0.7546771E-02  0.1524428E+00
         21   -1    0    0  503  502  0.00000000000E+00  0.00000000000E+00  0.50691523262E+02  0.50691523262E+02  0.00000000000E+00 0. -1.
         21   -1    0    0  501  503 -0.00000000000E+00 -0.00000000000E+00 -0.10900118238E+02  0.10900118238E+02  0.00000000000E+00 0.  1.
          2    1    1    2  501    0  0.18346229062E+02  0.94623949539E+01  0.51650903671E+01  0.21279078870E+02  0.00000000000E+00 0.  1.
         -2    1    1    2    0  502 -0.18346229062E+02 -0.94623949539E+01  0.34626314658E+02  0.40312562630E+02  0.00000000000E+00 0. -1.
</event>
<event>
 4    1  0.1848744E+004  0.3871492E+02  0.7546771E-02  0.1356185E+00
         21   -1    0    0  503  502  0.00000000000E+00  0.00000000000E+00  0.14913106641E+02  0.14913106641E+02  0.00000000000E+00 0. -1.
         21   -1    0    0  501  503 -0.00000000000E+00 -0.00000000000E+00 -0.10150376893E+03  0.10150376893E+03  0.00000000000E+00 0.  1.
          2    1    1    2  501    0  0.36635177388E+02  0.12518349026E+02 -0.49068660253E+02  0.62502629574E+02  0.00000000000E+00 0.  1.
         -2    1    1    2    0  502 -0.36635177388E+02 -0.12518349026E+02 -0.37522002030E+02  0.53914245993E+02  0.00000000000E+00 0. -1.
</event>
<event>
 4    1  0.1848744E+004  0.2901384E+02  0.7546771E-02  0.1428364E+00
         21   -1    0    0  501  502  0.00000000000E+00  0.00000000000E+00  0.20114394361E+03  0.20114394361E+03  0.00000000000E+00 0. -1.
         21   -1    0    0  502  503 -0.00000000000E+00 -0.00000000000E+00 -0.20841568743E+02  0.20841568743E+02  0.00000000000E+00 0.  1.
          2    1    1    2  501    0  0.12483889772E+02 -0.26190754941E+02  0.18937620482E+03  0.19158588179E+03  0.00000000000E+00 0. -1.
         -2    1    1    2    0  503 -0.12483889772E+02  0.26190754941E+02 -0.90738299566E+01  0.30399630562E+02  0.00000000000E+00 0.  1.
</event>
<event>
 4    1  0.1848744E+004  0.5506819E+02  0.7546771E-02  0.1277577E+00
         21   -1    0    0  501  502  0.00000000000E+00  0.00000000000E+00  0.19458382561E+03  0.19458382561E+03  0.00000000000E+00 0. -1.
         21   -1    0    0  502  503 -0.00000000000E+00 -0.00000000000E+00 -0.26623020903E+02  0.26623020903E+02  0.00000000000E+00 0.  1.
          2    1    1    2  501    0 -0.54678791278E+02  0.65372189363E+01  0.15519908690E+03  0.16467927016E+03  0.00000000000E+00 0. -1.
         -2    1    1    2    0  503  0.54678791278E+02 -0.65372189363E+01  0.12761717814E+02  0.56527576355E+02  0.00000000000E+00 0.  1.
</event>
<event>
 4    1  0.1848744E+004  0.2114812E+02  0.7546771E-02  0.1517160E+00
         21   -1    0    0  501  502  0.00000000000E+00  0.00000000000E+00  0.36489078109E+03  0.36489078109E+03  0.00000000000E+00 0. -1.
         21   -1    0    0  502  503 -0.00000000000E+00 -0.00000000000E+00 -0.23204435353E+01  0.23204435353E+01  0.00000000000E+00 0.  1.
          2    1    1    2  501    0  0.89467731798E+01  0.19162420346E+02  0.30739779259E+03  0.30812440019E+03  0.00000000000E+00 0. -1.
         -2    1    1    2    0  503 -0.89467731798E+01 -0.19162420346E+02  0.55172544966E+02  0.59086824436E+02  0.00000000000E+00 0.  1.
</event>
<event>
 4    1  0.1848744E+004  0.2492022E+02  0.7546771E-02  0.1469698E+00
         21   -1    0    0  501  502  0.00000000000E+00  0.00000000000E+00  0.44196386816E+03  0.44196386816E+03  0.00000000000E+00 0.  1.
         21   -1    0    0  502  503 -0.00000000000E+00 -0.00000000000E+00 -0.25743634797E+01  0.25743634797E+01  0.00000000000E+00 0. -1.
          2    1    1    2  501    0 -0.15207027743E+02 -0.19742434792E+02  0.36948878118E+03  0.37032820152E+03  0.00000000000E+00 0.  1.
         -2    1    1    2    0  503  0.15207027743E+02  0.19742434792E+02  0.69900723505E+02  0.74210030123E+02  0.00000000000E+00 0. -1.
</event>
<event>
 4    1  0.1848744E+004  0.2960526E+02  0.7546771E-02  0.1423058E+00
         21   -1    0    0  501  502  0.00000000000E+00  0.00000000000E+00  0.28782485508E+02  0.28782485508E+02  0.00000000000E+00 0.  1.
         21   -1    0    0  502  503 -0.00000000000E+00 -0.00000000000E+00 -0.58584711980E+02  0.58584711980E+02  0.00000000000E+00 0. -1.
          2    1    1    2  501    0  0.34513549773E+01 -0.29403394264E+02  0.15370494918E+02  0.33357511290E+02  0.00000000000E+00 0.  1.
         -2    1    1    2    0  503 -0.34513549773E+01  0.29403394264E+02 -0.45172721390E+02  0.54009686198E+02  0.00000000000E+00 0. -1.
</event>
<event>
 4    1  0.1848744E+004  0.2460245E+02  0.7546771E-02  0.1473300E+00
         21   -1    0    0  503  502  0.00000000000E+00  0.00000000000E+00  0.77739885117E+01  0.77739885117E+01  0.00000000000E+00 0. -1.
         21   -1    0    0  501  503 -0.00000000000E+00 -0.00000000000E+00 -0.80189444846E+02  0.80189444846E+02  0.00000000000E+00 0.  1.
          2    1    1    2  501    0 -0.17555662570E+02  0.17235992774E+02 -0.28711135844E+02  0.37810184563E+02  0.00000000000E+00 0. -1.
         -2    1    1    2    0  502  0.17555662570E+02 -0.17235992774E+02 -0.43704320490E+02  0.50153248795E+02  0.00000000000E+00 0.  1.
</event>
<event>
 4    1  0.1848744E+004  0.2050190E+02  0.7546771E-02  0.1526497E+00
         21   -1    0    0  503  502  0.00000000000E+00  0.00000000000E+00  0.13474350262E+02  0.13474350262E+02  0.00000000000E+00 0. -1.
         21   -1    0    0  501  503 -0.00000000000E+00 -0.00000000000E+00 -0.25140897210E+03  0.25140897210E+03  0.00000000000E+00 0.  1.
          2    1    1    2  501    0 -0.74802027689E+01 -0.19088596254E+02 -0.24292029644E+03  0.24378391736E+03  0.00000000000E+00 0.  1.
         -2    1    1    2    0  502  0.74802027689E+01  0.19088596254E+02  0.49856745993E+01  0.21099405006E+02  0.00000000000E+00 0. -1.
</event>
<event>
 4    1  0.1848744E+004  0.2520182E+02  0.7546771E-02  0.1466558E+00
         21   -1    0    0  503  502  0.00000000000E+00  0.00000000000E+00  0.16758428202E+02  0.16758428202E+02  0.00000000000E+00 0.  1.
         21   -1    0    0  501  503 -0.00000000000E+00 -0.00000000000E+00 -0.51931883343E+02  0.51931883343E+02  0.00000000000E+00 0. -1.
          2    1    1    2  501    0  0.20194849079E+02  0.15076468927E+02 -0.35440009251E+02  0.43487079694E+02  0.00000000000E+00 0. -1.
         -2    1    1    2    0  502 -0.20194849079E+02 -0.15076468927E+02  0.26655410920E+00  0.25203231851E+02  0.00000000000E+00 0.  1.
</event>
<event>
 4    1  0.1848744E+004  0.2020301E+02  0.7546771E-02  0.1530955E+00
         21   -1    0    0  501  502  0.00000000000E+00  0.00000000000E+00  0.22119287808E+03  0.22119287808E+03  0.00000000000E+00 0.  1.
         21   -1    0    0  502  503 -0.00000000000E+00 -0.00000000000E+00 -0.31887336391E+01  0.31887336391E+01  0.00000000000E+00 0. -1.
          2    1    1    2  501    0 -0.19633885062E+02 -0.47615130311E+01  0.18182371481E+03  0.18294268151E+03  0.00000000000E+00 0.  1.
         -2    1    1    2    0  503  0.19633885062E+02  0.47615130311E+01  0.36180429627E+02  0.41438930210E+02  0.00000000000E+00 0. -1.
</event>
<event>
 4    1  0.1848744E+004  0.2257560E+02  0.7546771E-02  0.1497897E+00
         21   -1    0    0  501  502  0.00000000000E+00  0.00000000000E+00  0.22037990863E+01  0.22037990863E+01  0.00000000000E+00 0. -1.
         21   -1    0    0  502  503 -0.00000000000E+00 -0.00000000000E+00 -0.24154356996E+03  0.24154356996E+03  0.00000000000E+00 0.  1.
          2    1    1    2  501    0  0.16529473271E+02 -0.15376424631E+02 -0.94527077838E+02  0.97185525494E+02  0.00000000000E+00 0. -1.
         -2    1    1    2    0  503 -0.16529473271E+02  0.15376424631E+02 -0.14481269303E+03  0.14656184355E+03  0.00000000000E+00 0.  1.
</event>
<event>
 4    1  0.1848744E+004  0.2790426E+02  0.7546771E-02  0.1438730E+00
         21   -1    0    0  501  502  0.00000000000E+00  0.00000000000E+00  0.15600692658E+01  0.15600692658E+01  0.00000000000E+00 0. -1.
         21   -1    0    0  502  503 -0.00000000000E+00 -0.00000000000E+00 -0.50959280622E+03  0.50959280622E+03  0.00000000000E+00 0.  1.
          2    1    1    2  501    0 -0.61151478895E+01 -0.27225959484E+02 -0.29067066973E+03  0.29200699674E+03  0.00000000000E+00 0. -1.
         -2    1    1    2    0  503  0.61151478895E+01  0.27225959484E+02 -0.21736206722E+03  0.21914587875E+03  0.00000000000E+00 0.  1.
</event>
<event>
 4    1  0.1848744E+004  0.3514134E+02  0.7546771E-02  0.1379572E+00
         21   -1    0    0  503  502  0.00000000000E+00  0.00000000000E+00  0.14734882758E+02  0.14734882758E+02  0.00000000000E+00 0.  1.
         21   -1    0    0  501  503 -0.00000000000E+00 -0.00000000000E+00 -0.85641671551E+02  0.85641671551E+02  0.00000000000E+00 0. -1.
          2    1    1    2  501    0  0.83495948946E+01  0.34134996523E+02 -0.28111322102E+02  0.45001779441E+02  0.00000000000E+00 0. -1.
         -2    1    1    2    0  502 -0.83495948946E+01 -0.34134996523E+02 -0.42795466691E+02  0.55374774869E+02  0.00000000000E+00 0.  1.
</event>
<event>
 4    1  0.1848744E+004  0.2551731E+02  0.7546771E-02  0.1463099E+00
         21   -1    0    0  503  502  0.00000000000E+00  0.00000000000E+00  0.26001935875E+02  0.26001935875E+02  0.00000000000E+00 0. -1.
         21   -1    0    0  501  503 -0.00000000000E+00 -0.00000000000E+00 -0.25321361094E+02  0.25321361094E+02  0.00000000000E+00 0.  1.
          2    1    1    2  501    0  0.25501118704E+02  0.90889137963E+00 -0.23564787390E+01  0.25625887901E+02  0.00000000000E+00 0.  1.
         -2    1    1    2    0  502 -0.25501118704E+02 -0.90889137963E+00  0.30370535201E+01  0.25697409067E+02  0.00000000000E+00 0. -1.
</event>
<event>
 4    1  0.1848744E+004  0.3109492E+02  0.7546771E-02  0.1410314E+00
         21   -1    0    0  501  502  0.00000000000E+00  0.00000000000E+00  0.63755298047E+02  0.63755298047E+02  0.00000000000E+00 0. -1.
         21   -1    0    0  502  503 -0.00000000000E+00 -0.00000000000E+00 -0.16170256645E+02  0.16170256645E+02  0.00000000000E+00 0.  1.
          2    1    1    2  501    0 -0.22759367372E+02 -0.21187380404E+02  0.33753082921E+02  0.45892967852E+02  0.00000000000E+00 0. -1.
         -2    1    1    2    0  503  0.22759367372E+02  0.21187380404E+02  0.13831958481E+02  0.34032586839E+02  0.00000000000E+00 0.  1.
</event>
<event>
 4    1  0.1848744E+004  0.2223183E+02  0.7546771E-02  0.1502376E+00
         21   -1    0    0  503  502  0.00000000000E+00  0.00000000000E+00  0.11168544417E+02  0.11168544417E+02  0.00000000000E+00 0.  1.
         21   -1    0    0  501  503 -0.00000000000E+00 -0.00000000000E+00 -0.21154580442E+03  0.21154580442E+03  0.00000000000E+00 0. -1.
          2    1    1    2  501    0  0.96543911386E+01 -0.20026152921E+02 -0.19921552811E+03  0.20045219059E+03  0.00000000000E+00 0. -1.
         -2    1    1    2    0  502 -0.96543911386E+01  0.20026152921E+02 -0.11617318893E+01  0.22262158252E+02  0.00000000000E+00 0.  1.
</event>
<event>
 4    1  0.1848744E+004  0.4020838E+02  0.7546771E-02  0.1347269E+00
         21   -1    0    0  501  502  0.00000000000E+00  0.00000000000E+00  0.82536889573E+03  0.82536889573E+03  0.00000000000E+00 0. -1.
         21   -1    0    0  502  503 -0.00000000000E+00 -0.00000000000E+00 -0.25603716615E+01  0.25603716615E+01  0.00000000000E+00 0.  1.
          2    1    1    2  501    0  0.28066218781E+02 -0.28792381721E+02  0.61206555275E+03  0.61338483414E+03  0.00000000000E+00 0. -1.
         -2    1    1    2    0  503 -0.28066218781E+02  0.28792381721E+02  0.21074297132E+03  0.21454443326E+03  0.00000000000E+00 0.  1.
</event>
<event>
 4    1  0.1848744E+004  0.3772787E+02  0.7546771E-02  0.1362341E+00
         21   -1    0    0  503  502  0.00000000000E+00  0.00000000000E+00  0.24215940823E+02  0.24215940823E+02  0.00000000000E+00 0. -1.
         21   -1    0    0  501  503 -0.00000000000E+00 -0.00000000000E+00 -0.58833786178E+02  0.58833786178E+02  0.00000000000E+00 0.  1.
          2    1    1    2  501    0  0.60384561396E+01  0.37241499819E+02 -0.16043426958E+02  0.40997363451E+02  0.00000000000E+00 0. -1.
         -2    1    1    2    0  502 -0.60384561396E+01 -0.37241499819E+02 -0.18574418397E+02  0.42052363550E+02  0.00000000000E+00 0.  1.
</event>
<event>
 4    1  0.1848744E+004  0.2239850E+02  0.7546771E-02  0.1500193E+00
         21   -1    0    0  503  502  0.00000000000E+00  0.00000000000E+00  0.39918181669E+02  0.39918181669E+02  0.00000000000E+00 0. -1.
         21   -1    0    0  501  503 -0.00000000000E+00 -0.00000000000E+00 -0.17710679905E+02  0.17710679905E+02  0.00000000000E+00 0.  1.
          2    1    1    2  501    0  0.18008022227E+02  0.13319306245E+02 -0.44231948878E+01  0.22831062971E+02  0.00000000000E+00 0.  1.
         -2    1    1    2    0  502 -0.18008022227E+02 -0.13319306245E+02  0.26630696652E+02  0.34797798602E+02  0.00000000000E+00 0. -1.
</event>
<event>
 4    1  0.1848744E+004  0.2194336E+02  0.7546771E-02  0.1506210E+00
         21   -1    0    0  501  502  0.00000000000E+00  0.00000000000E+00  0.44132445496E+00  0.44132445496E+00  0.00000000000E+00 0.  1.
         21   -1    0    0  502  503 -0.00000000000E+00 -0.00000000000E+00 -0.11287692867E+04  0.11287692867E+04  0.00000000000E+00 0. -1.
          2    1    1    2  501    0  0.20235958430E+02  0.84862910980E+01 -0.46096615191E+03  0.46148814108E+03  0.00000000000E+00 0.  1.
         -2    1    1    2    0  503 -0.20235958430E+02 -0.84862910980E+01 -0.66736181028E+03  0.66772247003E+03  0.00000000000E+00 0. -1.
</event>
<event>
 4    1  0.1848744E+004  0.2472476E+02  0.7546771E-02  0.1471906E+00
         21   -1    0    0  501  502  0.00000000000E+00  0.00000000000E+00  0.74592924210E+01  0.74592924210E+01  0.00000000000E+00 0.  1.
         21   -1    0    0  502  503 -0.00000000000E+00 -0.00000000000E+00 -0.83636126148E+02  0.83636126148E+02  0.00000000000E+00 0. -1.
          2    1    1    2  501    0 -0.13463171577E+02 -0.20737808251E+02 -0.31627586480E+02  0.40144961160E+02  0.00000000000E+00 0. -1.
         -2    1    1    2    0  503  0.13463171577E+02  0.20737808251E+02 -0.44549247246E+02  0.50950457409E+02  0.00000000000E+00 0.  1.
</event>
<event>
 4    1  0.1848744E+004  0.2993984E+02  0.7546771E-02  0.1420120E+00
         21   -1    0    0  503  502  0.00000000000E+00  0.00000000000E+00  0.22883360067E+03  0.22883360067E+03  0.00000000000E+00 0.  1.
         21   -1    0    0  501  503 -0.00000000000E+00 -0.00000000000E+00 -0.68679201533E+01  0.68679201533E+01  0.00000000000E+00 0. -1.
          2    1    1    2  501    0 -0.27894408637E+02 -0.10876399955E+02  0.33735863854E+02  0.45105461079E+02  0.00000000000E+00 0. -1.
         -2    1    1    2    0  502  0.27894408637E+02  0.10876399955E+02  0.18822981666E+03  0.19059605975E+03  0.00000000000E+00 0.  1.
</event>
<event>
 4    1  0.1848744E+004  0.2142027E+02  0.7546771E-02  0.1513348E+00
         21   -1    0    0  501  502  0.00000000000E+00  0.00000000000E+00  0.12454365230E+03  0.12454365230E+03  0.00000000000E+00 0.  1.
         21   -1    0    0  502  503 -0.00000000000E+00 -0.00000000000E+00 -0.74424560357E+01  0.74424560357E+01  0.00000000000E+00 0. -1.
          2    1    1    2  501    0 -0.19725130187E+02 -0.83514836855E+01  0.10544711056E+03  0.10760074891E+03  0.00000000000E+00 0.  1.
         -2    1    1    2    0  503  0.19725130187E+02  0.83514836855E+01  0.11654085703E+02  0.24385359423E+02  0.00000000000E+00 0. -1.
</event>
<event>
 4    1  0.1848744E+004  0.2535035E+02  0.7546771E-02  0.1464922E+00
         21   -1    0    0  501  502  0.00000000000E+00  0.00000000000E+00  0.35805237479E+01  0.35805237479E+01  0.00000000000E+00 0. -1.
         21   -1    0    0  502  503 -0.00000000000E+00 -0.00000000000E+00 -0.25218975837E+03  0.25218975837E+03  0.00000000000E+00 0.  1.
          2    1    1    2  501    0 -0.10591933917E+02  0.23031528213E+02 -0.55637932474E+02  0.61140983685E+02  0.00000000000E+00 0. -1.
         -2    1    1    2    0  503  0.10591933917E+02 -0.23031528213E+02 -0.19297130215E+03  0.19462929843E+03  0.00000000000E+00 0.  1.
</event>
<event>
 4    1  0.1848744E+004  0.2295711E+02  0.7546771E-02  0.1493037E+00
         21   -1    0    0  501  502  0.00000000000E+00  0.00000000000E+00  0.68177778320E+03  0.68177778320E+03  0.00000000000E+00 0. -1.
         21   -1    0    0  502  503 -0.00000000000E+00 -0.00000000000E+00 -0.20721829297E+01  0.20721829297E+01  0.00000000000E+00 0.  1.
          2    1    1    2  501    0 -0.19047997323E+02 -0.12814155245E+02  0.61059027497E+03  0.61102169574E+03  0.00000000000E+00 0. -1.
         -2    1    1    2    0  503  0.19047997323E+02  0.12814155245E+02  0.69115325303E+02  0.72828270393E+02  0.00000000000E+00 0.  1.
</event>
<event>
 4    1  0.1848744E+004  0.2483806E+02  0.7546771E-02  0.1470623E+00
         21   -1    0    0  501  502  0.00000000000E+00  0.00000000000E+00  0.14785857947E+02  0.14785857947E+02  0.00000000000E+00 0. -1.
         21   -1    0    0  502  503 -0.00000000000E+00 -0.00000000000E+00 -0.11848819375E+03  0.11848819375E+03  0.00000000000E+00 0.  1.
          2    1    1    2  501    0  0.19825689161E+02  0.14962322187E+02  0.17848672002E+01  0.24902104065E+02  0.00000000000E+00 0. -1.
         -2    1    1    2    0  503 -0.19825689161E+02 -0.14962322187E+02 -0.10548720300E+03  0.10837194763E+03  0.00000000000E+00 0.  1.
</event>
<event>
 4    1  0.1848744E+004  0.2217278E+02  0.7546771E-02  0.1503155E+00
         21   -1    0    0  501  502  0.00000000000E+00  0.00000000000E+00  0.12659682028E+02  0.12659682028E+02  0.00000000000E+00 0. -1.
         21   -1    0    0  502  503 -0.00000000000E+00 -0.00000000000E+00 -0.38984540556E+02  0.38984540556E+02  0.00000000000E+00 0.  1.
          2    1    1    2  501    0  0.16581824227E+02 -0.14719899819E+02 -0.11560443696E+02  0.25005523466E+02  0.00000000000E+00 0. -1.
         -2    1    1    2    0  503 -0.16581824227E+02  0.14719899819E+02 -0.14764414832E+02  0.26638699118E+02  0.00000000000E+00 0.  1.
</event>
<event>
 4    1  0.1848744E+004  0.3448570E+02  0.7546771E-02  0.1384215E+00
         21   -1    0    0  501  502  0.00000000000E+00  0.00000000000E+00  0.43483580567E+01  0.43483580567E+01  0.00000000000E+00 0. -1.
         21   -1    0    0  502  503 -0.00000000000E+00 -0.00000000000E+00 -0.30979418662E+03  0.30979418662E+03  0.00000000000E+00 0.  1.
          2    1    1    2  501    0  0.31629873624E+02 -0.13740985009E+02 -0.98958408100E+02  0.10479518170E+03  0.00000000000E+00 0. -1.
         -2    1    1    2    0  503 -0.31629873624E+02  0.13740985009E+02 -0.20648742046E+03  0.20934736297E+03  0.00000000000E+00 0.  1.
</event>
<event>
 4    1  0.1848744E+004  0.2945545E+02  0.7546771E-02  0.1424388E+00
         21   -1    0    0  501  502  0.00000000000E+00  0.00000000000E+00  0.32106735733E+02  0.32106735733E+02  0.00000000000E+00 0.  1.
         21   -1    0    0  502  503 -0.00000000000E+00 -0.00000000000E+00 -0.36416254776E+02  0.36416254776E+02  0.00000000000E+00 0. -1.
          2    1    1    2  501    0  0.29379531324E+02 -0.21134743208E+01 -0.19555364084E+02  0.35355846744E+02  0.00000000000E+00 0. -1.
         -2    1    1    2    0  503 -0.29379531324E+02  0.21134743208E+01  0.15245845041E+02  0.33167143765E+02  0.00000000000E+00 0.  1.
</event>
<event>
 4    1  0.1848744E+004  0.2199558E+02  0.7546771E-02  0.1505511E+00
         21   -1    0    0  501  502  0.00000000000E+00  0.00000000000E+00  0.18386603548E+02  0.18386603548E+02  0.00000000000E+00 0. -1.
         21   -1    0    0  502  503 -0.00000000000E+00 -0.00000000000E+00 -0.95344049631E+02  0.95344049631E+02  0.00000000000E+00 0.  1.
          2    1    1    2  501    0 -0.12601938957E+02  0.18027658274E+02  0.99076660775E+01  0.24123995842E+02  0.00000000000E+00 0. -1.
         -2    1    1    2    0  503  0.12601938957E+02 -0.18027658274E+02 -0.86865112161E+02  0.89606657337E+02  0.00000000000E+00 0.  1.
</event>
<event>
 4    1  0.1848744E+004  0.2405957E+02  0.7546771E-02  0.1479605E+00
         21   -1    0    0  501  502  0.00000000000E+00  0.00000000000E+00  0.91859981278E+03  0.91859981278E+03  0.00000000000E+00 0.  1.
         21   -1    0    0  502  503 -0.00000000000E+00 -0.00000000000E+00 -0.12183995308E+01  0.12183995308E+01  0.00000000000E+00 0. -1.
          2    1    1    2  501    0 -0.12668512591E+02  0.20454138211E+02  0.77825261394E+03  0.77862442428E+03  0.00000000000E+00 0.  1.
         -2    1    1    2    0  503  0.12668512591E+02 -0.20454138211E+02  0.13912879930E+03  0.14119378802E+03  0.00000000000E+00 0. -1.
</event>
<event>
 4    1  0.1848744E+004  0.2277550E+02  0.7546771E-02  0.1495337E+00
         21   -1    0    0  501  502  0.00000000000E+00  0.00000000000E+00  0.21805692825E+03  0.21805692825E+03  0.00000000000E+00 0. -1.
         21   -1    0    0  502  503 -0.00000000000E+00 -0.00000000000E+00 -0.23886910802E+01  0.23886910802E+01  0.00000000000E+00 0.  1.
          2    1    1    2  501    0 -0.22775502767E+02 -0.56507822721E-02  0.11491081849E+03  0.11714614703E+03  0.00000000000E+00 0. -1.
         -2    1    1    2    0  503  0.22775502767E+02  0.56507822721E-02  0.10075741868E+03  0.10329947230E+03  0.00000000000E+00 0.  1.
</event>
<event>
 4    1  0.1848744E+004  0.2490664E+02  0.7546771E-02  0.1469851E+00
         21   -1    0    0  503  502  0.00000000000E+00  0.00000000000E+00  0.12784639184E+03  0.12784639184E+03  0.00000000000E+00 0. -1.
         21   -1    0    0  501  503 -0.00000000000E+00 -0.00000000000E+00 -0.52113220928E+01  0.52113220928E+01  0.00000000000E+00 0.  1.
          2    1    1    2  501    0 -0.21739914915E+02  0.12153886816E+02  0.43853869740E+02  0.50433151363E+02  0.00000000000E+00 0.  1.
         -2    1    1    2    0  502  0.21739914915E+02 -0.12153886816E+02  0.78781200008E+02  0.82624562570E+02  0.00000000000E+00 0. -1.
</event>
<event>
 4    1  0.1848744E+004  0.2255822E+02  0.7546771E-02  0.1498121E+00
         21   -1    0    0  501  502  0.00000000000E+00  0.00000000000E+00  0.45877591451E+03  0.45877591451E+03  0.00000000000E+00 0.  1.
         21   -1    0    0  502  503 -0.00000000000E+00 -0.00000000000E+00 -0.20384401090E+01  0.20384401090E+01  0.00000000000E+00 0. -1.
          2    1    1    2  501    0  0.12448011928E+02 -0.18812773881E+02  0.38393355959E+03  0.38459569894E+03  0.00000000000E+00 0. -1.
         -2    1    1    2    0  503 -0.12448011928E+02  0.18812773881E+02  0.72803914813E+02  0.76218655683E+02  0.00000000000E+00 0.  1.
</event>
<event>
 4    1  0.1848744E+004  0.2294098E+02  0.7546771E-02  0.1493241E+00
         21   -1    0    0  503  502  0.00000000000E+00  0.00000000000E+00  0.44506589553E+01  0.44506589553E+01  0.00000000000E+00 0.  1.
         21   -1    0    0  501  503 -0.00000000000E+00 -0.00000000000E+00 -0.19672170365E+03  0.19672170365E+03  0.00000000000E+00 0. -1.
          2    1    1    2  501    0  0.14060358591E+02 -0.18127186525E+02 -0.15966420811E+03  0.16130389929E+03  0.00000000000E+00 0. -1.
         -2    1    1    2    0  502 -0.14060358591E+02  0.18127186525E+02 -0.32606836587E+02  0.39868463316E+02  0.00000000000E+00 0.  1.
</event>
<event>
 4    1  0.1848744E+004  0.2673226E+02  0.7546771E-02  0.1450316E+00
         21   -1    0    0  503  502  0.00000000000E+00  0.00000000000E+00  0.43712470914E+02  0.43712470914E+02  0.00000000000E+00 0.  1.
         21   -1    0    0  501  503 -0.00000000000E+00 -0.00000000000E+00 -0.11444054478E+03  0.11444054478E+03  0.00000000000E+00 0. -1.
          2    1    1    2  501    0 -0.12198352931E+02 -0.23786845116E+02 -0.10857487962E+03  0.11181734346E+03  0.00000000000E+00 0. -1.
         -2    1    1    2    0  502  0.12198352931E+02  0.23786845116E+02  0.37846805756E+02  0.46335672227E+02  0.00000000000E+00 0.  1.
</event>
<event>
 4    1  0.1848744E+004  0.2043200E+02  0.7546771E-02  0.1527531E+00
         21   -1    0    0  503  502  0.00000000000E+00  0.00000000000E+00  0.23006957451E+02  0.23006957451E+02  0.00000000000E+00 0. -1.
         21   -1    0    0  501  503 -0.00000000000E+00 -0.00000000000E+00 -0.29011007508E+02  0.29011007508E+02  0.00000000000E+00 0.  1.
          2    1    1    2  501    0  0.91036656378E+01 -0.18291797401E+02 -0.18919432014E+02  0.27846211375E+02  0.00000000000E+00 0. -1.
         -2    1    1    2    0  502 -0.91036656378E+01  0.18291797401E+02  0.12915381957E+02  0.24171753583E+02  0.00000000000E+00 0.  1.
</event>
<event>
 4    1  0.1848744E+004  0.2254760E+02  0.7546771E-02  0.1498258E+00
         21   -1    0    0  503  502  0.00000000000E+00  0.00000000000E+00  0.17280673541E+02  0.17280673541E+02  0.00000000000E+00 0.  1.
         21   -1    0    0  501  503 -0.00000000000E+00 -0.00000000000E+00 -0.53011264975E+02  0.53011264975E+02  0.00000000000E+00 0. -1.
          2    1    1    2  501    0 -0.10579516002E+02 -0.19911505282E+02 -0.41311296076E+02  0.47063971197E+02  0.00000000000E+00 0. -1.
         -2    1    1    2    0  502  0.10579516002E+02  0.19911505282E+02  0.55807046420E+01  0.23227967318E+02  0.00000000000E+00 0.  1.
</event>
<event>
 4    1  0.1848744E+004  0.2004750E+02  0.7546771E-02  0.1533311E+00
         21   -1    0    0  501  502  0.00000000000E+00  0.00000000000E+00  0.10455847153E+02  0.10455847153E+02  0.00000000000E+00 0. -1.
         21   -1    0    0  502  503 -0.00000000000E+00 -0.00000000000E+00 -0.11022717515E+03  0.11022717515E+03  0.00000000000E+00 0.  1.
          2    1    1    2  501    0 -0.19918813181E+02  0.22678423022E+01 -0.11887750549E+01  0.20082714293E+02  0.00000000000E+00 0. -1.
         -2    1    1    2    0  503  0.19918813181E+02 -0.22678423022E+01 -0.98582552940E+02  0.10060030801E+03  0.00000000000E+00 0.  1.
</event>
<event>
 4    1  0.1848744E+004  0.2194485E+02  0.7546771E-02  0.1506190E+00
         21   -1    0    0  501  502  0.00000000000E+00  0.00000000000E+00  0.51709004222E+01  0.51709004222E+01  0.00000000000E+00 0.  1.
         21   -1    0    0  502  503 -0.00000000000E+00 -0.00000000000E+00 -0.45362451392E+03  0.45362451392E+03  0.00000000000E+00 0. -1.
          2    1    1    2  501    0 -0.19866299354E+02  0.93223589403E+01 -0.19728861575E+02  0.29509391814E+02  0.00000000000E+00 0.  1.
         -2    1    1    2    0  503  0.19866299354E+02 -0.93223589403E+01 -0.42872475192E+03  0.42928602252E+03  0.00000000000E+00 0. -1.
</event>
<event>
 4    1  0.1848744E+004  0.3464635E+02  0.7546771E-02  0.1383067E+00
         21   -1    0    0  501  502  0.00000000000E+00  0.00000000000E+00  0.20294867175E+02  0.20294867175E+02  0.00000000000E+00 0. -1.
         21   -1    0    0  502  503 -0.00000000000E+00 -0.00000000000E+00 -0.93576840469E+02  0.93576840469E+02  0.00000000000E+00 0.  1.
          2    1    1    2  501    0  0.21257719212E+02 -0.27358341649E+02 -0.21049433307E+01  0.34710232934E+02  0.00000000000E+00 0. -1.
         -2    1    1    2    0  503 -0.21257719212E+02  0.27358341649E+02 -0.71177029963E+02  0.79161474710E+02  0.00000000000E+00 0.  1.
</event>
<event>
 4    1  0.1848744E+004  0.2218480E+02  0.7546771E-02  0.1502996E+00
         21   -1    0    0  501  502  0.00000000000E+00  0.00000000000E+00  0.73163065980E+01  0.73163065980E+01  0.00000000000E+00 0. -1.
         21   -1    0    0  502  503 -0.00000000000E+00 -0.00000000000E+00 -0.17392914287E+03  0.17392914287E+03  0.00000000000E+00 0.  1.
          2    1    1    2  501    0  0.14428368465E+02  0.16851929980E+02 -0.12340356963E+02  0.25386015256E+02  0.00000000000E+00 0. -1.
         -2    1    1    2    0  503 -0.14428368465E+02 -0.16851929980E+02 -0.15427247931E+03  0.15585943421E+03  0.00000000000E+00 0.  1.
</event>
<event>
 4    1  0.1848744E+004  0.2930070E+02  0.7546771E-02  0.1425772E+00
         21   -1    0    0  501  502  0.00000000000E+00  0.00000000000E+00  0.65173846281E+01  0.65173846281E+01  0.00000000000E+00 0. -1.
         21   -1    0    0  502  503 -0.00000000000E+00 -0.00000000000E+00 -0.53534117826E+03  0.53534117826E+03  0.00000000000E+00 0.  1.
          2    1    1    2  501    0  0.20331403783E+02  0.21098932068E+02 -0.29165729530E+02  0.41342117667E+02  0.00000000000E+00 0. -1.
         -2    1    1    2    0  503 -0.20331403783E+02 -0.21098932068E+02 -0.49965806410E+03  0.50051644522E+03  0.00000000000E+00 0.  1.
</event>
<event>
 4    1  0.1848744E+004  0.2146622E+02  0.7546771E-02  0.1512711E+00
         21   -1    0    0  501  502  0.00000000000E+00  0.00000000000E+00  0.47394013325E+01  0.47394013325E+01  0.00000000000E+00 0.  1.
         21   -1    0    0  502  503 -0.00000000000E+00 -0.00000000000E+00 -0.23070417058E+03  0.23070417058E+03  0.00000000000E+00 0. -1.
          2    1    1    2  501    0 -0.21132040073E+02  0.37730126496E+01 -0.23439252220E+02  0.31783600909E+02  0.00000000000E+00 0.  1.
         -2    1    1    2    0  503  0.21132040073E+02 -0.37730126496E+01 -0.20252551703E+03  0.20365997100E+03  0.00000000000E+00 0. -1.
</event>
<event>
 4    1  0.1848744E+004  0.2640838E+02  0.7546771E-02  0.1453643E+00
         21   -1    0    0  501  502  0.00000000000E+00  0.00000000000E+00  0.28354380989E+03  0.28354380989E+03  0.00000000000E+00 0. -1.
         21   -1    0    0  502  503 -0.00000000000E+00 -0.00000000000E+00 -0.26308026489E+01  0.26308026489E+01  0.00000000000E+00 0.  1.
          2    1    1    2  501    0 -0.26145271385E+02 -0.37185039371E+01  0.17695883187E+03  0.17891850285E+03  0.00000000000E+00 0. -1.
         -2    1    1    2    0  503  0.26145271385E+02  0.37185039371E+01  0.10395417537E+03  0.10725610968E+03  0.00000000000E+00 0.  1.
</event>
<event>
 4    1  0.1848744E+004  0.2505223E+02  0.7546771E-02  0.1468220E+00
         21   -1    0    0  501  502  0.00000000000E+00  0.00000000000E+00  0.14267508292E+02  0.14267508292E+02  0.00000000000E+00 0. -1.
         21   -1    0    0  502  503 -0.00000000000E+00 -0.00000000000E+00 -0.71222167247E+02  0.71222167247E+02  0.00000000000E+00 0.  1.
          2    1    1    2  501    0 -0.20744762226E+02 -0.14045250361E+02 -0.20456528230E+01  0.25135610456E+02  0.00000000000E+00 0. -1.
         -2    1    1    2    0  503  0.20744762226E+02  0.14045250361E+02 -0.54909006132E+02  0.60354065082E+02  0.00000000000E+00 0.  1.
</event>
<event>
 4    1  0.1848744E+004  0.2249656E+02  0.7546771E-02  0.1498919E+00
         21   -1    0    0  503  502  0.00000000000E+00  0.00000000000E+00  0.56656321353E+02  0.56656321353E+02  0.00000000000E+00 0. -1.
         21   -1    0    0  501  503 -0.00000000000E+00 -0.00000000000E+00 -0.23300517040E+02  0.23300517040E+02  0.00000000000E+00 0.  1.
          2    1    1    2  501    0  0.27125526534E+01 -0.22332423218E+02  0.48071271315E+02  0.53074873477E+02  0.00000000000E+00 0. -1.
         -2    1    1    2    0  502 -0.27125526534E+01  0.22332423218E+02 -0.14715467002E+02  0.26881964917E+02  0.00000000000E+00 0.  1.
</event>
<event>
 4    1  0.1848744E+004  0.2287201E+02  0.7546771E-02  0.1494112E+00
         21   -1    0    0  503  502  0.00000000000E+00  0.00000000000E+00  0.92234157782E+02  0.92234157782E+02  0.00000000000E+00 0. -1.
         21   -1    0    0  501  503 -0.00000000000E+00 -0.00000000000E+00 -0.68333863400E+01  0.68333863400E+01  0.00000000000E+00 0.  1.
          2    1    1    2  501    0 -0.16594257858E+02  0.15740382748E+02  0.22277430143E+02  0.31928246690E+02  0.00000000000E+00 0.  1.
         -2    1    1    2    0  502  0.16594257858E+02 -0.15740382748E+02  0.63123341299E+02  0.67139297432E+02  0.00000000000E+00 0. -1.
</event>
<event>
 4    1  0.1848744E+004  0.3268580E+02  0.7546771E-02  0.1397606E+00
         21   -1    0    0  501  502  0.00000000000E+00  0.00000000000E+00  0.16091669437E+02  0.16091669437E+02  0.00000000000E+00 0. -1.
         21   -1    0    0  502  503 -0.00000000000E+00 -0.00000000000E+00 -0.77332689863E+02  0.77332689863E+02  0.00000000000E+00 0.  1.
          2    1    1    2  501    0  0.23439728967E+02  0.22780266082E+02 -0.13050708586E+02  0.35194920250E+02  0.00000000000E+00 0.  1.
         -2    1    1    2    0  503 -0.23439728967E+02 -0.22780266082E+02 -0.48190311839E+02  0.58229439049E+02  0.00000000000E+00 0. -1.
</event>
<event>
 4    1  0.1848744E+004  0.3466181E+02  0.7546771E-02  0.1382956E+00
         21   -1    0    0  503  502  0.00000000000E+00  0.00000000000E+00  0.16767934014E+02  0.16767934014E+02  0.00000000000E+00 0.  1.
         21   -1    0    0  501  503 -0.00000000000E+00 -0.00000000000E+00 -0.82342150317E+02  0.82342150317E+02  0.00000000000E+00 0. -1.
          2    1    1    2  501    0  0.30611807554E+02  0.16259100743E+02 -0.50643211472E+02  0.61369177825E+02  0.00000000000E+00 0.  1.
         -2    1    1    2    0  502 -0.30611807554E+02 -0.16259100743E+02 -0.14931004830E+02  0.37740906506E+02  0.00000000000E+00 0. -1.
</event>
<event>
 4    1  0.1848744E+004  0.2076131E+02  0.7546771E-02  0.1522700E+00
         21   -1    0    0  503  502  0.00000000000E+00  0.00000000000E+00  0.92751828262E+01  0.92751828262E+01  0.00000000000E+00 0. -1.
         21   -1    0    0  501  503 -0.00000000000E+00 -0.00000000000E+00 -0.16714589913E+03  0.16714589913E+03  0.00000000000E+00 0.  1.
          2    1    1    2  501    0  0.12805447192E+02  0.16341741261E+02 -0.15388682415E+03  0.15528099250E+03  0.00000000000E+00 0.  1.
         -2    1    1    2    0  502 -0.12805447192E+02 -0.16341741261E+02 -0.39838921472E+01  0.21140089448E+02  0.00000000000E+00 0. -1.
</event>
<event>
 4    1  0.1848744E+004  0.2378661E+02  0.7546771E-02  0.1482850E+00
         21   -1    0    0  501  502  0.00000000000E+00  0.00000000000E+00  0.49622897089E+01  0.49622897089E+01  0.00000000000E+00 0. -1.
         21   -1    0    0  502  503 -0.00000000000E+00 -0.00000000000E+00 -0.20768132667E+03  0.20768132667E+03  0.00000000000E+00 0.  1.
          2    1    1    2  501    0  0.37076799517E+00  0.23783723639E+02 -0.29958810631E+02  0.38253539882E+02  0.00000000000E+00 0. -1.
         -2    1    1    2    0  503 -0.37076799517E+00 -0.23783723639E+02 -0.17276022633E+03  0.17439007649E+03  0.00000000000E+00 0.  1.
</event>
<event>
 4    1  0.1848744E+004  0.2074528E+02  0.7546771E-02  0.1522933E+00
         21   -1    0    0  503  502  0.00000000000E+00  0.00000000000E+00  0.44234252849E+01  0.44234252849E+01  0.00000000000E+00 0.  1.
         21   -1    0    0  501  503 -0.00000000000E+00 -0.00000000000E+00 -0.10627970645E+03  0.10627970645E+03  0.00000000000E+00 0. -1.
          2    1    1    2  501    0  0.13748598770E+02 -0.15535209900E+02 -0.67023984941E+02  0.70161109400E+02  0.00000000000E+00 0. -1.
         -2    1    1    2    0  502 -0.13748598770E+02  0.15535209900E+02 -0.34832296219E+02  0.40542022331E+02  0.00000000000E+00 0.  1.
</event>
<event>
 4    1  0.1848744E+004  0.5739377E+02  0.7546771E-02  0.1268954E+00
         21   -1    0    0  503  502  0.00000000000E+00  0.00000000000E+00  0.11449385102E+03  0.11449385102E+03  0.00000000000E+00 0.  1.
         21   -1    0    0  501  503 -0.00000000000E+00 -0.00000000000E+00 -0.32607422932E+02  0.32607422932E+02  0.00000000000E+00 0. -1.
          2    1    1    2  501    0 -0.39319677696E+02  0.41809178923E+02  0.15713045283E+02  0.59505834070E+02  0.00000000000E+00 0. -1.
         -2    1    1    2    0  502  0.39319677696E+02 -0.41809178923E+02  0.66173382805E+02  0.87595439882E+02  0.00000000000E+00 0.  1.
</event>
<event>
 4    1  0.1848744E+004  0.3455700E+02  0.7546771E-02  0.1383705E+00
         21   -1    0    0  501  502  0.00000000000E+00  0.00000000000E+00  0.36358645593E+02  0.36358645593E+02  0.00000000000E+00 0. -1.
         21   -1    0    0  502  503 -0.00000000000E+00 -0.00000000000E+00 -0.59932972349E+02  0.59932972349E+02  0.00000000000E+00 0.  1.
          2    1    1    2  501    0 -0.27872188382E+01  0.34444417708E+02  0.20580901964E+02  0.40221387665E+02  0.00000000000E+00 0. -1.
         -2    1    1    2    0  503  0.27872188382E+01 -0.34444417708E+02 -0.44155228719E+02  0.56070230277E+02  0.00000000000E+00 0.  1.
</event>
<event>
 4    1  0.1848744E+004  0.2849428E+02  0.7546771E-02  0.1433149E+00
         21   -1    0    0  503  502  0.00000000000E+00  0.00000000000E+00  0.76612149701E+02  0.76612149701E+02  0.00000000000E+00 0.  1.
         21   -1    0    0  501  503 -0.00000000000E+00 -0.00000000000E+00 -0.38559707364E+02  0.38559707364E+02  0.00000000000E+00 0. -1.
          2    1    1    2  501    0 -0.26813415011E+02  0.96418147741E+01 -0.30011755540E+02  0.41383925469E+02  0.00000000000E+00 0. -1.
         -2    1    1    2    0  502  0.26813415011E+02 -0.96418147741E+01  0.68064197876E+02  0.73787931596E+02  0.00000000000E+00 0.  1.
</event>
<event>
 4    1  0.1848744E+004  0.2010527E+02  0.7546771E-02  0.1532433E+00
         21   -1    0    0  501  502  0.00000000000E+00  0.00000000000E+00  0.77843156288E+01  0.77843156288E+01  0.00000000000E+00 0. -1.
         21   -1    0    0  502  503 -0.00000000000E+00 -0.00000000000E+00 -0.61547476155E+02  0.61547476155E+02  0.00000000000E+00 0.  1.
          2    1    1    2  501    0 -0.17259765708E+02  0.10311268005E+02 -0.13176570724E+02  0.24038381314E+02  0.00000000000E+00 0. -1.
         -2    1    1    2    0  503  0.17259765708E+02 -0.10311268005E+02 -0.40586589802E+02  0.45293410469E+02  0.00000000000E+00 0.  1.
</event>
<event>
 4    1  0.1848744E+004  0.2143879E+02  0.7546771E-02  0.1513091E+00
         21   -1    0    0  503  502  0.00000000000E+00  0.00000000000E+00  0.62453666610E+01  0.62453666610E+01  0.00000000000E+00 0.  1.
         21   -1    0    0  501  503 -0.00000000000E+00 -0.00000000000E+00 -0.96013456597E+02  0.96013456597E+02  0.00000000000E+00 0. -1.
          2    1    1    2  501    0 -0.13337188469E+02  0.16785151566E+02 -0.20177235250E+02  0.29440494759E+02  0.00000000000E+00 0.  1.
         -2    1    1    2    0  502  0.13337188469E+02 -0.16785151566E+02 -0.69590854686E+02  0.72818328499E+02  0.00000000000E+00 0. -1.
</event>
<event>
 4    1  0.1848744E+004  0.2055856E+02  0.7546771E-02  0.1525662E+00
         21   -1    0    0  503  502  0.00000000000E+00  0.00000000000E+00  0.45874054933E+02  0.45874054933E+02  0.00000000000E+00 0.  1.
         21   -1    0    0  501  503 -0.00000000000E+00 -0.00000000000E+00 -0.16245064572E+02  0.16245064572E+02  0.00000000000E+00 0. -1.
          2    1    1    2  501    0 -0.17365399249E+02 -0.11004419534E+02 -0.56200406240E+01  0.21312888049E+02  0.00000000000E+00 0. -1.
         -2    1    1    2    0  502  0.17365399249E+02  0.11004419534E+02  0.35249030985E+02  0.40806231457E+02  0.00000000000E+00 0.  1.
</event>
<event>
 4    1  0.1848744E+004  0.2372773E+02  0.7546771E-02  0.1483557E+00
         21   -1    0    0  501  502  0.00000000000E+00  0.00000000000E+00  0.22721364053E+03  0.22721364053E+03  0.00000000000E+00 0.  1.
         21   -1    0    0  502  503 -0.00000000000E+00 -0.00000000000E+00 -0.72403457766E+01  0.72403457766E+01  0.00000000000E+00 0. -1.
          2    1    1    2  501    0  0.17106928561E+02 -0.16442569349E+02  0.20506124952E+03  0.20642945804E+03  0.00000000000E+00 0.  1.
         -2    1    1    2    0  503 -0.17106928561E+02  0.16442569349E+02  0.14912045233E+02  0.28024528267E+02  0.00000000000E+00 0. -1.
</event>
<event>
 4    1  0.1848744E+004  0.2390219E+02  0.7546771E-02  0.1481470E+00
         21   -1    0    0  501  502  0.00000000000E+00  0.00000000000E+00  0.36824259004E+02  0.36824259004E+02  0.00000000000E+00 0.  1.
         21   -1    0    0  502  503 -0.00000000000E+00 -0.00000000000E+00 -0.40490833678E+02  0.40490833678E+02  0.00000000000E+00 0. -1.
          2    1    1    2  501    0 -0.90902454231E+01  0.22106159583E+02  0.28527925474E+02  0.37217702578E+02  0.00000000000E+00 0.  1.
         -2    1    1    2    0  503  0.90902454231E+01 -0.22106159583E+02 -0.32194500148E+02  0.40097390104E+02  0.00000000000E+00 0. -1.
</event>
<event>
 4    1  0.1848744E+004  0.2201591E+02  0.7546771E-02  0.1505239E+00
         21   -1    0    0  503  502  0.00000000000E+00  0.00000000000E+00  0.34234444313E+02  0.34234444313E+02  0.00000000000E+00 0. -1.
         21   -1    0    0  501  503 -0.00000000000E+00 -0.00000000000E+00 -0.17020811836E+02  0.17020811836E+02  0.00000000000E+00 0.  1.
          2    1    1    2  501    0 -0.21744797731E+02 -0.34444057566E+01 -0.19029962213E+01  0.22097998869E+02  0.00000000000E+00 0.  1.
         -2    1    1    2    0  502  0.21744797731E+02  0.34444057566E+01  0.19116628698E+02  0.29157257281E+02  0.00000000000E+00 0. -1.
</event>
<event>
 4    1  0.1848744E+004  0.6267061E+02  0.7546771E-02  0.1251019E+00
         21   -1    0    0  503  502  0.00000000000E+00  0.00000000000E+00  0.53037145004E+03  0.53037145004E+03  0.00000000000E+00 0.  1.
         21   -1    0    0  501  503 -0.00000000000E+00 -0.00000000000E+00 -0.80744682344E+01  0.80744682344E+01  0.00000000000E+00 0. -1.
          2    1    1    2  501    0 -0.29405684051E+02  0.55343577946E+02  0.18364977033E+03  0.19404856098E+03  0.00000000000E+00 0.  1.
         -2    1    1    2    0  502  0.29405684051E+02 -0.55343577946E+02  0.33864721147E+03  0.34439735729E+03  0.00000000000E+00 0. -1.
</event>
<event>
 4    1  0.1848744E+004  0.2121240E+02  0.7546771E-02  0.1516254E+00
         21   -1    0    0  503  502  0.00000000000E+00  0.00000000000E+00  0.16121141130E+03  0.16121141130E+03  0.00000000000E+00 0. -1.
         21   -1    0    0  501  503 -0.00000000000E+00 -0.00000000000E+00 -0.28415366890E+01  0.28415366890E+01  0.00000000000E+00 0.  1.
          2    1    1    2  501    0 -0.51500111519E+01  0.20577734746E+02  0.68262474438E+02  0.71482383834E+02  0.00000000000E+00 0. -1.
         -2    1    1    2    0  502  0.51500111519E+01 -0.20577734746E+02  0.90107400170E+02  0.92570564152E+02  0.00000000000E+00 0.  1.
</event>
<event>
 4    1  0.1848744E+004  0.4600247E+02  0.7546771E-02  0.1316501E+00
         21   -1    0    0  501  502  0.00000000000E+00  0.00000000000E+00  0.47611125275E+03  0.47611125275E+03  0.00000000000E+00 0. -1.
         21   -1    0    0  502  503 -0.00000000000E+00 -0.00000000000E+00 -0.63903237349E+01  0.63903237349E+01  0.00000000000E+00 0.  1.
          2    1    1    2  501    0 -0.11860900017E+02  0.44447116400E+02  0.36797446850E+03  0.37083882829E+03  0.00000000000E+00 0.  1.
         -2    1    1    2    0  503  0.11860900017E+02 -0.44447116400E+02  0.10174646052E+03  0.11166274820E+03  0.00000000000E+00 0. -1.
</event>
<event>
 4    1  0.1848744E+004  0.2849715E+02  0.7546771E-02  0.1433122E+00
         21   -1    0    0  503  502  0.00000000000E+00  0.00000000000E+00  0.23044008838E+01  0.23044008838E+01  0.00000000000E+00 0. -1.
         21   -1    0    0  501  503 -0.00000000000E+00 -0.00000000000E+00 -0.37224968947E+03  0.37224968947E+03  0.00000000000E+00 0.  1.
          2    1    1    2  501    0  0.63745371505E+01 -0.27775039573E+02 -0.22821059045E+03  0.22998295837E+03  0.00000000000E+00 0. -1.
         -2    1    1    2    0  502 -0.63745371505E+01  0.27775039573E+02 -0.14173469813E+03  0.14457113198E+03  0.00000000000E+00 0.  1.
</event>
<event>
 4    1  0.1848744E+004  0.2210420E+02  0.7546771E-02  0.1504064E+00
         21   -1    0    0  501  502  0.00000000000E+00  0.00000000000E+00  0.82859164943E+02  0.82859164943E+02  0.00000000000E+00 0. -1.
         21   -1    0    0  502  503 -0.00000000000E+00 -0.00000000000E+00 -0.12494816893E+02  0.12494816893E+02  0.00000000000E+00 0.  1.
          2    1    1    2  501    0 -0.13745848443E+02 -0.17310325261E+02  0.69828234851E+02  0.73243280186E+02  0.00000000000E+00 0. -1.
         -2    1    1    2    0  503  0.13745848443E+02  0.17310325261E+02  0.53611319896E+00  0.22110701650E+02  0.00000000000E+00 0.  1.
</event>
<event>
 4    1  0.1848744E+004  0.2803121E+02  0.7546771E-02  0.1437516E+00
         21   -1    0    0  503  502  0.00000000000E+00  0.00000000000E+00  0.93146289435E+02  0.93146289435E+02  0.00000000000E+00 0. -1.
         21   -1    0    0  501  503 -0.00000000000E+00 -0.00000000000E+00 -0.88940890260E+01  0.88940890260E+01  0.00000000000E+00 0.  1.
          2    1    1    2  501    0  0.12911848290E+02 -0.24880375959E+02  0.30542728868E+02  0.41456087863E+02  0.00000000000E+00 0.  1.
         -2    1    1    2    0  502 -0.12911848290E+02  0.24880375959E+02  0.53709471540E+02  0.60584290598E+02  0.00000000000E+00 0. -1.
</event>
<event>
 4    1  0.1848744E+004  0.2149690E+02  0.7546771E-02  0.1512287E+00
         21   -1    0    0  501  502  0.00000000000E+00  0.00000000000E+00  0.20524826692E+03  0.20524826692E+03  0.00000000000E+00 0.  1.
         21   -1    0    0  502  503 -0.00000000000E+00 -0.00000000000E+00 -0.26831516170E+01  0.26831516170E+01  0.00000000000E+00 0. -1.
          2    1    1    2  501    0 -0.16917396576E+02  0.13263415535E+02  0.14298237350E+03  0.14458933443E+03  0.00000000000E+00 0.  1.
         -2    1    1    2    0  503  0.16917396576E+02 -0.13263415535E+02  0.59582741806E+02  0.63342084112E+02  0.00000000000E+00 0. -1.
</event>
<event>
 4    1  0.1848744E+004  0.2338554E+02  0.7546771E-02  0.1487713E+00
         21   -1    0    0  503  502  0.00000000000E+00  0.00000000000E+00  0.29692976369E+03  0.29692976369E+03  0.00000000000E+00 0.  1.
         21   -1    0    0  501  503 -0.00000000000E+00 -0.00000000000E+00 -0.18448979244E+01  0.18448979244E+01  0.00000000000E+00 0. -1.
          2    1    1    2  501    0  0.14380495579E+02  0.18441392186E+02  0.15366945976E+03  0.15543869036E+03  0.00000000000E+00 0.  1.
         -2    1    1    2    0  502 -0.14380495579E+02 -0.18441392186E+02  0.14141540601E+03  0.14333597125E+03  0.00000000000E+00 0. -1.
</event>
<event>
 4    1  0.1848744E+004  0.2325860E+02  0.7546771E-02  0.1489276E+00
         21   -1    0    0  501  502  0.00000000000E+00  0.00000000000E+00  0.21254947228E+02  0.21254947228E+02  0.00000000000E+00 0. -1.
         21   -1    0    0  502  503 -0.00000000000E+00 -0.00000000000E+00 -0.66967467198E+02  0.66967467198E+02  0.00000000000E+00 0.  1.
          2    1    1    2  501    0  0.17051726805E+02 -0.15817739688E+02  0.11875481411E+02  0.26114925514E+02  0.00000000000E+00 0. -1.
         -2    1    1    2    0  503 -0.17051726805E+02  0.15817739688E+02 -0.57588001381E+02  0.62107488912E+02  0.00000000000E+00 0.  1.
</event>
<event>
 4    1  0.1848744E+004  0.2508748E+02  0.7546771E-02  0.1467827E+00
         21   -1    0    0  503  502  0.00000000000E+00  0.00000000000E+00  0.13048818016E+02  0.13048818016E+02  0.00000000000E+00 0.  1.
         21   -1    0    0  501  503 -0.00000000000E+00 -0.00000000000E+00 -0.50439034510E+02  0.50439034510E+02  0.00000000000E+00 0. -1.
          2    1    1    2  501    0  0.25070643858E+02 -0.91893203071E+00 -0.12056169732E+02  0.27834023211E+02  0.00000000000E+00 0.  1.
         -2    1    1    2    0  502 -0.25070643858E+02  0.91893203071E+00 -0.25334046762E+02  0.35653829316E+02  0.00000000000E+00 0. -1.
</event>
<event>
 4    1  0.1848744E+004  0.2020116E+02  0.7546771E-02  0.1530983E+00
         21   -1    0    0  503  502  0.00000000000E+00  0.00000000000E+00  0.38754757804E+02  0.38754757804E+02  0.00000000000E+00 0.  1.
         21   -1    0    0  501  503 -0.00000000000E+00 -0.00000000000E+00 -0.12677016683E+02  0.12677016683E+02  0.00000000000E+00 0. -1.
          2    1    1    2  501    0 -0.67040539831E+01 -0.19056302075E+02  0.23621955610E+02  0.31081888221E+02  0.00000000000E+00 0.  1.
         -2    1    1    2    0  502  0.67040539831E+01  0.19056302075E+02  0.24557855106E+01  0.20349886266E+02  0.00000000000E+00 0. -1.
</event>
<event>
 4    1  0.1848744E+004  0.3103911E+02  0.7546771E-02  0.1410776E+00
         21   -1    0    0  501  502  0.00000000000E+00  0.00000000000E+00  0.13051405910E+04  0.13051405910E+04  0.00000000000E+00 0. -1.
         21   -1    0    0  502  503 -0.00000000000E+00 -0.00000000000E+00 -0.15314181301E+02  0.15314181301E+02  0.00000000000E+00 0.  1.
          2    1    1    2  501    0 -0.24350931707E+02 -0.19247301454E+02  0.12890318444E+04  0.12894054918E+04  0.00000000000E+00 0. -1.
         -2    1    1    2    0  503  0.24350931707E+02  0.19247301454E+02  0.79456537602E+00  0.31049280546E+02  0.00000000000E+00 0.  1.
</event>
<event>
 4    1  0.1848744E+004  0.2991272E+02  0.7546771E-02  0.1420357E+00
         21   -1    0    0  503  502  0.00000000000E+00  0.00000000000E+00  0.22260063276E+03  0.22260063276E+03  0.00000000000E+00 0. -1.
         21   -1    0    0  501  503 -0.00000000000E+00 -0.00000000000E+00 -0.75047031169E+01  0.75047031169E+01  0.00000000000E+00 0.  1.
          2    1    1    2  501    0 -0.22880742938E+02 -0.19267651160E+02  0.29144315885E+02  0.41763164716E+02  0.00000000000E+00 0.  1.
         -2    1    1    2    0  502  0.22880742938E+02  0.19267651160E+02  0.18595161376E+03  0.18834217116E+03  0.00000000000E+00 0. -1.
</event>
<event>
 4    1  0.1848744E+004  0.2255694E+02  0.7546771E-02  0.1498138E+00
         21   -1    0    0  503  502  0.00000000000E+00  0.00000000000E+00  0.32734437772E+02  0.32734437772E+02  0.00000000000E+00 0.  1.
         21   -1    0    0  501  503 -0.00000000000E+00 -0.00000000000E+00 -0.20375103517E+02  0.20375103517E+02  0.00000000000E+00 0. -1.
          2    1    1    2  501    0 -0.10066761887E+02 -0.20186033652E+02 -0.67511931371E+01  0.23545578316E+02  0.00000000000E+00 0. -1.
         -2    1    1    2    0  502  0.10066761887E+02  0.20186033652E+02  0.19110527392E+02  0.29563962973E+02  0.00000000000E+00 0.  1.
</event>
<event>
 4    1  0.1848744E+004  0.2385695E+02  0.7546771E-02  0.1482009E+00
         21   -1    0    0  503  502  0.00000000000E+00  0.00000000000E+00  0.53470139218E+02  0.53470139218E+02  0.00000000000E+00 0. -1.
         21   -1    0    0  501  503 -0.00000000000E+00 -0.00000000000E+00 -0.10680538720E+02  0.10680538720E+02  0.00000000000E+00 0.  1.
          2    1    1    2  501    0 -0.23445325824E+02  0.44125942257E+01  0.23262155688E+02  0.33320897017E+02  0.00000000000E+00 0. -1.
         -2    1    1    2    0  502  0.23445325824E+02 -0.44125942257E+01  0.19527444811E+02  0.30829780921E+02  0.00000000000E+00 0.  1.
</event>
<event>
 4    1  0.1848744E+004  0.2660431E+02  0.7546771E-02  0.1451624E+00
         21   -1    0    0  501  502  0.00000000000E+00  0.00000000000E+00  0.78683449266E+01  0.78683449266E+01  0.00000000000E+00 0. -1.
         21   -1    0    0  502  503 -0.00000000000E+00 -0.00000000000E+00 -0.12673290894E+03  0.12673290894E+03  0.00000000000E+00 0.  1.
          2    1    1    2  501    0 -0.12517217173E+02 -0.23475705284E+02 -0.95687753316E+02  0.99317347926E+02  0.00000000000E+00 0. -1.
         -2    1    1    2    0  503  0.12517217173E+02  0.23475705284E+02 -0.23176810697E+02  0.35283905940E+02  0.00000000000E+00 0.  1.
</event>
<event>
 4    1  0.1848744E+004  0.3016889E+02  0.7546771E-02  0.1418134E+00
         21   -1    0    0  503  502  0.00000000000E+00  0.00000000000E+00  0.70274047870E+02  0.70274047870E+02  0.00000000000E+00 0. -1.
         21   -1    0    0  501  503 -0.00000000000E+00 -0.00000000000E+00 -0.12974279489E+02  0.12974279489E+02  0.00000000000E+00 0.  1.
          2    1    1    2  501    0 -0.98804747431E+01  0.28505057635E+02  0.30389769272E+02  0.42821725424E+02  0.00000000000E+00 0.  1.
         -2    1    1    2    0  502  0.98804747431E+01 -0.28505057635E+02  0.26909999110E+02  0.40426601935E+02  0.00000000000E+00 0. -1.
</event>
<event>
 4    1  0.1848744E+004  0.3460181E+02  0.7546771E-02  0.1383384E+00
         21   -1    0    0  503  502  0.00000000000E+00  0.00000000000E+00  0.16783241251E+03  0.16783241251E+03  0.00000000000E+00 0.  1.
         21   -1    0    0  501  503 -0.00000000000E+00 -0.00000000000E+00 -0.31569802738E+02  0.31569802738E+02  0.00000000000E+00 0. -1.
          2    1    1    2  501    0  0.18355961739E+01  0.34553088751E+02 -0.19584731623E+02  0.39759867559E+02  0.00000000000E+00 0. -1.
         -2    1    1    2    0  502 -0.18355961739E+01 -0.34553088751E+02  0.15584734140E+03  0.15964234769E+03  0.00000000000E+00 0.  1.
</event>
<event>
 4    1  0.1848744E+004  0.2449016E+02  0.7546771E-02  0.1474588E+00
         21   -1    0    0  501  502  0.00000000000E+00  0.00000000000E+00  0.42276092019E+02  0.42276092019E+02  0.00000000000E+00 0.  1.
         21   -1    0    0  502  503 -0.00000000000E+00 -0.00000000000E+00 -0.19990927133E+02  0.19990927133E+02  0.00000000000E+00 0. -1.
          2    1    1    2  501    0  0.94795538451E+01  0.22581100811E+02  0.27918068829E+02  0.37137401930E+02  0.00000000000E+00 0.  1.
         -2    1    1    2    0  503 -0.94795538451E+01 -0.22581100811E+02 -0.56329039430E+01  0.25129617223E+02  0.00000000000E+00 0. -1.
</event>
<event>
 4    1  0.1848744E+004  0.3192380E+02  0.7546771E-02  0.1403584E+00
         21   -1    0    0  501  502  0.00000000000E+00  0.00000000000E+00  0.46366758614E+02  0.46366758614E+02  0.00000000000E+00 0.  1.
         21   -1    0    0  502  503 -0.00000000000E+00 -0.00000000000E+00 -0.15189834536E+03  0.15189834536E+03  0.00000000000E+00 0. -1.
          2    1    1    2  501    0  0.30331343017E+02  0.99568449137E+01  0.38914384230E+02  0.50333472261E+02  0.00000000000E+00 0.  1.
         -2    1    1    2    0  503 -0.30331343017E+02 -0.99568449137E+01 -0.14444597098E+03  0.14793163171E+03  0.00000000000E+00 0. -1.
</event>
<event>
 4    1  0.1848744E+004  0.6608945E+02  0.7546771E-02  0.1240437E+00
         21   -1    0    0  501  502  0.00000000000E+00  0.00000000000E+00  0.47734766069E+03  0.47734766069E+03  0.00000000000E+00 0. -1.
         21   -1    0    0  502  503 -0.00000000000E+00 -0.00000000000E+00 -0.15011516508E+02  0.15011516508E+02  0.00000000000E+00 0.  1.
          2    1    1    2  501    0 -0.33977240967E+02 -0.56686526527E+02  0.38499707565E+03  0.39062842121E+03  0.00000000000E+00 0. -1.
         -2    1    1    2    0  503  0.33977240967E+02  0.56686526527E+02  0.77339068527E+02  0.10173075599E+03  0.00000000000E+00 0.  1.
</event>
<event>
 4    1  0.1848744E+004  0.2099934E+02  0.7546771E-02  0.1519274E+00
         21   -1    0    0  501  502  0.00000000000E+00  0.00000000000E+00  0.10004994987E+02  0.10004994987E+02  0.00000000000E+00 0.  1.
         21   -1    0    0  502  503 -0.00000000000E+00 -0.00000000000E+00 -0.16045108638E+03  0.16045108638E+03  0.00000000000E+00 0. -1.
          2    1    1    2  501    0 -0.19412929366E+02 -0.80069004942E+01 -0.26387527342E+01  0.21164481994E+02  0.00000000000E+00 0.  1.
         -2    1    1    2    0  503  0.19412929366E+02  0.80069004942E+01 -0.14780733866E+03  0.14929159937E+03  0.00000000000E+00 0. -1.
</event>
<event>
 4    1  0.1848744E+004  0.3942903E+02  0.7546771E-02  0.1351864E+00
         21   -1    0    0  503  502  0.00000000000E+00  0.00000000000E+00  0.14126112509E+03  0.14126112509E+03  0.00000000000E+00 0. -1.
         21   -1    0    0  501  503 -0.00000000000E+00 -0.00000000000E+00 -0.11101395481E+02  0.11101395481E+02  0.00000000000E+00 0.  1.
          2    1    1    2  501    0  0.15893016766E+00 -0.39428713745E+02  0.57999301223E+02  0.70132500802E+02  0.00000000000E+00 0. -1.
         -2    1    1    2    0  502 -0.15893016766E+00  0.39428713745E+02  0.72160428390E+02  0.82230019773E+02  0.00000000000E+00 0.  1.
</event>
<event>
 4    1  0.1848744E+004  0.2149635E+02  0.7546771E-02  0.1512295E+00
         21   -1    0    0  501  502  0.00000000000E+00  0.00000000000E+00  0.60149172633E+03  0.60149172633E+03  0.00000000000E+00 0. -1.
         21   -1    0    0  502  503 -0.00000000000E+00 -0.00000000000E+00 -0.23684064023E+01  0.23684064023E+01  0.00000000000E+00 0.  1.
          2    1    1    2  501    0  0.70892986088E+01 -0.20293718037E+02  0.54773785056E+03  0.54815950788E+03  0.00000000000E+00 0. -1.
         -2    1    1    2    0  503 -0.70892986088E+01  0.20293718037E+02  0.51385469373E+02  0.55700624855E+02  0.00000000000E+00 0.  1.
</event>
<event>
 4    1  0.1848744E+004  0.4537521E+02  0.7546771E-02  0.1319574E+00
         21   -1    0    0  501  502  0.00000000000E+00  0.00000000000E+00  0.18190823614E+02  0.18190823614E+02  0.00000000000E+00 0.  1.
         21   -1    0    0  502  503 -0.00000000000E+00 -0.00000000000E+00 -0.13606783626E+03  0.13606783626E+03  0.00000000000E+00 0. -1.
          2    1    1    2  501    0  0.45368963170E+02 -0.75308112504E+00 -0.27307984649E+02  0.52958813958E+02  0.00000000000E+00 0.  1.
         -2    1    1    2    0  503 -0.45368963170E+02  0.75308112504E+00 -0.90569027997E+02  0.10129984592E+03  0.00000000000E+00 0. -1.
</event>
<event>
 4    1  0.1848744E+004  0.2277211E+02  0.7546771E-02  0.1495380E+00
         21   -1    0    0  503  502  0.00000000000E+00  0.00000000000E+00  0.82958288335E+02  0.82958288335E+02  0.00000000000E+00 0.  1.
         21   -1    0    0  501  503 -0.00000000000E+00 -0.00000000000E+00 -0.64531166736E+01  0.64531166736E+01  0.00000000000E+00 0. -1.
          2    1    1    2  501    0 -0.16596720576E+02 -0.15592234652E+02  0.46165246705E+02  0.51476197593E+02  0.00000000000E+00 0.  1.
         -2    1    1    2    0  502  0.16596720576E+02  0.15592234652E+02  0.30339924956E+02  0.37935207415E+02  0.00000000000E+00 0. -1.
</event>
<event>
 4    1  0.1848744E+004  0.2233376E+02  0.7546771E-02  0.1501038E+00
         21   -1    0    0  503  502  0.00000000000E+00  0.00000000000E+00  0.19596760148E+03  0.19596760148E+03  0.00000000000E+00 0.  1.
         21   -1    0    0  501  503 -0.00000000000E+00 -0.00000000000E+00 -0.33787406424E+01  0.33787406424E+01  0.00000000000E+00 0. -1.
          2    1    1    2  501    0 -0.16836781448E+02  0.14673771187E+02  0.46790736435E+02  0.51847562976E+02  0.00000000000E+00 0. -1.
         -2    1    1    2    0  502  0.16836781448E+02 -0.14673771187E+02  0.14579812440E+03  0.14749877914E+03  0.00000000000E+00 0.  1.
</event>
<event>
 4    1  0.1848744E+004  0.2214317E+02  0.7546771E-02  0.1503547E+00
         21   -1    0    0  501  502  0.00000000000E+00  0.00000000000E+00  0.18017772497E+02  0.18017772497E+02  0.00000000000E+00 0.  1.
         21   -1    0    0  502  503 -0.00000000000E+00 -0.00000000000E+00 -0.36691826681E+02  0.36691826681E+02  0.00000000000E+00 0. -1.
          2    1    1    2  501    0  0.18136413537E+02  0.12703949885E+02  0.45664482211E+01  0.22609119576E+02  0.00000000000E+00 0.  1.
         -2    1    1    2    0  503 -0.18136413537E+02 -0.12703949885E+02 -0.23240502405E+02  0.32100479602E+02  0.00000000000E+00 0. -1.
</event>
<event>
 4    1  0.1848744E+004  0.3169856E+02  0.7546771E-02  0.1405389E+00
         21   -1    0    0  503  502  0.00000000000E+00  0.00000000000E+00  0.74680997714E+01  0.74680997714E+01  0.00000000000E+00 0. -1.
         21   -1    0    0  501  503 -0.00000000000E+00 -0.00000000000E+00 -0.13572099855E+03  0.13572099855E+03  0.00000000000E+00 0.  1.
          2    1    1    2  501    0 -0.21686619150E+02 -0.23119021302E+02 -0.70789649562E+02  0.77562704190E+02  0.00000000000E+00 0. -1.
         -2    1    1    2    0  502  0.21686619150E+02  0.23119021302E+02 -0.57463249214E+02  0.65626394128E+02  0.00000000000E+00 0.  1.
</event>
<event>
 4    1  0.1848744E+004  0.2383149E+02  0.7546771E-02  0.1482313E+00
         21   -1    0    0  501  502  0.00000000000E+00  0.00000000000E+00  0.18060771170E+02  0.18060771170E+02  0.00000000000E+00 0. -1.
         21   -1    0    0  502  503 -0.00000000000E+00 -0.00000000000E+00 -0.39259957454E+02  0.39259957454E+02  0.00000000000E+00 0.  1.
          2    1    1    2  501    0 -0.21286269523E+02 -0.10716097185E+02  0.21865858111E+01  0.23931593482E+02  0.00000000000E+00 0.  1.
         -2    1    1    2    0  503  0.21286269523E+02  0.10716097185E+02 -0.23385772095E+02  0.33389135142E+02  0.00000000000E+00 0. -1.
</event>
<event>
 4    1  0.1848744E+004  0.2946586E+02  0.7546771E-02  0.1424296E+00
         21   -1    0    0  503  502  0.00000000000E+00  0.00000000000E+00  0.23000633466E+02  0.23000633466E+02  0.00000000000E+00 0.  1.
         21   -1    0    0  501  503 -0.00000000000E+00 -0.00000000000E+00 -0.81298427571E+02  0.81298427571E+02  0.00000000000E+00 0. -1.
          2    1    1    2  501    0 -0.10971012711E+02 -0.27347280550E+02 -0.67317265776E+02  0.73483679446E+02  0.00000000000E+00 0. -1.
         -2    1    1    2    0  502  0.10971012711E+02  0.27347280550E+02  0.90194716709E+01  0.30815381591E+02  0.00000000000E+00 0.  1.
</event>
<event>
 4    1  0.1848744E+004  0.2422722E+02  0.7546771E-02  0.1477637E+00
         21   -1    0    0  501  502  0.00000000000E+00  0.00000000000E+00  0.50318678575E+03  0.50318678575E+03  0.00000000000E+00 0.  1.
         21   -1    0    0  502  503 -0.00000000000E+00 -0.00000000000E+00 -0.40292412687E+01  0.40292412687E+01  0.00000000000E+00 0. -1.
          2    1    1    2  501    0  0.23798263708E+01 -0.24110056315E+02  0.46334728762E+03  0.46398024455E+03  0.00000000000E+00 0.  1.
         -2    1    1    2    0  503 -0.23798263708E+01  0.24110056315E+02  0.35810256859E+02  0.43235782465E+02  0.00000000000E+00 0. -1.
</event>
<event>
 4    1  0.1848744E+004  0.2341327E+02  0.7546771E-02  0.1487373E+00
         21   -1    0    0  501  502  0.00000000000E+00  0.00000000000E+00  0.68117115658E+01  0.68117115658E+01  0.00000000000E+00 0. -1.
         21   -1    0    0  502  503 -0.00000000000E+00 -0.00000000000E+00 -0.11499237565E+03  0.11499237565E+03  0.00000000000E+00 0.  1.
          2    1    1    2  501    0  0.16597907750E+02  0.16513342720E+02 -0.20724009865E+02  0.31267644848E+02  0.00000000000E+00 0. -1.
         -2    1    1    2    0  503 -0.16597907750E+02 -0.16513342720E+02 -0.87456654221E+02  0.90536442370E+02  0.00000000000E+00 0.  1.
</event>
<event>
 4    1  0.1848744E+004  0.3408837E+02  0.7546771E-02  0.1387088E+00
         21   -1    0    0  501  502  0.00000000000E+00  0.00000000000E+00  0.10191018813E+02  0.10191018813E+02  0.00000000000E+00 0.  1.
         21   -1    0    0  502  503 -0.00000000000E+00 -0.00000000000E+00 -0.11402470947E+03  0.11402470947E+03  0.00000000000E+00 0. -1.
          2    1    1    2  501    0 -0.16507839125E+02 -0.29824620821E+02 -0.52109659940E+02  0.62269040612E+02  0.00000000000E+00 0.  1.
         -2    1    1    2    0  503  0.16507839125E+02  0.29824620821E+02 -0.51724030713E+02  0.61946687667E+02  0.00000000000E+00 0. -1.
</event>
<event>
 4    1  0.1848744E+004  0.2639278E+02  0.7546771E-02  0.1453805E+00
         21   -1    0    0  501  502  0.00000000000E+00  0.00000000000E+00  0.52758222186E+02  0.52758222186E+02  0.00000000000E+00 0. -1.
         21   -1    0    0  502  503 -0.00000000000E+00 -0.00000000000E+00 -0.14326275281E+02  0.14326275281E+02  0.00000000000E+00 0.  1.
          2    1    1    2  501    0 -0.63540534039E-01  0.26392699944E+02  0.98246836841E+01  0.28162085456E+02  0.00000000000E+00 0.  1.
         -2    1    1    2    0  503  0.63540534039E-01 -0.26392699944E+02  0.28607263220E+02  0.38922412011E+02  0.00000000000E+00 0. -1.
</event>
<event>
 4    1  0.1848744E+004  0.2538756E+02  0.7546771E-02  0.1464514E+00
         21   -1    0    0  501  502  0.00000000000E+00  0.00000000000E+00  0.68076171979E+02  0.68076171979E+02  0.00000000000E+00 0. -1.
         21   -1    0    0  502  503 -0.00000000000E+00 -0.00000000000E+00 -0.41192130325E+02  0.41192130325E+02  0.00000000000E+00 0.  1.
          2    1    1    2  501    0 -0.24333298212E+02 -0.72400867306E+01  0.61388159727E+02  0.66430673732E+02  0.00000000000E+00 0. -1.
         -2    1    1    2    0  503  0.24333298212E+02  0.72400867306E+01 -0.34504118073E+02  0.42837628573E+02  0.00000000000E+00 0.  1.
</event>
<event>
 4    1  0.1848744E+004  0.9656370E+02  0.7546771E-02  0.1169899E+00
         21   -1    0    0  501  502  0.00000000000E+00  0.00000000000E+00  0.49737451290E+02  0.49737451290E+02  0.00000000000E+00 0. -1.
         21   -1    0    0  502  503 -0.00000000000E+00 -0.00000000000E+00 -0.19328257770E+03  0.19328257770E+03  0.00000000000E+00 0.  1.
          2    1    1    2  501    0  0.83764836221E+02 -0.48041649945E+02 -0.50710603796E+02  0.10906930482E+03  0.00000000000E+00 0. -1.
         -2    1    1    2    0  503 -0.83764836221E+02  0.48041649945E+02 -0.92834522613E+02  0.13395072417E+03  0.00000000000E+00 0.  1.
</event>
<event>
 4    1  0.1848744E+004  0.2305940E+02  0.7546771E-02  0.1491754E+00
         21   -1    0    0  501  502  0.00000000000E+00  0.00000000000E+00  0.58937184685E+03  0.58937184685E+03  0.00000000000E+00 0.  1.
         21   -1    0    0  502  503 -0.00000000000E+00 -0.00000000000E+00 -0.11823200413E+01  0.11823200413E+01  0.00000000000E+00 0. -1.
          2    1    1    2  501    0  0.51053299586E+01  0.22487139003E+02  0.15037107840E+03  0.15212888297E+03  0.00000000000E+00 0. -1.
         -2    1    1    2    0  503 -0.51053299586E+01 -0.22487139003E+02  0.43781844840E+03  0.43842528392E+03  0.00000000000E+00 0.  1.
</event>
<event>
 4    1  0.1848744E+004  0.2743988E+02  0.7546771E-02  0.1443239E+00
         21   -1    0    0  501  502  0.00000000000E+00  0.00000000000E+00  0.18484131021E+02  0.18484131021E+02  0.00000000000E+00 0.  1.
         21   -1    0    0  502  503 -0.00000000000E+00 -0.00000000000E+00 -0.15022021051E+03  0.15022021051E+03  0.00000000000E+00 0. -1.
          2    1    1    2  501    0 -0.37127133471E+01  0.27187545799E+02  0.61448533307E+01  0.28119496963E+02  0.00000000000E+00 0.  1.
         -2    1    1    2    0  503  0.37127133471E+01 -0.27187545799E+02 -0.13788093282E+03  0.14058484457E+03  0.00000000000E+00 0. -1.
</event>
<event>
 4    1  0.1848744E+004  0.2711228E+02  0.7546771E-02  0.1446484E+00
         21   -1    0    0  501  502  0.00000000000E+00  0.00000000000E+00  0.26071737979E+02  0.26071737979E+02  0.00000000000E+00 0. -1.
         21   -1    0    0  502  503 -0.00000000000E+00 -0.00000000000E+00 -0.57247000731E+02  0.57247000731E+02  0.00000000000E+00 0.  1.
          2    1    1    2  501    0 -0.26512369503E+02  0.56718467603E+01  0.14090000196E+02  0.30554929028E+02  0.00000000000E+00 0. -1.
         -2    1    1    2    0  503  0.26512369503E+02 -0.56718467603E+01 -0.45265262949E+02  0.52763809682E+02  0.00000000000E+00 0.  1.
</event>
<event>
 4    1  0.1848744E+004  0.3157447E+02  0.7546771E-02  0.1406390E+00
         21   -1    0    0  501  502  0.00000000000E+00  0.00000000000E+00  0.10356274005E+02  0.10356274005E+02  0.00000000000E+00 0.  1.
         21   -1    0    0  502  503 -0.00000000000E+00 -0.00000000000E+00 -0.19822423431E+03  0.19822423431E+03  0.00000000000E+00 0. -1.
          2    1    1    2  501    0  0.51186036962E+01  0.31156816247E+02 -0.19137955916E+02  0.36921655693E+02  0.00000000000E+00 0.  1.
         -2    1    1    2    0  503 -0.51186036962E+01 -0.31156816247E+02 -0.16873000439E+03  0.17165885262E+03  0.00000000000E+00 0. -1.
</event>
<event>
 4    1  0.1848744E+004  0.3478474E+02  0.7546771E-02  0.1382083E+00
         21   -1    0    0  501  502  0.00000000000E+00  0.00000000000E+00  0.36660977789E+01  0.36660977789E+01  0.00000000000E+00 0. -1.
         21   -1    0    0  502  503 -0.00000000000E+00 -0.00000000000E+00 -0.45344062686E+03  0.45344062686E+03  0.00000000000E+00 0.  1.
          2    1    1    2  501    0 -0.32674576548E+02  0.11931069112E+02 -0.10565967981E+03  0.11123824118E+03  0.00000000000E+00 0. -1.
         -2    1    1    2    0  503  0.32674576548E+02 -0.11931069112E+02 -0.34411484927E+03  0.34586848346E+03  0.00000000000E+00 0.  1.
</event>
<event>
 4    1  0.1848744E+004  0.3415610E+02  0.7546771E-02  0.1386595E+00
         21   -1    0    0  503  502  0.00000000000E+00  0.00000000000E+00  0.87550977854E+01  0.87550977854E+01  0.00000000000E+00 0. -1.
         21   -1    0    0  501  503 -0.00000000000E+00 -0.00000000000E+00 -0.15886785539E+03  0.15886785539E+03  0.00000000000E+00 0.  1.
          2    1    1    2  501    0  0.30659371655E+02  0.15054643683E+02 -0.41402510440E+02  0.53673151924E+02  0.00000000000E+00 0. -1.
         -2    1    1    2    0  502 -0.30659371655E+02 -0.15054643683E+02 -0.10871024716E+03  0.11394980125E+03  0.00000000000E+00 0.  1.
</event>
<event>
 4    1  0.1848744E+004  0.2179149E+02  0.7546771E-02  0.1508258E+00
         21   -1    0    0  501  502  0.00000000000E+00  0.00000000000E+00  0.20931299756E+02  0.20931299756E+02  0.00000000000E+00 0. -1.
         21   -1    0    0  502  503 -0.00000000000E+00 -0.00000000000E+00 -0.37042852850E+02  0.37042852850E+02  0.00000000000E+00 0.  1.
          2    1    1    2  501    0 -0.11506942322E+02 -0.18505662009E+02  0.99896056601E+01  0.23972097723E+02  0.00000000000E+00 0. -1.
         -2    1    1    2    0  503  0.11506942322E+02  0.18505662009E+02 -0.26101158754E+02  0.34002054883E+02  0.00000000000E+00 0.  1.
</event>
<event>
 4    1  0.1848744E+004  0.2216940E+02  0.7546771E-02  0.1503200E+00
         21   -1    0    0  503  502  0.00000000000E+00  0.00000000000E+00  0.74339728003E+02  0.74339728003E+02  0.00000000000E+00 0.  1.
         21   -1    0    0  501  503 -0.00000000000E+00 -0.00000000000E+00 -0.77625755563E+01  0.77625755563E+01  0.00000000000E+00 0. -1.
          2    1    1    2  501    0  0.11781849789E+02 -0.18779520088E+02  0.17479307718E+02  0.28231339987E+02  0.00000000000E+00 0. -1.
         -2    1    1    2    0  502 -0.11781849789E+02  0.18779520088E+02  0.49097844729E+02  0.53870963572E+02  0.00000000000E+00 0.  1.
</event>
<event>
 4    1  0.1848744E+004  0.2207858E+02  0.7546771E-02  0.1504404E+00
         21   -1    0    0  503  502  0.00000000000E+00  0.00000000000E+00  0.30965962917E+02  0.30965962917E+02  0.00000000000E+00 0.  1.
         21   -1    0    0  501  503 -0.00000000000E+00 -0.00000000000E+00 -0.44443378860E+02  0.44443378860E+02  0.00000000000E+00 0. -1.
          2    1    1    2  501    0 -0.12142446467E+02  0.18439758060E+02 -0.37038776615E+02  0.43120002976E+02  0.00000000000E+00 0. -1.
         -2    1    1    2    0  502  0.12142446467E+02 -0.18439758060E+02  0.23561360671E+02  0.32289338801E+02  0.00000000000E+00 0.  1.
</event>
<event>
 4    1  0.1848744E+004  0.5179710E+02  0.7546771E-02  0.1290563E+00
         21   -1    0    0  503  502  0.00000000000E+00  0.00000000000E+00  0.51045385097E+02  0.51045385097E+02  0.00000000000E+00 0. -1.
         21   -1    0    0  501  503 -0.00000000000E+00 -0.00000000000E+00 -0.55484318835E+02  0.55484318835E+02  0.00000000000E+00 0.  1.
          2    1    1    2  501    0 -0.25614943400E+02  0.45020150618E+02 -0.14448071600E+02  0.53774399671E+02  0.00000000000E+00 0.  1.
         -2    1    1    2    0  502  0.25614943400E+02 -0.45020150618E+02  0.10009137862E+02  0.52755304262E+02  0.00000000000E+00 0. -1.
</event>
<event>
 4    1  0.1848744E+004  0.2608230E+02  0.7546771E-02  0.1457051E+00
         21   -1    0    0  503  502  0.00000000000E+00  0.00000000000E+00  0.47460172813E+02  0.47460172813E+02  0.00000000000E+00 0. -1.
         21   -1    0    0  501  503 -0.00000000000E+00 -0.00000000000E+00 -0.50704776065E+02  0.50704776065E+02  0.00000000000E+00 0.  1.
          2    1    1    2  501    0 -0.26078862725E+02 -0.42339567298E+00 -0.43192230006E+02  0.50456467155E+02  0.00000000000E+00 0.  1.
         -2    1    1    2    0  502  0.26078862725E+02  0.42339567298E+00  0.39947626754E+02  0.47708481722E+02  0.00000000000E+00 0. -1.
</event>
<event>
 4    1  0.1848744E+004  0.2909908E+02  0.7546771E-02  0.1427590E+00
         21   -1    0    0  503  502  0.00000000000E+00  0.00000000000E+00  0.18038176172E+03  0.18038176172E+03  0.00000000000E+00 0. -1.
         21   -1    0    0  501  503 -0.00000000000E+00 -0.00000000000E+00 -0.50830704803E+01  0.50830704803E+01  0.00000000000E+00 0.  1.
          2    1    1    2  501    0 -0.19387763882E+02  0.21699557805E+02  0.62001799226E+02  0.68490724222E+02  0.00000000000E+00 0.  1.
         -2    1    1    2    0  502  0.19387763882E+02 -0.21699557805E+02  0.11329689202E+03  0.11697410798E+03  0.00000000000E+00 0. -1.
</event>
<event>
 4    1  0.1848744E+004  0.2223639E+02  0.7546771E-02  0.1502316E+00
         21   -1    0    0  501  502  0.00000000000E+00  0.00000000000E+00  0.12112188155E+01  0.12112188155E+01  0.00000000000E+00 0. -1.
         21   -1    0    0  502  503 -0.00000000000E+00 -0.00000000000E+00 -0.62376587703E+03  0.62376587703E+03  0.00000000000E+00 0.  1.
          2    1    1    2  501    0  0.19293275888E+01 -0.22152533036E+02 -0.12758876743E+03  0.12951197087E+03  0.00000000000E+00 0. -1.
         -2    1    1    2    0  503 -0.19293275888E+01  0.22152533036E+02 -0.49496589079E+03  0.49546512498E+03  0.00000000000E+00 0.  1.
</event>
<event>
 4    1  0.1848744E+004  0.2036862E+02  0.7546771E-02  0.1528473E+00
         21   -1    0    0  501  502  0.00000000000E+00  0.00000000000E+00  0.82950340999E+01  0.82950340999E+01  0.00000000000E+00 0. -1.
         21   -1    0    0  502  503 -0.00000000000E+00 -0.00000000000E+00 -0.12525524965E+03  0.12525524965E+03  0.00000000000E+00 0.  1.
          2    1    1    2  501    0  0.19714108551E+02  0.51219746637E+01 -0.67265304093E+01  0.21450569031E+02  0.00000000000E+00 0. -1.
         -2    1    1    2    0  503 -0.19714108551E+02 -0.51219746637E+01 -0.11023368514E+03  0.11209971472E+03  0.00000000000E+00 0.  1.
</event>
<event>
 4    1  0.1848744E+004  0.3084026E+02  0.7546771E-02  0.1412432E+00
         21   -1    0    0  503  502  0.00000000000E+00  0.00000000000E+00  0.14619729369E+02  0.14619729369E+02  0.00000000000E+00 0. -1.
         21   -1    0    0  501  503 -0.00000000000E+00 -0.00000000000E+00 -0.21579969165E+03  0.21579969165E+03  0.00000000000E+00 0.  1.
          2    1    1    2  501    0 -0.24952091157E+02  0.18124979846E+02 -0.19687998758E+03  0.19928083515E+03  0.00000000000E+00 0.  1.
         -2    1    1    2    0  502  0.24952091157E+02 -0.18124979846E+02 -0.42999746978E+01  0.31138585869E+02  0.00000000000E+00 0. -1.
</event>
<event>
 4    1  0.1848744E+004  0.3424146E+02  0.7546771E-02  0.1385976E+00
         21   -1    0    0  503  502  0.00000000000E+00  0.00000000000E+00  0.17171233555E+01  0.17171233555E+01  0.00000000000E+00 0. -1.
         21   -1    0    0  501  503 -0.00000000000E+00 -0.00000000000E+00 -0.11075075888E+04  0.11075075888E+04  0.00000000000E+00 0.  1.
          2    1    1    2  501    0 -0.20631924394E+02  0.27327661270E+02 -0.89633737856E+03  0.89699117810E+03  0.00000000000E+00 0.  1.
         -2    1    1    2    0  502  0.20631924394E+02 -0.27327661270E+02 -0.20945308686E+03  0.21223353404E+03  0.00000000000E+00 0. -1.
</event>
<event>
 4    1  0.1848744E+004  0.2086542E+02  0.7546771E-02  0.1521195E+00
         21   -1    0    0  503  502  0.00000000000E+00  0.00000000000E+00  0.94148300542E+02  0.94148300542E+02  0.00000000000E+00 0.  1.
         21   -1    0    0  501  503 -0.00000000000E+00 -0.00000000000E+00 -0.78130103075E+01  0.78130103075E+01  0.00000000000E+00 0. -1.
          2    1    1    2  501    0  0.17514569726E+02 -0.11340432695E+02  0.10598456023E+02  0.23402838214E+02  0.00000000000E+00 0. -1.
         -2    1    1    2    0  502 -0.17514569726E+02  0.11340432695E+02  0.75736834212E+02  0.78558472636E+02  0.00000000000E+00 0.  1.
</event>
<event>
 4    1  0.1848744E+004  0.2097591E+02  0.7546771E-02  0.1519609E+00
         21   -1    0    0  501  502  0.00000000000E+00  0.00000000000E+00  0.24416445769E+02  0.24416445769E+02  0.00000000000E+00 0.  1.
         21   -1    0    0  502  503 -0.00000000000E+00 -0.00000000000E+00 -0.33979050237E+02  0.33979050237E+02  0.00000000000E+00 0. -1.
          2    1    1    2  501    0 -0.11150518524E+02 -0.17766674865E+02  0.15228591457E+02  0.25921010722E+02  0.00000000000E+00 0.  1.
         -2    1    1    2    0  503  0.11150518524E+02  0.17766674865E+02 -0.24791195924E+02  0.32474485284E+02  0.00000000000E+00 0. -1.
</event>
<event>
 4    1  0.1848744E+004  0.2271842E+02  0.7546771E-02  0.1496065E+00
         21   -1    0    0  503  502  0.00000000000E+00  0.00000000000E+00  0.21293192192E+03  0.21293192192E+03  0.00000000000E+00 0.  1.
         21   -1    0    0  501  503 -0.00000000000E+00 -0.00000000000E+00 -0.24657093238E+01  0.24657093238E+01  0.00000000000E+00 0. -1.
          2    1    1    2  501    0 -0.16892014895E+02 -0.15191655193E+02  0.91209640536E+02  0.93996409939E+02  0.00000000000E+00 0. -1.
         -2    1    1    2    0  502  0.16892014895E+02  0.15191655193E+02  0.11925657206E+03  0.12140122131E+03  0.00000000000E+00 0.  1.
</event>
<event>
 4    1  0.1848744E+004  0.2363237E+02  0.7546771E-02  0.1484706E+00
         21   -1    0    0  501  502  0.00000000000E+00  0.00000000000E+00  0.24912505783E+03  0.24912505783E+03  0.00000000000E+00 0.  1.
         21   -1    0    0  502  503 -0.00000000000E+00 -0.00000000000E+00 -0.25410360154E+01  0.25410360154E+01  0.00000000000E+00 0. -1.
          2    1    1    2  501    0  0.14234335397E+02 -0.18864587621E+02  0.16647324233E+03  0.16814228910E+03  0.00000000000E+00 0.  1.
         -2    1    1    2    0  503 -0.14234335397E+02  0.18864587621E+02  0.80110779487E+02  0.83523804752E+02  0.00000000000E+00 0. -1.
</event>
<event>
 4    1  0.1848744E+004  0.3701907E+02  0.7546771E-02  0.1366899E+00
         21   -1    0    0  501  502  0.00000000000E+00  0.00000000000E+00  0.31568606017E+02  0.31568606017E+02  0.00000000000E+00 0. -1.
         21   -1    0    0  502  503 -0.00000000000E+00 -0.00000000000E+00 -0.12888292366E+03  0.12888292366E+03  0.00000000000E+00 0.  1.
          2    1    1    2  501    0 -0.36560683836E+02 -0.58075782014E+01  0.16675296046E+02  0.40601441666E+02  0.00000000000E+00 0. -1.
         -2    1    1    2    0  503  0.36560683836E+02  0.58075782014E+01 -0.11398961369E+03  0.11985008801E+03  0.00000000000E+00 0.  1.
</event>
<event>
 4    1  0.1848744E+004  0.4186016E+02  0.7546771E-02  0.1337917E+00
         21   -1    0    0  501  502  0.00000000000E+00  0.00000000000E+00  0.14683300894E+02  0.14683300894E+02  0.00000000000E+00 0. -1.
         21   -1    0    0  502  503 -0.00000000000E+00 -0.00000000000E+00 -0.13931185372E+03  0.13931185372E+03  0.00000000000E+00 0.  1.
          2    1    1    2  501    0  0.36115886139E+02  0.21164011757E+02 -0.33159059295E+02  0.53402208181E+02  0.00000000000E+00 0.  1.
         -2    1    1    2    0  503 -0.36115886139E+02 -0.21164011757E+02 -0.91469493535E+02  0.10059294644E+03  0.00000000000E+00 0. -1.
</event>
<event>
 4    1  0.1848744E+004  0.2093239E+02  0.7546771E-02  0.1520232E+00
         21   -1    0    0  501  502  0.00000000000E+00  0.00000000000E+00  0.32951096124E+01  0.32951096124E+01  0.00000000000E+00 0.  1.
         21   -1    0    0  502  503 -0.00000000000E+00 -0.00000000000E+00 -0.23882811368E+03  0.23882811368E+03  0.00000000000E+00 0. -1.
          2    1    1    2  501    0 -0.17990418777E+02  0.10700919532E+02 -0.37169848234E+02  0.42658673964E+02  0.00000000000E+00 0.  1.
         -2    1    1    2    0  503  0.17990418777E+02 -0.10700919532E+02 -0.19836315584E+03  0.19946454933E+03  0.00000000000E+00 0. -1.
</event>
<event>
 4    1  0.1848744E+004  0.2335351E+02  0.7546771E-02  0.1488106E+00
         21   -1    0    0  503  502  0.00000000000E+00  0.00000000000E+00  0.10435387035E+01  0.10435387035E+01  0.00000000000E+00 0. -1.
         21   -1    0    0  501  503 -0.00000000000E+00 -0.00000000000E+00 -0.57181634903E+03  0.57181634903E+03  0.00000000000E+00 0.  1.
          2    1    1    2  501    0  0.89810812797E+01  0.21557521210E+02 -0.36939125326E+03  0.37012874047E+03  0.00000000000E+00 0.  1.
         -2    1    1    2    0  502 -0.89810812797E+01 -0.21557521210E+02 -0.20138155707E+03  0.20273114726E+03  0.00000000000E+00 0. -1.
</event>
<event>
 4    1  0.1848744E+004  0.2264363E+02  0.7546771E-02  0.1497022E+00
         21   -1    0    0  503  502  0.00000000000E+00  0.00000000000E+00  0.16812131992E+03  0.16812131992E+03  0.00000000000E+00 0. -1.
         21   -1    0    0  501  503 -0.00000000000E+00 -0.00000000000E+00 -0.28880608451E+02  0.28880608451E+02  0.00000000000E+00 0.  1.
          2    1    1    2  501    0 -0.13023107987E+02  0.18523837112E+02 -0.23534701654E+02  0.32659088550E+02  0.00000000000E+00 0.  1.
         -2    1    1    2    0  502  0.13023107987E+02 -0.18523837112E+02  0.16277541312E+03  0.16434283982E+03  0.00000000000E+00 0. -1.
</event>
<event>
 4    1  0.1848744E+004  0.2242037E+02  0.7546771E-02  0.1499908E+00
         21   -1    0    0  501  502  0.00000000000E+00  0.00000000000E+00  0.17441262976E+03  0.17441262976E+03  0.00000000000E+00 0. -1.
         21   -1    0    0  502  503 -0.00000000000E+00 -0.00000000000E+00 -0.53179383086E+01  0.53179383086E+01  0.00000000000E+00 0.  1.
          2    1    1    2  501    0 -0.15105706560E+02  0.16567763042E+02  0.14536718910E+03  0.14708600480E+03  0.00000000000E+00 0. -1.
         -2    1    1    2    0  503  0.15105706560E+02 -0.16567763042E+02  0.23727502359E+02  0.32644563271E+02  0.00000000000E+00 0.  1.
</event>
<event>
 4    1  0.1848744E+004  0.2458095E+02  0.7546771E-02  0.1473546E+00
         21   -1    0    0  503  502  0.00000000000E+00  0.00000000000E+00  0.49561016401E+02  0.49561016401E+02  0.00000000000E+00 0.  1.
         21   -1    0    0  501  503 -0.00000000000E+00 -0.00000000000E+00 -0.44317035341E+02  0.44317035341E+02  0.00000000000E+00 0. -1.
          2    1    1    2  501    0 -0.19740238607E+02 -0.14647390565E+02 -0.37342466559E+02  0.44706631268E+02  0.00000000000E+00 0. -1.
         -2    1    1    2    0  502  0.19740238607E+02  0.14647390565E+02  0.42586447619E+02  0.49171420474E+02  0.00000000000E+00 0.  1.
</event>
<event>
 4    1  0.1848744E+004  0.2609736E+02  0.7546771E-02  0.1456892E+00
         21   -1    0    0  501  502  0.00000000000E+00  0.00000000000E+00  0.32711087741E+02  0.32711087741E+02  0.00000000000E+00 0. -1.
         21   -1    0    0  502  503 -0.00000000000E+00 -0.00000000000E+00 -0.35499524789E+02  0.35499524789E+02  0.00000000000E+00 0.  1.
          2    1    1    2  501    0 -0.19975487970E+01 -0.26020802390E+02  0.20536569690E+02  0.33208779756E+02  0.00000000000E+00 0. -1.
         -2    1    1    2    0  503  0.19975487970E+01  0.26020802390E+02 -0.23325006738E+02  0.35001832774E+02  0.00000000000E+00 0.  1.
</event>
<event>
 4    1  0.1848744E+004  0.2214028E+02  0.7546771E-02  0.1503585E+00
         21   -1    0    0  501  502  0.00000000000E+00  0.00000000000E+00  0.86661749996E+02  0.86661749996E+02  0.00000000000E+00 0.  1.
         21   -1    0    0  502  503 -0.00000000000E+00 -0.00000000000E+00 -0.69205732563E+01  0.69205732563E+01  0.00000000000E+00 0. -1.
          2    1    1    2  501    0  0.54950576642E+01 -0.21447524855E+02  0.19872008971E+02  0.29750440697E+02  0.00000000000E+00 0. -1.
         -2    1    1    2    0  503 -0.54950576642E+01  0.21447524855E+02  0.59869167769E+02  0.63831882555E+02  0.00000000000E+00 0.  1.
</event>
<event>
 4    1  0.1848744E+004  0.2505993E+02  0.7546771E-02  0.1468134E+00
         21   -1    0    0  501  502  0.00000000000E+00  0.00000000000E+00  0.45823755633E+02  0.45823755633E+02  0.00000000000E+00 0.  1.
         21   -1    0    0  502  503 -0.00000000000E+00 -0.00000000000E+00 -0.25524696042E+02  0.25524696042E+02  0.00000000000E+00 0. -1.
          2    1    1    2  501    0 -0.23087501806E+02 -0.97451269215E+01  0.34425867377E+02  0.42580988517E+02  0.00000000000E+00 0.  1.
         -2    1    1    2    0  503  0.23087501806E+02  0.97451269215E+01 -0.14126807786E+02  0.28767463159E+02  0.00000000000E+00 0. -1.
</event>
<event>
 4    1  0.1848744E+004  0.2394478E+02  0.7546771E-02  0.1480963E+00
         21   -1    0    0  503  502  0.00000000000E+00  0.00000000000E+00  0.13727179112E+03  0.13727179112E+03  0.00000000000E+00 0.  1.
         21   -1    0    0  501  503 -0.00000000000E+00 -0.00000000000E+00 -0.11194021822E+02  0.11194021822E+02  0.00000000000E+00 0. -1.
          2    1    1    2  501    0 -0.20759157346E+02  0.11933553182E+02  0.42646462605E+01  0.24321585331E+02  0.00000000000E+00 0. -1.
         -2    1    1    2    0  502  0.20759157346E+02 -0.11933553182E+02  0.12181312304E+03  0.12414422761E+03  0.00000000000E+00 0.  1.
</event>
<event>
 4    1  0.1848744E+004  0.2160520E+02  0.7546771E-02  0.1510797E+00
         21   -1    0    0  501  502  0.00000000000E+00  0.00000000000E+00  0.26252892928E+03  0.26252892928E+03  0.00000000000E+00 0.  1.
         21   -1    0    0  502  503 -0.00000000000E+00 -0.00000000000E+00 -0.17796146430E+01  0.17796146430E+01  0.00000000000E+00 0. -1.
          2    1    1    2  501    0  0.18958764649E+02  0.10360983570E+02  0.13431615958E+03  0.13604269720E+03  0.00000000000E+00 0. -1.
         -2    1    1    2    0  503 -0.18958764649E+02 -0.10360983570E+02  0.12643315506E+03  0.12826584672E+03  0.00000000000E+00 0.  1.
</event>
<event>
 4    1  0.1848744E+004  0.2328898E+02  0.7546771E-02  0.1488901E+00
         21   -1    0    0  503  502  0.00000000000E+00  0.00000000000E+00  0.31926437107E+02  0.31926437107E+02  0.00000000000E+00 0.  1.
         21   -1    0    0  501  503 -0.00000000000E+00 -0.00000000000E+00 -0.29640475809E+02  0.29640475809E+02  0.00000000000E+00 0. -1.
          2    1    1    2  501    0  0.16392955020E+02 -0.16542302344E+02 -0.18969097548E+02  0.30036700933E+02  0.00000000000E+00 0. -1.
         -2    1    1    2    0  502 -0.16392955020E+02  0.16542302344E+02  0.21255058846E+02  0.31530211983E+02  0.00000000000E+00 0.  1.
</event>
<event>
 4    1  0.1848744E+004  0.3311162E+02  0.7546771E-02  0.1394348E+00
         21   -1    0    0  501  502  0.00000000000E+00  0.00000000000E+00  0.29582634293E+01  0.29582634293E+01  0.00000000000E+00 0. -1.
         21   -1    0    0  502  503 -0.00000000000E+00 -0.00000000000E+00 -0.25251660749E+04  0.25251660749E+04  0.00000000000E+00 0.  1.
          2    1    1    2  501    0 -0.88747999831E+01 -0.31900110062E+02 -0.93483222163E+02  0.99174048635E+02  0.00000000000E+00 0. -1.
         -2    1    1    2    0  503  0.88747999831E+01  0.31900110062E+02 -0.24287245893E+04  0.24289502897E+04  0.00000000000E+00 0.  1.
</event>
<event>
 4    1  0.1848744E+004  0.2065668E+02  0.7546771E-02  0.1524223E+00
         21   -1    0    0  503  502  0.00000000000E+00  0.00000000000E+00  0.18874153893E+03  0.18874153893E+03  0.00000000000E+00 0.  1.
         21   -1    0    0  501  503 -0.00000000000E+00 -0.00000000000E+00 -0.35015051183E+01  0.35015051183E+01  0.00000000000E+00 0. -1.
          2    1    1    2  501    0  0.19769602876E+02 -0.59884309999E+01  0.35401670567E+02  0.40987519840E+02  0.00000000000E+00 0. -1.
         -2    1    1    2    0  502 -0.19769602876E+02  0.59884309999E+01  0.14983836325E+03  0.15125552421E+03  0.00000000000E+00 0.  1.
</event>
<event>
 4    1  0.1848744E+004  0.2051829E+02  0.7546771E-02  0.1526255E+00
         21   -1    0    0  501  502  0.00000000000E+00  0.00000000000E+00  0.97265266412E+01  0.97265266412E+01  0.00000000000E+00 0. -1.
         21   -1    0    0  502  503 -0.00000000000E+00 -0.00000000000E+00 -0.54836817732E+02  0.54836817732E+02  0.00000000000E+00 0.  1.
          2    1    1    2  501    0  0.18885516727E+02 -0.80210579204E+01 -0.77378343554E+01  0.21928843853E+02  0.00000000000E+00 0. -1.
         -2    1    1    2    0  503 -0.18885516727E+02  0.80210579204E+01 -0.37372456735E+02  0.42634500520E+02  0.00000000000E+00 0.  1.
</event>
<event>
 4    1  0.1848744E+004  0.2227095E+02  0.7546771E-02  0.1501862E+00
         21   -1    0    0  501  502  0.00000000000E+00  0.00000000000E+00  0.46595649296E+01  0.46595649296E+01  0.00000000000E+00 0.  1.
         21   -1    0    0  502  503 -0.00000000000E+00 -0.00000000000E+00 -0.10750824531E+03  0.10750824531E+03  0.00000000000E+00 0. -1.
          2    1    1    2  501    0  0.70118059072E+01 -0.21138344446E+02 -0.56997468153E+02  0.61194006274E+02  0.00000000000E+00 0. -1.
         -2    1    1    2    0  503 -0.70118059072E+01  0.21138344446E+02 -0.45851212229E+02  0.50973803967E+02  0.00000000000E+00 0.  1.
</event>
<event>
 4    1  0.1848744E+004  0.2210333E+02  0.7546771E-02  0.1504075E+00
         21   -1    0    0  501  502  0.00000000000E+00  0.00000000000E+00  0.73350528652E+02  0.73350528652E+02  0.00000000000E+00 0. -1.
         21   -1    0    0  502  503 -0.00000000000E+00 -0.00000000000E+00 -0.66751821733E+01  0.66751821733E+01  0.00000000000E+00 0.  1.
          2    1    1    2  501    0  0.76974300481E+01 -0.20719714138E+02  0.35209187412E+02  0.41572152476E+02  0.00000000000E+00 0.  1.
         -2    1    1    2    0  503 -0.76974300481E+01  0.20719714138E+02  0.31466159066E+02  0.38453558349E+02  0.00000000000E+00 0. -1.
</event>
<event>
 4    1  0.1848744E+004  0.2340831E+02  0.7546771E-02  0.1487434E+00
         21   -1    0    0  501  502  0.00000000000E+00  0.00000000000E+00  0.19926488520E+01  0.19926488520E+01  0.00000000000E+00 0.  1.
         21   -1    0    0  502  503 -0.00000000000E+00 -0.00000000000E+00 -0.27567240257E+03  0.27567240257E+03  0.00000000000E+00 0. -1.
          2    1    1    2  501    0  0.23388058499E+02  0.97340066956E+00 -0.12990783194E+03  0.13199997571E+03  0.00000000000E+00 0. -1.
         -2    1    1    2    0  503 -0.23388058499E+02 -0.97340066956E+00 -0.14377192178E+03  0.14566507571E+03  0.00000000000E+00 0.  1.
</event>
<event>
 4    1  0.1848744E+004  0.2245787E+02  0.7546771E-02  0.1499420E+00
         21   -1    0    0  501  502  0.00000000000E+00  0.00000000000E+00  0.54485841382E+00  0.54485841382E+00  0.00000000000E+00 0. -1.
         21   -1    0    0  502  503 -0.00000000000E+00 -0.00000000000E+00 -0.13390706805E+04  0.13390706805E+04  0.00000000000E+00 0.  1.
          2    1    1    2  501    0 -0.20102908488E+02  0.10011433442E+02 -0.29709642509E+03  0.29794402415E+03  0.00000000000E+00 0. -1.
         -2    1    1    2    0  503  0.20102908488E+02 -0.10011433442E+02 -0.10414293970E+04  0.10416715148E+04  0.00000000000E+00 0.  1.
</event>
<event>
 4    1  0.1848744E+004  0.2864802E+02  0.7546771E-02  0.1431721E+00
         21   -1    0    0  501  502  0.00000000000E+00  0.00000000000E+00  0.63923344903E+01  0.63923344903E+01  0.00000000000E+00 0. -1.
         21   -1    0    0  502  503 -0.00000000000E+00 -0.00000000000E+00 -0.12940541603E+03  0.12940541603E+03  0.00000000000E+00 0.  1.
          2    1    1    2  501    0  0.24682714427E+02 -0.14542102318E+02 -0.55490670457E+02  0.62449368604E+02  0.00000000000E+00 0.  1.
         -2    1    1    2    0  503 -0.24682714427E+02  0.14542102318E+02 -0.67522411082E+02  0.73348381915E+02  0.00000000000E+00 0. -1.
</event>
<event>
 4    1  0.1848744E+004  0.3089412E+02  0.7546771E-02  0.1411982E+00
         21   -1    0    0  503  502  0.00000000000E+00  0.00000000000E+00  0.61110544769E+02  0.61110544769E+02  0.00000000000E+00 0.  1.
         21   -1    0    0  501  503 -0.00000000000E+00 -0.00000000000E+00 -0.44527493378E+02  0.44527493378E+02  0.00000000000E+00 0. -1.
          2    1    1    2  501    0 -0.12124539877E+02  0.28415529328E+02 -0.34267699103E+02  0.46138075123E+02  0.00000000000E+00 0. -1.
         -2    1    1    2    0  502  0.12124539877E+02 -0.28415529328E+02  0.50850750494E+02  0.59499963025E+02  0.00000000000E+00 0.  1.
</event>
<event>
 4    1  0.1848744E+004  0.2042881E+02  0.7546771E-02  0.1527578E+00
         21   -1    0    0  503  502  0.00000000000E+00  0.00000000000E+00  0.11017180634E+02  0.11017180634E+02  0.00000000000E+00 0.  1.
         21   -1    0    0  501  503 -0.00000000000E+00 -0.00000000000E+00 -0.12099509257E+03  0.12099509257E+03  0.00000000000E+00 0. -1.
          2    1    1    2  501    0 -0.63989107562E+01  0.19400782108E+02 -0.10969547147E+03  0.11158150773E+03  0.00000000000E+00 0. -1.
         -2    1    1    2    0  502  0.63989107562E+01 -0.19400782108E+02 -0.28244046158E+00  0.20430765475E+02  0.00000000000E+00 0.  1.
</event>
<event>
 4    1  0.1848744E+004  0.3760433E+02  0.7546771E-02  0.1363127E+00
         21   -1    0    0  501  502  0.00000000000E+00  0.00000000000E+00  0.11032267910E+03  0.11032267910E+03  0.00000000000E+00 0. -1.
         21   -1    0    0  502  503 -0.00000000000E+00 -0.00000000000E+00 -0.27835482991E+02  0.27835482991E+02  0.00000000000E+00 0.  1.
          2    1    1    2  501    0 -0.28725566776E+02 -0.24267819804E+02  0.91983519061E+02  0.99373301462E+02  0.00000000000E+00 0. -1.
         -2    1    1    2    0  503  0.28725566776E+02  0.24267819804E+02 -0.94963229484E+01  0.38784860631E+02  0.00000000000E+00 0.  1.
</event>
<event>
 4    1  0.1848744E+004  0.2951083E+02  0.7546771E-02  0.1423896E+00
         21   -1    0    0  503  502  0.00000000000E+00  0.00000000000E+00  0.15052605740E+01  0.15052605740E+01  0.00000000000E+00 0.  1.
         21   -1    0    0  501  503 -0.00000000000E+00 -0.00000000000E+00 -0.89151234911E+03  0.89151234911E+03  0.00000000000E+00 0. -1.
          2    1    1    2  501    0  0.18926609591E+02  0.22642277839E+02 -0.70955052436E+03  0.71016395002E+03  0.00000000000E+00 0. -1.
         -2    1    1    2    0  502 -0.18926609591E+02 -0.22642277839E+02 -0.18045656418E+03  0.18285365967E+03  0.00000000000E+00 0.  1.
</event>
<event>
 4    1  0.1848744E+004  0.2026613E+02  0.7546771E-02  0.1530006E+00
         21   -1    0    0  503  502  0.00000000000E+00  0.00000000000E+00  0.27755769370E+01  0.27755769370E+01  0.00000000000E+00 0.  1.
         21   -1    0    0  501  503 -0.00000000000E+00 -0.00000000000E+00 -0.16189270893E+03  0.16189270893E+03  0.00000000000E+00 0. -1.
          2    1    1    2  501    0 -0.74658667405E+01 -0.18840826076E+02 -0.10369931733E+03  0.10566108228E+03  0.00000000000E+00 0. -1.
         -2    1    1    2    0  502  0.74658667405E+01  0.18840826076E+02 -0.55417814670E+02  0.59007203596E+02  0.00000000000E+00 0.  1.
</event>
<event>
 4    1  0.1848744E+004  0.3814125E+02  0.7546771E-02  0.1359736E+00
         21   -1    0    0  503  502  0.00000000000E+00  0.00000000000E+00  0.46393052831E+02  0.46393052831E+02  0.00000000000E+00 0. -1.
         21   -1    0    0  501  503 -0.00000000000E+00 -0.00000000000E+00 -0.51139759253E+02  0.51139759253E+02  0.00000000000E+00 0.  1.
          2    1    1    2  501    0 -0.32720288409E+02  0.19599436386E+02 -0.32704085671E+02  0.50242535762E+02  0.00000000000E+00 0.  1.
         -2    1    1    2    0  502  0.32720288409E+02 -0.19599436386E+02  0.27957379249E+02  0.47290276323E+02  0.00000000000E+00 0. -1.
</event>
<event>
 4    1  0.1848744E+004  0.3184514E+02  0.7546771E-02  0.1404212E+00
         21   -1    0    0  503  502  0.00000000000E+00  0.00000000000E+00  0.18539813956E+02  0.18539813956E+02  0.00000000000E+00 0. -1.
         21   -1    0    0  501  503 -0.00000000000E+00 -0.00000000000E+00 -0.55817319844E+02  0.55817319844E+02  0.00000000000E+00 0.  1.
          2    1    1    2  501    0  0.31845113310E+02  0.44511921099E-01 -0.23900741608E+02  0.39816562791E+02  0.00000000000E+00 0. -1.
         -2    1    1    2    0  502 -0.31845113310E+02 -0.44511921099E-01 -0.13376764279E+02  0.34540571009E+02  0.00000000000E+00 0.  1.
</event>
<event>
 4    1  0.1848744E+004  0.2058348E+02  0.7546771E-02  0.1525296E+00
         21   -1    0    0  503  502  0.00000000000E+00  0.00000000000E+00  0.12706995362E+02  0.12706995362E+02  0.00000000000E+00 0. -1.
         21   -1    0    0  501  503 -0.00000000000E+00 -0.00000000000E+00 -0.50429712374E+02  0.50429712374E+02  0.00000000000E+00 0.  1.
          2    1    1    2  501    0 -0.18445768847E+02  0.91341748864E+01 -0.37237221880E+02  0.42547505597E+02  0.00000000000E+00 0.  1.
         -2    1    1    2    0  502  0.18445768847E+02 -0.91341748864E+01 -0.48549513134E+00  0.20589202139E+02  0.00000000000E+00 0. -1.
</event>
<event>
 4    1  0.1848744E+004  0.2001366E+02  0.7546771E-02  0.1533827E+00
         21   -1    0    0  501  502  0.00000000000E+00  0.00000000000E+00  0.47821464455E+02  0.47821464455E+02  0.00000000000E+00 0. -1.
         21   -1    0    0  502  503 -0.00000000000E+00 -0.00000000000E+00 -0.84236064793E+01  0.84236064793E+01  0.00000000000E+00 0.  1.
          2    1    1    2  501    0 -0.12750939489E+01 -0.19973004134E+02  0.17582061839E+02  0.26639738310E+02  0.00000000000E+00 0.  1.
         -2    1    1    2    0  503  0.12750939489E+01  0.19973004134E+02  0.21815796137E+02  0.29605332625E+02  0.00000000000E+00 0. -1.
</event>
<event>
 4    1  0.1848744E+004  0.2304222E+02  0.7546771E-02  0.1491969E+00
         21   -1    0    0  503  502  0.00000000000E+00  0.00000000000E+00  0.11539857962E+03  0.11539857962E+03  0.00000000000E+00 0.  1.
         21   -1    0    0  501  503 -0.00000000000E+00 -0.00000000000E+00 -0.10801515065E+02  0.10801515065E+02  0.00000000000E+00 0. -1.
          2    1    1    2  501    0 -0.17502384422E+01  0.22975655575E+02  0.44903004546E+01  0.23475665738E+02  0.00000000000E+00 0. -1.
         -2    1    1    2    0  502  0.17502384422E+01 -0.22975655575E+02  0.10010676411E+03  0.10272442895E+03  0.00000000000E+00 0.  1.
</event>
<event>
 4    1  0.1848744E+004  0.5821455E+02  0.7546771E-02  0.1266023E+00
         21   -1    0    0  503  502  0.00000000000E+00  0.00000000000E+00  0.36028363023E+02  0.36028363023E+02  0.00000000000E+00 0. -1.
         21   -1    0    0  501  503 -0.00000000000E+00 -0.00000000000E+00 -0.96197986167E+02  0.96197986167E+02  0.00000000000E+00 0.  1.
          2    1    1    2  501    0 -0.57771024507E+02  0.71723696540E+01 -0.39934159968E+02  0.70595122292E+02  0.00000000000E+00 0.  1.
         -2    1    1    2    0  502  0.57771024507E+02 -0.71723696540E+01 -0.20235463176E+02  0.61631226898E+02  0.00000000000E+00 0. -1.
</event>
<event>
 4    1  0.1848744E+004  0.2401148E+02  0.7546771E-02  0.1480173E+00
         21   -1    0    0  501  502  0.00000000000E+00  0.00000000000E+00  0.24370685870E+02  0.24370685870E+02  0.00000000000E+00 0. -1.
         21   -1    0    0  502  503 -0.00000000000E+00 -0.00000000000E+00 -0.23823435071E+02  0.23823435071E+02  0.00000000000E+00 0.  1.
          2    1    1    2  501    0 -0.23063618200E+02 -0.66798698415E+01 -0.17370531332E+01  0.24074228942E+02  0.00000000000E+00 0.  1.
         -2    1    1    2    0  503  0.23063618200E+02  0.66798698415E+01  0.22843039323E+01  0.24119891999E+02  0.00000000000E+00 0. -1.
</event>
<event>
 4    1  0.1848744E+004  0.2023984E+02  0.7546771E-02  0.1530400E+00
         21   -1    0    0  503  502  0.00000000000E+00  0.00000000000E+00  0.15459880746E+03  0.15459880746E+03  0.00000000000E+00 0.  1.
         21   -1    0    0  501  503 -0.00000000000E+00 -0.00000000000E+00 -0.27668585395E+01  0.27668585395E+01  0.00000000000E+00 0. -1.
          2    1    1    2  501    0 -0.25826486285E+01  0.20074390408E+02  0.59729793211E+02  0.63065834024E+02  0.00000000000E+00 0. -1.
         -2    1    1    2    0  502  0.25826486285E+01 -0.20074390408E+02  0.92102155712E+02  0.94299831977E+02  0.00000000000E+00 0.  1.
</event>
<event>
 4    1  0.1848744E+004  0.3396359E+02  0.7546771E-02  0.1387999E+00
         21   -1    0    0  501  502  0.00000000000E+00  0.00000000000E+00  0.42130712883E+02  0.42130712883E+02  0.00000000000E+00 0.  1.
         21   -1    0    0  502  503 -0.00000000000E+00 -0.00000000000E+00 -0.75560834878E+02  0.75560834878E+02  0.00000000000E+00 0. -1.
          2    1    1    2  501    0 -0.71028219477E+01 -0.33212583361E+02  0.30274941872E+02  0.45498328305E+02  0.00000000000E+00 0.  1.
         -2    1    1    2    0  503  0.71028219477E+01  0.33212583361E+02 -0.63705063867E+02  0.72193219456E+02  0.00000000000E+00 0. -1.
</event>
<event>
 4    1  0.1848744E+004  0.2563031E+02  0.7546771E-02  0.1461874E+00
         21   -1    0    0  501  502  0.00000000000E+00  0.00000000000E+00  0.14522176460E+01  0.14522176460E+01  0.00000000000E+00 0. -1.
         21   -1    0    0  502  503 -0.00000000000E+00 -0.00000000000E+00 -0.54384742477E+03  0.54384742477E+03  0.00000000000E+00 0.  1.
          2    1    1    2  501    0  0.98312098378E+01 -0.23669816087E+02 -0.15936524795E+03  0.16141311946E+03  0.00000000000E+00 0. -1.
         -2    1    1    2    0  503 -0.98312098378E+01  0.23669816087E+02 -0.38302995918E+03  0.38388652296E+03  0.00000000000E+00 0.  1.
</event>
<event>
 4    1  0.1848744E+004  0.2001838E+02  0.7546771E-02  0.1533755E+00
         21   -1    0    0  501  502  0.00000000000E+00  0.00000000000E+00  0.19047011977E+01  0.19047011977E+01  0.00000000000E+00 0. -1.
         21   -1    0    0  502  503 -0.00000000000E+00 -0.00000000000E+00 -0.21688702072E+03  0.21688702072E+03  0.00000000000E+00 0.  1.
          2    1    1    2  501    0  0.15012431841E+02  0.13242444874E+02 -0.88561318730E+02  0.90795609097E+02  0.00000000000E+00 0. -1.
         -2    1    1    2    0  503 -0.15012431841E+02 -0.13242444874E+02 -0.12642100079E+03  0.12799611282E+03  0.00000000000E+00 0.  1.
</event>
<event>
 4    1  0.1848744E+004  0.2283500E+02  0.7546771E-02  0.1494580E+00
         21   -1    0    0  503  502  0.00000000000E+00  0.00000000000E+00  0.31648045584E+03  0.31648045584E+03  0.00000000000E+00 0.  1.
         21   -1    0    0  501  503 -0.00000000000E+00 -0.00000000000E+00 -0.54812611079E+01  0.54812611079E+01  0.00000000000E+00 0. -1.
          2    1    1    2  501    0 -0.82312543681E+01 -0.21299854467E+02  0.20870135318E+02  0.30935414931E+02  0.00000000000E+00 0. -1.
         -2    1    1    2    0  502  0.82312543681E+01  0.21299854467E+02  0.29012905942E+03  0.29102630202E+03  0.00000000000E+00 0.  1.
</event>
<event>
 4    1  0.1848744E+004  0.3570359E+02  0.7546771E-02  0.1375683E+00
         21   -1    0    0  503  502  0.00000000000E+00  0.00000000000E+00  0.42062544559E+02  0.42062544559E+02  0.00000000000E+00 0. -1.
         21   -1    0    0  501  503 -0.00000000000E+00 -0.00000000000E+00 -0.45573573589E+02  0.45573573589E+02  0.00000000000E+00 0.  1.
          2    1    1    2  501    0  0.12954272625E+02 -0.33270605548E+02 -0.27117425743E+02  0.44834151622E+02  0.00000000000E+00 0.  1.
         -2    1    1    2    0  502 -0.12954272625E+02  0.33270605548E+02  0.23606396712E+02  0.42801966526E+02  0.00000000000E+00 0. -1.
</event>
<event>
 4    1  0.1848744E+004  0.2172516E+02  0.7546771E-02  0.1509158E+00
         21   -1    0    0  503  502  0.00000000000E+00  0.00000000000E+00  0.85866182463E+02  0.85866182463E+02  0.00000000000E+00 0.  1.
         21   -1    0    0  501  503 -0.00000000000E+00 -0.00000000000E+00 -0.69015746775E+01  0.69015746775E+01  0.00000000000E+00 0. -1.
          2    1    1    2  501    0 -0.21715223382E+02  0.65693838574E+00  0.18555233829E+02  0.28570600222E+02  0.00000000000E+00 0. -1.
         -2    1    1    2    0  502  0.21715223382E+02 -0.65693838574E+00  0.60409373956E+02  0.64197156918E+02  0.00000000000E+00 0.  1.
</event>
<event>
 4    1  0.1848744E+004  0.2034432E+02  0.7546771E-02  0.1528836E+00
         21   -1    0    0  501  502  0.00000000000E+00  0.00000000000E+00  0.24234730022E+01  0.24234730022E+01  0.00000000000E+00 0.  1.
         21   -1    0    0  502  503 -0.00000000000E+00 -0.00000000000E+00 -0.17689639986E+03  0.17689639986E+03  0.00000000000E+00 0. -1.
          2    1    1    2  501    0 -0.18006548278E+02 -0.94686591425E+01 -0.70570439506E+02  0.73444388615E+02  0.00000000000E+00 0. -1.
         -2    1    1    2    0  503  0.18006548278E+02  0.94686591425E+01 -0.10390248735E+03  0.10587548425E+03  0.00000000000E+00 0.  1.
</event>
<event>
 4    1  0.1848744E+004  0.3099302E+02  0.7546771E-02  0.1411159E+00
         21   -1    0    0  501  502  0.00000000000E+00  0.00000000000E+00  0.21807685124E+03  0.21807685124E+03  0.00000000000E+00 0. -1.
         21   -1    0    0  502  503 -0.00000000000E+00 -0.00000000000E+00 -0.48834044412E+01  0.48834044412E+01  0.00000000000E+00 0.  1.
          2    1    1    2  501    0  0.21792402491E+02  0.22037665653E+02  0.14149955583E+03  0.14485403623E+03  0.00000000000E+00 0.  1.
         -2    1    1    2    0  503 -0.21792402491E+02 -0.22037665653E+02  0.71693890969E+02  0.78106219445E+02  0.00000000000E+00 0. -1.
</event>
<event>
 4    1  0.1848744E+004  0.2324089E+02  0.7546771E-02  0.1489495E+00
         21   -1    0    0  503  502  0.00000000000E+00  0.00000000000E+00  0.40844459918E+02  0.40844459918E+02  0.00000000000E+00 0.  1.
         21   -1    0    0  501  503 -0.00000000000E+00 -0.00000000000E+00 -0.20035031929E+02  0.20035031929E+02  0.00000000000E+00 0. -1.
          2    1    1    2  501    0 -0.16495512499E+02 -0.16371830638E+02 -0.73430392221E+01  0.24373325503E+02  0.00000000000E+00 0. -1.
         -2    1    1    2    0  502  0.16495512499E+02  0.16371830638E+02  0.28152467211E+02  0.36506166344E+02  0.00000000000E+00 0.  1.
</event>
<event>
 4    1  0.1848744E+004  0.2204753E+02  0.7546771E-02  0.1504818E+00
         21   -1    0    0  503  502  0.00000000000E+00  0.00000000000E+00  0.42914894068E+02  0.42914894068E+02  0.00000000000E+00 0. -1.
         21   -1    0    0  501  503 -0.00000000000E+00 -0.00000000000E+00 -0.11328295957E+02  0.11328295957E+02  0.00000000000E+00 0.  1.
          2    1    1    2  501    0 -0.17406836492E+02  0.13531289484E+02  0.15494848066E+02  0.26947802662E+02  0.00000000000E+00 0.  1.
         -2    1    1    2    0  502  0.17406836492E+02 -0.13531289484E+02  0.16091750046E+02  0.27295387363E+02  0.00000000000E+00 0. -1.
</event>
<event>
 4    1  0.1848744E+004  0.2158492E+02  0.7546771E-02  0.1511075E+00
         21   -1    0    0  501  502  0.00000000000E+00  0.00000000000E+00  0.58940608952E+01  0.58940608952E+01  0.00000000000E+00 0.  1.
         21   -1    0    0  502  503 -0.00000000000E+00 -0.00000000000E+00 -0.80305959572E+02  0.80305959572E+02  0.00000000000E+00 0. -1.
          2    1    1    2  501    0  0.11919636660E+01  0.21551984182E+02 -0.42602062498E+02  0.47758188080E+02  0.00000000000E+00 0.  1.
         -2    1    1    2    0  503 -0.11919636660E+01 -0.21551984182E+02 -0.31809836178E+02  0.38441832387E+02  0.00000000000E+00 0. -1.
</event>
<event>
 4    1  0.1848744E+004  0.2025863E+02  0.7546771E-02  0.1530118E+00
         21   -1    0    0  503  502  0.00000000000E+00  0.00000000000E+00  0.30200142134E+02  0.30200142134E+02  0.00000000000E+00 0.  1.
         21   -1    0    0  501  503 -0.00000000000E+00 -0.00000000000E+00 -0.20636000372E+02  0.20636000372E+02  0.00000000000E+00 0. -1.
          2    1    1    2  501    0 -0.16996843895E+02  0.11023588906E+02 -0.10070753119E+02  0.22623710641E+02  0.00000000000E+00 0. -1.
         -2    1    1    2    0  502  0.16996843895E+02 -0.11023588906E+02  0.19634894881E+02  0.28212431865E+02  0.00000000000E+00 0.  1.
</event>
<event>
 4    1  0.1848744E+004  0.2236164E+02  0.7546771E-02  0.1500674E+00
         21   -1    0    0  501  502  0.00000000000E+00  0.00000000000E+00  0.10390682067E+01  0.10390682067E+01  0.00000000000E+00 0.  1.
         21   -1    0    0  502  503 -0.00000000000E+00 -0.00000000000E+00 -0.48608088398E+03  0.48608088398E+03  0.00000000000E+00 0. -1.
          2    1    1    2  501    0  0.20016067686E+02  0.99699459198E+01 -0.26682306112E+03  0.26775845222E+03  0.00000000000E+00 0. -1.
         -2    1    1    2    0  503 -0.20016067686E+02 -0.99699459198E+01 -0.21821875465E+03  0.21936149997E+03  0.00000000000E+00 0.  1.
</event>
<event>
 4    1  0.1848744E+004  0.2066528E+02  0.7546771E-02  0.1524098E+00
         21   -1    0    0  501  502  0.00000000000E+00  0.00000000000E+00  0.66711363131E+01  0.66711363131E+01  0.00000000000E+00 0.  1.
         21   -1    0    0  502  503 -0.00000000000E+00 -0.00000000000E+00 -0.72835305818E+02  0.72835305818E+02  0.00000000000E+00 0. -1.
          2    1    1    2  501    0 -0.22122956517E+01  0.20546522091E+02 -0.19248352475E+02  0.28240979004E+02  0.00000000000E+00 0.  1.
         -2    1    1    2    0  503  0.22122956517E+01 -0.20546522091E+02 -0.46915817030E+02  0.51265463128E+02  0.00000000000E+00 0. -1.
</event>
<event>
 4    1  0.1848744E+004  0.2141452E+02  0.7546771E-02  0.1513428E+00
         21   -1    0    0  501  502  0.00000000000E+00  0.00000000000E+00  0.20915189501E+03  0.20915189501E+03  0.00000000000E+00 0. -1.
         21   -1    0    0  502  503 -0.00000000000E+00 -0.00000000000E+00 -0.37761020913E+01  0.37761020913E+01  0.00000000000E+00 0.  1.
          2    1    1    2  501    0 -0.13724376691E+02 -0.16438470209E+02  0.17163138639E+03  0.17296217682E+03  0.00000000000E+00 0. -1.
         -2    1    1    2    0  503  0.13724376691E+02  0.16438470209E+02  0.33744406535E+02  0.39965820281E+02  0.00000000000E+00 0.  1.
</event>
<event>
 4    1  0.1848744E+004  0.2715979E+02  0.7546771E-02  0.1446010E+00
         21   -1    0    0  503  502  0.00000000000E+00  0.00000000000E+00  0.56365556858E+01  0.56365556858E+01  0.00000000000E+00 0. -1.
         21   -1    0    0  501  503 -0.00000000000E+00 -0.00000000000E+00 -0.16663532849E+03  0.16663532849E+03  0.00000000000E+00 0.  1.
          2    1    1    2  501    0  0.16085003184E+02  0.21884396739E+02 -0.12040500220E+03  0.12343021795E+03  0.00000000000E+00 0. -1.
         -2    1    1    2    0  502 -0.16085003184E+02 -0.21884396739E+02 -0.40593770609E+02  0.48841666232E+02  0.00000000000E+00 0.  1.
</event>
<event>
 4    1  0.1848744E+004  0.2341852E+02  0.7546771E-02  0.1487309E+00
         21   -1    0    0  501  502  0.00000000000E+00  0.00000000000E+00  0.15221873686E+01  0.15221873686E+01  0.00000000000E+00 0. -1.
         21   -1    0    0  502  503 -0.00000000000E+00 -0.00000000000E+00 -0.44825125705E+03  0.44825125705E+03  0.00000000000E+00 0.  1.
          2    1    1    2  501    0 -0.23410503271E+02 -0.61278391026E+00 -0.12374338303E+03  0.12593987458E+03  0.00000000000E+00 0. -1.
         -2    1    1    2    0  503  0.23410503271E+02  0.61278391026E+00 -0.32298568665E+03  0.32383356983E+03  0.00000000000E+00 0.  1.
</event>
<event>
 4    1  0.1848744E+004  0.2159276E+02  0.7546771E-02  0.1510968E+00
         21   -1    0    0  501  502  0.00000000000E+00  0.00000000000E+00  0.46442797661E+03  0.46442797661E+03  0.00000000000E+00 0.  1.
         21   -1    0    0  502  503 -0.00000000000E+00 -0.00000000000E+00 -0.13553712702E+01  0.13553712702E+01  0.00000000000E+00 0. -1.
          2    1    1    2  501    0  0.15797667717E+02  0.14720084016E+02  0.35012933850E+03  0.35079452798E+03  0.00000000000E+00 0.  1.
         -2    1    1    2    0  503 -0.15797667717E+02 -0.14720084016E+02  0.11294326684E+03  0.11498881990E+03  0.00000000000E+00 0. -1.
</event>
<event>
 4    1  0.1848744E+004  0.2047125E+02  0.7546771E-02  0.1526950E+00
         21   -1    0    0  503  502  0.00000000000E+00  0.00000000000E+00  0.96089355830E+01  0.96089355830E+01  0.00000000000E+00 0.  1.
         21   -1    0    0  501  503 -0.00000000000E+00 -0.00000000000E+00 -0.44613203723E+02  0.44613203723E+02  0.00000000000E+00 0. -1.
          2    1    1    2  501    0 -0.64767869047E+01  0.19419666797E+02 -0.21561990715E+02  0.29731997422E+02  0.00000000000E+00 0. -1.
         -2    1    1    2    0  502  0.64767869047E+01 -0.19419666797E+02 -0.13442277425E+02  0.24490141884E+02  0.00000000000E+00 0.  1.
</event>
<event>
 4    1  0.1848744E+004  0.2007048E+02  0.7546771E-02  0.1532961E+00
         21   -1    0    0  501  502  0.00000000000E+00  0.00000000000E+00  0.16164400066E+03  0.16164400066E+03  0.00000000000E+00 0. -1.
         21   -1    0    0  502  503 -0.00000000000E+00 -0.00000000000E+00 -0.50167611987E+02  0.50167611987E+02  0.00000000000E+00 0.  1.
          2    1    1    2  501    0  0.74514402338E+01  0.18635996994E+02  0.15898009323E+03  0.16024198698E+03  0.00000000000E+00 0. -1.
         -2    1    1    2    0  503 -0.74514402338E+01 -0.18635996994E+02 -0.47503704557E+02  0.51569625674E+02  0.00000000000E+00 0.  1.
</event>
<event>
 4    1  0.1848744E+004  0.2072331E+02  0.7546771E-02  0.1523252E+00
         21   -1    0    0  503  502  0.00000000000E+00  0.00000000000E+00  0.59157363253E+01  0.59157363253E+01  0.00000000000E+00 0. -1.
         21   -1    0    0  501  503 -0.00000000000E+00 -0.00000000000E+00 -0.74415777737E+02  0.74415777737E+02  0.00000000000E+00 0.  1.
          2    1    1    2  501    0 -0.17556875670E+02 -0.11009626880E+02 -0.27968082414E+02  0.34809041947E+02  0.00000000000E+00 0.  1.
         -2    1    1    2    0  502  0.17556875670E+02  0.11009626880E+02 -0.40531958997E+02  0.45522472115E+02  0.00000000000E+00 0. -1.
</event>
<event>
 4    1  0.1848744E+004  0.2115864E+02  0.7546771E-02  0.1517012E+00
         21   -1    0    0  501  502  0.00000000000E+00  0.00000000000E+00  0.42458255006E+01  0.42458255006E+01  0.00000000000E+00 0. -1.
         21   -1    0    0  502  503 -0.00000000000E+00 -0.00000000000E+00 -0.29663837162E+03  0.29663837162E+03  0.00000000000E+00 0.  1.
          2    1    1    2  501    0 -0.20906338108E+02  0.32577409246E+01 -0.25416093442E+02  0.33070616185E+02  0.00000000000E+00 0. -1.
         -2    1    1    2    0  503  0.20906338108E+02 -0.32577409246E+01 -0.26697645268E+03  0.26781358093E+03  0.00000000000E+00 0.  1.
</event>
<event>
 4    1  0.1848744E+004  0.2358587E+02  0.7546771E-02  0.1485270E+00
         21   -1    0    0  501  502  0.00000000000E+00  0.00000000000E+00  0.47249664876E+02  0.47249664876E+02  0.00000000000E+00 0.  1.
         21   -1    0    0  502  503 -0.00000000000E+00 -0.00000000000E+00 -0.34215066708E+02  0.34215066708E+02  0.00000000000E+00 0. -1.
          2    1    1    2  501    0  0.13355183227E+02  0.19440479606E+02  0.39505427951E+02  0.46010564047E+02  0.00000000000E+00 0.  1.
         -2    1    1    2    0  503 -0.13355183227E+02 -0.19440479606E+02 -0.26470829783E+02  0.35454167537E+02  0.00000000000E+00 0. -1.
</event>
<event>
 4    1  0.1848744E+004  0.3933442E+02  0.7546771E-02  0.1352431E+00
         21   -1    0    0  501  502  0.00000000000E+00  0.00000000000E+00  0.37398460476E+03  0.37398460476E+03  0.00000000000E+00 0. -1.
         21   -1    0    0  502  503 -0.00000000000E+00 -0.00000000000E+00 -0.10804731630E+02  0.10804731630E+02  0.00000000000E+00 0.  1.
          2    1    1    2  501    0 -0.13401839029E+02 -0.36980902118E+02  0.33272776272E+03  0.33504471418E+03  0.00000000000E+00 0. -1.
         -2    1    1    2    0  503  0.13401839029E+02  0.36980902118E+02  0.30452110402E+02  0.49744622209E+02  0.00000000000E+00 0.  1.
</event>
<event>
 4    1  0.1848744E+004  0.3433616E+02  0.7546771E-02  0.1385291E+00
         21   -1    0    0  503  502  0.00000000000E+00  0.00000000000E+00  0.63917084382E+03  0.63917084382E+03  0.00000000000E+00 0.  1.
         21   -1    0    0  501  503 -0.00000000000E+00 -0.00000000000E+00 -0.21879333045E+01  0.21879333045E+01  0.00000000000E+00 0. -1.
          2    1    1    2  501    0  0.31813872567E+02  0.12917020636E+02  0.19144745745E+03  0.19450218733E+03  0.00000000000E+00 0.  1.
         -2    1    1    2    0  502 -0.31813872567E+02 -0.12917020636E+02  0.44553545306E+03  0.44685658980E+03  0.00000000000E+00 0. -1.
</event>
<event>
 4    1  0.1848744E+004  0.3058470E+02  0.7546771E-02  0.1414582E+00
         21   -1    0    0  501  502  0.00000000000E+00  0.00000000000E+00  0.29302832311E+03  0.29302832311E+03  0.00000000000E+00 0. -1.
         21   -1    0    0  502  503 -0.00000000000E+00 -0.00000000000E+00 -0.37294336465E+01  0.37294336465E+01  0.00000000000E+00 0.  1.
          2    1    1    2  501    0  0.11849832517E+02  0.28195842050E+02  0.20096209891E+03  0.20327614036E+03  0.00000000000E+00 0.  1.
         -2    1    1    2    0  503 -0.11849832517E+02 -0.28195842050E+02  0.88336790550E+02  0.93481616397E+02  0.00000000000E+00 0. -1.
</event>
<event>
 4    1  0.1848744E+004  0.2101348E+02  0.7546771E-02  0.1519072E+00
         21   -1    0    0  501  502  0.00000000000E+00  0.00000000000E+00  0.54295196239E+01  0.54295196239E+01  0.00000000000E+00 0. -1.
         21   -1    0    0  502  503 -0.00000000000E+00 -0.00000000000E+00 -0.16079954383E+03  0.16079954383E+03  0.00000000000E+00 0.  1.
          2    1    1    2  501    0  0.20148279928E+02  0.59676613261E+01 -0.19254014250E+02  0.28500582986E+02  0.00000000000E+00 0. -1.
         -2    1    1    2    0  503 -0.20148279928E+02 -0.59676613261E+01 -0.13611600995E+03  0.13772848047E+03  0.00000000000E+00 0.  1.
</event>
<event>
 4    1  0.1848744E+004  0.2788691E+02  0.7546771E-02  0.1438897E+00
         21   -1    0    0  501  502  0.00000000000E+00  0.00000000000E+00  0.11114388565E+03  0.11114388565E+03  0.00000000000E+00 0. -1.
         21   -1    0    0  502  503 -0.00000000000E+00 -0.00000000000E+00 -0.97367453802E+01  0.97367453802E+01  0.00000000000E+00 0.  1.
          2    1    1    2  501    0 -0.27846873818E+02  0.14937439044E+01  0.82764101913E+02  0.87335996117E+02  0.00000000000E+00 0. -1.
         -2    1    1    2    0  503  0.27846873818E+02 -0.14937439044E+01  0.18643038357E+02  0.33544634914E+02  0.00000000000E+00 0.  1.
</event>
<event>
 4    1  0.1848744E+004  0.2655733E+02  0.7546771E-02  0.1452106E+00
         21   -1    0    0  503  502  0.00000000000E+00  0.00000000000E+00  0.37189473353E+02  0.37189473353E+02  0.00000000000E+00 0. -1.
         21   -1    0    0  501  503 -0.00000000000E+00 -0.00000000000E+00 -0.20775581947E+02  0.20775581947E+02  0.00000000000E+00 0.  1.
          2    1    1    2  501    0 -0.63486730267E+01  0.25787325702E+02 -0.34943032562E+00  0.26559629471E+02  0.00000000000E+00 0.  1.
         -2    1    1    2    0  502  0.63486730267E+01 -0.25787325702E+02  0.16763321731E+02  0.31405425829E+02  0.00000000000E+00 0. -1.
</event>
<event>
 4    1  0.1848744E+004  0.2614892E+02  0.7546771E-02  0.1456350E+00
         21   -1    0    0  503  502  0.00000000000E+00  0.00000000000E+00  0.37896344393E+03  0.37896344393E+03  0.00000000000E+00 0.  1.
         21   -1    0    0  501  503 -0.00000000000E+00 -0.00000000000E+00 -0.36950032650E+01  0.36950032650E+01  0.00000000000E+00 0. -1.
          2    1    1    2  501    0  0.24096341389E+02  0.10155403720E+02  0.50771574646E+02  0.57109707451E+02  0.00000000000E+00 0. -1.
         -2    1    1    2    0  502 -0.24096341389E+02 -0.10155403720E+02  0.32449686601E+03  0.32554873974E+03  0.00000000000E+00 0.  1.
</event>
<event>
 4    1  0.1848744E+004  0.2051501E+02  0.7546771E-02  0.1526303E+00
         21   -1    0    0  501  502  0.00000000000E+00  0.00000000000E+00  0.96543134024E+01  0.96543134024E+01  0.00000000000E+00 0. -1.
         21   -1    0    0  502  503 -0.00000000000E+00 -0.00000000000E+00 -0.73112383885E+02  0.73112383885E+02  0.00000000000E+00 0.  1.
          2    1    1    2  501    0  0.44882517341E+01  0.20018023559E+02 -0.54336311038E+01  0.21222394252E+02  0.00000000000E+00 0. -1.
         -2    1    1    2    0  503 -0.44882517341E+01 -0.20018023559E+02 -0.58024439379E+02  0.61544303035E+02  0.00000000000E+00 0.  1.
</event>
<event>
 4    1  0.1848744E+004  0.3206757E+02  0.7546771E-02  0.1402441E+00
         21   -1    0    0  503  502  0.00000000000E+00  0.00000000000E+00  0.42210499537E+03  0.42210499537E+03  0.00000000000E+00 0. -1.
         21   -1    0    0  501  503 -0.00000000000E+00 -0.00000000000E+00 -0.24485430326E+01  0.24485430326E+01  0.00000000000E+00 0.  1.
          2    1    1    2  501    0 -0.18789482022E+02  0.25986240802E+02  0.22490394538E+03  0.22717859493E+03  0.00000000000E+00 0.  1.
         -2    1    1    2    0  502  0.18789482022E+02 -0.25986240802E+02  0.19475250696E+03  0.19737494348E+03  0.00000000000E+00 0. -1.
</event>
<event>
 4    1  0.1848744E+004  0.2184567E+02  0.7546771E-02  0.1507525E+00
         21   -1    0    0  503  502  0.00000000000E+00  0.00000000000E+00  0.13505421204E+02  0.13505421204E+02  0.00000000000E+00 0. -1.
         21   -1    0    0  501  503 -0.00000000000E+00 -0.00000000000E+00 -0.68129870740E+02  0.68129870740E+02  0.00000000000E+00 0.  1.
          2    1    1    2  501    0  0.62013906380E+01 -0.20946981176E+02 -0.55630885884E+02  0.59766451546E+02  0.00000000000E+00 0.  1.
         -2    1    1    2    0  502 -0.62013906380E+01  0.20946981176E+02  0.10064363483E+01  0.21868840398E+02  0.00000000000E+00 0. -1.
</event>
<event>
 4    1  0.1848744E+004  0.2274241E+02  0.7546771E-02  0.1495758E+00
         21   -1    0    0  501  502  0.00000000000E+00  0.00000000000E+00  0.11942548043E+02  0.11942548043E+02  0.00000000000E+00 0.  1.
         21   -1    0    0  502  503 -0.00000000000E+00 -0.00000000000E+00 -0.10123322826E+03  0.10123322826E+03  0.00000000000E+00 0. -1.
          2    1    1    2  501    0  0.86902925529E+01  0.21016569253E+02 -0.18405039584E+01  0.22816766262E+02  0.00000000000E+00 0.  1.
         -2    1    1    2    0  503 -0.86902925529E+01 -0.21016569253E+02 -0.87450176258E+02  0.90359010040E+02  0.00000000000E+00 0. -1.
</event>
<event>
 4    1  0.1848744E+004  0.2069219E+02  0.7546771E-02  0.1523705E+00
         21   -1    0    0  503  502  0.00000000000E+00  0.00000000000E+00  0.99637848987E+00  0.99637848987E+00  0.00000000000E+00 0.  1.
         21   -1    0    0  501  503 -0.00000000000E+00 -0.00000000000E+00 -0.44625012811E+03  0.44625012811E+03  0.00000000000E+00 0. -1.
          2    1    1    2  501    0  0.19488485920E+02  0.69545372945E+01 -0.17959130532E+03  0.18077943362E+03  0.00000000000E+00 0.  1.
         -2    1    1    2    0  502 -0.19488485920E+02 -0.69545372945E+01 -0.26566244430E+03  0.26646707298E+03  0.00000000000E+00 0. -1.
</event>
<event>
 4    1  0.1848744E+004  0.2390661E+02  0.7546771E-02  0.1481417E+00
         21   -1    0    0  501  502  0.00000000000E+00  0.00000000000E+00  0.17661826761E+01  0.17661826761E+01  0.00000000000E+00 0.  1.
         21   -1    0    0  502  503 -0.00000000000E+00 -0.00000000000E+00 -0.82642738462E+03  0.82642738462E+03  0.00000000000E+00 0. -1.
          2    1    1    2  501    0 -0.22303632209E+02  0.86066256533E+01 -0.89323861067E+02  0.92467714208E+02  0.00000000000E+00 0.  1.
         -2    1    1    2    0  503  0.22303632209E+02 -0.86066256533E+01 -0.73533734088E+03  0.73572585309E+03  0.00000000000E+00 0. -1.
</event>
<event>
 4    1  0.1848744E+004  0.2306172E+02  0.7546771E-02  0.1491725E+00
         21   -1    0    0  501  502  0.00000000000E+00  0.00000000000E+00  0.15625728224E+03  0.15625728224E+03  0.00000000000E+00 0.  1.
         21   -1    0    0  502  503 -0.00000000000E+00 -0.00000000000E+00 -0.27579460275E+02  0.27579460275E+02  0.00000000000E+00 0. -1.
          2    1    1    2  501    0 -0.16637685840E+02  0.15969670772E+02  0.15039866102E+03  0.15215649908E+03  0.00000000000E+00 0.  1.
         -2    1    1    2    0  503  0.16637685840E+02 -0.15969670772E+02 -0.21720839058E+02  0.31680243435E+02  0.00000000000E+00 0. -1.
</event>
<event>
 4    1  0.1848744E+004  0.2359437E+02  0.7546771E-02  0.1485166E+00
         21   -1    0    0  503  502  0.00000000000E+00  0.00000000000E+00  0.38649651978E+02  0.38649651978E+02  0.00000000000E+00 0. -1.
         21   -1    0    0  501  503 -0.00000000000E+00 -0.00000000000E+00 -0.15680639307E+02  0.15680639307E+02  0.00000000000E+00 0.  1.
          2    1    1    2  501    0 -0.11013637462E+02  0.20866099438E+02  0.37321905054E+01  0.23887728269E+02  0.00000000000E+00 0.  1.
         -2    1    1    2    0  502  0.11013637462E+02 -0.20866099438E+02  0.19236822166E+02  0.30442563016E+02  0.00000000000E+00 0. -1.
</event>
<event>
 4    1  0.1848744E+004  0.2697020E+02  0.7546771E-02  0.1447908E+00
         21   -1    0    0  501  502  0.00000000000E+00  0.00000000000E+00  0.18371943402E+02  0.18371943402E+02  0.00000000000E+00 0. -1.
         21   -1    0    0  502  503 -0.00000000000E+00 -0.00000000000E+00 -0.19229632149E+03  0.19229632149E+03  0.00000000000E+00 0.  1.
          2    1    1    2  501    0 -0.67540507600E+01 -0.26110812379E+02  0.69038613043E+01  0.27839810087E+02  0.00000000000E+00 0. -1.
         -2    1    1    2    0  503  0.67540507600E+01  0.26110812379E+02 -0.18082823939E+03  0.18282845481E+03  0.00000000000E+00 0.  1.
</event>
<event>
 4    1  0.1848744E+004  0.3593623E+02  0.7546771E-02  0.1374098E+00
         21   -1    0    0  503  502  0.00000000000E+00  0.00000000000E+00  0.37476869815E+02  0.37476869815E+02  0.00000000000E+00 0. -1.
         21   -1    0    0  501  503 -0.00000000000E+00 -0.00000000000E+00 -0.66868793087E+02  0.66868793087E+02  0.00000000000E+00 0.  1.
          2    1    1    2  501    0 -0.34210812190E+02 -0.11001509557E+02 -0.51018087060E+02  0.62403990982E+02  0.00000000000E+00 0.  1.
         -2    1    1    2    0  502  0.34210812190E+02  0.11001509557E+02  0.21626163787E+02  0.41941671920E+02  0.00000000000E+00 0. -1.
</event>
<event>
 4    1  0.1848744E+004  0.1208840E+03  0.7546771E-02  0.1131856E+00
         21   -1    0    0  501  502  0.00000000000E+00  0.00000000000E+00  0.84575152185E+02  0.84575152185E+02  0.00000000000E+00 0.  1.
         21   -1    0    0  502  503 -0.00000000000E+00 -0.00000000000E+00 -0.24188015228E+03  0.24188015228E+03  0.00000000000E+00 0. -1.
          2    1    1    2  501    0  0.11494582965E+03  0.37421926616E+02  0.85906380349E+01  0.12118887493E+03  0.00000000000E+00 0.  1.
         -2    1    1    2    0  503 -0.11494582965E+03 -0.37421926616E+02 -0.16589563813E+03  0.20526642954E+03  0.00000000000E+00 0. -1.
</event>
<event>
 4    1  0.1848744E+004  0.3629077E+02  0.7546771E-02  0.1371709E+00
         21   -1    0    0  501  502  0.00000000000E+00  0.00000000000E+00  0.60305147195E+02  0.60305147195E+02  0.00000000000E+00 0. -1.
         21   -1    0    0  502  503 -0.00000000000E+00 -0.00000000000E+00 -0.22599807959E+02  0.22599807959E+02  0.00000000000E+00 0.  1.
          2    1    1    2  501    0  0.23450883128E+02  0.27696140642E+02  0.26456979839E+02  0.44910933058E+02  0.00000000000E+00 0. -1.
         -2    1    1    2    0  503 -0.23450883128E+02 -0.27696140642E+02  0.11248359397E+02  0.37994022096E+02  0.00000000000E+00 0.  1.
</event>
<event>
 4    1  0.1848744E+004  0.2271642E+02  0.7546771E-02  0.1496090E+00
         21   -1    0    0  501  502  0.00000000000E+00  0.00000000000E+00  0.83340017849E+01  0.83340017849E+01  0.00000000000E+00 0.  1.
         21   -1    0    0  502  503 -0.00000000000E+00 -0.00000000000E+00 -0.66740997743E+02  0.66740997743E+02  0.00000000000E+00 0. -1.
          2    1    1    2  501    0 -0.19915477006E+02  0.10927462796E+02 -0.19114027185E+02  0.29688073409E+02  0.00000000000E+00 0. -1.
         -2    1    1    2    0  503  0.19915477006E+02 -0.10927462796E+02 -0.39292968774E+02  0.45386926119E+02  0.00000000000E+00 0.  1.
</event>
<event>
 4    1  0.1848744E+004  0.2403091E+02  0.7546771E-02  0.1479943E+00
         21   -1    0    0  503  502  0.00000000000E+00  0.00000000000E+00  0.13444518286E+02  0.13444518286E+02  0.00000000000E+00 0.  1.
         21   -1    0    0  501  503 -0.00000000000E+00 -0.00000000000E+00 -0.54015339975E+02  0.54015339975E+02  0.00000000000E+00 0. -1.
          2    1    1    2  501    0  0.18269519846E+02 -0.15611183470E+02 -0.35549729953E+02  0.42909995391E+02  0.00000000000E+00 0. -1.
         -2    1    1    2    0  502 -0.18269519846E+02  0.15611183470E+02 -0.50210917360E+01  0.24549862870E+02  0.00000000000E+00 0.  1.
</event>
<event>
 4    1  0.1848744E+004  0.2115220E+02  0.7546771E-02  0.1517103E+00
         21   -1    0    0  503  502  0.00000000000E+00  0.00000000000E+00  0.54272022775E+00  0.54272022775E+00  0.00000000000E+00 0. -1.
         21   -1    0    0  501  503 -0.00000000000E+00 -0.00000000000E+00 -0.12267021224E+04  0.12267021224E+04  0.00000000000E+00 0.  1.
          2    1    1    2  501    0  0.18590751308E+02 -0.10089577087E+02 -0.96448698822E+03  0.96471890520E+03  0.00000000000E+00 0. -1.
         -2    1    1    2    0  502 -0.18590751308E+02  0.10089577087E+02 -0.26167241397E+03  0.26252593744E+03  0.00000000000E+00 0.  1.
</event>
<event>
 4    1  0.1848744E+004  0.2739779E+02  0.7546771E-02  0.1443653E+00
         21   -1    0    0  503  502  0.00000000000E+00  0.00000000000E+00  0.37503706073E+01  0.37503706073E+01  0.00000000000E+00 0.  1.
         21   -1    0    0  501  503 -0.00000000000E+00 -0.00000000000E+00 -0.20058326824E+03  0.20058326824E+03  0.00000000000E+00 0. -1.
          2    1    1    2  501    0 -0.23437513255E+02  0.14188798323E+02 -0.10316134699E+03  0.10673754043E+03  0.00000000000E+00 0. -1.
         -2    1    1    2    0  502  0.23437513255E+02 -0.14188798323E+02 -0.93671550646E+02  0.97596098415E+02  0.00000000000E+00 0.  1.
</event>
<event>
 4    1  0.1848744E+004  0.2562154E+02  0.7546771E-02  0.1461969E+00
         21   -1    0    0  501  502  0.00000000000E+00  0.00000000000E+00  0.18417138679E+02  0.18417138679E+02  0.00000000000E+00 0. -1.
         21   -1    0    0  502  503 -0.00000000000E+00 -0.00000000000E+00 -0.56865140775E+02  0.56865140775E+02  0.00000000000E+00 0.  1.
          2    1    1    2  501    0  0.24718039356E+02 -0.67440067006E+01  0.37704275190E+01  0.25897475160E+02  0.00000000000E+00 0. -1.
         -2    1    1    2    0  503 -0.24718039356E+02  0.67440067006E+01 -0.42218429616E+02  0.49384804294E+02  0.00000000000E+00 0.  1.
</event>
<event>
 4    1  0.1848744E+004  0.3481424E+02  0.7546771E-02  0.1381874E+00
         21   -1    0    0  501  502  0.00000000000E+00  0.00000000000E+00  0.19261410747E+02  0.19261410747E+02  0.00000000000E+00 0.  1.
         21   -1    0    0  502  503 -0.00000000000E+00 -0.00000000000E+00 -0.64197028273E+02  0.64197028273E+02  0.00000000000E+00 0. -1.
          2    1    1    2  501    0  0.10004765495E+02 -0.33345700954E+02 -0.28340952226E+02  0.44891432121E+02  0.00000000000E+00 0.  1.
         -2    1    1    2    0  503 -0.10004765495E+02  0.33345700954E+02 -0.16594665300E+02  0.38567006899E+02  0.00000000000E+00 0. -1.
</event>
<event>
 4    1  0.1848744E+004  0.2108730E+02  0.7546771E-02  0.1518022E+00
         21   -1    0    0  501  502  0.00000000000E+00  0.00000000000E+00  0.91515108963E+01  0.91515108963E+01  0.00000000000E+00 0. -1.
         21   -1    0    0  502  503 -0.00000000000E+00 -0.00000000000E+00 -0.50019822007E+02  0.50019822007E+02  0.00000000000E+00 0.  1.
          2    1    1    2  501    0  0.21080788360E+02  0.52404122473E+00 -0.25435795151E+02  0.33040186622E+02  0.00000000000E+00 0. -1.
         -2    1    1    2    0  503 -0.21080788360E+02 -0.52404122473E+00 -0.15432515959E+02  0.26131146280E+02  0.00000000000E+00 0.  1.
</event>
<event>
 4    1  0.1848744E+004  0.2112456E+02  0.7546771E-02  0.1517494E+00
         21   -1    0    0  503  502  0.00000000000E+00  0.00000000000E+00  0.29143407180E+03  0.29143407180E+03  0.00000000000E+00 0. -1.
         21   -1    0    0  501  503 -0.00000000000E+00 -0.00000000000E+00 -0.12124531189E+02  0.12124531189E+02  0.00000000000E+00 0.  1.
          2    1    1    2  501    0 -0.15025438820E+02 -0.14848672814E+02 -0.22170474482E+01  0.21240578981E+02  0.00000000000E+00 0.  1.
         -2    1    1    2    0  502  0.15025438820E+02  0.14848672814E+02  0.28152658806E+03  0.28231802401E+03  0.00000000000E+00 0. -1.
</event>
<event>
 4    1  0.1848744E+004  0.2609167E+02  0.7546771E-02  0.1456952E+00
         21   -1    0    0  501  502  0.00000000000E+00  0.00000000000E+00  0.18278331998E+03  0.18278331998E+03  0.00000000000E+00 0. -1.
         21   -1    0    0  502  503 -0.00000000000E+00 -0.00000000000E+00 -0.37338124670E+01  0.37338124670E+01  0.00000000000E+00 0.  1.
          2    1    1    2  501    0 -0.16875734010E+02  0.19899368088E+02  0.94183845674E+02  0.97731121116E+02  0.00000000000E+00 0. -1.
         -2    1    1    2    0  503  0.16875734010E+02 -0.19899368088E+02  0.84865661836E+02  0.88786011328E+02  0.00000000000E+00 0.  1.
</event>
<event>
 4    1  0.1848744E+004  0.2006138E+02  0.7546771E-02  0.1533099E+00
         21   -1    0    0  503  502  0.00000000000E+00  0.00000000000E+00  0.23702636785E+02  0.23702636785E+02  0.00000000000E+00 0. -1.
         21   -1    0    0  501  503 -0.00000000000E+00 -0.00000000000E+00 -0.26747272946E+02  0.26747272946E+02  0.00000000000E+00 0.  1.
          2    1    1    2  501    0  0.18542719757E+02 -0.76568025735E+01 -0.16765943577E+02  0.26144902862E+02  0.00000000000E+00 0.  1.
         -2    1    1    2    0  502 -0.18542719757E+02  0.76568025735E+01  0.13721307416E+02  0.24305006868E+02  0.00000000000E+00 0. -1.
</event>
<event>
 4    1  0.1848744E+004  0.2128858E+03  0.7546771E-02  0.1046359E+00
         21   -1    0    0  501  502  0.00000000000E+00  0.00000000000E+00  0.23149892579E+03  0.23149892579E+03  0.00000000000E+00 0. -1.
         21   -1    0    0  502  503 -0.00000000000E+00 -0.00000000000E+00 -0.31506642441E+03  0.31506642441E+03  0.00000000000E+00 0.  1.
          2    1    1    2  501    0 -0.26930718855E+02 -0.21117549403E+03  0.12637762955E+03  0.24757152127E+03  0.00000000000E+00 0. -1.
         -2    1    1    2    0  503  0.26930718855E+02  0.21117549403E+03 -0.20994512817E+03  0.29899382893E+03  0.00000000000E+00 0.  1.
</event>
<event>
 4    1  0.1848744E+004  0.3736591E+02  0.7546771E-02  0.1364653E+00
         21   -1    0    0  503  502  0.00000000000E+00  0.00000000000E+00  0.23970185117E+02  0.23970185117E+02  0.00000000000E+00 0.  1.
         21   -1    0    0  501  503 -0.00000000000E+00 -0.00000000000E+00 -0.11555929315E+03  0.11555929315E+03  0.00000000000E+00 0. -1.
          2    1    1    2  501    0  0.12853146741E+02 -0.35085718917E+02 -0.94925408593E+02  0.10201492170E+03  0.00000000000E+00 0. -1.
         -2    1    1    2    0  502 -0.12853146741E+02  0.35085718917E+02  0.33363005573E+01  0.37514556568E+02  0.00000000000E+00 0.  1.
</event>
<event>
 4    1  0.1848744E+004  0.2116694E+02  0.7546771E-02  0.1516895E+00
         21   -1    0    0  503  502  0.00000000000E+00  0.00000000000E+00  0.13910878479E+02  0.13910878479E+02  0.00000000000E+00 0.  1.
         21   -1    0    0  501  503 -0.00000000000E+00 -0.00000000000E+00 -0.70444450154E+02  0.70444450154E+02  0.00000000000E+00 0. -1.
          2    1    1    2  501    0  0.51189361696E+00 -0.21160752794E+02 -0.59340900674E+02  0.63003031567E+02  0.00000000000E+00 0. -1.
         -2    1    1    2    0  502 -0.51189361696E+00  0.21160752794E+02  0.28073289995E+01  0.21352297066E+02  0.00000000000E+00 0.  1.
</event>
<event>
 4    1  0.1848744E+004  0.2031615E+02  0.7546771E-02  0.1529256E+00
         21   -1    0    0  501  502  0.00000000000E+00  0.00000000000E+00  0.14444405334E+01  0.14444405334E+01  0.00000000000E+00 0.  1.
         21   -1    0    0  502  503 -0.00000000000E+00 -0.00000000000E+00 -0.92788204660E+03  0.92788204660E+03  0.00000000000E+00 0. -1.
          2    1    1    2  501    0 -0.96625063797E+01  0.17871256603E+02 -0.76669568233E+02  0.79315626047E+02  0.00000000000E+00 0.  1.
         -2    1    1    2    0  503  0.96625063797E+01 -0.17871256603E+02 -0.84976803783E+03  0.85001086109E+03  0.00000000000E+00 0. -1.
</event>
<event>
 4    1  0.1848744E+004  0.2147318E+02  0.7546771E-02  0.1512615E+00
         21   -1    0    0  501  502  0.00000000000E+00  0.00000000000E+00  0.48172259576E+01  0.48172259576E+01  0.00000000000E+00 0. -1.
         21   -1    0    0  502  503 -0.00000000000E+00 -0.00000000000E+00 -0.10340624616E+03  0.10340624616E+03  0.00000000000E+00 0.  1.
          2    1    1    2  501    0 -0.15140395447E+02 -0.15227149330E+02 -0.34540246079E+02  0.40670950938E+02  0.00000000000E+00 0.  1.
         -2    1    1    2    0  503  0.15140395447E+02  0.15227149330E+02 -0.64048774119E+02  0.67552521175E+02  0.00000000000E+00 0. -1.
</event>
<event>
 4    1  0.1848744E+004  0.3799920E+02  0.7546771E-02  0.1360627E+00
         21   -1    0    0  501  502  0.00000000000E+00  0.00000000000E+00  0.97267253809E+01  0.97267253809E+01  0.00000000000E+00 0.  1.
         21   -1    0    0  502  503 -0.00000000000E+00 -0.00000000000E+00 -0.79821161008E+03  0.79821161008E+03  0.00000000000E+00 0. -1.
          2    1    1    2  501    0  0.38442591099E+01 -0.37804242602E+02 -0.29768912197E+02  0.48271391323E+02  0.00000000000E+00 0.  1.
         -2    1    1    2    0  503 -0.38442591099E+01  0.37804242602E+02 -0.75871597251E+03  0.75966694414E+03  0.00000000000E+00 0. -1.
</event>
<event>
 4    1  0.1848744E+004  0.3157596E+02  0.7546771E-02  0.1406378E+00
         21   -1    0    0  501  502  0.00000000000E+00  0.00000000000E+00  0.46879162598E+02  0.46879162598E+02  0.00000000000E+00 0.  1.
         21   -1    0    0  502  503 -0.00000000000E+00 -0.00000000000E+00 -0.24084350272E+02  0.24084350272E+02  0.00000000000E+00 0. -1.
          2    1    1    2  501    0  0.24291016304E+02  0.20173939053E+02  0.23530061972E+02  0.39378993212E+02  0.00000000000E+00 0.  1.
         -2    1    1    2    0  503 -0.24291016304E+02 -0.20173939053E+02 -0.73524964648E+00  0.31584519658E+02  0.00000000000E+00 0. -1.
</event>
<event>
 4    1  0.1848744E+004  0.2138570E+02  0.7546771E-02  0.1513829E+00
         21   -1    0    0  501  502  0.00000000000E+00  0.00000000000E+00  0.37998739304E+02  0.37998739304E+02  0.00000000000E+00 0. -1.
         21   -1    0    0  502  503 -0.00000000000E+00 -0.00000000000E+00 -0.15982091823E+02  0.15982091823E+02  0.00000000000E+00 0.  1.
          2    1    1    2  501    0 -0.20494883135E+02  0.61080190914E+01  0.24420002791E+02  0.32460509365E+02  0.00000000000E+00 0. -1.
         -2    1    1    2    0  503  0.20494883135E+02 -0.61080190914E+01 -0.24033553100E+01  0.21520321761E+02  0.00000000000E+00 0.  1.
</event>
<event>
 4    1  0.1848744E+004  0.2055696E+02  0.7546771E-02  0.1525685E+00
         21   -1    0    0  503  502  0.00000000000E+00  0.00000000000E+00  0.51688473988E+01  0.51688473988E+01  0.00000000000E+00 0. -1.
         21   -1    0    0  501  503 -0.00000000000E+00 -0.00000000000E+00 -0.10503840126E+03  0.10503840126E+03  0.00000000000E+00 0.  1.
          2    1    1    2  501    0 -0.65752492940E+01  0.19477027958E+02 -0.75877308818E+02  0.78612686729E+02  0.00000000000E+00 0.  1.
         -2    1    1    2    0  502  0.65752492940E+01 -0.19477027958E+02 -0.23992245048E+02  0.31594561935E+02  0.00000000000E+00 0. -1.
</event>
<event>
 4    1  0.1848744E+004  0.3673483E+02  0.7546771E-02  0.1368760E+00
         21   -1    0    0  503  502  0.00000000000E+00  0.00000000000E+00  0.15201153768E+03  0.15201153768E+03  0.00000000000E+00 0. -1.
         21   -1    0    0  501  503 -0.00000000000E+00 -0.00000000000E+00 -0.18141165584E+02  0.18141165584E+02  0.00000000000E+00 0.  1.
          2    1    1    2  501    0  0.17497859257E+02  0.32299733090E+02  0.61394624256E+01  0.37244339639E+02  0.00000000000E+00 0.  1.
         -2    1    1    2    0  502 -0.17497859257E+02 -0.32299733090E+02  0.12773090967E+03  0.13290836363E+03  0.00000000000E+00 0. -1.
</event>
<event>
 4    1  0.1848744E+004  0.2981497E+02  0.7546771E-02  0.1421211E+00
         21   -1    0    0  501  502  0.00000000000E+00  0.00000000000E+00  0.40091137972E+01  0.40091137972E+01  0.00000000000E+00 0. -1.
         21   -1    0    0  502  503 -0.00000000000E+00 -0.00000000000E+00 -0.43197806332E+03  0.43197806332E+03  0.00000000000E+00 0.  1.
          2    1    1    2  501    0  0.18803695903E+02 -0.23137701475E+02 -0.61901328027E+02  0.68707398588E+02  0.00000000000E+00 0. -1.
         -2    1    1    2    0  503 -0.18803695903E+02  0.23137701475E+02 -0.36606762150E+03  0.36727977853E+03  0.00000000000E+00 0.  1.
</event>
<event>
 4    1  0.1848744E+004  0.3848820E+02  0.7546771E-02  0.1357580E+00
         21   -1    0    0  501  502  0.00000000000E+00  0.00000000000E+00  0.12700899899E+02  0.12700899899E+02  0.00000000000E+00 0. -1.
         21   -1    0    0  502  503 -0.00000000000E+00 -0.00000000000E+00 -0.13224185065E+03  0.13224185065E+03  0.00000000000E+00 0.  1.
          2    1    1    2  501    0 -0.12716015165E+02  0.36326913036E+02 -0.34872149822E+02  0.51936581382E+02  0.00000000000E+00 0. -1.
         -2    1    1    2    0  503  0.12716015165E+02 -0.36326913036E+02 -0.84668800931E+02  0.93006169169E+02  0.00000000000E+00 0.  1.
</event>
<event>
 4    1  0.1848744E+004  0.4224437E+02  0.7546771E-02  0.1335813E+00
         21   -1    0    0  501  502  0.00000000000E+00  0.00000000000E+00  0.25032451017E+02  0.25032451017E+02  0.00000000000E+00 0.  1.
         21   -1    0    0  502  503 -0.00000000000E+00 -0.00000000000E+00 -0.75366516059E+02  0.75366516059E+02  0.00000000000E+00 0. -1.
          2    1    1    2  501    0  0.38752584245E+02  0.16817364543E+02 -0.36840649529E+02  0.56051940141E+02  0.00000000000E+00 0.  1.
         -2    1    1    2    0  503 -0.38752584245E+02 -0.16817364543E+02 -0.13493415513E+02  0.44347026935E+02  0.00000000000E+00 0. -1.
</event>
<event>
 4    1  0.1848744E+004  0.2116145E+02  0.7546771E-02  0.1516972E+00
         21   -1    0    0  503  502  0.00000000000E+00  0.00000000000E+00  0.23672569058E+02  0.23672569058E+02  0.00000000000E+00 0. -1.
         21   -1    0    0  501  503 -0.00000000000E+00 -0.00000000000E+00 -0.33501098145E+02  0.33501098145E+02  0.00000000000E+00 0.  1.
          2    1    1    2  501    0 -0.20710249444E+02  0.43465442347E+01 -0.23775962816E+02  0.31829283477E+02  0.00000000000E+00 0.  1.
         -2    1    1    2    0  502  0.20710249444E+02 -0.43465442347E+01  0.13947433730E+02  0.25344383726E+02  0.00000000000E+00 0. -1.
</event>
<event>
 4    1  0.1848744E+004  0.2228635E+02  0.7546771E-02  0.1501659E+00
         21   -1    0    0  501  502  0.00000000000E+00  0.00000000000E+00  0.86039241755E+02  0.86039241755E+02  0.00000000000E+00 0. -1.
         21   -1    0    0  502  503 -0.00000000000E+00 -0.00000000000E+00 -0.59948533853E+01  0.59948533853E+01  0.00000000000E+00 0.  1.
          2    1    1    2  501    0  0.56624761154E+00  0.22279150704E+02  0.48880036993E+02  0.53720938273E+02  0.00000000000E+00 0.  1.
         -2    1    1    2    0  503 -0.56624761154E+00 -0.22279150704E+02  0.31164351377E+02  0.38313156868E+02  0.00000000000E+00 0. -1.
</event>
<event>
 4    1  0.1848744E+004  0.2432094E+02  0.7546771E-02  0.1476545E+00
         21   -1    0    0  503  502  0.00000000000E+00  0.00000000000E+00  0.35205020777E+01  0.35205020777E+01  0.00000000000E+00 0. -1.
         21   -1    0    0  501  503 -0.00000000000E+00 -0.00000000000E+00 -0.19107976922E+03  0.19107976922E+03  0.00000000000E+00 0.  1.
          2    1    1    2  501    0  0.23642161333E+02  0.57058175665E+01 -0.12758232311E+03  0.12987978025E+03  0.00000000000E+00 0. -1.
         -2    1    1    2    0  502 -0.23642161333E+02 -0.57058175665E+01 -0.59976944036E+02  0.64720491056E+02  0.00000000000E+00 0.  1.
</event>
<event>
 4    1  0.1848744E+004  0.2619469E+02  0.7546771E-02  0.1455870E+00
         21   -1    0    0  501  502  0.00000000000E+00  0.00000000000E+00  0.24969961773E+02  0.24969961773E+02  0.00000000000E+00 0. -1.
         21   -1    0    0  502  503 -0.00000000000E+00 -0.00000000000E+00 -0.14191031400E+03  0.14191031400E+03  0.00000000000E+00 0.  1.
          2    1    1    2  501    0  0.24532219487E+02  0.91832529944E+01  0.16457029596E+02  0.30935347931E+02  0.00000000000E+00 0. -1.
         -2    1    1    2    0  503 -0.24532219487E+02 -0.91832529944E+01 -0.13339738183E+03  0.13594492784E+03  0.00000000000E+00 0.  1.
</event>
<event>
 4    1  0.1848744E+004  0.2293934E+02  0.7546771E-02  0.1493261E+00
         21   -1    0    0  503  502  0.00000000000E+00  0.00000000000E+00  0.29834916896E+02  0.29834916896E+02  0.00000000000E+00 0. -1.
         21   -1    0    0  501  503 -0.00000000000E+00 -0.00000000000E+00 -0.24866446711E+02  0.24866446711E+02  0.00000000000E+00 0.  1.
          2    1    1    2  501    0 -0.79843052061E+01  0.21504977512E+02 -0.12262604744E+02  0.26011241080E+02  0.00000000000E+00 0.  1.
         -2    1    1    2    0  502  0.79843052061E+01 -0.21504977512E+02  0.17231074929E+02  0.28690122527E+02  0.00000000000E+00 0. -1.
</event>
<event>
 4    1  0.1848744E+004  0.2252883E+02  0.7546771E-02  0.1498501E+00
         21   -1    0    0  501  502  0.00000000000E+00  0.00000000000E+00  0.34125037837E+02  0.34125037837E+02  0.00000000000E+00 0.  1.
         21   -1    0    0  502  503 -0.00000000000E+00 -0.00000000000E+00 -0.17030617519E+02  0.17030617519E+02  0.00000000000E+00 0. -1.
          2    1    1    2  501    0 -0.41173784533E+01 -0.22149390905E+02  0.17650872060E+02  0.28619951210E+02  0.00000000000E+00 0.  1.
         -2    1    1    2    0  503  0.41173784533E+01  0.22149390905E+02 -0.55645174202E+00  0.22535704146E+02  0.00000000000E+00 0. -1.
</event>
<event>
 4    1  0.1848744E+004  0.3343654E+02  0.7546771E-02  0.1391901E+00
         21   -1    0    0  501  502  0.00000000000E+00  0.00000000000E+00  0.14944689610E+01  0.14944689610E+01  0.00000000000E+00 0. -1.
         21   -1    0    0  502  503 -0.00000000000E+00 -0.00000000000E+00 -0.78954301414E+03  0.78954301414E+03  0.00000000000E+00 0.  1.
          2    1    1    2  501    0 -0.22554629422E+02  0.24683817259E+02 -0.30340090454E+03  0.30523779422E+03  0.00000000000E+00 0. -1.
         -2    1    1    2    0  503  0.22554629422E+02 -0.24683817259E+02 -0.48464764063E+03  0.48579968888E+03  0.00000000000E+00 0.  1.
</event>
<event>
 4    1  0.1848744E+004  0.2071520E+02  0.7546771E-02  0.1523370E+00
         21   -1    0    0  503  502  0.00000000000E+00  0.00000000000E+00  0.13460551100E+02  0.13460551100E+02  0.00000000000E+00 0.  1.
         21   -1    0    0  501  503 -0.00000000000E+00 -0.00000000000E+00 -0.41592164205E+02  0.41592164205E+02  0.00000000000E+00 0. -1.
          2    1    1    2  501    0  0.20476584663E+02  0.31351112354E+01 -0.27367467054E+02  0.34323427784E+02  0.00000000000E+00 0. -1.
         -2    1    1    2    0  502 -0.20476584663E+02 -0.31351112354E+01 -0.76414605153E+00  0.20729287521E+02  0.00000000000E+00 0.  1.
</event>
<event>
 4    1  0.1848744E+004  0.2304877E+02  0.7546771E-02  0.1491887E+00
         21   -1    0    0  503  502  0.00000000000E+00  0.00000000000E+00  0.63542447354E+01  0.63542447354E+01  0.00000000000E+00 0.  1.
         21   -1    0    0  501  503 -0.00000000000E+00 -0.00000000000E+00 -0.90805185072E+02  0.90805185072E+02  0.00000000000E+00 0. -1.
          2    1    1    2  501    0 -0.22541083977E+02  0.48109542322E+01 -0.28545798889E+02  0.36689349704E+02  0.00000000000E+00 0.  1.
         -2    1    1    2    0  502  0.22541083977E+02 -0.48109542322E+01 -0.55905141448E+02  0.60470080104E+02  0.00000000000E+00 0. -1.
</event>
<event>
 4    1  0.1848744E+004  0.2109642E+02  0.7546771E-02  0.1517893E+00
         21   -1    0    0  501  502  0.00000000000E+00  0.00000000000E+00  0.10099864105E+03  0.10099864105E+03  0.00000000000E+00 0. -1.
         21   -1    0    0  502  503 -0.00000000000E+00 -0.00000000000E+00 -0.59058735541E+01  0.59058735541E+01  0.00000000000E+00 0.  1.
          2    1    1    2  501    0 -0.28102116797E+01  0.20908408779E+02  0.74478280966E+02  0.77408482629E+02  0.00000000000E+00 0. -1.
         -2    1    1    2    0  503  0.28102116797E+01 -0.20908408779E+02  0.20614486532E+02  0.29496031976E+02  0.00000000000E+00 0.  1.
</event>
<event>
 4    1  0.1848744E+004  0.3422015E+02  0.7546771E-02  0.1386130E+00
         21   -1    0    0  503  502  0.00000000000E+00  0.00000000000E+00  0.22756039362E+02  0.22756039362E+02  0.00000000000E+00 0. -1.
         21   -1    0    0  501  503 -0.00000000000E+00 -0.00000000000E+00 -0.19825112760E+03  0.19825112760E+03  0.00000000000E+00 0.  1.
          2    1    1    2  501    0  0.30699358254E+02 -0.15118465910E+02 -0.18283405215E+03  0.18600889557E+03  0.00000000000E+00 0.  1.
         -2    1    1    2    0  502 -0.30699358254E+02  0.15118465910E+02  0.73389639095E+01  0.34998271385E+02  0.00000000000E+00 0. -1.
</event>
<event>
 4    1  0.1848744E+004  0.2294096E+02  0.7546771E-02  0.1493241E+00
         21   -1    0    0  501  502  0.00000000000E+00  0.00000000000E+00  0.12763056883E+01  0.12763056883E+01  0.00000000000E+00 0. -1.
         21   -1    0    0  502  503 -0.00000000000E+00 -0.00000000000E+00 -0.77395275133E+03  0.77395275133E+03  0.00000000000E+00 0.  1.
          2    1    1    2  501    0  0.10654144562E+02  0.20316907805E+02 -0.12139224755E+03  0.12354094586E+03  0.00000000000E+00 0. -1.
         -2    1    1    2    0  503 -0.10654144562E+02 -0.20316907805E+02 -0.65128419809E+03  0.65168811116E+03  0.00000000000E+00 0.  1.
</event>
<event>
 4    1  0.1848744E+004  0.2739960E+02  0.7546771E-02  0.1443635E+00
         21   -1    0    0  501  502  0.00000000000E+00  0.00000000000E+00  0.99845599909E+02  0.99845599909E+02  0.00000000000E+00 0. -1.
         21   -1    0    0  502  503 -0.00000000000E+00 -0.00000000000E+00 -0.75356735796E+01  0.75356735796E+01  0.00000000000E+00 0.  1.
          2    1    1    2  501    0 -0.33717272485E+01  0.27191347736E+02  0.48681346229E+02  0.55862432877E+02  0.00000000000E+00 0. -1.
         -2    1    1    2    0  503  0.33717272485E+01 -0.27191347736E+02  0.43628580100E+02  0.51518840611E+02  0.00000000000E+00 0.  1.
</event>
<event>
 4    1  0.1848744E+004  0.3276747E+02  0.7546771E-02  0.1396977E+00
         21   -1    0    0  503  502  0.00000000000E+00  0.00000000000E+00  0.20240867944E+02  0.20240867944E+02  0.00000000000E+00 0.  1.
         21   -1    0    0  501  503 -0.00000000000E+00 -0.00000000000E+00 -0.53285143285E+02  0.53285143285E+02  0.00000000000E+00 0. -1.
          2    1    1    2  501    0  0.22849397020E+02 -0.23486427533E+02 -0.14061874285E+02  0.35657306837E+02  0.00000000000E+00 0.  1.
         -2    1    1    2    0  502 -0.22849397020E+02  0.23486427533E+02 -0.18982401056E+02  0.37868704392E+02  0.00000000000E+00 0. -1.
</event>
<event>
 4    1  0.1848744E+004  0.3013636E+02  0.7546771E-02  0.1418415E+00
         21   -1    0    0  501  502  0.00000000000E+00  0.00000000000E+00  0.22428360534E+02  0.22428360534E+02  0.00000000000E+00 0. -1.
         21   -1    0    0  502  503 -0.00000000000E+00 -0.00000000000E+00 -0.40513799562E+02  0.40513799562E+02  0.00000000000E+00 0.  1.
          2    1    1    2  501    0 -0.38893085205E+01 -0.29884330614E+02 -0.83360393560E+01  0.31268026627E+02  0.00000000000E+00 0. -1.
         -2    1    1    2    0  503  0.38893085205E+01  0.29884330614E+02 -0.97493996723E+01  0.31674133469E+02  0.00000000000E+00 0.  1.
</event>
<event>
 4    1  0.1848744E+004  0.2055687E+02  0.7546771E-02  0.1525687E+00
         21   -1    0    0  501  502  0.00000000000E+00  0.00000000000E+00  0.53432328081E+03  0.53432328081E+03  0.00000000000E+00 0.  1.
         21   -1    0    0  502  503 -0.00000000000E+00 -0.00000000000E+00 -0.79125340876E+00  0.79125340876E+00  0.00000000000E+00 0. -1.
          2    1    1    2  501    0  0.94785409409E+01 -0.18241225811E+02  0.26094582740E+03  0.26175429298E+03  0.00000000000E+00 0.  1.
         -2    1    1    2    0  503 -0.94785409409E+01  0.18241225811E+02  0.27258620000E+03  0.27336024124E+03  0.00000000000E+00 0. -1.
</event>
<event>
 4    1  0.1848744E+004  0.2156323E+02  0.7546771E-02  0.1511373E+00
         21   -1    0    0  503  502  0.00000000000E+00  0.00000000000E+00  0.10872978037E+01  0.10872978037E+01  0.00000000000E+00 0.  1.
         21   -1    0    0  501  503 -0.00000000000E+00 -0.00000000000E+00 -0.12535300176E+04  0.12535300176E+04  0.00000000000E+00 0. -1.
          2    1    1    2  501    0 -0.44045856393E+00 -0.21558727929E+02 -0.11354054748E+04  0.11356102170E+04  0.00000000000E+00 0. -1.
         -2    1    1    2    0  502  0.44045856393E+00  0.21558727929E+02 -0.11703724499E+03  0.11900709840E+03  0.00000000000E+00 0.  1.
</event>
<event>
 4    1  0.1848744E+004  0.2179811E+02  0.7546771E-02  0.1508168E+00
         21   -1    0    0  501  502  0.00000000000E+00  0.00000000000E+00  0.17164428651E+03  0.17164428651E+03  0.00000000000E+00 0.  1.
         21   -1    0    0  502  503 -0.00000000000E+00 -0.00000000000E+00 -0.59350330914E+01  0.59350330914E+01  0.00000000000E+00 0. -1.
          2    1    1    2  501    0 -0.13303975170E-01 -0.21798104547E+02  0.14771189950E+03  0.14931162980E+03  0.00000000000E+00 0.  1.
         -2    1    1    2    0  503  0.13303975170E-01  0.21798104547E+02  0.17997353920E+02  0.28267689806E+02  0.00000000000E+00 0. -1.
</event>
<event>
 4    1  0.1848744E+004  0.2481812E+02  0.7546771E-02  0.1470848E+00
         21   -1    0    0  501  502  0.00000000000E+00  0.00000000000E+00  0.10911661461E+02  0.10911661461E+02  0.00000000000E+00 0.  1.
         21   -1    0    0  502  503 -0.00000000000E+00 -0.00000000000E+00 -0.82412396368E+02  0.82412396368E+02  0.00000000000E+00 0. -1.
          2    1    1    2  501    0 -0.49678437906E+01  0.24315829811E+02 -0.95589915806E+01  0.26595363720E+02  0.00000000000E+00 0.  1.
         -2    1    1    2    0  503  0.49678437906E+01 -0.24315829811E+02 -0.61941743326E+02  0.66728694110E+02  0.00000000000E+00 0. -1.
</event>
<event>
 4    1  0.1848744E+004  0.5502897E+02  0.7546771E-02  0.1277727E+00
         21   -1    0    0  501  502  0.00000000000E+00  0.00000000000E+00  0.64301707085E+02  0.64301707085E+02  0.00000000000E+00 0.  1.
         21   -1    0    0  502  503 -0.00000000000E+00 -0.00000000000E+00 -0.47801959708E+02  0.47801959708E+02  0.00000000000E+00 0. -1.
          2    1    1    2  501    0 -0.54569504041E+02  0.70962132267E+01  0.15074052960E+02  0.57056236171E+02  0.00000000000E+00 0.  1.
         -2    1    1    2    0  503  0.54569504041E+02 -0.70962132267E+01  0.14256944171E+01  0.55047430621E+02  0.00000000000E+00 0. -1.
</event>
<event>
 4    1  0.1848744E+004  0.3527820E+02  0.7546771E-02  0.1378618E+00
         21   -1    0    0  503  502  0.00000000000E+00  0.00000000000E+00  0.17801136291E+03  0.17801136291E+03  0.00000000000E+00 0.  1.
         21   -1    0    0  501  503 -0.00000000000E+00 -0.00000000000E+00 -0.12693281281E+02  0.12693281281E+02  0.00000000000E+00 0. -1.
          2    1    1    2  501    0  0.28736600197E+02 -0.20463607214E+02  0.18751395704E+02  0.39952049408E+02  0.00000000000E+00 0. -1.
         -2    1    1    2    0  502 -0.28736600197E+02  0.20463607214E+02  0.14656668593E+03  0.15075259479E+03  0.00000000000E+00 0.  1.
</event>
<event>
 4    1  0.1848744E+004  0.2128143E+02  0.7546771E-02  0.1515285E+00
         21   -1    0    0  501  502  0.00000000000E+00  0.00000000000E+00  0.19412143536E+01  0.19412143536E+01  0.00000000000E+00 0. -1.
         21   -1    0    0  502  503 -0.00000000000E+00 -0.00000000000E+00 -0.25239836969E+03  0.25239836969E+03  0.00000000000E+00 0.  1.
          2    1    1    2  501    0 -0.59370549062E+00  0.21273144876E+02 -0.16020356616E+03  0.16161089626E+03  0.00000000000E+00 0. -1.
         -2    1    1    2    0  503  0.59370549062E+00 -0.21273144876E+02 -0.90253589177E+02  0.92728687785E+02  0.00000000000E+00 0.  1.
</event>
<event>
 4    1  0.1848744E+004  0.2766692E+02  0.7546771E-02  0.1441021E+00
         21   -1    0    0  501  502  0.00000000000E+00  0.00000000000E+00  0.68811546871E+03  0.68811546871E+03  0.00000000000E+00 0. -1.
         21   -1    0    0  502  503 -0.00000000000E+00 -0.00000000000E+00 -0.15227406191E+01  0.15227406191E+01  0.00000000000E+00 0.  1.
          2    1    1    2  501    0  0.10724254756E+02  0.25503895557E+02  0.52229578345E+03  0.52302805254E+03  0.00000000000E+00 0. -1.
         -2    1    1    2    0  503 -0.10724254756E+02 -0.25503895557E+02  0.16429694464E+03  0.16661015679E+03  0.00000000000E+00 0.  1.
</event>
<event>
 4    1  0.1848744E+004  0.2405370E+02  0.7546771E-02  0.1479674E+00
         21   -1    0    0  501  502  0.00000000000E+00  0.00000000000E+00  0.21672669149E+03  0.21672669149E+03  0.00000000000E+00 0.  1.
         21   -1    0    0  502  503 -0.00000000000E+00 -0.00000000000E+00 -0.42461057837E+01  0.42461057837E+01  0.00000000000E+00 0. -1.
          2    1    1    2  501    0  0.38695824952E+01  0.23740406382E+02  0.17356225352E+03  0.17522110720E+03  0.00000000000E+00 0.  1.
         -2    1    1    2    0  503 -0.38695824952E+01 -0.23740406382E+02  0.38918332193E+02  0.45751690073E+02  0.00000000000E+00 0. -1.
</event>
<event>
 4    1  0.1848744E+004  0.2369290E+02  0.7546771E-02  0.1483976E+00
         21   -1    0    0  503  502  0.00000000000E+00  0.00000000000E+00  0.16333562663E+02  0.16333562663E+02  0.00000000000E+00 0. -1.
         21   -1    0    0  501  503 -0.00000000000E+00 -0.00000000000E+00 -0.52665782019E+02  0.52665782019E+02  0.00000000000E+00 0.  1.
          2    1    1    2  501    0  0.80081619091E+01 -0.22298499160E+02 -0.38501316294E+02  0.45207356463E+02  0.00000000000E+00 0.  1.
         -2    1    1    2    0  502 -0.80081619091E+01  0.22298499160E+02  0.21690969383E+01  0.23791988220E+02  0.00000000000E+00 0. -1.
</event>
<event>
 4    1  0.1848744E+004  0.3161455E+02  0.7546771E-02  0.1406066E+00
         21   -1    0    0  503  502  0.00000000000E+00  0.00000000000E+00  0.14575687691E+03  0.14575687691E+03  0.00000000000E+00 0. -1.
         21   -1    0    0  501  503 -0.00000000000E+00 -0.00000000000E+00 -0.32789344697E+02  0.32789344697E+02  0.00000000000E+00 0.  1.
          2    1    1    2  501    0  0.31079836683E+02 -0.57899608519E+01 -0.22907688105E+02  0.39041542864E+02  0.00000000000E+00 0.  1.
         -2    1    1    2    0  502 -0.31079836683E+02  0.57899608519E+01  0.13587522032E+03  0.13950467875E+03  0.00000000000E+00 0. -1.
</event>
<event>
 4    1  0.1848744E+004  0.2387348E+02  0.7546771E-02  0.1481812E+00
         21   -1    0    0  503  502  0.00000000000E+00  0.00000000000E+00  0.40635472877E+02  0.40635472877E+02  0.00000000000E+00 0.  1.
         21   -1    0    0  501  503 -0.00000000000E+00 -0.00000000000E+00 -0.14586498859E+02  0.14586498859E+02  0.00000000000E+00 0. -1.
          2    1    1    2  501    0  0.16368778810E+02 -0.17378321191E+02  0.18438144054E+02  0.30164683377E+02  0.00000000000E+00 0.  1.
         -2    1    1    2    0  502 -0.16368778810E+02  0.17378321191E+02  0.76108299644E+01  0.25057288358E+02  0.00000000000E+00 0. -1.
</event>
<event>
 4    1  0.1848744E+004  0.2273990E+02  0.7546771E-02  0.1495790E+00
         21   -1    0    0  503  502  0.00000000000E+00  0.00000000000E+00  0.59428874192E+01  0.59428874192E+01  0.00000000000E+00 0.  1.
         21   -1    0    0  501  503 -0.00000000000E+00 -0.00000000000E+00 -0.88134534711E+02  0.88134534711E+02  0.00000000000E+00 0. -1.
          2    1    1    2  501    0  0.16639527654E+02  0.15499325955E+02 -0.46404265834E+02  0.51676482787E+02  0.00000000000E+00 0.  1.
         -2    1    1    2    0  502 -0.16639527654E+02 -0.15499325955E+02 -0.35787381457E+02  0.42400939343E+02  0.00000000000E+00 0. -1.
</event>
<event>
 4    1  0.1848744E+004  0.2452673E+02  0.7546771E-02  0.1474168E+00
         21   -1    0    0  503  502  0.00000000000E+00  0.00000000000E+00  0.11818007240E+02  0.11818007240E+02  0.00000000000E+00 0.  1.
         21   -1    0    0  501  503 -0.00000000000E+00 -0.00000000000E+00 -0.51984326189E+02  0.51984326189E+02  0.00000000000E+00 0. -1.
          2    1    1    2  501    0  0.13442259661E+02  0.20515017926E+02 -0.15480087878E+02  0.29003334740E+02  0.00000000000E+00 0.  1.
         -2    1    1    2    0  502 -0.13442259661E+02 -0.20515017926E+02 -0.24686231071E+02  0.34798998689E+02  0.00000000000E+00 0. -1.
</event>
<event>
 4    1  0.1848744E+004  0.2091925E+02  0.7546771E-02  0.1520421E+00
         21   -1    0    0  501  502  0.00000000000E+00  0.00000000000E+00  0.21737010449E+02  0.21737010449E+02  0.00000000000E+00 0. -1.
         21   -1    0    0  502  503 -0.00000000000E+00 -0.00000000000E+00 -0.24811043788E+02  0.24811043788E+02  0.00000000000E+00 0.  1.
          2    1    1    2  501    0 -0.12153714489E+02  0.17026511665E+02  0.85698394804E+01  0.22606570374E+02  0.00000000000E+00 0. -1.
         -2    1    1    2    0  503  0.12153714489E+02 -0.17026511665E+02 -0.11643872820E+02  0.23941483864E+02  0.00000000000E+00 0.  1.
</event>
<event>
 4    1  0.1848744E+004  0.2025306E+02  0.7546771E-02  0.1530202E+00
         21   -1    0    0  501  502  0.00000000000E+00  0.00000000000E+00  0.83451106891E+01  0.83451106891E+01  0.00000000000E+00 0. -1.
         21   -1    0    0  502  503 -0.00000000000E+00 -0.00000000000E+00 -0.51244273131E+02  0.51244273131E+02  0.00000000000E+00 0.  1.
          2    1    1    2  501    0  0.90992742327E+01 -0.18093914985E+02 -0.15430502778E+02  0.25461480064E+02  0.00000000000E+00 0. -1.
         -2    1    1    2    0  503 -0.90992742327E+01  0.18093914985E+02 -0.27468659663E+02  0.34127903756E+02  0.00000000000E+00 0.  1.
</event>
<event>
 4    1  0.1848744E+004  0.2837440E+02  0.7546771E-02  0.1434270E+00
         21   -1    0    0  503  502  0.00000000000E+00  0.00000000000E+00  0.21528431792E+03  0.21528431792E+03  0.00000000000E+00 0. -1.
         21   -1    0    0  501  503 -0.00000000000E+00 -0.00000000000E+00 -0.13505265998E+02  0.13505265998E+02  0.00000000000E+00 0.  1.
          2    1    1    2  501    0 -0.90190584232E+01  0.26902845752E+02  0.36142235188E+01  0.28603655990E+02  0.00000000000E+00 0.  1.
         -2    1    1    2    0  502  0.90190584232E+01 -0.26902845752E+02  0.19816482841E+03  0.20018592793E+03  0.00000000000E+00 0. -1.
</event>
<event>
 4    1  0.1848744E+004  0.3572279E+02  0.7546771E-02  0.1375552E+00
         21   -1    0    0  501  502  0.00000000000E+00  0.00000000000E+00  0.54971807229E+02  0.54971807229E+02  0.00000000000E+00 0. -1.
         21   -1    0    0  502  503 -0.00000000000E+00 -0.00000000000E+00 -0.86600772288E+02  0.86600772288E+02  0.00000000000E+00 0.  1.
          2    1    1    2  501    0  0.63404953028E+01  0.35155594402E+02  0.44745738409E+02  0.57256430243E+02  0.00000000000E+00 0. -1.
         -2    1    1    2    0  503 -0.63404953028E+01 -0.35155594402E+02 -0.76374703468E+02  0.84316149273E+02  0.00000000000E+00 0.  1.
</event>
<event>
 4    1  0.1848744E+004  0.3056407E+02  0.7546771E-02  0.1414757E+00
         21   -1    0    0  503  502  0.00000000000E+00  0.00000000000E+00  0.84493246074E+01  0.84493246074E+01  0.00000000000E+00 0.  1.
         21   -1    0    0  501  503 -0.00000000000E+00 -0.00000000000E+00 -0.34207845623E+03  0.34207845623E+03  0.00000000000E+00 0. -1.
          2    1    1    2  501    0  0.25971020407E+02  0.16114236768E+02 -0.31100014215E+03  0.31249840151E+03  0.00000000000E+00 0. -1.
         -2    1    1    2    0  502 -0.25971020407E+02 -0.16114236768E+02 -0.22628989471E+02  0.38029379328E+02  0.00000000000E+00 0.  1.
</event>
<event>
 4    1  0.1848744E+004  0.2748121E+02  0.7546771E-02  0.1442833E+00
         21   -1    0    0  501  502  0.00000000000E+00  0.00000000000E+00  0.23404902090E+02  0.23404902090E+02  0.00000000000E+00 0.  1.
         21   -1    0    0  502  503 -0.00000000000E+00 -0.00000000000E+00 -0.45289192841E+02  0.45289192841E+02  0.00000000000E+00 0. -1.
          2    1    1    2  501    0 -0.14848491202E+02 -0.23124427922E+02  0.74751743687E+01  0.28479731206E+02  0.00000000000E+00 0.  1.
         -2    1    1    2    0  503  0.14848491202E+02  0.23124427922E+02 -0.29359465119E+02  0.40214363725E+02  0.00000000000E+00 0. -1.
</event>
<event>
 4    1  0.1848744E+004  0.2846023E+02  0.7546771E-02  0.1433467E+00
         21   -1    0    0  503  502  0.00000000000E+00  0.00000000000E+00  0.23617289149E+03  0.23617289149E+03  0.00000000000E+00 0.  1.
         21   -1    0    0  501  503 -0.00000000000E+00 -0.00000000000E+00 -0.34527800491E+01  0.34527800491E+01  0.00000000000E+00 0. -1.
          2    1    1    2  501    0 -0.41744747605E+01 -0.28152410106E+02  0.10654839584E+03  0.11028392943E+03  0.00000000000E+00 0.  1.
         -2    1    1    2    0  502  0.41744747605E+01  0.28152410106E+02  0.12617171560E+03  0.12934174211E+03  0.00000000000E+00 0. -1.
</event>
<event>
 4    1  0.1848744E+004  0.3586472E+02  0.7546771E-02  0.1374584E+00
         21   -1    0    0  503  502  0.00000000000E+00  0.00000000000E+00  0.43520024085E+01  0.43520024085E+01  0.00000000000E+00 0.  1.
         21   -1    0    0  501  503 -0.00000000000E+00 -0.00000000000E+00 -0.29572150967E+03  0.29572150967E+03  0.00000000000E+00 0. -1.
          2    1    1    2  501    0 -0.20789011076E+02  0.29224902272E+02 -0.14217855773E+03  0.14663226170E+03  0.00000000000E+00 0.  1.
         -2    1    1    2    0  502  0.20789011076E+02 -0.29224902272E+02 -0.14919094953E+03  0.15344125038E+03  0.00000000000E+00 0. -1.
</event>
<event>
 4    1  0.1848744E+004  0.2139748E+02  0.7546771E-02  0.1513665E+00
         21   -1    0    0  501  502  0.00000000000E+00  0.00000000000E+00  0.63580939380E+01  0.63580939380E+01  0.00000000000E+00 0. -1.
         21   -1    0    0  502  503 -0.00000000000E+00 -0.00000000000E+00 -0.32625165868E+03  0.32625165868E+03  0.00000000000E+00 0.  1.
          2    1    1    2  501    0 -0.73555659515E+01 -0.20093478863E+02 -0.13138288358E+02  0.25109099232E+02  0.00000000000E+00 0. -1.
         -2    1    1    2    0  503  0.73555659515E+01  0.20093478863E+02 -0.30675527638E+03  0.30750065338E+03  0.00000000000E+00 0.  1.
</event>
<event>
 4    1  0.1848744E+004  0.2177808E+02  0.7546771E-02  0.1508440E+00
         21   -1    0    0  501  502  0.00000000000E+00  0.00000000000E+00  0.26684694014E+03  0.26684694014E+03  0.00000000000E+00 0. -1.
         21   -1    0    0  502  503 -0.00000000000E+00 -0.00000000000E+00 -0.18683451096E+01  0.18683451096E+01  0.00000000000E+00 0.  1.
          2    1    1    2  501    0 -0.10957327843E+02 -0.18820773677E+02  0.10284058973E+03  0.10512122264E+03  0.00000000000E+00 0.  1.
         -2    1    1    2    0  503  0.10957327843E+02  0.18820773677E+02  0.16213800530E+03  0.16359406260E+03  0.00000000000E+00 0. -1.
</event>
<event>
 4    1  0.1848744E+004  0.2680330E+02  0.7546771E-02  0.1449594E+00
         21   -1    0    0  503  502  0.00000000000E+00  0.00000000000E+00  0.96024687793E+02  0.96024687793E+02  0.00000000000E+00 0.  1.
         21   -1    0    0  501  503 -0.00000000000E+00 -0.00000000000E+00 -0.16690430190E+02  0.16690430190E+02  0.00000000000E+00 0. -1.
          2    1    1    2  501    0 -0.69290932419E+01 -0.25892171258E+02 -0.21949696363E+01  0.26893024325E+02  0.00000000000E+00 0. -1.
         -2    1    1    2    0  502  0.69290932419E+01  0.25892171258E+02  0.81529227240E+02  0.85822093659E+02  0.00000000000E+00 0.  1.
</event>
<event>
 4    1  0.1848744E+004  0.2624736E+02  0.7546771E-02  0.1455319E+00
         21   -1    0    0  501  502  0.00000000000E+00  0.00000000000E+00  0.20893524324E+02  0.20893524324E+02  0.00000000000E+00 0. -1.
         21   -1    0    0  502  503 -0.00000000000E+00 -0.00000000000E+00 -0.35848136529E+02  0.35848136529E+02  0.00000000000E+00 0.  1.
          2    1    1    2  501    0 -0.25965474132E+02 -0.38364140669E+01  0.55724641444E+00  0.26253274907E+02  0.00000000000E+00 0. -1.
         -2    1    1    2    0  503  0.25965474132E+02  0.38364140669E+01 -0.15511858619E+02  0.30488385946E+02  0.00000000000E+00 0.  1.
</event>
<event>
 4    1  0.1848744E+004  0.2411328E+02  0.7546771E-02  0.1478973E+00
         21   -1    0    0  503  502  0.00000000000E+00  0.00000000000E+00  0.68767688034E+00  0.68767688034E+00  0.00000000000E+00 0. -1.
         21   -1    0    0  501  503 -0.00000000000E+00 -0.00000000000E+00 -0.85255982639E+03  0.85255982639E+03  0.00000000000E+00 0.  1.
          2    1    1    2  501    0  0.14950336831E+02  0.18919241283E+02 -0.46468034373E+03  0.46530556853E+03  0.00000000000E+00 0. -1.
         -2    1    1    2    0  502 -0.14950336831E+02 -0.18919241283E+02 -0.38719180578E+03  0.38794193474E+03  0.00000000000E+00 0.  1.
</event>
<event>
 4    1  0.1848744E+004  0.4533752E+02  0.7546771E-02  0.1319760E+00
         21   -1    0    0  501  502  0.00000000000E+00  0.00000000000E+00  0.97468738572E+03  0.97468738572E+03  0.00000000000E+00 0. -1.
         21   -1    0    0  502  503 -0.00000000000E+00 -0.00000000000E+00 -0.20557368773E+02  0.20557368773E+02  0.00000000000E+00 0.  1.
          2    1    1    2  501    0 -0.43580819611E+02  0.12498103093E+02  0.94847267028E+03  0.94955563117E+03  0.00000000000E+00 0. -1.
         -2    1    1    2    0  503  0.43580819611E+02 -0.12498103093E+02  0.56573466706E+01  0.45689123326E+02  0.00000000000E+00 0.  1.
</event>
<event>
 4    1  0.1848744E+004  0.2642145E+02  0.7546771E-02  0.1453508E+00
         21   -1    0    0  501  502  0.00000000000E+00  0.00000000000E+00  0.71012552540E+02  0.71012552540E+02  0.00000000000E+00 0.  1.
         21   -1    0    0  502  503 -0.00000000000E+00 -0.00000000000E+00 -0.10031982812E+02  0.10031982812E+02  0.00000000000E+00 0. -1.
          2    1    1    2  501    0 -0.26380401558E+02 -0.14722654061E+01  0.36232173705E+02  0.44842653391E+02  0.00000000000E+00 0.  1.
         -2    1    1    2    0  503  0.26380401558E+02  0.14722654061E+01  0.24748396023E+02  0.36201881961E+02  0.00000000000E+00 0. -1.
</event>
<event>
 4    1  0.1848744E+004  0.3580645E+02  0.7546771E-02  0.1374981E+00
         21   -1    0    0  501  502  0.00000000000E+00  0.00000000000E+00  0.85576700437E+02  0.85576700437E+02  0.00000000000E+00 0.  1.
         21   -1    0    0  502  503 -0.00000000000E+00 -0.00000000000E+00 -0.16841332817E+02  0.16841332817E+02  0.00000000000E+00 0. -1.
          2    1    1    2  501    0  0.12756756264E+02 -0.33456939568E+02  0.51383326635E+02  0.62628650726E+02  0.00000000000E+00 0.  1.
         -2    1    1    2    0  503 -0.12756756264E+02  0.33456939568E+02  0.17352040984E+02  0.39789382528E+02  0.00000000000E+00 0. -1.
</event>
<event>
 4    1  0.1848744E+004  0.2159612E+02  0.7546771E-02  0.1510921E+00
         21   -1    0    0  503  502  0.00000000000E+00  0.00000000000E+00  0.15287307897E+03  0.15287307897E+03  0.00000000000E+00 0. -1.
         21   -1    0    0  501  503 -0.00000000000E+00 -0.00000000000E+00 -0.30592422941E+01  0.30592422941E+01  0.00000000000E+00 0.  1.
          2    1    1    2  501    0 -0.10377610258E+02 -0.18939311046E+02  0.78991336117E+02  0.81890313707E+02  0.00000000000E+00 0. -1.
         -2    1    1    2    0  502  0.10377610258E+02  0.18939311046E+02  0.70822500557E+02  0.74042007555E+02  0.00000000000E+00 0.  1.
</event>
<event>
 4    1  0.1848744E+004  0.2654791E+02  0.7546771E-02  0.1452203E+00
         21   -1    0    0  501  502  0.00000000000E+00  0.00000000000E+00  0.15553584989E+02  0.15553584989E+02  0.00000000000E+00 0.  1.
         21   -1    0    0  502  503 -0.00000000000E+00 -0.00000000000E+00 -0.16175353867E+03  0.16175353867E+03  0.00000000000E+00 0. -1.
          2    1    1    2  501    0 -0.23369356664E+02 -0.12596219506E+02  0.21177076971E+01  0.26632241036E+02  0.00000000000E+00 0.  1.
         -2    1    1    2    0  503  0.23369356664E+02  0.12596219506E+02 -0.14831766138E+03  0.15067488262E+03  0.00000000000E+00 0. -1.
</event>
<event>
 4    1  0.1848744E+004  0.2070780E+02  0.7546771E-02  0.1523478E+00
         21   -1    0    0  501  502  0.00000000000E+00  0.00000000000E+00  0.66116234447E+02  0.66116234447E+02  0.00000000000E+00 0. -1.
         21   -1    0    0  502  503 -0.00000000000E+00 -0.00000000000E+00 -0.11058589575E+02  0.11058589575E+02  0.00000000000E+00 0.  1.
          2    1    1    2  501    0 -0.96421886943E+01 -0.18325974032E+02  0.52342374481E+02  0.56289761888E+02  0.00000000000E+00 0. -1.
         -2    1    1    2    0  503  0.96421886943E+01  0.18325974032E+02  0.27152703916E+01  0.20885062134E+02  0.00000000000E+00 0.  1.
</event>
<event>
 4    1  0.1848744E+004  0.2157856E+02  0.7546771E-02  0.1511162E+00
         21   -1    0    0  501  502  0.00000000000E+00  0.00000000000E+00  0.19181199058E+02  0.19181199058E+02  0.00000000000E+00 0.  1.
         21   -1    0    0  502  503 -0.00000000000E+00 -0.00000000000E+00 -0.69439238357E+02  0.69439238357E+02  0.00000000000E+00 0. -1.
          2    1    1    2  501    0 -0.44448541311E+00  0.21573982430E+02  0.10606169740E+02  0.24044232608E+02  0.00000000000E+00 0.  1.
         -2    1    1    2    0  503  0.44448541311E+00 -0.21573982430E+02 -0.60864209040E+02  0.64576204807E+02  0.00000000000E+00 0. -1.
</event>
<event>
 4    1  0.1848744E+004  0.2935964E+02  0.7546771E-02  0.1425244E+00
         21   -1    0    0  501  502  0.00000000000E+00  0.00000000000E+00  0.14350336025E+03  0.14350336025E+03  0.00000000000E+00 0. -1.
         21   -1    0    0  502  503 -0.00000000000E+00 -0.00000000000E+00 -0.60172665069E+01  0.60172665069E+01  0.00000000000E+00 0.  1.
          2    1    1    2  501    0  0.69150219829E+01  0.28533677505E+02  0.71869005536E+02  0.77634671621E+02  0.00000000000E+00 0. -1.
         -2    1    1    2    0  503 -0.69150219829E+01 -0.28533677505E+02  0.65617088209E+02  0.71885955137E+02  0.00000000000E+00 0.  1.
</event>
<event>
 4    1  0.1848744E+004  0.2401311E+02  0.7546771E-02  0.1480154E+00
         21   -1    0    0  501  502  0.00000000000E+00  0.00000000000E+00  0.26399994463E+01  0.26399994463E+01  0.00000000000E+00 0.  1.
         21   -1    0    0  502  503 -0.00000000000E+00 -0.00000000000E+00 -0.26722193915E+03  0.26722193915E+03  0.00000000000E+00 0. -1.
          2    1    1    2  501    0 -0.21033864873E+02 -0.11584734424E+02 -0.74628576053E+02  0.78396772299E+02  0.00000000000E+00 0.  1.
         -2    1    1    2    0  503  0.21033864873E+02  0.11584734424E+02 -0.18995336365E+03  0.19146516630E+03  0.00000000000E+00 0. -1.
</event>
<event>
 4    1  0.1848744E+004  0.2766596E+02  0.7546771E-02  0.1441031E+00
         21   -1    0    0  503  502  0.00000000000E+00  0.00000000000E+00  0.39200907129E+01  0.39200907129E+01  0.00000000000E+00 0. -1.
         21   -1    0    0  501  503 -0.00000000000E+00 -0.00000000000E+00 -0.33167214220E+03  0.33167214220E+03  0.00000000000E+00 0.  1.
          2    1    1    2  501    0  0.26621793019E+02  0.75289773326E+01 -0.56262531632E+02  0.62696713063E+02  0.00000000000E+00 0. -1.
         -2    1    1    2    0  502 -0.26621793019E+02 -0.75289773326E+01 -0.27148951985E+03  0.27289551985E+03  0.00000000000E+00 0.  1.
</event>
<event>
 4    1  0.1848744E+004  0.2374866E+02  0.7546771E-02  0.1483305E+00
         21   -1    0    0  501  502  0.00000000000E+00  0.00000000000E+00  0.14518520697E+02  0.14518520697E+02  0.00000000000E+00 0.  1.
         21   -1    0    0  502  503 -0.00000000000E+00 -0.00000000000E+00 -0.39157184681E+02  0.39157184681E+02  0.00000000000E+00 0. -1.
          2    1    1    2  501    0  0.23681816185E+02  0.17805193545E+01 -0.99300720798E+01  0.25741114943E+02  0.00000000000E+00 0. -1.
         -2    1    1    2    0  503 -0.23681816185E+02 -0.17805193545E+01 -0.14708591904E+02  0.27934590435E+02  0.00000000000E+00 0.  1.
</event>
<event>
 4    1  0.1848744E+004  0.3572244E+02  0.7546771E-02  0.1375554E+00
         21   -1    0    0  503  502  0.00000000000E+00  0.00000000000E+00  0.66835556845E+01  0.66835556845E+01  0.00000000000E+00 0. -1.
         21   -1    0    0  501  503 -0.00000000000E+00 -0.00000000000E+00 -0.23820491601E+03  0.23820491601E+03  0.00000000000E+00 0.  1.
          2    1    1    2  501    0  0.34068488542E+02  0.10743874510E+02 -0.17030849553E+03  0.17401458674E+03  0.00000000000E+00 0.  1.
         -2    1    1    2    0  502 -0.34068488542E+02 -0.10743874510E+02 -0.61212864795E+02  0.70873884947E+02  0.00000000000E+00 0. -1.
</event>
<event>
 4    1  0.1848744E+004  0.4399403E+02  0.7546771E-02  0.1326547E+00
         21   -1    0    0  503  502  0.00000000000E+00  0.00000000000E+00  0.80014959967E+01  0.80014959967E+01  0.00000000000E+00 0. -1.
         21   -1    0    0  501  503 -0.00000000000E+00 -0.00000000000E+00 -0.36377308822E+03  0.36377308822E+03  0.00000000000E+00 0.  1.
          2    1    1    2  501    0 -0.43493106030E+02 -0.66200049739E+01 -0.28548467085E+03  0.28885458630E+03  0.00000000000E+00 0.  1.
         -2    1    1    2    0  502  0.43493106030E+02  0.66200049739E+01 -0.70286921379E+02  0.82919997920E+02  0.00000000000E+00 0. -1.
</event>
<event>
 4    1  0.1848744E+004  0.2533892E+02  0.7546771E-02  0.1465047E+00
         21   -1    0    0  503  502  0.00000000000E+00  0.00000000000E+00  0.28824416410E+03  0.28824416410E+03  0.00000000000E+00 0.  1.
         21   -1    0    0  501  503 -0.00000000000E+00 -0.00000000000E+00 -0.62621233796E+01  0.62621233796E+01  0.00000000000E+00 0. -1.
          2    1    1    2  501    0 -0.13059493263E+02  0.21714294974E+02  0.22794196035E+02  0.34082786614E+02  0.00000000000E+00 0. -1.
         -2    1    1    2    0  502  0.13059493263E+02 -0.21714294974E+02  0.25918784469E+03  0.26042350087E+03  0.00000000000E+00 0.  1.
</event>
<event>
 4    1  0.1848744E+004  0.3310149E+02  0.7546771E-02  0.1394425E+00
         21   -1    0    0  501  502  0.00000000000E+00  0.00000000000E+00  0.27935470448E+02  0.27935470448E+02  0.00000000000E+00 0. -1.
         21   -1    0    0  502  503 -0.00000000000E+00 -0.00000000000E+00 -0.48383312937E+02  0.48383312937E+02  0.00000000000E+00 0.  1.
          2    1    1    2  501    0  0.31301127711E+02  0.10767930143E+02  0.63800597154E+01  0.33710741278E+02  0.00000000000E+00 0. -1.
         -2    1    1    2    0  503 -0.31301127711E+02 -0.10767930143E+02 -0.26827902204E+02  0.42608042107E+02  0.00000000000E+00 0.  1.
</event>
<event>
 4    1  0.1848744E+004  0.2772393E+02  0.7546771E-02  0.1440469E+00
         21   -1    0    0  501  502  0.00000000000E+00  0.00000000000E+00  0.12177306712E+02  0.12177306712E+02  0.00000000000E+00 0.  1.
         21   -1    0    0  502  503 -0.00000000000E+00 -0.00000000000E+00 -0.10682150721E+03  0.10682150721E+03  0.00000000000E+00 0. -1.
          2    1    1    2  501    0 -0.26033549249E+02  0.95326111473E+01 -0.92648232083E+01  0.29231033353E+02  0.00000000000E+00 0.  1.
         -2    1    1    2    0  503  0.26033549249E+02 -0.95326111473E+01 -0.85379377285E+02  0.89767780564E+02  0.00000000000E+00 0. -1.
</event>
<event>
 4    1  0.1848744E+004  0.2400582E+02  0.7546771E-02  0.1480240E+00
         21   -1    0    0  503  502  0.00000000000E+00  0.00000000000E+00  0.30572899981E+03  0.30572899981E+03  0.00000000000E+00 0. -1.
         21   -1    0    0  501  503 -0.00000000000E+00 -0.00000000000E+00 -0.18853699903E+01  0.18853699903E+01  0.00000000000E+00 0.  1.
          2    1    1    2  501    0  0.95309694145E+01  0.22032698973E+02  0.14958477862E+03  0.15149879602E+03  0.00000000000E+00 0.  1.
         -2    1    1    2    0  502 -0.95309694145E+01 -0.22032698973E+02  0.15425885120E+03  0.15611557378E+03  0.00000000000E+00 0. -1.
</event>
<event>
 4    1  0.1848744E+004  0.2939308E+02  0.7546771E-02  0.1424945E+00
         21   -1    0    0  501  502  0.00000000000E+00  0.00000000000E+00  0.53000598573E+02  0.53000598573E+02  0.00000000000E+00 0.  1.
         21   -1    0    0  502  503 -0.00000000000E+00 -0.00000000000E+00 -0.52530819918E+02  0.52530819918E+02  0.00000000000E+00 0. -1.
          2    1    1    2  501    0 -0.89185166704E+01  0.28007376395E+02  0.44055545180E+02  0.52960779198E+02  0.00000000000E+00 0.  1.
         -2    1    1    2    0  503  0.89185166704E+01 -0.28007376395E+02 -0.43585766525E+02  0.52570639293E+02  0.00000000000E+00 0. -1.
</event>
<event>
 4    1  0.1848744E+004  0.3165247E+02  0.7546771E-02  0.1405760E+00
         21   -1    0    0  501  502  0.00000000000E+00  0.00000000000E+00  0.21409525723E+02  0.21409525723E+02  0.00000000000E+00 0. -1.
         21   -1    0    0  502  503 -0.00000000000E+00 -0.00000000000E+00 -0.48663529781E+02  0.48663529781E+02  0.00000000000E+00 0.  1.
          2    1    1    2  501    0 -0.11344146297E+02 -0.29549773684E+02 -0.67632663613E+01  0.32366966986E+02  0.00000000000E+00 0.  1.
         -2    1    1    2    0  503  0.11344146297E+02  0.29549773684E+02 -0.20490737697E+02  0.37706088518E+02  0.00000000000E+00 0. -1.
</event>
<event>
 4    1  0.1848744E+004  0.2118715E+02  0.7546771E-02  0.1516609E+00
         21   -1    0    0  501  502  0.00000000000E+00  0.00000000000E+00  0.57989971922E+02  0.57989971922E+02  0.00000000000E+00 0. -1.
         21   -1    0    0  502  503 -0.00000000000E+00 -0.00000000000E+00 -0.86879420113E+01  0.86879420113E+01  0.00000000000E+00 0.  1.
          2    1    1    2  501    0 -0.20387571184E+02  0.57656212153E+01  0.35658160825E+02  0.41477703410E+02  0.00000000000E+00 0. -1.
         -2    1    1    2    0  503  0.20387571184E+02 -0.57656212153E+01  0.13643869086E+02  0.25200210523E+02  0.00000000000E+00 0.  1.
</event>
<event>
 4    1  0.1848744E+004  0.3398575E+02  0.7546771E-02  0.1387837E+00
         21   -1    0    0  501  502  0.00000000000E+00  0.00000000000E+00  0.37525967408E+02  0.37525967408E+02  0.00000000000E+00 0. -1.
         21   -1    0    0  502  503 -0.00000000000E+00 -0.00000000000E+00 -0.31528830015E+02  0.31528830015E+02  0.00000000000E+00 0.  1.
          2    1    1    2  501    0  0.26150982950E+02  0.21706154482E+02 -0.23242582072E+01  0.34065132142E+02  0.00000000000E+00 0.  1.
         -2    1    1    2    0  503 -0.26150982950E+02 -0.21706154482E+02  0.83213956006E+01  0.34989665280E+02  0.00000000000E+00 0. -1.
</event>
<event>
 4    1  0.1848744E+004  0.2367434E+02  0.7546771E-02  0.1484200E+00
         21   -1    0    0  501  502  0.00000000000E+00  0.00000000000E+00  0.28270940356E+03  0.28270940356E+03  0.00000000000E+00 0.  1.
         21   -1    0    0  502  503 -0.00000000000E+00 -0.00000000000E+00 -0.19865472493E+01  0.19865472493E+01  0.00000000000E+00 0. -1.
          2    1    1    2  501    0 -0.15097292790E+02 -0.18235853402E+02  0.14677754803E+03  0.14867455466E+03  0.00000000000E+00 0.  1.
         -2    1    1    2    0  503  0.15097292790E+02  0.18235853402E+02  0.13394530828E+03  0.13602139615E+03  0.00000000000E+00 0. -1.
</event>
<event>
 4    1  0.1848744E+004  0.2147908E+02  0.7546771E-02  0.1512534E+00
         21   -1    0    0  503  502  0.00000000000E+00  0.00000000000E+00  0.12879552184E+02  0.12879552184E+02  0.00000000000E+00 0.  1.
         21   -1    0    0  501  503 -0.00000000000E+00 -0.00000000000E+00 -0.36552771733E+02  0.36552771733E+02  0.00000000000E+00 0. -1.
          2    1    1    2  501    0 -0.79243716815E+01  0.19963847680E+02 -0.83381027037E+01  0.23040721287E+02  0.00000000000E+00 0.  1.
         -2    1    1    2    0  502  0.79243716815E+01 -0.19963847680E+02 -0.15335116845E+02  0.26391602630E+02  0.00000000000E+00 0. -1.
</event>
<event>
 4    1  0.1848744E+004  0.2056984E+02  0.7546771E-02  0.1525496E+00
         21   -1    0    0  503  502  0.00000000000E+00  0.00000000000E+00  0.14891837662E+02  0.14891837662E+02  0.00000000000E+00 0.  1.
         21   -1    0    0  501  503 -0.00000000000E+00 -0.00000000000E+00 -0.14108070992E+03  0.14108070992E+03  0.00000000000E+00 0. -1.
          2    1    1    2  501    0 -0.20465188358E+02  0.20722869849E+01 -0.13278669405E+03  0.13437047452E+03  0.00000000000E+00 0. -1.
         -2    1    1    2    0  502  0.20465188358E+02 -0.20722869849E+01  0.65978217925E+01  0.21602073055E+02  0.00000000000E+00 0.  1.
</event>
<event>
 4    1  0.1848744E+004  0.2300980E+02  0.7546771E-02  0.1492375E+00
         21   -1    0    0  503  502  0.00000000000E+00  0.00000000000E+00  0.11980616107E+02  0.11980616107E+02  0.00000000000E+00 0. -1.
         21   -1    0    0  501  503 -0.00000000000E+00 -0.00000000000E+00 -0.46125649331E+02  0.46125649331E+02  0.00000000000E+00 0.  1.
          2    1    1    2  501    0  0.22522341485E+02  0.47111475883E+01 -0.11124409274E+02  0.25557841443E+02  0.00000000000E+00 0. -1.
         -2    1    1    2    0  502 -0.22522341485E+02 -0.47111475883E+01 -0.23020623950E+02  0.32548423996E+02  0.00000000000E+00 0.  1.
</event>
<event>
 4    1  0.1848744E+004  0.2377001E+02  0.7546771E-02  0.1483049E+00
         21   -1    0    0  501  502  0.00000000000E+00  0.00000000000E+00  0.46730426537E+03  0.46730426537E+03  0.00000000000E+00 0.  1.
         21   -1    0    0  502  503 -0.00000000000E+00 -0.00000000000E+00 -0.14353606376E+02  0.14353606376E+02  0.00000000000E+00 0. -1.
          2    1    1    2  501    0  0.19778491620E+02  0.13184254114E+02  0.45693792215E+03  0.45755576489E+03  0.00000000000E+00 0.  1.
         -2    1    1    2    0  503 -0.19778491620E+02 -0.13184254114E+02 -0.39872631558E+01  0.24102106853E+02  0.00000000000E+00 0. -1.
</event>
<event>
 4    1  0.1848744E+004  0.2003699E+02  0.7546771E-02  0.1533471E+00
         21   -1    0    0  501  502  0.00000000000E+00  0.00000000000E+00  0.26318979711E+03  0.26318979711E+03  0.00000000000E+00 0. -1.
         21   -1    0    0  502  503 -0.00000000000E+00 -0.00000000000E+00 -0.17970071467E+01  0.17970071467E+01  0.00000000000E+00 0.  1.
          2    1    1    2  501    0 -0.12112014044E+02  0.15961834204E+02  0.18220212660E+03  0.18330056185E+03  0.00000000000E+00 0. -1.
         -2    1    1    2    0  503  0.12112014044E+02 -0.15961834204E+02  0.79190663362E+02  0.81686242410E+02  0.00000000000E+00 0.  1.
</event>
<event>
 4    1  0.1848744E+004  0.2109409E+02  0.7546771E-02  0.1517926E+00
         21   -1    0    0  501  502  0.00000000000E+00  0.00000000000E+00  0.35879513281E+02  0.35879513281E+02  0.00000000000E+00 0. -1.
         21   -1    0    0  502  503 -0.00000000000E+00 -0.00000000000E+00 -0.15733654648E+02  0.15733654648E+02  0.00000000000E+00 0.  1.
          2    1    1    2  501    0 -0.29721224846E+01 -0.20883655941E+02  0.21949110396E+02  0.30442142577E+02  0.00000000000E+00 0. -1.
         -2    1    1    2    0  503  0.29721224846E+01  0.20883655941E+02 -0.18032517626E+01  0.21171025352E+02  0.00000000000E+00 0.  1.
</event>
<event>
 4    1  0.1848744E+004  0.2132601E+02  0.7546771E-02  0.1514661E+00
         21   -1    0    0  503  502  0.00000000000E+00  0.00000000000E+00  0.58827071892E+01  0.58827071892E+01  0.00000000000E+00 0. -1.
         21   -1    0    0  501  503 -0.00000000000E+00 -0.00000000000E+00 -0.12048911825E+03  0.12048911825E+03  0.00000000000E+00 0.  1.
          2    1    1    2  501    0 -0.21299720697E+02 -0.10585369111E+01 -0.95128095213E+02  0.97489246079E+02  0.00000000000E+00 0.  1.
         -2    1    1    2    0  502  0.21299720697E+02  0.10585369111E+01 -0.19478315844E+02  0.28882579357E+02  0.00000000000E+00 0. -1.
</event>
<event>
 4    1  0.1848744E+004  0.2203243E+02  0.7546771E-02  0.1505019E+00
         21   -1    0    0  501  502  0.00000000000E+00  0.00000000000E+00  0.13108096447E+03  0.13108096447E+03  0.00000000000E+00 0. -1.
         21   -1    0    0  502  503 -0.00000000000E+00 -0.00000000000E+00 -0.56987980833E+01  0.56987980833E+01  0.00000000000E+00 0.  1.
          2    1    1    2  501    0  0.21997310944E+02 -0.12434570208E+01  0.10316072964E+03  0.10548726944E+03  0.00000000000E+00 0. -1.
         -2    1    1    2    0  503 -0.21997310944E+02  0.12434570208E+01  0.22221436747E+02  0.31292493113E+02  0.00000000000E+00 0.  1.
</event>
<event>
 4    1  0.1848744E+004  0.2382215E+02  0.7546771E-02  0.1482425E+00
         21   -1    0    0  503  502  0.00000000000E+00  0.00000000000E+00  0.12480292307E+03  0.12480292307E+03  0.00000000000E+00 0. -1.
         21   -1    0    0  501  503 -0.00000000000E+00 -0.00000000000E+00 -0.32425470898E+02  0.32425470898E+02  0.00000000000E+00 0.  1.
          2    1    1    2  501    0  0.21666776829E+02  0.99018090100E+01 -0.26705193545E+02  0.35786343794E+02  0.00000000000E+00 0.  1.
         -2    1    1    2    0  502 -0.21666776829E+02 -0.99018090100E+01  0.11908264572E+03  0.12144205018E+03  0.00000000000E+00 0. -1.
</event>
<event>
 4    1  0.1848744E+004  0.2235075E+02  0.7546771E-02  0.1500816E+00
         21   -1    0    0  503  502  0.00000000000E+00  0.00000000000E+00  0.12909072602E+04  0.12909072602E+04  0.00000000000E+00 0. -1.
         21   -1    0    0  501  503 -0.00000000000E+00 -0.00000000000E+00 -0.96107371113E+00  0.96107371113E+00  0.00000000000E+00 0.  1.
          2    1    1    2  501    0  0.22243663166E+02  0.21852812134E+01  0.14574261188E+03  0.14744648156E+03  0.00000000000E+00 0.  1.
         -2    1    1    2    0  502 -0.22243663166E+02 -0.21852812134E+01  0.11442035746E+04  0.11444218523E+04  0.00000000000E+00 0. -1.
</event>
<event>
 4    1  0.1848744E+004  0.2621877E+02  0.7546771E-02  0.1455617E+00
         21   -1    0    0  501  502  0.00000000000E+00  0.00000000000E+00  0.23707450059E+03  0.23707450059E+03  0.00000000000E+00 0. -1.
         21   -1    0    0  502  503 -0.00000000000E+00 -0.00000000000E+00 -0.35637942633E+01  0.35637942633E+01  0.00000000000E+00 0.  1.
          2    1    1    2  501    0 -0.62421201414E+01  0.25464878962E+02  0.16869775063E+03  0.17072303650E+03  0.00000000000E+00 0. -1.
         -2    1    1    2    0  503  0.62421201414E+01 -0.25464878962E+02  0.64812955702E+02  0.69915258358E+02  0.00000000000E+00 0.  1.
</event>
<event>
 4    1  0.1848744E+004  0.2249194E+02  0.7546771E-02  0.1498978E+00
         21   -1    0    0  501  502  0.00000000000E+00  0.00000000000E+00  0.35259966057E+01  0.35259966057E+01  0.00000000000E+00 0. -1.
         21   -1    0    0  502  503 -0.00000000000E+00 -0.00000000000E+00 -0.15089797855E+04  0.15089797855E+04  0.00000000000E+00 0.  1.
          2    1    1    2  501    0  0.20874874783E+02  0.83741958665E+01 -0.33324022755E+02  0.40204204335E+02  0.00000000000E+00 0. -1.
         -2    1    1    2    0  503 -0.20874874783E+02 -0.83741958665E+01 -0.14721297662E+04  0.14723015778E+04  0.00000000000E+00 0.  1.
</event>
<event>
 4    1  0.1848744E+004  0.5096612E+02  0.7546771E-02  0.1294037E+00
         21   -1    0    0  501  502  0.00000000000E+00  0.00000000000E+00  0.28900334565E+03  0.28900334565E+03  0.00000000000E+00 0. -1.
         21   -1    0    0  502  503 -0.00000000000E+00 -0.00000000000E+00 -0.32357186258E+02  0.32357186258E+02  0.00000000000E+00 0.  1.
          2    1    1    2  501    0 -0.50749304949E+02  0.46961254920E+01  0.26487552880E+03  0.26973429761E+03  0.00000000000E+00 0. -1.
         -2    1    1    2    0  503  0.50749304949E+02 -0.46961254920E+01 -0.82293694079E+01  0.51626234303E+02  0.00000000000E+00 0.  1.
</event>
<event>
 4    1  0.1848744E+004  0.3199490E+02  0.7546771E-02  0.1403018E+00
         21   -1    0    0  501  502  0.00000000000E+00  0.00000000000E+00  0.25574767516E+02  0.25574767516E+02  0.00000000000E+00 0. -1.
         21   -1    0    0  502  503 -0.00000000000E+00 -0.00000000000E+00 -0.22918314829E+03  0.22918314829E+03  0.00000000000E+00 0.  1.
          2    1    1    2  501    0  0.25307316857E+02  0.19575828925E+02  0.13918077084E+02  0.34891062385E+02  0.00000000000E+00 0. -1.
         -2    1    1    2    0  503 -0.25307316857E+02 -0.19575828925E+02 -0.21752645786E+03  0.21986685342E+03  0.00000000000E+00 0.  1.
</event>
<event>
 4    1  0.1848744E+004  0.2527204E+02  0.7546771E-02  0.1465783E+00
         21   -1    0    0  503  502  0.00000000000E+00  0.00000000000E+00  0.13996405541E+03  0.13996405541E+03  0.00000000000E+00 0.  1.
         21   -1    0    0  501  503 -0.00000000000E+00 -0.00000000000E+00 -0.52554026970E+01  0.52554026970E+01  0.00000000000E+00 0. -1.
          2    1    1    2  501    0 -0.21172183638E+02 -0.13799075960E+02  0.41001532832E+02  0.48164318244E+02  0.00000000000E+00 0. -1.
         -2    1    1    2    0  502  0.21172183638E+02  0.13799075960E+02  0.93707119879E+02  0.97055139861E+02  0.00000000000E+00 0.  1.
</event>
<event>
 4    1  0.1848744E+004  0.5786094E+02  0.7546771E-02  0.1267279E+00
         21   -1    0    0  503  502  0.00000000000E+00  0.00000000000E+00  0.46911485883E+03  0.46911485883E+03  0.00000000000E+00 0. -1.
         21   -1    0    0  501  503 -0.00000000000E+00 -0.00000000000E+00 -0.73438739034E+01  0.73438739034E+01  0.00000000000E+00 0.  1.
          2    1    1    2  501    0 -0.96553650591E+01  0.57049652698E+02  0.19086371118E+03  0.19944133270E+03  0.00000000000E+00 0.  1.
         -2    1    1    2    0  502  0.96553650591E+01 -0.57049652698E+02  0.27090727375E+03  0.27701740003E+03  0.00000000000E+00 0. -1.
</event>
<event>
 4    1  0.1848744E+004  0.3435583E+02  0.7546771E-02  0.1385149E+00
         21   -1    0    0  501  502  0.00000000000E+00  0.00000000000E+00  0.38203282264E+01  0.38203282264E+01  0.00000000000E+00 0.  1.
         21   -1    0    0  502  503 -0.00000000000E+00 -0.00000000000E+00 -0.32929863266E+03  0.32929863266E+03  0.00000000000E+00 0. -1.
          2    1    1    2  501    0  0.21843245429E+02 -0.26517842389E+02 -0.12134395025E+03  0.12611374865E+03  0.00000000000E+00 0.  1.
         -2    1    1    2    0  503 -0.21843245429E+02  0.26517842389E+02 -0.20413435418E+03  0.20700521223E+03  0.00000000000E+00 0. -1.
</event>
<event>
 4    1  0.1848744E+004  0.2146308E+02  0.7546771E-02  0.1512755E+00
         21   -1    0    0  503  502  0.00000000000E+00  0.00000000000E+00  0.54064825441E+02  0.54064825441E+02  0.00000000000E+00 0. -1.
         21   -1    0    0  501  503 -0.00000000000E+00 -0.00000000000E+00 -0.12352255260E+02  0.12352255260E+02  0.00000000000E+00 0.  1.
          2    1    1    2  501    0  0.11097404763E+02 -0.18371485631E+02  0.23605843794E+01  0.21592504147E+02  0.00000000000E+00 0.  1.
         -2    1    1    2    0  502 -0.11097404763E+02  0.18371485631E+02  0.39351985801E+02  0.44824576554E+02  0.00000000000E+00 0. -1.
</event>
<event>
 4    1  0.1848744E+004  0.4168440E+02  0.7546771E-02  0.1338888E+00
         21   -1    0    0  501  502  0.00000000000E+00  0.00000000000E+00  0.91587440272E+01  0.91587440272E+01  0.00000000000E+00 0.  1.
         21   -1    0    0  502  503 -0.00000000000E+00 -0.00000000000E+00 -0.47002131835E+03  0.47002131835E+03  0.00000000000E+00 0. -1.
          2    1    1    2  501    0 -0.36287144721E+02 -0.20514189970E+02 -0.45409352662E+02  0.61640880682E+02  0.00000000000E+00 0.  1.
         -2    1    1    2    0  503  0.36287144721E+02  0.20514189970E+02 -0.41545322166E+03  0.41753918169E+03  0.00000000000E+00 0. -1.
</event>
